Protein in INSANE! Membrane UpperLeaflet>POPC=1.0 LowerLeaflet>POPC=1.0
248712
    1AU     AUC    1  28.008  27.075   7.535
    1AU     AUC    2  28.264  27.065   7.377
    1AU     AUC    3  28.260  27.075   7.700
    1AU     AUC    4  27.748  27.064   7.377
    1AU     AUC    5  27.751  27.097   7.695
    1AU     AUC    6  27.861  27.332   7.512
    1AU     AUC    7  28.179  27.328   7.519
    1AU     AUC    8  27.844  26.820   7.555
    1AU     AUC    9  28.160  26.814   7.550
    1AU     AUC   10  28.001  26.936   7.806
    1AU     AUC   11  28.018  27.255   7.782
    1AU     AUC   12  28.007  26.899   7.287
    1AU     AUC   13  28.012  27.215   7.265
    1AU     AUC   14  28.523  27.069   7.222
    1AU     AUC   15  28.516  27.058   7.544
    1AU     AUC   16  28.510  27.056   7.867
    1AU     AUC   17  27.493  27.037   7.215
    1AU     AUC   18  27.484  27.083   7.540
    1AU     AUC   19  27.503  27.135   7.861
    1AU     AUC   20  27.711  27.588   7.476
    1AU     AUC   21  28.050  27.589   7.480
    1AU     AUC   22  28.364  27.582   7.502
    1AU     AUC   23  27.685  26.565   7.580
    1AU     AUC   24  28.006  26.556   7.560
    1AU     AUC   25  28.321  26.552   7.565
    1AU     AUC   26  27.993  26.797   8.075
    1AU     AUC   27  28.004  27.121   8.067
    1AU     AUC   28  28.039  27.440   8.027
    1AU     AUC   29  28.028  26.729   7.037
    1AU     AUC   30  28.008  27.040   7.013
    1AU     AUC   31  28.010  27.351   6.995
    1AU     AUC   32  28.248  26.921   7.975
    1AU     AUC   33  28.282  27.244   7.956
    1AU     AUC   34  28.284  26.906   7.117
    1AU     AUC   35  28.268  27.222   7.102
    1AU     AUC   36  27.746  26.970   7.977
    1AU     AUC   37  27.759  27.295   7.945
    1AU     AUC   38  27.746  26.871   7.129
    1AU     AUC   39  27.742  27.191   7.096
    1AU     AUC   40  28.444  27.319   7.367
    1AU     AUC   41  28.437  27.333   7.691
    1AU     AUC   42  27.590  27.330   7.339
    1AU     AUC   43  27.598  27.375   7.667
    1AU     AUC   44  28.417  26.795   7.386
    1AU     AUC   45  28.413  26.802   7.717
    1AU     AUC   46  27.574  26.799   7.407
    1AU     AUC   47  27.582  26.836   7.733
    1AU     AUC   48  27.874  27.516   7.766
    1AU     AUC   49  28.213  27.510   7.765
    1AU     AUC   50  27.837  26.676   7.831
    1AU     AUC   51  28.153  26.660   7.822
    1AU     AUC   52  27.852  27.478   7.237
    1AU     AUC   53  28.191  27.483   7.247
    1AU     AUC   54  27.847  26.632   7.300
    1AU     AUC   55  28.185  26.643   7.292
    1AU    AUSL   56  28.418  27.023   8.176
    1AU    AUSL   57  28.291  26.677   8.159
    1AU     AUL   58  28.676  26.824   8.306
    1AU    AUSL   59  28.096  26.945   8.300
    1AU    AUSL   60  27.887  27.314   8.276
    1AU     AUL   61  28.137  27.221   8.577
    1AU    AUSL   62  28.225  27.317   8.246
    1AU    AUSL   63  28.586  27.302   8.035
    1AU     AUL   64  28.549  27.228   8.430
    1AU    AUSL   65  28.446  27.125   6.912
    1AU    AUSL   66  28.331  27.473   6.925
    1AU     AUL   67  28.708  27.293   6.778
    1AU    AUSL   68  28.238  26.877   6.810
    1AU    AUSL   69  28.599  26.832   7.057
    1AU     AUL   70  28.605  26.900   6.683
    1AU    AUSL   71  28.108  27.189   6.781
    1AU    AUSL   72  27.892  26.857   6.821
    1AU     AUL   73  28.103  26.743   6.575
    1AU    AUSL   74  27.570  27.250   8.157
    1AU    AUSL   75  27.756  27.582   8.039
    1AU     AUL   76  27.731  27.612   8.367
    1AU    AUSL   77  27.750  26.979   8.263
    1AU    AUSL   78  27.490  26.862   8.039
    1AU     AUL   79  27.300  27.049   8.197
    1AU    AUSL   80  27.568  26.917   6.901
    1AU    AUSL   81  27.722  26.588   7.016
    1AU     AUL   82  27.752  26.587   6.669
    1AU    AUSL   83  27.756  27.184   6.816
    1AU    AUSL   84  27.472  27.309   7.031
    1AU     AUL   85  27.305  27.078   6.872
    1AU    AUSL   86  28.680  27.490   7.458
    1AU    AUSL   87  28.595  27.351   7.131
    1AU     AUL   88  28.928  27.275   7.098
    1AU    AUSL   89  28.779  27.167   7.389
    1AU    AUSL   90  28.752  26.913   7.710
    1AU     AUL   91  29.082  27.002   7.564
    1AU    AUSL   92  28.651  27.245   7.699
    1AU    AUSL   93  28.557  27.594   7.775
    1AU     AUL   94  28.874  27.300   7.811
    1AU    AUSL   95  27.421  27.564   7.488
    1AU    AUSL   96  27.439  27.453   7.916
    1AU     AUL   97  27.125  27.605   7.686
    1AU    AUSL   98  27.298  27.229   7.312
    1AU    AUSL   99  27.562  27.624   7.176
    1AU     AUL  100  27.185  27.530   7.196
    1AU    AUSL  101  27.286  27.261   7.686
    1AU    AUSL  102  27.242  26.916   7.416
    1AU     AUL  103  27.011  27.289   7.480
    1AU    AUSL  104  28.617  26.603   7.628
    1AU    AUSL  105  28.555  26.770   7.960
    1AU     AUL  106  28.895  26.820   7.964
    1AU    AUSL  107  28.635  26.854   7.395
    1AU    AUSL  108  28.522  26.532   7.279
    1AU     AUL  109  28.873  26.769   7.311
    1AU    AUSL  110  27.384  26.631   7.599
    1AU    AUSL  111  27.415  26.753   7.153
    1AU     AUL  112  27.183  26.546   7.351
    1AU    AUSL  113  27.281  26.931   7.770
    1AU    AUSL  114  27.551  26.546   7.897
    1AU     AUL  115  27.228  26.608   7.932
    1AU    AUSL  116  28.063  27.747   7.937
    1AU    AUSL  117  27.608  27.725   7.748
    1AU     AUL  118  27.811  27.950   8.028
    1AU    AUSL  119  27.925  27.699   7.617
    1AU    AUSL  120  28.171  27.836   7.338
    1AU     AUL  121  27.907  28.015   7.624
    1AU    AUSL  122  28.285  27.803   7.655
    1AU    AUSL  123  28.337  27.555   8.041
    1AU     AUL  124  28.391  27.881   7.983
    1AU    AUSL  125  28.021  26.481   7.993
    1AU    AUSL  126  28.365  26.482   7.872
    1AU     AUL  127  28.140  26.401   8.276
    1AU    AUSL  128  27.791  26.364   7.750
    1AU    AUSL  129  27.768  26.655   8.156
    1AU     AUL  130  27.732  26.279   8.088
    1AU    AUSL  131  28.115  26.320   7.687
    1AU    AUSL  132  27.878  26.341   7.406
    1AU     AUL  133  27.669  26.139   7.570
    1AU    AUSL  134  28.042  27.638   7.077
    1AU    AUSL  135  28.444  27.650   7.238
    1AU     AUL  136  28.250  27.833   6.943
    1AU    AUSL  137  27.820  27.807   7.303
    1AU    AUSL  138  27.761  27.497   6.922
    1AU     AUL  139  27.832  27.811   6.911
    1AU    AUSL  140  28.027  26.436   7.103
    1AU    AUSL  141  27.559  26.467   7.317
    1AU     AUL  142  27.752  26.218   7.087
    1AU    AUSL  143  28.243  26.358   7.374
    1AU    AUSL  144  28.320  26.617   7.006
    1AU     AUL  145  28.310  26.307   6.992
    1AU       S  146  28.628  26.288   8.313
    1AU     LIG  147  28.718  25.801   8.336
    1AU     LIG  148  28.988  25.401   8.368
    1AU     LIG  149  29.475  25.240   8.423
    1AU       S  150  28.378  26.766   8.709
    1AU     LIG  151  28.592  26.964   9.095
    1AU     LIG  152  28.891  27.086   9.455
    1AU     LIG  153  29.248  27.029   9.775
    1AU       S  154  28.040  26.729   8.695
    1AU     LIG  155  28.132  26.687   9.162
    1AU     LIG  156  28.493  26.626   9.482
    1AU     LIG  157  28.822  26.708   9.813
    1AU       S  158  27.653  27.254   8.731
    1AU     LIG  159  27.593  27.183   9.154
    1AU     LIG  160  27.284  26.980   9.399
    1AU     LIG  161  27.009  27.046   9.765
    1AU       S  162  28.260  27.720   8.535
    1AU     LIG  163  28.443  27.878   8.912
    1AU     LIG  164  28.829  27.743   9.082
    1AU     LIG  165  29.179  27.479   9.192
    1AU       S  166  28.911  27.566   8.243
    1AU     LIG  167  29.104  27.611   8.654
    1AU     LIG  168  29.305  27.919   8.896
    1AU     LIG  169  29.462  28.309   9.112
    1AU       S  170  28.409  27.347   6.378
    1AU     LIG  171  28.594  27.271   5.935
    1AU     LIG  172  28.835  26.897   5.809
    1AU     LIG  173  28.775  26.455   5.714
    1AU       S  174  28.719  27.804   6.780
    1AU     LIG  175  28.894  28.083   6.523
    1AU     LIG  176  28.931  28.160   6.111
    1AU     LIG  177  29.250  28.346   5.944
    1AU       S  178  28.943  26.535   6.864
    1AU     LIG  179  29.082  26.526   6.405
    1AU     LIG  180  29.057  26.193   6.085
    1AU     LIG  181  28.990  25.754   6.219
    1AU       S  182  28.310  27.097   6.303
    1AU     LIG  183  28.325  26.816   5.934
    1AU     LIG  184  28.302  26.616   5.525
    1AU     LIG  185  28.600  26.448   5.224
    1AU       S  186  27.726  26.996   6.330
    1AU     LIG  187  27.597  26.983   5.912
    1AU     LIG  188  27.830  26.821   5.593
    1AU     LIG  189  27.920  26.917   5.172
    1AU       S  190  28.121  27.321   6.400
    1AU     LIG  191  28.029  27.255   5.927
    1AU     LIG  192  28.260  27.135   5.535
    1AU     LIG  193  28.644  26.957   5.335
    1AU       S  194  27.404  27.297   8.617
    1AU     LIG  195  27.157  27.053   8.881
    1AU     LIG  196  27.032  26.677   9.053
    1AU     LIG  197  26.909  26.611   9.481
    1AU       S  198  27.321  27.889   8.196
    1AU     LIG  199  27.016  28.106   8.479
    1AU     LIG  200  26.829  28.037   8.914
    1AU     LIG  201  26.558  28.312   9.207
    1AU       S  202  27.297  26.621   8.466
    1AU     LIG  203  26.822  26.467   8.382
    1AU     LIG  204  26.534  26.096   8.416
    1AU     LIG  205  26.233  25.935   8.740
    1AU       S  206  27.604  26.997   8.648
    1AU     LIG  207  27.556  26.703   8.993
    1AU     LIG  208  27.405  26.469   9.357
    1AU     LIG  209  27.333  26.626   9.780
    1AU       S  210  27.452  26.937   6.413
    1AU     LIG  211  27.290  26.617   6.112
    1AU     LIG  212  27.319  26.635   5.635
    1AU     LIG  213  27.407  26.986   5.335
    1AU       S  214  27.341  26.313   6.776
    1AU     LIG  215  27.163  25.946   6.543
    1AU     LIG  216  26.937  25.949   6.139
    1AU     LIG  217  26.491  25.867   5.961
    1AU       S  218  27.229  27.525   6.654
    1AU     LIG  219  26.892  27.882   6.679
    1AU     LIG  220  26.733  28.193   6.374
    1AU     LIG  221  26.720  28.273   5.910
    1AU       S  222  27.626  27.238   6.439
    1AU     LIG  223  27.336  27.387   6.144
    1AU     LIG  224  27.400  27.404   5.693
    1AU     LIG  225  27.786  27.330   5.468
    1AU       S  226  28.899  27.768   6.985
    1AU     LIG  227  29.302  27.863   6.786
    1AU     LIG  228  29.357  27.922   6.323
    1AU     LIG  229  29.558  27.918   5.907
    1AU       S  230  28.979  27.736   7.471
    1AU     LIG  231  29.282  27.995   7.307
    1AU     LIG  232  29.615  27.935   7.582
    1AU     LIG  233  30.020  27.753   7.508
    1AU       S  234  29.224  27.498   7.434
    1AU     LIG  235  29.601  27.603   7.182
    1AU     LIG  236  30.018  27.601   6.988
    1AU     LIG  237  30.367  27.745   6.691
    1AU       S  238  29.114  26.455   7.705
    1AU     LIG  239  29.488  26.251   7.857
    1AU     LIG  240  29.860  25.989   7.803
    1AU     LIG  241  30.125  26.030   7.462
    1AU       S  242  28.896  27.796   8.026
    1AU     LIG  243  29.211  28.002   8.315
    1AU     LIG  244  29.250  28.367   8.631
    1AU     LIG  245  29.182  28.722   8.950
    1AU       S  246  29.155  27.647   7.633
    1AU     LIG  247  29.419  27.647   7.980
    1AU     LIG  248  29.859  27.723   8.018
    1AU     LIG  249  30.252  27.559   7.917
    1AU       S  250  27.189  27.626   8.213
    1AU     LIG  251  26.890  27.622   8.533
    1AU     LIG  252  26.520  27.904   8.524
    1AU     LIG  253  26.269  28.064   8.867
    1AU       S  254  27.297  28.029   7.409
    1AU     LIG  255  27.093  28.374   7.224
    1AU     LIG  256  26.702  28.440   7.027
    1AU     LIG  257  26.402  28.198   6.770
    1AU       S  258  26.819  27.078   7.069
    1AU     LIG  259  26.344  27.245   7.183
    1AU     LIG  260  25.985  27.615   7.207
    1AU     LIG  261  25.908  28.098   7.178
    1AU       S  262  27.344  27.936   6.915
    1AU     LIG  263  27.239  28.275   6.678
    1AU     LIG  264  26.977  28.595   6.588
    1AU     LIG  265  26.769  28.683   6.200
    1AU       S  266  26.789  26.824   7.530
    1AU     LIG  267  26.457  26.734   7.282
    1AU     LIG  268  26.009  26.789   7.307
    1AU     LIG  269  25.650  26.752   7.034
    1AU       S  270  26.874  27.276   7.998
    1AU     LIG  271  26.516  27.450   8.230
    1AU     LIG  272  26.255  27.787   8.077
    1AU     LIG  273  26.223  27.869   7.613
    1AU       S  274  28.840  26.261   7.609
    1AU     LIG  275  29.018  25.854   7.517
    1AU     LIG  276  29.411  25.785   7.648
    1AU     LIG  277  29.720  25.764   7.323
    1AU       S  278  28.812  26.332   8.107
    1AU     LIG  279  29.075  25.975   8.009
    1AU     LIG  280  29.351  25.763   8.292
    1AU     LIG  281  29.297  25.616   8.737
    1AU       S  282  29.052  26.358   7.499
    1AU     LIG  283  29.406  26.187   7.321
    1AU     LIG  284  29.821  26.306   7.162
    1AU     LIG  285  30.260  26.252   6.998
    1AU       S  286  28.827  26.293   7.069
    1AU     LIG  287  29.001  25.968   6.806
    1AU     LIG  288  28.711  25.671   6.666
    1AU     LIG  289  28.503  25.345   6.450
    1AU       S  290  27.174  26.520   6.839
    1AU     LIG  291  26.899  26.377   6.495
    1AU     LIG  292  26.551  26.069   6.460
    1AU     LIG  293  26.242  25.730   6.577
    1AU       S  294  26.798  26.596   7.669
    1AU     LIG  295  26.674  26.218   7.426
    1AU     LIG  296  26.335  26.077   7.140
    1AU     LIG  297  25.907  26.285   7.112
    1AU       S  298  27.320  26.366   8.363
    1AU     LIG  299  27.017  26.036   8.176
    1AU     LIG  300  26.700  25.694   8.142
    1AU     LIG  301  26.319  25.551   8.331
    1AU       S  302  26.814  26.853   7.757
    1AU     LIG  303  26.393  26.869   7.908
    1AU     LIG  304  25.968  26.683   7.873
    1AU     LIG  305  25.595  26.517   8.073
    1AU       S  306  27.330  28.040   7.902
    1AU     LIG  307  26.952  28.246   7.962
    1AU     LIG  308  26.615  28.335   8.224
    1AU     LIG  309  26.595  28.415   8.680
    1AU       S  310  28.180  28.325   7.926
    1AU     LIG  311  28.223  28.688   8.165
    1AU     LIG  312  27.910  28.950   8.332
    1AU     LIG  313  27.761  29.336   8.538
    1AU       S  314  28.169  28.517   7.673
    1AU     LIG  315  27.786  28.706   7.849
    1AU     LIG  316  27.611  29.127   7.938
    1AU     LIG  317  27.953  29.375   8.046
    1AU       S  318  28.131  28.272   7.230
    1AU     LIG  319  27.943  28.732   7.266
    1AU     LIG  320  28.020  29.184   7.161
    1AU     LIG  321  28.361  29.433   6.980
    1AU       S  322  28.721  27.743   8.332
    1AU     LIG  323  28.830  28.065   8.645
    1AU     LIG  324  28.945  28.241   9.056
    1AU     LIG  325  29.162  27.988   9.400
    1AU       S  326  28.409  28.271   7.646
    1AU     LIG  327  28.592  28.747   7.769
    1AU     LIG  328  28.435  29.135   8.012
    1AU     LIG  329  28.290  29.287   8.417
    1AU       S  330  28.147  25.940   8.066
    1AU     LIG  331  28.318  25.520   8.144
    1AU     LIG  332  28.379  25.135   8.377
    1AU     LIG  333  28.174  24.784   8.633
    1AU       S  334  28.582  26.185   8.018
    1AU     LIG  335  28.631  25.776   7.825
    1AU     LIG  336  28.861  25.411   7.824
    1AU     LIG  337  29.289  25.378   7.964
    1AU       S  338  27.935  25.847   7.883
    1AU     LIG  339  27.838  25.406   7.979
    1AU     LIG  340  27.853  25.050   8.278
    1AU     LIG  341  27.604  24.873   8.640
    1AU       S  342  27.576  26.515   8.527
    1AU     LIG  343  27.299  26.272   8.850
    1AU     LIG  344  27.010  25.947   8.688
    1AU     LIG  345  26.672  25.661   8.677
    1AU       S  346  28.041  25.857   7.350
    1AU     LIG  347  27.860  25.505   7.065
    1AU     LIG  348  28.010  25.102   6.930
    1AU     LIG  349  28.392  24.856   6.853
    1AU       S  350  28.177  25.949   7.815
    1AU     LIG  351  28.223  25.494   7.644
    1AU     LIG  352  28.368  25.093   7.820
    1AU     LIG  353  28.227  24.737   8.103
    1AU       S  354  27.984  28.266   7.021
    1AU     LIG  355  27.972  28.631   6.761
    1AU     LIG  356  28.159  29.041   6.688
    1AU     LIG  357  28.327  29.419   6.466
    1AU       S  358  28.725  27.961   7.112
    1AU     LIG  359  29.059  28.282   6.961
    1AU     LIG  360  29.353  28.354   6.592
    1AU     LIG  361  29.466  28.669   6.268
    1AU       S  362  27.739  28.240   7.196
    1AU     LIG  363  27.511  28.592   7.001
    1AU     LIG  364  27.627  29.018   6.853
    1AU     LIG  365  27.810  29.420   6.672
    1AU       S  366  27.441  27.687   6.621
    1AU     LIG  367  27.216  27.917   6.284
    1AU     LIG  368  27.174  28.360   6.146
    1AU     LIG  369  27.242  28.829   6.119
    1AU       S  370  27.251  26.208   6.994
    1AU     LIG  371  26.837  26.083   6.934
    1AU     LIG  372  26.732  25.696   6.759
    1AU     LIG  373  26.684  25.556   6.338
    1AU       S  374  28.172  25.868   7.152
    1AU     LIG  375  28.183  25.676   6.714
    1AU     LIG  376  28.003  25.323   6.470
    1AU     LIG  377  28.228  24.933   6.377
    1AU       S  378  28.389  25.965   7.379
    1AU     LIG  379  28.601  25.600   7.329
    1AU     LIG  380  28.475  25.345   7.020
    1AU     LIG  381  28.803  25.192   6.811
    1AU       S  382  28.738  26.394   6.765
    1AU     LIG  383  28.673  26.135   6.421
    1AU     LIG  384  28.477  25.792   6.207
    1AU     LIG  385  28.651  25.445   5.948
    2AU     AUC  386  12.443  25.740   7.526
    2AU     AUC  387  12.691  25.724   7.356
    2AU     AUC  388  12.702  25.738   7.677
    2AU     AUC  389  12.177  25.731   7.380
    2AU     AUC  390  12.193  25.769   7.697
    2AU     AUC  391  12.298  25.998   7.506
    2AU     AUC  392  12.616  25.991   7.499
    2AU     AUC  393  12.276  25.488   7.557
    2AU     AUC  394  12.591  25.476   7.536
    2AU     AUC  395  12.446  25.604   7.797
    2AU     AUC  396  12.466  25.923   7.770
    2AU     AUC  397  12.428  25.562   7.280
    2AU     AUC  398  12.437  25.877   7.254
    2AU     AUC  399  12.943  25.724   7.187
    2AU     AUC  400  12.950  25.717   7.509
    2AU     AUC  401  12.959  25.718   7.832
    2AU     AUC  402  11.917  25.705   7.231
    2AU     AUC  403  11.919  25.758   7.554
    2AU     AUC  404  11.954  25.814   7.872
    2AU     AUC  405  12.149  26.256   7.473
    2AU     AUC  406  12.488  26.253   7.465
    2AU     AUC  407  12.803  26.242   7.472
    2AU     AUC  408  12.114  25.236   7.593
    2AU     AUC  409  12.432  25.220   7.556
    2AU     AUC  410  12.747  25.211   7.544
    2AU     AUC  411  12.450  25.469   8.069
    2AU     AUC  412  12.463  25.793   8.057
    2AU     AUC  413  12.499  26.110   8.012
    2AU     AUC  414  12.432  25.388   7.033
    2AU     AUC  415  12.420  25.700   7.003
    2AU     AUC  416  12.426  26.009   6.982
    2AU     AUC  417  12.700  25.588   7.954
    2AU     AUC  418  12.736  25.910   7.931
    2AU     AUC  419  12.695  25.562   7.097
    2AU     AUC  420  12.686  25.879   7.079
    2AU     AUC  421  12.201  25.644   7.981
    2AU     AUC  422  12.214  25.969   7.945
    2AU     AUC  423  12.162  25.537   7.137
    2AU     AUC  424  12.162  25.855   7.096
    2AU     AUC  425  12.873  25.978   7.335
    2AU     AUC  426  12.882  25.994   7.658
    2AU     AUC  427  12.020  25.999   7.345
    2AU     AUC  428  12.042  26.048   7.671
    2AU     AUC  429  12.839  25.452   7.359
    2AU     AUC  430  12.853  25.464   7.689
    2AU     AUC  431  12.000  25.472   7.423
    2AU     AUC  432  12.024  25.512   7.748
    2AU     AUC  433  12.323  26.185   7.759
    2AU     AUC  434  12.662  26.174   7.742
    2AU     AUC  435  12.280  25.348   7.835
    2AU     AUC  436  12.595  25.327   7.808
    2AU     AUC  437  12.279  26.141   7.230
    2AU     AUC  438  12.617  26.142   7.225
    2AU     AUC  439  12.262  25.297   7.306
    2AU     AUC  440  12.596  25.300   7.279
    2AU    AUSL  441  12.878  25.691   8.145
    2AU    AUSL  442  12.751  25.347   8.138
    2AU     AUL  443  13.143  25.501   8.265
    2AU    AUSL  444  12.563  25.616   8.286
    2AU    AUSL  445  12.356  25.989   8.271
    2AU     AUL  446  12.620  25.893   8.559
    2AU    AUSL  447  12.692  25.987   8.224
    2AU    AUSL  448  13.047  25.963   7.995
    2AU     AUL  449  13.023  25.893   8.393
    2AU    AUSL  450  12.856  25.781   6.882
    2AU    AUSL  451  12.740  26.128   6.897
    2AU     AUL  452  13.113  25.949   6.736
    2AU    AUSL  453  12.643  25.533   6.796
    2AU    AUSL  454  12.997  25.478   7.019
    2AU     AUL  455  13.002  25.559   6.644
    2AU    AUSL  456  12.515  25.845   6.763
    2AU    AUSL  457  12.299  25.513   6.817
    2AU     AUL  458  12.515  25.403   6.561
    2AU    AUSL  459  12.033  25.926   8.165
    2AU    AUSL  460  12.217  26.258   8.037
    2AU     AUL  461  12.197  26.282   8.372
    2AU    AUSL  462  12.216  25.656   8.267
    2AU    AUSL  463  11.951  25.545   8.055
    2AU     AUL  464  11.759  25.737   8.212
    2AU    AUSL  465  11.984  25.574   6.917
    2AU    AUSL  466  12.120  25.259   7.030
    2AU     AUL  467  12.205  25.214   6.706
    2AU    AUSL  468  12.165  25.841   6.813
    2AU    AUSL  469  11.896  25.975   7.044
    2AU     AUL  470  11.727  25.755   6.890
    2AU    AUSL  471  13.114  26.149   7.414
    2AU    AUSL  472  13.014  26.007   7.092
    2AU     AUL  473  13.347  25.934   7.047
    2AU    AUSL  474  13.205  25.823   7.341
    2AU    AUSL  475  13.193  25.571   7.661
    2AU     AUL  476  13.519  25.660   7.493
    2AU    AUSL  477  13.096  25.906   7.657
    2AU    AUSL  478  13.008  26.256   7.734
    2AU     AUL  479  13.326  25.960   7.754
    2AU    AUSL  480  11.860  26.238   7.492
    2AU    AUSL  481  11.895  26.129   7.925
    2AU     AUL  482  11.575  26.287   7.699
    2AU    AUSL  483  11.724  25.892   7.327
    2AU    AUSL  484  11.991  26.291   7.176
    2AU     AUL  485  11.615  26.198   7.208
    2AU    AUSL  486  11.727  25.944   7.700
    2AU    AUSL  487  11.668  25.586   7.451
    2AU     AUL  488  11.438  25.959   7.500
    2AU    AUSL  489  13.049  25.262   7.590
    2AU    AUSL  490  13.007  25.436   7.925
    2AU     AUL  491  13.349  25.479   7.906
    2AU    AUSL  492  13.060  25.509   7.352
    2AU    AUSL  493  12.928  25.185   7.250
    2AU     AUL  494  13.288  25.417   7.255
    2AU    AUSL  495  11.820  25.311   7.629
    2AU    AUSL  496  11.823  25.432   7.180
    2AU     AUL  497  11.614  25.198   7.397
    2AU    AUSL  498  11.726  25.620   7.799
    2AU    AUSL  499  11.998  25.221   7.918
    2AU     AUL  500  11.688  25.309   7.967
    2AU    AUSL  501  12.522  26.414   7.921
    2AU    AUSL  502  12.057  26.398   7.746
    2AU     AUL  503  12.275  26.626   8.009
    2AU    AUSL  504  12.370  26.363   7.607
    2AU    AUSL  505  12.606  26.495   7.315
    2AU     AUL  506  12.368  26.679   7.616
    2AU    AUSL  507  12.733  26.465   7.628
    2AU    AUSL  508  12.799  26.218   8.009
    2AU     AUL  509  12.847  26.544   7.947
    2AU    AUSL  510  12.472  25.153   7.989
    2AU    AUSL  511  12.808  25.149   7.848
    2AU     AUL  512  12.601  25.072   8.264
    2AU    AUSL  513  12.229  25.037   7.761
    2AU    AUSL  514  12.228  25.330   8.163
    2AU     AUL  515  12.190  24.950   8.101
    2AU    AUSL  516  12.547  24.984   7.681
    2AU    AUSL  517  12.285  25.001   7.413
    2AU     AUL  518  12.083  24.813   7.611
    2AU    AUSL  519  12.460  26.295   7.067
    2AU    AUSL  520  12.868  26.306   7.201
    2AU     AUL  521  12.652  26.483   6.911
    2AU    AUSL  522  12.253  26.474   7.300
    2AU    AUSL  523  12.179  26.157   6.913
    2AU     AUL  524  12.247  26.479   6.910
    2AU    AUSL  525  12.416  25.090   7.100
    2AU    AUSL  526  11.972  25.146   7.335
    2AU     AUL  527  12.115  24.885   7.101
    2AU    AUSL  528  12.650  25.013   7.359
    2AU    AUSL  529  12.710  25.265   6.987
    2AU     AUL  530  12.694  24.954   6.985
    2AU       S  531  13.092  24.974   8.285
    2AU     LIG  532  13.171  24.515   8.313
    2AU     LIG  533  13.176  24.118   8.508
    2AU     LIG  534  13.530  23.964   8.711
    2AU       S  535  12.856  25.430   8.680
    2AU     LIG  536  13.010  25.624   9.087
    2AU     LIG  537  13.227  25.725   9.495
    2AU     LIG  538  13.436  25.647   9.907
    2AU       S  539  12.517  25.403   8.683
    2AU     LIG  540  12.516  25.460   9.149
    2AU     LIG  541  12.820  25.393   9.525
    2AU     LIG  542  13.244  25.219   9.670
    2AU       S  543  12.149  25.925   8.746
    2AU     LIG  544  12.122  25.827   9.184
    2AU     LIG  545  11.819  25.650   9.485
    2AU     LIG  546  11.576  25.795   9.860
    2AU       S  547  12.745  26.391   8.503
    2AU     LIG  548  12.885  26.574   8.881
    2AU     LIG  549  13.239  26.470   9.126
    2AU     LIG  550  13.597  26.201   9.116
    2AU       S  551  13.379  26.227   8.185
    2AU     LIG  552  13.569  26.312   8.589
    2AU     LIG  553  13.661  26.645   8.832
    2AU     LIG  554  13.993  26.906   8.981
    2AU       S  555  12.794  26.006   6.351
    2AU     LIG  556  12.939  25.977   5.893
    2AU     LIG  557  13.126  25.646   5.633
    2AU     LIG  558  13.256  25.200   5.560
    2AU       S  559  13.110  26.464   6.716
    2AU     LIG  560  13.162  26.875   6.526
    2AU     LIG  561  13.336  27.112   6.184
    2AU     LIG  562  13.672  27.375   6.035
    2AU       S  563  13.308  25.162   6.815
    2AU     LIG  564  13.502  25.009   6.428
    2AU     LIG  565  13.542  24.607   6.260
    2AU     LIG  566  13.700  24.261   6.466
    2AU       S  567  12.688  25.759   6.270
    2AU     LIG  568  12.677  25.507   5.876
    2AU     LIG  569  12.752  25.351   5.435
    2AU     LIG  570  13.087  25.443   5.128
    2AU       S  571  12.091  25.604   6.349
    2AU     LIG  572  12.035  25.598   5.910
    2AU     LIG  573  12.267  25.506   5.557
    2AU     LIG  574  12.249  25.438   5.116
    2AU       S  575  12.498  25.968   6.374
    2AU     LIG  576  12.410  25.947   5.887
    2AU     LIG  577  12.653  25.858   5.476
    2AU     LIG  578  13.042  25.972   5.240
    2AU       S  579  11.892  25.953   8.641
    2AU     LIG  580  11.653  25.744   8.958
    2AU     LIG  581  11.466  25.407   9.197
    2AU     LIG  582  11.303  25.397   9.638
    2AU       S  583  11.798  26.576   8.199
    2AU     LIG  584  11.602  26.806   8.540
    2AU     LIG  585  11.234  26.827   8.783
    2AU     LIG  586  10.955  27.026   9.060
    2AU       S  587  11.770  25.313   8.487
    2AU     LIG  588  11.293  25.204   8.373
    2AU     LIG  589  11.007  24.831   8.335
    2AU     LIG  590  10.819  24.671   8.736
    2AU       S  591  12.084  25.672   8.661
    2AU     LIG  592  12.000  25.373   9.004
    2AU     LIG  593  11.871  25.139   9.363
    2AU     LIG  594  11.753  25.218   9.793
    2AU       S  595  11.845  25.522   6.462
    2AU     LIG  596  11.609  25.381   6.117
    2AU     LIG  597  11.543  25.555   5.714
    2AU     LIG  598  11.805  25.629   5.361
    2AU       S  599  11.724  25.087   6.769
    2AU     LIG  600  11.649  24.758   6.466
    2AU     LIG  601  11.555  24.466   6.125
    2AU     LIG  602  11.178  24.265   6.028
    2AU       S  603  11.657  26.183   6.652
    2AU     LIG  604  11.317  26.493   6.680
    2AU     LIG  605  11.114  26.858   6.508
    2AU     LIG  606  11.111  27.082   6.147
    2AU       S  607  12.011  25.858   6.437
    2AU     LIG  608  11.699  25.928   6.132
    2AU     LIG  609  11.795  26.018   5.698
    2AU     LIG  610  12.164  25.995   5.414
    2AU       S  611  13.305  26.426   6.923
    2AU     LIG  612  13.601  26.609   6.599
    2AU     LIG  613  13.768  26.834   6.205
    2AU     LIG  614  14.109  27.096   5.999
    2AU       S  615  13.417  26.421   7.416
    2AU     LIG  616  13.767  26.721   7.338
    2AU     LIG  617  14.231  26.677   7.402
    2AU     LIG  618  14.682  26.677   7.518
    2AU       S  619  13.643  26.178   7.365
    2AU     LIG  620  14.089  26.164   7.452
    2AU     LIG  621  14.522  26.213   7.336
    2AU     LIG  622  14.834  26.457   7.079
    2AU       S  623  13.542  25.106   7.638
    2AU     LIG  624  13.931  24.969   7.831
    2AU     LIG  625  14.382  25.028   7.886
    2AU     LIG  626  14.722  24.821   8.066
    2AU       S  627  13.351  26.464   7.971
    2AU     LIG  628  13.649  26.710   8.225
    2AU     LIG  629  13.685  27.063   8.531
    2AU     LIG  630  13.627  27.268   8.939
    2AU       S  631  13.593  26.318   7.576
    2AU     LIG  632  13.936  26.503   7.807
    2AU     LIG  633  14.405  26.362   7.828
    2AU     LIG  634  14.809  26.120   7.956
    2AU       S  635  11.667  26.318   8.221
    2AU     LIG  636  11.313  26.402   8.423
    2AU     LIG  637  10.931  26.580   8.448
    2AU     LIG  638  10.780  26.583   8.849
    2AU       S  639  11.738  26.708   7.408
    2AU     LIG  640  11.572  27.057   7.172
    2AU     LIG  641  11.196  26.989   6.997
    2AU     LIG  642  10.874  26.637   6.911
    2AU       S  643  11.265  25.692   7.104
    2AU     LIG  644  10.801  25.700   7.052
    2AU     LIG  645  10.410  25.949   7.119
    2AU     LIG  646  10.300  26.350   7.282
    2AU       S  647  11.759  26.598   6.910
    2AU     LIG  648  11.625  26.911   6.625
    2AU     LIG  649  11.404  27.289   6.602
    2AU     LIG  650  11.080  27.527   6.405
    2AU       S  651  11.229  25.490   7.583
    2AU     LIG  652  10.852  25.325   7.433
    2AU     LIG  653  10.491  25.535   7.430
    2AU     LIG  654  10.104  25.552   7.247
    2AU       S  655  11.323  25.983   8.032
    2AU     LIG  656  10.936  26.063   8.332
    2AU     LIG  657  10.517  26.304   8.383
    2AU     LIG  658  10.368  26.435   7.993
    2AU       S  659  13.268  24.917   7.560
    2AU     LIG  660  13.439  24.491   7.458
    2AU     LIG  661  13.801  24.344   7.686
    2AU     LIG  662  14.216  24.528   7.792
    2AU       S  663  13.260  25.000   8.066
    2AU     LIG  664  13.520  24.676   7.940
    2AU     LIG  665  13.847  24.562   8.175
    2AU     LIG  666  13.670  24.441   8.581
    2AU       S  667  13.473  24.999   7.421
    2AU     LIG  668  13.863  24.757   7.374
    2AU     LIG  669  14.288  24.886   7.396
    2AU     LIG  670  14.517  25.298   7.467
    2AU       S  671  13.206  24.937   7.016
    2AU     LIG  672  13.420  24.615   6.797
    2AU     LIG  673  13.340  24.191   6.829
    2AU     LIG  674  13.146  23.851   6.601
    2AU       S  675  11.528  25.248   6.889
    2AU     LIG  676  11.318  25.172   6.488
    2AU     LIG  677  11.193  24.830   6.224
    2AU     LIG  678  10.838  24.581   6.256
    2AU       S  679  11.255  25.278   7.732
    2AU     LIG  680  10.989  24.938   7.779
    2AU     LIG  681  10.680  24.833   7.479
    2AU     LIG  682  10.331  25.067   7.308
    2AU       S  683  11.784  25.050   8.383
    2AU     LIG  684  11.480  24.799   8.116
    2AU     LIG  685  11.315  24.414   8.127
    2AU     LIG  686  11.118  24.275   8.462
    2AU       S  687  11.255  25.541   7.822
    2AU     LIG  688  10.877  25.365   8.035
    2AU     LIG  689  10.513  25.199   7.826
    2AU     LIG  690  10.142  25.455   7.799
    2AU       S  691  11.788  26.728   7.899
    2AU     LIG  692  11.501  27.014   8.091
    2AU     LIG  693  11.080  27.040   8.316
    2AU     LIG  694  10.683  27.040   8.576
    2AU       S  695  12.651  26.995   7.914
    2AU     LIG  696  12.849  27.341   8.137
    2AU     LIG  697  12.586  27.615   8.399
    2AU     LIG  698  12.172  27.717   8.603
    2AU       S  699  12.627  27.154   7.660
    2AU     LIG  700  12.260  27.373   7.760
    2AU     LIG  701  12.181  27.660   8.077
    2AU     LIG  702  12.331  28.048   8.243
    2AU       S  703  12.587  26.926   7.210
    2AU     LIG  704  12.414  27.389   7.264
    2AU     LIG  705  12.532  27.826   7.206
    2AU     LIG  706  12.878  27.955   6.906
    2AU       S  707  13.193  26.401   8.274
    2AU     LIG  708  13.232  26.756   8.524
    2AU     LIG  709  13.251  26.941   8.919
    2AU     LIG  710  13.543  26.876   9.277
    2AU       S  711  12.878  26.935   7.613
    2AU     LIG  712  12.996  27.453   7.645
    2AU     LIG  713  12.693  27.759   7.893
    2AU     LIG  714  12.913  27.984   8.283
    2AU       S  715  12.602  24.611   8.058
    2AU     LIG  716  12.745  24.194   8.150
    2AU     LIG  717  12.797  23.780   8.357
    2AU     LIG  718  12.505  23.471   8.582
    2AU       S  719  13.030  24.863   7.985
    2AU     LIG  720  13.080  24.454   7.803
    2AU     LIG  721  13.218  24.118   7.996
    2AU     LIG  722  13.568  24.142   8.177
    2AU       S  723  12.380  24.506   7.884
    2AU     LIG  724  12.262  24.028   7.853
    2AU     LIG  725  12.040  23.601   7.915
    2AU     LIG  726  12.021  23.304   8.293
    2AU       S  727  12.036  25.190   8.541
    2AU     LIG  728  11.679  24.992   8.861
    2AU     LIG  729  11.347  24.676   8.726
    2AU     LIG  730  11.125  24.332   8.978
    2AU       S  731  12.429  24.529   7.363
    2AU     LIG  732  12.292  24.125   7.338
    2AU     LIG  733  12.617  23.910   7.144
    2AU     LIG  734  12.690  23.503   7.002
    2AU       S  735  12.623  24.615   7.807
    2AU     LIG  736  12.706  24.159   7.639
    2AU     LIG  737  12.736  23.746   7.846
    2AU     LIG  738  12.499  23.427   8.076
    2AU       S  739  12.419  26.925   7.029
    2AU     LIG  740  12.510  27.254   6.778
    2AU     LIG  741  12.477  27.686   6.714
    2AU     LIG  742  12.451  27.932   6.350
    2AU       S  743  13.128  26.608   7.062
    2AU     LIG  744  13.409  26.945   6.972
    2AU     LIG  745  13.644  27.117   6.630
    2AU     LIG  746  14.087  27.090   6.518
    2AU       S  747  12.182  26.912   7.200
    2AU     LIG  748  11.999  27.272   6.971
    2AU     LIG  749  12.056  27.727   7.009
    2AU     LIG  750  12.126  28.143   6.818
    2AU       S  751  11.866  26.336   6.617
    2AU     LIG  752  11.633  26.504   6.259
    2AU     LIG  753  11.581  26.904   6.065
    2AU     LIG  754  11.539  27.357   6.100
    2AU       S  755  11.618  24.944   6.969
    2AU     LIG  756  11.239  24.747   6.791
    2AU     LIG  757  11.239  24.392   6.529
    2AU     LIG  758  11.328  23.958   6.399
    2AU       S  759  12.515  24.517   7.120
    2AU     LIG  760  12.791  24.268   6.796
    2AU     LIG  761  12.682  23.932   6.473
    2AU     LIG  762  12.800  23.453   6.492
    2AU       S  763  12.758  24.590   7.342
    2AU     LIG  764  13.036  24.243   7.256
    2AU     LIG  765  13.115  23.823   7.103
    2AU     LIG  766  13.191  23.462   6.907
    2AU       S  767  13.093  25.039   6.714
    2AU     LIG  768  13.053  24.712   6.446
    2AU     LIG  769  13.138  24.300   6.371
    2AU     LIG  770  13.385  24.035   6.105
    3AU     AUC  771  22.882  38.494   7.530
    3AU     AUC  772  23.133  38.481   7.364
    3AU     AUC  773  23.138  38.492   7.686
    3AU     AUC  774  22.619  38.487   7.379
    3AU     AUC  775  22.629  38.518   7.697
    3AU     AUC  776  22.737  38.752   7.512
    3AU     AUC  777  23.054  38.746   7.509
    3AU     AUC  778  22.718  38.240   7.553
    3AU     AUC  779  23.033  38.231   7.540
    3AU     AUC  780  22.880  38.353   7.799
    3AU     AUC  781  22.899  38.672   7.777
    3AU     AUC  782  22.873  38.318   7.281
    3AU     AUC  783  22.879  38.634   7.260
    3AU     AUC  784  23.387  38.481   7.200
    3AU     AUC  785  23.389  38.474   7.522
    3AU     AUC  786  23.392  38.475   7.846
    3AU     AUC  787  22.359  38.472   7.228
    3AU     AUC  788  22.361  38.518   7.549
    3AU     AUC  789  22.383  38.554   7.866
    3AU     AUC  790  22.589  39.012   7.484
    3AU     AUC  791  22.926  39.008   7.475
    3AU     AUC  792  23.240  39.000   7.485
    3AU     AUC  793  22.552  37.989   7.575
    3AU     AUC  794  22.882  37.975   7.551
    3AU     AUC  795  23.196  37.969   7.551
    3AU     AUC  796  22.880  38.210   8.070
    3AU     AUC  797  22.890  38.534   8.062
    3AU     AUC  798  22.924  38.854   8.024
    3AU     AUC  799  22.881  38.144   7.032
    3AU     AUC  800  22.863  38.456   7.009
    3AU     AUC  801  22.869  38.770   6.991
    3AU     AUC  802  23.132  38.340   7.963
    3AU     AUC  803  23.165  38.663   7.942
    3AU     AUC  804  23.143  38.319   7.103
    3AU     AUC  805  23.129  38.636   7.089
    3AU     AUC  806  22.629  38.383   7.973
    3AU     AUC  807  22.642  38.708   7.950
    3AU     AUC  808  22.608  38.292   7.133
    3AU     AUC  809  22.603  38.616   7.101
    3AU     AUC  810  23.314  38.735   7.348
    3AU     AUC  811  23.315  38.750   7.672
    3AU     AUC  812  22.462  38.760   7.348
    3AU     AUC  813  22.477  38.798   7.678
    3AU     AUC  814  23.285  38.209   7.368
    3AU     AUC  815  23.292  38.221   7.700
    3AU     AUC  816  22.448  38.227   7.414
    3AU     AUC  817  22.452  38.255   7.727
    3AU     AUC  818  22.756  38.932   7.771
    3AU     AUC  819  23.094  38.927   7.755
    3AU     AUC  820  22.715  38.097   7.825
    3AU     AUC  821  23.035  38.079   7.813
    3AU     AUC  822  22.721  38.901   7.237
    3AU     AUC  823  23.058  38.901   7.235
    3AU     AUC  824  22.713  38.050   7.301
    3AU     AUC  825  23.049  38.058   7.281
    3AU    AUSL  826  23.304  38.447   8.158
    3AU    AUSL  827  23.186  38.102   8.148
    3AU     AUL  828  23.578  38.273   8.276
    3AU    AUSL  829  22.988  38.363   8.293
    3AU    AUSL  830  22.774  38.714   8.279
    3AU     AUL  831  23.038  38.641   8.570
    3AU    AUSL  832  23.110  38.740   8.235
    3AU    AUSL  833  23.473  38.720   8.012
    3AU     AUL  834  23.439  38.652   8.410
    3AU    AUSL  835  23.298  38.532   6.892
    3AU    AUSL  836  23.187  38.885   6.909
    3AU     AUL  837  23.562  38.686   6.756
    3AU    AUSL  838  23.079  38.288   6.800
    3AU    AUSL  839  23.457  38.239   7.033
    3AU     AUL  840  23.437  38.291   6.656
    3AU    AUSL  841  22.957  38.602   6.776
    3AU    AUSL  842  22.732  38.270   6.818
    3AU     AUL  843  22.935  38.146   6.577
    3AU    AUSL  844  22.452  38.650   8.166
    3AU    AUSL  845  22.645  38.990   8.059
    3AU     AUL  846  22.601  38.993   8.396
    3AU    AUSL  847  22.640  38.378   8.261
    3AU    AUSL  848  22.380  38.276   8.033
    3AU     AUL  849  22.185  38.444   8.209
    3AU    AUSL  850  22.415  38.345   6.920
    3AU    AUSL  851  22.573  38.004   7.023
    3AU     AUL  852  22.533  38.017   6.674
    3AU    AUSL  853  22.607  38.603   6.825
    3AU    AUSL  854  22.328  38.736   7.039
    3AU     AUL  855  22.154  38.476   6.893
    3AU    AUSL  856  23.553  38.906   7.431
    3AU    AUSL  857  23.457  38.760   7.106
    3AU     AUL  858  23.794  38.687   7.070
    3AU    AUSL  859  23.646  38.580   7.362
    3AU    AUSL  860  23.629  38.329   7.678
    3AU     AUL  861  23.958  38.417   7.522
    3AU    AUSL  862  23.528  38.663   7.674
    3AU    AUSL  863  23.438  39.012   7.751
    3AU     AUL  864  23.755  38.713   7.777
    3AU    AUSL  865  22.309  39.001   7.512
    3AU    AUSL  866  22.324  38.867   7.929
    3AU     AUL  867  22.005  39.030   7.699
    3AU    AUSL  868  22.163  38.690   7.328
    3AU    AUSL  869  22.433  39.050   7.188
    3AU     AUL  870  22.070  38.994   7.237
    3AU    AUSL  871  22.156  38.689   7.696
    3AU    AUSL  872  22.132  38.375   7.437
    3AU     AUL  873  21.856  38.672   7.485
    3AU    AUSL  874  23.491  38.019   7.605
    3AU    AUSL  875  23.445  38.195   7.941
    3AU     AUL  876  23.791  38.239   7.917
    3AU    AUSL  877  23.502  38.266   7.368
    3AU    AUSL  878  23.384  37.943   7.259
    3AU     AUL  879  23.739  38.176   7.282
    3AU    AUSL  880  22.221  38.067   7.559
    3AU    AUSL  881  22.294  38.169   7.185
    3AU     AUL  882  21.974  38.265   7.198
    3AU    AUSL  883  22.158  38.359   7.781
    3AU    AUSL  884  22.411  37.960   7.867
    3AU     AUL  885  22.106  38.058   7.938
    3AU    AUSL  886  22.943  39.162   7.933
    3AU    AUSL  887  22.499  39.145   7.774
    3AU     AUL  888  22.703  39.355   8.069
    3AU    AUSL  889  22.803  39.111   7.615
    3AU    AUSL  890  23.046  39.254   7.327
    3AU     AUL  891  22.790  39.424   7.626
    3AU    AUSL  892  23.160  39.221   7.645
    3AU    AUSL  893  23.224  38.972   8.022
    3AU     AUL  894  23.273  39.300   7.961
    3AU    AUSL  895  22.914  37.898   7.992
    3AU    AUSL  896  23.254  37.906   7.862
    3AU     AUL  897  23.034  37.826   8.270
    3AU    AUSL  898  22.685  37.809   7.744
    3AU    AUSL  899  22.644  38.058   8.134
    3AU     AUL  900  22.613  37.688   8.052
    3AU    AUSL  901  23.005  37.740   7.683
    3AU    AUSL  902  22.746  37.748   7.406
    3AU     AUL  903  22.554  37.563   7.623
    3AU    AUSL  904  22.905  39.060   7.069
    3AU    AUSL  905  23.312  39.063   7.215
    3AU     AUL  906  23.107  39.252   6.933
    3AU    AUSL  907  22.696  39.232   7.307
    3AU    AUSL  908  22.619  38.919   6.925
    3AU     AUL  909  22.680  39.243   6.921
    3AU    AUSL  910  22.880  37.853   7.099
    3AU    AUSL  911  22.431  37.882   7.341
    3AU     AUL  912  22.604  37.634   7.086
    3AU    AUSL  913  23.106  37.772   7.359
    3AU    AUSL  914  23.174  38.028   6.991
    3AU     AUL  915  23.153  37.719   6.974
    3AU       S  916  23.528  37.750   8.319
    3AU     LIG  917  23.481  37.292   8.397
    3AU     LIG  918  23.600  36.855   8.439
    3AU     LIG  919  23.973  36.709   8.629
    3AU       S  920  23.290  38.181   8.686
    3AU     LIG  921  23.479  38.364   9.090
    3AU     LIG  922  23.666  38.492   9.514
    3AU     LIG  923  23.792  38.525   9.983
    3AU       S  924  22.951  38.147   8.686
    3AU     LIG  925  22.996  38.164   9.152
    3AU     LIG  926  23.306  38.101   9.522
    3AU     LIG  927  23.687  38.049   9.802
    3AU       S  928  22.565  38.612   8.753
    3AU     LIG  929  22.424  38.552   9.190
    3AU     LIG  930  22.176  38.577   9.582
    3AU     LIG  931  22.098  38.588  10.041
    3AU       S  932  23.146  39.143   8.513
    3AU     LIG  933  23.328  39.383   8.842
    3AU     LIG  934  23.611  39.244   9.153
    3AU     LIG  935  24.029  39.080   9.115
    3AU       S  936  23.798  38.984   8.207
    3AU     LIG  937  24.017  39.095   8.582
    3AU     LIG  938  24.170  39.444   8.765
    3AU     LIG  939  24.451  39.536   9.070
    3AU       S  940  23.250  38.748   6.366
    3AU     LIG  941  23.408  38.716   5.923
    3AU     LIG  942  23.683  38.376   5.764
    3AU     LIG  943  23.659  38.023   5.451
    3AU       S  944  23.551  39.197   6.713
    3AU     LIG  945  23.682  39.576   6.515
    3AU     LIG  946  23.819  39.755   6.128
    3AU     LIG  947  24.189  39.888   5.929
    3AU       S  948  23.780  37.927   6.843
    3AU     LIG  949  24.074  37.723   6.559
    3AU     LIG  950  24.085  37.403   6.237
    3AU     LIG  951  23.842  37.055   6.085
    3AU       S  952  23.121  38.505   6.288
    3AU     LIG  953  23.188  38.248   5.914
    3AU     LIG  954  23.137  38.071   5.494
    3AU     LIG  955  23.269  38.082   5.054
    3AU       S  956  22.580  38.426   6.334
    3AU     LIG  957  22.491  38.403   5.909
    3AU     LIG  958  22.633  38.202   5.559
    3AU     LIG  959  22.389  38.122   5.194
    3AU       S  960  22.970  38.750   6.406
    3AU     LIG  961  22.845  38.762   5.959
    3AU     LIG  962  23.016  38.587   5.572
    3AU     LIG  963  23.415  38.491   5.358
    3AU       S  964  22.307  38.646   8.648
    3AU     LIG  965  21.975  38.616   8.943
    3AU     LIG  966  21.794  38.385   9.300
    3AU     LIG  967  21.802  38.240   9.752
    3AU       S  968  22.211  39.294   8.221
    3AU     LIG  969  21.889  39.529   8.455
    3AU     LIG  970  21.700  39.480   8.891
    3AU     LIG  971  21.438  39.780   9.154
    3AU       S  972  22.205  38.000   8.454
    3AU     LIG  973  21.732  37.921   8.435
    3AU     LIG  974  21.389  37.624   8.351
    3AU     LIG  975  21.302  37.203   8.530
    3AU       S  976  22.501  38.372   8.646
    3AU     LIG  977  22.397  38.090   8.972
    3AU     LIG  978  22.218  38.101   9.392
    3AU     LIG  979  22.298  38.135   9.849
    3AU       S  980  22.299  38.412   6.414
    3AU     LIG  981  22.194  38.041   6.153
    3AU     LIG  982  22.149  38.054   5.699
    3AU     LIG  983  22.137  38.455   5.488
    3AU       S  984  22.157  37.728   6.869
    3AU     LIG  985  22.134  37.423   6.521
    3AU     LIG  986  21.850  37.370   6.167
    3AU     LIG  987  21.550  37.026   6.124
    3AU       S  988  22.086  38.933   6.687
    3AU     LIG  989  21.696  39.193   6.762
    3AU     LIG  990  21.436  39.432   6.481
    3AU     LIG  991  21.616  39.777   6.288
    3AU       S  992  22.478  38.669   6.453
    3AU     LIG  993  22.313  38.858   6.099
    3AU     LIG  994  22.417  38.861   5.650
    3AU     LIG  995  22.590  38.629   5.292
    3AU       S  996  23.746  39.169   6.928
    3AU     LIG  997  24.080  39.272   6.625
    3AU     LIG  998  24.211  39.432   6.215
    3AU     LIG  999  24.540  39.509   5.917
    3AU       S 1000  23.858  39.171   7.432
    3AU     LIG 1001  24.233  39.461   7.400
    3AU     LIG 1002  24.665  39.301   7.388
    3AU     LIG 1003  25.084  39.204   7.508
    3AU       S 1004  24.087  38.930   7.394
    3AU     LIG 1005  24.524  38.799   7.456
    3AU     LIG 1006  24.903  38.761   7.216
    3AU     LIG 1007  25.342  38.851   7.103
    3AU       S 1008  23.975  37.849   7.665
    3AU     LIG 1009  24.360  37.819   7.864
    3AU     LIG 1010  24.808  37.917   7.882
    3AU     LIG 1011  25.047  37.546   7.919
    3AU       S 1012  23.775  39.213   7.994
    3AU     LIG 1013  24.130  39.434   8.183
    3AU     LIG 1014  24.209  39.826   8.413
    3AU     LIG 1015  24.181  39.951   8.865
    3AU       S 1016  24.033  39.063   7.605
    3AU     LIG 1017  24.414  39.156   7.820
    3AU     LIG 1018  24.829  38.937   7.868
    3AU     LIG 1019  25.261  38.971   8.049
    3AU       S 1020  22.072  39.029   8.229
    3AU     LIG 1021  21.780  39.046   8.561
    3AU     LIG 1022  21.393  39.312   8.511
    3AU     LIG 1023  21.136  39.507   8.830
    3AU       S 1024  22.199  39.471   7.446
    3AU     LIG 1025  22.054  39.857   7.318
    3AU     LIG 1026  21.835  39.827   6.941
    3AU     LIG 1027  21.432  39.629   6.945
    3AU       S 1028  21.702  38.728   6.995
    3AU     LIG 1029  21.270  38.916   6.861
    3AU     LIG 1030  20.823  38.917   6.970
    3AU     LIG 1031  20.604  38.943   7.353
    3AU       S 1032  22.190  39.373   6.914
    3AU     LIG 1033  22.261  39.760   6.670
    3AU     LIG 1034  21.972  40.091   6.517
    3AU     LIG 1035  21.760  40.323   6.202
    3AU       S 1036  21.659  38.177   7.579
    3AU     LIG 1037  21.213  38.244   7.420
    3AU     LIG 1038  20.788  38.450   7.299
    3AU     LIG 1039  20.366  38.327   7.117
    3AU       S 1040  21.765  38.685   8.007
    3AU     LIG 1041  21.419  38.837   8.268
    3AU     LIG 1042  21.006  39.005   8.241
    3AU     LIG 1043  20.777  38.936   7.851
    3AU       S 1044  23.702  37.651   7.585
    3AU     LIG 1045  23.973  37.262   7.650
    3AU     LIG 1046  24.381  37.292   7.837
    3AU     LIG 1047  24.672  37.506   7.569
    3AU       S 1048  23.706  37.767   8.096
    3AU     LIG 1049  23.941  37.384   8.140
    3AU     LIG 1050  24.255  37.146   8.353
    3AU     LIG 1051  24.407  36.968   8.744
    3AU       S 1052  23.911  37.755   7.460
    3AU     LIG 1053  24.224  37.521   7.280
    3AU     LIG 1054  24.610  37.607   7.062
    3AU     LIG 1055  24.974  37.360   7.007
    3AU       S 1056  23.666  37.690   7.046
    3AU     LIG 1057  23.911  37.354   6.876
    3AU     LIG 1058  23.790  36.967   6.637
    3AU     LIG 1059  23.622  36.664   6.331
    3AU       S 1060  21.988  37.805   7.010
    3AU     LIG 1061  21.707  37.699   6.610
    3AU     LIG 1062  21.370  37.528   6.284
    3AU     LIG 1063  21.109  37.233   5.994
    3AU       S 1064  21.785  37.928   7.571
    3AU     LIG 1065  21.411  37.802   7.811
    3AU     LIG 1066  21.148  37.733   7.479
    3AU     LIG 1067  21.216  37.334   7.261
    3AU       S 1068  22.191  37.741   8.317
    3AU     LIG 1069  21.819  37.574   8.053
    3AU     LIG 1070  21.563  37.210   8.080
    3AU     LIG 1071  21.637  36.824   8.333
    3AU       S 1072  21.678  38.242   7.759
    3AU     LIG 1073  21.317  38.556   7.814
    3AU     LIG 1074  20.912  38.422   7.807
    3AU     LIG 1075  20.931  37.985   7.915
    3AU       S 1076  22.221  39.454   7.937
    3AU     LIG 1077  22.001  39.851   7.930
    3AU     LIG 1078  21.623  39.912   8.194
    3AU     LIG 1079  21.478  39.846   8.627
    3AU       S 1080  23.047  39.741   7.944
    3AU     LIG 1081  23.119  40.139   8.148
    3AU     LIG 1082  22.770  40.309   8.404
    3AU     LIG 1083  22.581  40.704   8.541
    3AU       S 1084  22.985  39.921   7.705
    3AU     LIG 1085  22.673  40.192   7.900
    3AU     LIG 1086  22.597  40.648   7.946
    3AU     LIG 1087  22.690  41.044   8.180
    3AU       S 1088  23.000  39.704   7.231
    3AU     LIG 1089  22.889  40.202   7.303
    3AU     LIG 1090  22.967  40.686   7.236
    3AU     LIG 1091  23.312  40.951   6.997
    3AU       S 1092  23.606  39.160   8.301
    3AU     LIG 1093  23.723  39.531   8.512
    3AU     LIG 1094  23.747  39.690   8.933
    3AU     LIG 1095  23.991  39.576   9.297
    3AU       S 1096  23.263  39.704   7.645
    3AU     LIG 1097  23.363  40.198   7.581
    3AU     LIG 1098  23.062  40.491   7.754
    3AU     LIG 1099  23.056  40.657   8.193
    3AU       S 1100  23.056  37.370   8.062
    3AU     LIG 1101  23.142  36.959   8.204
    3AU     LIG 1102  22.929  36.661   8.494
    3AU     LIG 1103  22.638  36.369   8.721
    3AU       S 1104  23.486  37.625   8.021
    3AU     LIG 1105  23.533  37.181   7.897
    3AU     LIG 1106  23.581  36.753   7.937
    3AU     LIG 1107  23.983  36.804   8.096
    3AU       S 1108  22.861  37.267   7.883
    3AU     LIG 1109  22.665  36.856   7.792
    3AU     LIG 1110  22.591  36.548   8.119
    3AU     LIG 1111  22.825  36.185   8.286
    3AU       S 1112  22.465  37.892   8.504
    3AU     LIG 1113  22.176  37.630   8.801
    3AU     LIG 1114  21.787  37.415   8.672
    3AU     LIG 1115  21.685  37.000   8.847
    3AU       S 1116  22.899  37.274   7.368
    3AU     LIG 1117  22.691  36.888   7.251
    3AU     LIG 1118  22.723  36.591   6.879
    3AU     LIG 1119  22.564  36.224   6.641
    3AU       S 1120  23.099  37.381   7.807
    3AU     LIG 1121  23.163  36.929   7.663
    3AU     LIG 1122  23.084  36.554   7.930
    3AU     LIG 1123  23.321  36.429   8.289
    3AU       S 1124  22.859  39.695   7.010
    3AU     LIG 1125  22.875  40.114   6.797
    3AU     LIG 1126  23.089  40.538   6.750
    3AU     LIG 1127  23.462  40.781   6.531
    3AU       S 1128  23.594  39.356   7.058
    3AU     LIG 1129  23.956  39.647   6.954
    3AU     LIG 1130  24.169  39.818   6.556
    3AU     LIG 1131  24.547  39.910   6.285
    3AU       S 1132  22.623  39.679   7.211
    3AU     LIG 1133  22.430  40.073   7.053
    3AU     LIG 1134  22.570  40.495   6.998
    3AU     LIG 1135  22.641  40.820   6.695
    3AU       S 1136  22.287  39.110   6.636
    3AU     LIG 1137  22.000  39.395   6.408
    3AU     LIG 1138  22.102  39.742   6.146
    3AU     LIG 1139  22.223  40.156   6.028
    3AU       S 1140  22.089  37.651   7.215
    3AU     LIG 1141  21.885  37.305   6.958
    3AU     LIG 1142  21.615  37.195   6.602
    3AU     LIG 1143  21.162  37.097   6.495
    3AU       S 1144  22.999  37.279   7.140
    3AU     LIG 1145  23.267  37.023   6.849
    3AU     LIG 1146  23.122  36.722   6.518
    3AU     LIG 1147  22.811  36.497   6.269
    3AU       S 1148  23.232  37.369   7.343
    3AU     LIG 1149  23.564  37.103   7.377
    3AU     LIG 1150  23.502  36.720   7.211
    3AU     LIG 1151  23.509  36.560   6.804
    3AU       S 1152  23.584  37.781   6.740
    3AU     LIG 1153  23.616  37.426   6.462
    3AU     LIG 1154  23.364  37.101   6.278
    3AU     LIG 1155  23.249  36.735   5.992
    4AU     AUC 1156  34.796  34.527   7.520
    4AU     AUC 1157  35.046  34.515   7.355
    4AU     AUC 1158  35.052  34.530   7.676
    4AU     AUC 1159  34.532  34.515   7.369
    4AU     AUC 1160  34.542  34.552   7.685
    4AU     AUC 1161  34.647  34.784   7.497
    4AU     AUC 1162  34.965  34.781   7.496
    4AU     AUC 1163  34.633  34.272   7.547
    4AU     AUC 1164  34.949  34.266   7.533
    4AU     AUC 1165  34.795  34.391   7.791
    4AU     AUC 1166  34.811  34.710   7.764
    4AU     AUC 1167  34.788  34.347   7.274
    4AU     AUC 1168  34.791  34.664   7.249
    4AU     AUC 1169  35.300  34.518   7.191
    4AU     AUC 1170  35.303  34.510   7.512
    4AU     AUC 1171  35.305  34.515   7.836
    4AU     AUC 1172  34.275  34.493   7.217
    4AU     AUC 1173  34.273  34.543   7.538
    4AU     AUC 1174  34.296  34.589   7.855
    4AU     AUC 1175  34.496  35.040   7.463
    4AU     AUC 1176  34.835  35.041   7.459
    4AU     AUC 1177  35.150  35.034   7.471
    4AU     AUC 1178  34.470  34.017   7.575
    4AU     AUC 1179  34.798  34.007   7.551
    4AU     AUC 1180  35.114  34.005   7.546
    4AU     AUC 1181  34.795  34.257   8.063
    4AU     AUC 1182  34.804  34.581   8.050
    4AU     AUC 1183  34.836  34.899   8.006
    4AU     AUC 1184  34.802  34.171   7.027
    4AU     AUC 1185  34.780  34.484   7.000
    4AU     AUC 1186  34.780  34.797   6.979
    4AU     AUC 1187  35.047  34.382   7.954
    4AU     AUC 1188  35.078  34.704   7.930
    4AU     AUC 1189  35.058  34.353   7.096
    4AU     AUC 1190  35.042  34.669   7.079
    4AU     AUC 1191  34.543  34.426   7.966
    4AU     AUC 1192  34.554  34.750   7.932
    4AU     AUC 1193  34.526  34.318   7.126
    4AU     AUC 1194  34.517  34.639   7.087
    4AU     AUC 1195  35.226  34.770   7.336
    4AU     AUC 1196  35.228  34.788   7.659
    4AU     AUC 1197  34.373  34.784   7.331
    4AU     AUC 1198  34.386  34.829   7.659
    4AU     AUC 1199  35.201  34.245   7.361
    4AU     AUC 1200  35.208  34.259   7.693
    4AU     AUC 1201  34.360  34.252   7.409
    4AU     AUC 1202  34.369  34.288   7.724
    4AU     AUC 1203  34.664  34.969   7.752
    4AU     AUC 1204  35.004  34.965   7.740
    4AU     AUC 1205  34.634  34.132   7.822
    4AU     AUC 1206  34.951  34.118   7.808
    4AU     AUC 1207  34.631  34.928   7.221
    4AU     AUC 1208  34.969  34.931   7.222
    4AU     AUC 1209  34.630  34.079   7.297
    4AU     AUC 1210  34.966  34.089   7.277
    4AU    AUSL 1211  35.219  34.491   8.149
    4AU    AUSL 1212  35.099  34.147   8.142
    4AU     AUL 1213  35.489  34.312   8.272
    4AU    AUSL 1214  34.901  34.412   8.283
    4AU    AUSL 1215  34.691  34.772   8.261
    4AU     AUL 1216  34.949  34.695   8.557
    4AU    AUSL 1217  35.027  34.785   8.221
    4AU    AUSL 1218  35.385  34.762   7.998
    4AU     AUL 1219  35.357  34.700   8.396
    4AU    AUSL 1220  35.211  34.573   6.884
    4AU    AUSL 1221  35.095  34.917   6.897
    4AU     AUL 1222  35.464  34.745   6.731
    4AU    AUSL 1223  35.004  34.321   6.792
    4AU    AUSL 1224  35.369  34.281   7.023
    4AU     AUL 1225  35.360  34.360   6.643
    4AU    AUSL 1226  34.870  34.630   6.765
    4AU    AUSL 1227  34.660  34.295   6.812
    4AU     AUL 1228  34.872  34.180   6.564
    4AU    AUSL 1229  34.372  34.708   8.148
    4AU    AUSL 1230  34.550  35.037   8.026
    4AU     AUL 1231  34.541  35.072   8.354
    4AU    AUSL 1232  34.554  34.437   8.252
    4AU    AUSL 1233  34.293  34.317   8.037
    4AU     AUL 1234  34.100  34.510   8.191
    4AU    AUSL 1235  34.340  34.355   6.902
    4AU    AUSL 1236  34.497  34.027   7.022
    4AU     AUL 1237  34.519  34.016   6.675
    4AU    AUSL 1238  34.520  34.623   6.814
    4AU    AUSL 1239  34.246  34.758   7.025
    4AU     AUL 1240  34.072  34.498   6.898
    4AU    AUSL 1241  35.464  34.941   7.416
    4AU    AUSL 1242  35.369  34.798   7.094
    4AU     AUL 1243  35.689  34.706   7.041
    4AU    AUSL 1244  35.562  34.617   7.348
    4AU    AUSL 1245  35.544  34.367   7.670
    4AU     AUL 1246  35.874  34.455   7.516
    4AU    AUSL 1247  35.441  34.698   7.660
    4AU    AUSL 1248  35.350  35.051   7.733
    4AU     AUL 1249  35.662  34.754   7.767
    4AU    AUSL 1250  34.212  35.022   7.482
    4AU    AUSL 1251  34.231  34.905   7.905
    4AU     AUL 1252  33.913  35.055   7.670
    4AU    AUSL 1253  34.072  34.702   7.309
    4AU    AUSL 1254  34.345  35.075   7.164
    4AU     AUL 1255  33.976  35.007   7.202
    4AU    AUSL 1256  34.066  34.713   7.682
    4AU    AUSL 1257  34.041  34.392   7.433
    4AU     AUL 1258  33.770  34.697   7.480
    4AU    AUSL 1259  35.411  34.057   7.598
    4AU    AUSL 1260  35.360  34.237   7.934
    4AU     AUL 1261  35.704  34.284   7.913
    4AU    AUSL 1262  35.417  34.304   7.359
    4AU    AUSL 1263  35.304  33.981   7.253
    4AU     AUL 1264  35.653  34.223   7.274
    4AU    AUSL 1265  34.140  34.082   7.570
    4AU    AUSL 1266  34.206  34.202   7.171
    4AU     AUL 1267  33.865  34.191   7.250
    4AU    AUSL 1268  34.075  34.384   7.779
    4AU    AUSL 1269  34.347  34.005   7.877
    4AU     AUL 1270  34.048  34.056   7.931
    4AU    AUSL 1271  34.854  35.205   7.919
    4AU    AUSL 1272  34.396  35.180   7.738
    4AU     AUL 1273  34.593  35.406   8.009
    4AU    AUSL 1274  34.711  35.144   7.602
    4AU    AUSL 1275  34.954  35.282   7.311
    4AU     AUL 1276  34.691  35.454   7.606
    4AU    AUSL 1277  35.068  35.256   7.630
    4AU    AUSL 1278  35.137  35.014   8.005
    4AU     AUL 1279  35.190  35.337   7.951
    4AU    AUSL 1280  34.827  33.940   7.986
    4AU    AUSL 1281  35.169  33.947   7.858
    4AU     AUL 1282  34.947  33.877   8.269
    4AU    AUSL 1283  34.597  33.820   7.749
    4AU    AUSL 1284  34.568  34.110   8.143
    4AU     AUL 1285  34.529  33.735   8.078
    4AU    AUSL 1286  34.921  33.775   7.680
    4AU    AUSL 1287  34.666  33.788   7.407
    4AU     AUL 1288  34.482  33.573   7.591
    4AU    AUSL 1289  34.812  35.087   7.058
    4AU    AUSL 1290  35.221  35.097   7.201
    4AU     AUL 1291  35.010  35.267   6.902
    4AU    AUSL 1292  34.602  35.261   7.292
    4AU    AUSL 1293  34.535  34.943   6.902
    4AU     AUL 1294  34.594  35.277   6.909
    4AU    AUSL 1295  34.802  33.874   7.095
    4AU    AUSL 1296  34.341  33.913   7.330
    4AU     AUL 1297  34.521  33.652   7.108
    4AU    AUSL 1298  35.030  33.804   7.360
    4AU    AUSL 1299  35.089  34.060   6.986
    4AU     AUL 1300  35.088  33.744   6.986
    4AU       S 1301  35.438  33.783   8.313
    4AU     LIG 1302  35.516  33.307   8.355
    4AU     LIG 1303  35.569  32.840   8.366
    4AU     LIG 1304  35.835  32.521   8.537
    4AU       S 1305  35.198  34.238   8.682
    4AU     LIG 1306  35.398  34.469   9.055
    4AU     LIG 1307  35.641  34.522   9.453
    4AU     LIG 1308  35.980  34.470   9.768
    4AU       S 1309  34.855  34.204   8.680
    4AU     LIG 1310  34.933  34.220   9.139
    4AU     LIG 1311  35.280  34.136   9.456
    4AU     LIG 1312  35.613  34.088   9.796
    4AU       S 1313  34.469  34.714   8.724
    4AU     LIG 1314  34.373  34.640   9.154
    4AU     LIG 1315  34.028  34.437   9.392
    4AU     LIG 1316  33.710  34.461   9.744
    4AU       S 1317  35.091  35.191   8.501
    4AU     LIG 1318  35.262  35.382   8.880
    4AU     LIG 1319  35.508  35.174   9.185
    4AU     LIG 1320  35.853  34.890   9.123
    4AU       S 1321  35.721  35.026   8.190
    4AU     LIG 1322  35.892  35.054   8.613
    4AU     LIG 1323  36.145  35.307   8.860
    4AU     LIG 1324  36.263  35.701   9.081
    4AU       S 1325  35.139  34.798   6.353
    4AU     LIG 1326  35.318  34.803   5.934
    4AU     LIG 1327  35.554  34.502   5.695
    4AU     LIG 1328  35.592  34.094   5.478
    4AU       S 1329  35.477  35.259   6.730
    4AU     LIG 1330  35.534  35.541   6.381
    4AU     LIG 1331  35.769  35.658   6.013
    4AU     LIG 1332  36.107  35.932   5.903
    4AU       S 1333  35.698  33.994   6.819
    4AU     LIG 1334  35.988  33.824   6.506
    4AU     LIG 1335  35.976  33.452   6.234
    4AU     LIG 1336  35.931  33.011   6.248
    4AU       S 1337  35.029  34.548   6.274
    4AU     LIG 1338  35.106  34.315   5.901
    4AU     LIG 1339  35.075  34.121   5.494
    4AU     LIG 1340  35.222  33.981   5.097
    4AU       S 1341  34.477  34.419   6.335
    4AU     LIG 1342  34.393  34.468   5.922
    4AU     LIG 1343  34.610  34.301   5.605
    4AU     LIG 1344  34.470  34.171   5.201
    4AU       S 1345  34.857  34.774   6.382
    4AU     LIG 1346  34.791  34.780   5.898
    4AU     LIG 1347  35.035  34.648   5.520
    4AU     LIG 1348  35.365  34.488   5.219
    4AU       S 1349  34.219  34.758   8.608
    4AU     LIG 1350  33.952  34.542   8.860
    4AU     LIG 1351  33.782  34.182   8.994
    4AU     LIG 1352  33.586  34.111   9.378
    4AU       S 1353  34.115  35.334   8.191
    4AU     LIG 1354  33.820  35.582   8.431
    4AU     LIG 1355  33.656  35.564   8.864
    4AU     LIG 1356  33.303  35.530   9.175
    4AU       S 1357  34.116  34.088   8.467
    4AU     LIG 1358  33.650  34.000   8.519
    4AU     LIG 1359  33.271  33.710   8.428
    4AU     LIG 1360  33.056  33.319   8.607
    4AU       S 1361  34.413  34.458   8.643
    4AU     LIG 1362  34.307  34.165   8.991
    4AU     LIG 1363  34.086  33.930   9.341
    4AU     LIG 1364  33.894  33.978   9.773
    4AU       S 1365  34.201  34.361   6.428
    4AU     LIG 1366  34.138  34.033   6.100
    4AU     LIG 1367  34.112  34.124   5.647
    4AU     LIG 1368  34.084  34.548   5.483
    4AU       S 1369  34.111  33.742   6.819
    4AU     LIG 1370  34.034  33.553   6.413
    4AU     LIG 1371  33.801  33.582   6.028
    4AU     LIG 1372  33.414  33.382   5.865
    4AU       S 1373  34.012  34.935   6.652
    4AU     LIG 1374  33.670  35.230   6.661
    4AU     LIG 1375  33.615  35.637   6.488
    4AU     LIG 1376  33.397  35.824   6.110
    4AU       S 1377  34.376  34.652   6.438
    4AU     LIG 1378  34.174  34.881   6.131
    4AU     LIG 1379  34.315  34.964   5.708
    4AU     LIG 1380  34.548  34.745   5.380
    4AU       S 1381  35.674  35.205   6.937
    4AU     LIG 1382  35.973  35.347   6.577
    4AU     LIG 1383  36.234  35.514   6.209
    4AU     LIG 1384  36.597  35.712   5.982
    4AU       S 1385  35.780  35.210   7.435
    4AU     LIG 1386  36.124  35.486   7.679
    4AU     LIG 1387  36.576  35.446   7.569
    4AU     LIG 1388  36.846  35.640   7.239
    4AU       S 1389  35.989  34.962   7.343
    4AU     LIG 1390  36.419  34.846   7.266
    4AU     LIG 1391  36.836  35.008   7.158
    4AU     LIG 1392  37.199  35.251   6.989
    4AU       S 1393  35.892  33.893   7.667
    4AU     LIG 1394  36.268  33.715   7.799
    4AU     LIG 1395  36.671  33.873   7.753
    4AU     LIG 1396  37.102  33.915   7.705
    4AU       S 1397  35.706  35.252   7.950
    4AU     LIG 1398  36.053  35.415   8.236
    4AU     LIG 1399  36.122  35.737   8.571
    4AU     LIG 1400  35.949  36.061   8.864
    4AU       S 1401  35.971  35.045   7.550
    4AU     LIG 1402  36.229  35.041   7.915
    4AU     LIG 1403  36.586  35.264   8.080
    4AU     LIG 1404  36.932  35.513   7.936
    4AU       S 1405  33.986  35.077   8.201
    4AU     LIG 1406  33.698  35.098   8.525
    4AU     LIG 1407  33.334  35.366   8.527
    4AU     LIG 1408  32.972  35.371   8.793
    4AU       S 1409  34.098  35.499   7.401
    4AU     LIG 1410  33.930  35.938   7.438
    4AU     LIG 1411  33.689  36.020   7.065
    4AU     LIG 1412  33.314  35.756   6.927
    4AU       S 1413  33.603  34.697   6.999
    4AU     LIG 1414  33.115  34.658   7.113
    4AU     LIG 1415  32.751  34.967   7.103
    4AU     LIG 1416  32.628  35.412   7.089
    4AU       S 1417  34.104  35.377   6.873
    4AU     LIG 1418  34.133  35.739   6.615
    4AU     LIG 1419  33.906  36.114   6.577
    4AU     LIG 1420  33.473  36.107   6.583
    4AU       S 1421  33.560  34.248   7.645
    4AU     LIG 1422  33.118  34.292   7.520
    4AU     LIG 1423  32.799  34.200   7.207
    4AU     LIG 1424  32.397  33.972   7.146
    4AU       S 1425  33.661  34.738   7.998
    4AU     LIG 1426  33.294  34.887   8.264
    4AU     LIG 1427  32.910  35.169   8.296
    4AU     LIG 1428  32.714  35.465   8.013
    4AU       S 1429  35.643  33.714   7.584
    4AU     LIG 1430  35.961  33.335   7.575
    4AU     LIG 1431  36.296  33.189   7.842
    4AU     LIG 1432  36.727  33.373   7.873
    4AU       S 1433  35.621  33.813   8.096
    4AU     LIG 1434  35.914  33.483   8.072
    4AU     LIG 1435  36.019  33.146   8.345
    4AU     LIG 1436  35.858  33.018   8.755
    4AU       S 1437  35.849  33.806   7.427
    4AU     LIG 1438  36.299  33.920   7.327
    4AU     LIG 1439  36.769  33.940   7.258
    4AU     LIG 1440  37.043  33.698   6.963
    4AU       S 1441  35.601  33.758   7.010
    4AU     LIG 1442  35.770  33.448   6.762
    4AU     LIG 1443  35.725  33.084   6.817
    4AU     LIG 1444  35.628  32.791   6.588
    4AU       S 1445  33.979  33.926   6.843
    4AU     LIG 1446  33.749  33.969   6.449
    4AU     LIG 1447  33.379  33.755   6.284
    4AU     LIG 1448  33.018  33.523   6.475
    4AU       S 1449  33.637  33.989   7.663
    4AU     LIG 1450  33.237  33.851   7.765
    4AU     LIG 1451  33.111  33.614   7.389
    4AU     LIG 1452  32.747  33.600   7.098
    4AU       S 1453  34.123  33.830   8.364
    4AU     LIG 1454  33.724  33.604   8.200
    4AU     LIG 1455  33.455  33.234   8.284
    4AU     LIG 1456  33.574  32.787   8.360
    4AU       S 1457  33.613  34.278   7.823
    4AU     LIG 1458  33.222  34.334   8.041
    4AU     LIG 1459  32.810  34.167   7.932
    4AU     LIG 1460  32.743  33.876   7.601
    4AU       S 1461  34.098  35.499   7.899
    4AU     LIG 1462  33.724  35.805   7.964
    4AU     LIG 1463  33.424  35.909   8.330
    4AU     LIG 1464  33.230  35.850   8.771
    4AU       S 1465  34.955  35.777   7.912
    4AU     LIG 1466  35.130  36.012   8.259
    4AU     LIG 1467  34.935  36.382   8.473
    4AU     LIG 1468  34.788  36.798   8.269
    4AU       S 1469  34.870  35.953   7.646
    4AU     LIG 1470  34.494  36.215   7.649
    4AU     LIG 1471  34.465  36.620   7.843
    4AU     LIG 1472  34.826  36.851   7.752
    4AU       S 1473  34.951  35.688   7.203
    4AU     LIG 1474  35.159  36.069   7.253
    4AU     LIG 1475  34.945  36.411   7.422
    4AU     LIG 1476  34.937  36.704   7.111
    4AU       S 1477  35.545  35.205   8.270
    4AU     LIG 1478  35.656  35.515   8.572
    4AU     LIG 1479  35.751  35.595   9.005
    4AU     LIG 1480  35.966  35.358   9.349
    4AU       S 1481  35.167  35.727   7.632
    4AU     LIG 1482  35.297  36.154   7.755
    4AU     LIG 1483  35.010  36.418   7.969
    4AU     LIG 1484  35.293  36.666   8.256
    4AU       S 1485  34.977  33.416   8.071
    4AU     LIG 1486  35.132  33.006   8.166
    4AU     LIG 1487  35.058  32.565   8.352
    4AU     LIG 1488  34.886  32.104   8.325
    4AU       S 1489  35.403  33.676   8.018
    4AU     LIG 1490  35.511  33.294   7.838
    4AU     LIG 1491  35.771  32.985   7.929
    4AU     LIG 1492  36.090  32.689   8.110
    4AU       S 1493  34.784  33.311   7.897
    4AU     LIG 1494  34.732  32.858   7.864
    4AU     LIG 1495  34.600  32.484   8.089
    4AU     LIG 1496  34.422  32.061   8.048
    4AU       S 1497  34.380  33.970   8.526
    4AU     LIG 1498  34.027  33.757   8.838
    4AU     LIG 1499  33.649  33.503   8.724
    4AU     LIG 1500  33.478  33.072   8.777
    4AU       S 1501  34.855  33.297   7.370
    4AU     LIG 1502  34.843  32.819   7.293
    4AU     LIG 1503  34.791  32.438   6.995
    4AU     LIG 1504  34.834  31.984   6.813
    4AU       S 1505  35.030  33.412   7.812
    4AU     LIG 1506  35.177  32.977   7.653
    4AU     LIG 1507  35.184  32.590   7.869
    4AU     LIG 1508  34.956  32.229   7.830
    4AU       S 1509  34.792  35.723   7.012
    4AU     LIG 1510  34.729  36.195   6.991
    4AU     LIG 1511  34.920  36.456   6.657
    4AU     LIG 1512  34.863  36.725   6.274
    4AU       S 1513  35.487  35.394   7.071
    4AU     LIG 1514  35.718  35.721   6.835
    4AU     LIG 1515  35.965  35.871   6.462
    4AU     LIG 1516  36.386  36.040   6.327
    4AU       S 1517  34.556  35.719   7.193
    4AU     LIG 1518  34.233  36.038   7.038
    4AU     LIG 1519  34.214  36.487   6.922
    4AU     LIG 1520  34.534  36.772   6.723
    4AU       S 1521  34.224  35.116   6.604
    4AU     LIG 1522  34.009  35.358   6.281
    4AU     LIG 1523  33.931  35.788   6.108
    4AU     LIG 1524  33.730  36.206   6.076
    4AU       S 1525  33.993  33.694   7.101
    4AU     LIG 1526  33.636  33.551   6.762
    4AU     LIG 1527  33.537  33.283   6.381
    4AU     LIG 1528  33.423  32.904   6.113
    4AU       S 1529  34.925  33.306   7.135
    4AU     LIG 1530  35.202  33.170   6.770
    4AU     LIG 1531  35.132  32.814   6.453
    4AU     LIG 1532  35.040  32.355   6.517
    4AU       S 1533  35.189  33.390   7.350
    4AU     LIG 1534  35.580  33.077   7.340
    4AU     LIG 1535  35.612  32.671   7.110
    4AU     LIG 1536  35.224  32.689   6.927
    4AU       S 1537  35.485  33.858   6.713
    4AU     LIG 1538  35.514  33.658   6.353
    4AU     LIG 1539  35.491  33.236   6.349
    4AU     LIG 1540  35.464  32.894   6.084
    5AU     AUC 1541  24.098  16.272   7.521
    5AU     AUC 1542  24.347  16.258   7.353
    5AU     AUC 1543  24.355  16.268   7.675
    5AU     AUC 1544  23.833  16.268   7.373
    5AU     AUC 1545  23.845  16.298   7.690
    5AU     AUC 1546  23.954  16.532   7.505
    5AU     AUC 1547  24.271  16.523   7.500
    5AU     AUC 1548  23.932  16.019   7.545
    5AU     AUC 1549  24.247  16.008   7.529
    5AU     AUC 1550  24.097  16.131   7.789
    5AU     AUC 1551  24.117  16.450   7.769
    5AU     AUC 1552  24.085  16.097   7.272
    5AU     AUC 1553  24.093  16.413   7.252
    5AU     AUC 1554  24.600  16.258   7.187
    5AU     AUC 1555  24.605  16.248   7.508
    5AU     AUC 1556  24.609  16.248   7.833
    5AU     AUC 1557  23.573  16.255   7.224
    5AU     AUC 1558  23.576  16.300   7.545
    5AU     AUC 1559  23.600  16.336   7.860
    5AU     AUC 1560  23.807  16.792   7.479
    5AU     AUC 1561  24.145  16.786   7.469
    5AU     AUC 1562  24.459  16.775   7.476
    5AU     AUC 1563  23.765  15.768   7.570
    5AU     AUC 1564  24.094  15.752   7.541
    5AU     AUC 1565  24.409  15.743   7.536
    5AU     AUC 1566  24.096  15.989   8.059
    5AU     AUC 1567  24.109  16.314   8.052
    5AU     AUC 1568  24.146  16.632   8.015
    5AU     AUC 1569  24.089  15.924   7.023
    5AU     AUC 1570  24.074  16.236   7.000
    5AU     AUC 1571  24.082  16.549   6.984
    5AU     AUC 1572  24.349  16.116   7.951
    5AU     AUC 1573  24.385  16.438   7.931
    5AU     AUC 1574  24.353  16.098   7.092
    5AU     AUC 1575  24.342  16.415   7.078
    5AU     AUC 1576  23.847  16.164   7.966
    5AU     AUC 1577  23.861  16.489   7.942
    5AU     AUC 1578  23.818  16.074   7.127
    5AU     AUC 1579  23.816  16.397   7.096
    5AU     AUC 1580  24.529  16.511   7.336
    5AU     AUC 1581  24.533  16.524   7.660
    5AU     AUC 1582  23.677  16.541   7.343
    5AU     AUC 1583  23.694  16.578   7.671
    5AU     AUC 1584  24.499  15.985   7.356
    5AU     AUC 1585  24.508  15.995   7.687
    5AU     AUC 1586  23.660  16.007   7.409
    5AU     AUC 1587  23.668  16.036   7.723
    5AU     AUC 1588  23.975  16.712   7.764
    5AU     AUC 1589  24.314  16.703   7.747
    5AU     AUC 1590  23.931  15.874   7.816
    5AU     AUC 1591  24.250  15.856   7.800
    5AU     AUC 1592  23.938  16.681   7.232
    5AU     AUC 1593  24.276  16.678   7.228
    5AU     AUC 1594  23.922  15.831   7.292
    5AU     AUC 1595  24.258  15.835   7.270
    5AU    AUSL 1596  24.523  16.221   8.145
    5AU    AUSL 1597  24.401  15.878   8.135
    5AU     AUL 1598  24.796  16.047   8.261
    5AU    AUSL 1599  24.207  16.141   8.282
    5AU    AUSL 1600  23.998  16.497   8.271
    5AU     AUL 1601  24.265  16.416   8.560
    5AU    AUSL 1602  24.334  16.515   8.225
    5AU    AUSL 1603  24.697  16.490   7.997
    5AU     AUL 1604  24.665  16.424   8.395
    5AU    AUSL 1605  24.507  16.311   6.880
    5AU    AUSL 1606  24.398  16.664   6.898
    5AU     AUL 1607  24.767  16.480   6.736
    5AU    AUSL 1608  24.287  16.067   6.789
    5AU    AUSL 1609  24.666  16.019   7.019
    5AU     AUL 1610  24.641  16.077   6.643
    5AU    AUSL 1611  24.166  16.382   6.766
    5AU    AUSL 1612  23.939  16.050   6.810
    5AU     AUL 1613  24.138  15.923   6.571
    5AU    AUSL 1614  23.677  16.439   8.158
    5AU    AUSL 1615  23.863  16.771   8.046
    5AU     AUL 1616  23.834  16.786   8.382
    5AU    AUSL 1617  23.859  16.163   8.252
    5AU    AUSL 1618  23.598  16.059   8.031
    5AU     AUL 1619  23.405  16.245   8.194
    5AU    AUSL 1620  23.624  16.129   6.914
    5AU    AUSL 1621  23.778  15.786   7.018
    5AU     AUL 1622  23.735  15.794   6.671
    5AU    AUSL 1623  23.818  16.385   6.821
    5AU    AUSL 1624  23.544  16.522   7.037
    5AU     AUL 1625  23.363  16.264   6.900
    5AU    AUSL 1626  24.769  16.680   7.416
    5AU    AUSL 1627  24.670  16.537   7.092
    5AU     AUL 1628  25.001  16.465   7.048
    5AU    AUSL 1629  24.863  16.354   7.344
    5AU    AUSL 1630  24.846  16.102   7.665
    5AU     AUL 1631  25.175  16.183   7.503
    5AU    AUSL 1632  24.745  16.435   7.658
    5AU    AUSL 1633  24.660  16.784   7.738
    5AU     AUL 1634  24.975  16.484   7.755
    5AU    AUSL 1635  23.525  16.781   7.504
    5AU    AUSL 1636  23.541  16.648   7.920
    5AU     AUL 1637  23.220  16.809   7.690
    5AU    AUSL 1638  23.373  16.470   7.322
    5AU    AUSL 1639  23.653  16.835   7.183
    5AU     AUL 1640  23.288  16.779   7.232
    5AU    AUSL 1641  23.368  16.469   7.691
    5AU    AUSL 1642  23.352  16.155   7.439
    5AU     AUL 1643  23.064  16.433   7.482
    5AU    AUSL 1644  24.709  15.792   7.590
    5AU    AUSL 1645  24.660  15.968   7.927
    5AU     AUL 1646  25.005  16.007   7.906
    5AU    AUSL 1647  24.718  16.041   7.355
    5AU    AUSL 1648  24.594  15.719   7.246
    5AU     AUL 1649  24.951  15.950   7.264
    5AU    AUSL 1650  23.435  15.846   7.561
    5AU    AUSL 1651  23.499  15.955   7.176
    5AU     AUL 1652  23.170  16.048   7.222
    5AU    AUSL 1653  23.372  16.140   7.783
    5AU    AUSL 1654  23.634  15.742   7.865
    5AU     AUL 1655  23.336  15.830   7.933
    5AU    AUSL 1656  24.167  16.939   7.931
    5AU    AUSL 1657  23.714  16.927   7.763
    5AU     AUL 1658  23.916  17.138   8.047
    5AU    AUSL 1659  24.023  16.891   7.613
    5AU    AUSL 1660  24.269  17.030   7.323
    5AU     AUL 1661  24.018  17.203   7.626
    5AU    AUSL 1662  24.382  16.996   7.640
    5AU    AUSL 1663  24.449  16.744   8.012
    5AU     AUL 1664  24.501  17.069   7.957
    5AU    AUSL 1665  24.127  15.677   7.976
    5AU    AUSL 1666  24.467  15.681   7.848
    5AU     AUL 1667  24.241  15.601   8.254
    5AU    AUSL 1668  23.896  15.572   7.737
    5AU    AUSL 1669  23.863  15.840   8.131
    5AU     AUL 1670  23.829  15.469   8.057
    5AU    AUSL 1671  24.217  15.518   7.665
    5AU    AUSL 1672  23.956  15.534   7.395
    5AU     AUL 1673  23.769  15.329   7.591
    5AU    AUSL 1674  24.123  16.836   7.069
    5AU    AUSL 1675  24.530  16.840   7.203
    5AU     AUL 1676  24.321  17.025   6.921
    5AU    AUSL 1677  23.917  17.012   7.304
    5AU    AUSL 1678  23.836  16.702   6.919
    5AU     AUL 1679  23.909  17.021   6.913
    5AU    AUSL 1680  24.084  15.631   7.081
    5AU    AUSL 1681  23.637  15.668   7.335
    5AU     AUL 1682  23.799  15.419   7.094
    5AU    AUSL 1683  24.314  15.545   7.340
    5AU    AUSL 1684  24.382  15.810   6.983
    5AU     AUL 1685  24.364  15.504   6.960
    5AU       S 1686  24.734  15.529   8.311
    5AU     LIG 1687  24.726  15.079   8.401
    5AU     LIG 1688  24.932  14.684   8.473
    5AU     LIG 1689  25.280  14.569   8.764
    5AU       S 1690  24.506  15.948   8.669
    5AU     LIG 1691  24.686  16.145   9.061
    5AU     LIG 1692  24.910  16.227   9.470
    5AU     LIG 1693  25.121  16.275   9.892
    5AU       S 1694  24.165  15.922   8.672
    5AU     LIG 1695  24.205  15.936   9.132
    5AU     LIG 1696  24.532  15.851   9.474
    5AU     LIG 1697  24.868  15.812   9.808
    5AU       S 1698  23.790  16.403   8.740
    5AU     LIG 1699  23.589  16.309   9.139
    5AU     LIG 1700  23.216  16.363   9.361
    5AU     LIG 1701  23.050  16.437   9.790
    5AU       S 1702  24.387  16.917   8.506
    5AU     LIG 1703  24.519  17.154   8.869
    5AU     LIG 1704  24.840  17.005   9.120
    5AU     LIG 1705  25.204  16.743   9.073
    5AU       S 1706  25.029  16.750   8.183
    5AU     LIG 1707  25.267  16.808   8.544
    5AU     LIG 1708  25.353  17.157   8.766
    5AU     LIG 1709  25.522  17.540   8.931
    5AU       S 1710  24.450  16.517   6.348
    5AU     LIG 1711  24.666  16.455   5.942
    5AU     LIG 1712  24.984  16.140   5.839
    5AU     LIG 1713  24.946  15.704   5.716
    5AU       S 1714  24.772  16.995   6.707
    5AU     LIG 1715  24.901  17.400   6.507
    5AU     LIG 1716  25.135  17.607   6.150
    5AU     LIG 1717  25.525  17.781   5.985
    5AU       S 1718  24.993  15.728   6.805
    5AU     LIG 1719  25.027  15.721   6.307
    5AU     LIG 1720  25.078  15.335   6.061
    5AU     LIG 1721  25.127  14.872   6.092
    5AU       S 1722  24.323  16.274   6.274
    5AU     LIG 1723  24.527  15.953   5.998
    5AU     LIG 1724  24.416  15.716   5.623
    5AU     LIG 1725  24.361  15.763   5.172
    5AU       S 1726  23.781  16.205   6.328
    5AU     LIG 1727  23.719  16.173   5.886
    5AU     LIG 1728  23.877  15.968   5.506
    5AU     LIG 1729  23.829  16.060   5.064
    5AU       S 1730  24.171  16.529   6.391
    5AU     LIG 1731  24.086  16.525   5.918
    5AU     LIG 1732  24.305  16.240   5.617
    5AU     LIG 1733  24.706  16.086   5.412
    5AU       S 1734  23.531  16.450   8.632
    5AU     LIG 1735  23.224  16.176   8.782
    5AU     LIG 1736  23.160  15.900   9.101
    5AU     LIG 1737  23.033  15.921   9.546
    5AU       S 1738  23.430  17.076   8.210
    5AU     LIG 1739  23.108  17.274   8.458
    5AU     LIG 1740  22.966  17.151   8.880
    5AU     LIG 1741  22.727  17.373   9.204
    5AU       S 1742  23.413  15.809   8.450
    5AU     LIG 1743  22.946  15.743   8.437
    5AU     LIG 1744  22.681  15.399   8.587
    5AU     LIG 1745  22.647  15.203   9.011
    5AU       S 1746  23.722  16.161   8.639
    5AU     LIG 1747  23.675  15.844   8.969
    5AU     LIG 1748  23.559  15.850   9.417
    5AU     LIG 1749  23.472  16.136   9.764
    5AU       S 1750  23.511  16.196   6.424
    5AU     LIG 1751  23.303  15.953   6.156
    5AU     LIG 1752  23.203  16.162   5.795
    5AU     LIG 1753  23.439  16.240   5.436
    5AU       S 1754  23.364  15.481   6.860
    5AU     LIG 1755  23.260  15.110   6.577
    5AU     LIG 1756  22.950  15.039   6.226
    5AU     LIG 1757  22.513  14.920   6.092
    5AU       S 1758  23.301  16.723   6.690
    5AU     LIG 1759  22.954  17.059   6.761
    5AU     LIG 1760  22.764  17.317   6.443
    5AU     LIG 1761  22.720  17.224   5.991
    5AU       S 1762  23.680  16.453   6.448
    5AU     LIG 1763  23.443  16.583   6.097
    5AU     LIG 1764  23.597  16.660   5.684
    5AU     LIG 1765  23.899  16.487   5.389
    5AU       S 1766  24.969  16.953   6.917
    5AU     LIG 1767  25.306  17.105   6.597
    5AU     LIG 1768  25.561  17.306   6.221
    5AU     LIG 1769  25.915  17.461   5.919
    5AU       S 1770  25.070  16.950   7.422
    5AU     LIG 1771  25.290  17.315   7.644
    5AU     LIG 1772  25.727  17.238   7.653
    5AU     LIG 1773  26.159  17.286   7.665
    5AU       S 1774  25.304  16.693   7.373
    5AU     LIG 1775  25.759  16.750   7.441
    5AU     LIG 1776  26.088  16.982   7.225
    5AU     LIG 1777  26.372  17.349   7.200
    5AU       S 1778  25.198  15.619   7.661
    5AU     LIG 1779  25.571  15.410   7.873
    5AU     LIG 1780  26.047  15.480   7.887
    5AU     LIG 1781  26.457  15.697   7.812
    5AU       S 1782  25.006  16.980   7.966
    5AU     LIG 1783  25.296  17.227   8.215
    5AU     LIG 1784  25.282  17.623   8.481
    5AU     LIG 1785  25.215  17.951   8.823
    5AU       S 1786  25.250  16.829   7.565
    5AU     LIG 1787  25.526  16.835   7.909
    5AU     LIG 1788  26.001  16.844   7.907
    5AU     LIG 1789  26.366  17.071   8.097
    5AU       S 1790  23.291  16.814   8.218
    5AU     LIG 1791  22.937  16.793   8.483
    5AU     LIG 1792  22.564  17.052   8.550
    5AU     LIG 1793  22.309  17.254   8.895
    5AU       S 1794  23.413  17.258   7.431
    5AU     LIG 1795  23.166  17.559   7.186
    5AU     LIG 1796  22.785  17.561   6.936
    5AU     LIG 1797  22.439  17.317   6.840
    5AU       S 1798  22.919  16.519   6.990
    5AU     LIG 1799  22.500  16.308   7.031
    5AU     LIG 1800  22.155  16.467   7.285
    5AU     LIG 1801  22.303  16.828   7.531
    5AU       S 1802  23.426  17.162   6.915
    5AU     LIG 1803  23.237  17.500   6.670
    5AU     LIG 1804  22.934  17.790   6.494
    5AU     LIG 1805  22.681  17.723   6.107
    5AU       S 1806  22.874  15.939   7.613
    5AU     LIG 1807  22.428  15.987   7.473
    5AU     LIG 1808  22.116  15.973   7.116
    5AU     LIG 1809  21.660  15.915   6.998
    5AU       S 1810  22.965  16.470   8.001
    5AU     LIG 1811  22.551  16.611   8.190
    5AU     LIG 1812  22.271  16.968   8.118
    5AU     LIG 1813  22.398  17.248   7.821
    5AU       S 1814  24.927  15.449   7.578
    5AU     LIG 1815  25.142  15.044   7.578
    5AU     LIG 1816  25.482  14.880   7.770
    5AU     LIG 1817  25.909  15.018   7.724
    5AU       S 1818  24.920  15.534   8.090
    5AU     LIG 1819  25.203  15.159   8.128
    5AU     LIG 1820  25.657  15.013   8.234
    5AU     LIG 1821  25.809  14.677   8.544
    5AU       S 1822  25.142  15.534   7.426
    5AU     LIG 1823  25.562  15.308   7.382
    5AU     LIG 1824  26.039  15.386   7.369
    5AU     LIG 1825  26.494  15.576   7.304
    5AU       S 1826  24.874  15.480   7.022
    5AU     LIG 1827  25.125  15.126   7.066
    5AU     LIG 1828  25.182  14.721   6.843
    5AU     LIG 1829  24.945  14.535   6.491
    5AU       S 1830  23.220  15.631   6.956
    5AU     LIG 1831  22.957  15.536   6.576
    5AU     LIG 1832  22.604  15.280   6.512
    5AU     LIG 1833  22.316  14.955   6.591
    5AU       S 1834  22.994  15.701   7.590
    5AU     LIG 1835  22.767  15.579   7.260
    5AU     LIG 1836  22.371  15.535   7.211
    5AU     LIG 1837  21.963  15.491   7.065
    5AU       S 1838  23.404  15.534   8.323
    5AU     LIG 1839  22.993  15.355   8.095
    5AU     LIG 1840  22.672  15.055   8.200
    5AU     LIG 1841  22.584  14.858   8.636
    5AU       S 1842  22.901  16.009   7.779
    5AU     LIG 1843  22.528  15.964   8.015
    5AU     LIG 1844  22.113  15.843   7.876
    5AU     LIG 1845  22.007  15.559   7.564
    5AU       S 1846  23.427  17.241   7.925
    5AU     LIG 1847  23.013  17.474   7.931
    5AU     LIG 1848  22.681  17.459   8.237
    5AU     LIG 1849  22.694  17.527   8.689
    5AU       S 1850  24.276  17.510   7.949
    5AU     LIG 1851  24.555  17.832   8.067
    5AU     LIG 1852  24.413  18.191   8.281
    5AU     LIG 1853  23.965  18.289   8.414
    5AU       S 1854  24.237  17.694   7.702
    5AU     LIG 1855  24.018  17.998   7.953
    5AU     LIG 1856  23.701  18.341   7.959
    5AU     LIG 1857  23.677  18.721   8.215
    5AU       S 1858  24.243  17.467   7.228
    5AU     LIG 1859  24.149  17.950   7.278
    5AU     LIG 1860  24.394  18.355   7.265
    5AU     LIG 1861  24.727  18.468   6.981
    5AU       S 1862  24.847  16.927   8.284
    5AU     LIG 1863  24.892  17.287   8.543
    5AU     LIG 1864  25.001  17.468   8.953
    5AU     LIG 1865  25.268  17.240   9.279
    5AU       S 1866  24.501  17.473   7.645
    5AU     LIG 1867  24.614  17.949   7.533
    5AU     LIG 1868  24.402  18.288   7.764
    5AU     LIG 1869  24.167  18.563   8.042
    5AU       S 1870  24.273  15.145   8.045
    5AU     LIG 1871  24.412  14.734   8.188
    5AU     LIG 1872  24.514  14.378   8.449
    5AU     LIG 1873  24.477  14.025   8.746
    5AU       S 1874  24.698  15.407   8.012
    5AU     LIG 1875  24.772  14.996   7.904
    5AU     LIG 1876  25.042  14.690   7.971
    5AU     LIG 1877  25.388  14.585   8.257
    5AU       S 1878  24.084  15.052   7.867
    5AU     LIG 1879  23.916  14.678   7.694
    5AU     LIG 1880  23.855  14.340   7.993
    5AU     LIG 1881  23.792  14.004   8.318
    5AU       S 1882  23.656  15.685   8.498
    5AU     LIG 1883  23.291  15.475   8.801
    5AU     LIG 1884  23.057  15.058   8.722
    5AU     LIG 1885  22.946  14.610   8.890
    5AU       S 1886  24.113  15.040   7.338
    5AU     LIG 1887  24.292  14.621   7.213
    5AU     LIG 1888  24.256  14.284   6.986
    5AU     LIG 1889  24.005  13.923   7.018
    5AU       S 1890  24.324  15.155   7.779
    5AU     LIG 1891  24.428  14.704   7.687
    5AU     LIG 1892  24.370  14.293   7.916
    5AU     LIG 1893  24.295  13.963   8.247
    5AU       S 1894  24.089  17.468   7.027
    5AU     LIG 1895  24.064  17.834   6.788
    5AU     LIG 1896  24.245  18.238   6.800
    5AU     LIG 1897  24.349  18.652   6.680
    5AU       S 1898  24.804  17.141   7.053
    5AU     LIG 1899  25.149  17.457   6.964
    5AU     LIG 1900  25.402  17.622   6.596
    5AU     LIG 1901  25.820  17.744   6.413
    5AU       S 1902  23.857  17.450   7.209
    5AU     LIG 1903  23.631  17.809   7.074
    5AU     LIG 1904  23.772  18.248   7.037
    5AU     LIG 1905  24.013  18.645   7.077
    5AU       S 1906  23.508  16.898   6.634
    5AU     LIG 1907  23.231  17.093   6.320
    5AU     LIG 1908  23.151  17.500   6.124
    5AU     LIG 1909  23.138  17.968   6.051
    5AU       S 1910  23.276  15.449   7.194
    5AU     LIG 1911  22.942  15.180   6.985
    5AU     LIG 1912  22.832  14.848   6.698
    5AU     LIG 1913  22.652  14.546   6.431
    5AU       S 1914  24.168  15.066   7.071
    5AU     LIG 1915  24.488  14.843   6.795
    5AU     LIG 1916  24.437  14.455   6.542
    5AU     LIG 1917  24.083  14.119   6.524
    5AU       S 1918  24.421  15.125   7.304
    5AU     LIG 1919  24.756  14.815   7.273
    5AU     LIG 1920  24.770  14.448   6.988
    5AU     LIG 1921  24.790  14.065   6.748
    5AU       S 1922  24.797  15.569   6.734
    5AU     LIG 1923  24.671  15.333   6.386
    5AU     LIG 1924  24.635  14.898   6.282
    5AU     LIG 1925  24.739  14.544   6.005
    6AU     AUC 1926   2.231  22.593   7.523
    6AU     AUC 1927   2.481  22.581   7.356
    6AU     AUC 1928   2.489  22.596   7.677
    6AU     AUC 1929   1.966  22.579   7.375
    6AU     AUC 1930   1.979  22.618   7.691
    6AU     AUC 1931   2.082  22.849   7.501
    6AU     AUC 1932   2.400  22.847   7.498
    6AU     AUC 1933   2.068  22.338   7.553
    6AU     AUC 1934   2.383  22.332   7.535
    6AU     AUC 1935   2.233  22.458   7.795
    6AU     AUC 1936   2.249  22.777   7.767
    6AU     AUC 1937   2.221  22.413   7.278
    6AU     AUC 1938   2.225  22.730   7.252
    6AU     AUC 1939   2.734  22.585   7.188
    6AU     AUC 1940   2.739  22.579   7.510
    6AU     AUC 1941   2.746  22.582   7.834
    6AU     AUC 1942   1.708  22.551   7.224
    6AU     AUC 1943   1.706  22.602   7.545
    6AU     AUC 1944   1.736  22.657   7.863
    6AU     AUC 1945   1.932  23.106   7.467
    6AU     AUC 1946   2.269  23.107   7.462
    6AU     AUC 1947   2.583  23.100   7.472
    6AU     AUC 1948   1.911  22.082   7.587
    6AU     AUC 1949   2.230  22.072   7.556
    6AU     AUC 1950   2.544  22.071   7.547
    6AU     AUC 1951   2.235  22.325   8.066
    6AU     AUC 1952   2.244  22.648   8.054
    6AU     AUC 1953   2.276  22.964   8.009
    6AU     AUC 1954   2.233  22.238   7.032
    6AU     AUC 1955   2.214  22.551   7.003
    6AU     AUC 1956   2.212  22.862   6.981
    6AU     AUC 1957   2.486  22.447   7.954
    6AU     AUC 1958   2.518  22.769   7.931
    6AU     AUC 1959   2.490  22.418   7.097
    6AU     AUC 1960   2.475  22.735   7.080
    6AU     AUC 1961   1.983  22.494   7.974
    6AU     AUC 1962   1.994  22.819   7.938
    6AU     AUC 1963   1.959  22.383   7.132
    6AU     AUC 1964   1.951  22.703   7.092
    6AU     AUC 1965   2.659  22.837   7.336
    6AU     AUC 1966   2.666  22.854   7.660
    6AU     AUC 1967   1.807  22.846   7.337
    6AU     AUC 1968   1.824  22.894   7.664
    6AU     AUC 1969   2.633  22.312   7.360
    6AU     AUC 1970   2.643  22.326   7.691
    6AU     AUC 1971   1.793  22.315   7.416
    6AU     AUC 1972   1.812  22.357   7.739
    6AU     AUC 1973   2.102  23.037   7.754
    6AU     AUC 1974   2.442  23.031   7.741
    6AU     AUC 1975   2.072  22.198   7.830
    6AU     AUC 1976   2.387  22.184   7.809
    6AU     AUC 1977   2.063  22.993   7.225
    6AU     AUC 1978   2.400  22.998   7.223
    6AU     AUC 1979   2.061  22.144   7.303
    6AU     AUC 1980   2.397  22.154   7.278
    6AU    AUSL 1981   2.661  22.553   8.146
    6AU    AUSL 1982   2.538  22.209   8.140
    6AU     AUL 1983   2.930  22.370   8.267
    6AU    AUSL 1984   2.344  22.475   8.284
    6AU    AUSL 1985   2.133  22.844   8.266
    6AU     AUL 1986   2.392  22.751   8.560
    6AU    AUSL 1987   2.469  22.845   8.225
    6AU    AUSL 1988   2.829  22.828   7.998
    6AU     AUL 1989   2.801  22.758   8.396
    6AU    AUSL 1990   2.648  22.643   6.883
    6AU    AUSL 1991   2.526  22.985   6.897
    6AU     AUL 1992   2.899  22.826   6.734
    6AU    AUSL 1993   2.442  22.391   6.797
    6AU    AUSL 1994   2.795  22.342   7.019
    6AU     AUL 1995   2.799  22.438   6.642
    6AU    AUSL 1996   2.305  22.698   6.766
    6AU    AUSL 1997   2.100  22.361   6.815
    6AU     AUL 1998   2.321  22.242   6.573
    6AU    AUSL 1999   1.813  22.779   8.155
    6AU    AUSL 2000   1.991  23.108   8.029
    6AU     AUL 2001   1.979  23.143   8.358
    6AU    AUSL 2002   1.996  22.509   8.259
    6AU    AUSL 2003   1.729  22.386   8.049
    6AU     AUL 2004   1.543  22.584   8.200
    6AU    AUSL 2005   1.783  22.414   6.911
    6AU    AUSL 2006   1.927  22.097   7.028
    6AU     AUL 2007   1.992  22.067   6.694
    6AU    AUSL 2008   1.956  22.687   6.815
    6AU    AUSL 2009   1.680  22.819   7.034
    6AU     AUL 2010   1.521  22.566   6.896
    6AU    AUSL 2011   2.896  23.014   7.416
    6AU    AUSL 2012   2.801  22.869   7.094
    6AU     AUL 2013   3.136  22.810   7.052
    6AU    AUSL 2014   2.993  22.688   7.343
    6AU    AUSL 2015   2.981  22.437   7.664
    6AU     AUL 2016   3.308  22.531   7.500
    6AU    AUSL 2017   2.885  22.771   7.660
    6AU    AUSL 2018   2.786  23.120   7.738
    6AU     AUL 2019   3.115  22.842   7.760
    6AU    AUSL 2020   1.649  23.083   7.487
    6AU    AUSL 2021   1.673  22.974   7.911
    6AU     AUL 2022   1.358  23.128   7.678
    6AU    AUSL 2023   1.513  22.748   7.319
    6AU    AUSL 2024   1.776  23.137   7.169
    6AU     AUL 2025   1.406  23.055   7.212
    6AU    AUSL 2026   1.509  22.779   7.692
    6AU    AUSL 2027   1.457  22.436   7.434
    6AU     AUL 2028   1.221  22.789   7.490
    6AU    AUSL 2029   2.840  22.127   7.595
    6AU    AUSL 2030   2.797  22.300   7.929
    6AU     AUL 2031   3.138  22.341   7.910
    6AU    AUSL 2032   2.852  22.371   7.354
    6AU    AUSL 2033   2.730  22.047   7.250
    6AU     AUL 2034   3.085  22.278   7.259
    6AU    AUSL 2035   1.608  22.150   7.611
    6AU    AUSL 2036   1.626  22.269   7.172
    6AU     AUL 2037   1.382  22.076   7.368
    6AU    AUSL 2038   1.513  22.450   7.786
    6AU    AUSL 2039   1.795  22.074   7.906
    6AU     AUL 2040   1.482  22.112   7.943
    6AU    AUSL 2041   2.294  23.268   7.917
    6AU    AUSL 2042   1.835  23.248   7.740
    6AU     AUL 2043   2.044  23.481   8.002
    6AU    AUSL 2044   2.148  23.218   7.602
    6AU    AUSL 2045   2.385  23.349   7.312
    6AU     AUL 2046   2.142  23.536   7.610
    6AU    AUSL 2047   2.509  23.321   7.627
    6AU    AUSL 2048   2.575  23.076   8.010
    6AU     AUL 2049   2.612  23.398   7.959
    6AU    AUSL 2050   2.260  22.007   7.987
    6AU    AUSL 2051   2.602  22.010   7.855
    6AU     AUL 2052   2.384  21.937   8.266
    6AU    AUSL 2053   2.024  21.880   7.757
    6AU    AUSL 2054   2.016  22.183   8.159
    6AU     AUL 2055   1.972  21.803   8.097
    6AU    AUSL 2056   2.347  21.839   7.685
    6AU    AUSL 2057   2.095  21.854   7.413
    6AU     AUL 2058   1.902  21.645   7.589
    6AU    AUSL 2059   2.241  23.152   7.061
    6AU    AUSL 2060   2.648  23.163   7.201
    6AU     AUL 2061   2.432  23.328   6.901
    6AU    AUSL 2062   2.033  23.328   7.294
    6AU    AUSL 2063   1.964  23.007   6.906
    6AU     AUL 2064   2.015  23.341   6.910
    6AU    AUSL 2065   2.230  21.939   7.102
    6AU    AUSL 2066   1.770  21.981   7.333
    6AU     AUL 2067   1.945  21.723   7.108
    6AU    AUSL 2068   2.460  21.869   7.367
    6AU    AUSL 2069   2.513  22.120   6.982
    6AU     AUL 2070   2.515  21.801   6.998
    6AU       S 2071   2.876  21.845   8.304
    6AU     LIG 2072   2.812  21.388   8.392
    6AU     LIG 2073   3.027  21.024   8.566
    6AU     LIG 2074   3.333  20.987   8.905
    6AU       S 2075   2.639  22.290   8.678
    6AU     LIG 2076   2.790  22.471   9.088
    6AU     LIG 2077   3.023  22.559   9.488
    6AU     LIG 2078   3.399  22.494   9.765
    6AU       S 2079   2.300  22.263   8.682
    6AU     LIG 2080   2.309  22.272   9.147
    6AU     LIG 2081   2.621  22.208   9.516
    6AU     LIG 2082   2.965  22.181   9.845
    6AU       S 2083   1.915  22.789   8.730
    6AU     LIG 2084   1.839  22.714   9.157
    6AU     LIG 2085   1.520  22.541   9.426
    6AU     LIG 2086   1.318  22.627   9.842
    6AU       S 2087   2.518  23.248   8.510
    6AU     LIG 2088   2.707  23.491   8.845
    6AU     LIG 2089   3.066  23.414   9.092
    6AU     LIG 2090   3.440  23.178   9.146
    6AU       S 2091   3.154  23.099   8.200
    6AU     LIG 2092   3.313  23.207   8.625
    6AU     LIG 2093   3.511  23.542   8.777
    6AU     LIG 2094   3.901  23.742   8.809
    6AU       S 2095   2.579  22.853   6.345
    6AU     LIG 2096   2.765  22.749   5.912
    6AU     LIG 2097   2.990  22.354   5.828
    6AU     LIG 2098   2.975  21.949   5.596
    6AU       S 2099   2.896  23.344   6.724
    6AU     LIG 2100   3.090  23.594   6.380
    6AU     LIG 2101   3.412  23.750   6.064
    6AU     LIG 2102   3.866  23.834   5.990
    6AU       S 2103   3.109  22.047   6.797
    6AU     LIG 2104   3.285  21.865   6.394
    6AU     LIG 2105   3.278  21.449   6.192
    6AU     LIG 2106   3.344  20.999   6.300
    6AU       S 2107   2.452  22.608   6.274
    6AU     LIG 2108   2.456  22.328   5.913
    6AU     LIG 2109   2.486  22.118   5.509
    6AU     LIG 2110   2.718  22.088   5.112
    6AU       S 2111   1.914  22.464   6.343
    6AU     LIG 2112   1.851  22.516   5.916
    6AU     LIG 2113   1.994  22.313   5.559
    6AU     LIG 2114   1.731  22.026   5.338
    6AU       S 2115   2.289  22.835   6.384
    6AU     LIG 2116   2.227  22.856   5.904
    6AU     LIG 2117   2.395  22.655   5.525
    6AU     LIG 2118   2.808  22.516   5.381
    6AU       S 2119   1.665  22.825   8.619
    6AU     LIG 2120   1.386  22.635   8.880
    6AU     LIG 2121   1.192  22.307   9.090
    6AU     LIG 2122   1.064  22.291   9.532
    6AU       S 2123   1.564  23.412   8.187
    6AU     LIG 2124   1.317  23.680   8.437
    6AU     LIG 2125   1.156  23.688   8.863
    6AU     LIG 2126   0.731  23.717   9.061
    6AU       S 2127   1.551  22.166   8.482
    6AU     LIG 2128   1.071  22.105   8.373
    6AU     LIG 2129   0.776  21.737   8.439
    6AU     LIG 2130   0.742  21.394   8.742
    6AU       S 2131   1.858  22.533   8.652
    6AU     LIG 2132   1.721  22.253   8.989
    6AU     LIG 2133   1.539  22.027   9.341
    6AU     LIG 2134   1.510  22.136   9.775
    6AU       S 2135   1.650  22.387   6.447
    6AU     LIG 2136   1.441  22.034   6.259
    6AU     LIG 2137   1.481  22.090   5.808
    6AU     LIG 2138   1.500  22.462   5.514
    6AU       S 2139   1.543  21.859   6.788
    6AU     LIG 2140   1.417  21.547   6.497
    6AU     LIG 2141   1.364  21.552   6.056
    6AU     LIG 2142   1.057  21.738   5.786
    6AU       S 2143   1.433  22.995   6.658
    6AU     LIG 2144   1.126  23.306   6.586
    6AU     LIG 2145   1.136  23.688   6.398
    6AU     LIG 2146   0.998  23.762   6.003
    6AU       S 2147   1.807  22.708   6.437
    6AU     LIG 2148   1.468  22.776   6.159
    6AU     LIG 2149   1.533  22.921   5.745
    6AU     LIG 2150   1.899  22.833   5.467
    6AU       S 2151   3.073  23.300   6.928
    6AU     LIG 2152   3.453  23.397   6.703
    6AU     LIG 2153   3.747  23.488   6.359
    6AU     LIG 2154   3.938  23.328   5.958
    6AU       S 2155   3.191  23.281   7.410
    6AU     LIG 2156   3.458  23.570   7.183
    6AU     LIG 2157   3.851  23.737   7.297
    6AU     LIG 2158   4.126  23.596   7.648
    6AU       S 2159   3.437  23.048   7.375
    6AU     LIG 2160   3.892  23.219   7.385
    6AU     LIG 2161   4.386  23.188   7.411
    6AU     LIG 2162   4.735  23.249   7.078
    6AU       S 2163   3.331  21.976   7.629
    6AU     LIG 2164   3.580  21.703   7.848
    6AU     LIG 2165   4.014  21.690   7.978
    6AU     LIG 2166   4.383  21.914   7.769
    6AU       S 2167   3.122  23.337   7.981
    6AU     LIG 2168   3.454  23.576   8.221
    6AU     LIG 2169   3.529  23.969   8.487
    6AU     LIG 2170   3.596  24.135   8.923
    6AU       S 2171   3.357  23.218   7.568
    6AU     LIG 2172   3.687  23.281   7.854
    6AU     LIG 2173   4.133  23.146   7.878
    6AU     LIG 2174   4.537  23.374   7.881
    6AU       S 2175   1.431  23.155   8.209
    6AU     LIG 2176   1.121  23.211   8.513
    6AU     LIG 2177   0.786  23.493   8.579
    6AU     LIG 2178   0.407  23.403   8.784
    6AU       S 2179   1.541  23.562   7.398
    6AU     LIG 2180   1.321  23.877   7.173
    6AU     LIG 2181   1.007  23.705   6.901
    6AU     LIG 2182   0.801  23.253   6.973
    6AU       S 2183   1.048  22.691   7.027
    6AU     LIG 2184   0.632  22.672   6.859
    6AU     LIG 2185   0.338  22.956   6.976
    6AU     LIG 2186   0.408  23.240   7.315
    6AU       S 2187   1.520  23.432   6.885
    6AU     LIG 2188   1.535  23.839   6.706
    6AU     LIG 2189   1.235  24.152   6.634
    6AU     LIG 2190   0.917  24.155   6.325
    6AU       S 2191   1.001  22.340   7.601
    6AU     LIG 2192   0.639  22.461   7.340
    6AU     LIG 2193   0.207  22.498   7.210
    6AU     LIG 2194  44.953  22.275   7.486
    6AU       S 2195   1.114  22.815   8.006
    6AU     LIG 2196   0.890  22.753   8.376
    6AU     LIG 2197   0.552  23.049   8.445
    6AU     LIG 2198   0.316  23.424   8.277
    6AU       S 2199   3.060  21.777   7.586
    6AU     LIG 2200   3.267  21.352   7.583
    6AU     LIG 2201   3.580  21.196   7.838
    6AU     LIG 2202   3.901  21.355   7.613
    6AU       S 2203   3.062  21.863   8.082
    6AU     LIG 2204   3.275  21.459   8.176
    6AU     LIG 2205   3.662  21.319   8.326
    6AU     LIG 2206   3.792  21.145   8.715
    6AU       S 2207   3.222  21.836   7.418
    6AU     LIG 2208   3.588  21.659   7.321
    6AU     LIG 2209   3.965  21.827   7.457
    6AU     LIG 2210   4.314  21.627   7.294
    6AU       S 2211   3.025  21.821   6.974
    6AU     LIG 2212   3.152  21.467   6.723
    6AU     LIG 2213   3.085  21.031   6.749
    6AU     LIG 2214   2.928  20.703   6.481
    6AU       S 2215   1.383  22.037   6.859
    6AU     LIG 2216   1.054  21.928   6.620
    6AU     LIG 2217   0.936  21.656   6.330
    6AU     LIG 2218   0.621  21.689   6.051
    6AU       S 2219   1.034  22.103   7.725
    6AU     LIG 2220   0.741  21.946   7.414
    6AU     LIG 2221   0.334  21.990   7.227
    6AU     LIG 2222  44.974  21.760   7.313
    6AU       S 2223   1.581  21.928   8.395
    6AU     LIG 2224   1.255  21.630   8.262
    6AU     LIG 2225   0.998  21.267   8.314
    6AU     LIG 2226   0.555  21.209   8.307
    6AU       S 2227   1.057  22.367   7.830
    6AU     LIG 2228   0.661  22.261   8.015
    6AU     LIG 2229   0.358  22.096   7.742
    6AU     LIG 2230  44.979  21.868   7.813
    6AU       S 2231   1.550  23.572   7.898
    6AU     LIG 2232   1.327  23.988   7.994
    6AU     LIG 2233   1.045  24.102   8.340
    6AU     LIG 2234   0.902  24.132   8.773
    6AU       S 2235   2.431  23.850   7.891
    6AU     LIG 2236   2.572  24.104   8.215
    6AU     LIG 2237   2.281  24.421   8.343
    6AU     LIG 2238   1.833  24.407   8.369
    6AU       S 2239   2.423  24.039   7.648
    6AU     LIG 2240   2.133  24.391   7.739
    6AU     LIG 2241   1.974  24.734   7.999
    6AU     LIG 2242   1.923  24.982   8.394
    6AU       S 2243   2.397  23.762   7.204
    6AU     LIG 2244   2.567  24.196   7.200
    6AU     LIG 2245   2.355  24.613   7.206
    6AU     LIG 2246   2.178  24.999   7.040
    6AU       S 2247   2.964  23.274   8.283
    6AU     LIG 2248   3.049  23.661   8.507
    6AU     LIG 2249   3.148  23.874   8.892
    6AU     LIG 2250   3.448  23.751   9.244
    6AU       S 2251   2.665  23.770   7.612
    6AU     LIG 2252   2.881  24.162   7.785
    6AU     LIG 2253   2.609  24.535   7.943
    6AU     LIG 2254   2.440  24.891   8.217
    6AU       S 2255   2.398  21.470   8.073
    6AU     LIG 2256   2.497  21.030   8.198
    6AU     LIG 2257   2.441  20.571   8.312
    6AU     LIG 2258   2.327  20.110   8.361
    6AU       S 2259   2.826  21.738   8.016
    6AU     LIG 2260   2.887  21.356   7.886
    6AU     LIG 2261   3.000  21.006   8.058
    6AU     LIG 2262   3.404  20.882   8.228
    6AU       S 2263   2.183  21.359   7.898
    6AU     LIG 2264   2.123  20.858   7.863
    6AU     LIG 2265   2.014  20.432   8.057
    6AU     LIG 2266   1.800  20.111   8.366
    6AU       S 2267   1.837  22.049   8.541
    6AU     LIG 2268   1.557  21.785   8.860
    6AU     LIG 2269   1.257  21.440   8.753
    6AU     LIG 2270   1.082  20.995   8.739
    6AU       S 2271   2.271  21.359   7.374
    6AU     LIG 2272   2.337  20.874   7.272
    6AU     LIG 2273   2.312  20.444   7.084
    6AU     LIG 2274   2.364  19.997   6.974
    6AU       S 2275   2.425  21.483   7.825
    6AU     LIG 2276   2.556  21.056   7.689
    6AU     LIG 2277   2.636  20.673   7.853
    6AU     LIG 2278   2.504  20.256   7.863
    6AU       S 2279   2.233  23.784   7.003
    6AU     LIG 2280   2.235  24.202   6.812
    6AU     LIG 2281   2.269  24.506   6.454
    6AU     LIG 2282   2.237  24.623   5.976
    6AU       S 2283   2.894  23.487   7.075
    6AU     LIG 2284   3.124  23.811   6.856
    6AU     LIG 2285   3.481  23.882   6.559
    6AU     LIG 2286   3.925  23.996   6.467
    6AU       S 2287   2.001  23.779   7.188
    6AU     LIG 2288   1.774  24.143   7.067
    6AU     LIG 2289   1.890  24.552   6.944
    6AU     LIG 2290   1.920  24.844   6.623
    6AU       S 2291   1.646  23.170   6.610
    6AU     LIG 2292   1.477  23.286   6.200
    6AU     LIG 2293   1.493  23.652   5.959
    6AU     LIG 2294   1.400  24.065   6.107
    6AU       S 2295   1.442  21.733   7.010
    6AU     LIG 2296   1.085  21.491   6.885
    6AU     LIG 2297   0.990  21.201   6.555
    6AU     LIG 2298   0.970  21.206   6.067
    6AU       S 2299   2.338  21.370   7.147
    6AU     LIG 2300   2.557  21.114   6.820
    6AU     LIG 2301   2.431  20.702   6.621
    6AU     LIG 2302   2.297  20.237   6.527
    6AU       S 2303   2.595  21.453   7.367
    6AU     LIG 2304   2.843  21.077   7.265
    6AU     LIG 2305   2.790  20.699   7.005
    6AU     LIG 2306   2.726  20.327   6.800
    6AU       S 2307   2.878  21.919   6.686
    6AU     LIG 2308   2.813  21.634   6.368
    6AU     LIG 2309   2.838  21.197   6.331
    6AU     LIG 2310   2.940  20.914   5.992
    7AU     AUC 2311   2.577   3.134   7.531
    7AU     AUC 2312   2.827   3.124   7.363
    7AU     AUC 2313   2.835   3.133   7.685
    7AU     AUC 2314   2.312   3.124   7.382
    7AU     AUC 2315   2.325   3.156   7.699
    7AU     AUC 2316   2.429   3.391   7.514
    7AU     AUC 2317   2.748   3.388   7.510
    7AU     AUC 2318   2.414   2.878   7.554
    7AU     AUC 2319   2.730   2.872   7.538
    7AU     AUC 2320   2.579   2.994   7.799
    7AU     AUC 2321   2.595   3.313   7.778
    7AU     AUC 2322   2.567   2.958   7.281
    7AU     AUC 2323   2.571   3.276   7.262
    7AU     AUC 2324   3.080   3.129   7.196
    7AU     AUC 2325   3.085   3.115   7.517
    7AU     AUC 2326   3.091   3.114   7.842
    7AU     AUC 2327   2.052   3.104   7.231
    7AU     AUC 2328   2.054   3.149   7.554
    7AU     AUC 2329   2.081   3.190   7.871
    7AU     AUC 2330   2.278   3.648   7.486
    7AU     AUC 2331   2.617   3.649   7.480
    7AU     AUC 2332   2.932   3.642   7.489
    7AU     AUC 2333   2.251   2.624   7.581
    7AU     AUC 2334   2.578   2.614   7.554
    7AU     AUC 2335   2.891   2.611   7.546
    7AU     AUC 2336   2.582   2.854   8.069
    7AU     AUC 2337   2.590   3.178   8.061
    7AU     AUC 2338   2.623   3.497   8.023
    7AU     AUC 2339   2.577   2.786   7.031
    7AU     AUC 2340   2.556   3.100   7.010
    7AU     AUC 2341   2.558   3.414   6.997
    7AU     AUC 2342   2.833   2.980   7.960
    7AU     AUC 2343   2.865   3.302   7.941
    7AU     AUC 2344   2.835   2.966   7.100
    7AU     AUC 2345   2.820   3.284   7.091
    7AU     AUC 2346   2.328   3.025   7.977
    7AU     AUC 2347   2.339   3.350   7.950
    7AU     AUC 2348   2.303   2.931   7.134
    7AU     AUC 2349   2.295   3.253   7.103
    7AU     AUC 2350   3.007   3.379   7.348
    7AU     AUC 2351   3.012   3.391   7.670
    7AU     AUC 2352   2.153   3.394   7.350
    7AU     AUC 2353   2.169   3.433   7.678
    7AU     AUC 2354   2.980   2.854   7.362
    7AU     AUC 2355   2.989   2.861   7.695
    7AU     AUC 2356   2.141   2.860   7.418
    7AU     AUC 2357   2.152   2.893   7.734
    7AU     AUC 2358   2.449   3.572   7.772
    7AU     AUC 2359   2.789   3.567   7.757
    7AU     AUC 2360   2.417   2.734   7.827
    7AU     AUC 2361   2.733   2.719   7.811
    7AU     AUC 2362   2.411   3.540   7.242
    7AU     AUC 2363   2.749   3.545   7.241
    7AU     AUC 2364   2.409   2.689   7.301
    7AU     AUC 2365   2.744   2.700   7.276
    7AU    AUSL 2366   3.009   3.085   8.155
    7AU    AUSL 2367   2.886   2.741   8.143
    7AU     AUL 2368   3.279   2.898   8.271
    7AU    AUSL 2369   2.692   3.005   8.290
    7AU    AUSL 2370   2.478   3.369   8.278
    7AU     AUL 2371   2.744   3.284   8.567
    7AU    AUSL 2372   2.815   3.377   8.232
    7AU    AUSL 2373   3.173   3.360   8.006
    7AU     AUL 2374   3.149   3.293   8.402
    7AU    AUSL 2375   2.987   3.192   6.893
    7AU    AUSL 2376   2.873   3.540   6.915
    7AU     AUL 2377   3.240   3.368   6.746
    7AU    AUSL 2378   2.776   2.944   6.799
    7AU    AUSL 2379   3.145   2.894   7.022
    7AU     AUL 2380   3.126   2.989   6.644
    7AU    AUSL 2381   2.646   3.255   6.779
    7AU    AUSL 2382   2.431   2.912   6.819
    7AU     AUL 2383   2.644   2.801   6.575
    7AU    AUSL 2384   2.157   3.302   8.166
    7AU    AUSL 2385   2.337   3.635   8.049
    7AU     AUL 2386   2.309   3.657   8.383
    7AU    AUSL 2387   2.343   3.033   8.263
    7AU    AUSL 2388   2.077   2.918   8.050
    7AU     AUL 2389   1.886   3.112   8.205
    7AU    AUSL 2390   2.113   2.976   6.915
    7AU    AUSL 2391   2.275   2.641   7.025
    7AU     AUL 2392   2.266   2.645   6.675
    7AU    AUSL 2393   2.297   3.242   6.828
    7AU    AUSL 2394   2.022   3.372   7.045
    7AU     AUL 2395   1.848   3.114   6.905
    7AU    AUSL 2396   3.248   3.548   7.430
    7AU    AUSL 2397   3.147   3.414   7.107
    7AU     AUL 2398   3.475   3.341   7.055
    7AU    AUSL 2399   3.343   3.222   7.353
    7AU    AUSL 2400   3.325   2.967   7.670
    7AU     AUL 2401   3.653   3.041   7.508
    7AU    AUSL 2402   3.227   3.301   7.668
    7AU    AUSL 2403   3.136   3.653   7.749
    7AU     AUL 2404   3.451   3.354   7.775
    7AU    AUSL 2405   1.993   3.630   7.507
    7AU    AUSL 2406   2.017   3.505   7.927
    7AU     AUL 2407   1.694   3.657   7.698
    7AU    AUSL 2408   1.852   3.312   7.331
    7AU    AUSL 2409   2.124   3.688   7.189
    7AU     AUL 2410   1.755   3.618   7.227
    7AU    AUSL 2411   1.850   3.315   7.705
    7AU    AUSL 2412   1.822   2.999   7.447
    7AU     AUL 2413   1.552   3.300   7.506
    7AU    AUSL 2414   3.185   2.659   7.595
    7AU    AUSL 2415   3.145   2.832   7.935
    7AU     AUL 2416   3.492   2.865   7.902
    7AU    AUSL 2417   3.198   2.908   7.357
    7AU    AUSL 2418   3.078   2.592   7.245
    7AU     AUL 2419   3.436   2.810   7.269
    7AU    AUSL 2420   1.921   2.688   7.579
    7AU    AUSL 2421   1.984   2.811   7.179
    7AU     AUL 2422   1.644   2.807   7.261
    7AU    AUSL 2423   1.857   2.984   7.794
    7AU    AUSL 2424   2.131   2.611   7.884
    7AU     AUL 2425   1.832   2.652   7.942
    7AU    AUSL 2426   2.641   3.803   7.942
    7AU    AUSL 2427   2.182   3.783   7.763
    7AU     AUL 2428   2.385   4.002   8.043
    7AU    AUSL 2429   2.495   3.751   7.624
    7AU    AUSL 2430   2.733   3.897   7.337
    7AU     AUL 2431   2.480   4.064   7.639
    7AU    AUSL 2432   2.853   3.861   7.652
    7AU    AUSL 2433   2.925   3.612   8.022
    7AU     AUL 2434   2.975   3.937   7.969
    7AU    AUSL 2435   2.609   2.538   7.988
    7AU    AUSL 2436   2.949   2.545   7.856
    7AU     AUL 2437   2.733   2.469   8.268
    7AU    AUSL 2438   2.375   2.423   7.750
    7AU    AUSL 2439   2.355   2.709   8.149
    7AU     AUL 2440   2.309   2.335   8.078
    7AU    AUSL 2441   2.698   2.377   7.681
    7AU    AUSL 2442   2.447   2.399   7.408
    7AU     AUL 2443   2.255   2.185   7.585
    7AU    AUSL 2444   2.591   3.702   7.082
    7AU    AUSL 2445   3.001   3.711   7.224
    7AU     AUL 2446   2.789   3.899   6.941
    7AU    AUSL 2447   2.382   3.872   7.318
    7AU    AUSL 2448   2.312   3.560   6.926
    7AU     AUL 2449   2.376   3.887   6.929
    7AU    AUSL 2450   2.582   2.488   7.095
    7AU    AUSL 2451   2.123   2.523   7.337
    7AU     AUL 2452   2.303   2.269   7.107
    7AU    AUSL 2453   2.809   2.413   7.362
    7AU    AUSL 2454   2.863   2.673   6.977
    7AU     AUL 2455   2.872   2.351   6.992
    7AU       S 2456   3.224   2.370   8.305
    7AU     LIG 2457   3.256   1.891   8.364
    7AU     LIG 2458   3.327   1.448   8.514
    7AU     LIG 2459   3.484   1.287   8.915
    7AU       S 2460   2.991   2.829   8.687
    7AU     LIG 2461   3.156   3.081   9.064
    7AU     LIG 2462   3.420   3.177   9.444
    7AU     LIG 2463   3.640   3.122   9.854
    7AU       S 2464   2.651   2.793   8.685
    7AU     LIG 2465   2.675   2.875   9.140
    7AU     LIG 2466   2.986   2.854   9.508
    7AU     LIG 2467   3.358   2.701   9.753
    7AU       S 2468   2.272   3.292   8.751
    7AU     LIG 2469   2.275   3.209   9.197
    7AU     LIG 2470   1.957   3.088   9.500
    7AU     LIG 2471   1.519   3.229   9.527
    7AU       S 2472   2.863   3.784   8.517
    7AU     LIG 2473   3.022   4.014   8.873
    7AU     LIG 2474   3.385   3.899   9.094
    7AU     LIG 2475   3.689   3.573   9.122
    7AU       S 2476   3.509   3.628   8.197
    7AU     LIG 2477   3.716   3.691   8.592
    7AU     LIG 2478   3.851   4.012   8.839
    7AU     LIG 2479   4.114   4.361   8.979
    7AU       S 2480   2.918   3.415   6.361
    7AU     LIG 2481   3.221   3.268   6.039
    7AU     LIG 2482   3.435   2.860   5.974
    7AU     LIG 2483   3.308   2.430   5.879
    7AU       S 2484   3.244   3.882   6.742
    7AU     LIG 2485   3.293   4.255   6.490
    7AU     LIG 2486   3.511   4.433   6.134
    7AU     LIG 2487   3.854   4.703   6.068
    7AU       S 2488   3.465   2.622   6.784
    7AU     LIG 2489   3.620   2.460   6.357
    7AU     LIG 2490   3.663   2.019   6.210
    7AU     LIG 2491   3.727   1.597   6.416
    7AU       S 2492   2.781   3.174   6.279
    7AU     LIG 2493   2.917   2.842   5.988
    7AU     LIG 2494   2.901   2.649   5.577
    7AU     LIG 2495   3.170   2.666   5.204
    7AU       S 2496   2.264   3.057   6.336
    7AU     LIG 2497   2.189   3.109   5.897
    7AU     LIG 2498   2.305   2.984   5.493
    7AU     LIG 2499   2.300   3.171   5.067
    7AU       S 2500   2.638   3.417   6.415
    7AU     LIG 2501   2.523   3.475   5.975
    7AU     LIG 2502   2.752   3.215   5.669
    7AU     LIG 2503   3.190   3.070   5.555
    7AU       S 2504   2.014   3.315   8.643
    7AU     LIG 2505   1.789   3.175   8.996
    7AU     LIG 2506   1.624   2.818   9.204
    7AU     LIG 2507   1.585   2.731   9.656
    7AU       S 2508   1.900   3.939   8.208
    7AU     LIG 2509   1.609   4.240   8.387
    7AU     LIG 2510   1.431   4.209   8.799
    7AU     LIG 2511   1.200   3.855   8.976
    7AU       S 2512   1.916   2.688   8.477
    7AU     LIG 2513   1.451   2.657   8.440
    7AU     LIG 2514   1.106   2.377   8.400
    7AU     LIG 2515   0.855   2.025   8.604
    7AU       S 2516   2.212   3.048   8.658
    7AU     LIG 2517   2.116   2.771   8.999
    7AU     LIG 2518   2.037   2.583   9.408
    7AU     LIG 2519   2.053   2.668   9.867
    7AU       S 2520   1.987   3.016   6.429
    7AU     LIG 2521   1.849   2.754   6.081
    7AU     LIG 2522   1.782   2.900   5.651
    7AU     LIG 2523   1.881   3.291   5.450
    7AU       S 2524   1.885   2.331   6.835
    7AU     LIG 2525   1.792   1.996   6.515
    7AU     LIG 2526   1.650   1.964   6.080
    7AU     LIG 2527   1.316   2.039   5.762
    7AU       S 2528   1.782   3.565   6.684
    7AU     LIG 2529   1.450   3.900   6.686
    7AU     LIG 2530   1.306   4.194   6.364
    7AU     LIG 2531   1.212   4.167   5.909
    7AU       S 2532   2.159   3.290   6.453
    7AU     LIG 2533   1.899   3.450   6.149
    7AU     LIG 2534   2.047   3.649   5.778
    7AU     LIG 2535   2.355   3.497   5.471
    7AU       S 2536   3.439   3.835   6.944
    7AU     LIG 2537   3.737   4.020   6.611
    7AU     LIG 2538   3.982   4.237   6.269
    7AU     LIG 2539   4.284   4.431   5.953
    7AU       S 2540   3.563   3.811   7.439
    7AU     LIG 2541   3.813   4.158   7.698
    7AU     LIG 2542   4.268   4.188   7.820
    7AU     LIG 2543   4.688   4.285   7.630
    7AU       S 2544   3.788   3.543   7.387
    7AU     LIG 2545   4.230   3.509   7.525
    7AU     LIG 2546   4.497   3.837   7.491
    7AU     LIG 2547   4.786   4.025   7.187
    7AU       S 2548   3.668   2.472   7.645
    7AU     LIG 2549   3.969   2.418   8.020
    7AU     LIG 2550   4.399   2.224   8.050
    7AU     LIG 2551   4.638   2.405   7.725
    7AU       S 2552   3.484   3.855   7.976
    7AU     LIG 2553   3.797   4.093   8.243
    7AU     LIG 2554   3.833   4.468   8.551
    7AU     LIG 2555   3.861   4.800   8.912
    7AU       S 2556   3.739   3.685   7.580
    7AU     LIG 2557   4.015   3.728   7.935
    7AU     LIG 2558   4.483   3.742   7.993
    7AU     LIG 2559   4.743   4.102   8.105
    7AU       S 2560   1.769   3.676   8.224
    7AU     LIG 2561   1.427   3.761   8.481
    7AU     LIG 2562   1.088   4.045   8.465
    7AU     LIG 2563   0.760   4.025   8.764
    7AU       S 2564   1.868   4.104   7.427
    7AU     LIG 2565   1.569   4.453   7.348
    7AU     LIG 2566   1.168   4.535   7.125
    7AU     LIG 2567   0.828   4.277   6.935
    7AU       S 2568   1.381   3.308   7.028
    7AU     LIG 2569   0.918   3.202   7.176
    7AU     LIG 2570   0.493   3.426   7.136
    7AU     LIG 2571   0.415   3.853   6.987
    7AU       S 2572   1.889   4.006   6.913
    7AU     LIG 2573   1.752   4.345   6.632
    7AU     LIG 2574   1.492   4.666   6.423
    7AU     LIG 2575   1.353   4.653   5.975
    7AU       S 2576   1.331   2.846   7.653
    7AU     LIG 2577   0.854   2.860   7.596
    7AU     LIG 2578   0.407   2.718   7.482
    7AU     LIG 2579   0.126   2.647   7.117
    7AU       S 2580   1.439   3.331   8.022
    7AU     LIG 2581   1.039   3.425   8.286
    7AU     LIG 2582   0.712   3.745   8.320
    7AU     LIG 2583   0.779   4.048   7.977
    7AU       S 2584   3.385   2.288   7.580
    7AU     LIG 2585   3.672   1.905   7.595
    7AU     LIG 2586   4.081   2.043   7.703
    7AU     LIG 2587   4.483   1.986   7.463
    7AU       S 2588   3.403   2.395   8.083
    7AU     LIG 2589   3.665   2.028   8.081
    7AU     LIG 2590   4.025   1.935   8.313
    7AU     LIG 2591   4.010   1.584   8.635
    7AU       S 2592   3.547   2.353   7.409
    7AU     LIG 2593   3.902   2.203   7.241
    7AU     LIG 2594   4.252   2.428   7.376
    7AU     LIG 2595   4.661   2.528   7.211
    7AU       S 2596   3.383   2.386   6.952
    7AU     LIG 2597   3.528   2.039   6.718
    7AU     LIG 2598   3.359   1.635   6.785
    7AU     LIG 2599   3.208   1.277   6.570
    7AU       S 2600   1.750   2.513   6.875
    7AU     LIG 2601   1.551   2.448   6.461
    7AU     LIG 2602   1.243   2.148   6.320
    7AU     LIG 2603   1.060   1.763   6.138
    7AU       S 2604   1.420   2.583   7.669
    7AU     LIG 2605   1.023   2.441   7.871
    7AU     LIG 2606   0.711   2.331   7.561
    7AU     LIG 2607   0.420   2.231   7.213
    7AU       S 2608   1.924   2.441   8.385
    7AU     LIG 2609   1.564   2.196   8.220
    7AU     LIG 2610   1.193   1.937   8.162
    7AU     LIG 2611   0.816   1.692   8.209
    7AU       S 2612   1.397   2.873   7.831
    7AU     LIG 2613   1.043   2.920   8.093
    7AU     LIG 2614   0.608   2.823   8.051
    7AU     LIG 2615   0.287   2.531   7.967
    7AU       S 2616   1.898   4.100   7.919
    7AU     LIG 2617   1.577   4.438   7.898
    7AU     LIG 2618   1.195   4.459   8.161
    7AU     LIG 2619   1.082   4.563   8.613
    7AU       S 2620   2.745   4.380   7.964
    7AU     LIG 2621   2.871   4.770   8.209
    7AU     LIG 2622   2.728   4.987   8.605
    7AU     LIG 2623   2.384   5.288   8.665
    7AU       S 2624   2.647   4.566   7.730
    7AU     LIG 2625   2.398   4.876   7.954
    7AU     LIG 2626   2.371   5.289   7.794
    7AU     LIG 2627   2.706   5.636   7.863
    7AU       S 2628   2.697   4.347   7.248
    7AU     LIG 2629   2.775   4.843   7.327
    7AU     LIG 2630   3.044   5.139   7.086
    7AU     LIG 2631   3.184   5.413   6.755
    7AU       S 2632   3.323   3.801   8.295
    7AU     LIG 2633   3.412   4.148   8.574
    7AU     LIG 2634   3.520   4.377   8.960
    7AU     LIG 2635   3.749   4.195   9.322
    7AU       S 2636   2.945   4.337   7.662
    7AU     LIG 2637   3.096   4.743   7.719
    7AU     LIG 2638   2.839   5.094   7.817
    7AU     LIG 2639   2.669   5.285   8.212
    7AU       S 2640   2.746   2.005   8.070
    7AU     LIG 2641   2.896   1.574   8.174
    7AU     LIG 2642   2.869   1.169   8.400
    7AU     LIG 2643   2.908   0.748   8.552
    7AU       S 2644   3.175   2.260   8.016
    7AU     LIG 2645   3.247   1.843   7.858
    7AU     LIG 2646   3.485   1.511   8.030
    7AU     LIG 2647   3.946   1.507   8.071
    7AU       S 2648   2.546   1.906   7.888
    7AU     LIG 2649   2.436   1.457   7.860
    7AU     LIG 2650   2.429   1.094   8.128
    7AU     LIG 2651   2.373   1.008   8.588
    7AU       S 2652   2.180   2.564   8.539
    7AU     LIG 2653   1.801   2.382   8.857
    7AU     LIG 2654   1.422   2.102   8.713
    7AU     LIG 2655   1.217   1.666   8.603
    7AU       S 2656   2.628   1.909   7.364
    7AU     LIG 2657   2.557   1.465   7.295
    7AU     LIG 2658   2.468   1.118   7.062
    7AU     LIG 2659   2.410   0.736   6.893
    7AU       S 2660   2.788   2.010   7.817
    7AU     LIG 2661   2.886   1.553   7.672
    7AU     LIG 2662   2.901   1.139   7.885
    7AU     LIG 2663   2.914   0.701   8.039
    7AU       S 2664   2.546   4.337   7.046
    7AU     LIG 2665   2.473   4.766   6.932
    7AU     LIG 2666   2.679   5.102   6.685
    7AU     LIG 2667   2.614   5.271   6.228
    7AU       S 2668   3.268   4.014   7.093
    7AU     LIG 2669   3.527   4.355   6.941
    7AU     LIG 2670   3.726   4.565   6.588
    7AU     LIG 2671   4.001   4.919   6.551
    7AU       S 2672   2.309   4.318   7.228
    7AU     LIG 2673   1.978   4.605   7.063
    7AU     LIG 2674   2.044   5.053   7.005
    7AU     LIG 2675   2.449   5.250   7.147
    7AU       S 2676   1.993   3.743   6.633
    7AU     LIG 2677   1.763   3.925   6.281
    7AU     LIG 2678   1.718   4.296   6.053
    7AU     LIG 2679   1.876   4.725   6.073
    7AU       S 2680   1.779   2.296   7.138
    7AU     LIG 2681   1.436   2.069   6.874
    7AU     LIG 2682   1.354   1.705   6.572
    7AU     LIG 2683   1.489   1.469   6.191
    7AU       S 2684   2.688   1.917   7.124
    7AU     LIG 2685   2.809   1.612   6.784
    7AU     LIG 2686   2.713   1.174   6.609
    7AU     LIG 2687   2.460   0.857   6.401
    7AU       S 2688   2.943   1.999   7.358
    7AU     LIG 2689   3.098   1.604   7.224
    7AU     LIG 2690   2.986   1.210   7.035
    7AU     LIG 2691   3.067   0.790   6.847
    7AU       S 2692   3.230   2.477   6.674
    7AU     LIG 2693   3.183   2.186   6.346
    7AU     LIG 2694   3.225   1.742   6.305
    7AU     LIG 2695   3.386   1.371   6.094
    8AU     AUC 2696  37.127  11.503   7.526
    8AU     AUC 2697  37.375  11.491   7.356
    8AU     AUC 2698  37.385  11.505   7.679
    8AU     AUC 2699  36.860  11.493   7.380
    8AU     AUC 2700  36.875  11.528   7.696
    8AU     AUC 2701  36.979  11.760   7.508
    8AU     AUC 2702  37.297  11.757   7.501
    8AU     AUC 2703  36.963  11.250   7.554
    8AU     AUC 2704  37.279  11.242   7.536
    8AU     AUC 2705  37.129  11.366   7.796
    8AU     AUC 2706  37.146  11.685   7.771
    8AU     AUC 2707  37.114  11.325   7.279
    8AU     AUC 2708  37.118  11.641   7.255
    8AU     AUC 2709  37.626  11.491   7.188
    8AU     AUC 2710  37.634  11.487   7.511
    8AU     AUC 2711  37.642  11.491   7.835
    8AU     AUC 2712  36.599  11.474   7.233
    8AU     AUC 2713  36.605  11.523   7.555
    8AU     AUC 2714  36.629  11.563   7.869
    8AU     AUC 2715  36.828  12.018   7.480
    8AU     AUC 2716  37.167  12.017   7.467
    8AU     AUC 2717  37.481  12.012   7.474
    8AU     AUC 2718  36.799  10.998   7.583
    8AU     AUC 2719  37.127  10.985   7.553
    8AU     AUC 2720  37.442  10.981   7.546
    8AU     AUC 2721  37.133  11.228   8.068
    8AU     AUC 2722  37.141  11.552   8.057
    8AU     AUC 2723  37.174  11.869   8.015
    8AU     AUC 2724  37.117  11.149   7.031
    8AU     AUC 2725  37.098  11.461   7.005
    8AU     AUC 2726  37.104  11.773   6.986
    8AU     AUC 2727  37.384  11.355   7.955
    8AU     AUC 2728  37.415  11.677   7.933
    8AU     AUC 2729  37.380  11.326   7.097
    8AU     AUC 2730  37.366  11.643   7.081
    8AU     AUC 2731  36.879  11.399   7.975
    8AU     AUC 2732  36.890  11.721   7.945
    8AU     AUC 2733  36.847  11.296   7.135
    8AU     AUC 2734  36.840  11.619   7.100
    8AU     AUC 2735  37.554  11.746   7.336
    8AU     AUC 2736  37.561  11.764   7.660
    8AU     AUC 2737  36.700  11.763   7.347
    8AU     AUC 2738  36.719  11.805   7.676
    8AU     AUC 2739  37.529  11.221   7.360
    8AU     AUC 2740  37.541  11.235   7.691
    8AU     AUC 2741  36.692  11.231   7.420
    8AU     AUC 2742  36.701  11.266   7.735
    8AU     AUC 2743  37.000  11.943   7.763
    8AU     AUC 2744  37.339  11.940   7.745
    8AU     AUC 2745  36.967  11.110   7.829
    8AU     AUC 2746  37.285  11.093   7.810
    8AU     AUC 2747  36.959  11.905   7.234
    8AU     AUC 2748  37.297  11.907   7.227
    8AU     AUC 2749  36.954  11.057   7.304
    8AU     AUC 2750  37.290  11.067   7.278
    8AU    AUSL 2751  37.560  11.462   8.148
    8AU    AUSL 2752  37.439  11.117   8.140
    8AU     AUL 2753  37.828  11.275   8.269
    8AU    AUSL 2754  37.244  11.381   8.286
    8AU    AUSL 2755  37.030  11.740   8.274
    8AU     AUL 2756  37.302  11.659   8.560
    8AU    AUSL 2757  37.366  11.755   8.224
    8AU    AUSL 2758  37.724  11.737   7.999
    8AU     AUL 2759  37.697  11.668   8.397
    8AU    AUSL 2760  37.531  11.539   6.882
    8AU    AUSL 2761  37.420  11.888   6.897
    8AU     AUL 2762  37.798  11.687   6.745
    8AU    AUSL 2763  37.311  11.294   6.796
    8AU    AUSL 2764  37.689  11.247   7.020
    8AU     AUL 2765  37.662  11.302   6.642
    8AU    AUSL 2766  37.190  11.607   6.769
    8AU    AUSL 2767  36.963  11.270   6.815
    8AU     AUL 2768  37.169  11.148   6.576
    8AU    AUSL 2769  36.708  11.675   8.164
    8AU    AUSL 2770  36.889  11.999   8.044
    8AU     AUL 2771  36.858  12.032   8.375
    8AU    AUSL 2772  36.895  11.405   8.261
    8AU    AUSL 2773  36.628  11.292   8.050
    8AU     AUL 2774  36.437  11.483   8.208
    8AU    AUSL 2775  36.650  11.350   6.925
    8AU    AUSL 2776  36.811  11.007   7.027
    8AU     AUL 2777  36.750  11.018   6.681
    8AU    AUSL 2778  36.842  11.605   6.822
    8AU    AUSL 2779  36.566  11.736   7.042
    8AU     AUL 2780  36.389  11.474   6.901
    8AU    AUSL 2781  37.794  11.922   7.415
    8AU    AUSL 2782  37.694  11.770   7.091
    8AU     AUL 2783  38.035  11.710   7.056
    8AU    AUSL 2784  37.887  11.595   7.346
    8AU    AUSL 2785  37.877  11.347   7.664
    8AU     AUL 2786  38.202  11.431   7.494
    8AU    AUSL 2787  37.776  11.680   7.661
    8AU    AUSL 2788  37.685  12.030   7.736
    8AU     AUL 2789  38.004  11.739   7.763
    8AU    AUSL 2790  36.544  12.001   7.509
    8AU    AUSL 2791  36.565  11.876   7.923
    8AU     AUL 2792  36.238  12.023   7.698
    8AU    AUSL 2793  36.398  11.686   7.331
    8AU    AUSL 2794  36.671  12.053   7.185
    8AU     AUL 2795  36.305  11.989   7.232
    8AU    AUSL 2796  36.395  11.687   7.701
    8AU    AUSL 2797  36.383  11.374   7.452
    8AU     AUL 2798  36.093  11.651   7.496
    8AU    AUSL 2799  37.742  11.034   7.592
    8AU    AUSL 2800  37.696  11.210   7.929
    8AU     AUL 2801  38.036  11.260   7.909
    8AU    AUSL 2802  37.750  11.279   7.353
    8AU    AUSL 2803  37.623  10.954   7.250
    8AU     AUL 2804  37.979  11.187   7.253
    8AU    AUSL 2805  36.472  11.066   7.574
    8AU    AUSL 2806  36.532  11.173   7.189
    8AU     AUL 2807  36.208  11.268   7.232
    8AU    AUSL 2808  36.405  11.358   7.796
    8AU    AUSL 2809  36.672  10.982   7.884
    8AU     AUL 2810  36.371  11.039   7.949
    8AU    AUSL 2811  37.188  12.175   7.926
    8AU    AUSL 2812  36.740  12.154   7.764
    8AU     AUL 2813  36.942  12.356   8.072
    8AU    AUSL 2814  37.045  12.120   7.609
    8AU    AUSL 2815  37.285  12.260   7.317
    8AU     AUL 2816  37.027  12.433   7.617
    8AU    AUSL 2817  37.400  12.234   7.635
    8AU    AUSL 2818  37.474  11.988   8.010
    8AU     AUL 2819  37.522  12.314   7.947
    8AU    AUSL 2820  37.165  10.913   7.994
    8AU    AUSL 2821  37.505  10.920   7.854
    8AU     AUL 2822  37.297  10.841   8.270
    8AU    AUSL 2823  36.931  10.814   7.754
    8AU    AUSL 2824  36.903  11.081   8.146
    8AU     AUL 2825  36.861  10.709   8.074
    8AU    AUSL 2826  37.250  10.754   7.684
    8AU    AUSL 2827  36.989  10.757   7.413
    8AU     AUL 2828  36.791  10.577   7.628
    8AU    AUSL 2829  37.141  12.060   7.066
    8AU    AUSL 2830  37.549  12.072   7.200
    8AU     AUL 2831  37.333  12.249   6.918
    8AU    AUSL 2832  36.933  12.237   7.300
    8AU    AUSL 2833  36.854  11.921   6.922
    8AU     AUL 2834  36.923  12.241   6.912
    8AU    AUSL 2835  37.118  10.859   7.104
    8AU    AUSL 2836  36.673  10.888   7.346
    8AU     AUL 2837  36.844  10.638   7.095
    8AU    AUSL 2838  37.350  10.782   7.360
    8AU    AUSL 2839  37.407  11.034   6.985
    8AU     AUL 2840  37.382  10.724   6.977
    8AU       S 2841  37.788  10.744   8.291
    8AU     LIG 2842  37.767  10.264   8.332
    8AU     LIG 2843  37.942   9.848   8.315
    8AU     LIG 2844  38.332   9.613   8.436
    8AU       S 2845  37.539  11.200   8.682
    8AU     LIG 2846  37.697  11.442   9.056
    8AU     LIG 2847  37.956  11.522   9.438
    8AU     LIG 2848  38.141  11.397   9.850
    8AU       S 2849  37.200  11.168   8.681
    8AU     LIG 2850  37.206  11.265   9.135
    8AU     LIG 2851  37.517  11.239   9.510
    8AU     LIG 2852  37.837  10.987   9.760
    8AU       S 2853  36.829  11.665   8.740
    8AU     LIG 2854  36.781  11.588   9.164
    8AU     LIG 2855  36.485  11.394   9.433
    8AU     LIG 2856  36.313  11.467   9.850
    8AU       S 2857  37.405  12.160   8.503
    8AU     LIG 2858  37.596  12.380   8.841
    8AU     LIG 2859  37.863  12.260   9.180
    8AU     LIG 2860  38.284  12.101   9.156
    8AU       S 2861  38.056  12.003   8.201
    8AU     LIG 2862  38.246  12.147   8.615
    8AU     LIG 2863  38.438  12.501   8.825
    8AU     LIG 2864  38.805  12.795   8.866
    8AU       S 2865  37.482  11.751   6.356
    8AU     LIG 2866  37.741  11.625   5.989
    8AU     LIG 2867  37.999  11.246   5.942
    8AU     LIG 2868  37.859  10.823   5.831
    8AU       S 2869  37.763  12.197   6.677
    8AU     LIG 2870  37.869  12.629   6.566
    8AU     LIG 2871  38.110  12.779   6.213
    8AU     LIG 2872  38.464  12.697   5.950
    8AU       S 2873  38.004  10.939   6.806
    8AU     LIG 2874  38.092  10.879   6.325
    8AU     LIG 2875  38.135  10.470   6.102
    8AU     LIG 2876  38.202  10.025   6.206
    8AU       S 2877  37.336  11.508   6.276
    8AU     LIG 2878  37.490  11.163   6.012
    8AU     LIG 2879  37.391  10.985   5.611
    8AU     LIG 2880  37.333  11.190   5.204
    8AU       S 2881  36.808  11.422   6.333
    8AU     LIG 2882  36.868  11.378   5.895
    8AU     LIG 2883  36.920  11.177   5.513
    8AU     LIG 2884  36.828  11.218   5.082
    8AU       S 2885  37.195  11.760   6.399
    8AU     LIG 2886  37.118  11.808   5.941
    8AU     LIG 2887  37.326  11.507   5.661
    8AU     LIG 2888  37.734  11.350   5.513
    8AU       S 2889  36.571  11.692   8.642
    8AU     LIG 2890  36.314  11.482   8.923
    8AU     LIG 2891  36.147  11.129   9.133
    8AU     LIG 2892  36.082  11.070   9.592
    8AU       S 2893  36.445  12.306   8.200
    8AU     LIG 2894  36.174  12.536   8.460
    8AU     LIG 2895  35.932  12.452   8.835
    8AU     LIG 2896  35.575  12.662   9.037
    8AU       S 2897  36.456  11.057   8.480
    8AU     LIG 2898  35.984  10.974   8.398
    8AU     LIG 2899  35.699  10.636   8.521
    8AU     LIG 2900  35.609  10.624   8.996
    8AU       S 2901  36.763  11.417   8.653
    8AU     LIG 2902  36.678  11.125   8.989
    8AU     LIG 2903  36.545  10.882   9.342
    8AU     LIG 2904  36.565  10.995   9.772
    8AU       S 2905  36.528  11.415   6.420
    8AU     LIG 2906  36.396  11.233   6.023
    8AU     LIG 2907  36.423  11.290   5.567
    8AU     LIG 2908  36.461  11.571   5.203
    8AU       S 2909  36.391  10.702   6.888
    8AU     LIG 2910  36.197  10.300   6.760
    8AU     LIG 2911  36.090  10.148   6.340
    8AU     LIG 2912  35.773   9.927   6.059
    8AU       S 2913  36.324  11.929   6.689
    8AU     LIG 2914  35.995  12.253   6.707
    8AU     LIG 2915  35.847  12.558   6.421
    8AU     LIG 2916  35.739  12.651   5.979
    8AU       S 2917  36.706  11.671   6.448
    8AU     LIG 2918  36.518  11.773   6.057
    8AU     LIG 2919  36.650  11.781   5.636
    8AU     LIG 2920  36.968  11.664   5.335
    8AU       S 2921  37.962  12.181   6.888
    8AU     LIG 2922  38.254  12.294   6.546
    8AU     LIG 2923  38.625  12.380   6.332
    8AU     LIG 2924  38.896  12.708   6.240
    8AU       S 2925  38.102  12.191   7.391
    8AU     LIG 2926  38.527  12.439   7.343
    8AU     LIG 2927  38.929  12.294   7.504
    8AU     LIG 2928  39.186  12.458   7.849
    8AU       S 2929  38.328  11.946   7.384
    8AU     LIG 2930  38.747  11.795   7.447
    8AU     LIG 2931  39.141  11.886   7.275
    8AU     LIG 2932  39.239  12.308   7.096
    8AU       S 2933  38.235  10.885   7.645
    8AU     LIG 2934  38.564  10.666   7.864
    8AU     LIG 2935  39.023  10.646   7.890
    8AU     LIG 2936  39.381  10.849   7.724
    8AU       S 2937  38.024  12.233   7.988
    8AU     LIG 2938  38.380  12.454   8.171
    8AU     LIG 2939  38.490  12.831   8.420
    8AU     LIG 2940  38.350  13.027   8.813
    8AU       S 2941  38.262  12.103   7.584
    8AU     LIG 2942  38.622  12.088   7.857
    8AU     LIG 2943  39.079  11.930   7.831
    8AU     LIG 2944  39.491  12.004   8.033
    8AU       S 2945  36.311  12.043   8.224
    8AU     LIG 2946  35.908  12.096   8.421
    8AU     LIG 2947  35.554  12.380   8.482
    8AU     LIG 2948  35.188  12.492   8.731
    8AU       S 2949  36.422  12.461   7.436
    8AU     LIG 2950  36.462  12.877   7.456
    8AU     LIG 2951  36.231  12.864   7.115
    8AU     LIG 2952  35.832  12.627   7.047
    8AU       S 2953  35.934  11.708   7.009
    8AU     LIG 2954  35.475  11.613   7.130
    8AU     LIG 2955  35.197  11.978   7.083
    8AU     LIG 2956  35.316  12.466   7.003
    8AU       S 2957  36.437  12.374   6.917
    8AU     LIG 2958  36.302  12.709   6.633
    8AU     LIG 2959  36.211  13.155   6.708
    8AU     LIG 2960  35.887  13.464   6.687
    8AU       S 2961  35.918  11.150   7.623
    8AU     LIG 2962  35.631  11.043   7.295
    8AU     LIG 2963  35.204  11.125   7.194
    8AU     LIG 2964  34.797  10.974   7.242
    8AU       S 2965  35.985  11.682   8.013
    8AU     LIG 2966  35.545  11.754   8.217
    8AU     LIG 2967  35.178  12.056   8.221
    8AU     LIG 2968  35.183  12.458   8.007
    8AU       S 2969  37.968  10.686   7.572
    8AU     LIG 2970  38.248  10.293   7.570
    8AU     LIG 2971  38.686  10.199   7.657
    8AU     LIG 2972  39.069  10.374   7.450
    8AU       S 2973  37.966  10.778   8.071
    8AU     LIG 2974  38.196  10.382   8.071
    8AU     LIG 2975  38.347  10.158   8.415
    8AU     LIG 2976  38.174   9.977   8.788
    8AU       S 2977  38.164  10.772   7.428
    8AU     LIG 2978  38.592  10.630   7.360
    8AU     LIG 2979  38.970  10.874   7.406
    8AU     LIG 2980  39.312  10.852   7.128
    8AU       S 2981  37.896  10.699   7.028
    8AU     LIG 2982  37.974  10.288   6.842
    8AU     LIG 2983  37.880   9.920   6.590
    8AU     LIG 2984  38.039   9.526   6.372
    8AU       S 2985  36.246  10.840   6.985
    8AU     LIG 2986  35.948  10.736   6.626
    8AU     LIG 2987  35.664  10.402   6.476
    8AU     LIG 2988  35.357  10.071   6.477
    8AU       S 2989  36.034  10.909   7.596
    8AU     LIG 2990  35.641  10.783   7.850
    8AU     LIG 2991  35.302  10.755   7.558
    8AU     LIG 2992  35.338  10.613   7.104
    8AU       S 2993  36.474  10.809   8.380
    8AU     LIG 2994  36.152  10.535   8.206
    8AU     LIG 2995  35.806  10.305   8.096
    8AU     LIG 2996  35.510  10.089   8.334
    8AU       S 2997  35.939  11.221   7.786
    8AU     LIG 2998  35.626  11.239   8.100
    8AU     LIG 2999  35.219  11.083   8.042
    8AU     LIG 3000  34.978  11.129   7.690
    8AU       S 3001  36.470  12.460   7.919
    8AU     LIG 3002  36.160  12.760   7.942
    8AU     LIG 3003  35.789  12.743   8.192
    8AU     LIG 3004  35.752  12.872   8.611
    8AU       S 3005  37.272  12.742   7.950
    8AU     LIG 3006  37.585  13.006   8.113
    8AU     LIG 3007  37.449  13.324   8.392
    8AU     LIG 3008  37.090  13.608   8.318
    8AU       S 3009  37.195  12.943   7.738
    8AU     LIG 3010  36.916  13.320   7.683
    8AU     LIG 3011  36.914  13.756   7.850
    8AU     LIG 3012  37.143  14.091   8.119
    8AU       S 3013  37.257  12.686   7.217
    8AU     LIG 3014  37.175  13.137   7.279
    8AU     LIG 3015  37.310  13.574   7.316
    8AU     LIG 3016  37.340  13.887   6.969
    8AU       S 3017  37.860  12.183   8.288
    8AU     LIG 3018  37.980  12.571   8.507
    8AU     LIG 3019  37.984  12.703   8.944
    8AU     LIG 3020  38.231  12.599   9.320
    8AU       S 3021  37.478  12.724   7.649
    8AU     LIG 3022  37.596  13.180   7.600
    8AU     LIG 3023  37.394  13.453   7.891
    8AU     LIG 3024  37.566  13.783   8.187
    8AU       S 3025  37.308  10.380   8.067
    8AU     LIG 3026  37.416   9.925   8.122
    8AU     LIG 3027  37.305   9.583   8.457
    8AU     LIG 3028  37.011   9.314   8.711
    8AU       S 3029  37.734  10.641   8.000
    8AU     LIG 3030  37.787  10.249   7.808
    8AU     LIG 3031  37.996   9.908   7.812
    8AU     LIG 3032  38.401   9.882   7.993
    8AU       S 3033  37.107  10.289   7.892
    8AU     LIG 3034  36.939   9.908   7.801
    8AU     LIG 3035  36.975   9.569   8.057
    8AU     LIG 3036  36.778   9.269   8.257
    8AU       S 3037  36.730  10.935   8.529
    8AU     LIG 3038  36.400  10.712   8.855
    8AU     LIG 3039  36.075  10.391   8.764
    8AU     LIG 3040  35.686  10.151   8.846
    8AU       S 3041  37.134  10.290   7.370
    8AU     LIG 3042  37.013   9.852   7.291
    8AU     LIG 3043  37.141   9.572   6.970
    8AU     LIG 3044  36.956   9.442   6.564
    8AU       S 3045  37.328  10.390   7.812
    8AU     LIG 3046  37.415   9.960   7.609
    8AU     LIG 3047  37.616   9.598   7.660
    8AU     LIG 3048  37.493   9.423   8.022
    8AU       S 3049  37.100  12.695   7.007
    8AU     LIG 3050  37.152  13.088   6.770
    8AU     LIG 3051  37.316  13.504   6.643
    8AU     LIG 3052  37.304  13.922   6.412
    8AU       S 3053  37.821  12.366   7.026
    8AU     LIG 3054  38.228  12.619   6.947
    8AU     LIG 3055  38.465  12.813   6.580
    8AU     LIG 3056  38.492  13.145   6.231
    8AU       S 3057  36.866  12.676   7.198
    8AU     LIG 3058  36.706  13.069   7.031
    8AU     LIG 3059  36.893  13.492   7.008
    8AU     LIG 3060  36.887  13.807   6.675
    8AU       S 3061  36.523  12.110   6.638
    8AU     LIG 3062  36.295  12.271   6.282
    8AU     LIG 3063  36.246  12.688   6.112
    8AU     LIG 3064  36.402  13.095   6.245
    8AU       S 3065  36.315  10.660   7.216
    8AU     LIG 3066  35.863  10.521   7.086
    8AU     LIG 3067  35.717  10.105   6.894
    8AU     LIG 3068  35.790   9.800   6.550
    8AU       S 3069  37.250  10.281   7.149
    8AU     LIG 3070  37.390  10.019   6.761
    8AU     LIG 3071  37.401   9.725   6.359
    8AU     LIG 3072  37.153   9.432   6.061
    8AU       S 3073  37.489  10.391   7.354
    8AU     LIG 3074  37.816  10.107   7.314
    8AU     LIG 3075  37.611   9.766   7.157
    8AU     LIG 3076  37.610   9.545   6.782
    8AU       S 3077  37.800  10.786   6.726
    8AU     LIG 3078  37.691  10.549   6.357
    8AU     LIG 3079  37.692  10.137   6.159
    8AU     LIG 3080  37.847   9.754   5.948
    9AU     AUC 3081  13.132  35.085   7.532
    9AU     AUC 3082  13.385  35.068   7.370
    9AU     AUC 3083  13.386  35.083   7.692
    9AU     AUC 3084  12.870  35.078   7.378
    9AU     AUC 3085  12.877  35.115   7.695
    9AU     AUC 3086  12.990  35.344   7.506
    9AU     AUC 3087  13.307  35.336   7.510
    9AU     AUC 3088  12.963  34.834   7.559
    9AU     AUC 3089  13.278  34.821   7.547
    9AU     AUC 3090  13.126  34.950   7.803
    9AU     AUC 3091  13.147  35.268   7.776
    9AU     AUC 3092  13.123  34.907   7.287
    9AU     AUC 3093  13.135  35.222   7.259
    9AU     AUC 3094  13.642  35.064   7.208
    9AU     AUC 3095  13.639  35.060   7.531
    9AU     AUC 3096  13.637  35.064   7.855
    9AU     AUC 3097  12.614  35.054   7.223
    9AU     AUC 3098  12.608  35.107   7.544
    9AU     AUC 3099  12.631  35.160   7.862
    9AU     AUC 3100  12.845  35.602   7.467
    9AU     AUC 3101  13.184  35.598   7.471
    9AU     AUC 3102  13.497  35.585   7.487
    9AU     AUC 3103  12.800  34.581   7.589
    9AU     AUC 3104  13.120  34.564   7.561
    9AU     AUC 3105  13.435  34.555   7.561
    9AU     AUC 3106  13.120  34.814   8.074
    9AU     AUC 3107  13.132  35.138   8.063
    9AU     AUC 3108  13.171  35.455   8.019
    9AU     AUC 3109  13.130  34.732   7.041
    9AU     AUC 3110  13.123  35.044   7.010
    9AU     AUC 3111  13.134  35.354   6.987
    9AU     AUC 3112  13.374  34.934   7.969
    9AU     AUC 3113  13.412  35.256   7.946
    9AU     AUC 3114  13.396  34.905   7.112
    9AU     AUC 3115  13.389  35.221   7.092
    9AU     AUC 3116  12.872  34.988   7.978
    9AU     AUC 3117  12.889  35.315   7.943
    9AU     AUC 3118  12.858  34.884   7.137
    9AU     AUC 3119  12.866  35.202   7.093
    9AU     AUC 3120  13.570  35.320   7.353
    9AU     AUC 3121  13.567  35.338   7.677
    9AU     AUC 3122  12.719  35.346   7.335
    9AU     AUC 3123  12.727  35.396   7.663
    9AU     AUC 3124  13.531  34.795   7.379
    9AU     AUC 3125  13.535  34.809   7.710
    9AU     AUC 3126  12.690  34.820   7.416
    9AU     AUC 3127  12.706  34.858   7.741
    9AU     AUC 3128  13.005  35.531   7.761
    9AU     AUC 3129  13.346  35.518   7.755
    9AU     AUC 3130  12.960  34.692   7.835
    9AU     AUC 3131  13.276  34.672   7.820
    9AU     AUC 3132  12.983  35.489   7.228
    9AU     AUC 3133  13.319  35.487   7.234
    9AU     AUC 3134  12.953  34.642   7.308
    9AU     AUC 3135  13.289  34.645   7.291
    9AU    AUSL 3136  13.544  35.040   8.166
    9AU    AUSL 3137  13.419  34.695   8.157
    9AU     AUL 3138  13.808  34.856   8.295
    9AU    AUSL 3139  13.223  34.964   8.295
    9AU    AUSL 3140  13.017  35.333   8.274
    9AU     AUL 3141  13.278  35.239   8.570
    9AU    AUSL 3142  13.353  35.336   8.236
    9AU    AUSL 3143  13.722  35.310   8.020
    9AU     AUL 3144  13.682  35.249   8.416
    9AU    AUSL 3145  13.563  35.117   6.898
    9AU    AUSL 3146  13.453  35.469   6.910
    9AU     AUL 3147  13.827  35.279   6.762
    9AU    AUSL 3148  13.344  34.874   6.810
    9AU    AUSL 3149  13.704  34.817   7.045
    9AU     AUL 3150  13.703  34.874   6.666
    9AU    AUSL 3151  13.224  35.190   6.773
    9AU    AUSL 3152  13.000  34.855   6.822
    9AU     AUL 3153  13.219  34.752   6.567
    9AU    AUSL 3154  12.697  35.270   8.156
    9AU    AUSL 3155  12.890  35.606   8.036
    9AU     AUL 3156  12.842  35.621   8.372
    9AU    AUSL 3157  12.876  34.999   8.260
    9AU    AUSL 3158  12.615  34.880   8.046
    9AU     AUL 3159  12.421  35.088   8.189
    9AU    AUSL 3160  12.683  34.922   6.914
    9AU    AUSL 3161  12.813  34.605   7.031
    9AU     AUL 3162  12.901  34.559   6.709
    9AU    AUSL 3163  12.873  35.185   6.814
    9AU    AUSL 3164  12.607  35.325   7.030
    9AU     AUL 3165  12.426  35.111   6.889
    9AU    AUSL 3166  13.809  35.489   7.438
    9AU    AUSL 3167  13.718  35.343   7.114
    9AU     AUL 3168  14.051  35.266   7.081
    9AU    AUSL 3169  13.900  35.162   7.373
    9AU    AUSL 3170  13.875  34.914   7.692
    9AU     AUL 3171  14.208  34.995   7.536
    9AU    AUSL 3172  13.780  35.249   7.684
    9AU    AUSL 3173  13.693  35.599   7.756
    9AU     AUL 3174  14.009  35.303   7.789
    9AU    AUSL 3175  12.558  35.585   7.473
    9AU    AUSL 3176  12.573  35.479   7.911
    9AU     AUL 3177  12.273  35.646   7.666
    9AU    AUSL 3178  12.423  35.245   7.306
    9AU    AUSL 3179  12.701  35.639   7.163
    9AU     AUL 3180  12.323  35.551   7.176
    9AU    AUSL 3181  12.410  35.294   7.681
    9AU    AUSL 3182  12.356  34.944   7.436
    9AU     AUL 3183  12.134  35.327   7.461
    9AU    AUSL 3184  13.733  34.606   7.620
    9AU    AUSL 3185  13.683  34.784   7.953
    9AU     AUL 3186  14.025  34.829   7.941
    9AU    AUSL 3187  13.750  34.850   7.380
    9AU    AUSL 3188  13.624  34.525   7.276
    9AU     AUL 3189  13.983  34.758   7.294
    9AU    AUSL 3190  12.507  34.669   7.613
    9AU    AUSL 3191  12.516  34.779   7.174
    9AU     AUL 3192  12.287  34.557   7.398
    9AU    AUSL 3193  12.406  34.969   7.787
    9AU    AUSL 3194  12.677  34.562   7.905
    9AU     AUL 3195  12.359  34.623   7.926
    9AU    AUSL 3196  13.198  35.759   7.930
    9AU    AUSL 3197  12.741  35.746   7.736
    9AU     AUL 3198  12.945  35.974   8.004
    9AU    AUSL 3199  13.058  35.705   7.611
    9AU    AUSL 3200  13.311  35.839   7.324
    9AU     AUL 3201  13.074  36.020   7.626
    9AU    AUSL 3202  13.421  35.807   7.643
    9AU    AUSL 3203  13.474  35.562   8.024
    9AU     AUL 3204  13.522  35.881   7.970
    9AU    AUSL 3205  13.149  34.498   7.994
    9AU    AUSL 3206  13.489  34.495   7.873
    9AU     AUL 3207  13.259  34.416   8.275
    9AU    AUSL 3208  12.918  34.380   7.758
    9AU    AUSL 3209  12.897  34.672   8.159
    9AU     AUL 3210  12.868  34.289   8.094
    9AU    AUSL 3211  13.240  34.329   7.689
    9AU    AUSL 3212  12.974  34.347   7.413
    9AU     AUL 3213  12.788  34.142   7.611
    9AU    AUSL 3214  13.170  35.647   7.066
    9AU    AUSL 3215  13.575  35.647   7.217
    9AU     AUL 3216  13.378  35.829   6.924
    9AU    AUSL 3217  12.959  35.822   7.300
    9AU    AUSL 3218  12.896  35.504   6.904
    9AU     AUL 3219  12.951  35.836   6.917
    9AU    AUSL 3220  13.110  34.438   7.102
    9AU    AUSL 3221  12.657  34.490   7.333
    9AU     AUL 3222  12.806  34.232   7.102
    9AU    AUSL 3223  13.338  34.360   7.364
    9AU    AUSL 3224  13.415  34.614   7.010
    9AU     AUL 3225  13.391  34.315   6.982
    9AU       S 3226  13.751  34.327   8.336
    9AU     LIG 3227  13.915  33.861   8.385
    9AU     LIG 3228  13.993  33.382   8.434
    9AU     LIG 3229  13.868  33.077   8.735
    9AU       S 3230  13.504  34.771   8.694
    9AU     LIG 3231  13.670  34.984   9.072
    9AU     LIG 3232  13.947  35.043   9.445
    9AU     LIG 3233  14.268  34.981   9.785
    9AU       S 3234  13.167  34.749   8.690
    9AU     LIG 3235  13.185  34.781   9.160
    9AU     LIG 3236  13.519  34.728   9.505
    9AU     LIG 3237  13.897  34.598   9.777
    9AU       S 3238  12.802  35.255   8.743
    9AU     LIG 3239  12.784  35.147   9.185
    9AU     LIG 3240  12.456  35.117   9.504
    9AU     LIG 3241  12.209  35.279   9.867
    9AU       S 3242  13.383  35.742   8.509
    9AU     LIG 3243  13.599  36.027   8.758
    9AU     LIG 3244  13.854  35.831   9.043
    9AU     LIG 3245  14.229  35.582   9.069
    9AU       S 3246  14.043  35.581   8.214
    9AU     LIG 3247  14.364  35.829   8.404
    9AU     LIG 3248  14.388  36.027   8.791
    9AU     LIG 3249  14.600  36.341   9.034
    9AU       S 3250  13.519  35.347   6.370
    9AU     LIG 3251  13.680  35.310   5.919
    9AU     LIG 3252  13.838  34.960   5.655
    9AU     LIG 3253  13.924  34.524   5.511
    9AU       S 3254  13.839  35.794   6.733
    9AU     LIG 3255  14.092  36.098   6.486
    9AU     LIG 3256  14.344  36.299   6.128
    9AU     LIG 3257  14.661  36.484   5.841
    9AU       S 3258  14.020  34.491   6.868
    9AU     LIG 3259  14.306  34.294   6.584
    9AU     LIG 3260  14.348  33.905   6.370
    9AU     LIG 3261  14.275  33.551   6.111
    9AU       S 3262  13.411  35.108   6.287
    9AU     LIG 3263  13.381  34.862   5.901
    9AU     LIG 3264  13.425  34.681   5.472
    9AU     LIG 3265  13.659  34.711   5.087
    9AU       S 3266  12.792  34.942   6.355
    9AU     LIG 3267  12.751  34.997   5.935
    9AU     LIG 3268  12.961  34.873   5.592
    9AU     LIG 3269  12.945  34.747   5.164
    9AU       S 3270  13.216  35.317   6.381
    9AU     LIG 3271  13.150  35.320   5.887
    9AU     LIG 3272  13.404  35.200   5.492
    9AU     LIG 3273  13.784  35.199   5.200
    9AU       S 3274  12.544  35.280   8.633
    9AU     LIG 3275  12.321  35.063   8.954
    9AU     LIG 3276  12.224  34.731   9.233
    9AU     LIG 3277  12.191  34.702   9.689
    9AU       S 3278  12.461  35.935   8.173
    9AU     LIG 3279  12.133  36.192   8.387
    9AU     LIG 3280  11.999  36.271   8.820
    9AU     LIG 3281  11.929  36.120   9.265
    9AU       S 3282  12.422  34.655   8.454
    9AU     LIG 3283  11.956  34.544   8.340
    9AU     LIG 3284  11.641  34.200   8.376
    9AU     LIG 3285  11.368  34.140   8.751
    9AU       S 3286  12.734  35.006   8.647
    9AU     LIG 3287  12.686  34.695   8.989
    9AU     LIG 3288  12.699  34.664   9.445
    9AU     LIG 3289  12.665  34.796   9.895
    9AU       S 3290  12.544  34.876   6.463
    9AU     LIG 3291  12.392  34.637   6.124
    9AU     LIG 3292  12.425  34.698   5.667
    9AU     LIG 3293  12.496  35.050   5.395
    9AU       S 3294  12.417  34.425   6.755
    9AU     LIG 3295  12.231  34.053   6.510
    9AU     LIG 3296  11.925  33.810   6.251
    9AU     LIG 3297  11.519  33.894   6.026
    9AU       S 3298  12.394  35.525   6.617
    9AU     LIG 3299  12.031  35.785   6.587
    9AU     LIG 3300  11.886  36.186   6.422
    9AU     LIG 3301  11.686  36.507   6.160
    9AU       S 3302  12.732  35.193   6.435
    9AU     LIG 3303  12.528  35.422   6.120
    9AU     LIG 3304  12.658  35.456   5.686
    9AU     LIG 3305  12.935  35.316   5.355
    9AU       S 3306  14.020  35.756   6.955
    9AU     LIG 3307  14.435  35.830   6.789
    9AU     LIG 3308  14.544  35.866   6.354
    9AU     LIG 3309  14.645  35.929   5.913
    9AU       S 3310  14.120  35.764   7.446
    9AU     LIG 3311  14.464  36.106   7.500
    9AU     LIG 3312  14.888  36.004   7.653
    9AU     LIG 3313  15.350  35.944   7.658
    9AU       S 3314  14.342  35.505   7.409
    9AU     LIG 3315  14.696  35.729   7.243
    9AU     LIG 3316  15.129  35.868   7.199
    9AU     LIG 3317  15.594  35.894   7.194
    9AU       S 3318  14.219  34.442   7.693
    9AU     LIG 3319  14.616  34.241   7.726
    9AU     LIG 3320  15.040  34.357   7.656
    9AU     LIG 3321  15.426  34.596   7.612
    9AU       S 3322  14.025  35.808   7.993
    9AU     LIG 3323  14.302  36.165   8.014
    9AU     LIG 3324  14.496  36.363   8.377
    9AU     LIG 3325  14.325  36.626   8.699
    9AU       S 3326  14.278  35.655   7.601
    9AU     LIG 3327  14.568  35.706   7.919
    9AU     LIG 3328  15.030  35.590   7.913
    9AU     LIG 3329  15.484  35.544   7.981
    9AU       S 3330  12.335  35.681   8.187
    9AU     LIG 3331  12.020  35.678   8.451
    9AU     LIG 3332  11.698  35.940   8.534
    9AU     LIG 3333  11.533  36.059   8.917
    9AU       S 3334  12.459  36.055   7.375
    9AU     LIG 3335  12.244  36.401   7.433
    9AU     LIG 3336  11.927  36.488   7.139
    9AU     LIG 3337  11.836  36.108   6.929
    9AU       S 3338  11.954  35.036   7.082
    9AU     LIG 3339  11.482  35.110   7.010
    9AU     LIG 3340  11.212  35.380   7.243
    9AU     LIG 3341  11.329  35.804   7.203
    9AU       S 3342  12.462  35.945   6.865
    9AU     LIG 3343  12.291  36.334   6.679
    9AU     LIG 3344  11.975  36.678   6.667
    9AU     LIG 3345  11.614  36.904   6.479
    9AU       S 3346  11.915  34.873   7.568
    9AU     LIG 3347  11.534  34.814   7.403
    9AU     LIG 3348  11.081  34.903   7.336
    9AU     LIG 3349  10.816  35.053   6.984
    9AU       S 3350  11.998  35.364   7.993
    9AU     LIG 3351  11.599  35.514   8.197
    9AU     LIG 3352  11.176  35.569   8.058
    9AU     LIG 3353  11.030  35.245   7.766
    9AU       S 3354  13.952  34.263   7.612
    9AU     LIG 3355  14.139  33.843   7.530
    9AU     LIG 3356  14.497  33.739   7.734
    9AU     LIG 3357  14.863  33.840   7.526
    9AU       S 3358  13.936  34.356   8.120
    9AU     LIG 3359  14.256  34.053   8.045
    9AU     LIG 3360  14.573  33.769   8.252
    9AU     LIG 3361  14.667  33.391   8.554
    9AU       S 3362  14.161  34.344   7.473
    9AU     LIG 3363  14.469  34.113   7.241
    9AU     LIG 3364  14.901  34.220   7.179
    9AU     LIG 3365  15.353  34.290   7.202
    9AU       S 3366  13.898  34.252   7.075
    9AU     LIG 3367  14.129  33.892   6.889
    9AU     LIG 3368  14.052  33.543   6.593
    9AU     LIG 3369  13.909  33.221   6.252
    9AU       S 3370  12.232  34.596   6.883
    9AU     LIG 3371  11.939  34.474   6.553
    9AU     LIG 3372  11.616  34.152   6.468
    9AU     LIG 3373  11.299  33.812   6.475
    9AU       S 3374  11.911  34.686   7.728
    9AU     LIG 3375  11.830  34.257   7.711
    9AU     LIG 3376  11.629  34.270   7.327
    9AU     LIG 3377  11.238  34.422   7.426
    9AU       S 3378  12.449  34.390   8.360
    9AU     LIG 3379  12.127  34.082   8.203
    9AU     LIG 3380  11.838  33.731   8.165
    9AU     LIG 3381  11.805  33.271   8.194
    9AU       S 3382  11.952  34.923   7.806
    9AU     LIG 3383  11.536  35.124   7.819
    9AU     LIG 3384  11.249  34.777   7.823
    9AU     LIG 3385  11.359  34.329   7.930
    9AU       S 3386  12.461  36.097   7.872
    9AU     LIG 3387  12.038  36.345   7.904
    9AU     LIG 3388  11.683  36.456   8.176
    9AU     LIG 3389  11.577  36.475   8.607
    9AU       S 3390  13.339  36.338   7.940
    9AU     LIG 3391  13.557  36.544   8.306
    9AU     LIG 3392  13.357  36.926   8.531
    9AU     LIG 3393  12.988  37.233   8.588
    9AU       S 3394  13.336  36.509   7.677
    9AU     LIG 3395  12.876  36.596   7.623
    9AU     LIG 3396  12.802  37.008   7.723
    9AU     LIG 3397  12.862  37.275   8.070
    9AU       S 3398  13.300  36.267   7.225
    9AU     LIG 3399  13.194  36.737   7.257
    9AU     LIG 3400  13.407  37.090   7.128
    9AU     LIG 3401  13.723  37.336   6.886
    9AU       S 3402  13.859  35.767   8.315
    9AU     LIG 3403  13.995  36.202   8.482
    9AU     LIG 3404  14.005  36.322   8.946
    9AU     LIG 3405  14.221  36.069   9.290
    9AU       S 3406  13.571  36.264   7.640
    9AU     LIG 3407  13.774  36.664   7.835
    9AU     LIG 3408  13.598  37.007   8.089
    9AU     LIG 3409  13.332  37.393   8.244
    9AU       S 3410  13.298  33.954   8.069
    9AU     LIG 3411  13.533  33.552   8.184
    9AU     LIG 3412  13.503  33.122   8.363
    9AU     LIG 3413  13.101  32.889   8.405
    9AU       S 3414  13.716  34.225   8.045
    9AU     LIG 3415  13.813  33.861   7.895
    9AU     LIG 3416  14.083  33.549   7.975
    9AU     LIG 3417  14.480  33.293   8.080
    9AU       S 3418  13.095  33.854   7.889
    9AU     LIG 3419  13.055  33.379   7.829
    9AU     LIG 3420  12.868  32.952   7.930
    9AU     LIG 3421  12.600  32.809   8.276
    9AU       S 3422  12.684  34.528   8.524
    9AU     LIG 3423  12.301  34.341   8.827
    9AU     LIG 3424  11.992  33.981   8.703
    9AU     LIG 3425  12.007  33.510   8.616
    9AU       S 3426  13.142  33.863   7.365
    9AU     LIG 3427  13.226  33.415   7.280
    9AU     LIG 3428  13.193  33.148   6.942
    9AU     LIG 3429  12.954  32.751   6.976
    9AU       S 3430  13.341  33.966   7.808
    9AU     LIG 3431  13.511  33.539   7.671
    9AU     LIG 3432  13.584  33.131   7.863
    9AU     LIG 3433  13.394  32.737   8.011
    9AU       S 3434  13.147  36.282   7.004
    9AU     LIG 3435  12.992  36.691   6.799
    9AU     LIG 3436  13.205  37.083   6.648
    9AU     LIG 3437  13.450  37.445   6.467
    9AU       S 3438  13.857  35.953   7.074
    9AU     LIG 3439  14.233  36.255   6.967
    9AU     LIG 3440  14.535  36.338   6.593
    9AU     LIG 3441  14.703  36.691   6.316
    9AU       S 3442  12.925  36.270   7.210
    9AU     LIG 3443  12.585  36.506   7.065
    9AU     LIG 3444  12.480  36.915   6.866
    9AU     LIG 3445  12.727  37.292   6.714
    9AU       S 3446  12.606  35.679   6.589
    9AU     LIG 3447  12.393  35.946   6.271
    9AU     LIG 3448  12.229  36.343   6.083
    9AU     LIG 3449  12.129  36.787   6.182
    9AU       S 3450  12.307  34.292   6.974
    9AU     LIG 3451  11.890  34.073   6.901
    9AU     LIG 3452  11.717  33.664   6.710
    9AU     LIG 3453  11.566  33.426   6.298
    9AU       S 3454  13.205  33.882   7.117
    9AU     LIG 3455  13.520  33.729   6.789
    9AU     LIG 3456  13.421  33.367   6.515
    9AU     LIG 3457  13.201  32.905   6.479
    9AU       S 3458  13.462  33.944   7.336
    9AU     LIG 3459  13.773  33.619   7.226
    9AU     LIG 3460  13.746  33.282   6.915
    9AU     LIG 3461  13.680  32.958   6.621
    9AU       S 3462  13.830  34.356   6.771
    9AU     LIG 3463  13.851  34.043   6.474
    9AU     LIG 3464  13.750  33.705   6.211
    9AU     LIG 3465  13.481  33.392   6.009
   10AU     AUC 3466   2.639  10.760   7.526
   10AU     AUC 3467   2.890  10.747   7.360
   10AU     AUC 3468   2.896  10.756   7.682
   10AU     AUC 3469   2.374  10.754   7.377
   10AU     AUC 3470   2.386  10.784   7.694
   10AU     AUC 3471   2.493  11.018   7.510
   10AU     AUC 3472   2.811  11.011   7.506
   10AU     AUC 3473   2.473  10.507   7.549
   10AU     AUC 3474   2.790  10.497   7.534
   10AU     AUC 3475   2.638  10.619   7.794
   10AU     AUC 3476   2.657  10.938   7.774
   10AU     AUC 3477   2.629  10.586   7.277
   10AU     AUC 3478   2.635  10.901   7.257
   10AU     AUC 3479   3.143  10.750   7.195
   10AU     AUC 3480   3.147  10.740   7.518
   10AU     AUC 3481   3.150  10.735   7.840
   10AU     AUC 3482   2.114  10.736   7.226
   10AU     AUC 3483   2.114  10.779   7.548
   10AU     AUC 3484   2.142  10.822   7.867
   10AU     AUC 3485   2.346  11.278   7.482
   10AU     AUC 3486   2.685  11.273   7.476
   10AU     AUC 3487   2.999  11.263   7.485
   10AU     AUC 3488   2.310  10.255   7.572
   10AU     AUC 3489   2.635  10.241   7.546
   10AU     AUC 3490   2.952  10.233   7.542
   10AU     AUC 3491   2.637  10.477   8.061
   10AU     AUC 3492   2.650  10.802   8.057
   10AU     AUC 3493   2.687  11.121   8.020
   10AU     AUC 3494   2.641  10.415   7.027
   10AU     AUC 3495   2.622  10.727   7.005
   10AU     AUC 3496   2.625  11.039   6.988
   10AU     AUC 3497   2.890  10.600   7.955
   10AU     AUC 3498   2.925  10.923   7.938
   10AU     AUC 3499   2.900  10.589   7.098
   10AU     AUC 3500   2.887  10.903   7.085
   10AU     AUC 3501   2.386  10.653   7.972
   10AU     AUC 3502   2.402  10.978   7.946
   10AU     AUC 3503   2.363  10.563   7.129
   10AU     AUC 3504   2.360  10.885   7.098
   10AU     AUC 3505   3.071  11.001   7.344
   10AU     AUC 3506   3.075  11.013   7.669
   10AU     AUC 3507   2.219  11.025   7.346
   10AU     AUC 3508   2.234  11.064   7.675
   10AU     AUC 3509   3.042  10.477   7.363
   10AU     AUC 3510   3.049  10.482   7.693
   10AU     AUC 3511   2.196  10.493   7.410
   10AU     AUC 3512   2.212  10.524   7.730
   10AU     AUC 3513   2.514  11.199   7.768
   10AU     AUC 3514   2.854  11.191   7.754
   10AU     AUC 3515   2.475  10.361   7.821
   10AU     AUC 3516   2.791  10.341   7.803
   10AU     AUC 3517   2.478  11.169   7.237
   10AU     AUC 3518   2.815  11.164   7.234
   10AU     AUC 3519   2.467  10.321   7.294
   10AU     AUC 3520   2.805  10.326   7.275
   10AU    AUSL 3521   3.065  10.699   8.151
   10AU    AUSL 3522   2.938  10.355   8.134
   10AU     AUL 3523   3.327  10.505   8.273
   10AU    AUSL 3524   2.746  10.622   8.283
   10AU    AUSL 3525   2.541  10.993   8.276
   10AU     AUL 3526   2.810  10.892   8.562
   10AU    AUSL 3527   2.877  10.995   8.230
   10AU    AUSL 3528   3.233  10.976   8.006
   10AU     AUL 3529   3.208  10.900   8.402
   10AU    AUSL 3530   3.060  10.804   6.884
   10AU    AUSL 3531   2.941  11.150   6.905
   10AU     AUL 3532   3.316  10.981   6.745
   10AU    AUSL 3533   2.844  10.558   6.794
   10AU    AUSL 3534   3.212  10.511   7.029
   10AU     AUL 3535   3.205  10.565   6.653
   10AU    AUSL 3536   2.716  10.871   6.770
   10AU    AUSL 3537   2.498  10.546   6.815
   10AU     AUL 3538   2.699  10.418   6.571
   10AU    AUSL 3539   2.219  10.934   8.162
   10AU    AUSL 3540   2.404  11.264   8.045
   10AU     AUL 3541   2.372  11.288   8.376
   10AU    AUSL 3542   2.399  10.660   8.256
   10AU    AUSL 3543   2.128  10.545   8.046
   10AU     AUL 3544   1.945  10.750   8.200
   10AU    AUSL 3545   2.180  10.611   6.910
   10AU    AUSL 3546   2.333  10.279   7.018
   10AU     AUL 3547   2.342  10.276   6.671
   10AU    AUSL 3548   2.366  10.877   6.822
   10AU    AUSL 3549   2.090  11.008   7.041
   10AU     AUL 3550   1.920  10.757   6.898
   10AU    AUSL 3551   3.311  11.174   7.428
   10AU    AUSL 3552   3.213  11.030   7.101
   10AU     AUL 3553   3.546  10.966   7.058
   10AU    AUSL 3554   3.403  10.851   7.350
   10AU    AUSL 3555   3.389  10.594   7.678
   10AU     AUL 3556   3.703  10.691   7.514
   10AU    AUSL 3557   3.289  10.926   7.666
   10AU    AUSL 3558   3.200  11.275   7.750
   10AU     AUL 3559   3.512  10.979   7.774
   10AU    AUSL 3560   2.060  11.262   7.503
   10AU    AUSL 3561   2.083  11.141   7.925
   10AU     AUL 3562   1.769  11.304   7.698
   10AU    AUSL 3563   1.921  10.941   7.327
   10AU    AUSL 3564   2.193  11.322   7.187
   10AU     AUL 3565   1.820  11.248   7.222
   10AU    AUSL 3566   1.916  10.951   7.702
   10AU    AUSL 3567   1.867  10.628   7.435
   10AU     AUL 3568   1.627  10.969   7.502
   10AU    AUSL 3569   3.256  10.284   7.596
   10AU    AUSL 3570   3.198  10.448   7.930
   10AU     AUL 3571   3.535  10.499   7.930
   10AU    AUSL 3572   3.258  10.539   7.367
   10AU    AUSL 3573   3.142  10.214   7.255
   10AU     AUL 3574   3.488  10.463   7.270
   10AU    AUSL 3575   1.992  10.320   7.582
   10AU    AUSL 3576   2.033  10.450   7.168
   10AU     AUL 3577   1.719  10.338   7.312
   10AU    AUSL 3578   1.918  10.617   7.784
   10AU    AUSL 3579   2.193  10.243   7.881
   10AU     AUL 3580   1.890  10.267   7.916
   10AU    AUSL 3581   2.709  11.428   7.936
   10AU    AUSL 3582   2.251  11.416   7.759
   10AU     AUL 3583   2.457  11.631   8.042
   10AU    AUSL 3584   2.563  11.374   7.620
   10AU    AUSL 3585   2.808  11.513   7.330
   10AU     AUL 3586   2.562  11.686   7.636
   10AU    AUSL 3587   2.923  11.485   7.648
   10AU    AUSL 3588   2.988  11.232   8.022
   10AU     AUL 3589   3.040  11.560   7.969
   10AU    AUSL 3590   2.662  10.161   7.978
   10AU    AUSL 3591   3.008  10.160   7.845
   10AU     AUL 3592   2.798  10.074   8.253
   10AU    AUSL 3593   2.426  10.048   7.740
   10AU    AUSL 3594   2.413  10.336   8.145
   10AU     AUL 3595   2.361   9.965   8.073
   10AU    AUSL 3596   2.748  10.005   7.667
   10AU    AUSL 3597   2.500  10.031   7.396
   10AU     AUL 3598   2.295   9.828   7.561
   10AU    AUSL 3599   2.660  11.324   7.076
   10AU    AUSL 3600   3.066  11.325   7.211
   10AU     AUL 3601   2.849  11.490   6.911
   10AU    AUSL 3602   2.456  11.503   7.315
   10AU    AUSL 3603   2.378  11.195   6.920
   10AU     AUL 3604   2.438  11.531   6.939
   10AU    AUSL 3605   2.640  10.122   7.087
   10AU    AUSL 3606   2.176  10.157   7.321
   10AU     AUL 3607   2.367   9.906   7.085
   10AU    AUSL 3608   2.864  10.038   7.350
   10AU    AUSL 3609   2.933  10.298   6.987
   10AU     AUL 3610   2.922   9.987   6.971
   10AU       S 3611   3.289   9.977   8.274
   10AU     LIG 3612   3.336   9.516   8.346
   10AU     LIG 3613   3.303   9.143   8.609
   10AU     LIG 3614   3.564   8.765   8.658
   10AU       S 3615   3.032  10.420   8.675
   10AU     LIG 3616   3.313  10.539   9.021
   10AU     LIG 3617   3.497  10.743   9.394
   10AU     LIG 3618   3.360  10.836   9.824
   10AU       S 3619   2.697  10.400   8.669
   10AU     LIG 3620   2.758  10.496   9.115
   10AU     LIG 3621   3.049  10.489   9.471
   10AU     LIG 3622   3.354  10.323   9.760
   10AU       S 3623   2.337  10.917   8.736
   10AU     LIG 3624   2.320  10.784   9.142
   10AU     LIG 3625   1.990  10.746   9.396
   10AU     LIG 3626   1.891  10.915   9.802
   10AU       S 3627   2.928  11.394   8.521
   10AU     LIG 3628   3.099  11.627   8.872
   10AU     LIG 3629   3.435  11.512   9.138
   10AU     LIG 3630   3.818  11.282   9.129
   10AU       S 3631   3.569  11.240   8.207
   10AU     LIG 3632   3.772  11.340   8.606
   10AU     LIG 3633   3.963  11.682   8.799
   10AU     LIG 3634   4.338  11.950   8.724
   10AU       S 3635   3.003  11.015   6.353
   10AU     LIG 3636   3.137  10.956   5.896
   10AU     LIG 3637   3.335  10.579   5.750
   10AU     LIG 3638   3.296  10.121   5.761
   10AU       S 3639   3.313  11.498   6.738
   10AU     LIG 3640   3.370  11.818   6.424
   10AU     LIG 3641   3.544  12.015   6.057
   10AU     LIG 3642   3.950  12.171   5.948
   10AU       S 3643   3.557  10.204   6.845
   10AU     LIG 3644   3.883   9.975   6.633
   10AU     LIG 3645   3.883   9.576   6.382
   10AU     LIG 3646   3.801   9.237   6.078
   10AU       S 3647   2.888  10.770   6.283
   10AU     LIG 3648   2.844  10.496   5.910
   10AU     LIG 3649   2.864  10.252   5.511
   10AU     LIG 3650   3.212  10.075   5.231
   10AU       S 3651   2.324  10.687   6.337
   10AU     LIG 3652   2.178  10.711   5.931
   10AU     LIG 3653   2.390  10.477   5.633
   10AU     LIG 3654   2.478  10.439   5.203
   10AU       S 3655   2.719  11.006   6.387
   10AU     LIG 3656   2.613  10.966   5.908
   10AU     LIG 3657   2.797  10.793   5.495
   10AU     LIG 3658   3.156  10.595   5.271
   10AU       S 3659   2.083  10.943   8.640
   10AU     LIG 3660   1.780  10.767   8.892
   10AU     LIG 3661   1.615  10.465   9.183
   10AU     LIG 3662   1.637  10.459   9.638
   10AU       S 3663   1.969  11.580   8.202
   10AU     LIG 3664   1.616  11.801   8.416
   10AU     LIG 3665   1.418  11.819   8.837
   10AU     LIG 3666   1.205  12.036   9.187
   10AU       S 3667   1.945  10.315   8.460
   10AU     LIG 3668   1.476  10.264   8.327
   10AU     LIG 3669   1.164   9.950   8.178
   10AU     LIG 3670   0.993   9.509   8.199
   10AU       S 3671   2.261  10.663   8.647
   10AU     LIG 3672   2.087  10.368   8.968
   10AU     LIG 3673   2.033  10.219   9.395
   10AU     LIG 3674   2.140  10.435   9.789
   10AU       S 3675   2.051  10.644   6.428
   10AU     LIG 3676   1.947  10.286   6.168
   10AU     LIG 3677   1.875  10.353   5.729
   10AU     LIG 3678   1.803  10.748   5.526
   10AU       S 3679   1.944   9.993   6.819
   10AU     LIG 3680   1.961   9.628   6.545
   10AU     LIG 3681   1.778   9.604   6.132
   10AU     LIG 3682   1.361   9.720   6.015
   10AU       S 3683   1.842  11.205   6.681
   10AU     LIG 3684   1.489  11.522   6.736
   10AU     LIG 3685   1.332  11.809   6.435
   10AU     LIG 3686   1.292  11.788   5.985
   10AU       S 3687   2.226  10.927   6.447
   10AU     LIG 3688   1.940  11.116   6.172
   10AU     LIG 3689   2.009  11.174   5.736
   10AU     LIG 3690   2.302  10.954   5.466
   10AU       S 3691   3.498  11.460   6.947
   10AU     LIG 3692   3.804  11.642   6.660
   10AU     LIG 3693   3.945  11.738   6.241
   10AU     LIG 3694   4.317  11.788   5.972
   10AU       S 3695   3.618  11.438   7.438
   10AU     LIG 3696   3.874  11.779   7.668
   10AU     LIG 3697   4.340  11.791   7.676
   10AU     LIG 3698   4.723  11.643   7.498
   10AU       S 3699   3.854  11.189   7.380
   10AU     LIG 3700   4.312  11.329   7.360
   10AU     LIG 3701   4.733  11.308   7.098
   10AU     LIG 3702   5.189  11.477   7.004
   10AU       S 3703   3.775  10.157   7.659
   10AU     LIG 3704   4.022   9.924   7.982
   10AU     LIG 3705   4.465   9.926   8.124
   10AU     LIG 3706   4.839  10.081   7.938
   10AU       S 3707   3.549  11.471   7.976
   10AU     LIG 3708   3.866  11.708   8.223
   10AU     LIG 3709   3.873  12.099   8.515
   10AU     LIG 3710   3.978  12.252   8.950
   10AU       S 3711   3.807  11.301   7.578
   10AU     LIG 3712   4.127  11.350   7.876
   10AU     LIG 3713   4.586  11.348   7.900
   10AU     LIG 3714   4.926  11.007   7.967
   10AU       S 3715   1.831  11.319   8.227
   10AU     LIG 3716   1.386  11.347   8.369
   10AU     LIG 3717   1.072  11.652   8.506
   10AU     LIG 3718   0.864  11.760   8.897
   10AU       S 3719   1.944  11.743   7.415
   10AU     LIG 3720   1.674  12.128   7.303
   10AU     LIG 3721   1.262  12.176   7.097
   10AU     LIG 3722   0.998  11.950   6.783
   10AU       S 3723   1.448  10.892   7.039
   10AU     LIG 3724   0.985  10.910   7.161
   10AU     LIG 3725   0.746  11.282   7.182
   10AU     LIG 3726   0.833  11.717   7.208
   10AU       S 3727   1.950  11.638   6.904
   10AU     LIG 3728   1.715  12.019   6.782
   10AU     LIG 3729   1.398  12.297   6.606
   10AU     LIG 3730   1.156  12.268   6.215
   10AU       S 3731   1.392  10.534   7.650
   10AU     LIG 3732   0.966  10.516   7.499
   10AU     LIG 3733   0.609  10.537   7.212
   10AU     LIG 3734   0.166  10.537   7.034
   10AU       S 3735   1.509  10.986   8.015
   10AU     LIG 3736   1.054  10.987   8.142
   10AU     LIG 3737   0.751  11.336   8.218
   10AU     LIG 3738   0.846  11.761   8.064
   10AU       S 3739   3.497   9.977   7.571
   10AU     LIG 3740   3.595   9.599   7.388
   10AU     LIG 3741   4.006   9.596   7.574
   10AU     LIG 3742   4.348   9.491   7.863
   10AU       S 3743   3.473  10.004   8.063
   10AU     LIG 3744   3.683   9.563   7.981
   10AU     LIG 3745   3.834   9.303   8.336
   10AU     LIG 3746   3.850   9.166   8.784
   10AU       S 3747   3.719  10.078   7.444
   10AU     LIG 3748   3.975   9.884   7.147
   10AU     LIG 3749   4.434   9.952   7.108
   10AU     LIG 3750   4.650  10.361   7.030
   10AU       S 3751   3.437   9.966   7.052
   10AU     LIG 3752   3.601   9.593   6.837
   10AU     LIG 3753   3.651   9.169   6.645
   10AU     LIG 3754   3.631   8.830   6.335
   10AU       S 3755   1.802  10.189   6.835
   10AU     LIG 3756   1.580   9.981   6.470
   10AU     LIG 3757   1.187   9.772   6.495
   10AU     LIG 3758   1.003   9.392   6.341
   10AU       S 3759   1.429  10.271   7.729
   10AU     LIG 3760   1.015  10.050   7.691
   10AU     LIG 3761   0.816   9.951   7.267
   10AU     LIG 3762   0.421  10.090   7.027
   10AU       S 3763   1.970  10.084   8.372
   10AU     LIG 3764   1.670   9.785   8.191
   10AU     LIG 3765   1.525   9.383   8.064
   10AU     LIG 3766   1.373   9.206   8.409
   10AU       S 3767   1.464  10.532   7.851
   10AU     LIG 3768   1.055  10.461   8.043
   10AU     LIG 3769   0.645  10.462   7.886
   10AU     LIG 3770   0.523  10.192   7.578
   10AU       S 3771   1.975  11.746   7.910
   10AU     LIG 3772   1.604  12.042   7.946
   10AU     LIG 3773   1.213  12.109   8.234
   10AU     LIG 3774   1.065  12.196   8.678
   10AU       S 3775   2.823  12.006   7.941
   10AU     LIG 3776   2.868  12.356   8.213
   10AU     LIG 3777   2.577  12.703   8.331
   10AU     LIG 3778   2.382  13.048   8.532
   10AU       S 3779   2.778  12.180   7.663
   10AU     LIG 3780   2.481  12.401   7.875
   10AU     LIG 3781   2.394  12.793   7.860
   10AU     LIG 3782   2.240  13.124   8.048
   10AU       S 3783   2.845  11.910   7.230
   10AU     LIG 3784   2.997  12.341   7.240
   10AU     LIG 3785   2.845  12.740   7.105
   10AU     LIG 3786   3.051  13.133   6.968
   10AU       S 3787   3.383  11.410   8.293
   10AU     LIG 3788   3.468  11.762   8.542
   10AU     LIG 3789   3.547  11.963   8.925
   10AU     LIG 3790   3.821  11.847   9.277
   10AU       S 3791   3.048  11.969   7.663
   10AU     LIG 3792   3.170  12.462   7.733
   10AU     LIG 3793   2.904  12.780   7.943
   10AU     LIG 3794   2.963  13.081   8.318
   10AU       S 3795   2.792   9.624   8.031
   10AU     LIG 3796   2.948   9.243   8.179
   10AU     LIG 3797   2.768   9.054   8.552
   10AU     LIG 3798   2.626   8.627   8.691
   10AU       S 3799   3.236   9.859   7.974
   10AU     LIG 3800   3.262   9.444   7.748
   10AU     LIG 3801   3.288   9.024   7.821
   10AU     LIG 3802   3.489   8.964   8.184
   10AU       S 3803   2.566   9.540   7.870
   10AU     LIG 3804   2.422   9.296   8.202
   10AU     LIG 3805   2.373   8.895   8.275
   10AU     LIG 3806   2.477   8.476   8.228
   10AU       S 3807   2.228  10.186   8.523
   10AU     LIG 3808   1.947   9.883   8.818
   10AU     LIG 3809   1.705   9.468   8.746
   10AU     LIG 3810   1.620   9.009   8.823
   10AU       S 3811   2.669   9.548   7.345
   10AU     LIG 3812   2.362   9.260   7.239
   10AU     LIG 3813   2.516   8.919   6.996
   10AU     LIG 3814   2.846   8.626   7.024
   10AU       S 3815   2.820   9.637   7.795
   10AU     LIG 3816   2.826   9.177   7.663
   10AU     LIG 3817   2.779   8.821   7.965
   10AU     LIG 3818   3.072   8.716   8.342
   10AU       S 3819   2.693  11.955   7.031
   10AU     LIG 3820   2.763  12.335   6.783
   10AU     LIG 3821   2.841  12.756   6.596
   10AU     LIG 3822   2.990  13.169   6.455
   10AU       S 3823   3.317  11.640   7.086
   10AU     LIG 3824   3.511  12.011   6.883
   10AU     LIG 3825   3.783  12.157   6.515
   10AU     LIG 3826   4.220  12.283   6.386
   10AU       S 3827   2.464  11.967   7.229
   10AU     LIG 3828   2.270  12.235   6.942
   10AU     LIG 3829   2.365  12.672   6.834
   10AU     LIG 3830   2.531  13.080   6.867
   10AU       S 3831   2.066  11.375   6.631
   10AU     LIG 3832   1.816  11.622   6.347
   10AU     LIG 3833   1.725  12.051   6.230
   10AU     LIG 3834   1.638  12.465   6.151
   10AU       S 3835   1.854   9.908   7.074
   10AU     LIG 3836   1.552   9.629   6.869
   10AU     LIG 3837   1.508   9.371   6.505
   10AU     LIG 3838   1.429   9.210   6.082
   10AU       S 3839   2.763   9.545   7.114
   10AU     LIG 3840   3.124   9.380   6.829
   10AU     LIG 3841   3.156   9.029   6.520
   10AU     LIG 3842   2.995   8.604   6.533
   10AU       S 3843   2.999   9.620   7.336
   10AU     LIG 3844   3.212   9.180   7.300
   10AU     LIG 3845   3.336   8.858   6.960
   10AU     LIG 3846   3.468   8.485   6.672
   10AU       S 3847   3.360  10.062   6.756
   10AU     LIG 3848   3.434   9.852   6.394
   10AU     LIG 3849   3.377   9.432   6.294
   10AU     LIG 3850   3.307   9.069   6.007
   11POPC   NC3 3851  28.144  21.517   9.602
   11POPC   PO4 3852  28.692  21.171   9.504
   11POPC   GL1 3853  28.365  21.181   9.192
   11POPC   GL2 3854  28.445  21.543   9.155
   11POPC   C1A 3855  28.273  21.155   8.724
   11POPC   D2A 3856  28.465  21.337   8.335
   11POPC   C3A 3857  28.585  21.118   7.978
   11POPC   C4A 3858  28.369  21.153   7.604
   11POPC   C1B 3859  28.275  21.653   8.756
   11POPC   C2B 3860  28.005  21.535   8.392
   11POPC   C3B 3861  28.066  21.368   7.972
   11POPC   C4B 3862  28.075  21.627   7.616
   12POPC   NC3 3863   6.023  26.905   9.395
   12POPC   PO4 3864   5.367  26.771   9.228
   12POPC   GL1 3865   5.698  26.814   9.006
   12POPC   GL2 3866   5.815  27.145   8.995
   12POPC   C1A 3867   5.776  26.797   8.603
   12POPC   D2A 3868   5.761  26.546   8.290
   12POPC   C3A 3869   5.567  26.657   7.922
   12POPC   C4A 3870   5.824  26.622   7.559
   12POPC   C1B 3871   6.155  27.106   8.714
   12POPC   C2B 3872   6.091  27.031   8.275
   12POPC   C3B 3873   5.926  27.017   7.895
   12POPC   C4B 3874   6.256  26.895   7.641
   13POPC   NC3 3875   2.287  36.605   9.461
   13POPC   PO4 3876   3.056  36.807   9.542
   13POPC   GL1 3877   2.924  36.998   9.148
   13POPC   GL2 3878   2.622  36.851   9.162
   13POPC   C1A 3879   2.757  37.140   8.738
   13POPC   D2A 3880   2.703  36.928   8.403
   13POPC   C3A 3881   2.727  37.098   8.032
   13POPC   C4A 3882   2.965  36.781   7.841
   13POPC   C1B 3883   2.414  36.714   8.810
   13POPC   C2B 3884   2.302  36.619   8.410
   13POPC   C3B 3885   2.510  36.612   8.016
   13POPC   C4B 3886   2.493  36.860   7.599
   14POPC   NC3 3887   9.324   8.750   9.639
   14POPC   PO4 3888   8.702   9.086   9.502
   14POPC   GL1 3889   8.839   9.074   9.124
   14POPC   GL2 3890   9.084   8.818   9.166
   14POPC   C1A 3891   8.906   9.298   8.744
   14POPC   D2A 3892   8.861   9.103   8.352
   14POPC   C3A 3893   8.823   9.215   7.942
   14POPC   C4A 3894   8.742   8.898   7.650
   14POPC   C1B 3895   9.013   8.769   8.733
   14POPC   C2B 3896   9.280   8.824   8.392
   14POPC   C3B 3897   9.152   8.810   7.961
   14POPC   C4B 3898   9.273   8.669   7.540
   15POPC   NC3 3899  35.188   5.162   9.487
   15POPC   PO4 3900  35.504   4.569   9.371
   15POPC   GL1 3901  35.449   4.944   9.101
   15POPC   GL2 3902  35.679   5.250   9.072
   15POPC   C1A 3903  35.354   5.062   8.688
   15POPC   D2A 3904  35.575   5.105   8.324
   15POPC   C3A 3905  35.385   4.941   7.959
   15POPC   C4A 3906  35.303   4.497   7.935
   15POPC   C1B 3907  35.594   5.529   8.677
   15POPC   C2B 3908  35.462   5.578   8.210
   15POPC   C3B 3909  35.679   5.523   7.803
   15POPC   C4B 3910  35.549   5.442   7.338
   16POPC   NC3 3911  10.231   5.038   9.466
   16POPC   PO4 3912  10.765   5.381   9.433
   16POPC   GL1 3913  10.579   5.118   9.102
   16POPC   GL2 3914  10.324   5.361   9.037
   16POPC   C1A 3915  10.407   5.039   8.664
   16POPC   D2A 3916  10.060   4.906   8.391
   16POPC   C3A 3917  10.143   5.143   8.011
   16POPC   C4A 3918  10.377   5.031   7.626
   16POPC   C1B 3919  10.771   5.440   8.775
   16POPC   C2B 3920  10.872   5.667   8.379
   16POPC   C3B 3921  10.869   5.512   7.952
   16POPC   C4B 3922  10.752   5.370   7.536
   17POPC   NC3 3923  27.710  33.382   9.792
   17POPC   PO4 3924  27.522  32.794   9.489
   17POPC   GL1 3925  27.533  32.947   9.099
   17POPC   GL2 3926  27.756  33.220   9.077
   17POPC   C1A 3927  27.362  33.032   8.725
   17POPC   D2A 3928  27.474  33.081   8.319
   17POPC   C3A 3929  27.314  32.805   8.015
   17POPC   C4A 3930  27.296  33.017   7.644
   17POPC   C1B 3931  27.853  32.881   8.716
   17POPC   C2B 3932  27.970  32.865   8.266
   17POPC   C3B 3933  27.766  32.989   7.881
   17POPC   C4B 3934  27.785  33.010   7.423
   18POPC   NC3 3935  27.645   5.547   9.527
   18POPC   PO4 3936  27.473   6.197   9.709
   18POPC   GL1 3937  27.596   5.990   9.271
   18POPC   GL2 3938  27.312   5.887   9.130
   18POPC   C1A 3939  27.731   5.750   8.865
   18POPC   D2A 3940  27.807   5.876   8.404
   18POPC   C3A 3941  27.583   6.023   8.028
   18POPC   C4A 3942  27.814   5.877   7.668
   18POPC   C1B 3943  27.225   5.633   8.786
   18POPC   C2B 3944  27.315   5.684   8.339
   18POPC   C3B 3945  27.461   5.544   7.921
   18POPC   C4B 3946  27.507   5.533   7.448
   19POPC   NC3 3947  31.322  38.275   9.432
   19POPC   PO4 3948  31.536  38.826   9.467
   19POPC   GL1 3949  31.463  38.642   9.097
   19POPC   GL2 3950  31.688  38.363   9.080
   19POPC   C1A 3951  31.335  38.695   8.695
   19POPC   D2A 3952  31.560  38.760   8.301
   19POPC   C3A 3953  31.804  38.485   8.073
   19POPC   C4A 3954  31.516  38.641   7.757
   19POPC   C1B 3955  31.789  38.509   8.702
   19POPC   C2B 3956  31.538  38.268   8.432
   19POPC   C3B 3957  31.430  38.133   8.040
   19POPC   C4B 3958  31.401  38.186   7.590
   20POPC   NC3 3959  31.079  32.182   9.641
   20POPC   PO4 3960  31.728  32.332   9.715
   20POPC   GL1 3961  31.483  32.220   9.334
   20POPC   GL2 3962  31.301  32.516   9.263
   20POPC   C1A 3963  31.452  32.063   8.921
   20POPC   D2A 3964  31.628  31.998   8.480
   20POPC   C3A 3965  31.403  32.158   8.133
   20POPC   C4A 3966  31.544  32.136   7.700
   20POPC   C1B 3967  31.596  32.570   8.953
   20POPC   C2B 3968  31.597  32.490   8.552
   20POPC   C3B 3969  31.607  32.630   8.150
   20POPC   C4B 3970  31.457  32.640   7.776
   21POPC   NC3 3971  25.394  29.457   9.493
   21POPC   PO4 3972  25.015  30.091   9.512
   21POPC   GL1 3973  25.179  29.923   9.126
   21POPC   GL2 3974  25.535  29.794   9.127
   21POPC   C1A 3975  25.328  30.069   8.734
   21POPC   D2A 3976  25.482  29.832   8.406
   21POPC   C3A 3977  25.501  30.106   8.108
   21POPC   C4A 3978  25.078  30.116   7.855
   21POPC   C1B 3979  25.311  29.555   8.799
   21POPC   C2B 3980  25.108  29.384   8.468
   21POPC   C3B 3981  25.086  29.655   8.139
   21POPC   C4B 3982  25.408  29.726   7.814
   22POPC   NC3 3983  14.495   3.335   9.433
   22POPC   PO4 3984  14.376   3.972   9.464
   22POPC   GL1 3985  14.355   3.695   9.101
   22POPC   GL2 3986  14.080   3.438   9.098
   22POPC   C1A 3987  14.541   3.457   8.758
   22POPC   D2A 3988  14.716   3.417   8.344
   22POPC   C3A 3989  14.521   3.383   7.933
   22POPC   C4A 3990  14.424   3.559   7.499
   22POPC   C1B 3991  14.165   3.111   8.821
   22POPC   C2B 3992  14.333   3.073   8.440
   22POPC   C3B 3993  14.122   2.995   8.086
   22POPC   C4B 3994  14.162   3.132   7.682
   23POPC   NC3 3995   3.080  14.810   9.550
   23POPC   PO4 3996   2.912  14.169   9.406
   23POPC   GL1 3997   2.849  14.337   9.021
   23POPC   GL2 3998   2.961  14.658   9.068
   23POPC   C1A 3999   3.028  14.409   8.614
   23POPC   D2A 4000   3.025  14.159   8.258
   23POPC   C3A 4001   2.854  14.340   7.915
   23POPC   C4A 4002   3.070  14.604   7.635
   23POPC   C1B 4003   2.632  14.734   8.764
   23POPC   C2B 4004   2.576  14.544   8.363
   23POPC   C3B 4005   2.552  14.728   7.969
   23POPC   C4B 4006   2.547  14.593   7.489
   24POPC   NC3 4007  27.552  29.974   9.572
   24POPC   PO4 4008  27.098  30.347   9.242
   24POPC   GL1 4009  27.314  30.027   9.057
   24POPC   GL2 4010  27.628  29.840   9.085
   24POPC   C1A 4011  27.366  29.977   8.635
   24POPC   D2A 4012  27.464  30.174   8.257
   24POPC   C3A 4013  27.342  29.948   7.915
   24POPC   C4A 4014  27.415  29.668   7.591
   24POPC   C1B 4015  27.851  29.844   8.688
   24POPC   C2B 4016  27.705  29.757   8.269
   24POPC   C3B 4017  27.840  29.829   7.859
   24POPC   C4B 4018  27.903  29.508   7.550
   25POPC   NC3 4019  31.273  37.534   9.450
   25POPC   PO4 4020  31.724  38.051   9.479
   25POPC   GL1 4021  31.578  37.786   9.117
   25POPC   GL2 4022  31.239  37.904   9.074
   25POPC   C1A 4023  31.444  37.383   8.824
   25POPC   D2A 4024  31.146  37.379   8.450
   25POPC   C3A 4025  31.205  37.647   8.074
   25POPC   C4A 4026  31.418  37.539   7.673
   25POPC   C1B 4027  31.367  37.830   8.630
   25POPC   C2B 4028  31.645  37.659   8.349
   25POPC   C3B 4029  31.776  37.798   7.928
   25POPC   C4B 4030  31.919  38.162   7.678
   26POPC   NC3 4031  40.135  35.858   9.282
   26POPC   PO4 4032  40.147  36.447   9.623
   26POPC   GL1 4033  40.144  36.399   9.184
   26POPC   GL2 4034  39.808  36.279   9.152
   26POPC   C1A 4035  40.161  36.233   8.748
   26POPC   D2A 4036  40.301  36.134   8.319
   26POPC   C3A 4037  40.059  36.266   7.946
   26POPC   C4A 4038  39.882  35.950   7.691
   26POPC   C1B 4039  39.662  36.106   8.777
   26POPC   C2B 4040  39.781  35.979   8.388
   26POPC   C3B 4041  39.573  36.099   8.047
   26POPC   C4B 4042  39.551  36.318   7.667
   27POPC   NC3 4043  10.895  13.131   9.580
   27POPC   PO4 4044  10.348  12.738   9.545
   27POPC   GL1 4045  10.579  12.880   9.206
   27POPC   GL2 4046  10.920  12.783   9.184
   27POPC   C1A 4047  10.476  12.676   8.823
   27POPC   D2A 4048  10.159  12.680   8.509
   27POPC   C3A 4049  10.293  12.532   8.093
   27POPC   C4A 4050  10.277  12.862   7.808
   27POPC   C1B 4051  10.854  13.021   8.788
   27POPC   C2B 4052  10.600  12.972   8.406
   27POPC   C3B 4053  10.720  13.021   7.982
   27POPC   C4B 4054  10.832  12.651   7.784
   28POPC   NC3 4055  38.380  33.915   9.523
   28POPC   PO4 4056  38.989  33.825   9.360
   28POPC   GL1 4057  38.666  33.700   9.088
   28POPC   GL2 4058  38.342  33.867   9.026
   28POPC   C1A 4059  38.611  33.693   8.632
   28POPC   D2A 4060  38.429  33.901   8.274
   28POPC   C3A 4061  38.425  33.589   7.939
   28POPC   C4A 4062  38.673  33.582   7.559
   28POPC   C1B 4063  38.079  33.777   8.682
   28POPC   C2B 4064  37.915  33.928   8.306
   28POPC   C3B 4065  38.028  33.930   7.886
   28POPC   C4B 4066  38.377  33.988   7.626
   29POPC   NC3 4067   4.761  26.271   9.900
   29POPC   PO4 4068   4.152  26.295   9.522
   29POPC   GL1 4069   4.203  26.077   9.168
   29POPC   GL2 4070   4.535  26.078   9.019
   29POPC   C1A 4071   4.053  25.953   8.803
   29POPC   D2A 4072   4.241  25.723   8.513
   29POPC   C3A 4073   4.048  25.821   8.115
   29POPC   C4A 4074   4.026  26.137   7.824
   29POPC   C1B 4075   4.775  26.214   8.646
   29POPC   C2B 4076   4.805  26.131   8.197
   29POPC   C3B 4077   4.528  26.028   7.866
   29POPC   C4B 4078   4.452  25.974   7.431
   30POPC   NC3 4079   7.665   8.621   9.337
   30POPC   PO4 4080   7.116   8.960   9.435
   30POPC   GL1 4081   7.468   9.152   9.188
   30POPC   GL2 4082   7.811   9.047   9.123
   30POPC   C1A 4083   7.505   9.257   8.773
   30POPC   D2A 4084   7.255   9.024   8.452
   30POPC   C3A 4085   7.075   9.237   8.085
   30POPC   C4A 4086   7.094   9.081   7.673
   30POPC   C1B 4087   7.663   8.778   8.734
   30POPC   C2B 4088   7.566   8.582   8.356
   30POPC   C3B 4089   7.314   8.740   8.025
   30POPC   C4B 4090   7.532   8.814   7.671
   31POPC   NC3 4091  37.887  42.698   9.907
   31POPC   PO4 4092  37.688  43.291   9.608
   31POPC   GL1 4093  37.781  43.120   9.221
   31POPC   GL2 4094  37.962  42.787   9.239
   31POPC   C1A 4095  37.874  43.237   8.824
   31POPC   D2A 4096  37.957  43.013   8.457
   31POPC   C3A 4097  37.736  43.245   8.153
   31POPC   C4A 4098  37.774  43.420   7.764
   31POPC   C1B 4099  37.657  42.741   8.882
   31POPC   C2B 4100  37.509  42.768   8.434
   31POPC   C3B 4101  37.669  42.739   7.996
   31POPC   C4B 4102  37.822  42.943   7.610
   32POPC   NC3 4103  23.769  43.694   9.442
   32POPC   PO4 4104  23.486  42.958   9.493
   32POPC   GL1 4105  23.546  42.995   9.100
   32POPC   GL2 4106  23.497  43.377   9.120
   32POPC   C1A 4107  23.674  42.883   8.669
   32POPC   D2A 4108  23.766  43.227   8.404
   32POPC   C3A 4109  23.772  43.246   7.963
   32POPC   C4A 4110  23.828  43.319   7.510
   32POPC   C1B 4111  23.299  43.242   8.737
   32POPC   C2B 4112  23.231  43.053   8.368
   32POPC   C3B 4113  23.143  43.266   7.999
   32POPC   C4B 4114  23.379  43.149   7.659
   33POPC   NC3 4115  24.054   7.683   9.512
   33POPC   PO4 4116  23.458   7.458   9.388
   33POPC   GL1 4117  23.784   7.464   9.089
   33POPC   GL2 4118  23.692   7.117   9.011
   33POPC   C1A 4119  23.850   7.433   8.636
   33POPC   D2A 4120  23.689   7.109   8.377
   33POPC   C3A 4121  23.530   7.307   8.035
   33POPC   C4A 4122  23.728   7.432   7.679
   33POPC   C1B 4123  24.150   7.124   8.904
   33POPC   C2B 4124  24.206   7.091   8.453
   33POPC   C3B 4125  24.087   7.333   8.088
   33POPC   C4B 4126  24.155   7.193   7.672
   34POPC   NC3 4127  39.673   1.684   9.407
   34POPC   PO4 4128  40.320   1.853   9.508
   34POPC   GL1 4129  40.093   1.935   9.166
   34POPC   GL2 4130  39.830   2.199   9.246
   34POPC   C1A 4131  40.192   1.784   8.769
   34POPC   D2A 4132  40.077   1.587   8.413
   34POPC   C3A 4133  39.995   1.847   8.089
   34POPC   C4A 4134  40.226   1.749   7.732
   34POPC   C1B 4135  39.755   2.096   8.806
   34POPC   C2B 4136  40.015   2.226   8.478
   34POPC   C3B 4137  40.013   2.364   8.069
   34POPC   C4B 4138  39.914   2.172   7.692
   35POPC   NC3 4139  16.060  36.096   9.777
   35POPC   PO4 4140  16.747  36.191   9.571
   35POPC   GL1 4141  16.742  36.139   9.169
   35POPC   GL2 4142  16.518  36.433   9.124
   35POPC   C1A 4143  16.939  35.915   8.836
   35POPC   D2A 4144  16.842  35.835   8.449
   35POPC   C3A 4145  17.038  35.918   8.043
   35POPC   C4A 4146  17.048  35.947   7.583
   35POPC   C1B 4147  16.749  36.368   8.712
   35POPC   C2B 4148  16.800  36.354   8.239
   35POPC   C3B 4149  16.635  36.207   7.856
   35POPC   C4B 4150  16.311  36.378   7.605
   36POPC   NC3 4151  16.628  24.931   9.527
   36POPC   PO4 4152  16.860  25.576   9.559
   36POPC   GL1 4153  16.644  25.419   9.202
   36POPC   GL2 4154  16.791  25.120   9.084
   36POPC   C1A 4155  16.715  25.496   8.758
   36POPC   D2A 4156  16.641  25.281   8.394
   36POPC   C3A 4157  16.585  25.487   8.021
   36POPC   C4A 4158  16.985  25.612   7.871
   36POPC   C1B 4159  16.717  24.862   8.767
   36POPC   C2B 4160  16.512  24.789   8.403
   36POPC   C3B 4161  16.359  25.005   8.069
   36POPC   C4B 4162  16.569  25.060   7.707
   37POPC   NC3 4163   0.218  34.936   9.440
   37POPC   PO4 4164   0.862  35.133   9.526
   37POPC   GL1 4165   0.736  35.132   9.100
   37POPC   GL2 4166   0.469  34.925   8.977
   37POPC   C1A 4167   0.653  35.450   8.777
   37POPC   D2A 4168   0.835  35.476   8.348
   37POPC   C3A 4169   0.487  35.578   8.055
   37POPC   C4A 4170   0.470  35.440   7.639
   37POPC   C1B 4171   0.607  34.987   8.563
   37POPC   C2B 4172   0.630  35.019   8.112
   37POPC   C3B 4173   0.257  35.008   7.811
   37POPC   C4B 4174   0.206  35.141   7.345
   38POPC   NC3 4175  31.379  10.035   9.548
   38POPC   PO4 4176  31.450   9.361   9.537
   38POPC   GL1 4177  31.471   9.627   9.199
   38POPC   GL2 4178  31.808   9.787   9.170
   38POPC   C1A 4179  31.136   9.681   8.891
   38POPC   D2A 4180  31.215   9.486   8.510
   38POPC   C3A 4181  31.019   9.568   8.125
   38POPC   C4A 4182  31.123   9.678   7.710
   38POPC   C1B 4183  31.611   9.814   8.733
   38POPC   C2B 4184  31.483   9.905   8.292
   38POPC   C3B 4185  31.622   9.723   7.898
   38POPC   C4B 4186  31.514   9.923   7.511
   39POPC   NC3 4187  12.415  12.205   9.462
   39POPC   PO4 4188  11.772  11.876   9.546
   39POPC   GL1 4189  11.981  12.054   9.222
   39POPC   GL2 4190  12.241  11.790   9.193
   39POPC   C1A 4191  12.019  12.278   8.831
   39POPC   D2A 4192  11.879  12.313   8.423
   39POPC   C3A 4193  11.965  12.075   8.070
   39POPC   C4A 4194  12.087  12.168   7.691
   39POPC   C1B 4195  12.376  11.935   8.858
   39POPC   C2B 4196  12.247  11.949   8.472
   39POPC   C3B 4197  12.476  11.996   8.106
   39POPC   C4B 4198  12.425  11.788   7.723
   40POPC   NC3 4199  13.641  28.055   9.451
   40POPC   PO4 4200  14.169  28.563   9.634
   40POPC   GL1 4201  13.874  28.521   9.230
   40POPC   GL2 4202  13.536  28.428   9.123
   40POPC   C1A 4203  13.896  28.418   8.750
   40POPC   D2A 4204  13.685  28.470   8.348
   40POPC   C3A 4205  13.948  28.448   7.990
   40POPC   C4A 4206  13.834  28.473   7.542
   40POPC   C1B 4207  13.413  28.208   8.721
   40POPC   C2B 4208  13.481  27.988   8.301
   40POPC   C3B 4209  13.608  28.109   7.850
   40POPC   C4B 4210  13.378  28.277   7.459
   41POPC   NC3 4211   6.231   3.186   9.478
   41POPC   PO4 4212   5.673   2.744   9.465
   41POPC   GL1 4213   5.923   2.765   9.117
   41POPC   GL2 4214   5.729   2.479   9.020
   41POPC   C1A 4215   6.132   2.934   8.740
   41POPC   D2A 4216   6.301   2.846   8.343
   41POPC   C3A 4217   5.958   2.905   8.071
   41POPC   C4A 4218   5.928   3.040   7.682
   41POPC   C1B 4219   5.498   2.557   8.659
   41POPC   C2B 4220   5.478   2.717   8.237
   41POPC   C3B 4221   5.599   2.442   7.908
   41POPC   C4B 4222   5.479   2.426   7.469
   42POPC   NC3 4223  42.684   2.221   9.470
   42POPC   PO4 4224  42.085   1.974   9.719
   42POPC   GL1 4225  42.252   1.895   9.271
   42POPC   GL2 4226  42.354   2.156   9.109
   42POPC   C1A 4227  42.251   1.773   8.824
   42POPC   D2A 4228  42.237   2.078   8.503
   42POPC   C3A 4229  42.408   1.979   8.100
   42POPC   C4A 4230  42.030   2.062   7.849
   42POPC   C1B 4231  42.625   2.279   8.817
   42POPC   C2B 4232  42.675   2.352   8.422
   42POPC   C3B 4233  42.795   2.420   8.077
   42POPC   C4B 4234  42.676   2.307   7.721
   43POPC   NC3 4235  38.453  27.829   9.570
   43POPC   PO4 4236  38.778  27.233   9.473
   43POPC   GL1 4237  38.558  27.565   9.152
   43POPC   GL2 4238  38.220  27.788   9.128
   43POPC   C1A 4239  38.491  27.454   8.726
   43POPC   D2A 4240  38.543  27.166   8.368
   43POPC   C3A 4241  38.445  27.422   8.016
   43POPC   C4A 4242  38.681  27.707   7.798
   43POPC   C1B 4243  38.330  27.970   8.751
   43POPC   C2B 4244  38.447  27.880   8.347
   43POPC   C3B 4245  38.237  27.914   7.978
   43POPC   C4B 4246  38.211  27.713   7.603
   44POPC   NC3 4247  43.382  19.751   9.206
   44POPC   PO4 4248  42.922  19.615   9.619
   44POPC   GL1 4249  42.879  19.750   9.198
   44POPC   GL2 4250  42.991  20.099   9.233
   44POPC   C1A 4251  42.859  19.585   8.749
   44POPC   D2A 4252  42.866  19.297   8.366
   44POPC   C3A 4253  43.001  19.446   7.965
   44POPC   C4A 4254  43.357  19.671   7.815
   44POPC   C1B 4255  43.013  20.083   8.779
   44POPC   C2B 4256  43.062  19.913   8.362
   44POPC   C3B 4257  42.889  19.942   7.958
   44POPC   C4B 4258  42.668  19.913   7.580
   45POPC   NC3 4259  20.761  32.829   9.482
   45POPC   PO4 4260  20.164  33.126   9.503
   45POPC   GL1 4261  20.448  33.025   9.143
   45POPC   GL2 4262  20.651  33.302   9.101
   45POPC   C1A 4263  20.748  32.918   8.768
   45POPC   D2A 4264  20.861  33.053   8.321
   45POPC   C3A 4265  20.643  32.886   7.945
   45POPC   C4A 4266  20.550  32.654   7.538
   45POPC   C1B 4267  20.268  33.407   8.842
   45POPC   C2B 4268  20.043  33.287   8.456
   45POPC   C3B 4269  20.195  33.269   8.050
   45POPC   C4B 4270  20.604  33.404   7.944
   46POPC   NC3 4271   4.786  33.040   9.374
   46POPC   PO4 4272   4.330  33.403   9.728
   46POPC   GL1 4273   4.276  33.212   9.281
   46POPC   GL2 4274   4.250  32.827   9.240
   46POPC   C1A 4275   4.378  33.124   8.835
   46POPC   D2A 4276   4.628  33.218   8.463
   46POPC   C3A 4277   4.412  33.258   8.087
   46POPC   C4A 4278   4.077  33.366   7.797
   46POPC   C1B 4279   4.315  32.609   8.804
   46POPC   C2B 4280   4.457  32.715   8.378
   46POPC   C3B 4281   4.326  32.770   7.952
   46POPC   C4B 4282   4.490  33.016   7.629
   47POPC   NC3 4283  31.233  14.526   9.489
   47POPC   PO4 4284  31.663  14.084   9.528
   47POPC   GL1 4285  31.578  14.159   9.097
   47POPC   GL2 4286  31.245  14.175   9.064
   47POPC   C1A 4287  31.552  14.344   8.661
   47POPC   D2A 4288  31.534  14.665   8.319
   47POPC   C3A 4289  31.570  14.454   7.917
   47POPC   C4A 4290  31.694  14.049   7.744
   47POPC   C1B 4291  31.023  14.383   8.731
   47POPC   C2B 4292  31.098  14.394   8.292
   47POPC   C3B 4293  31.088  14.325   7.835
   47POPC   C4B 4294  31.225  14.574   7.508
   48POPC   NC3 4295  32.640  16.520   9.515
   48POPC   PO4 4296  33.214  16.906   9.451
   48POPC   GL1 4297  33.029  16.617   9.180
   48POPC   GL2 4298  32.729  16.771   9.052
   48POPC   C1A 4299  33.071  16.428   8.778
   48POPC   D2A 4300  33.294  16.413   8.377
   48POPC   C3A 4301  33.053  16.484   8.024
   48POPC   C4A 4302  33.094  16.657   7.601
   48POPC   C1B 4303  33.086  16.956   8.785
   48POPC   C2B 4304  33.273  16.949   8.353
   48POPC   C3B 4305  33.108  17.053   7.919
   48POPC   C4B 4306  32.956  17.128   7.459
   49POPC   NC3 4307   5.812  21.186   9.529
   49POPC   PO4 4308   6.124  21.775   9.504
   49POPC   GL1 4309   5.975  21.542   9.198
   49POPC   GL2 4310   5.636  21.642   9.219
   49POPC   C1A 4311   6.125  21.280   8.853
   49POPC   D2A 4312   6.062  21.172   8.436
   49POPC   C3A 4313   5.935  21.464   8.136
   49POPC   C4A 4314   6.109  21.488   7.736
   49POPC   C1B 4315   5.608  21.301   8.916
   49POPC   C2B 4316   5.569  21.273   8.491
   49POPC   C3B 4317   5.652  21.030   8.128
   49POPC   C4B 4318   5.749  21.123   7.713
   50POPC   NC3 4319   6.464  43.881   9.513
   50POPC   PO4 4320   7.119  43.660   9.427
   50POPC   GL1 4321   6.958  43.825   9.060
   50POPC   GL2 4322   6.632  43.945   9.058
   50POPC   C1A 4323   6.851  43.856   8.617
   50POPC   D2A 4324   6.549  43.721   8.310
   50POPC   C3A 4325   6.780  43.906   7.988
   50POPC   C4A 4326   6.934  43.752   7.595
   50POPC   C1B 4327   6.404  44.093   8.727
   50POPC   C2B 4328   6.501  44.232   8.305
   50POPC   C3B 4329   6.282  44.079   7.961
   50POPC   C4B 4330   6.398  43.740   7.726
   51POPC   NC3 4331  13.383  44.171   9.780
   51POPC   PO4 4332  13.886  43.850   9.455
   51POPC   GL1 4333  13.690  44.053   9.095
   51POPC   GL2 4334  13.288  44.082   9.135
   51POPC   C1A 4335  13.625  43.885   8.684
   51POPC   D2A 4336  13.934  43.855   8.361
   51POPC   C3A 4337  13.820  43.877   7.957
   51POPC   C4A 4338  13.822  44.128   7.604
   51POPC   C1B 4339  13.371  44.344   8.787
   51POPC   C2B 4340  13.491  44.303   8.364
   51POPC   C3B 4341  13.341  44.202   7.959
   51POPC   C4B 4342  13.352  44.264   7.507
   52POPC   NC3 4343  26.247  32.649   9.410
   52POPC   PO4 4344  25.745  32.210   9.378
   52POPC   GL1 4345  26.034  32.277   9.069
   52POPC   GL2 4346  26.373  32.257   8.953
   52POPC   C1A 4347  25.847  32.200   8.689
   52POPC   D2A 4348  25.646  32.275   8.312
   52POPC   C3A 4349  26.005  32.147   8.041
   52POPC   C4A 4350  26.125  32.110   7.624
   52POPC   C1B 4351  26.434  32.622   8.702
   52POPC   C2B 4352  26.234  32.599   8.320
   52POPC   C3B 4353  25.924  32.649   8.062
   52POPC   C4B 4354  25.947  32.583   7.666
   53POPC   NC3 4355  19.289   4.798   9.517
   53POPC   PO4 4356  18.957   5.363   9.398
   53POPC   GL1 4357  19.002   5.039   9.131
   53POPC   GL2 4358  19.337   5.122   9.125
   53POPC   C1A 4359  18.898   5.094   8.705
   53POPC   D2A 4360  18.878   5.234   8.285
   53POPC   C3A 4361  19.217   5.190   7.996
   53POPC   C4A 4362  19.258   5.588   7.866
   53POPC   C1B 4363  19.332   4.807   8.806
   53POPC   C2B 4364  19.216   4.806   8.374
   53POPC   C3B 4365  19.360   4.671   7.975
   53POPC   C4B 4366  19.259   4.826   7.583
   54POPC   NC3 4367   5.668  20.210   9.326
   54POPC   PO4 4368   6.043  20.779   9.527
   54POPC   GL1 4369   5.871  20.649   9.151
   54POPC   GL2 4370   6.108  20.379   9.106
   54POPC   C1A 4371   5.791  20.471   8.738
   54POPC   D2A 4372   5.881  20.688   8.421
   54POPC   C3A 4373   5.790  20.449   8.106
   54POPC   C4A 4374   5.833  20.638   7.762
   54POPC   C1B 4375   6.262  20.708   8.800
   54POPC   C2B 4376   6.373  20.785   8.357
   54POPC   C3B 4377   6.196  20.963   7.955
   54POPC   C4B 4378   6.297  20.749   7.535
   55POPC   NC3 4379  25.158  38.311   9.625
   55POPC   PO4 4380  25.266  38.949   9.532
   55POPC   GL1 4381  25.354  38.520   9.199
   55POPC   GL2 4382  25.168  38.162   9.141
   55POPC   C1A 4383  25.446  38.344   8.743
   55POPC   D2A 4384  25.565  38.609   8.362
   55POPC   C3A 4385  25.506  38.543   7.907
   55POPC   C4A 4386  25.222  38.706   7.602
   55POPC   C1B 4387  24.952  38.410   8.837
   55POPC   C2B 4388  25.056  38.536   8.405
   55POPC   C3B 4389  24.999  38.437   7.981
   55POPC   C4B 4390  24.811  38.371   7.580
   56POPC   NC3 4391  30.955  16.204   9.734
   56POPC   PO4 4392  30.468  15.784   9.571
   56POPC   GL1 4393  30.526  15.973   9.151
   56POPC   GL2 4394  30.415  15.664   8.988
   56POPC   C1A 4395  30.675  16.197   8.751
   56POPC   D2A 4396  30.853  16.256   8.331
   56POPC   C3A 4397  30.585  16.199   8.002
   56POPC   C4A 4398  30.677  16.203   7.597
   56POPC   C1B 4399  30.688  15.698   8.636
   56POPC   C2B 4400  30.522  15.824   8.339
   56POPC   C3B 4401  30.409  15.516   8.092
   56POPC   C4B 4402  30.673  15.459   7.733
   57POPC   NC3 4403  24.159   4.032   9.457
   57POPC   PO4 4404  24.812   4.258   9.550
   57POPC   GL1 4405  24.612   4.203   9.173
   57POPC   GL2 4406  24.360   4.448   9.099
   57POPC   C1A 4407  24.671   4.217   8.733
   57POPC   D2A 4408  24.531   4.348   8.369
   57POPC   C3A 4409  24.697   4.153   8.033
   57POPC   C4A 4410  24.635   4.182   7.591
   57POPC   C1B 4411  24.151   4.270   8.768
   57POPC   C2B 4412  24.032   4.185   8.373
   57POPC   C3B 4413  24.167   4.354   8.015
   57POPC   C4B 4414  24.198   4.449   7.611
   58POPC   NC3 4415  37.908  40.547   9.407
   58POPC   PO4 4416  37.942  41.129   9.090
   58POPC   GL1 4417  37.641  40.811   9.026
   58POPC   GL2 4418  37.488  40.478   9.158
   58POPC   C1A 4419  37.435  40.902   8.670
   58POPC   D2A 4420  37.499  40.692   8.314
   58POPC   C3A 4421  37.667  40.973   8.037
   58POPC   C4A 4422  37.541  41.022   7.628
   58POPC   C1B 4423  37.748  40.384   8.787
   58POPC   C2B 4424  37.937  40.395   8.384
   58POPC   C3B 4425  37.837  40.285   7.995
   58POPC   C4B 4426  37.567  40.531   7.772
   59POPC   NC3 4427   3.823  26.655   9.521
   59POPC   PO4 4428   3.310  27.118   9.323
   59POPC   GL1 4429   3.668  26.970   9.132
   59POPC   GL2 4430   3.520  26.667   9.120
   59POPC   C1A 4431   3.830  26.853   8.722
   59POPC   D2A 4432   4.051  26.740   8.350
   59POPC   C3A 4433   3.891  26.650   7.965
   59POPC   C4A 4434   3.958  26.825   7.595
   59POPC   C1B 4435   3.341  26.733   8.761
   59POPC   C2B 4436   3.484  26.628   8.379
   59POPC   C3B 4437   3.324  26.777   8.045
   59POPC   C4B 4438   3.434  26.737   7.674
   60POPC   NC3 4439   6.571  19.412   9.463
   60POPC   PO4 4440   6.143  19.979   9.460
   60POPC   GL1 4441   6.342  19.737   9.124
   60POPC   GL2 4442   6.727  19.753   9.097
   60POPC   C1A 4443   6.401  19.642   8.689
   60POPC   D2A 4444   6.638  19.906   8.401
   60POPC   C3A 4445   6.499  20.016   8.037
   60POPC   C4A 4446   6.334  19.828   7.670
   60POPC   C1B 4447   6.933  19.632   8.703
   60POPC   C2B 4448   6.721  19.411   8.350
   60POPC   C3B 4449   6.579  19.519   8.011
   60POPC   C4B 4450   6.844  19.783   7.740
   61POPC   NC3 4451   2.653  35.675   9.503
   61POPC   PO4 4452   2.997  35.197   9.292
   61POPC   GL1 4453   2.681  35.358   9.090
   61POPC   GL2 4454   2.451  35.130   9.206
   61POPC   C1A 4455   2.786  35.434   8.675
   61POPC   D2A 4456   2.908  35.457   8.264
   61POPC   C3A 4457   2.550  35.504   8.011
   61POPC   C4A 4458   2.695  35.328   7.660
   61POPC   C1B 4459   2.304  35.181   8.785
   61POPC   C2B 4460   2.489  35.126   8.371
   61POPC   C3B 4461   2.450  34.992   7.967
   61POPC   C4B 4462   2.194  35.208   7.679
   62POPC   NC3 4463   0.332   1.135   9.423
   62POPC   PO4 4464   0.691   1.739   9.392
   62POPC   GL1 4465   0.558   1.410   9.060
   62POPC   GL2 4466   0.691   1.055   9.069
   62POPC   C1A 4467   0.296   1.135   8.767
   62POPC   D2A 4468   0.173   1.189   8.352
   62POPC   C3A 4469   0.515   1.300   8.147
   62POPC   C4A 4470   0.746   1.271   7.769
   62POPC   C1B 4471   0.681   0.760   8.722
   62POPC   C2B 4472   0.595   0.811   8.275
   62POPC   C3B 4473   0.283   0.900   7.939
   62POPC   C4B 4474   0.388   0.927   7.498
   63POPC   NC3 4475  25.535  10.681   9.459
   63POPC   PO4 4476  25.041  10.620   9.945
   63POPC   GL1 4477  25.149  10.363   9.418
   63POPC   GL2 4478  25.470  10.193   9.252
   63POPC   C1A 4479  25.010  10.381   8.940
   63POPC   D2A 4480  25.174  10.378   8.467
   63POPC   C3A 4481  24.924  10.388   8.075
   63POPC   C4A 4482  24.929  10.769   7.815
   63POPC   C1B 4483  25.547  10.440   8.850
   63POPC   C2B 4484  25.673  10.572   8.441
   63POPC   C3B 4485  25.495  10.443   8.046
   63POPC   C4B 4486  25.691  10.396   7.634
   64POPC   NC3 4487  31.851  11.498   9.591
   64POPC   PO4 4488  32.491  11.704   9.450
   64POPC   GL1 4489  32.303  11.421   9.119
   64POPC   GL2 4490  32.293  11.072   9.119
   64POPC   C1A 4491  32.262  11.299   8.679
   64POPC   D2A 4492  32.389  11.468   8.324
   64POPC   C3A 4493  32.127  11.302   8.047
   64POPC   C4A 4494  31.916  11.381   7.674
   64POPC   C1B 4495  32.544  10.880   8.802
   64POPC   C2B 4496  32.586  10.976   8.401
   64POPC   C3B 4497  32.449  10.825   8.003
   64POPC   C4B 4498  32.154  10.922   7.676
   65POPC   NC3 4499  41.436  33.562   9.497
   65POPC   PO4 4500  41.943  34.030   9.435
   65POPC   GL1 4501  41.651  33.818   9.091
   65POPC   GL2 4502  41.268  33.724   9.064
   65POPC   C1A 4503  41.509  33.956   8.664
   65POPC   D2A 4504  41.702  34.089   8.275
   65POPC   C3A 4505  41.449  33.989   7.927
   65POPC   C4A 4506  41.564  33.878   7.513
   65POPC   C1B 4507  41.461  33.457   8.753
   65POPC   C2B 4508  41.600  33.546   8.330
   65POPC   C3B 4509  41.501  33.482   7.911
   65POPC   C4B 4510  41.195  33.583   7.672
   66POPC   NC3 4511  32.619  36.991   9.523
   66POPC   PO4 4512  33.305  36.903   9.623
   66POPC   GL1 4513  33.102  36.865   9.218
   66POPC   GL2 4514  32.873  37.077   9.106
   66POPC   C1A 4515  33.142  36.763   8.793
   66POPC   D2A 4516  33.229  36.981   8.430
   66POPC   C3A 4517  33.186  36.803   8.001
   66POPC   C4A 4518  33.034  36.910   7.582
   66POPC   C1B 4519  32.825  37.182   8.711
   66POPC   C2B 4520  32.636  37.098   8.394
   66POPC   C3B 4521  32.501  37.265   8.075
   66POPC   C4B 4522  32.636  37.255   7.701
   67POPC   NC3 4523  18.804  21.136   9.414
   67POPC   PO4 4524  19.196  21.597   9.505
   67POPC   GL1 4525  19.242  21.552   9.103
   67POPC   GL2 4526  19.107  21.217   9.005
   67POPC   C1A 4527  19.018  21.671   8.769
   67POPC   D2A 4528  18.904  21.464   8.418
   67POPC   C3A 4529  18.970  21.658   8.054
   67POPC   C4A 4530  19.171  21.615   7.722
   67POPC   C1B 4531  19.344  21.294   8.625
   67POPC   C2B 4532  19.336  21.284   8.151
   67POPC   C3B 4533  19.041  21.144   7.811
   67POPC   C4B 4534  19.063  20.951   7.374
   68POPC   NC3 4535  28.743  40.526   9.504
   68POPC   PO4 4536  28.160  40.753   9.749
   68POPC   GL1 4537  28.252  40.729   9.328
   68POPC   GL2 4538  28.067  40.424   9.359
   68POPC   C1A 4539  28.364  40.736   8.873
   68POPC   D2A 4540  28.274  40.848   8.438
   68POPC   C3A 4541  28.549  41.118   8.183
   68POPC   C4A 4542  28.537  40.957   7.795
   68POPC   C1B 4543  27.910  40.476   8.950
   68POPC   C2B 4544  27.963  40.434   8.514
   68POPC   C3B 4545  28.024  40.543   8.090
   68POPC   C4B 4546  28.339  40.487   7.812
   69POPC   NC3 4547  41.176  18.547   9.555
   69POPC   PO4 4548  41.902  18.322   9.477
   69POPC   GL1 4549  41.649  18.467   9.159
   69POPC   GL2 4550  41.945  18.527   8.976
   69POPC   C1A 4551  41.544  18.243   8.769
   69POPC   D2A 4552  41.446  17.980   8.419
   69POPC   C3A 4553  41.556  18.166   8.023
   69POPC   C4A 4554  41.324  18.050   7.667
   69POPC   C1B 4555  42.039  18.091   8.833
   69POPC   C2B 4556  41.987  17.889   8.423
   69POPC   C3B 4557  42.079  18.122   8.043
   69POPC   C4B 4558  41.936  18.432   7.731
   70POPC   NC3 4559  18.626  25.890   9.586
   70POPC   PO4 4560  19.312  25.948   9.540
   70POPC   GL1 4561  19.202  25.971   9.141
   70POPC   GL2 4562  18.898  26.052   9.172
   70POPC   C1A 4563  19.335  26.031   8.735
   70POPC   D2A 4564  19.099  26.097   8.361
   70POPC   C3A 4565  19.229  26.206   7.959
   70POPC   C4A 4566  19.113  26.009   7.604
   70POPC   C1B 4567  18.776  26.082   8.769
   70POPC   C2B 4568  18.530  26.073   8.435
   70POPC   C3B 4569  18.686  26.089   8.054
   70POPC   C4B 4570  18.603  25.973   7.657
   71POPC   NC3 4571  34.384   4.854   9.418
   71POPC   PO4 4572  33.918   5.362   9.401
   71POPC   GL1 4573  34.266   5.285   9.118
   71POPC   GL2 4574  34.645   5.241   9.128
   71POPC   C1A 4575  34.338   5.096   8.721
   71POPC   D2A 4576  34.519   5.248   8.331
   71POPC   C3A 4577  34.283   5.248   7.987
   71POPC   C4A 4578  34.343   5.052   7.669
   71POPC   C1B 4579  34.846   5.152   8.718
   71POPC   C2B 4580  35.036   5.229   8.282
   71POPC   C3B 4581  34.857   5.041   7.890
   71POPC   C4B 4582  34.864   4.611   7.712
   72POPC   NC3 4583  13.476   0.892   9.481
   72POPC   PO4 4584  13.914   1.403   9.470
   72POPC   GL1 4585  13.697   1.218   9.138
   72POPC   GL2 4586  13.321   1.268   9.142
   72POPC   C1A 4587  13.552   0.945   8.803
   72POPC   D2A 4588  13.416   1.064   8.395
   72POPC   C3A 4589  13.686   0.972   8.020
   72POPC   C4A 4590  13.589   1.089   7.583
   72POPC   C1B 4591  13.494   1.495   8.764
   72POPC   C2B 4592  13.646   1.502   8.328
   72POPC   C3B 4593  13.412   1.399   7.962
   72POPC   C4B 4594  13.351   1.632   7.595
   73POPC   NC3 4595  16.550  40.999   9.405
   73POPC   PO4 4596  16.091  40.553   9.640
   73POPC   GL1 4597  16.458  40.512   9.260
   73POPC   GL2 4598  16.400  40.230   9.098
   73POPC   C1A 4599  16.818  40.696   8.883
   73POPC   D2A 4600  16.829  40.895   8.414
   73POPC   C3A 4601  17.043  40.787   7.984
   73POPC   C4A 4602  16.878  40.690   7.522
   73POPC   C1B 4603  16.431  40.432   8.733
   73POPC   C2B 4604  16.665  40.405   8.355
   73POPC   C3B 4605  16.588  40.541   7.948
   73POPC   C4B 4606  16.558  40.263   7.641
   74POPC   NC3 4607   4.084   5.122   9.621
   74POPC   PO4 4608   4.682   4.768   9.598
   74POPC   GL1 4609   4.503   5.030   9.203
   74POPC   GL2 4610   4.158   5.210   9.139
   74POPC   C1A 4611   4.352   4.934   8.766
   74POPC   D2A 4612   4.047   4.935   8.428
   74POPC   C3A 4613   4.285   4.929   8.059
   74POPC   C4A 4614   4.437   5.241   7.832
   74POPC   C1B 4615   4.088   5.370   8.730
   74POPC   C2B 4616   4.232   5.407   8.322
   74POPC   C3B 4617   4.023   5.468   7.988
   74POPC   C4B 4618   3.882   5.110   7.791
   75POPC   NC3 4619  11.887  23.362   9.581
   75POPC   PO4 4620  12.392  22.889   9.573
   75POPC   GL1 4621  12.077  22.900   9.259
   75POPC   GL2 4622  11.796  22.607   9.338
   75POPC   C1A 4623  12.257  23.013   8.816
   75POPC   D2A 4624  12.470  22.990   8.388
   75POPC   C3A 4625  12.181  22.891   8.040
   75POPC   C4A 4626  11.804  23.100   7.845
   75POPC   C1B 4627  11.897  22.603   8.906
   75POPC   C2B 4628  11.841  22.868   8.545
   75POPC   C3B 4629  11.713  22.725   8.181
   75POPC   C4B 4630  11.860  22.519   7.844
   76POPC   NC3 4631   6.987  29.679   9.457
   76POPC   PO4 4632   6.405  30.061   9.470
   76POPC   GL1 4633   6.325  29.994   9.048
   76POPC   GL2 4634   6.065  29.739   9.077
   76POPC   C1A 4635   6.628  29.948   8.654
   76POPC   D2A 4636   6.749  29.700   8.245
   76POPC   C3A 4637   6.575  29.922   7.858
   76POPC   C4A 4638   6.731  30.288   7.699
   76POPC   C1B 4639   6.204  29.677   8.659
   76POPC   C2B 4640   6.260  29.871   8.266
   76POPC   C3B 4641   6.147  29.630   7.921
   76POPC   C4B 4642   6.162  29.684   7.467
   77POPC   NC3 4643  27.231  12.210   9.436
   77POPC   PO4 4644  27.979  12.138   9.503
   77POPC   GL1 4645  27.689  12.157   9.188
   77POPC   GL2 4646  27.528  11.814   9.243
   77POPC   C1A 4647  27.657  12.004   8.780
   77POPC   D2A 4648  27.538  11.776   8.413
   77POPC   C3A 4649  27.741  11.912   8.049
   77POPC   C4A 4650  27.763  12.151   7.702
   77POPC   C1B 4651  27.237  11.771   8.886
   77POPC   C2B 4652  27.158  12.097   8.587
   77POPC   C3B 4653  27.218  12.081   8.142
   77POPC   C4B 4654  27.318  11.889   7.745
   78POPC   NC3 4655  42.636  32.074   9.601
   78POPC   PO4 4656  43.227  32.480   9.600
   78POPC   GL1 4657  43.095  32.481   9.194
   78POPC   GL2 4658  42.785  32.331   9.198
   78POPC   C1A 4659  43.090  32.312   8.792
   78POPC   D2A 4660  42.940  32.470   8.443
   78POPC   C3A 4661  43.101  32.212   8.142
   78POPC   C4A 4662  43.123  32.269   7.733
   78POPC   C1B 4663  42.685  32.005   8.825
   78POPC   C2B 4664  42.666  32.017   8.360
   78POPC   C3B 4665  42.697  32.031   7.903
   78POPC   C4B 4666  42.761  32.044   7.464
   79POPC   NC3 4667  30.154  13.033   9.521
   79POPC   PO4 4668  29.525  12.743   9.600
   79POPC   GL1 4669  29.721  12.903   9.226
   79POPC   GL2 4670  30.004  12.702   9.139
   79POPC   C1A 4671  29.640  12.990   8.790
   79POPC   D2A 4672  29.578  12.808   8.417
   79POPC   C3A 4673  29.643  13.046   8.061
   79POPC   C4A 4674  29.646  12.900   7.646
   79POPC   C1B 4675  30.080  12.745   8.690
   79POPC   C2B 4676  30.054  12.747   8.233
   79POPC   C3B 4677  30.182  12.877   7.850
   79POPC   C4B 4678  30.530  13.169   7.821
   80POPC   NC3 4679   2.202  18.988   9.645
   80POPC   PO4 4680   1.597  19.207   9.395
   80POPC   GL1 4681   1.809  18.927   9.165
   80POPC   GL2 4682   2.172  19.008   9.152
   80POPC   C1A 4683   1.858  18.988   8.738
   80POPC   D2A 4684   2.050  19.259   8.496
   80POPC   C3A 4685   1.899  19.207   8.072
   80POPC   C4A 4686   1.772  18.852   7.846
   80POPC   C1B 4687   2.335  18.793   8.839
   80POPC   C2B 4688   2.311  18.603   8.465
   80POPC   C3B 4689   2.234  18.802   8.104
   80POPC   C4B 4690   2.280  18.962   7.709
   81POPC   NC3 4691  43.387  14.629   9.444
   81POPC   PO4 4692  42.806  14.239   9.573
   81POPC   GL1 4693  42.936  14.436   9.227
   81POPC   GL2 4694  43.219  14.233   9.152
   81POPC   C1A 4695  42.956  14.509   8.793
   81POPC   D2A 4696  42.737  14.423   8.419
   81POPC   C3A 4697  42.997  14.455   8.045
   81POPC   C4A 4698  43.099  14.601   7.667
   81POPC   C1B 4699  43.357  14.079   8.763
   81POPC   C2B 4700  43.191  14.088   8.343
   81POPC   C3B 4701  43.263  13.958   7.892
   81POPC   C4B 4702  43.294  14.056   7.405
   82POPC   NC3 4703   0.609  33.495   9.643
   82POPC   PO4 4704   0.078  33.662   9.241
   82POPC   GL1 4705   0.498  33.711   9.079
   82POPC   GL2 4706   0.743  33.456   9.141
   82POPC   C1A 4707   0.612  33.926   8.683
   82POPC   D2A 4708   0.414  34.191   8.370
   82POPC   C3A 4709   0.299  33.987   8.017
   82POPC   C4A 4710   0.663  33.937   7.822
   82POPC   C1B 4711   0.881  33.488   8.666
   82POPC   C2B 4712   0.730  33.541   8.193
   82POPC   C3B 4713   0.760  33.463   7.697
   82POPC   C4B 4714   0.835  33.427   7.225
   83POPC   NC3 4715  15.138  10.126   9.707
   83POPC   PO4 4716  14.784   9.559   9.546
   83POPC   GL1 4717  15.054   9.724   9.211
   83POPC   GL2 4718  15.208   9.398   9.136
   83POPC   C1A 4719  15.358   9.845   8.838
   83POPC   D2A 4720  15.489  10.050   8.416
   83POPC   C3A 4721  15.137  10.077   8.085
   83POPC   C4A 4722  14.990   9.925   7.679
   83POPC   C1B 4723  15.339   9.356   8.709
   83POPC   C2B 4724  15.217   9.595   8.347
   83POPC   C3B 4725  15.173   9.516   7.928
   83POPC   C4B 4726  15.442   9.351   7.606
   84POPC   NC3 4727  31.594  19.857   9.383
   84POPC   PO4 4728  32.070  19.708   9.810
   84POPC   GL1 4729  32.122  19.796   9.326
   84POPC   GL2 4730  32.365  19.556   9.164
   84POPC   C1A 4731  32.062  19.886   8.835
   84POPC   D2A 4732  32.208  20.158   8.457
   84POPC   C3A 4733  32.100  20.186   8.021
   84POPC   C4A 4734  32.266  19.996   7.667
   84POPC   C1B 4735  32.537  19.660   8.767
   84POPC   C2B 4736  32.310  19.650   8.403
   84POPC   C3B 4737  32.085  19.671   8.047
   84POPC   C4B 4738  32.098  19.518   7.634
   85POPC   NC3 4739   5.070  12.558   9.469
   85POPC   PO4 4740   5.257  11.974   9.766
   85POPC   GL1 4741   5.189  12.035   9.292
   85POPC   GL2 4742   5.487  11.942   9.096
   85POPC   C1A 4743   5.041  11.954   8.844
   85POPC   D2A 4744   5.153  11.870   8.399
   85POPC   C3A 4745   4.817  11.871   8.053
   85POPC   C4A 4746   4.850  12.113   7.675
   85POPC   C1B 4747   5.471  12.226   8.718
   85POPC   C2B 4748   5.419  12.319   8.298
   85POPC   C3B 4749   5.290  12.048   7.927
   85POPC   C4B 4750   5.356  12.229   7.494
   86POPC   NC3 4751  16.802  27.150   9.494
   86POPC   PO4 4752  16.565  26.497   9.618
   86POPC   GL1 4753  16.666  26.719   9.227
   86POPC   GL2 4754  16.358  26.809   9.025
   86POPC   C1A 4755  16.823  26.950   8.844
   86POPC   D2A 4756  16.878  26.771   8.407
   86POPC   C3A 4757  16.867  27.020   8.022
   86POPC   C4A 4758  16.858  27.026   7.574
   86POPC   C1B 4759  16.586  26.495   8.752
   86POPC   C2B 4760  16.601  26.348   8.318
   86POPC   C3B 4761  16.728  26.515   7.913
   86POPC   C4B 4762  16.562  26.639   7.507
   87POPC   NC3 4763  11.274  22.576   9.516
   87POPC   PO4 4764  11.445  23.206   9.518
   87POPC   GL1 4765  11.247  23.009   9.156
   87POPC   GL2 4766  11.369  22.691   9.042
   87POPC   C1A 4767  11.207  23.003   8.691
   87POPC   D2A 4768  11.039  23.163   8.332
   87POPC   C3A 4769  11.336  23.079   8.068
   87POPC   C4A 4770  11.214  23.166   7.689
   87POPC   C1B 4771  11.451  22.531   8.650
   87POPC   C2B 4772  11.235  22.618   8.270
   87POPC   C3B 4773  11.370  22.665   7.791
   87POPC   C4B 4774  11.614  22.540   7.379
   88POPC   NC3 4775  23.225  13.539   9.484
   88POPC   PO4 4776  22.630  13.898   9.535
   88POPC   GL1 4777  22.729  13.656   9.128
   88POPC   GL2 4778  22.928  13.368   9.096
   88POPC   C1A 4779  23.035  13.668   8.737
   88POPC   D2A 4780  22.980  13.526   8.328
   88POPC   C3A 4781  22.861  13.891   8.120
   88POPC   C4A 4782  22.557  13.820   7.820
   88POPC   C1B 4783  23.283  13.224   8.864
   88POPC   C2B 4784  23.281  13.105   8.434
   88POPC   C3B 4785  23.355  13.240   8.020
   88POPC   C4B 4786  23.194  13.601   7.856
   89POPC   NC3 4787   1.393  33.772   9.457
   89POPC   PO4 4788   0.716  33.918   9.522
   89POPC   GL1 4789   0.992  33.913   9.123
   89POPC   GL2 4790   1.205  33.609   9.043
   89POPC   C1A 4791   1.124  33.955   8.675
   89POPC   D2A 4792   0.928  34.032   8.270
   89POPC   C3A 4793   1.140  33.752   7.980
   89POPC   C4A 4794   1.205  33.688   7.542
   89POPC   C1B 4795   1.414  33.529   8.702
   89POPC   C2B 4796   1.529  33.701   8.319
   89POPC   C3B 4797   1.628  33.495   7.957
   89POPC   C4B 4798   1.652  33.503   7.505
   90POPC   NC3 4799  44.705  23.281   9.560
   90POPC   PO4 4800  44.755  22.623   9.637
   90POPC   GL1 4801  44.504  22.799   9.221
   90POPC   GL2 4802  44.347  23.163   9.196
   90POPC   C1A 4803  44.541  22.824   8.736
   90POPC   D2A 4804  44.535  22.755   8.261
   90POPC   C3A 4805  44.865  22.914   7.973
   90POPC   C4A 4806   0.190  22.736   7.674
   90POPC   C1B 4807  44.349  23.365   8.794
   90POPC   C2B 4808  44.311  23.188   8.407
   90POPC   C3B 4809  44.422  23.210   8.028
   90POPC   C4B 4810  44.565  23.183   7.629
   91POPC   NC3 4811  17.972  31.562   9.388
   91POPC   PO4 4812  17.203  31.415   9.531
   91POPC   GL1 4813  17.324  31.553   9.082
   91POPC   GL2 4814  17.652  31.631   9.026
   91POPC   C1A 4815  17.289  31.489   8.614
   91POPC   D2A 4816  17.280  31.742   8.252
   91POPC   C3A 4817  17.454  31.501   7.954
   91POPC   C4A 4818  17.239  31.523   7.577
   91POPC   C1B 4819  17.760  31.327   8.785
   91POPC   C2B 4820  17.682  31.237   8.373
   91POPC   C3B 4821  17.706  31.033   8.006
   91POPC   C4B 4822  17.595  31.115   7.606
   92POPC   NC3 4823   1.950  28.136   9.793
   92POPC   PO4 4824   1.994  27.649   9.355
   92POPC   GL1 4825   2.081  27.877   8.993
   92POPC   GL2 4826   1.764  27.904   8.844
   92POPC   C1A 4827   2.225  27.691   8.644
   92POPC   D2A 4828   2.368  27.791   8.274
   92POPC   C3A 4829   2.208  27.539   7.959
   92POPC   C4A 4830   2.390  27.612   7.571
   92POPC   C1B 4831   1.782  27.456   8.767
   92POPC   C2B 4832   1.909  27.320   8.383
   92POPC   C3B 4833   1.702  27.371   8.015
   92POPC   C4B 4834   1.758  27.790   7.866
   93POPC   NC3 4835  30.875  27.170   9.390
   93POPC   PO4 4836  30.290  26.917   9.617
   93POPC   GL1 4837  30.570  26.698   9.290
   93POPC   GL2 4838  30.486  26.946   9.117
   93POPC   C1A 4839  30.851  26.726   8.859
   93POPC   D2A 4840  30.968  26.449   8.506
   93POPC   C3A 4841  30.747  26.573   8.151
   93POPC   C4A 4842  30.701  26.702   7.754
   93POPC   C1B 4843  30.356  27.082   8.742
   93POPC   C2B 4844  30.455  26.938   8.380
   93POPC   C3B 4845  30.392  27.065   8.004
   93POPC   C4B 4846  30.239  26.906   7.661
   94POPC   NC3 4847   2.591  38.177   9.468
   94POPC   PO4 4848   2.946  38.771   9.607
   94POPC   GL1 4849   2.833  38.537   9.182
   94POPC   GL2 4850   2.955  38.163   9.102
   94POPC   C1A 4851   2.819  38.496   8.715
   94POPC   D2A 4852   3.070  38.580   8.347
   94POPC   C3A 4853   2.939  38.721   7.913
   94POPC   C4A 4854   2.908  38.869   7.486
   94POPC   C1B 4855   2.601  38.044   8.810
   94POPC   C2B 4856   2.544  38.170   8.379
   94POPC   C3B 4857   2.817  38.235   8.027
   94POPC   C4B 4858   2.699  38.258   7.604
   95POPC   NC3 4859  14.492  41.872   9.598
   95POPC   PO4 4860  14.180  41.309   9.755
   95POPC   GL1 4861  14.262  41.514   9.260
   95POPC   GL2 4862  14.198  41.894   9.182
   95POPC   C1A 4863  14.275  41.267   8.820
   95POPC   D2A 4864  14.697  41.299   8.582
   95POPC   C3A 4865  14.644  41.269   8.123
   95POPC   C4A 4866  14.729  41.411   7.679
   95POPC   C1B 4867  14.439  41.732   8.812
   95POPC   C2B 4868  14.274  41.603   8.407
   95POPC   C3B 4869  14.361  41.674   7.991
   95POPC   C4B 4870  14.617  41.913   7.746
   96POPC   NC3 4871  20.535  41.820   9.534
   96POPC   PO4 4872  20.725  41.174   9.428
   96POPC   GL1 4873  20.546  41.487   9.154
   96POPC   GL2 4874  20.838  41.738   9.144
   96POPC   C1A 4875  20.543  41.612   8.731
   96POPC   D2A 4876  20.390  41.443   8.362
   96POPC   C3A 4877  20.509  41.649   7.989
   96POPC   C4A 4878  20.830  41.589   7.714
   96POPC   C1B 4879  20.983  41.891   8.766
   96POPC   C2B 4880  20.848  41.859   8.332
   96POPC   C3B 4881  21.032  42.003   7.933
   96POPC   C4B 4882  20.979  41.963   7.417
   97POPC   NC3 4883   9.508  37.072   9.648
   97POPC   PO4 4884  10.172  37.066   9.799
   97POPC   GL1 4885   9.948  36.993   9.375
   97POPC   GL2 4886   9.815  36.665   9.301
   97POPC   C1A 4887   9.805  37.049   8.946
   97POPC   D2A 4888   9.950  37.126   8.516
   97POPC   C3A 4889   9.767  36.964   8.157
   97POPC   C4A 4890   9.899  36.980   7.747
   97POPC   C1B 4891   9.869  36.570   8.833
   97POPC   C2B 4892   9.815  36.481   8.374
   97POPC   C3B 4893   9.942  36.517   7.916
   97POPC   C4B 4894   9.711  36.584   7.492
   98POPC   NC3 4895  25.870  39.960   9.427
   98POPC   PO4 4896  26.032  39.337   9.475
   98POPC   GL1 4897  26.127  39.229   9.060
   98POPC   GL2 4898  26.157  39.600   9.023
   98POPC   C1A 4899  26.035  39.073   8.600
   98POPC   D2A 4900  25.995  39.251   8.168
   98POPC   C3A 4901  26.020  39.049   7.759
   98POPC   C4A 4902  26.180  38.974   7.335
   98POPC   C1B 4903  25.785  39.491   8.769
   98POPC   C2B 4904  25.622  39.565   8.348
   98POPC   C3B 4905  25.731  39.656   7.931
   98POPC   C4B 4906  25.963  39.554   7.554
   99POPC   NC3 4907  40.023  18.394   9.374
   99POPC   PO4 4908  40.281  17.805   9.248
   99POPC   GL1 4909  39.929  18.023   9.026
   99POPC   GL2 4910  40.150  18.310   8.883
   99POPC   C1A 4911  39.628  18.234   8.718
   99POPC   D2A 4912  39.611  18.156   8.240
   99POPC   C3A 4913  39.925  18.331   7.907
   99POPC   C4A 4914  39.877  18.311   7.438
   99POPC   C1B 4915  40.434  18.605   8.629
   99POPC   C2B 4916  40.548  18.754   8.245
   99POPC   C3B 4917  40.290  18.761   7.936
   99POPC   C4B 4918  40.319  18.496   7.581
  100POPC   NC3 4919  41.164  32.147   9.541
  100POPC   PO4 4920  41.832  32.427   9.465
  100POPC   GL1 4921  41.724  32.206   9.104
  100POPC   GL2 4922  41.362  32.103   9.036
  100POPC   C1A 4923  41.627  32.418   8.718
  100POPC   D2A 4924  41.812  32.302   8.326
  100POPC   C3A 4925  41.700  32.494   7.964
  100POPC   C4A 4926  41.867  32.271   7.652
  100POPC   C1B 4927  41.602  31.921   8.656
  100POPC   C2B 4928  41.578  31.852   8.213
  100POPC   C3B 4929  41.383  32.039   7.857
  100POPC   C4B 4930  41.467  32.103   7.417
  101POPC   NC3 4931  16.950  22.424   9.591
  101POPC   PO4 4932  16.327  22.238   9.895
  101POPC   GL1 4933  16.465  22.216   9.429
  101POPC   GL2 4934  16.755  22.016   9.369
  101POPC   C1A 4935  16.562  22.344   8.999
  101POPC   D2A 4936  16.709  22.217   8.555
  101POPC   C3A 4937  16.621  22.404   8.176
  101POPC   C4A 4938  16.905  22.389   7.814
  101POPC   C1B 4939  16.803  21.899   8.922
  101POPC   C2B 4940  17.014  21.737   8.531
  101POPC   C3B 4941  16.911  21.939   8.120
  101POPC   C4B 4942  16.875  21.752   7.724
  102POPC   NC3 4943  19.145   6.377   9.596
  102POPC   PO4 4944  18.596   6.226   9.305
  102POPC   GL1 4945  18.992   6.389   9.095
  102POPC   GL2 4946  19.142   6.699   9.169
  102POPC   C1A 4947  19.263   6.503   8.711
  102POPC   D2A 4948  19.201   6.326   8.314
  102POPC   C3A 4949  19.224   6.536   7.938
  102POPC   C4A 4950  18.878   6.425   7.732
  102POPC   C1B 4951  19.271   6.997   8.830
  102POPC   C2B 4952  19.236   7.065   8.383
  102POPC   C3B 4953  19.389   7.036   7.927
  102POPC   C4B 4954  19.392   6.934   7.462
  103POPC   NC3 4955   8.945   4.661   9.419
  103POPC   PO4 4956   9.295   4.035   9.597
  103POPC   GL1 4957   9.169   4.230   9.213
  103POPC   GL2 4958   9.383   4.509   9.152
  103POPC   C1A 4959   8.948   4.306   8.824
  103POPC   D2A 4960   8.780   4.125   8.453
  103POPC   C3A 4961   8.861   4.298   8.069
  103POPC   C4A 4962   9.080   4.169   7.718
  103POPC   C1B 4963   9.462   4.361   8.789
  103POPC   C2B 4964   9.276   4.287   8.418
  103POPC   C3B 4965   9.339   4.486   8.042
  103POPC   C4B 4966   9.357   4.646   7.628
  104POPC   NC3 4967  33.262  42.225   9.335
  104POPC   PO4 4968  32.628  42.348   9.496
  104POPC   GL1 4969  32.822  42.385   9.082
  104POPC   GL2 4970  32.846  42.062   8.922
  104POPC   C1A 4971  32.774  42.533   8.639
  104POPC   D2A 4972  32.901  42.332   8.238
  104POPC   C3A 4973  32.683  42.304   7.826
  104POPC   C4A 4974  32.757  42.115   7.346
  104POPC   C1B 4975  33.206  42.240   8.683
  104POPC   C2B 4976  33.399  42.181   8.290
  104POPC   C3B 4977  33.301  42.374   7.902
  104POPC   C4B 4978  33.505  42.523   7.534
  105POPC   NC3 4979  35.129   5.947   9.496
  105POPC   PO4 4980  35.546   5.464   9.508
  105POPC   GL1 4981  35.369   5.669   9.134
  105POPC   GL2 4982  35.171   5.391   9.037
  105POPC   C1A 4983  35.284   6.023   8.813
  105POPC   D2A 4984  35.460   6.052   8.373
  105POPC   C3A 4985  35.260   6.045   7.942
  105POPC   C4A 4986  35.042   6.281   7.581
  105POPC   C1B 4987  35.075   5.593   8.670
  105POPC   C2B 4988  34.978   5.795   8.320
  105POPC   C3B 4989  34.938   5.640   7.962
  105POPC   C4B 4990  35.206   5.379   7.759
  106POPC   NC3 4991   8.612   8.616   9.394
  106POPC   PO4 4992   8.298   7.953   9.486
  106POPC   GL1 4993   8.342   8.253   9.171
  106POPC   GL2 4994   7.999   8.293   9.137
  106POPC   C1A 4995   8.596   8.359   8.777
  106POPC   D2A 4996   8.561   8.140   8.373
  106POPC   C3A 4997   8.477   8.360   7.972
  106POPC   C4A 4998   8.359   8.194   7.557
  106POPC   C1B 4999   8.118   8.536   8.787
  106POPC   C2B 5000   8.104   8.406   8.364
  106POPC   C3B 5001   7.932   8.376   7.963
  106POPC   C4B 5002   7.869   8.329   7.537
  107POPC   NC3 5003  22.153   3.428   9.543
  107POPC   PO4 5004  21.751   4.019   9.538
  107POPC   GL1 5005  21.993   3.798   9.201
  107POPC   GL2 5006  22.356   3.696   9.087
  107POPC   C1A 5007  21.943   3.708   8.768
  107POPC   D2A 5008  21.934   3.460   8.410
  107POPC   C3A 5009  22.199   3.612   8.088
  107POPC   C4A 5010  22.089   3.728   7.643
  107POPC   C1B 5011  22.558   3.410   8.717
  107POPC   C2B 5012  22.573   3.220   8.295
  107POPC   C3B 5013  22.503   3.275   7.859
  107POPC   C4B 5014  22.436   3.400   7.430
  108POPC   NC3 5015  29.717  40.360   9.347
  108POPC   PO4 5016  29.383  40.831   9.477
  108POPC   GL1 5017  29.690  40.933   9.195
  108POPC   GL2 5018  29.738  40.673   8.958
  108POPC   C1A 5019  29.733  41.168   8.802
  108POPC   D2A 5020  29.979  41.209   8.413
  108POPC   C3A 5021  30.006  40.849   8.122
  108POPC   C4A 5022  29.867  40.918   7.708
  108POPC   C1B 5023  29.837  40.389   8.628
  108POPC   C2B 5024  29.688  40.342   8.216
  108POPC   C3B 5025  29.722  40.443   7.804
  108POPC   C4B 5026  30.128  40.502   7.630
  109POPC   NC3 5027   4.354   7.978   9.566
  109POPC   PO4 5028   3.866   8.405   9.497
  109POPC   GL1 5029   4.093   8.155   9.174
  109POPC   GL2 5030   3.875   7.957   9.075
  109POPC   C1A 5031   4.343   8.020   8.788
  109POPC   D2A 5032   4.530   7.861   8.373
  109POPC   C3A 5033   4.480   8.087   7.973
  109POPC   C4A 5034   4.591   8.499   7.831
  109POPC   C1B 5035   3.871   8.219   8.699
  109POPC   C2B 5036   4.132   8.261   8.343
  109POPC   C3B 5037   4.074   8.394   7.923
  109POPC   C4B 5038   3.852   8.360   7.492
  110POPC   NC3 5039  15.458  13.920   9.432
  110POPC   PO4 5040  14.845  14.127   9.383
  110POPC   GL1 5041  15.036  13.843   9.086
  110POPC   GL2 5042  15.193  13.516   9.214
  110POPC   C1A 5043  15.010  13.599   8.703
  110POPC   D2A 5044  15.083  13.420   8.285
  110POPC   C3A 5045  15.085  13.704   7.919
  110POPC   C4A 5046  14.786  14.050   7.841
  110POPC   C1B 5047  15.497  13.520   8.878
  110POPC   C2B 5048  15.530  13.568   8.470
  110POPC   C3B 5049  15.571  13.360   8.098
  110POPC   C4B 5050  15.584  13.463   7.672
  111POPC   NC3 5051  24.590  12.451   9.494
  111POPC   PO4 5052  24.603  13.063   9.521
  111POPC   GL1 5053  24.448  12.861   9.160
  111POPC   GL2 5054  24.188  12.651   9.169
  111POPC   C1A 5055  24.603  12.729   8.753
  111POPC   D2A 5056  24.851  12.705   8.395
  111POPC   C3A 5057  24.710  12.640   7.983
  111POPC   C4A 5058  24.502  12.853   7.679
  111POPC   C1B 5059  24.133  12.534   8.756
  111POPC   C2B 5060  24.290  12.631   8.322
  111POPC   C3B 5061  24.226  12.465   7.892
  111POPC   C4B 5062  24.170  12.545   7.416
  112POPC   NC3 5063  27.410  35.745   9.972
  112POPC   PO4 5064  27.824  35.469   9.464
  112POPC   GL1 5065  27.735  35.439   9.072
  112POPC   GL2 5066  27.396  35.305   9.044
  112POPC   C1A 5067  27.646  35.556   8.680
  112POPC   D2A 5068  27.568  35.325   8.359
  112POPC   C3A 5069  27.531  35.637   8.092
  112POPC   C4A 5070  27.568  35.487   7.706
  112POPC   C1B 5071  27.215  35.054   8.681
  112POPC   C2B 5072  27.311  34.855   8.266
  112POPC   C3B 5073  27.403  35.008   7.852
  112POPC   C4B 5074  27.269  35.144   7.437
  113POPC   NC3 5075  34.389  13.522   9.590
  113POPC   PO4 5076  35.015  13.343   9.604
  113POPC   GL1 5077  34.800  13.589   9.251
  113POPC   GL2 5078  34.522  13.556   9.098
  113POPC   C1A 5079  34.879  13.875   8.877
  113POPC   D2A 5080  35.063  14.024   8.461
  113POPC   C3A 5081  34.903  13.815   8.103
  113POPC   C4A 5082  35.006  13.653   7.692
  113POPC   C1B 5083  34.262  13.749   8.802
  113POPC   C2B 5084  34.105  13.673   8.410
  113POPC   C3B 5085  34.256  13.939   8.094
  113POPC   C4B 5086  34.513  13.805   7.755
  114POPC   NC3 5087  21.594   2.963   9.500
  114POPC   PO4 5088  21.197   2.438   9.521
  114POPC   GL1 5089  21.283   2.727   9.134
  114POPC   GL2 5090  21.658   2.777   9.036
  114POPC   C1A 5091  21.317   2.667   8.680
  114POPC   D2A 5092  21.157   2.472   8.331
  114POPC   C3A 5093  21.461   2.580   8.030
  114POPC   C4A 5094  21.296   2.719   7.643
  114POPC   C1B 5095  21.625   3.073   8.693
  114POPC   C2B 5096  21.634   3.017   8.263
  114POPC   C3B 5097  21.533   3.107   7.857
  114POPC   C4B 5098  21.518   3.090   7.381
  115POPC   NC3 5099  35.716  20.739   9.245
  115POPC   PO4 5100  35.025  20.440   9.296
  115POPC   GL1 5101  35.278  20.616   9.034
  115POPC   GL2 5102  35.618  20.407   8.892
  115POPC   C1A 5103  35.277  20.828   8.683
  115POPC   D2A 5104  35.619  20.719   8.468
  115POPC   C3A 5105  35.539  20.588   8.057
  115POPC   C4A 5106  35.185  20.725   7.795
  115POPC   C1B 5107  35.300  20.294   8.634
  115POPC   C2B 5108  35.159  20.116   8.291
  115POPC   C3B 5109  35.113  20.245   7.912
  115POPC   C4B 5110  35.446  20.305   7.646
  116POPC   NC3 5111  27.942  19.787   9.581
  116POPC   PO4 5112  27.339  19.961   9.226
  116POPC   GL1 5113  27.749  19.865   9.096
  116POPC   GL2 5114  27.922  20.197   9.137
  116POPC   C1A 5115  27.757  19.623   8.706
  116POPC   D2A 5116  27.494  19.538   8.318
  116POPC   C3A 5117  27.647  19.370   7.919
  116POPC   C4A 5118  27.725  19.510   7.477
  116POPC   C1B 5119  27.910  20.137   8.661
  116POPC   C2B 5120  27.954  19.849   8.293
  116POPC   C3B 5121  27.994  19.757   7.841
  116POPC   C4B 5122  27.928  19.956   7.397
  117POPC   NC3 5123  29.834  23.797   9.571
  117POPC   PO4 5124  30.327  23.434   9.381
  117POPC   GL1 5125  30.083  23.736   9.143
  117POPC   GL2 5126  30.287  23.939   9.009
  117POPC   C1A 5127  29.757  23.765   8.805
  117POPC   D2A 5128  29.686  23.495   8.412
  117POPC   C3A 5129  29.566  23.731   8.054
  117POPC   C4A 5130  29.875  23.703   7.778
  117POPC   C1B 5131  30.227  23.606   8.669
  117POPC   C2B 5132  30.137  23.651   8.232
  117POPC   C3B 5133  30.350  23.784   7.878
  117POPC   C4B 5134  30.256  23.767   7.447
  118POPC   NC3 5135   9.274  27.954   9.360
  118POPC   PO4 5136   8.667  27.576   9.462
  118POPC   GL1 5137   8.893  27.404   9.123
  118POPC   GL2 5138   9.260  27.421   9.196
  118POPC   C1A 5139   8.745  27.384   8.695
  118POPC   D2A 5140   8.689  27.182   8.310
  118POPC   C3A 5141   8.707  27.460   7.984
  118POPC   C4A 5142   8.935  27.519   7.630
  118POPC   C1B 5143   9.249  27.632   8.783
  118POPC   C2B 5144   9.052  27.660   8.395
  118POPC   C3B 5145   9.325  27.644   8.089
  118POPC   C4B 5146   9.420  27.637   7.706
  119POPC   NC3 5147  18.557  31.707   9.873
  119POPC   PO4 5148  18.388  31.344   9.307
  119POPC   GL1 5149  18.231  31.471   8.970
  119POPC   GL2 5150  18.255  31.139   8.861
  119POPC   C1A 5151  18.181  31.533   8.576
  119POPC   D2A 5152  18.349  31.480   8.272
  119POPC   C3A 5153  18.029  31.453   7.999
  119POPC   C4A 5154  18.087  31.265   7.637
  119POPC   C1B 5155  18.562  31.096   8.606
  119POPC   C2B 5156  18.753  31.157   8.280
  119POPC   C3B 5157  18.518  31.144   7.933
  119POPC   C4B 5158  18.519  30.998   7.520
  120POPC   NC3 5159   7.020  14.197   9.431
  120POPC   PO4 5160   6.347  14.066   9.484
  120POPC   GL1 5161   6.572  14.190   9.140
  120POPC   GL2 5162   6.699  14.526   9.147
  120POPC   C1A 5163   6.616  14.240   8.699
  120POPC   D2A 5164   6.620  14.519   8.325
  120POPC   C3A 5165   6.606  14.323   7.930
  120POPC   C4A 5166   6.295  14.057   7.735
  120POPC   C1B 5167   6.957  14.629   8.782
  120POPC   C2B 5168   7.122  14.457   8.390
  120POPC   C3B 5169   7.086  14.573   7.962
  120POPC   C4B 5170   7.183  14.427   7.538
  121POPC   NC3 5171  15.266  37.830   9.582
  121POPC   PO4 5172  15.673  37.243   9.578
  121POPC   GL1 5173  15.366  37.495   9.233
  121POPC   GL2 5174  15.002  37.585   9.201
  121POPC   C1A 5175  15.306  37.806   8.860
  121POPC   D2A 5176  15.317  37.716   8.429
  121POPC   C3A 5177  15.361  37.949   8.046
  121POPC   C4A 5178  15.223  37.631   7.758
  121POPC   C1B 5179  14.708  37.522   8.865
  121POPC   C2B 5180  14.707  37.386   8.428
  121POPC   C3B 5181  14.540  37.436   8.004
  121POPC   C4B 5182  14.708  37.614   7.643
  122POPC   NC3 5183  38.455   4.790   9.539
  122POPC   PO4 5184  38.526   4.098   9.540
  122POPC   GL1 5185  38.612   4.289   9.163
  122POPC   GL2 5186  38.330   4.479   9.132
  122POPC   C1A 5187  38.438   4.162   8.755
  122POPC   D2A 5188  38.183   4.175   8.429
  122POPC   C3A 5189  38.419   3.977   8.118
  122POPC   C4A 5190  38.380   3.981   7.695
  122POPC   C1B 5191  38.353   4.653   8.690
  122POPC   C2B 5192  38.172   4.705   8.294
  122POPC   C3B 5193  38.182   4.411   7.954
  122POPC   C4B 5194  38.320   4.469   7.538
  123POPC   NC3 5195  28.016   3.796   9.417
  123POPC   PO4 5196  28.386   3.262   9.699
  123POPC   GL1 5197  28.367   3.457   9.301
  123POPC   GL2 5198  28.076   3.311   9.250
  123POPC   C1A 5199  28.409   3.632   8.858
  123POPC   D2A 5200  28.288   3.927   8.489
  123POPC   C3A 5201  28.439   3.798   8.079
  123POPC   C4A 5202  28.260   3.623   7.717
  123POPC   C1B 5203  28.060   3.252   8.839
  123POPC   C2B 5204  28.169   3.410   8.433
  123POPC   C3B 5205  28.223   3.222   8.041
  123POPC   C4B 5206  27.915   3.218   7.727
  124POPC   NC3 5207  16.889  17.393   9.532
  124POPC   PO4 5208  16.326  17.590   9.307
  124POPC   GL1 5209  16.666  17.514   9.079
  124POPC   GL2 5210  16.905  17.766   9.179
  124POPC   C1A 5211  16.598  17.409   8.669
  124POPC   D2A 5212  16.332  17.383   8.334
  124POPC   C3A 5213  16.608  17.350   8.009
  124POPC   C4A 5214  16.541  17.123   7.617
  124POPC   C1B 5215  17.092  17.586   8.761
  124POPC   C2B 5216  17.039  17.299   8.399
  124POPC   C3B 5217  17.127  17.392   7.970
  124POPC   C4B 5218  16.911  17.475   7.596
  125POPC   NC3 5219   3.724   6.369   9.651
  125POPC   PO4 5220   3.331   6.927   9.531
  125POPC   GL1 5221   3.410   6.576   9.275
  125POPC   GL2 5222   3.762   6.581   9.192
  125POPC   C1A 5223   3.390   6.547   8.823
  125POPC   D2A 5224   3.523   6.808   8.471
  125POPC   C3A 5225   3.447   6.599   8.111
  125POPC   C4A 5226   3.474   6.659   7.667
  125POPC   C1B 5227   3.918   6.744   8.822
  125POPC   C2B 5228   3.974   6.594   8.408
  125POPC   C3B 5229   3.928   6.764   7.991
  125POPC   C4B 5230   3.953   6.499   7.646
  126POPC   NC3 5231  29.738  13.943   9.556
  126POPC   PO4 5232  30.188  13.489   9.546
  126POPC   GL1 5233  30.020  13.687   9.214
  126POPC   GL2 5234  29.770  13.427   9.229
  126POPC   C1A 5235  29.893  13.722   8.802
  126POPC   D2A 5236  30.039  13.721   8.390
  126POPC   C3A 5237  29.801  13.818   8.012
  126POPC   C4A 5238  29.787  14.163   7.682
  126POPC   C1B 5239  30.053  13.238   8.913
  126POPC   C2B 5240  30.019  13.212   8.458
  126POPC   C3B 5241  30.069  13.354   8.023
  126POPC   C4B 5242  30.121  13.308   7.573
  127POPC   NC3 5243  40.201  41.605   9.439
  127POPC   PO4 5244  39.475  41.635   9.518
  127POPC   GL1 5245  39.722  41.616   9.123
  127POPC   GL2 5246  40.080  41.714   8.959
  127POPC   C1A 5247  39.675  41.549   8.680
  127POPC   D2A 5248  39.980  41.716   8.376
  127POPC   C3A 5249  40.059  41.505   7.997
  127POPC   C4A 5250  39.701  41.470   7.762
  127POPC   C1B 5251  40.392  41.887   8.632
  127POPC   C2B 5252  40.476  41.909   8.161
  127POPC   C3B 5253  40.378  41.803   7.736
  127POPC   C4B 5254  40.365  41.437   7.431
  128POPC   NC3 5255  17.372  43.784   9.614
  128POPC   PO4 5256  17.935  44.025   9.745
  128POPC   GL1 5257  17.748  43.898   9.268
  128POPC   GL2 5258  17.412  43.738   9.124
  128POPC   C1A 5259  17.690  43.943   8.776
  128POPC   D2A 5260  17.606  43.711   8.381
  128POPC   C3A 5261  17.451  43.954   8.024
  128POPC   C4A 5262  17.158  43.948   7.691
  128POPC   C1B 5263  17.197  43.649   8.721
  128POPC   C2B 5264  17.081  43.695   8.273
  128POPC   C3B 5265  17.244  43.488   7.890
  128POPC   C4B 5266  17.350  43.524   7.453
  129POPC   NC3 5267   6.639  30.492   9.461
  129POPC   PO4 5268   7.040  31.049   9.514
  129POPC   GL1 5269   6.876  30.855   9.152
  129POPC   GL2 5270   6.538  30.854   9.052
  129POPC   C1A 5271   6.909  30.674   8.752
  129POPC   D2A 5272   6.871  30.371   8.429
  129POPC   C3A 5273   6.806  30.599   8.073
  129POPC   C4A 5274   6.816  30.802   7.676
  129POPC   C1B 5275   6.492  30.427   8.838
  129POPC   C2B 5276   6.349  30.345   8.456
  129POPC   C3B 5277   6.320  30.408   8.058
  129POPC   C4B 5278   6.262  30.549   7.666
  130POPC   NC3 5279   8.085  24.775   9.647
  130POPC   PO4 5280   8.286  24.075   9.426
  130POPC   GL1 5281   8.052  24.292   9.163
  130POPC   GL2 5282   8.248  24.570   9.231
  130POPC   C1A 5283   8.012  24.279   8.723
  130POPC   D2A 5284   7.924  24.392   8.296
  130POPC   C3A 5285   8.119  24.093   8.028
  130POPC   C4A 5286   8.261  24.143   7.597
  130POPC   C1B 5287   8.012  24.773   8.923
  130POPC   C2B 5288   8.044  24.875   8.482
  130POPC   C3B 5289   8.171  24.781   8.062
  130POPC   C4B 5290   8.263  24.741   7.628
  131POPC   NC3 5291   7.026   8.583   9.726
  131POPC   PO4 5292   6.526   9.030   9.597
  131POPC   GL1 5293   6.715   9.285   9.264
  131POPC   GL2 5294   6.389   9.205   9.131
  131POPC   C1A 5295   6.955   9.242   8.854
  131POPC   D2A 5296   6.754   8.896   8.607
  131POPC   C3A 5297   6.766   8.851   8.171
  131POPC   C4A 5298   6.714   8.651   7.796
  131POPC   C1B 5299   6.484   9.373   8.747
  131POPC   C2B 5300   6.715   9.419   8.400
  131POPC   C3B 5301   6.559   9.370   7.999
  131POPC   C4B 5302   6.600   9.126   7.656
  132POPC   NC3 5303  29.011  21.742   9.515
  132POPC   PO4 5304  29.450  22.270   9.514
  132POPC   GL1 5305  29.309  22.078   9.156
  132POPC   GL2 5306  28.974  22.059   9.106
  132POPC   C1A 5307  29.318  22.279   8.754
  132POPC   D2A 5308  29.040  22.268   8.412
  132POPC   C3A 5309  29.236  22.349   8.034
  132POPC   C4A 5310  29.306  22.098   7.677
  132POPC   C1B 5311  29.133  21.793   8.754
  132POPC   C2B 5312  28.999  21.753   8.327
  132POPC   C3B 5313  28.863  22.001   7.968
  132POPC   C4B 5314  28.922  21.810   7.575
  133POPC   NC3 5315  39.469  16.778   9.720
  133POPC   PO4 5316  38.844  16.846   9.642
  133POPC   GL1 5317  39.040  16.984   9.204
  133POPC   GL2 5318  39.428  17.069   9.225
  133POPC   C1A 5319  38.845  16.865   8.762
  133POPC   D2A 5320  38.742  16.950   8.290
  133POPC   C3A 5321  38.980  16.763   7.934
  133POPC   C4A 5322  38.906  16.706   7.468
  133POPC   C1B 5323  39.366  16.826   8.803
  133POPC   C2B 5324  39.389  16.757   8.318
  133POPC   C3B 5325  39.492  16.885   7.893
  133POPC   C4B 5326  39.384  16.855   7.457
  134POPC   NC3 5327   7.341  20.318   9.566
  134POPC   PO4 5328   7.679  19.733   9.541
  134POPC   GL1 5329   7.562  19.934   9.201
  134POPC   GL2 5330   7.284  19.696   9.118
  134POPC   C1A 5331   7.501  20.084   8.797
  134POPC   D2A 5332   7.367  19.878   8.421
  134POPC   C3A 5333   7.588  19.898   8.020
  134POPC   C4A 5334   7.283  20.030   7.730
  134POPC   C1B 5335   7.567  19.492   8.819
  134POPC   C2B 5336   7.616  19.435   8.377
  134POPC   C3B 5337   7.296  19.473   8.048
  134POPC   C4B 5338   7.356  19.561   7.628
  135POPC   NC3 5339  25.012  25.763   9.458
  135POPC   PO4 5340  25.309  26.485   9.518
  135POPC   GL1 5341  25.155  26.187   9.192
  135POPC   GL2 5342  25.328  25.911   9.037
  135POPC   C1A 5343  24.917  26.091   8.838
  135POPC   D2A 5344  25.124  25.814   8.544
  135POPC   C3A 5345  25.057  25.798   8.104
  135POPC   C4A 5346  25.178  26.031   7.760
  135POPC   C1B 5347  25.368  26.246   8.652
  135POPC   C2B 5348  25.497  26.044   8.211
  135POPC   C3B 5349  25.601  25.787   7.824
  135POPC   C4B 5350  25.506  25.818   7.370
  136POPC   NC3 5351   4.706   6.718   9.616
  136POPC   PO4 5352   4.036   6.709   9.615
  136POPC   GL1 5353   4.315   6.697   9.269
  136POPC   GL2 5354   4.459   6.368   9.293
  136POPC   C1A 5355   4.476   6.850   8.866
  136POPC   D2A 5356   4.315   6.978   8.462
  136POPC   C3A 5357   4.516   6.920   8.071
  136POPC   C4A 5358   4.364   6.782   7.687
  136POPC   C1B 5359   4.261   6.358   8.899
  136POPC   C2B 5360   4.340   6.242   8.484
  136POPC   C3B 5361   4.309   6.416   8.058
  136POPC   C4B 5362   4.394   6.254   7.647
  137POPC   NC3 5363  12.829  20.842   9.651
  137POPC   PO4 5364  12.937  21.517   9.666
  137POPC   GL1 5365  13.106  21.420   9.300
  137POPC   GL2 5366  12.759  21.295   9.209
  137POPC   C1A 5367  13.106  21.468   8.841
  137POPC   D2A 5368  13.310  21.403   8.440
  137POPC   C3A 5369  13.150  21.513   8.059
  137POPC   C4A 5370  13.012  21.441   7.648
  137POPC   C1B 5371  12.593  21.236   8.797
  137POPC   C2B 5372  12.813  21.275   8.401
  137POPC   C3B 5373  12.907  21.063   7.998
  137POPC   C4B 5374  12.577  21.075   7.680
  138POPC   NC3 5375  44.892  42.873   9.528
  138POPC   PO4 5376  44.567  43.470   9.338
  138POPC   GL1 5377  44.672  43.203   9.044
  138POPC   GL2 5378  44.628  42.824   9.087
  138POPC   C1A 5379  44.425  43.102   8.672
  138POPC   D2A 5380  44.301  43.038   8.250
  138POPC   C3A 5381  44.513  43.225   7.893
  138POPC   C4A 5382  44.452  43.118   7.472
  138POPC   C1B 5383  44.914  42.902   8.727
  138POPC   C2B 5384  44.820  43.108   8.337
  138POPC   C3B 5385   0.028  43.095   7.968
  138POPC   C4B 5386  44.932  43.000   7.565
  139POPC   NC3 5387  28.743  36.595   9.525
  139POPC   PO4 5388  28.135  36.993   9.645
  139POPC   GL1 5389  28.404  36.894   9.281
  139POPC   GL2 5390  28.277  36.611   9.175
  139POPC   C1A 5391  28.621  36.871   8.853
  139POPC   D2A 5392  28.464  37.072   8.455
  139POPC   C3A 5393  28.579  36.909   8.033
  139POPC   C4A 5394  28.448  36.866   7.589
  139POPC   C1B 5395  28.105  36.849   8.760
  139POPC   C2B 5396  28.063  36.793   8.265
  139POPC   C3B 5397  28.055  36.642   7.808
  139POPC   C4B 5398  28.045  36.701   7.330
  140POPC   NC3 5399  43.147  42.793   9.690
  140POPC   PO4 5400  43.009  43.439   9.673
  140POPC   GL1 5401  43.179  43.203   9.291
  140POPC   GL2 5402  42.960  42.902   9.196
  140POPC   C1A 5403  43.276  43.082   8.833
  140POPC   D2A 5404  42.982  43.011   8.481
  140POPC   C3A 5405  43.160  43.059   8.062
  140POPC   C4A 5406  43.060  42.955   7.636
  140POPC   C1B 5407  42.827  43.310   8.938
  140POPC   C2B 5408  42.595  43.357   8.552
  140POPC   C3B 5409  42.764  43.368   8.155
  140POPC   C4B 5410  42.713  43.328   7.748
  141POPC   NC3 5411   3.493  27.520   9.486
  141POPC   PO4 5412   3.457  28.103   9.230
  141POPC   GL1 5413   3.574  27.741   9.041
  141POPC   GL2 5414   3.262  27.544   9.028
  141POPC   C1A 5415   3.767  27.399   8.870
  141POPC   D2A 5416   3.782  27.617   8.514
  141POPC   C3A 5417   3.470  27.610   8.234
  141POPC   C4A 5418   3.633  27.612   7.838
  141POPC   C1B 5419   3.318  27.303   8.667
  141POPC   C2B 5420   3.572  27.125   8.374
  141POPC   C3B 5421   3.708  27.118   7.966
  141POPC   C4B 5422   3.648  27.203   7.534
  142POPC   NC3 5423  30.128  22.903   9.444
  142POPC   PO4 5424  29.459  23.163   9.528
  142POPC   GL1 5425  29.665  23.004   9.194
  142POPC   GL2 5426  29.919  23.255   9.107
  142POPC   C1A 5427  29.793  22.871   8.788
  142POPC   D2A 5428  29.658  22.981   8.385
  142POPC   C3A 5429  29.875  22.713   8.127
  142POPC   C4A 5430  29.952  22.823   7.719
  142POPC   C1B 5431  30.263  23.102   8.824
  142POPC   C2B 5432  30.237  22.930   8.446
  142POPC   C3B 5433  30.116  23.165   8.107
  142POPC   C4B 5434  30.157  23.292   7.672
  143POPC   NC3 5435  43.540  44.069   9.331
  143POPC   PO4 5436  43.994  43.600   9.615
  143POPC   GL1 5437  44.038  43.800   9.187
  143POPC   GL2 5438  44.084  44.158   9.246
  143POPC   C1A 5439  43.817  43.887   8.763
  143POPC   D2A 5440  43.656  43.742   8.346
  143POPC   C3A 5441  43.696  43.834   7.876
  143POPC   C4A 5442  43.929  43.629   7.525
  143POPC   C1B 5443  44.254  44.139   8.810
  143POPC   C2B 5444  44.166  43.937   8.382
  143POPC   C3B 5445  44.244  43.889   7.937
  143POPC   C4B 5446  44.388  44.314   7.827
  144POPC   NC3 5447  14.415  36.573   9.627
  144POPC   PO4 5448  14.069  37.093   9.618
  144POPC   GL1 5449  14.258  36.957   9.215
  144POPC   GL2 5450  13.969  36.877   9.030
  144POPC   C1A 5451  14.571  37.033   8.864
  144POPC   D2A 5452  14.763  36.866   8.478
  144POPC   C3A 5453  14.654  36.944   8.044
  144POPC   C4A 5454  14.783  36.729   7.671
  144POPC   C1B 5455  13.882  36.866   8.573
  144POPC   C2B 5456  14.102  36.656   8.222
  144POPC   C3B 5457  14.284  36.663   7.795
  144POPC   C4B 5458  14.073  36.874   7.432
  145POPC   NC3 5459  28.558  17.287   9.805
  145POPC   PO4 5460  28.163  17.791   9.575
  145POPC   GL1 5461  28.226  17.485   9.238
  145POPC   GL2 5462  28.502  17.632   9.184
  145POPC   C1A 5463  28.317  17.286   8.847
  145POPC   D2A 5464  28.445  17.396   8.449
  145POPC   C3A 5465  28.314  17.276   8.091
  145POPC   C4A 5466  28.528  17.278   7.724
  145POPC   C1B 5467  28.477  17.786   8.796
  145POPC   C2B 5468  28.300  17.901   8.433
  145POPC   C3B 5469  28.469  17.788   8.038
  145POPC   C4B 5470  28.414  17.893   7.641
  146POPC   NC3 5471   4.075  14.723   9.502
  146POPC   PO4 5472   4.524  14.287   9.597
  146POPC   GL1 5473   4.320  14.352   9.208
  146POPC   GL2 5474   4.629  14.552   9.148
  146POPC   C1A 5475   4.281  14.477   8.756
  146POPC   D2A 5476   4.237  14.332   8.318
  146POPC   C3A 5477   4.086  14.676   8.044
  146POPC   C4A 5478   3.972  14.665   7.605
  146POPC   C1B 5479   4.679  14.185   8.874
  146POPC   C2B 5480   4.738  14.381   8.462
  146POPC   C3B 5481   4.640  14.507   8.031
  146POPC   C4B 5482   4.328  14.301   7.791
  147POPC   NC3 5483  43.215  31.350   9.648
  147POPC   PO4 5484  43.021  31.910   9.396
  147POPC   GL1 5485  43.169  31.600   9.166
  147POPC   GL2 5486  42.911  31.374   9.185
  147POPC   C1A 5487  43.071  31.617   8.748
  147POPC   D2A 5488  43.218  31.483   8.365
  147POPC   C3A 5489  43.060  31.690   8.021
  147POPC   C4A 5490  43.164  31.622   7.608
  147POPC   C1B 5491  42.867  31.113   8.799
  147POPC   C2B 5492  42.739  31.014   8.349
  147POPC   C3B 5493  42.892  31.197   7.950
  147POPC   C4B 5494  42.939  31.185   7.479
  148POPC   NC3 5495   3.866  17.005   9.391
  148POPC   PO4 5496   3.474  16.503   9.624
  148POPC   GL1 5497   3.315  16.528   9.211
  148POPC   GL2 5498   3.618  16.662   9.082
  148POPC   C1A 5499   3.174  16.663   8.797
  148POPC   D2A 5500   3.402  16.777   8.426
  148POPC   C3A 5501   3.194  16.832   8.033
  148POPC   C4A 5502   3.243  16.899   7.602
  148POPC   C1B 5503   3.823  16.362   8.802
  148POPC   C2B 5504   3.958  16.515   8.388
  148POPC   C3B 5505   3.856  16.846   8.169
  148POPC   C4B 5506   3.697  16.874   7.801
  149POPC   NC3 5507  44.869  23.963   9.377
  149POPC   PO4 5508  44.334  23.599   9.528
  149POPC   GL1 5509  44.408  23.758   9.154
  149POPC   GL2 5510  44.698  23.556   9.117
  149POPC   C1A 5511  44.534  23.869   8.743
  149POPC   D2A 5512  44.555  23.646   8.370
  149POPC   C3A 5513  44.634  23.917   8.029
  149POPC   C4A 5514  44.805  23.784   7.650
  149POPC   C1B 5515  44.847  23.236   8.860
  149POPC   C2B 5516  44.826  23.205   8.415
  149POPC   C3B 5517  44.873  23.443   8.030
  149POPC   C4B 5518   0.066  23.312   7.677
  150POPC   NC3 5519  17.865  17.185   9.596
  150POPC   PO4 5520  17.727  16.590   9.591
  150POPC   GL1 5521  17.751  16.623   9.190
  150POPC   GL2 5522  17.607  16.946   9.185
  150POPC   C1A 5523  17.623  16.552   8.780
  150POPC   D2A 5524  17.441  16.330   8.458
  150POPC   C3A 5525  17.663  16.428   8.095
  150POPC   C4A 5526  17.681  16.722   7.810
  150POPC   C1B 5527  17.879  17.010   8.823
  150POPC   C2B 5528  17.749  16.882   8.394
  150POPC   C3B 5529  17.349  16.925   8.173
  150POPC   C4B 5530  17.270  16.981   7.701
  151POPC   NC3 5531  34.106   2.249   9.501
  151POPC   PO4 5532  33.762   1.629   9.575
  151POPC   GL1 5533  33.933   1.848   9.218
  151POPC   GL2 5534  33.719   2.117   9.109
  151POPC   C1A 5535  33.871   1.802   8.765
  151POPC   D2A 5536  33.747   2.005   8.385
  151POPC   C3A 5537  33.958   1.799   8.036
  151POPC   C4A 5538  34.193   2.072   7.803
  151POPC   C1B 5539  33.483   2.325   8.774
  151POPC   C2B 5540  33.614   2.514   8.350
  151POPC   C3B 5541  33.722   2.287   7.950
  151POPC   C4B 5542  33.649   1.975   7.639
  152POPC   NC3 5543  26.478  21.027   9.493
  152POPC   PO4 5544  26.213  20.442   9.745
  152POPC   GL1 5545  25.980  20.709   9.359
  152POPC   GL2 5546  26.194  20.917   9.115
  152POPC   C1A 5547  25.919  20.612   8.851
  152POPC   D2A 5548  26.157  20.693   8.415
  152POPC   C3A 5549  25.958  20.467   8.041
  152POPC   C4A 5550  26.006  20.207   7.675
  152POPC   C1B 5551  26.063  21.110   8.745
  152POPC   C2B 5552  25.921  21.133   8.314
  152POPC   C3B 5553  25.951  20.950   7.896
  152POPC   C4B 5554  26.093  20.673   7.554
  153POPC   NC3 5555  37.233   4.189   9.431
  153POPC   PO4 5556  36.679   4.412   9.835
  153POPC   GL1 5557  36.753   4.294   9.382
  153POPC   GL2 5558  36.777   3.917   9.314
  153POPC   C1A 5559  36.801   4.264   8.913
  153POPC   D2A 5560  37.095   4.297   8.544
  153POPC   C3A 5561  36.853   4.322   8.163
  153POPC   C4A 5562  37.006   4.431   7.774
  153POPC   C1B 5563  36.633   3.750   8.904
  153POPC   C2B 5564  36.705   3.926   8.470
  153POPC   C3B 5565  36.508   3.946   8.041
  153POPC   C4B 5566  36.590   4.070   7.602
  154POPC   NC3 5567  17.093   3.232   9.526
  154POPC   PO4 5568  16.668   3.831   9.505
  154POPC   GL1 5569  16.746   3.492   9.249
  154POPC   GL2 5570  16.501   3.243   9.194
  154POPC   C1A 5571  16.866   3.423   8.846
  154POPC   D2A 5572  16.972   3.318   8.418
  154POPC   C3A 5573  16.885   3.585   8.099
  154POPC   C4A 5574  16.780   3.581   7.650
  154POPC   C1B 5575  16.460   3.126   8.765
  154POPC   C2B 5576  16.311   3.175   8.353
  154POPC   C3B 5577  16.438   3.346   8.044
  154POPC   C4B 5578  16.438   3.210   7.693
  155POPC   NC3 5579  23.463  22.554   9.538
  155POPC   PO4 5580  23.822  22.073   9.520
  155POPC   GL1 5581  23.573  22.042   9.161
  155POPC   GL2 5582  23.587  22.364   9.069
  155POPC   C1A 5583  23.645  21.949   8.710
  155POPC   D2A 5584  23.970  21.933   8.340
  155POPC   C3A 5585  23.831  21.956   7.920
  155POPC   C4A 5586  23.438  21.863   7.836
  155POPC   C1B 5587  23.543  22.438   8.639
  155POPC   C2B 5588  23.542  22.238   8.236
  155POPC   C3B 5589  23.449  22.369   7.801
  155POPC   C4B 5590  23.392  22.320   7.355
  156POPC   NC3 5591  34.853  28.210   9.340
  156POPC   PO4 5592  34.243  27.982   9.439
  156POPC   GL1 5593  34.387  28.252   9.127
  156POPC   GL2 5594  34.460  28.580   9.231
  156POPC   C1A 5595  34.586  28.329   8.743
  156POPC   D2A 5596  34.473  28.156   8.357
  156POPC   C3A 5597  34.602  28.367   8.032
  156POPC   C4A 5598  34.602  28.259   7.601
  156POPC   C1B 5599  34.263  28.742   8.842
  156POPC   C2B 5600  34.377  28.689   8.407
  156POPC   C3B 5601  34.411  28.839   7.972
  156POPC   C4B 5602  34.347  28.711   7.548
  157POPC   NC3 5603  12.246  41.050   9.433
  157POPC   PO4 5604  11.912  40.562   9.772
  157POPC   GL1 5605  11.985  40.595   9.319
  157POPC   GL2 5606  11.769  40.335   9.168
  157POPC   C1A 5607  12.161  40.685   8.887
  157POPC   D2A 5608  12.219  40.425   8.521
  157POPC   C3A 5609  12.297  40.582   8.088
  157POPC   C4A 5610  12.273  40.892   7.770
  157POPC   C1B 5611  11.651  40.603   8.819
  157POPC   C2B 5612  11.785  40.866   8.494
  157POPC   C3B 5613  11.704  40.787   8.068
  157POPC   C4B 5614  11.898  40.517   7.784
  158POPC   NC3 5615  34.104  10.752   9.489
  158POPC   PO4 5616  34.728  10.347   9.631
  158POPC   GL1 5617  34.537  10.501   9.248
  158POPC   GL2 5618  34.460  10.816   9.144
  158POPC   C1A 5619  34.431  10.345   8.823
  158POPC   D2A 5620  34.307  10.294   8.410
  158POPC   C3A 5621  34.447  10.488   8.048
  158POPC   C4A 5622  34.497  10.331   7.649
  158POPC   C1B 5623  34.168  10.796   8.791
  158POPC   C2B 5624  34.081  10.756   8.347
  158POPC   C3B 5625  34.220  10.975   7.979
  158POPC   C4B 5626  34.538  10.884   7.684
  159POPC   NC3 5627   7.944  29.394   9.498
  159POPC   PO4 5628   8.103  30.098   9.509
  159POPC   GL1 5629   7.953  30.143   9.128
  159POPC   GL2 5630   7.811  29.804   9.153
  159POPC   C1A 5631   8.199  30.124   8.762
  159POPC   D2A 5632   8.238  29.925   8.396
  159POPC   C3A 5633   8.226  30.091   8.012
  159POPC   C4A 5634   7.932  30.191   7.725
  159POPC   C1B 5635   8.003  29.623   8.777
  159POPC   C2B 5636   8.371  29.458   8.525
  159POPC   C3B 5637   8.427  29.577   8.088
  159POPC   C4B 5638   8.025  29.579   7.855
  160POPC   NC3 5639  37.473  32.278   9.503
  160POPC   PO4 5640  37.837  31.805   9.784
  160POPC   GL1 5641  37.861  32.076   9.277
  160POPC   GL2 5642  37.492  32.120   9.037
  160POPC   C1A 5643  37.850  32.440   8.942
  160POPC   D2A 5644  37.597  32.533   8.575
  160POPC   C3A 5645  37.662  32.311   8.178
  160POPC   C4A 5646  37.537  32.409   7.745
  160POPC   C1B 5647  37.593  32.019   8.642
  160POPC   C2B 5648  37.391  31.795   8.334
  160POPC   C3B 5649  37.267  31.992   7.979
  160POPC   C4B 5650  37.361  31.971   7.582
  161POPC   NC3 5651  18.039  15.521   9.238
  161POPC   PO4 5652  18.283  14.999   9.620
  161POPC   GL1 5653  18.353  14.993   9.174
  161POPC   GL2 5654  18.517  15.279   9.177
  161POPC   C1A 5655  18.204  15.127   8.732
  161POPC   D2A 5656  18.055  15.136   8.331
  161POPC   C3A 5657  18.288  14.965   8.063
  161POPC   C4A 5658  18.108  14.898   7.710
  161POPC   C1B 5659  18.704  15.058   8.816
  161POPC   C2B 5660  18.640  15.207   8.423
  161POPC   C3B 5661  18.503  15.424   8.096
  161POPC   C4B 5662  18.426  15.285   7.681
  162POPC   NC3 5663  21.175  31.992   9.370
  162POPC   PO4 5664  20.581  32.370   9.410
  162POPC   GL1 5665  20.684  32.070   9.108
  162POPC   GL2 5666  20.357  32.022   8.907
  162POPC   C1A 5667  20.864  31.931   8.751
  162POPC   D2A 5668  20.657  31.812   8.402
  162POPC   C3A 5669  20.791  32.013   8.063
  162POPC   C4A 5670  20.907  32.441   7.935
  162POPC   C1B 5671  20.524  32.421   8.755
  162POPC   C2B 5672  20.633  32.564   8.362
  162POPC   C3B 5673  20.414  32.398   7.998
  162POPC   C4B 5674  20.524  32.156   7.644
  163POPC   NC3 5675   6.108  11.058   9.398
  163POPC   PO4 5676   5.713  11.624   9.458
  163POPC   GL1 5677   5.740  11.331   9.156
  163POPC   GL2 5678   6.080  11.482   9.097
  163POPC   C1A 5679   5.811  11.274   8.728
  163POPC   D2A 5680   6.029  11.515   8.432
  163POPC   C3A 5681   5.897  11.365   8.060
  163POPC   C4A 5682   6.060  11.450   7.671
  163POPC   C1B 5683   6.307  11.253   8.760
  163POPC   C2B 5684   6.370  11.084   8.336
  163POPC   C3B 5685   6.283  11.026   7.905
  163POPC   C4B 5686   6.179  11.025   7.436
  164POPC   NC3 5687  31.878  26.356   9.479
  164POPC   PO4 5688  32.549  26.130   9.604
  164POPC   GL1 5689  32.431  26.122   9.189
  164POPC   GL2 5690  32.097  25.944   9.153
  164POPC   C1A 5691  32.480  25.899   8.800
  164POPC   D2A 5692  32.215  25.919   8.432
  164POPC   C3A 5693  32.480  26.061   8.130
  164POPC   C4A 5694  32.451  26.039   7.709
  164POPC   C1B 5695  32.097  26.289   8.819
  164POPC   C2B 5696  32.261  26.464   8.416
  164POPC   C3B 5697  32.130  26.424   7.973
  164POPC   C4B 5698  31.970  26.349   7.550
  165POPC   NC3 5699  21.874   1.108   9.565
  165POPC   PO4 5700  22.564   1.312   9.501
  165POPC   GL1 5701  22.270   1.165   9.195
  165POPC   GL2 5702  21.953   1.331   9.126
  165POPC   C1A 5703  22.396   1.019   8.799
  165POPC   D2A 5704  22.252   1.027   8.410
  165POPC   C3A 5705  22.440   0.884   8.050
  165POPC   C4A 5706  22.217   0.952   7.692
  165POPC   C1B 5707  22.055   1.438   8.731
  165POPC   C2B 5708  22.132   1.519   8.311
  165POPC   C3B 5709  22.050   1.303   8.001
  165POPC   C4B 5710  21.943   1.425   7.604
  166POPC   NC3 5711  23.832   2.336   9.415
  166POPC   PO4 5712  23.335   1.937   9.350
  166POPC   GL1 5713  23.730   1.920   9.081
  166POPC   GL2 5714  23.957   1.608   9.116
  166POPC   C1A 5715  23.760   2.219   8.727
  166POPC   D2A 5716  23.505   2.272   8.355
  166POPC   C3A 5717  23.621   2.034   8.031
  166POPC   C4A 5718  23.431   1.853   7.697
  166POPC   C1B 5719  23.823   1.538   8.704
  166POPC   C2B 5720  23.926   1.672   8.294
  166POPC   C3B 5721  23.849   1.599   7.852
  166POPC   C4B 5722  23.979   1.707   7.418
  167POPC   NC3 5723  24.830  26.635   9.505
  167POPC   PO4 5724  24.197  26.900   9.433
  167POPC   GL1 5725  24.555  26.961   9.180
  167POPC   GL2 5726  24.554  26.646   9.069
  167POPC   C1A 5727  24.776  27.027   8.786
  167POPC   D2A 5728  24.617  26.854   8.391
  167POPC   C3A 5729  24.750  27.016   8.009
  167POPC   C4A 5730  24.675  26.787   7.688
  167POPC   C1B 5731  24.277  26.847   8.780
  167POPC   C2B 5732  24.113  26.761   8.397
  167POPC   C3B 5733  24.255  26.805   8.004
  167POPC   C4B 5734  24.231  27.234   7.921
  168POPC   NC3 5735  34.309  24.344   9.521
  168POPC   PO4 5736  35.007  24.592   9.577
  168POPC   GL1 5737  34.747  24.510   9.215
  168POPC   GL2 5738  34.381  24.531   9.060
  168POPC   C1A 5739  34.833  24.493   8.804
  168POPC   D2A 5740  34.615  24.443   8.444
  168POPC   C3A 5741  34.618  24.750   8.136
  168POPC   C4A 5742  34.796  24.527   7.809
  168POPC   C1B 5743  34.355  24.146   8.805
  168POPC   C2B 5744  34.327  24.021   8.370
  168POPC   C3B 5745  34.338  24.297   8.002
  168POPC   C4B 5746  34.434  24.258   7.574
  169POPC   NC3 5747  38.642  19.570   9.609
  169POPC   PO4 5748  37.973  19.556   9.418
  169POPC   GL1 5749  38.233  19.843   9.201
  169POPC   GL2 5750  38.598  19.964   9.228
  169POPC   C1A 5751  38.309  19.772   8.782
  169POPC   D2A 5752  38.449  19.949   8.417
  169POPC   C3A 5753  38.374  19.698   8.080
  169POPC   C4A 5754  38.205  20.013   7.855
  169POPC   C1B 5755  38.801  19.890   8.803
  169POPC   C2B 5756  38.926  19.796   8.355
  169POPC   C3B 5757  38.754  20.020   7.967
  169POPC   C4B 5758  38.771  20.089   7.398
  170POPC   NC3 5759   9.190  42.539   9.492
  170POPC   PO4 5760   8.846  41.952   9.596
  170POPC   GL1 5761   8.853  42.236   9.238
  170POPC   GL2 5762   9.109  42.030   9.137
  170POPC   C1A 5763   8.994  42.438   8.828
  170POPC   D2A 5764   9.067  42.329   8.391
  170POPC   C3A 5765   8.924  42.552   8.027
  170POPC   C4A 5766   9.090  42.620   7.608
  170POPC   C1B 5767   9.280  42.000   8.764
  170POPC   C2B 5768   9.185  41.839   8.382
  170POPC   C3B 5769   9.281  41.964   8.022
  170POPC   C4B 5770   9.242  41.787   7.680
  171POPC   NC3 5771  24.139  35.626   9.521
  171POPC   PO4 5772  24.582  35.179   9.534
  171POPC   GL1 5773  24.465  35.403   9.151
  171POPC   GL2 5774  24.123  35.406   9.064
  171POPC   C1A 5775  24.448  35.189   8.733
  171POPC   D2A 5776  24.679  35.112   8.357
  171POPC   C3A 5777  24.525  35.036   7.965
  171POPC   C4A 5778  24.753  35.207   7.641
  171POPC   C1B 5779  24.253  35.665   8.723
  171POPC   C2B 5780  24.343  35.513   8.344
  171POPC   C3B 5781  24.510  35.546   7.982
  171POPC   C4B 5782  24.311  35.503   7.586
  172POPC   NC3 5783  37.396  17.259   9.358
  172POPC   PO4 5784  37.798  17.828   9.418
  172POPC   GL1 5785  37.734  17.525   9.040
  172POPC   GL2 5786  37.821  17.160   9.049
  172POPC   C1A 5787  37.947  17.435   8.633
  172POPC   D2A 5788  37.956  17.730   8.290
  172POPC   C3A 5789  37.930  17.727   7.835
  172POPC   C4A 5790  37.493  17.836   7.683
  172POPC   C1B 5791  37.512  17.150   8.711
  172POPC   C2B 5792  37.533  17.309   8.259
  172POPC   C3B 5793  37.587  17.329   7.784
  172POPC   C4B 5794  37.438  17.242   7.364
  173POPC   NC3 5795  22.954  26.222   9.661
  173POPC   PO4 5796  23.122  25.602   9.504
  173POPC   GL1 5797  22.912  25.919   9.237
  173POPC   GL2 5798  23.190  26.115   9.159
  173POPC   C1A 5799  22.783  26.166   8.836
  173POPC   D2A 5800  22.671  26.290   8.399
  173POPC   C3A 5801  22.841  26.086   8.043
  173POPC   C4A 5802  22.705  25.817   7.672
  173POPC   C1B 5803  23.135  25.796   8.795
  173POPC   C2B 5804  23.177  25.909   8.372
  173POPC   C3B 5805  23.152  25.704   7.950
  173POPC   C4B 5806  23.285  25.867   7.578
  174POPC   NC3 5807  35.043   9.948   9.537
  174POPC   PO4 5808  35.639   9.547   9.469
  174POPC   GL1 5809  35.413   9.755   9.181
  174POPC   GL2 5810  35.089   9.622   9.150
  174POPC   C1A 5811  35.334   9.814   8.734
  174POPC   D2A 5812  35.564   9.580   8.401
  174POPC   C3A 5813  35.635   9.701   7.953
  174POPC   C4A 5814  35.442   9.490   7.593
  174POPC   C1B 5815  34.877   9.581   8.774
  174POPC   C2B 5816  35.055   9.616   8.344
  174POPC   C3B 5817  35.120   9.736   7.901
  174POPC   C4B 5818  35.089  10.061   7.549
  175POPC   NC3 5819  44.155  27.702   9.594
  175POPC   PO4 5820  43.596  27.398   9.699
  175POPC   GL1 5821  43.850  27.404   9.278
  175POPC   GL2 5822  43.745  27.137   9.023
  175POPC   C1A 5823  44.171  27.477   8.909
  175POPC   D2A 5824  44.097  27.555   8.463
  175POPC   C3A 5825  44.132  27.347   8.056
  175POPC   C4A 5826  44.019  27.574   7.660
  175POPC   C1B 5827  43.677  27.557   8.811
  175POPC   C2B 5828  43.636  27.797   8.417
  175POPC   C3B 5829  43.633  27.682   7.981
  175POPC   C4B 5830  43.337  27.720   7.620
  176POPC   NC3 5831   6.738  27.282   9.857
  176POPC   PO4 5832   6.829  26.668   9.604
  176POPC   GL1 5833   6.784  26.564   9.191
  176POPC   GL2 5834   7.094  26.605   9.123
  176POPC   C1A 5835   6.566  26.673   8.838
  176POPC   D2A 5836   6.312  26.649   8.499
  176POPC   C3A 5837   6.495  26.751   8.106
  176POPC   C4A 5838   6.582  26.503   7.773
  176POPC   C1B 5839   7.079  26.849   8.815
  176POPC   C2B 5840   6.885  26.790   8.437
  176POPC   C3B 5841   7.031  26.598   8.053
  176POPC   C4B 5842   7.008  26.725   7.650
  177POPC   NC3 5843  26.370  40.748   9.530
  177POPC   PO4 5844  25.739  40.912   9.728
  177POPC   GL1 5845  25.967  40.986   9.284
  177POPC   GL2 5846  26.172  40.714   9.072
  177POPC   C1A 5847  26.084  41.148   8.842
  177POPC   D2A 5848  26.178  40.923   8.476
  177POPC   C3A 5849  26.046  41.038   8.066
  177POPC   C4A 5850  26.175  40.789   7.699
  177POPC   C1B 5851  25.795  40.689   8.805
  177POPC   C2B 5852  25.588  40.605   8.383
  177POPC   C3B 5853  25.816  40.565   8.008
  177POPC   C4B 5854  25.770  40.467   7.590
  178POPC   NC3 5855   1.317   9.425   9.645
  178POPC   PO4 5856   1.340   8.767   9.696
  178POPC   GL1 5857   1.328   8.888   9.254
  178POPC   GL2 5858   1.349   8.551   9.223
  178POPC   C1A 5859   1.127   9.021   8.820
  178POPC   D2A 5860   0.986   8.894   8.400
  178POPC   C3A 5861   1.043   9.036   7.966
  178POPC   C4A 5862   0.881   9.071   7.521
  178POPC   C1B 5863   1.303   8.535   8.805
  178POPC   C2B 5864   1.470   8.706   8.433
  178POPC   C3B 5865   1.515   8.851   8.052
  178POPC   C4B 5866   1.282   8.641   7.720
  179POPC   NC3 5867  38.951  25.198   9.490
  179POPC   PO4 5868  39.721  25.214   9.377
  179POPC   GL1 5869  39.376  25.243   9.188
  179POPC   GL2 5870  39.239  25.536   9.204
  179POPC   C1A 5871  39.138  25.149   8.831
  179POPC   D2A 5872  39.292  25.251   8.423
  179POPC   C3A 5873  39.167  25.073   8.079
  179POPC   C4A 5874  39.212  25.187   7.673
  179POPC   C1B 5875  39.386  25.602   8.793
  179POPC   C2B 5876  39.590  25.686   8.412
  179POPC   C3B 5877  39.475  25.525   8.010
  179POPC   C4B 5878  39.622  25.486   7.594
  180POPC   NC3 5879  39.338  15.423   9.383
  180POPC   PO4 5880  39.071  14.838   9.252
  180POPC   GL1 5881  39.383  15.038   9.035
  180POPC   GL2 5882  39.695  15.059   9.213
  180POPC   C1A 5883  39.365  15.130   8.620
  180POPC   D2A 5884  39.091  15.251   8.336
  180POPC   C3A 5885  39.097  14.941   8.064
  180POPC   C4A 5886  39.391  14.861   7.758
  180POPC   C1B 5887  39.724  15.387   8.861
  180POPC   C2B 5888  39.680  15.502   8.428
  180POPC   C3B 5889  39.545  15.306   8.064
  180POPC   C4B 5890  39.188  15.385   7.818
  181POPC   NC3 5891  35.944  23.231   9.463
  181POPC   PO4 5892  36.300  22.766   9.398
  181POPC   GL1 5893  36.324  23.061   9.073
  181POPC   GL2 5894  36.000  23.206   8.972
  181POPC   C1A 5895  36.250  22.909   8.651
  181POPC   D2A 5896  36.032  23.100   8.310
  181POPC   C3A 5897  36.324  23.069   7.965
  181POPC   C4A 5898  36.501  22.803   7.640
  181POPC   C1B 5899  35.663  23.362   8.653
  181POPC   C2B 5900  35.633  23.406   8.193
  181POPC   C3B 5901  35.851  23.216   7.820
  181POPC   C4B 5902  35.825  23.340   7.379
  182POPC   NC3 5903  24.503   2.392   9.475
  182POPC   PO4 5904  24.010   1.908   9.516
  182POPC   GL1 5905  24.352   1.965   9.196
  182POPC   GL2 5906  24.194   2.263   9.048
  182POPC   C1A 5907  24.624   2.090   8.784
  182POPC   D2A 5908  24.728   2.336   8.359
  182POPC   C3A 5909  24.609   2.186   7.896
  182POPC   C4A 5910  24.720   2.401   7.481
  182POPC   C1B 5911  24.163   1.915   8.730
  182POPC   C2B 5912  24.328   1.993   8.325
  182POPC   C3B 5913  24.144   2.009   7.945
  182POPC   C4B 5914  24.366   1.699   7.746
  183POPC   NC3 5915  18.641   6.997   9.565
  183POPC   PO4 5916  18.062   7.169   9.356
  183POPC   GL1 5917  18.396   7.363   9.082
  183POPC   GL2 5918  18.389   7.729   9.074
  183POPC   C1A 5919  18.382   7.431   8.620
  183POPC   D2A 5920  18.477   7.159   8.244
  183POPC   C3A 5921  18.252   7.331   7.886
  183POPC   C4A 5922  17.990   7.720   7.789
  183POPC   C1B 5923  18.667   7.864   8.718
  183POPC   C2B 5924  18.632   7.924   8.264
  183POPC   C3B 5925  18.676   7.680   7.886
  183POPC   C4B 5926  18.664   7.364   7.581
  184POPC   NC3 5927  18.116   4.479   9.543
  184POPC   PO4 5928  18.785   4.661   9.451
  184POPC   GL1 5929  18.509   4.481   9.112
  184POPC   GL2 5930  18.318   4.188   9.089
  184POPC   C1A 5931  18.439   4.373   8.641
  184POPC   D2A 5932  18.252   4.555   8.287
  184POPC   C3A 5933  18.449   4.536   7.896
  184POPC   C4A 5934  18.341   4.474   7.433
  184POPC   C1B 5935  18.036   4.054   8.781
  184POPC   C2B 5936  18.196   3.993   8.387
  184POPC   C3B 5937  18.514   4.087   8.139
  184POPC   C4B 5938  18.426   4.064   7.715
  185POPC   NC3 5939   6.545  11.783   9.465
  185POPC   PO4 5940   6.892  12.310   9.294
  185POPC   GL1 5941   6.720  12.019   9.029
  185POPC   GL2 5942   6.765  11.652   9.033
  185POPC   C1A 5943   6.775  11.988   8.584
  185POPC   D2A 5944   6.843  12.376   8.360
  185POPC   C3A 5945   6.908  12.275   7.940
  185POPC   C4A 5946   7.053  11.838   7.831
  185POPC   C1B 5947   6.367  11.764   8.799
  185POPC   C2B 5948   6.261  12.021   8.441
  185POPC   C3B 5949   6.530  11.985   8.076
  185POPC   C4B 5950   6.569  11.846   7.628
  186POPC   NC3 5951  11.167  23.568   9.583
  186POPC   PO4 5952  11.781  23.791   9.721
  186POPC   GL1 5953  11.553  23.680   9.276
  186POPC   GL2 5954  11.218  23.860   9.173
  186POPC   C1A 5955  11.363  23.453   8.885
  186POPC   D2A 5956  11.480  23.428   8.420
  186POPC   C3A 5957  11.243  23.567   8.018
  186POPC   C4A 5958  10.871  23.554   7.743
  186POPC   C1B 5959  11.375  23.936   8.741
  186POPC   C2B 5960  11.465  23.942   8.281
  186POPC   C3B 5961  11.468  24.008   7.820
  186POPC   C4B 5962  11.832  23.905   7.509
  187POPC   NC3 5963  17.124  38.426   9.272
  187POPC   PO4 5964  17.767  38.661   9.449
  187POPC   GL1 5965  17.657  38.565   9.090
  187POPC   GL2 5966  17.581  38.238   9.105
  187POPC   C1A 5967  17.584  38.767   8.728
  187POPC   D2A 5968  17.423  38.632   8.350
  187POPC   C3A 5969  17.707  38.584   8.025
  187POPC   C4A 5970  17.639  38.514   7.617
  187POPC   C1B 5971  17.453  38.233   8.687
  187POPC   C2B 5972  17.269  38.124   8.294
  187POPC   C3B 5973  17.225  38.349   7.911
  187POPC   C4B 5974  17.327  38.113   7.530
  188POPC   NC3 5975  14.924  41.262   9.474
  188POPC   PO4 5976  15.003  41.877   9.743
  188POPC   GL1 5977  15.144  41.695   9.282
  188POPC   GL2 5978  15.438  41.465   9.331
  188POPC   C1A 5979  14.970  41.716   8.796
  188POPC   D2A 5980  14.761  41.776   8.389
  188POPC   C3A 5981  14.990  41.645   8.040
  188POPC   C4A 5982  15.092  41.801   7.631
  188POPC   C1B 5983  15.269  41.345   8.921
  188POPC   C2B 5984  15.206  41.379   8.456
  188POPC   C3B 5985  15.480  41.481   8.117
  188POPC   C4B 5986  15.451  41.432   7.685
  189POPC   NC3 5987  27.570  22.362   9.457
  189POPC   PO4 5988  27.682  21.723   9.662
  189POPC   GL1 5989  27.469  21.875   9.239
  189POPC   GL2 5990  27.644  22.124   9.034
  189POPC   C1A 5991  27.246  21.893   8.826
  189POPC   D2A 5992  27.029  22.058   8.480
  189POPC   C3A 5993  27.243  22.238   8.123
  189POPC   C4A 5994  27.481  22.193   7.725
  189POPC   C1B 5995  27.436  22.359   8.693
  189POPC   C2B 5996  27.499  22.632   8.334
  189POPC   C3B 5997  27.693  22.620   7.940
  189POPC   C4B 5998  28.080  22.667   7.763
  190POPC   NC3 5999  37.829  29.017   9.371
  190POPC   PO4 6000  37.251  29.525   9.516
  190POPC   GL1 6001  37.495  29.309   9.146
  190POPC   GL2 6002  37.890  29.365   9.014
  190POPC   C1A 6003  37.582  29.089   8.753
  190POPC   D2A 6004  37.796  29.170   8.380
  190POPC   C3A 6005  37.638  28.890   8.162
  190POPC   C4A 6006  37.358  28.939   7.867
  190POPC   C1B 6007  38.099  28.993   8.750
  190POPC   C2B 6008  38.144  28.778   8.322
  190POPC   C3B 6009  38.055  28.904   7.879
  190POPC   C4B 6010  37.831  29.268   7.833
  191POPC   NC3 6011   7.455  31.037   9.755
  191POPC   PO4 6012   7.178  30.469   9.430
  191POPC   GL1 6013   7.307  30.594   9.045
  191POPC   GL2 6014   7.634  30.554   9.046
  191POPC   C1A 6015   7.347  30.447   8.637
  191POPC   D2A 6016   7.460  30.602   8.243
  191POPC   C3A 6017   7.273  30.446   7.875
  191POPC   C4A 6018   7.546  30.615   7.589
  191POPC   C1B 6019   7.685  30.837   8.654
  191POPC   C2B 6020   7.773  31.038   8.238
  191POPC   C3B 6021   7.730  31.052   7.782
  191POPC   C4B 6022   7.812  30.944   7.301
  192POPC   NC3 6023  29.929  41.885   9.558
  192POPC   PO4 6024  29.791  41.219   9.638
  192POPC   GL1 6025  29.969  41.376   9.243
  192POPC   GL2 6026  29.725  41.633   9.136
  192POPC   C1A 6027  30.230  41.293   8.859
  192POPC   D2A 6028  30.402  41.587   8.575
  192POPC   C3A 6029  30.371  41.457   8.179
  192POPC   C4A 6030  30.064  41.363   7.876
  192POPC   C1B 6031  29.924  41.723   8.748
  192POPC   C2B 6032  29.957  41.734   8.304
  192POPC   C3B 6033  29.700  41.743   7.931
  192POPC   C4B 6034  29.877  41.874   7.544
  193POPC   NC3 6035  39.324  10.088   9.555
  193POPC   PO4 6036  39.247   9.467   9.551
  193POPC   GL1 6037  39.539   9.654   9.213
  193POPC   GL2 6038  39.493  10.009   9.073
  193POPC   C1A 6039  39.537   9.584   8.769
  193POPC   D2A 6040  39.330   9.813   8.428
  193POPC   C3A 6041  39.116   9.619   8.074
  193POPC   C4A 6042  38.807   9.675   7.762
  193POPC   C1B 6043  39.728  10.070   8.674
  193POPC   C2B 6044  39.826   9.862   8.298
  193POPC   C3B 6045  39.553   9.849   7.941
  193POPC   C4B 6046  39.238   9.939   7.646
  194POPC   NC3 6047  41.724  42.505   9.603
  194POPC   PO4 6048  41.259  42.053   9.453
  194POPC   GL1 6049  41.618  42.228   9.189
  194POPC   GL2 6050  41.661  42.575   9.109
  194POPC   C1A 6051  41.795  42.107   8.809
  194POPC   D2A 6052  41.613  42.031   8.433
  194POPC   C3A 6053  41.798  42.165   8.039
  194POPC   C4A 6054  41.566  42.213   7.647
  194POPC   C1B 6055  41.760  42.601   8.711
  194POPC   C2B 6056  41.541  42.526   8.351
  194POPC   C3B 6057  41.660  42.636   7.948
  194POPC   C4B 6058  41.851  42.672   7.549
  195POPC   NC3 6059   5.844  24.955   9.387
  195POPC   PO4 6060   5.622  25.601   9.432
  195POPC   GL1 6061   5.711  25.330   9.082
  195POPC   GL2 6062   5.523  25.019   8.999
  195POPC   C1A 6063   5.881  25.239   8.694
  195POPC   D2A 6064   5.835  25.554   8.396
  195POPC   C3A 6065   5.972  25.452   8.011
  195POPC   C4A 6066   6.080  25.270   7.639
  195POPC   C1B 6067   5.438  24.987   8.567
  195POPC   C2B 6068   5.721  25.054   8.238
  195POPC   C3B 6069   5.771  24.917   7.845
  195POPC   C4B 6070   5.481  24.846   7.562
  196POPC   NC3 6071   7.073  22.698   9.527
  196POPC   PO4 6072   7.676  22.984   9.448
  196POPC   GL1 6073   7.396  22.861   9.135
  196POPC   GL2 6074   7.136  23.076   9.183
  196POPC   C1A 6075   7.407  22.834   8.688
  196POPC   D2A 6076   7.749  22.972   8.396
  196POPC   C3A 6077   7.784  22.780   8.008
  196POPC   C4A 6078   7.471  22.857   7.726
  196POPC   C1B 6079   6.937  23.161   8.844
  196POPC   C2B 6080   6.962  22.990   8.484
  196POPC   C3B 6081   7.236  23.026   8.156
  196POPC   C4B 6082   7.051  23.099   7.779
  197POPC   NC3 6083   7.918   0.047   9.528
  197POPC   PO4 6084   8.308   0.526   9.425
  197POPC   GL1 6085   8.190   0.380   9.067
  197POPC   GL2 6086   8.516   0.559   8.939
  197POPC   C1A 6087   8.177   0.236   8.657
  197POPC   D2A 6088   8.131  44.975   8.279
  197POPC   C3A 6089   8.318   0.168   7.917
  197POPC   C4A 6090   8.281   0.184   7.461
  197POPC   C1B 6091   8.208   0.750   8.718
  197POPC   C2B 6092   8.332   0.709   8.369
  197POPC   C3B 6093   8.168   0.648   8.018
  197POPC   C4B 6094   8.313   0.689   7.623
  198POPC   NC3 6095  33.903  42.890   9.386
  198POPC   PO4 6096  34.156  42.296   9.651
  198POPC   GL1 6097  33.914  42.261   9.235
  198POPC   GL2 6098  33.966  42.546   9.047
  198POPC   C1A 6099  33.757  42.182   8.759
  198POPC   D2A 6100  33.911  42.036   8.336
  198POPC   C3A 6101  33.768  42.167   7.912
  198POPC   C4A 6102  33.947  42.324   7.544
  198POPC   C1B 6103  33.904  42.670   8.652
  198POPC   C2B 6104  33.767  42.541   8.264
  198POPC   C3B 6105  33.940  42.710   7.909
  198POPC   C4B 6106  33.917  42.836   7.502
  199POPC   NC3 6107   9.599  34.517   9.500
  199POPC   PO4 6108   9.996  35.110   9.590
  199POPC   GL1 6109   9.969  34.834   9.215
  199POPC   GL2 6110   9.636  34.758   9.082
  199POPC   C1A 6111  10.013  34.943   8.774
  199POPC   D2A 6112  10.172  34.725   8.377
  199POPC   C3A 6113   9.930  34.445   8.095
  199POPC   C4A 6114   9.845  34.652   7.692
  199POPC   C1B 6115   9.791  34.494   8.783
  199POPC   C2B 6116   9.649  34.714   8.421
  199POPC   C3B 6117   9.441  34.582   8.074
  199POPC   C4B 6118   9.269  34.451   7.719
  200POPC   NC3 6119  39.486  29.347   9.455
  200POPC   PO4 6120  39.016  28.951   9.579
  200POPC   GL1 6121  39.183  29.024   9.162
  200POPC   GL2 6122  39.520  28.828   9.147
  200POPC   C1A 6123  39.010  29.161   8.751
  200POPC   D2A 6124  38.857  29.370   8.382
  200POPC   C3A 6125  38.976  29.143   8.012
  200POPC   C4A 6126  39.313  28.877   7.848
  200POPC   C1B 6127  39.521  29.081   8.759
  200POPC   C2B 6128  39.372  29.243   8.350
  200POPC   C3B 6129  39.481  29.342   7.921
  200POPC   C4B 6130  39.775  29.040   7.705
  201POPC   NC3 6131  15.421  36.830   9.544
  201POPC   PO4 6132  14.761  36.839   9.522
  201POPC   GL1 6133  15.015  37.074   9.145
  201POPC   GL2 6134  15.386  37.019   9.082
  201POPC   C1A 6135  15.134  37.257   8.690
  201POPC   D2A 6136  15.148  37.261   8.195
  201POPC   C3A 6137  15.182  36.835   7.992
  201POPC   C4A 6138  15.182  36.413   7.799
  201POPC   C1B 6139  15.637  36.878   8.749
  201POPC   C2B 6140  15.593  36.805   8.325
  201POPC   C3B 6141  15.772  37.037   8.001
  201POPC   C4B 6142  15.470  37.196   7.788
  202POPC   NC3 6143  40.750  13.905   9.626
  202POPC   PO4 6144  40.969  13.337   9.373
  202POPC   GL1 6145  40.883  13.665   9.099
  202POPC   GL2 6146  41.183  13.638   8.898
  202POPC   C1A 6147  40.721  13.689   8.667
  202POPC   D2A 6148  41.031  13.637   8.363
  202POPC   C3A 6149  40.979  13.503   7.957
  202POPC   C4A 6150  40.662  13.570   7.706
  202POPC   C1B 6151  41.058  14.040   8.770
  202POPC   C2B 6152  41.009  14.171   8.348
  202POPC   C3B 6153  41.192  13.989   8.000
  202POPC   C4B 6154  41.093  13.881   7.616
  203POPC   NC3 6155   8.017  22.682   9.373
  203POPC   PO4 6156   8.622  23.062   9.533
  203POPC   GL1 6157   8.440  23.170   9.151
  203POPC   GL2 6158   8.067  23.142   9.145
  203POPC   C1A 6159   8.620  23.129   8.753
  203POPC   D2A 6160   8.587  22.731   8.552
  203POPC   C3A 6161   8.308  22.691   8.229
  203POPC   C4A 6162   8.309  22.928   7.860
  203POPC   C1B 6163   8.135  22.964   8.740
  203POPC   C2B 6164   8.218  23.188   8.348
  203POPC   C3B 6165   7.949  23.266   7.979
  203POPC   C4B 6166   7.885  23.061   7.571
  204POPC   NC3 6167  15.402  42.058   9.560
  204POPC   PO4 6168  14.777  42.048   9.284
  204POPC   GL1 6169  15.186  42.187   9.113
  204POPC   GL2 6170  15.505  42.397   9.170
  204POPC   C1A 6171  15.266  42.290   8.714
  204POPC   D2A 6172  14.961  42.402   8.432
  204POPC   C3A 6173  14.917  42.169   8.069
  204POPC   C4A 6174  14.957  42.313   7.662
  204POPC   C1B 6175  15.532  42.701   8.811
  204POPC   C2B 6176  15.479  42.611   8.345
  204POPC   C3B 6177  15.370  42.528   7.893
  204POPC   C4B 6178  15.428  42.202   7.568
  205POPC   NC3 6179  10.244  10.354   9.552
  205POPC   PO4 6180  10.329  10.966   9.328
  205POPC   GL1 6181  10.490  10.609   9.081
  205POPC   GL2 6182  10.833  10.496   9.100
  205POPC   C1A 6183  10.565  10.687   8.662
  205POPC   D2A 6184  10.522  10.973   8.327
  205POPC   C3A 6185  10.271  10.816   8.026
  205POPC   C4A 6186  10.356  10.607   7.650
  205POPC   C1B 6187  10.779  10.234   8.773
  205POPC   C2B 6188  10.621  10.276   8.359
  205POPC   C3B 6189  10.710  10.528   8.001
  205POPC   C4B 6190  10.799  10.365   7.565
  206POPC   NC3 6191  12.725   7.857   9.431
  206POPC   PO4 6192  12.824   7.298   9.724
  206POPC   GL1 6193  12.848   7.370   9.260
  206POPC   GL2 6194  13.085   7.130   9.145
  206POPC   C1A 6195  12.691   7.591   8.851
  206POPC   D2A 6196  12.863   7.529   8.415
  206POPC   C3A 6197  12.649   7.511   8.011
  206POPC   C4A 6198  12.755   7.426   7.546
  206POPC   C1B 6199  12.837   7.111   8.778
  206POPC   C2B 6200  12.911   6.997   8.371
  206POPC   C3B 6201  12.788   7.028   7.951
  206POPC   C4B 6202  13.085   7.051   7.616
  207POPC   NC3 6203  26.505   3.527   9.521
  207POPC   PO4 6204  25.908   3.197   9.507
  207POPC   GL1 6205  26.064   3.490   9.230
  207POPC   GL2 6206  25.780   3.651   9.087
  207POPC   C1A 6207  26.192   3.468   8.795
  207POPC   D2A 6208  26.116   3.691   8.405
  207POPC   C3A 6209  26.307   3.534   8.022
  207POPC   C4A 6210  26.126   3.767   7.662
  207POPC   C1B 6211  25.684   3.315   8.818
  207POPC   C2B 6212  25.845   3.247   8.365
  207POPC   C3B 6213  25.815   3.458   7.942
  207POPC   C4B 6214  25.712   3.515   7.460
  208POPC   NC3 6215  28.583  34.716   9.616
  208POPC   PO4 6216  27.914  34.596   9.548
  208POPC   GL1 6217  28.198  34.494   9.184
  208POPC   GL2 6218  28.574  34.435   9.195
  208POPC   C1A 6219  28.379  34.719   8.823
  208POPC   D2A 6220  28.608  34.627   8.441
  208POPC   C3A 6221  28.491  34.884   8.114
  208POPC   C4A 6222  28.150  34.743   7.839
  208POPC   C1B 6223  28.544  34.224   8.783
  208POPC   C2B 6224  28.714  34.076   8.395
  208POPC   C3B 6225  28.628  34.249   8.014
  208POPC   C4B 6226  28.260  34.228   7.785
  209POPC   NC3 6227   8.752  34.111   9.567
  209POPC   PO4 6228   8.986  33.364   9.520
  209POPC   GL1 6229   8.882  33.593   9.149
  209POPC   GL2 6230   8.849  33.969   9.104
  209POPC   C1A 6231   9.115  33.695   8.776
  209POPC   D2A 6232   9.073  34.056   8.520
  209POPC   C3A 6233   9.089  33.894   8.127
  209POPC   C4A 6234   8.957  33.564   7.824
  209POPC   C1B 6235   8.614  33.825   8.760
  209POPC   C2B 6236   8.717  33.641   8.376
  209POPC   C3B 6237   8.572  33.829   8.015
  209POPC   C4B 6238   8.426  33.901   7.602
  210POPC   NC3 6239  14.631  10.965   9.226
  210POPC   PO4 6240  14.333  11.489   9.632
  210POPC   GL1 6241  14.235  11.498   9.142
  210POPC   GL2 6242  14.138  11.144   9.117
  210POPC   C1A 6243  14.293  11.671   8.685
  210POPC   D2A 6244  14.588  11.740   8.322
  210POPC   C3A 6245  14.455  11.531   7.924
  210POPC   C4A 6246  14.568  11.142   7.719
  210POPC   C1B 6247  14.217  11.160   8.691
  210POPC   C2B 6248  14.192  11.240   8.260
  210POPC   C3B 6249  14.154  10.932   7.913
  210POPC   C4B 6250  14.189  10.912   7.451
  211POPC   NC3 6251  24.934   1.228   9.518
  211POPC   PO4 6252  25.601   1.623   9.508
  211POPC   GL1 6253  25.518   1.336   9.149
  211POPC   GL2 6254  25.189   1.226   9.094
  211POPC   C1A 6255  25.550   1.234   8.714
  211POPC   D2A 6256  25.587   1.088   8.306
  211POPC   C3A 6257  25.243   1.081   8.041
  211POPC   C4A 6258  25.506   1.218   7.731
  211POPC   C1B 6259  25.066   1.484   8.789
  211POPC   C2B 6260  25.191   1.466   8.397
  211POPC   C3B 6261  25.283   1.578   8.015
  211POPC   C4B 6262  25.116   1.513   7.615
  212POPC   NC3 6263  20.555  31.213   9.464
  212POPC   PO4 6264  21.068  31.600   9.590
  212POPC   GL1 6265  20.832  31.574   9.205
  212POPC   GL2 6266  20.972  31.226   9.171
  212POPC   C1A 6267  20.511  31.530   8.823
  212POPC   D2A 6268  20.335  31.439   8.361
  212POPC   C3A 6269  20.456  31.604   7.956
  212POPC   C4A 6270  20.518  31.266   7.675
  212POPC   C1B 6271  21.001  31.407   8.772
  212POPC   C2B 6272  20.781  31.238   8.442
  212POPC   C3B 6273  20.881  31.333   8.050
  212POPC   C4B 6274  20.988  31.598   7.786
  213POPC   NC3 6275   5.957  14.166   9.731
  213POPC   PO4 6276   6.258  14.666   9.416
  213POPC   GL1 6277   5.998  14.807   9.121
  213POPC   GL2 6278   5.667  14.667   9.147
  213POPC   C1A 6279   5.924  14.710   8.707
  213POPC   D2A 6280   5.751  14.658   8.345
  213POPC   C3A 6281   6.100  14.513   8.023
  213POPC   C4A 6282   6.262  14.579   7.591
  213POPC   C1B 6283   5.538  14.358   8.813
  213POPC   C2B 6284   5.581  14.197   8.381
  213POPC   C3B 6285   5.634  14.336   7.958
  213POPC   C4B 6286   5.653  14.180   7.540
  214POPC   NC3 6287  15.923  41.207   9.455
  214POPC   PO4 6288  15.799  41.833   9.477
  214POPC   GL1 6289  16.046  41.609   9.169
  214POPC   GL2 6290  15.808  41.503   8.969
  214POPC   C1A 6291  16.314  41.439   8.844
  214POPC   D2A 6292  16.163  41.556   8.455
  214POPC   C3A 6293  16.301  41.375   8.068
  214POPC   C4A 6294  15.965  41.401   7.803
  214POPC   C1B 6295  15.487  41.811   8.828
  214POPC   C2B 6296  15.271  41.890   8.416
  214POPC   C3B 6297  15.381  41.973   8.017
  214POPC   C4B 6298  15.727  41.849   7.764
  215POPC   NC3 6299  44.897  38.835   9.845
  215POPC   PO4 6300  44.569  39.373   9.578
  215POPC   GL1 6301  44.625  39.265   9.168
  215POPC   GL2 6302  44.927  39.151   9.256
  215POPC   C1A 6303  44.434  39.231   8.736
  215POPC   D2A 6304  44.255  39.348   8.333
  215POPC   C3A 6305  44.495  39.089   8.049
  215POPC   C4A 6306  44.619  39.180   7.658
  215POPC   C1B 6307  44.961  39.199   8.802
  215POPC   C2B 6308  44.930  39.381   8.343
  215POPC   C3B 6309   0.027  39.327   7.875
  215POPC   C4B 6310   0.047  39.217   7.378
  216POPC   NC3 6311  35.148  31.396   9.654
  216POPC   PO4 6312  35.769  31.401   9.598
  216POPC   GL1 6313  35.560  31.280   9.237
  216POPC   GL2 6314  35.226  31.363   9.151
  216POPC   C1A 6315  35.623  31.418   8.812
  216POPC   D2A 6316  35.464  31.448   8.401
  216POPC   C3A 6317  35.708  31.582   8.076
  216POPC   C4A 6318  35.508  31.447   7.720
  216POPC   C1B 6319  35.132  31.581   8.776
  216POPC   C2B 6320  34.980  31.592   8.342
  216POPC   C3B 6321  35.182  31.766   7.966
  216POPC   C4B 6322  35.451  32.117   7.793
  217POPC   NC3 6323  44.120   2.523   9.432
  217POPC   PO4 6324  44.067   1.877   9.320
  217POPC   GL1 6325  43.759   1.987   9.046
  217POPC   GL2 6326  43.591   2.322   9.147
  217POPC   C1A 6327  43.532   1.816   8.692
  217POPC   D2A 6328  43.513   1.956   8.259
  217POPC   C3A 6329  43.864   1.768   8.029
  217POPC   C4A 6330  43.922   1.639   7.601
  217POPC   C1B 6331  43.645   2.321   8.685
  217POPC   C2B 6332  43.774   2.463   8.289
  217POPC   C3B 6333  43.775   2.245   7.903
  217POPC   C4B 6334  43.476   1.935   7.714
  218POPC   NC3 6335  31.099   3.404   9.565
  218POPC   PO4 6336  31.652   3.829   9.432
  218POPC   GL1 6337  31.548   3.576   9.112
  218POPC   GL2 6338  31.264   3.746   9.055
  218POPC   C1A 6339  31.384   3.236   8.846
  218POPC   D2A 6340  31.274   3.237   8.406
  218POPC   C3A 6341  31.232   3.392   7.979
  218POPC   C4A 6342  31.486   3.348   7.629
  218POPC   C1B 6343  31.368   3.707   8.642
  218POPC   C2B 6344  31.568   3.673   8.251
  218POPC   C3B 6345  31.496   3.812   7.824
  218POPC   C4B 6346  31.481   3.808   7.366
  219POPC   NC3 6347  40.104  37.647   9.672
  219POPC   PO4 6348  39.933  38.328   9.702
  219POPC   GL1 6349  39.862  37.984   9.298
  219POPC   GL2 6350  40.186  37.800   9.188
  219POPC   C1A 6351  39.783  37.749   8.884
  219POPC   D2A 6352  39.821  37.915   8.458
  219POPC   C3A 6353  39.851  37.758   8.033
  219POPC   C4A 6354  40.158  38.022   7.761
  219POPC   C1B 6355  40.236  37.500   8.861
  219POPC   C2B 6356  40.055  37.411   8.461
  219POPC   C3B 6357  40.136  37.320   8.030
  219POPC   C4B 6358  40.251  37.519   7.656
  220POPC   NC3 6359  32.707  30.787   9.466
  220POPC   PO4 6360  33.173  30.290   9.609
  220POPC   GL1 6361  33.173  30.485   9.159
  220POPC   GL2 6362  33.078  30.823   9.117
  220POPC   C1A 6363  32.985  30.507   8.709
  220POPC   D2A 6364  32.640  30.488   8.402
  220POPC   C3A 6365  32.856  30.525   8.015
  220POPC   C4A 6366  33.196  30.474   7.733
  220POPC   C1B 6367  32.758  30.944   8.830
  220POPC   C2B 6368  32.841  31.004   8.431
  220POPC   C3B 6369  32.732  31.115   8.040
  220POPC   C4B 6370  32.807  30.897   7.666
  221POPC   NC3 6371  19.493  34.007   9.448
  221POPC   PO4 6372  20.255  34.113   9.373
  221POPC   GL1 6373  19.897  33.915   9.117
  221POPC   GL2 6374  19.560  33.698   9.063
  221POPC   C1A 6375  19.846  33.863   8.689
  221POPC   D2A 6376  19.616  33.983   8.345
  221POPC   C3A 6377  19.782  34.020   7.943
  221POPC   C4A 6378  19.817  33.858   7.525
  221POPC   C1B 6379  19.388  33.647   8.686
  221POPC   C2B 6380  19.589  33.472   8.354
  221POPC   C3B 6381  19.714  33.517   7.971
  221POPC   C4B 6382  19.438  33.536   7.624
  222POPC   NC3 6383  27.616   8.700   9.629
  222POPC   PO4 6384  27.946   9.276   9.465
  222POPC   GL1 6385  27.866   8.917   9.211
  222POPC   GL2 6386  27.873   8.513   9.230
  222POPC   C1A 6387  27.823   9.083   8.801
  222POPC   D2A 6388  27.471   9.208   8.561
  222POPC   C3A 6389  27.470   9.256   8.105
  222POPC   C4A 6390  27.412   9.135   7.661
  222POPC   C1B 6391  27.538   8.645   8.907
  222POPC   C2B 6392  27.364   8.714   8.485
  222POPC   C3B 6393  27.486   8.756   8.065
  222POPC   C4B 6394  27.363   8.566   7.723
  223POPC   NC3 6395  28.892  33.656   9.617
  223POPC   PO4 6396  29.435  33.932   9.380
  223POPC   GL1 6397  29.210  33.754   9.044
  223POPC   GL2 6398  28.995  33.461   9.156
  223POPC   C1A 6399  29.149  34.018   8.665
  223POPC   D2A 6400  29.352  34.121   8.242
  223POPC   C3A 6401  29.122  34.111   7.838
  223POPC   C4A 6402  29.300  34.002   7.423
  223POPC   C1B 6403  29.196  33.317   8.767
  223POPC   C2B 6404  29.354  33.604   8.454
  223POPC   C3B 6405  29.390  33.660   8.007
  223POPC   C4B 6406  29.072  33.558   7.717
  224POPC   NC3 6407  20.626  35.154   9.476
  224POPC   PO4 6408  20.960  35.702   9.339
  224POPC   GL1 6409  20.777  35.424   9.044
  224POPC   GL2 6410  20.420  35.405   9.103
  224POPC   C1A 6411  20.658  35.155   8.707
  224POPC   D2A 6412  20.471  35.189   8.306
  224POPC   C3A 6413  20.751  35.169   7.957
  224POPC   C4A 6414  20.838  35.421   7.591
  224POPC   C1B 6415  20.234  35.426   8.718
  224POPC   C2B 6416  20.196  35.630   8.336
  224POPC   C3B 6417  20.265  35.486   7.946
  224POPC   C4B 6418  20.311  35.555   7.557
  225POPC   NC3 6419  42.328  23.612   9.922
  225POPC   PO4 6420  41.986  23.592   9.341
  225POPC   GL1 6421  42.239  23.633   9.003
  225POPC   GL2 6422  42.447  23.340   9.020
  225POPC   C1A 6423  42.219  23.853   8.604
  225POPC   D2A 6424  42.133  23.815   8.161
  225POPC   C3A 6425  42.231  24.003   7.767
  225POPC   C4A 6426  42.269  23.598   7.503
  225POPC   C1B 6427  42.637  23.561   8.682
  225POPC   C2B 6428  42.641  23.832   8.304
  225POPC   C3B 6429  42.637  23.724   7.850
  225POPC   C4B 6430  42.610  23.960   7.418
  226POPC   NC3 6431  38.802  21.931   9.318
  226POPC   PO4 6432  38.335  22.267   9.656
  226POPC   GL1 6433  38.314  22.077   9.225
  226POPC   GL2 6434  38.517  22.331   9.118
  226POPC   C1A 6435  38.303  21.937   8.782
  226POPC   D2A 6436  38.336  22.176   8.393
  226POPC   C3A 6437  38.487  21.963   8.021
  226POPC   C4A 6438  38.319  21.905   7.600
  226POPC   C1B 6439  38.794  22.253   8.761
  226POPC   C2B 6440  38.859  22.126   8.372
  226POPC   C3B 6441  38.938  22.317   8.000
  226POPC   C4B 6442  38.726  22.178   7.612
  227POPC   NC3 6443  18.555   5.121   9.386
  227POPC   PO4 6444  17.891   4.920   9.496
  227POPC   GL1 6445  18.159   4.860   9.157
  227POPC   GL2 6446  18.110   5.194   9.086
  227POPC   C1A 6447  18.366   4.881   8.746
  227POPC   D2A 6448  18.251   5.085   8.358
  227POPC   C3A 6449  18.470   5.101   8.019
  227POPC   C4A 6450  18.412   4.956   7.630
  227POPC   C1B 6451  18.226   5.431   8.722
  227POPC   C2B 6452  17.936   5.511   8.387
  227POPC   C3B 6453  17.826   5.304   8.051
  227POPC   C4B 6454  18.111   5.339   7.767
  228POPC   NC3 6455  30.420  28.124   9.424
  228POPC   PO4 6456  30.945  27.635   9.424
  228POPC   GL1 6457  30.951  27.558   9.012
  228POPC   GL2 6458  30.623  27.423   9.012
  228POPC   C1A 6459  30.777  27.670   8.618
  228POPC   D2A 6460  30.548  27.460   8.321
  228POPC   C3A 6461  30.735  27.641   7.961
  228POPC   C4A 6462  30.837  27.660   7.509
  228POPC   C1B 6463  30.853  27.178   8.643
  228POPC   C2B 6464  30.909  27.102   8.165
  228POPC   C3B 6465  30.791  27.202   7.727
  228POPC   C4B 6466  30.437  27.360   7.488
  229POPC   NC3 6467   5.200   2.650   9.490
  229POPC   PO4 6468   4.787   3.115   9.187
  229POPC   GL1 6469   5.061   2.822   9.022
  229POPC   GL2 6470   5.398   2.875   9.054
  229POPC   C1A 6471   5.026   2.439   8.789
  229POPC   D2A 6472   5.091   2.234   8.376
  229POPC   C3A 6473   5.104   2.420   7.929
  229POPC   C4A 6474   5.037   2.657   7.521
  229POPC   C1B 6475   5.329   3.048   8.645
  229POPC   C2B 6476   5.084   3.161   8.294
  229POPC   C3B 6477   5.099   2.968   7.916
  229POPC   C4B 6478   5.461   2.887   7.685
  230POPC   NC3 6479  36.864  27.048   9.845
  230POPC   PO4 6480  36.835  26.535   9.386
  230POPC   GL1 6481  36.870  26.712   9.074
  230POPC   GL2 6482  37.044  27.078   9.144
  230POPC   C1A 6483  36.907  26.487   8.675
  230POPC   D2A 6484  37.000  26.713   8.338
  230POPC   C3A 6485  36.712  26.712   7.988
  230POPC   C4A 6486  37.017  26.763   7.706
  230POPC   C1B 6487  36.904  27.081   8.736
  230POPC   C2B 6488  36.655  27.086   8.401
  230POPC   C3B 6489  36.927  27.177   8.082
  230POPC   C4B 6490  36.795  27.216   7.731
  231POPC   NC3 6491   3.194  39.231   9.500
  231POPC   PO4 6492   2.675  39.542   9.731
  231POPC   GL1 6493   2.618  39.380   9.300
  231POPC   GL2 6494   2.916  39.299   9.077
  231POPC   C1A 6495   2.441  39.084   8.985
  231POPC   D2A 6496   2.707  38.988   8.637
  231POPC   C3A 6497   2.585  38.950   8.212
  231POPC   C4A 6498   2.671  39.165   7.847
  231POPC   C1B 6499   3.094  39.522   8.703
  231POPC   C2B 6500   3.171  39.641   8.274
  231POPC   C3B 6501   3.017  39.539   7.867
  231POPC   C4B 6502   3.140  39.657   7.455
  232POPC   NC3 6503  27.373  21.384   9.395
  232POPC   PO4 6504  27.875  21.151   9.747
  232POPC   GL1 6505  27.857  21.302   9.235
  232POPC   GL2 6506  27.916  21.626   9.156
  232POPC   C1A 6507  27.767  21.206   8.745
  232POPC   D2A 6508  27.784  21.081   8.282
  232POPC   C3A 6509  27.565  21.207   7.872
  232POPC   C4A 6510  27.671  21.358   7.456
  232POPC   C1B 6511  27.721  21.709   8.778
  232POPC   C2B 6512  27.527  21.807   8.383
  232POPC   C3B 6513  27.620  21.721   7.943
  232POPC   C4B 6514  27.304  21.709   7.639
  233POPC   NC3 6515  17.096  23.024   9.532
  233POPC   PO4 6516  16.533  22.682   9.626
  233POPC   GL1 6517  16.768  22.769   9.213
  233POPC   GL2 6518  16.744  23.124   9.093
  233POPC   C1A 6519  16.781  22.719   8.730
  233POPC   D2A 6520  16.649  22.961   8.375
  233POPC   C3A 6521  16.588  22.856   7.938
  233POPC   C4A 6522  16.601  23.188   7.677
  233POPC   C1B 6523  17.161  23.006   8.903
  233POPC   C2B 6524  17.271  23.031   8.480
  233POPC   C3B 6525  17.063  23.138   8.097
  233POPC   C4B 6526  17.090  22.864   7.759
  234POPC   NC3 6527  15.733  24.797   9.595
  234POPC   PO4 6528  15.871  25.432   9.518
  234POPC   GL1 6529  15.933  25.228   9.137
  234POPC   GL2 6530  16.258  25.063   9.201
  234POPC   C1A 6531  15.899  25.419   8.708
  234POPC   D2A 6532  16.124  25.430   8.330
  234POPC   C3A 6533  15.877  25.474   7.976
  234POPC   C4A 6534  16.160  25.364   7.640
  234POPC   C1B 6535  16.314  25.149   8.784
  234POPC   C2B 6536  16.038  24.967   8.501
  234POPC   C3B 6537  15.840  24.985   8.100
  234POPC   C4B 6538  16.039  24.846   7.700
  235POPC   NC3 6539   8.293  15.010   9.547
  235POPC   PO4 6540   8.307  15.724   9.699
  235POPC   GL1 6541   8.317  15.482   9.307
  235POPC   GL2 6542   8.022  15.447   9.134
  235POPC   C1A 6543   8.483  15.303   8.925
  235POPC   D2A 6544   8.467  15.107   8.528
  235POPC   C3A 6545   8.329  15.324   8.174
  235POPC   C4A 6546   8.345  15.055   7.806
  235POPC   C1B 6547   8.010  15.273   8.730
  235POPC   C2B 6548   7.865  15.116   8.385
  235POPC   C3B 6549   7.872  15.204   7.991
  235POPC   C4B 6550   7.830  14.997   7.598
  236POPC   NC3 6551  34.581   0.722   9.477
  236POPC   PO4 6552  34.060   0.239   9.497
  236POPC   GL1 6553  34.313   0.303   9.119
  236POPC   GL2 6554  34.661   0.340   9.149
  236POPC   C1A 6555  34.461   0.262   8.670
  236POPC   D2A 6556  34.743   0.485   8.350
  236POPC   C3A 6557  34.623   0.444   7.924
  236POPC   C4A 6558  34.205   0.409   7.760
  236POPC   C1B 6559  34.941   0.341   8.812
  236POPC   C2B 6560  34.882   0.029   8.506
  236POPC   C3B 6561  34.854  45.000   8.058
  236POPC   C4B 6562  35.045   0.082   7.635
  237POPC   NC3 6563  16.137  37.528   9.551
  237POPC   PO4 6564  15.712  38.111   9.529
  237POPC   GL1 6565  15.718  37.881   9.148
  237POPC   GL2 6566  15.865  37.537   9.136
  237POPC   C1A 6567  15.871  37.841   8.718
  237POPC   D2A 6568  16.091  37.562   8.432
  237POPC   C3A 6569  16.197  37.780   8.031
  237POPC   C4A 6570  16.487  37.716   7.685
  237POPC   C1B 6571  15.617  37.397   8.807
  237POPC   C2B 6572  15.631  37.312   8.402
  237POPC   C3B 6573  15.708  37.570   8.040
  237POPC   C4B 6574  15.687  37.616   7.573
  238POPC   NC3 6575  20.155   9.646   9.611
  238POPC   PO4 6576  19.603   9.711   9.253
  238POPC   GL1 6577  19.934   9.828   9.005
  238POPC   GL2 6578  20.181   9.653   9.109
  238POPC   C1A 6579  19.895   9.831   8.539
  238POPC   D2A 6580  19.590   9.697   8.206
  238POPC   C3A 6581  19.619   9.945   7.786
  238POPC   C4A 6582  19.900  10.118   7.444
  238POPC   C1B 6583  20.147   9.414   8.738
  238POPC   C2B 6584  20.290   9.569   8.333
  238POPC   C3B 6585  20.059   9.794   8.025
  238POPC   C4B 6586  19.813   9.454   7.804
  239POPC   NC3 6587   0.133   8.770   9.514
  239POPC   PO4 6588   0.617   9.282   9.583
  239POPC   GL1 6589   0.483   9.003   9.196
  239POPC   GL2 6590   0.796   8.813   9.112
  239POPC   C1A 6591   0.301   8.779   8.791
  239POPC   D2A 6592   0.110   8.989   8.383
  239POPC   C3A 6593   0.188   9.312   8.010
  239POPC   C4A 6594   0.366   9.277   7.548
  239POPC   C1B 6595   0.790   8.559   8.746
  239POPC   C2B 6596   0.569   8.631   8.385
  239POPC   C3B 6597   0.527   8.912   8.056
  239POPC   C4B 6598   0.193   8.876   7.767
  240POPC   NC3 6599  22.326   5.704   9.379
  240POPC   PO4 6600  21.956   6.228   9.395
  240POPC   GL1 6601  22.253   6.146   9.143
  240POPC   GL2 6602  22.003   5.868   9.041
  240POPC   C1A 6603  22.341   6.085   8.726
  240POPC   D2A 6604  21.977   6.020   8.440
  240POPC   C3A 6605  22.161   5.980   8.028
  240POPC   C4A 6606  22.070   6.106   7.594
  240POPC   C1B 6607  22.140   5.614   8.737
  240POPC   C2B 6608  22.346   5.657   8.384
  240POPC   C3B 6609  22.428   5.511   8.018
  240POPC   C4B 6610  22.244   5.623   7.644
  241POPC   NC3 6611  19.336  27.107   9.486
  241POPC   PO4 6612  19.097  27.731   9.629
  241POPC   GL1 6613  19.156  27.528   9.234
  241POPC   GL2 6614  18.815  27.453   9.150
  241POPC   C1A 6615  19.175  27.459   8.783
  241POPC   D2A 6616  19.381  27.407   8.380
  241POPC   C3A 6617  19.233  27.613   7.978
  241POPC   C4A 6618  19.175  27.448   7.553
  241POPC   C1B 6619  18.766  27.754   8.805
  241POPC   C2B 6620  18.924  27.729   8.362
  241POPC   C3B 6621  18.786  27.843   7.921
  241POPC   C4B 6622  18.776  27.725   7.454
  242POPC   NC3 6623  37.140  32.809   9.558
  242POPC   PO4 6624  36.577  32.961   9.686
  242POPC   GL1 6625  36.777  32.945   9.236
  242POPC   GL2 6626  37.111  33.156   9.165
  242POPC   C1A 6627  36.909  32.883   8.793
  242POPC   D2A 6628  37.108  32.770   8.413
  242POPC   C3A 6629  36.946  32.926   7.996
  242POPC   C4A 6630  36.994  33.018   7.528
  242POPC   C1B 6631  37.181  33.327   8.709
  242POPC   C2B 6632  37.223  33.272   8.241
  242POPC   C3B 6633  37.244  33.414   7.813
  242POPC   C4B 6634  36.988  33.503   7.431
  243POPC   NC3 6635  13.666  12.451   9.466
  243POPC   PO4 6636  13.402  13.102   9.334
  243POPC   GL1 6637  13.626  12.982   9.029
  243POPC   GL2 6638  13.772  12.675   9.033
  243POPC   C1A 6639  13.713  13.073   8.650
  243POPC   D2A 6640  13.478  12.900   8.363
  243POPC   C3A 6641  13.723  12.888   8.053
  243POPC   C4A 6642  13.525  13.068   7.713
  243POPC   C1B 6643  13.433  12.570   8.770
  243POPC   C2B 6644  13.220  12.462   8.406
  243POPC   C3B 6645  13.221  12.653   7.975
  243POPC   C4B 6646  13.553  12.540   7.731
  244POPC   NC3 6647   4.489  44.465   9.433
  244POPC   PO4 6648   3.918  44.906   9.548
  244POPC   GL1 6649   4.097  44.726   9.178
  244POPC   GL2 6650   4.378  44.932   9.185
  244POPC   C1A 6651   4.236  44.538   8.765
  244POPC   D2A 6652   4.307  44.340   8.354
  244POPC   C3A 6653   4.214  44.562   7.967
  244POPC   C4A 6654   3.976  44.462   7.618
  244POPC   C1B 6655   4.324   0.035   8.756
  244POPC   C2B 6656   4.380  44.911   8.328
  244POPC   C3B 6657   4.215   0.085   7.941
  244POPC   C4B 6658   4.259  44.883   7.489
  245POPC   NC3 6659  11.131  18.045   9.585
  245POPC   PO4 6660  11.144  18.698   9.506
  245POPC   GL1 6661  11.132  18.370   9.184
  245POPC   GL2 6662  11.476  18.221   9.236
  245POPC   C1A 6663  11.218  18.295   8.756
  245POPC   D2A 6664  11.446  18.514   8.430
  245POPC   C3A 6665  11.284  18.504   8.004
  245POPC   C4A 6666  11.070  18.176   7.778
  245POPC   C1B 6667  11.592  17.985   8.881
  245POPC   C2B 6668  11.738  17.973   8.465
  245POPC   C3B 6669  11.734  18.202   8.106
  245POPC   C4B 6670  11.569  18.119   7.738
  246POPC   NC3 6671  19.756  11.485   9.543
  246POPC   PO4 6672  19.926  10.831   9.634
  246POPC   GL1 6673  19.944  11.094   9.261
  246POPC   GL2 6674  20.117  11.445   9.189
  246POPC   C1A 6675  19.690  11.315   8.920
  246POPC   D2A 6676  19.799  11.473   8.523
  246POPC   C3A 6677  19.530  11.381   8.225
  246POPC   C4A 6678  19.572  11.253   7.812
  246POPC   C1B 6679  20.173  11.167   8.820
  246POPC   C2B 6680  20.111  11.051   8.418
  246POPC   C3B 6681  20.031  11.307   8.071
  246POPC   C4B 6682  20.075  11.083   7.721
  247POPC   NC3 6683   9.494  23.991   9.778
  247POPC   PO4 6684   9.741  23.405   9.555
  247POPC   GL1 6685   9.621  23.543   9.141
  247POPC   GL2 6686   9.383  23.811   9.184
  247POPC   C1A 6687   9.859  23.585   8.748
  247POPC   D2A 6688  10.133  23.603   8.383
  247POPC   C3A 6689   9.884  23.702   8.053
  247POPC   C4A 6690   9.612  23.396   7.872
  247POPC   C1B 6691   9.271  23.812   8.746
  247POPC   C2B 6692   9.335  23.637   8.336
  247POPC   C3B 6693   9.304  23.801   7.922
  247POPC   C4B 6694   9.642  24.010   7.728
  248POPC   NC3 6695  13.461   8.658   9.659
  248POPC   PO4 6696  13.888   9.235   9.705
  248POPC   GL1 6697  13.731   9.111   9.293
  248POPC   GL2 6698  13.429   8.917   9.210
  248POPC   C1A 6699  13.682   9.277   8.881
  248POPC   D2A 6700  13.593   9.313   8.449
  248POPC   C3A 6701  13.781   9.091   8.101
  248POPC   C4A 6702  13.733   9.236   7.691
  248POPC   C1B 6703  13.563   8.775   8.800
  248POPC   C2B 6704  13.438   8.745   8.362
  248POPC   C3B 6705  13.390   8.828   7.912
  248POPC   C4B 6706  13.694   8.746   7.598
  249POPC   NC3 6707   0.721  41.457   9.599
  249POPC   PO4 6708   0.184  41.677   9.476
  249POPC   GL1 6709   0.480  41.539   9.148
  249POPC   GL2 6710   0.713  41.212   9.167
  249POPC   C1A 6711   0.714  41.719   8.783
  249POPC   D2A 6712   0.765  41.898   8.374
  249POPC   C3A 6713   0.461  41.785   8.063
  249POPC   C4A 6714   0.672  41.772   7.758
  249POPC   C1B 6715   0.536  41.223   8.768
  249POPC   C2B 6716   0.474  41.410   8.408
  249POPC   C3B 6717   0.561  41.276   8.017
  249POPC   C4B 6718   0.792  40.993   7.849
  250POPC   NC3 6719  10.403  29.460   9.315
  250POPC   PO4 6720  10.723  29.800   9.840
  250POPC   GL1 6721  10.608  29.924   9.375
  250POPC   GL2 6722  10.666  30.283   9.349
  250POPC   C1A 6723  10.475  29.883   8.865
  250POPC   D2A 6724  10.776  29.873   8.498
  250POPC   C3A 6725  10.627  29.906   8.047
  250POPC   C4A 6726  10.214  29.751   7.918
  250POPC   C1B 6727  10.718  30.311   8.904
  250POPC   C2B 6728  10.556  30.348   8.465
  250POPC   C3B 6729  10.716  30.429   8.059
  250POPC   C4B 6730  10.860  30.379   7.662
  251POPC   NC3 6731   4.281  15.632   9.367
  251POPC   PO4 6732   4.385  16.243   9.363
  251POPC   GL1 6733   4.460  15.997   9.053
  251POPC   GL2 6734   4.655  15.683   9.028
  251POPC   C1A 6735   4.233  15.841   8.716
  251POPC   D2A 6736   4.025  16.020   8.387
  251POPC   C3A 6737   4.247  15.900   8.050
  251POPC   C4A 6738   4.070  15.921   7.665
  251POPC   C1B 6739   4.811  16.000   8.710
  251POPC   C2B 6740   4.711  15.918   8.321
  251POPC   C3B 6741   4.777  15.764   7.939
  251POPC   C4B 6742   4.582  15.963   7.654
  252POPC   NC3 6743  42.098  32.814   9.538
  252POPC   PO4 6744  42.595  33.254   9.566
  252POPC   GL1 6745  42.366  33.146   9.231
  252POPC   GL2 6746  42.507  32.836   9.178
  252POPC   C1A 6747  42.437  33.244   8.814
  252POPC   D2A 6748  42.583  33.397   8.439
  252POPC   C3A 6749  42.484  33.185   8.125
  252POPC   C4A 6750  42.167  33.211   7.845
  252POPC   C1B 6751  42.151  32.821   8.874
  252POPC   C2B 6752  42.107  33.024   8.465
  252POPC   C3B 6753  42.119  32.769   8.108
  252POPC   C4B 6754  42.211  32.717   7.692
  253POPC   NC3 6755  22.118  31.211   9.558
  253POPC   PO4 6756  22.418  31.840   9.665
  253POPC   GL1 6757  22.141  31.740   9.253
  253POPC   GL2 6758  22.232  31.415   9.118
  253POPC   C1A 6759  21.970  31.691   8.777
  253POPC   D2A 6760  22.150  31.639   8.303
  253POPC   C3A 6761  21.901  31.548   7.904
  253POPC   C4A 6762  21.931  31.757   7.487
  253POPC   C1B 6763  22.427  31.421   8.721
  253POPC   C2B 6764  22.716  31.231   8.449
  253POPC   C3B 6765  22.742  31.397   8.061
  253POPC   C4B 6766  22.373  31.361   7.801
  254POPC   NC3 6767  21.789  20.911   9.545
  254POPC   PO4 6768  22.406  20.567   9.506
  254POPC   GL1 6769  22.275  20.516   9.101
  254POPC   GL2 6770  22.084  20.794   9.155
  254POPC   C1A 6771  22.320  20.600   8.654
  254POPC   D2A 6772  22.262  20.953   8.347
  254POPC   C3A 6773  22.236  20.871   7.918
  254POPC   C4A 6774  22.196  20.515   7.687
  254POPC   C1B 6775  22.125  21.042   8.821
  254POPC   C2B 6776  21.807  21.088   8.539
  254POPC   C3B 6777  21.735  21.043   8.107
  254POPC   C4B 6778  21.883  21.157   7.708
  255POPC   NC3 6779  30.417  33.902   9.374
  255POPC   PO4 6780  31.023  34.161   9.622
  255POPC   GL1 6781  30.794  34.383   9.275
  255POPC   GL2 6782  30.424  34.407   9.259
  255POPC   C1A 6783  30.699  34.670   8.916
  255POPC   D2A 6784  30.591  34.633   8.478
  255POPC   C3A 6785  30.805  34.420   8.145
  255POPC   C4A 6786  30.817  34.620   7.734
  255POPC   C1B 6787  30.288  34.349   8.808
  255POPC   C2B 6788  30.240  34.274   8.353
  255POPC   C3B 6789  30.364  34.481   7.958
  255POPC   C4B 6790  30.418  34.398   7.458
  256POPC   NC3 6791  24.971  44.666   9.529
  256POPC   PO4 6792  25.557   0.002   9.370
  256POPC   GL1 6793  25.197  44.910   9.095
  256POPC   GL2 6794  24.963   0.207   9.130
  256POPC   C1A 6795  25.255  44.594   8.736
  256POPC   D2A 6796  25.509  44.266   8.468
  256POPC   C3A 6797  25.410  44.323   8.041
  256POPC   C4A 6798  25.579  44.549   7.681
  256POPC   C1B 6799  24.853  44.975   8.714
  256POPC   C2B 6800  25.013  44.779   8.287
  256POPC   C3B 6801  25.074  44.669   7.818
  256POPC   C4B 6802  24.887  44.531   7.405
  257POPC   NC3 6803  25.675  13.947   9.455
  257POPC   PO4 6804  25.053  13.613   9.541
  257POPC   GL1 6805  25.307  13.643   9.181
  257POPC   GL2 6806  25.399  13.314   9.029
  257POPC   C1A 6807  25.366  13.788   8.764
  257POPC   D2A 6808  25.107  13.703   8.425
  257POPC   C3A 6809  25.205  13.599   8.047
  257POPC   C4A 6810  25.127  13.864   7.740
  257POPC   C1B 6811  25.470  13.340   8.574
  257POPC   C2B 6812  25.516  13.203   8.158
  257POPC   C3B 6813  25.465  13.310   7.725
  257POPC   C4B 6814  25.619  13.214   7.286
  258POPC   NC3 6815  20.772  34.088   9.321
  258POPC   PO4 6816  20.697  34.701   9.549
  258POPC   GL1 6817  20.611  34.558   9.147
  258POPC   GL2 6818  20.456  34.870   9.072
  258POPC   C1A 6819  20.526  34.478   8.710
  258POPC   D2A 6820  20.708  34.744   8.379
  258POPC   C3A 6821  20.595  34.641   7.949
  258POPC   C4A 6822  20.841  34.315   7.720
  258POPC   C1B 6823  20.222  34.886   8.693
  258POPC   C2B 6824  20.197  34.757   8.283
  258POPC   C3B 6825  20.200  34.974   7.890
  258POPC   C4B 6826  20.475  35.070   7.543
  259POPC   NC3 6827  26.677  31.123   9.880
  259POPC   PO4 6828  26.662  30.719   9.452
  259POPC   GL1 6829  26.817  30.687   9.028
  259POPC   GL2 6830  27.188  30.758   8.962
  259POPC   C1A 6831  26.791  30.504   8.622
  259POPC   D2A 6832  26.817  30.848   8.321
  259POPC   C3A 6833  26.759  30.740   7.892
  259POPC   C4A 6834  26.665  30.956   7.499
  259POPC   C1B 6835  27.293  30.493   8.622
  259POPC   C2B 6836  27.224  30.594   8.218
  259POPC   C3B 6837  27.214  30.521   7.828
  259POPC   C4B 6838  27.165  30.864   7.538
  260POPC   NC3 6839   9.207  31.123   9.448
  260POPC   PO4 6840   8.736  31.556   9.497
  260POPC   GL1 6841   9.031  31.622   9.171
  260POPC   GL2 6842   9.338  31.701   9.058
  260POPC   C1A 6843   8.961  31.643   8.723
  260POPC   D2A 6844   8.591  31.606   8.489
  260POPC   C3A 6845   8.581  31.439   8.085
  260POPC   C4A 6846   8.819  31.625   7.757
  260POPC   C1B 6847   9.348  31.288   8.839
  260POPC   C2B 6848   9.083  31.180   8.514
  260POPC   C3B 6849   9.077  31.471   8.191
  260POPC   C4B 6850   9.293  31.385   7.816
  261POPC   NC3 6851  32.673  44.058   9.764
  261POPC   PO4 6852  31.996  43.816   9.591
  261POPC   GL1 6853  32.121  44.074   9.231
  261POPC   GL2 6854  31.854  44.350   9.108
  261POPC   C1A 6855  32.176  43.814   8.839
  261POPC   D2A 6856  32.423  43.751   8.464
  261POPC   C3A 6857  32.217  43.757   8.058
  261POPC   C4A 6858  32.302  43.566   7.685
  261POPC   C1B 6859  32.137  44.325   8.778
  261POPC   C2B 6860  32.133  44.179   8.352
  261POPC   C3B 6861  32.355  44.319   7.988
  261POPC   C4B 6862  32.429  44.057   7.648
  262POPC   NC3 6863   8.935  35.522   9.426
  262POPC   PO4 6864   9.202  34.799   9.374
  262POPC   GL1 6865   9.162  35.180   9.124
  262POPC   GL2 6866   8.833  35.079   9.117
  262POPC   C1A 6867   9.041  35.535   8.791
  262POPC   D2A 6868   8.982  35.793   8.383
  262POPC   C3A 6869   9.033  35.535   7.999
  262POPC   C4A 6870   8.832  35.543   7.563
  262POPC   C1B 6871   8.830  35.097   8.678
  262POPC   C2B 6872   8.643  35.390   8.381
  262POPC   C3B 6873   8.600  35.299   7.964
  262POPC   C4B 6874   8.955  35.054   7.825
  263POPC   NC3 6875  30.941   1.877   9.525
  263POPC   PO4 6876  31.553   2.079   9.741
  263POPC   GL1 6877  31.559   2.117   9.300
  263POPC   GL2 6878  31.342   1.824   9.146
  263POPC   C1A 6879  31.595   2.153   8.853
  263POPC   D2A 6880  31.502   1.864   8.500
  263POPC   C3A 6881  31.396   1.947   8.066
  263POPC   C4A 6882  31.658   1.983   7.702
  263POPC   C1B 6883  31.068   1.996   8.779
  263POPC   C2B 6884  30.821   1.808   8.417
  263POPC   C3B 6885  30.882   1.704   7.956
  263POPC   C4B 6886  31.239   1.680   7.632
  264POPC   NC3 6887  20.862   7.227   9.508
  264POPC   PO4 6888  21.195   7.811   9.565
  264POPC   GL1 6889  21.413   7.574   9.242
  264POPC   GL2 6890  21.288   7.226   9.229
  264POPC   C1A 6891  21.417   7.507   8.803
  264POPC   D2A 6892  21.336   7.693   8.404
  264POPC   C3A 6893  21.567   7.491   8.082
  264POPC   C4A 6894  21.764   7.615   7.727
  264POPC   C1B 6895  21.122   7.082   8.839
  264POPC   C2B 6896  21.251   7.194   8.411
  264POPC   C3B 6897  21.064   7.446   8.060
  264POPC   C4B 6898  21.210   7.287   7.698
  265POPC   NC3 6899  13.696  16.064   9.509
  265POPC   PO4 6900  14.048  15.485   9.446
  265POPC   GL1 6901  13.910  15.800   9.112
  265POPC   GL2 6902  13.532  15.898   9.070
  265POPC   C1A 6903  13.831  15.963   8.669
  265POPC   D2A 6904  13.578  15.988   8.286
  265POPC   C3A 6905  13.851  15.972   7.948
  265POPC   C4A 6906  13.968  16.005   7.502
  265POPC   C1B 6907  13.427  16.290   8.833
  265POPC   C2B 6908  13.145  16.473   8.522
  265POPC   C3B 6909  13.175  16.313   8.108
  265POPC   C4B 6910  13.390  16.097   7.766
  266POPC   NC3 6911  10.682  18.589   9.341
  266POPC   PO4 6912  10.408  19.145   9.661
  266POPC   GL1 6913  10.710  19.107   9.301
  266POPC   GL2 6914  10.407  19.056   9.134
  266POPC   C1A 6915  10.812  19.251   8.847
  266POPC   D2A 6916  10.702  19.176   8.386
  266POPC   C3A 6917  10.320  19.342   8.137
  266POPC   C4A 6918  10.165  19.483   7.695
  266POPC   C1B 6919  10.515  18.843   8.761
  266POPC   C2B 6920  10.479  18.700   8.360
  266POPC   C3B 6921  10.515  18.899   7.967
  266POPC   C4B 6922  10.150  18.950   7.712
  267POPC   NC3 6923  35.178  37.738   9.584
  267POPC   PO4 6924  35.825  37.954   9.491
  267POPC   GL1 6925  35.545  37.669   9.229
  267POPC   GL2 6926  35.219  37.824   9.085
  267POPC   C1A 6927  35.488  37.494   8.820
  267POPC   D2A 6928  35.343  37.653   8.445
  267POPC   C3A 6929  35.515  37.455   8.094
  267POPC   C4A 6930  35.266  37.488   7.720
  267POPC   C1B 6931  35.547  38.014   8.836
  267POPC   C2B 6932  35.613  38.097   8.402
  267POPC   C3B 6933  35.478  37.949   7.996
  267POPC   C4B 6934  35.780  38.115   7.740
  268POPC   NC3 6935   9.946  18.210   9.519
  268POPC   PO4 6936   9.494  18.626   9.376
  268POPC   GL1 6937   9.754  18.366   9.082
  268POPC   GL2 6938   9.568  18.107   9.119
  268POPC   C1A 6939   9.851  18.069   8.711
  268POPC   D2A 6940   9.646  18.059   8.297
  268POPC   C3A 6941   9.881  18.091   7.933
  268POPC   C4A 6942  10.008  18.328   7.578
  268POPC   C1B 6943   9.420  18.330   8.710
  268POPC   C2B 6944   9.483  18.547   8.350
  268POPC   C3B 6945   9.649  18.541   7.956
  268POPC   C4B 6946   9.440  18.314   7.667
  269POPC   NC3 6947  28.846  14.995   9.399
  269POPC   PO4 6948  29.445  15.416   9.490
  269POPC   GL1 6949  29.309  15.129   9.186
  269POPC   GL2 6950  29.043  15.263   9.019
  269POPC   C1A 6951  29.398  15.012   8.760
  269POPC   D2A 6952  29.083  15.099   8.458
  269POPC   C3A 6953  29.227  15.014   8.053
  269POPC   C4A 6954  29.039  14.947   7.678
  269POPC   C1B 6955  28.866  15.559   8.750
  269POPC   C2B 6956  28.739  15.485   8.343
  269POPC   C3B 6957  28.709  15.189   8.045
  269POPC   C4B 6958  28.715  15.385   7.648
  270POPC   NC3 6959  27.518   1.709   9.526
  270POPC   PO4 6960  28.004   2.082   9.511
  270POPC   GL1 6961  27.711   2.019   9.175
  270POPC   GL2 6962  27.480   2.247   9.083
  270POPC   C1A 6963  27.618   1.781   8.793
  270POPC   D2A 6964  27.576   1.554   8.371
  270POPC   C3A 6965  27.468   1.819   7.976
  270POPC   C4A 6966  27.489   2.049   7.536
  270POPC   C1B 6967  27.815   2.251   8.740
  270POPC   C2B 6968  27.746   2.082   8.342
  270POPC   C3B 6969  27.674   2.298   7.973
  270POPC   C4B 6970  27.257   2.376   7.870
  271POPC   NC3 6971   9.187  14.950   9.514
  271POPC   PO4 6972   8.822  15.484   9.517
  271POPC   GL1 6973   8.924  15.187   9.149
  271POPC   GL2 6974   9.245  15.305   9.064
  271POPC   C1A 6975   8.980  15.133   8.659
  271POPC   D2A 6976   9.141  14.956   8.233
  271POPC   C3A 6977   8.884  14.963   7.838
  271POPC   C4A 6978   8.711  15.091   7.429
  271POPC   C1B 6979   8.890  15.596   8.859
  271POPC   C2B 6980   8.696  15.591   8.475
  271POPC   C3B 6981   8.830  15.428   8.088
  271POPC   C4B 6982   8.602  15.496   7.731
  272POPC   NC3 6983  33.337  18.097   9.507
  272POPC   PO4 6984  32.770  18.519   9.631
  272POPC   GL1 6985  32.999  18.404   9.213
  272POPC   GL2 6986  33.112  18.092   9.048
  272POPC   C1A 6987  32.863  18.431   8.783
  272POPC   D2A 6988  32.969  18.216   8.418
  272POPC   C3A 6989  32.894  18.492   8.082
  272POPC   C4A 6990  32.927  18.501   7.651
  272POPC   C1B 6991  33.365  18.397   8.774
  272POPC   C2B 6992  33.288  18.632   8.397
  272POPC   C3B 6993  33.397  18.443   8.011
  272POPC   C4B 6994  33.304  18.116   7.735
  273POPC   NC3 6995  15.622  23.696   9.596
  273POPC   PO4 6996  15.094  23.241   9.572
  273POPC   GL1 6997  15.045  23.489   9.186
  273POPC   GL2 6998  15.253  23.778   9.231
  273POPC   C1A 6999  14.976  23.695   8.790
  273POPC   D2A 7000  14.833  23.583   8.386
  273POPC   C3A 7001  14.911  23.833   8.028
  273POPC   C4A 7002  14.758  23.619   7.639
  273POPC   C1B 7003  15.448  23.910   8.830
  273POPC   C2B 7004  15.364  23.752   8.408
  273POPC   C3B 7005  15.512  23.550   8.033
  273POPC   C4B 7006  15.293  23.769   7.696
  274POPC   NC3 7007   7.914  18.324   9.665
  274POPC   PO4 7008   7.204  18.103   9.531
  274POPC   GL1 7009   7.356  18.201   9.155
  274POPC   GL2 7010   7.549  18.466   9.284
  274POPC   C1A 7011   7.239  18.329   8.742
  274POPC   D2A 7012   7.499  18.271   8.369
  274POPC   C3A 7013   7.292  18.398   8.041
  274POPC   C4A 7014   7.170  18.214   7.678
  274POPC   C1B 7015   7.680  18.516   8.856
  274POPC   C2B 7016   7.896  18.565   8.482
  274POPC   C3B 7017   7.798  18.608   8.051
  274POPC   C4B 7018   7.577  18.546   7.657
  275POPC   NC3 7019  29.685  12.266   9.960
  275POPC   PO4 7020  30.157  11.968   9.606
  275POPC   GL1 7021  29.865  12.048   9.243
  275POPC   GL2 7022  29.628  12.346   9.269
  275POPC   C1A 7023  29.678  11.958   8.830
  275POPC   D2A 7024  29.473  11.913   8.413
  275POPC   C3A 7025  29.720  11.969   8.033
  275POPC   C4A 7026  29.776  11.697   7.688
  275POPC   C1B 7027  29.660  12.468   8.831
  275POPC   C2B 7028  29.789  12.339   8.422
  275POPC   C3B 7029  29.677  12.481   7.993
  275POPC   C4B 7030  29.936  12.480   7.625
  276POPC   NC3 7031  32.741  24.706   9.486
  276POPC   PO4 7032  33.133  24.196   9.539
  276POPC   GL1 7033  33.360  24.343   9.152
  276POPC   GL2 7034  33.137  24.632   9.127
  276POPC   C1A 7035  33.376  24.271   8.718
  276POPC   D2A 7036  33.126  24.559   8.498
  276POPC   C3A 7037  33.244  24.539   8.097
  276POPC   C4A 7038  33.152  24.562   7.685
  276POPC   C1B 7039  32.786  24.748   8.830
  276POPC   C2B 7040  32.803  24.974   8.444
  276POPC   C3B 7041  32.816  24.821   8.018
  276POPC   C4B 7042  32.688  24.748   7.574
  277POPC   NC3 7043   4.575  39.881   9.406
  277POPC   PO4 7044   4.066  40.391   9.605
  277POPC   GL1 7045   4.008  40.180   9.199
  277POPC   GL2 7046   4.345  40.248   9.134
  277POPC   C1A 7047   4.042  39.947   8.775
  277POPC   D2A 7048   4.418  39.953   8.560
  277POPC   C3A 7049   4.417  39.919   8.117
  277POPC   C4A 7050   4.068  39.852   7.850
  277POPC   C1B 7051   4.183  40.432   8.737
  277POPC   C2B 7052   4.141  40.306   8.300
  277POPC   C3B 7053   4.200  40.363   7.852
  277POPC   C4B 7054   4.207  40.209   7.404
  278POPC   NC3 7055  42.440  42.685   9.424
  278POPC   PO4 7056  42.039  42.107   9.508
  278POPC   GL1 7057  42.388  42.212   9.227
  278POPC   GL2 7058  42.167  42.395   9.048
  278POPC   C1A 7059  42.631  42.214   8.848
  278POPC   D2A 7060  42.616  42.035   8.459
  278POPC   C3A 7061  42.440  42.255   8.095
  278POPC   C4A 7062  42.627  42.049   7.738
  278POPC   C1B 7063  42.211  42.371   8.608
  278POPC   C2B 7064  42.061  42.598   8.284
  278POPC   C3B 7065  42.187  42.748   7.908
  278POPC   C4B 7066  42.333  42.460   7.575
  279POPC   NC3 7067  17.669  26.652   9.480
  279POPC   PO4 7068  17.272  27.179   9.484
  279POPC   GL1 7069  17.246  26.832   9.210
  279POPC   GL2 7070  17.535  26.988   9.069
  279POPC   C1A 7071  17.225  26.645   8.791
  279POPC   D2A 7072  17.395  26.777   8.404
  279POPC   C3A 7073  17.222  26.660   8.019
  279POPC   C4A 7074  17.349  26.892   7.680
  279POPC   C1B 7075  17.748  26.789   8.758
  279POPC   C2B 7076  17.942  26.694   8.384
  279POPC   C3B 7077  17.748  26.834   8.024
  279POPC   C4B 7078  17.893  26.768   7.645
  280POPC   NC3 7079  39.371  34.049   9.516
  280POPC   PO4 7080  39.296  33.480   9.780
  280POPC   GL1 7081  39.416  33.572   9.262
  280POPC   GL2 7082  39.454  33.904   9.046
  280POPC   C1A 7083  39.483  33.489   8.792
  280POPC   D2A 7084  39.622  33.723   8.422
  280POPC   C3A 7085  39.373  33.694   8.064
  280POPC   C4A 7086  39.285  33.936   7.718
  280POPC   C1B 7087  39.117  33.852   8.729
  280POPC   C2B 7088  38.951  33.957   8.334
  280POPC   C3B 7089  38.814  33.914   7.912
  280POPC   C4B 7090  38.865  34.169   7.527
  281POPC   NC3 7091  31.274  29.544   9.475
  281POPC   PO4 7092  31.749  29.996   9.278
  281POPC   GL1 7093  31.418  30.100   9.075
  281POPC   GL2 7094  31.277  29.793   9.040
  281POPC   C1A 7095  31.470  30.006   8.622
  281POPC   D2A 7096  31.477  30.241   8.244
  281POPC   C3A 7097  31.679  30.013   7.905
  281POPC   C4A 7098  31.690  29.567   7.797
  281POPC   C1B 7099  31.063  29.623   8.685
  281POPC   C2B 7100  31.298  29.636   8.297
  281POPC   C3B 7101  31.176  29.745   7.891
  281POPC   C4B 7102  30.929  30.090   7.751
  282POPC   NC3 7103  29.167  39.006   9.596
  282POPC   PO4 7104  29.513  39.571   9.344
  282POPC   GL1 7105  29.276  39.402   9.048
  282POPC   GL2 7106  29.023  39.243   9.170
  282POPC   C1A 7107  29.162  39.333   8.621
  282POPC   D2A 7108  29.376  39.507   8.250
  282POPC   C3A 7109  29.219  39.320   7.867
  282POPC   C4A 7110  29.194  39.299   7.378
  282POPC   C1B 7111  28.896  38.934   8.879
  282POPC   C2B 7112  28.993  38.797   8.470
  282POPC   C3B 7113  28.916  38.796   8.027
  282POPC   C4B 7114  29.110  38.873   7.647
  283POPC   NC3 7115  18.865  33.275   9.446
  283POPC   PO4 7116  19.287  32.732   9.607
  283POPC   GL1 7117  19.352  32.857   9.179
  283POPC   GL2 7118  19.369  33.229   9.228
  283POPC   C1A 7119  19.165  32.671   8.784
  283POPC   D2A 7120  18.997  32.816   8.370
  283POPC   C3A 7121  19.267  32.740   8.027
  283POPC   C4A 7122  19.246  32.664   7.591
  283POPC   C1B 7123  19.123  33.204   8.827
  283POPC   C2B 7124  19.090  33.336   8.409
  283POPC   C3B 7125  19.251  33.249   8.031
  283POPC   C4B 7126  18.979  33.076   7.753
  284POPC   NC3 7127  16.324  11.833   9.494
  284POPC   PO4 7128  15.631  11.944   9.388
  284POPC   GL1 7129  15.905  12.188   9.111
  284POPC   GL2 7130  16.270  12.144   9.085
  284POPC   C1A 7131  15.944  12.318   8.679
  284POPC   D2A 7132  16.146  12.261   8.283
  284POPC   C3A 7133  15.945  12.394   7.904
  284POPC   C4A 7134  15.793  12.197   7.534
  284POPC   C1B 7135  16.150  11.826   8.782
  284POPC   C2B 7136  16.305  11.761   8.366
  284POPC   C3B 7137  16.287  11.908   7.949
  284POPC   C4B 7138  16.011  11.772   7.651
  285POPC   NC3 7139  20.304   1.613   9.721
  285POPC   PO4 7140  20.601   2.142   9.544
  285POPC   GL1 7141  20.620   1.964   9.163
  285POPC   GL2 7142  20.824   1.702   9.088
  285POPC   C1A 7143  20.765   2.093   8.771
  285POPC   D2A 7144  20.683   1.915   8.393
  285POPC   C3A 7145  20.762   2.158   8.069
  285POPC   C4A 7146  20.689   2.208   7.621
  285POPC   C1B 7147  20.606   1.534   8.740
  285POPC   C2B 7148  20.541   1.434   8.289
  285POPC   C3B 7149  20.487   1.740   7.935
  285POPC   C4B 7150  20.597   1.732   7.477
  286POPC   NC3 7151  33.057  36.497   9.573
  286POPC   PO4 7152  33.041  35.915   9.721
  286POPC   GL1 7153  32.902  36.089   9.264
  286POPC   GL2 7154  32.819  35.762   9.161
  286POPC   C1A 7155  32.893  36.256   8.779
  286POPC   D2A 7156  32.749  36.137   8.314
  286POPC   C3A 7157  32.958  36.334   7.965
  286POPC   C4A 7158  33.385  36.335   7.793
  286POPC   C1B 7159  32.708  35.794   8.734
  286POPC   C2B 7160  32.963  35.693   8.372
  286POPC   C3B 7161  33.103  35.790   7.927
  286POPC   C4B 7162  32.941  35.569   7.518
  287POPC   NC3 7163  17.323  14.138   9.535
  287POPC   PO4 7164  17.610  13.530   9.492
  287POPC   GL1 7165  17.406  13.503   9.097
  287POPC   GL2 7166  17.248  13.803   9.179
  287POPC   C1A 7167  17.465  13.460   8.646
  287POPC   D2A 7168  17.614  13.169   8.372
  287POPC   C3A 7169  17.424  13.312   8.039
  287POPC   C4A 7170  17.315  13.466   7.673
  287POPC   C1B 7171  17.476  13.935   8.814
  287POPC   C2B 7172  17.332  13.975   8.407
  287POPC   C3B 7173  17.356  13.868   7.977
  287POPC   C4B 7174  17.528  13.925   7.566
  288POPC   NC3 7175  33.780  27.969   9.534
  288POPC   PO4 7176  33.952  27.281   9.488
  288POPC   GL1 7177  33.969  27.585   9.185
  288POPC   GL2 7178  33.616  27.651   9.182
  288POPC   C1A 7179  34.141  27.734   8.802
  288POPC   D2A 7180  34.057  27.870   8.394
  288POPC   C3A 7181  34.026  27.618   8.061
  288POPC   C4A 7182  33.684  27.533   7.784
  288POPC   C1B 7183  33.383  27.843   8.852
  288POPC   C2B 7184  33.564  27.949   8.452
  288POPC   C3B 7185  33.654  28.026   8.037
  288POPC   C4B 7186  33.426  27.988   7.653
  289POPC   NC3 7187  44.944  32.987   9.560
  289POPC   PO4 7188  44.294  32.907   9.630
  289POPC   GL1 7189  44.535  32.933   9.217
  289POPC   GL2 7190  44.216  32.878   9.119
  289POPC   C1A 7191  44.684  33.115   8.776
  289POPC   D2A 7192   0.075  33.149   8.419
  289POPC   C3A 7193  44.954  33.109   7.944
  289POPC   C4A 7194  44.578  33.304   7.734
  289POPC   C1B 7195  44.278  32.734   8.750
  289POPC   C2B 7196  44.249  32.976   8.415
  289POPC   C3B 7197  44.487  32.957   8.090
  289POPC   C4B 7198  44.536  32.778   7.676
  290POPC   NC3 7199  43.781  17.912   9.517
  290POPC   PO4 7200  44.086  17.317   9.617
  290POPC   GL1 7201  44.033  17.539   9.222
  290POPC   GL2 7202  43.696  17.507   9.200
  290POPC   C1A 7203  43.919  17.371   8.781
  290POPC   D2A 7204  43.991  17.527   8.397
  290POPC   C3A 7205  43.931  17.331   8.061
  290POPC   C4A 7206  43.886  17.495   7.697
  290POPC   C1B 7207  43.620  17.823   8.898
  290POPC   C2B 7208  43.542  17.808   8.468
  290POPC   C3B 7209  43.715  17.845   8.061
  290POPC   C4B 7210  43.525  17.868   7.646
  291POPC   NC3 7211  27.601  31.586   9.854
  291POPC   PO4 7212  27.984  31.992   9.414
  291POPC   GL1 7213  27.596  31.667   9.253
  291POPC   GL2 7214  27.464  31.307   9.322
  291POPC   C1A 7215  27.284  31.498   8.884
  291POPC   D2A 7216  27.312  31.609   8.433
  291POPC   C3A 7217  27.500  31.533   8.003
  291POPC   C4A 7218  27.522  31.695   7.536
  291POPC   C1B 7219  27.744  31.297   8.920
  291POPC   C2B 7220  27.806  31.289   8.458
  291POPC   C3B 7221  27.883  31.075   8.072
  291POPC   C4B 7222  27.833  31.311   7.670
  292POPC   NC3 7223  38.880   9.192   9.557
  292POPC   PO4 7224  39.562   8.831   9.562
  292POPC   GL1 7225  39.249   8.746   9.271
  292POPC   GL2 7226  39.248   9.094   9.184
  292POPC   C1A 7227  39.203   8.678   8.835
  292POPC   D2A 7228  39.453   8.892   8.523
  292POPC   C3A 7229  39.370   8.793   8.110
  292POPC   C4A 7230  39.123   8.662   7.765
  292POPC   C1B 7231  39.109   9.193   8.765
  292POPC   C2B 7232  39.049   9.151   8.302
  292POPC   C3B 7233  39.059   9.156   7.858
  292POPC   C4B 7234  39.460   9.334   7.771
  293POPC   NC3 7235  18.439  41.288   9.356
  293POPC   PO4 7236  18.322  41.853   9.669
  293POPC   GL1 7237  18.131  41.730   9.279
  293POPC   GL2 7238  18.414  41.885   9.155
  293POPC   C1A 7239  18.162  41.594   8.835
  293POPC   D2A 7240  18.046  41.442   8.462
  293POPC   C3A 7241  18.317  41.401   8.166
  293POPC   C4A 7242  18.026  41.521   7.897
  293POPC   C1B 7243  18.613  41.890   8.776
  293POPC   C2B 7244  18.426  41.864   8.389
  293POPC   C3B 7245  18.553  41.811   7.992
  293POPC   C4B 7246  18.652  41.948   7.617
  294POPC   NC3 7247   2.175  32.441   9.677
  294POPC   PO4 7248   1.675  31.973   9.525
  294POPC   GL1 7249   1.730  31.949   9.109
  294POPC   GL2 7250   2.068  32.069   9.094
  294POPC   C1A 7251   1.767  32.111   8.692
  294POPC   D2A 7252   1.984  32.329   8.404
  294POPC   C3A 7253   1.893  32.539   8.036
  294POPC   C4A 7254   1.639  32.466   7.705
  294POPC   C1B 7255   2.234  32.458   8.840
  294POPC   C2B 7256   2.474  32.474   8.422
  294POPC   C3B 7257   2.338  32.214   8.059
  294POPC   C4B 7258   2.270  32.373   7.666
  295POPC   NC3 7259  10.532   9.711   9.569
  295POPC   PO4 7260  10.748  10.300   9.554
  295POPC   GL1 7261  10.495  10.075   9.163
  295POPC   GL2 7262  10.590   9.715   9.068
  295POPC   C1A 7263  10.378   9.935   8.662
  295POPC   D2A 7264  10.336   9.890   8.172
  295POPC   C3A 7265  10.438   9.469   8.002
  295POPC   C4A 7266  10.528   9.236   7.612
  295POPC   C1B 7267  10.900   9.733   8.712
  295POPC   C2B 7268  11.055  10.020   8.393
  295POPC   C3B 7269  10.899  10.063   7.985
  295POPC   C4B 7270  10.662   9.816   7.707
  296POPC   NC3 7271  40.407  19.988   9.425
  296POPC   PO4 7272  39.726  20.047   9.440
  296POPC   GL1 7273  39.977  19.748   9.194
  296POPC   GL2 7274  39.772  19.455   9.075
  296POPC   C1A 7275  40.212  19.763   8.783
  296POPC   D2A 7276  40.336  19.980   8.393
  296POPC   C3A 7277  40.165  19.762   8.020
  296POPC   C4A 7278  39.980  19.886   7.622
  296POPC   C1B 7279  39.596  19.271   8.699
  296POPC   C2B 7280  39.686  19.279   8.237
  296POPC   C3B 7281  39.668  19.599   7.895
  296POPC   C4B 7282  39.527  19.718   7.464
  297POPC   NC3 7283   9.667  39.470   9.613
  297POPC   PO4 7284  10.072  38.997   9.451
  297POPC   GL1 7285   9.889  39.335   9.158
  297POPC   GL2 7286   9.539  39.493   9.125
  297POPC   C1A 7287   9.752  39.210   8.751
  297POPC   D2A 7288   9.904  39.038   8.380
  297POPC   C3A 7289   9.703  39.133   7.998
  297POPC   C4A 7290   9.780  39.512   7.780
  297POPC   C1B 7291   9.584  39.686   8.715
  297POPC   C2B 7292   9.337  39.799   8.346
  297POPC   C3B 7293   9.315  39.705   7.885
  297POPC   C4B 7294   9.334  39.375   7.571
  298POPC   NC3 7295  44.133  18.514   9.577
  298POPC   PO4 7296  43.498  18.287   9.479
  298POPC   GL1 7297  43.752  18.289   9.107
  298POPC   GL2 7298  44.038  18.067   9.113
  298POPC   C1A 7299  43.782  18.255   8.647
  298POPC   D2A 7300  43.793  18.446   8.225
  298POPC   C3A 7301  43.651  18.332   7.799
  298POPC   C4A 7302  43.734  18.217   7.340
  298POPC   C1B 7303  44.120  17.853   8.760
  298POPC   C2B 7304  44.167  18.033   8.349
  298POPC   C3B 7305  44.233  18.269   7.993
  298POPC   C4B 7306  44.043  18.013   7.689
  299POPC   NC3 7307  24.773  18.762   9.544
  299POPC   PO4 7308  24.208  19.091   9.511
  299POPC   GL1 7309  24.479  19.202   9.155
  299POPC   GL2 7310  24.780  19.376   9.266
  299POPC   C1A 7311  24.553  18.974   8.767
  299POPC   D2A 7312  24.581  18.726   8.387
  299POPC   C3A 7313  24.513  18.935   8.009
  299POPC   C4A 7314  24.328  18.804   7.607
  299POPC   C1B 7315  24.883  19.359   8.824
  299POPC   C2B 7316  24.775  19.225   8.380
  299POPC   C3B 7317  24.943  19.195   7.953
  299POPC   C4B 7318  24.827  18.965   7.594
  300POPC   NC3 7319  13.666   5.777   9.411
  300POPC   PO4 7320  13.369   6.305   9.484
  300POPC   GL1 7321  13.578   6.213   9.125
  300POPC   GL2 7322  13.338   5.986   9.026
  300POPC   C1A 7323  13.566   6.299   8.690
  300POPC   D2A 7324  13.477   6.040   8.320
  300POPC   C3A 7325  13.760   5.998   7.990
  300POPC   C4A 7326  13.616   6.162   7.605
  300POPC   C1B 7327  13.605   5.775   8.734
  300POPC   C2B 7328  13.861   5.601   8.394
  300POPC   C3B 7329  13.796   5.467   7.958
  300POPC   C4B 7330  13.733   5.662   7.556
  301POPC   NC3 7331  12.212  13.184   9.465
  301POPC   PO4 7332  12.080  12.538   9.458
  301POPC   GL1 7333  12.200  12.757   9.106
  301POPC   GL2 7334  12.541  12.757   9.202
  301POPC   C1A 7335  12.234  12.714   8.655
  301POPC   D2A 7336  12.366  12.452   8.320
  301POPC   C3A 7337  12.133  12.599   7.990
  301POPC   C4A 7338  11.798  12.937   8.000
  301POPC   C1B 7339  12.513  13.084   8.868
  301POPC   C2B 7340  12.543  13.090   8.451
  301POPC   C3B 7341  12.392  13.037   8.042
  301POPC   C4B 7342  12.547  13.061   7.639
  302POPC   NC3 7343  40.516  35.883   9.783
  302POPC   PO4 7344  40.895  36.347   9.487
  302POPC   GL1 7345  40.646  36.257   9.177
  302POPC   GL2 7346  40.631  35.937   9.273
  302POPC   C1A 7347  40.673  36.311   8.747
  302POPC   D2A 7348  40.804  36.177   8.350
  302POPC   C3A 7349  40.646  36.319   7.952
  302POPC   C4A 7350  41.022  36.276   7.688
  302POPC   C1B 7351  40.632  35.781   8.843
  302POPC   C2B 7352  40.751  35.638   8.422
  302POPC   C3B 7353  40.907  35.774   8.032
  302POPC   C4B 7354  40.690  35.887   7.683
  303POPC   NC3 7355  21.201  34.586   9.686
  303POPC   PO4 7356  21.884  34.477   9.751
  303POPC   GL1 7357  21.535  34.657   9.316
  303POPC   GL2 7358  21.146  34.701   9.216
  303POPC   C1A 7359  21.515  34.548   8.885
  303POPC   D2A 7360  21.573  34.287   8.530
  303POPC   C3A 7361  21.638  34.541   8.155
  303POPC   C4A 7362  21.512  34.589   7.751
  303POPC   C1B 7363  21.010  34.586   8.830
  303POPC   C2B 7364  21.223  34.669   8.469
  303POPC   C3B 7365  21.117  34.543   8.086
  303POPC   C4B 7366  21.033  34.769   7.732
  304POPC   NC3 7367   9.265  17.506   9.462
  304POPC   PO4 7368   9.899  17.727   9.543
  304POPC   GL1 7369   9.933  17.690   9.116
  304POPC   GL2 7370   9.594  17.604   9.064
  304POPC   C1A 7371   9.894  17.554   8.673
  304POPC   D2A 7372   9.725  17.401   8.316
  304POPC   C3A 7373   9.925  17.571   7.970
  304POPC   C4A 7374  10.016  17.338   7.631
  304POPC   C1B 7375   9.384  17.788   8.651
  304POPC   C2B 7376   9.326  17.685   8.166
  304POPC   C3B 7377   9.509  17.807   7.740
  304POPC   C4B 7378   9.294  17.904   7.302
  305POPC   NC3 7379   0.740  18.032   9.335
  305POPC   PO4 7380   1.394  18.230   9.453
  305POPC   GL1 7381   1.395  18.398   9.093
  305POPC   GL2 7382   1.065  18.539   9.159
  305POPC   C1A 7383   1.497  18.255   8.700
  305POPC   D2A 7384   1.270  18.195   8.345
  305POPC   C3A 7385   1.439  18.456   8.057
  305POPC   C4A 7386   1.377  18.304   7.731
  305POPC   C1B 7387   0.931  18.347   8.766
  305POPC   C2B 7388   0.758  18.466   8.376
  305POPC   C3B 7389   0.922  18.365   8.000
  305POPC   C4B 7390   0.896  18.495   7.591
  306POPC   NC3 7391  30.929  18.498   9.367
  306POPC   PO4 7392  30.456  18.068   9.514
  306POPC   GL1 7393  30.495  18.252   9.116
  306POPC   GL2 7394  30.459  18.612   9.199
  306POPC   C1A 7395  30.789  18.236   8.774
  306POPC   D2A 7396  31.048  18.436   8.422
  306POPC   C3A 7397  30.863  18.318   8.029
  306POPC   C4A 7398  30.532  18.356   7.695
  306POPC   C1B 7399  30.365  18.707   8.804
  306POPC   C2B 7400  30.546  18.552   8.466
  306POPC   C3B 7401  30.357  18.407   8.168
  306POPC   C4B 7402  30.179  18.648   7.865
  307POPC   NC3 7403  32.662  12.947   9.513
  307POPC   PO4 7404  32.080  12.616   9.487
  307POPC   GL1 7405  32.407  12.672   9.157
  307POPC   GL2 7406  32.279  13.026   9.160
  307POPC   C1A 7407  32.584  12.958   8.801
  307POPC   D2A 7408  32.381  13.153   8.455
  307POPC   C3A 7409  32.477  13.030   8.038
  307POPC   C4A 7410  32.553  12.979   7.606
  307POPC   C1B 7411  32.083  12.832   8.767
  307POPC   C2B 7412  32.150  12.718   8.306
  307POPC   C3B 7413  31.876  12.576   7.947
  307POPC   C4B 7414  31.858  12.525   7.445
  308POPC   NC3 7415  25.556  26.091   9.488
  308POPC   PO4 7416  26.126  25.921   9.399
  308POPC   GL1 7417  25.829  25.864   9.082
  308POPC   GL2 7418  25.731  26.226   9.029
  308POPC   C1A 7419  25.716  25.892   8.644
  308POPC   D2A 7420  26.030  25.992   8.290
  308POPC   C3A 7421  25.958  26.144   7.919
  308POPC   C4A 7422  25.978  25.945   7.495
  308POPC   C1B 7423  25.891  26.371   8.617
  308POPC   C2B 7424  26.214  26.485   8.308
  308POPC   C3B 7425  26.428  26.362   7.946
  308POPC   C4B 7426  26.214  26.384   7.546
  309POPC   NC3 7427  22.261  17.602   9.646
  309POPC   PO4 7428  21.841  17.138   9.384
  309POPC   GL1 7429  21.985  17.591   9.207
  309POPC   GL2 7430  22.367  17.726   9.086
  309POPC   C1A 7431  21.982  17.670   8.765
  309POPC   D2A 7432  22.214  17.472   8.438
  309POPC   C3A 7433  21.969  17.420   8.093
  309POPC   C4A 7434  22.036  17.587   7.713
  309POPC   C1B 7435  22.414  17.928   8.634
  309POPC   C2B 7436  22.402  17.906   8.208
  309POPC   C3B 7437  22.547  17.719   7.818
  309POPC   C4B 7438  22.703  17.480   7.449
  310POPC   NC3 7439   5.451  27.895   9.304
  310POPC   PO4 7440   4.888  27.584   9.559
  310POPC   GL1 7441   4.839  27.455   9.179
  310POPC   GL2 7442   4.530  27.240   9.133
  310POPC   C1A 7443   5.081  27.598   8.814
  310POPC   D2A 7444   5.335  27.630   8.450
  310POPC   C3A 7445   5.100  27.732   8.081
  310POPC   C4A 7446   5.284  27.868   7.690
  310POPC   C1B 7447   4.699  27.270   8.731
  310POPC   C2B 7448   4.976  27.251   8.413
  310POPC   C3B 7449   4.862  27.276   8.018
  310POPC   C4B 7450   5.038  27.435   7.656
  311POPC   NC3 7451   8.836   3.242   9.471
  311POPC   PO4 7452   9.008   2.529   9.392
  311POPC   GL1 7453   8.882   2.839   9.110
  311POPC   GL2 7454   8.526   2.914   9.050
  311POPC   C1A 7455   8.887   2.995   8.699
  311POPC   D2A 7456   8.847   3.199   8.343
  311POPC   C3A 7457   9.007   2.898   8.070
  311POPC   C4A 7458   8.814   2.850   7.696
  311POPC   C1B 7459   8.559   2.603   8.735
  311POPC   C2B 7460   8.774   2.493   8.375
  311POPC   C3B 7461   8.773   2.426   7.962
  311POPC   C4B 7462   8.677   2.390   7.538
  312POPC   NC3 7463  22.206  11.059   9.432
  312POPC   PO4 7464  22.147  11.725   9.241
  312POPC   GL1 7465  22.182  11.364   9.023
  312POPC   GL2 7466  21.882  11.178   9.047
  312POPC   C1A 7467  22.341  11.284   8.628
  312POPC   D2A 7468  22.508  11.471   8.240
  312POPC   C3A 7469  22.332  11.225   7.888
  312POPC   C4A 7470  22.216  11.281   7.446
  312POPC   C1B 7471  21.837  11.491   8.683
  312POPC   C2B 7472  21.975  11.384   8.293
  312POPC   C3B 7473  22.092  11.655   8.014
  312POPC   C4B 7474  22.012  11.730   7.620
  313POPC   NC3 7475  18.155  28.304   9.422
  313POPC   PO4 7476  18.670  28.915   9.411
  313POPC   GL1 7477  18.463  28.631   9.130
  313POPC   GL2 7478  18.096  28.665   9.068
  313POPC   C1A 7479  18.419  28.383   8.751
  313POPC   D2A 7480  18.251  28.359   8.353
  313POPC   C3A 7481  18.504  28.273   8.013
  313POPC   C4A 7482  18.195  28.285   7.668
  313POPC   C1B 7483  18.288  28.933   8.746
  313POPC   C2B 7484  18.514  28.805   8.386
  313POPC   C3B 7485  18.328  28.740   7.963
  313POPC   C4B 7486  18.447  28.721   7.515
  314POPC   NC3 7487  13.808  11.433   9.390
  314POPC   PO4 7488  13.517  12.024   9.578
  314POPC   GL1 7489  13.283  12.210   9.223
  314POPC   GL2 7490  13.615  12.169   9.040
  314POPC   C1A 7491  13.181  12.119   8.803
  314POPC   D2A 7492  13.514  12.047   8.498
  314POPC   C3A 7493  13.455  12.141   8.078
  314POPC   C4A 7494  13.607  11.992   7.723
  314POPC   C1B 7495  13.813  11.808   8.843
  314POPC   C2B 7496  13.850  11.628   8.418
  314POPC   C3B 7497  14.014  11.822   8.033
  314POPC   C4B 7498  14.113  12.038   7.645
  315POPC   NC3 7499   4.937  41.488   9.450
  315POPC   PO4 7500   5.424  41.955   9.253
  315POPC   GL1 7501   5.076  41.800   9.083
  315POPC   GL2 7502   5.243  41.463   9.042
  315POPC   C1A 7503   4.985  41.702   8.668
  315POPC   D2A 7504   5.268  41.454   8.459
  315POPC   C3A 7505   5.330  41.711   8.116
  315POPC   C4A 7506   5.105  41.780   7.765
  315POPC   C1B 7507   4.943  41.191   8.847
  315POPC   C2B 7508   4.899  41.086   8.444
  315POPC   C3B 7509   4.845  41.405   8.141
  315POPC   C4B 7510   4.923  41.241   7.771
  316POPC   NC3 7511  26.970  10.095   9.823
  316POPC   PO4 7512  27.108   9.664   9.371
  316POPC   GL1 7513  26.837   9.640   9.073
  316POPC   GL2 7514  26.698   9.932   9.096
  316POPC   C1A 7515  26.883   9.532   8.684
  316POPC   D2A 7516  26.801   9.708   8.296
  316POPC   C3A 7517  27.106   9.634   7.963
  316POPC   C4A 7518  26.962   9.741   7.550
  316POPC   C1B 7519  26.540  10.039   8.684
  316POPC   C2B 7520  26.520  10.157   8.252
  316POPC   C3B 7521  26.686  10.027   7.869
  316POPC   C4B 7522  26.557  10.011   7.407
  317POPC   NC3 7523   9.229   1.442   9.582
  317POPC   PO4 7524   9.153   0.772   9.559
  317POPC   GL1 7525   9.007   0.993   9.198
  317POPC   GL2 7526   8.832   1.320   9.251
  317POPC   C1A 7527   9.090   0.905   8.775
  317POPC   D2A 7528   8.856   0.756   8.436
  317POPC   C3A 7529   8.990   1.008   8.125
  317POPC   C4A 7530   9.219   1.074   7.802
  317POPC   C1B 7531   8.989   1.423   8.845
  317POPC   C2B 7532   8.855   1.621   8.474
  317POPC   C3B 7533   8.946   1.536   8.078
  317POPC   C4B 7534   8.782   1.333   7.737
  318POPC   NC3 7535  43.660  11.532   9.935
  318POPC   PO4 7536  43.797  11.029   9.457
  318POPC   GL1 7537  44.029  11.210   9.097
  318POPC   GL2 7538  44.162  11.508   9.212
  318POPC   C1A 7539  44.119  11.286   8.639
  318POPC   D2A 7540  43.979  11.094   8.277
  318POPC   C3A 7541  44.181  11.141   7.904
  318POPC   C4A 7542  43.891  11.211   7.603
  318POPC   C1B 7543  43.897  11.683   8.856
  318POPC   C2B 7544  43.996  11.764   8.455
  318POPC   C3B 7545  43.893  11.567   8.097
  318POPC   C4B 7546  43.711  11.687   7.704
  319POPC   NC3 7547  33.266  28.299   9.771
  319POPC   PO4 7548  32.765  28.702   9.499
  319POPC   GL1 7549  33.032  28.515   9.195
  319POPC   GL2 7550  33.105  28.175   9.243
  319POPC   C1A 7551  33.116  28.591   8.752
  319POPC   D2A 7552  32.920  28.535   8.347
  319POPC   C3A 7553  33.126  28.660   8.036
  319POPC   C4A 7554  33.256  28.490   7.682
  319POPC   C1B 7555  32.874  28.148   8.847
  319POPC   C2B 7556  33.088  28.087   8.495
  319POPC   C3B 7557  33.128  28.143   8.067
  319POPC   C4B 7558  32.781  28.338   7.841
  320POPC   NC3 7559  11.506  29.589   9.503
  320POPC   PO4 7560  10.881  29.437   9.268
  320POPC   GL1 7561  10.972  29.829   9.033
  320POPC   GL2 7562  11.235  29.893   9.209
  320POPC   C1A 7563  11.185  30.143   8.765
  320POPC   D2A 7564  11.066  30.272   8.389
  320POPC   C3A 7565  11.126  30.055   8.040
  320POPC   C4A 7566  11.325  30.198   7.710
  320POPC   C1B 7567  11.458  29.718   8.845
  320POPC   C2B 7568  11.515  29.910   8.449
  320POPC   C3B 7569  11.584  29.808   8.051
  320POPC   C4B 7570  11.360  29.671   7.722
  321POPC   NC3 7571  17.568  37.465   9.524
  321POPC   PO4 7572  17.264  38.052   9.511
  321POPC   GL1 7573  17.390  37.779   9.110
  321POPC   GL2 7574  17.711  37.555   9.061
  321POPC   C1A 7575  17.362  37.583   8.664
  321POPC   D2A 7576  17.291  37.603   8.251
  321POPC   C3A 7577  17.481  37.382   7.952
  321POPC   C4A 7578  17.536  37.637   7.626
  321POPC   C1B 7579  17.780  37.849   8.776
  321POPC   C2B 7580  17.753  37.944   8.346
  321POPC   C3B 7581  17.678  38.067   7.913
  321POPC   C4B 7582  17.814  38.050   7.471
  322POPC   NC3 7583  42.351  12.213   9.510
  322POPC   PO4 7584  42.482  11.624   9.455
  322POPC   GL1 7585  42.284  11.865   9.125
  322POPC   GL2 7586  42.217  12.227   9.042
  322POPC   C1A 7587  42.233  11.841   8.702
  322POPC   D2A 7588  42.112  11.671   8.353
  322POPC   C3A 7589  42.287  11.936   8.074
  322POPC   C4A 7590  42.357  12.208   7.723
  322POPC   C1B 7591  41.996  12.296   8.693
  322POPC   C2B 7592  42.106  12.375   8.270
  322POPC   C3B 7593  41.886  12.192   7.918
  322POPC   C4B 7594  41.837  12.266   7.496
  323POPC   NC3 7595  34.533  11.633   9.690
  323POPC   PO4 7596  34.110  11.243   9.597
  323POPC   GL1 7597  34.425  11.329   9.257
  323POPC   GL2 7598  34.597  11.658   9.162
  323POPC   C1A 7599  34.572  11.201   8.840
  323POPC   D2A 7600  34.416  11.145   8.433
  323POPC   C3A 7601  34.648  11.297   8.067
  323POPC   C4A 7602  34.551  11.408   7.644
  323POPC   C1B 7603  34.939  11.560   8.806
  323POPC   C2B 7604  35.057  11.538   8.317
  323POPC   C3B 7605  35.021  11.626   7.848
  323POPC   C4B 7606  34.967  11.555   7.362
  324POPC   NC3 7607   7.147  11.157   9.526
  324POPC   PO4 7608   6.488  11.329   9.387
  324POPC   GL1 7609   6.689  11.142   9.054
  324POPC   GL2 7610   7.017  11.179   9.049
  324POPC   C1A 7611   6.785  11.309   8.628
  324POPC   D2A 7612   6.556  11.567   8.372
  324POPC   C3A 7613   6.663  11.479   7.983
  324POPC   C4A 7614   6.573  11.326   7.594
  324POPC   C1B 7615   6.977  10.843   8.744
  324POPC   C2B 7616   6.816  10.795   8.322
  324POPC   C3B 7617   6.793  10.958   7.919
  324POPC   C4B 7618   7.085  11.282   7.763
  325POPC   NC3 7619  30.306  16.215   9.552
  325POPC   PO4 7620  29.695  16.015   9.599
  325POPC   GL1 7621  29.991  15.955   9.220
  325POPC   GL2 7622  29.707  15.809   9.119
  325POPC   C1A 7623  30.178  16.047   8.783
  325POPC   D2A 7624  30.231  16.270   8.387
  325POPC   C3A 7625  30.111  15.954   8.069
  325POPC   C4A 7626  30.344  15.838   7.717
  325POPC   C1B 7627  29.666  16.039   8.773
  325POPC   C2B 7628  29.615  15.977   8.356
  325POPC   C3B 7629  29.603  15.841   7.937
  325POPC   C4B 7630  29.866  15.929   7.564
  326POPC   NC3 7631   2.506  16.539   9.564
  326POPC   PO4 7632   2.640  15.851   9.680
  326POPC   GL1 7633   2.566  15.946   9.247
  326POPC   GL2 7634   2.752  15.707   9.170
  326POPC   C1A 7635   2.773  16.085   8.818
  326POPC   D2A 7636   3.003  15.980   8.445
  326POPC   C3A 7637   3.046  16.298   8.118
  326POPC   C4A 7638   2.960  16.130   7.724
  326POPC   C1B 7639   2.792  15.584   8.756
  326POPC   C2B 7640   2.528  15.722   8.409
  326POPC   C3B 7641   2.718  15.782   8.012
  326POPC   C4B 7642   2.843  15.535   7.630
  327POPC   NC3 7643  35.611  26.274   9.450
  327POPC   PO4 7644  34.993  26.188   9.636
  327POPC   GL1 7645  35.222  26.137   9.171
  327POPC   GL2 7646  35.433  25.832   9.239
  327POPC   C1A 7647  35.553  26.216   8.791
  327POPC   D2A 7648  35.416  26.055   8.377
  327POPC   C3A 7649  35.183  26.023   7.966
  327POPC   C4A 7650  35.301  26.189   7.579
  327POPC   C1B 7651  35.436  25.732   8.811
  327POPC   C2B 7652  35.581  25.584   8.410
  327POPC   C3B 7653  35.748  25.689   8.017
  327POPC   C4B 7654  35.613  25.786   7.596
  328POPC   NC3 7655   0.741  39.420   9.449
  328POPC   PO4 7656   0.357  38.882   9.533
  328POPC   GL1 7657   0.434  39.111   9.162
  328POPC   GL2 7658   0.320  39.468   9.157
  328POPC   C1A 7659   0.458  39.065   8.732
  328POPC   D2A 7660   0.727  39.062   8.378
  328POPC   C3A 7661   0.463  39.132   8.027
  328POPC   C4A 7662   0.496  39.065   7.590
  328POPC   C1B 7663   0.244  39.596   8.740
  328POPC   C2B 7664   0.434  39.511   8.386
  328POPC   C3B 7665   0.385  39.668   8.005
  328POPC   C4B 7666   0.375  39.553   7.589
  329POPC   NC3 7667  15.748   4.518   9.522
  329POPC   PO4 7668  16.148   4.030   9.495
  329POPC   GL1 7669  15.843   4.151   9.190
  329POPC   GL2 7670  16.042   4.406   9.106
  329POPC   C1A 7671  15.916   4.072   8.750
  329POPC   D2A 7672  16.116   3.885   8.406
  329POPC   C3A 7673  15.986   4.042   7.996
  329POPC   C4A 7674  16.095   4.221   7.586
  329POPC   C1B 7675  16.145   4.582   8.740
  329POPC   C2B 7676  16.043   4.386   8.356
  329POPC   C3B 7677  15.903   4.542   7.961
  329POPC   C4B 7678  16.170   4.730   7.669
  330POPC   NC3 7679   8.997  16.794   9.563
  330POPC   PO4 7680   8.638  16.300   9.744
  330POPC   GL1 7681   8.709  16.492   9.214
  330POPC   GL2 7682   9.100  16.621   9.102
  330POPC   C1A 7683   8.824  16.596   8.711
  330POPC   D2A 7684   8.816  16.899   8.348
  330POPC   C3A 7685   8.815  16.654   7.971
  330POPC   C4A 7686   9.130  16.331   7.832
  330POPC   C1B 7687   9.300  16.776   8.702
  330POPC   C2B 7688   9.263  16.610   8.269
  330POPC   C3B 7689   9.276  16.843   7.846
  330POPC   C4B 7690   9.261  17.066   7.425
  331POPC   NC3 7691   5.873  43.622   9.642
  331POPC   PO4 7692   5.589  44.151   9.588
  331POPC   GL1 7693   5.920  44.016   9.267
  331POPC   GL2 7694   6.110  43.707   9.167
  331POPC   C1A 7695   5.867  44.013   8.817
  331POPC   D2A 7696   6.013  44.079   8.405
  331POPC   C3A 7697   5.762  44.149   8.062
  331POPC   C4A 7698   5.920  44.312   7.649
  331POPC   C1B 7699   5.725  43.548   8.931
  331POPC   C2B 7700   5.723  43.622   8.480
  331POPC   C3B 7701   5.988  43.646   8.102
  331POPC   C4B 7702   5.897  43.810   7.694
  332POPC   NC3 7703  20.512  38.180   9.529
  332POPC   PO4 7704  20.542  37.487   9.531
  332POPC   GL1 7705  20.399  37.587   9.141
  332POPC   GL2 7706  20.329  37.933   9.126
  332POPC   C1A 7707  20.657  37.741   8.799
  332POPC   D2A 7708  20.795  37.776   8.372
  332POPC   C3A 7709  20.503  37.703   8.033
  332POPC   C4A 7710  20.778  37.535   7.739
  332POPC   C1B 7711  20.302  38.108   8.718
  332POPC   C2B 7712  20.432  38.146   8.286
  332POPC   C3B 7713  20.468  38.186   7.845
  332POPC   C4B 7714  20.655  37.980   7.472
  333POPC   NC3 7715  43.471  43.434   9.684
  333POPC   PO4 7716  43.175  44.074   9.613
  333POPC   GL1 7717  43.150  43.746   9.299
  333POPC   GL2 7718  43.062  44.014   9.085
  333POPC   C1A 7719  43.250  43.598   8.880
  333POPC   D2A 7720  43.021  43.667   8.500
  333POPC   C3A 7721  43.250  43.558   8.122
  333POPC   C4A 7722  43.178  43.468   7.705
  333POPC   C1B 7723  43.313  44.086   8.687
  333POPC   C2B 7724  43.216  44.082   8.250
  333POPC   C3B 7725  42.938  43.903   7.921
  333POPC   C4B 7726  43.244  43.978   7.600
  334POPC   NC3 7727  26.314  42.424   9.862
  334POPC   PO4 7728  26.397  42.119   9.261
  334POPC   GL1 7729  26.126  42.186   8.929
  334POPC   GL2 7730  25.841  41.983   8.985
  334POPC   C1A 7731  26.282  42.501   8.634
  334POPC   D2A 7732  26.158  42.641   8.255
  334POPC   C3A 7733  26.157  42.234   8.036
  334POPC   C4A 7734  26.427  42.110   7.694
  334POPC   C1B 7735  25.645  42.050   8.674
  334POPC   C2B 7736  25.794  42.326   8.433
  334POPC   C3B 7737  25.676  42.420   8.064
  334POPC   C4B 7738  25.843  42.408   7.682
  335POPC   NC3 7739  42.165  17.209   9.575
  335POPC   PO4 7740  42.662  17.745   9.565
  335POPC   GL1 7741  42.608  17.596   9.186
  335POPC   GL2 7742  42.491  17.273   9.164
  335POPC   C1A 7743  42.502  17.676   8.765
  335POPC   D2A 7744  42.524  17.382   8.426
  335POPC   C3A 7745  42.366  17.565   8.039
  335POPC   C4A 7746  42.331  17.378   7.629
  335POPC   C1B 7747  42.098  17.385   8.936
  335POPC   C2B 7748  42.014  17.281   8.518
  335POPC   C3B 7749  41.991  17.202   8.081
  335POPC   C4B 7750  41.991  17.018   7.679
  336POPC   NC3 7751  16.147  26.604   9.438
  336POPC   PO4 7752  15.490  26.769   9.428
  336POPC   GL1 7753  15.787  26.839   9.089
  336POPC   GL2 7754  15.647  27.182   9.022
  336POPC   C1A 7755  15.943  26.626   8.684
  336POPC   D2A 7756  16.074  26.328   8.326
  336POPC   C3A 7757  16.195  26.476   7.924
  336POPC   C4A 7758  16.308  26.894   7.860
  336POPC   C1B 7759  15.985  27.156   8.714
  336POPC   C2B 7760  16.048  26.992   8.302
  336POPC   C3B 7761  15.785  26.909   7.965
  336POPC   C4B 7762  15.672  26.547   7.786
  337POPC   NC3 7763   7.246   9.523   9.465
  337POPC   PO4 7764   7.589  10.110   9.649
  337POPC   GL1 7765   7.583   9.865   9.244
  337POPC   GL2 7766   7.831   9.570   9.229
  337POPC   C1A 7767   7.311   9.750   8.858
  337POPC   D2A 7768   7.211   9.537   8.486
  337POPC   C3A 7769   7.320   9.754   8.125
  337POPC   C4A 7770   7.202   9.598   7.737
  337POPC   C1B 7771   7.824   9.689   8.792
  337POPC   C2B 7772   7.720   9.510   8.381
  337POPC   C3B 7773   7.569   9.284   8.004
  337POPC   C4B 7774   7.551   9.303   7.542
  338POPC   NC3 7775  11.394  13.446   9.519
  338POPC   PO4 7776  11.027  13.914   9.218
  338POPC   GL1 7777  11.403  13.667   9.037
  338POPC   GL2 7778  11.596  13.326   9.083
  338POPC   C1A 7779  11.666  13.610   8.666
  338POPC   D2A 7780  11.621  13.607   8.206
  338POPC   C3A 7781  11.247  13.807   7.988
  338POPC   C4A 7782  10.945  13.900   7.626
  338POPC   C1B 7783  11.353  13.172   8.715
  338POPC   C2B 7784  11.082  13.202   8.318
  338POPC   C3B 7785  11.097  13.346   7.870
  338POPC   C4B 7786  11.531  13.349   7.719
  339POPC   NC3 7787  10.938  28.765   9.500
  339POPC   PO4 7788  10.470  28.156   9.514
  339POPC   GL1 7789  10.538  28.044   9.104
  339POPC   GL2 7790  10.527  28.430   9.077
  339POPC   C1A 7791  10.502  28.144   8.664
  339POPC   D2A 7792  10.571  28.453   8.364
  339POPC   C3A 7793  10.697  28.147   8.102
  339POPC   C4A 7794  10.519  28.087   7.728
  339POPC   C1B 7795  10.219  28.564   8.772
  339POPC   C2B 7796  10.260  28.889   8.486
  339POPC   C3B 7797  10.216  28.761   8.127
  339POPC   C4B 7798  10.457  28.577   7.820
  340POPC   NC3 7799   8.772  34.721   9.503
  340POPC   PO4 7800   9.212  34.223   9.582
  340POPC   GL1 7801   9.190  34.360   9.134
  340POPC   GL2 7802   8.854  34.514   9.042
  340POPC   C1A 7803   9.259  34.594   8.728
  340POPC   D2A 7804   9.056  34.775   8.342
  340POPC   C3A 7805   8.932  34.405   8.108
  340POPC   C4A 7806   8.855  34.145   7.738
  340POPC   C1B 7807   8.483  34.780   8.862
  340POPC   C2B 7808   8.382  34.940   8.429
  340POPC   C3B 7809   8.536  34.810   8.044
  340POPC   C4B 7810   8.709  34.625   7.686
  341POPC   NC3 7811  17.944  34.858   9.741
  341POPC   PO4 7812  18.406  34.353   9.614
  341POPC   GL1 7813  18.358  34.516   9.214
  341POPC   GL2 7814  18.277  34.233   9.064
  341POPC   C1A 7815  18.433  34.627   8.767
  341POPC   D2A 7816  18.280  34.591   8.338
  341POPC   C3A 7817  18.548  34.778   8.038
  341POPC   C4A 7818  18.776  34.696   7.649
  341POPC   C1B 7819  17.933  34.469   8.860
  341POPC   C2B 7820  17.725  34.488   8.433
  341POPC   C3B 7821  17.904  34.433   8.010
  341POPC   C4B 7822  18.331  34.359   7.840
  342POPC   NC3 7823  33.674   0.537   9.550
  342POPC   PO4 7824  33.133   0.116   9.573
  342POPC   GL1 7825  33.506   0.122   9.242
  342POPC   GL2 7826  33.799   0.410   9.088
  342POPC   C1A 7827  33.496   0.176   8.799
  342POPC   D2A 7828  33.628   0.587   8.593
  342POPC   C3A 7829  33.730   0.545   8.157
  342POPC   C4A 7830  33.561   0.536   7.747
  342POPC   C1B 7831  34.095   0.615   8.775
  342POPC   C2B 7832  34.237   0.568   8.331
  342POPC   C3B 7833  34.303   0.847   7.995
  342POPC   C4B 7834  33.950   0.850   7.787
  343POPC   NC3 7835  10.404   5.677   9.433
  343POPC   PO4 7836  10.869   6.082   9.683
  343POPC   GL1 7837  10.869   6.158   9.209
  343POPC   GL2 7838  10.763   5.829   9.106
  343POPC   C1A 7839  10.716   6.181   8.735
  343POPC   D2A 7840  10.495   6.040   8.355
  343POPC   C3A 7841  10.759   6.030   8.003
  343POPC   C4A 7842  10.596   5.885   7.630
  343POPC   C1B 7843  10.406   5.782   8.784
  343POPC   C2B 7844  10.389   5.495   8.425
  343POPC   C3B 7845  10.362   5.628   8.013
  343POPC   C4B 7846  10.253   5.500   7.601
  344POPC   NC3 7847  16.372   6.110   9.513
  344POPC   PO4 7848  15.759   5.696   9.505
  344POPC   GL1 7849  15.965   5.915   9.196
  344POPC   GL2 7850  16.275   5.720   9.144
  344POPC   C1A 7851  15.735   6.085   8.838
  344POPC   D2A 7852  15.927   6.137   8.437
  344POPC   C3A 7853  15.693   6.099   8.089
  344POPC   C4A 7854  15.699   5.883   7.722
  344POPC   C1B 7855  16.439   5.849   8.740
  344POPC   C2B 7856  16.429   6.018   8.301
  344POPC   C3B 7857  16.184   5.918   7.913
  344POPC   C4B 7858  16.285   5.782   7.449
  345POPC   NC3 7859  29.203  28.582   9.720
  345POPC   PO4 7860  29.512  29.070   9.541
  345POPC   GL1 7861  29.389  29.195   9.093
  345POPC   GL2 7862  29.024  29.254   9.082
  345POPC   C1A 7863  29.257  29.149   8.645
  345POPC   D2A 7864  29.082  29.278   8.253
  345POPC   C3A 7865  29.257  29.081   7.876
  345POPC   C4A 7866  29.195  28.676   7.657
  345POPC   C1B 7867  28.830  29.496   8.710
  345POPC   C2B 7868  28.673  29.589   8.260
  345POPC   C3B 7869  28.821  29.461   7.841
  345POPC   C4B 7870  28.774  29.585   7.419
  346POPC   NC3 7871   0.294  30.314   9.287
  346POPC   PO4 7872   0.607  30.953   9.335
  346POPC   GL1 7873   0.507  30.717   9.059
  346POPC   GL2 7874   0.757  30.483   9.120
  346POPC   C1A 7875   0.318  30.642   8.673
  346POPC   D2A 7876   0.164  30.848   8.299
  346POPC   C3A 7877   0.332  30.738   7.896
  346POPC   C4A 7878   0.349  30.386   7.620
  346POPC   C1B 7879   0.831  30.592   8.684
  346POPC   C2B 7880   0.661  30.583   8.281
  346POPC   C3B 7881   0.811  30.449   7.887
  346POPC   C4B 7882   0.853  30.286   7.449
  347POPC   NC3 7883   6.135   6.119   9.701
  347POPC   PO4 7884   5.920   5.510   9.541
  347POPC   GL1 7885   5.936   5.884   9.231
  347POPC   GL2 7886   5.619   6.081   9.085
  347POPC   C1A 7887   6.202   6.095   8.945
  347POPC   D2A 7888   6.246   6.088   8.497
  347POPC   C3A 7889   5.993   5.782   8.290
  347POPC   C4A 7890   5.967   5.806   7.862
  347POPC   C1B 7891   5.561   5.762   8.815
  347POPC   C2B 7892   5.537   6.012   8.445
  347POPC   C3B 7893   5.605   6.146   8.050
  347POPC   C4B 7894   5.485   5.861   7.743
  348POPC   NC3 7895   5.500  13.353   9.496
  348POPC   PO4 7896   4.869  13.752   9.515
  348POPC   GL1 7897   5.082  13.544   9.167
  348POPC   GL2 7898   5.415  13.660   9.121
  348POPC   C1A 7899   5.064  13.548   8.714
  348POPC   D2A 7900   4.838  13.371   8.347
  348POPC   C3A 7901   4.977  13.577   7.977
  348POPC   C4A 7902   5.088  13.481   7.541
  348POPC   C1B 7903   5.501  13.301   8.822
  348POPC   C2B 7904   5.361  13.294   8.379
  348POPC   C3B 7905   5.473  13.395   7.952
  348POPC   C4B 7906   5.530  13.193   7.530
  349POPC   NC3 7907   6.577  21.829   9.505
  349POPC   PO4 7908   6.968  21.346   9.824
  349POPC   GL1 7909   6.631  21.328   9.380
  349POPC   GL2 7910   6.480  21.570   9.096
  349POPC   C1A 7911   6.626  21.110   8.934
  349POPC   D2A 7912   6.576  21.234   8.490
  349POPC   C3A 7913   6.709  21.049   8.056
  349POPC   C4A 7914   6.544  21.203   7.640
  349POPC   C1B 7915   6.800  21.631   8.774
  349POPC   C2B 7916   6.917  21.588   8.351
  349POPC   C3B 7917   6.606  21.544   8.067
  349POPC   C4B 7918   6.561  21.719   7.715
  350POPC   NC3 7919  36.345   6.238   9.490
  350POPC   PO4 7920  36.231   6.931   9.532
  350POPC   GL1 7921  36.128   6.648   9.194
  350POPC   GL2 7922  36.457   6.636   9.179
  350POPC   C1A 7923  36.022   6.499   8.752
  350POPC   D2A 7924  35.884   6.330   8.362
  350POPC   C3A 7925  35.952   6.509   7.956
  350POPC   C4A 7926  36.214   6.611   7.612
  350POPC   C1B 7927  36.504   6.649   8.755
  350POPC   C2B 7928  36.296   6.633   8.331
  350POPC   C3B 7929  36.216   6.948   8.003
  350POPC   C4B 7930  36.594   6.922   7.788
  351POPC   NC3 7931  27.293   3.304   9.437
  351POPC   PO4 7932  26.835   3.863   9.465
  351POPC   GL1 7933  26.884   3.513   9.164
  351POPC   GL2 7934  27.143   3.679   9.048
  351POPC   C1A 7935  26.751   3.324   8.740
  351POPC   D2A 7936  26.662   3.178   8.285
  351POPC   C3A 7937  26.871   3.437   7.954
  351POPC   C4A 7938  26.656   3.802   7.758
  351POPC   C1B 7939  27.304   3.532   8.710
  351POPC   C2B 7940  27.275   3.425   8.324
  351POPC   C3B 7941  27.347   3.710   8.028
  351POPC   C4B 7942  27.163   3.816   7.680
  352POPC   NC3 7943  23.787  20.252   9.632
  352POPC   PO4 7944  23.800  19.585   9.506
  352POPC   GL1 7945  23.799  19.909   9.204
  352POPC   GL2 7946  23.464  19.995   9.089
  352POPC   C1A 7947  24.018  19.852   8.809
  352POPC   D2A 7948  24.157  19.900   8.380
  352POPC   C3A 7949  23.919  19.724   8.015
  352POPC   C4A 7950  23.849  19.928   7.590
  352POPC   C1B 7951  23.470  19.674   8.798
  352POPC   C2B 7952  23.647  19.823   8.454
  352POPC   C3B 7953  23.483  19.993   8.111
  352POPC   C4B 7954  23.434  19.712   7.793
  353POPC   NC3 7955  14.010  41.008   9.444
  353POPC   PO4 7956  13.579  40.573   9.769
  353POPC   GL1 7957  13.759  40.590   9.255
  353POPC   GL2 7958  13.481  40.645   9.011
  353POPC   C1A 7959  13.836  40.890   8.813
  353POPC   D2A 7960  13.518  40.770   8.471
  353POPC   C3A 7961  13.541  40.955   8.079
  353POPC   C4A 7962  13.734  40.802   7.703
  353POPC   C1B 7963  13.163  40.519   8.769
  353POPC   C2B 7964  13.185  40.341   8.377
  353POPC   C3B 7965  13.155  40.493   7.960
  353POPC   C4B 7966  13.295  40.548   7.519
  354POPC   NC3 7967  34.831   3.306   9.430
  354POPC   PO4 7968  34.770   3.986   9.431
  354POPC   GL1 7969  34.698   3.708   9.117
  354POPC   GL2 7970  34.388   3.528   9.163
  354POPC   C1A 7971  34.942   3.597   8.781
  354POPC   D2A 7972  35.014   3.660   8.367
  354POPC   C3A 7973  34.651   3.512   8.160
  354POPC   C4A 7974  34.567   3.339   7.752
  354POPC   C1B 7975  34.316   3.818   8.778
  354POPC   C2B 7976  34.164   3.743   8.325
  354POPC   C3B 7977  34.331   3.782   7.870
  354POPC   C4B 7978  34.343   3.649   7.413
  355POPC   NC3 7979  26.861  14.713   9.556
  355POPC   PO4 7980  26.505  14.199   9.537
  355POPC   GL1 7981  26.596  14.432   9.184
  355POPC   GL2 7982  26.989  14.470   9.126
  355POPC   C1A 7983  26.652  14.531   8.744
  355POPC   D2A 7984  26.694  14.239   8.409
  355POPC   C3A 7985  26.471  14.324   8.022
  355POPC   C4A 7986  26.437  14.155   7.579
  355POPC   C1B 7987  27.174  14.656   8.735
  355POPC   C2B 7988  27.202  14.517   8.298
  355POPC   C3B 7989  26.996  14.256   7.999
  355POPC   C4B 7990  26.848  14.444   7.661
  356POPC   NC3 7991  37.054   0.763   9.825
  356POPC   PO4 7992  37.101   0.108   9.772
  356POPC   GL1 7993  37.000   0.164   9.272
  356POPC   GL2 7994  36.838   0.404   9.020
  356POPC   C1A 7995  37.146   0.078   8.829
  356POPC   D2A 7996  37.056  44.914   8.416
  356POPC   C3A 7997  36.870   0.154   8.076
  356POPC   C4A 7998  37.089   0.326   7.717
  356POPC   C1B 7999  37.064   0.644   8.697
  356POPC   C2B 8000  37.115   0.881   8.301
  356POPC   C3B 8001  36.945   0.767   7.906
  356POPC   C4B 8002  37.007   0.760   7.445
  357POPC   NC3 8003   7.545  17.802   9.443
  357POPC   PO4 8004   7.501  17.205   9.449
  357POPC   GL1 8005   7.394  17.417   9.142
  357POPC   GL2 8006   7.107  17.630   9.213
  357POPC   C1A 8007   7.615  17.506   8.803
  357POPC   D2A 8008   7.566  17.654   8.433
  357POPC   C3A 8009   7.441  17.380   8.145
  357POPC   C4A 8010   7.476  17.470   7.725
  357POPC   C1B 8011   7.135  17.664   8.772
  357POPC   C2B 8012   7.155  17.927   8.454
  357POPC   C3B 8013   7.310  17.872   8.044
  357POPC   C4B 8014   7.021  17.723   7.761
  358POPC   NC3 8015  29.355  41.282   9.487
  358POPC   PO4 8016  29.472  41.983   9.445
  358POPC   GL1 8017  29.198  41.730   9.179
  358POPC   GL2 8018  28.801  41.758   9.188
  358POPC   C1A 8019  29.306  41.466   8.822
  358POPC   D2A 8020  29.516  41.510   8.427
  358POPC   C3A 8021  29.216  41.378   8.104
  358POPC   C4A 8022  29.147  41.487   7.704
  358POPC   C1B 8023  28.918  41.915   8.778
  358POPC   C2B 8024  29.096  41.818   8.380
  358POPC   C3B 8025  28.904  41.844   7.974
  358POPC   C4B 8026  28.727  41.983   7.578
  359POPC   NC3 8027   6.924  43.160   9.570
  359POPC   PO4 8028   6.292  43.440   9.583
  359POPC   GL1 8029   6.559  43.432   9.247
  359POPC   GL2 8030   6.514  43.091   9.149
  359POPC   C1A 8031   6.604  43.469   8.805
  359POPC   D2A 8032   6.924  43.350   8.490
  359POPC   C3A 8033   6.852  43.366   8.032
  359POPC   C4A 8034   6.872  42.972   7.796
  359POPC   C1B 8035   6.552  42.962   8.720
  359POPC   C2B 8036   6.390  43.215   8.384
  359POPC   C3B 8037   6.349  43.289   7.958
  359POPC   C4B 8038   6.339  42.966   7.677
  360POPC   NC3 8039   7.858  36.913   9.506
  360POPC   PO4 8040   8.558  37.042   9.220
  360POPC   GL1 8041   8.200  36.878   9.126
  360POPC   GL2 8042   8.019  37.231   9.152
  360POPC   C1A 8043   8.223  36.685   8.734
  360POPC   D2A 8044   8.332  36.931   8.370
  360POPC   C3A 8045   8.109  36.694   8.102
  360POPC   C4A 8046   8.290  36.387   7.804
  360POPC   C1B 8047   8.043  37.170   8.732
  360POPC   C2B 8048   7.751  37.144   8.427
  360POPC   C3B 8049   7.976  37.220   8.102
  360POPC   C4B 8050   8.259  37.078   7.816
  361POPC   NC3 8051  34.936  17.776   9.440
  361POPC   PO4 8052  35.498  17.377   9.505
  361POPC   GL1 8053  35.320  17.408   9.118
  361POPC   GL2 8054  35.052  17.542   9.014
  361POPC   C1A 8055  35.482  17.508   8.727
  361POPC   D2A 8056  35.560  17.679   8.363
  361POPC   C3A 8057  35.300  17.586   8.050
  361POPC   C4A 8058  35.281  17.295   7.718
  361POPC   C1B 8059  35.096  17.849   8.655
  361POPC   C2B 8060  34.895  17.882   8.257
  361POPC   C3B 8061  35.077  17.978   7.858
  361POPC   C4B 8062  35.244  17.793   7.490
  362POPC   NC3 8063  10.822  31.056   9.596
  362POPC   PO4 8064  11.401  31.394   9.852
  362POPC   GL1 8065  11.411  31.331   9.362
  362POPC   GL2 8066  11.456  30.971   9.197
  362POPC   C1A 8067  11.526  31.488   8.928
  362POPC   D2A 8068  11.720  31.549   8.485
  362POPC   C3A 8069  11.569  31.528   8.039
  362POPC   C4A 8070  11.294  31.469   7.696
  362POPC   C1B 8071  11.289  31.084   8.757
  362POPC   C2B 8072  11.432  31.140   8.312
  362POPC   C3B 8073  11.515  31.033   7.859
  362POPC   C4B 8074  11.459  31.134   7.355
  363POPC   NC3 8075   8.067  20.046   9.478
  363POPC   PO4 8076   8.531  19.566   9.520
  363POPC   GL1 8077   8.323  19.539   9.147
  363POPC   GL2 8078   7.958  19.527   9.164
  363POPC   C1A 8079   8.284  19.482   8.739
  363POPC   D2A 8080   8.317  19.791   8.431
  363POPC   C3A 8081   8.100  19.731   8.064
  363POPC   C4A 8082   8.353  19.663   7.708
  363POPC   C1B 8083   7.980  19.875   8.849
  363POPC   C2B 8084   7.876  20.045   8.451
  363POPC   C3B 8085   7.955  20.250   8.090
  363POPC   C4B 8086   8.136  20.131   7.740
  364POPC   NC3 8087  10.581  13.976   9.147
  364POPC   PO4 8088  10.959  13.593   9.626
  364POPC   GL1 8089  10.970  13.404   9.165
  364POPC   GL2 8090  10.602  13.404   9.055
  364POPC   C1A 8091  10.959  13.520   8.707
  364POPC   D2A 8092  10.630  13.469   8.383
  364POPC   C3A 8093  10.658  13.684   7.995
  364POPC   C4A 8094  10.533  14.088   7.849
  364POPC   C1B 8095  10.261  13.573   8.744
  364POPC   C2B 8096  10.179  13.734   8.308
  364POPC   C3B 8097  10.138  13.785   7.870
  364POPC   C4B 8098  10.022  14.104   7.556
  365POPC   NC3 8099  38.908  20.349   9.556
  365POPC   PO4 8100  39.294  20.836   9.421
  365POPC   GL1 8101  39.236  20.580   9.027
  365POPC   GL2 8102  38.978  20.305   9.059
  365POPC   C1A 8103  39.262  20.716   8.565
  365POPC   D2A 8104  39.476  20.998   8.240
  365POPC   C3A 8105  39.201  20.927   7.866
  365POPC   C4A 8106  38.781  20.751   7.959
  365POPC   C1B 8107  39.226  20.174   8.705
  365POPC   C2B 8108  39.030  20.293   8.369
  365POPC   C3B 8109  39.229  20.470   8.068
  365POPC   C4B 8110  39.047  20.364   7.731
  366POPC   NC3 8111  16.380  34.618   9.380
  366POPC   PO4 8112  15.787  34.696   9.682
  366POPC   GL1 8113  15.895  34.524   9.251
  366POPC   GL2 8114  16.124  34.229   9.167
  366POPC   C1A 8115  15.915  34.606   8.810
  366POPC   D2A 8116  15.864  34.462   8.388
  366POPC   C3A 8117  15.980  34.793   8.096
  366POPC   C4A 8118  15.923  34.706   7.679
  366POPC   C1B 8119  16.360  34.373   8.779
  366POPC   C2B 8120  16.359  34.523   8.345
  366POPC   C3B 8121  16.209  34.351   7.949
  366POPC   C4B 8122  16.272  34.371   7.494
  367POPC   NC3 8123   9.706  19.037   9.461
  367POPC   PO4 8124  10.206  18.579   9.372
  367POPC   GL1 8125   9.955  18.820   9.093
  367POPC   GL2 8126   9.894  19.202   9.022
  367POPC   C1A 8127   9.770  18.782   8.738
  367POPC   D2A 8128  10.057  19.001   8.507
  367POPC   C3A 8129   9.885  18.964   8.146
  367POPC   C4A 8130   9.659  19.038   7.792
  367POPC   C1B 8131   9.598  19.284   8.652
  367POPC   C2B 8132   9.593  19.423   8.186
  367POPC   C3B 8133   9.270  19.322   7.849
  367POPC   C4B 8134   9.432  19.341   7.432
  368POPC   NC3 8135  24.178  28.888   9.883
  368POPC   PO4 8136  24.607  29.354   9.607
  368POPC   GL1 8137  24.494  29.435   9.156
  368POPC   GL2 8138  24.150  29.400   9.072
  368POPC   C1A 8139  24.639  29.320   8.737
  368POPC   D2A 8140  24.594  29.510   8.347
  368POPC   C3A 8141  24.697  29.267   8.034
  368POPC   C4A 8142  24.679  29.065   7.608
  368POPC   C1B 8143  24.205  29.023   8.813
  368POPC   C2B 8144  24.351  28.949   8.397
  368POPC   C3B 8145  24.353  28.906   7.970
  368POPC   C4B 8146  24.273  29.324   7.757
  369POPC   NC3 8147   9.710  26.663   9.854
  369POPC   PO4 8148  10.142  27.215   9.594
  369POPC   GL1 8149   9.989  26.908   9.224
  369POPC   GL2 8150   9.760  26.659   9.332
  369POPC   C1A 8151   9.798  26.782   8.798
  369POPC   D2A 8152   9.421  26.737   8.532
  369POPC   C3A 8153   9.485  26.785   8.100
  369POPC   C4A 8154   9.913  26.824   7.923
  369POPC   C1B 8155   9.977  26.376   9.031
  369POPC   C2B 8156   9.986  26.354   8.557
  369POPC   C3B 8157   9.853  26.362   8.129
  369POPC   C4B 8158   9.991  26.391   7.685
  370POPC   NC3 8159  16.958  30.961   9.481
  370POPC   PO4 8160  16.594  30.291   9.566
  370POPC   GL1 8161  16.730  30.448   9.222
  370POPC   GL2 8162  16.427  30.663   9.173
  370POPC   C1A 8163  16.807  30.443   8.802
  370POPC   D2A 8164  16.890  30.731   8.468
  370POPC   C3A 8165  16.707  30.562   8.140
  370POPC   C4A 8166  16.930  30.368   7.847
  370POPC   C1B 8167  16.422  30.783   8.736
  370POPC   C2B 8168  16.365  30.941   8.305
  370POPC   C3B 8169  16.593  31.039   7.986
  370POPC   C4B 8170  16.696  30.803   7.669
  371POPC   NC3 8171  33.464   3.624   9.451
  371POPC   PO4 8172  33.950   3.925   9.599
  371POPC   GL1 8173  33.903   3.739   9.165
  371POPC   GL2 8174  33.749   3.408   9.073
  371POPC   C1A 8175  33.793   3.811   8.718
  371POPC   D2A 8176  33.566   3.858   8.309
  371POPC   C3A 8177  33.822   3.743   7.924
  371POPC   C4A 8178  34.020   3.360   7.719
  371POPC   C1B 8179  33.393   3.401   8.781
  371POPC   C2B 8180  33.225   3.426   8.383
  371POPC   C3B 8181  33.391   3.458   7.981
  371POPC   C4B 8182  33.383   3.779   7.674
  372POPC   NC3 8183  34.843  24.993   9.410
  372POPC   PO4 8184  34.507  25.547   9.302
  372POPC   GL1 8185  34.416  25.372   8.948
  372POPC   GL2 8186  34.442  25.037   9.089
  372POPC   C1A 8187  34.506  25.520   8.542
  372POPC   D2A 8188  34.789  25.184   8.393
  372POPC   C3A 8189  34.902  25.233   8.007
  372POPC   C4A 8190  34.762  25.630   7.807
  372POPC   C1B 8191  34.515  24.889   8.700
  372POPC   C2B 8192  34.287  25.084   8.402
  372POPC   C3B 8193  34.400  25.321   8.066
  372POPC   C4B 8194  34.523  25.065   7.728
  373POPC   NC3 8195  20.764  12.943   9.679
  373POPC   PO4 8196  21.430  12.778   9.558
  373POPC   GL1 8197  21.458  12.845   9.134
  373POPC   GL2 8198  21.125  12.885   9.169
  373POPC   C1A 8199  21.457  13.024   8.741
  373POPC   D2A 8200  21.646  12.963   8.354
  373POPC   C3A 8201  21.503  13.028   7.923
  373POPC   C4A 8202  21.512  12.917   7.490
  373POPC   C1B 8203  21.013  12.746   8.804
  373POPC   C2B 8204  21.172  12.749   8.398
  373POPC   C3B 8205  21.077  12.723   7.972
  373POPC   C4B 8206  21.113  12.316   7.858
  374POPC   NC3 8207  29.724   0.059   9.720
  374POPC   PO4 8208  30.105   0.525   9.546
  374POPC   GL1 8209  29.894   0.477   9.146
  374POPC   GL2 8210  29.746   0.175   9.218
  374POPC   C1A 8211  29.935   0.676   8.761
  374POPC   D2A 8212  30.090   0.478   8.410
  374POPC   C3A 8213  29.992   0.639   8.019
  374POPC   C4A 8214  29.845   0.448   7.647
  374POPC   C1B 8215  29.938   0.143   8.796
  374POPC   C2B 8216  29.901   0.003   8.400
  374POPC   C3B 8217  30.004   0.110   7.993
  374POPC   C4B 8218  29.925  44.945   7.573
  375POPC   NC3 8219  26.236   5.197   9.544
  375POPC   PO4 8220  25.591   4.892   9.543
  375POPC   GL1 8221  25.955   4.881   9.246
  375POPC   GL2 8222  25.846   5.212   9.157
  375POPC   C1A 8223  26.199   5.035   8.854
  375POPC   D2A 8224  25.971   5.272   8.519
  375POPC   C3A 8225  25.896   5.209   8.100
  375POPC   C4A 8226  26.176   5.018   7.815
  375POPC   C1B 8227  25.677   4.935   8.814
  375POPC   C2B 8228  25.468   4.929   8.407
  375POPC   C3B 8229  25.568   4.838   7.987
  375POPC   C4B 8230  25.686   5.050   7.633
  376POPC   NC3 8231  26.015  11.523   9.707
  376POPC   PO4 8232  25.900  10.952   9.557
  376POPC   GL1 8233  26.141  11.116   9.220
  376POPC   GL2 8234  26.249  11.486   9.247
  376POPC   C1A 8235  26.053  11.269   8.814
  376POPC   D2A 8236  25.785  11.500   8.569
  376POPC   C3A 8237  25.872  11.428   8.156
  376POPC   C4A 8238  25.864  11.198   7.787
  376POPC   C1B 8239  26.234  11.737   8.867
  376POPC   C2B 8240  26.332  11.545   8.478
  376POPC   C3B 8241  26.320  11.730   8.094
  376POPC   C4B 8242  26.145  11.606   7.756
  377POPC   NC3 8243  44.395  39.736   9.791
  377POPC   PO4 8244  44.872  40.143   9.455
  377POPC   GL1 8245  44.605  40.036   9.109
  377POPC   GL2 8246  44.419  39.730   9.194
  377POPC   C1A 8247  44.753  40.135   8.690
  377POPC   D2A 8248   0.021  39.950   8.382
  377POPC   C3A 8249  44.765  40.120   8.082
  377POPC   C4A 8250  44.507  40.138   7.727
  377POPC   C1B 8251  44.689  39.652   8.793
  377POPC   C2B 8252  44.559  39.747   8.373
  377POPC   C3B 8253  44.611  39.640   7.911
  377POPC   C4B 8254  44.784  39.657   7.465
  378POPC   NC3 8255  23.790  26.765   9.578
  378POPC   PO4 8256  23.381  27.265   9.464
  378POPC   GL1 8257  23.741  27.103   9.170
  378POPC   GL2 8258  23.868  26.717   9.090
  378POPC   C1A 8259  23.832  27.068   8.726
  378POPC   D2A 8260  23.939  27.251   8.351
  378POPC   C3A 8261  23.793  27.002   8.076
  378POPC   C4A 8262  23.776  27.043   7.678
  378POPC   C1B 8263  23.873  26.475   8.732
  378POPC   C2B 8264  23.685  26.458   8.311
  378POPC   C3B 8265  23.583  26.596   7.875
  378POPC   C4B 8266  23.756  26.602   7.421
  379POPC   NC3 8267  29.968  39.466   9.295
  379POPC   PO4 8268  29.561  39.183   9.753
  379POPC   GL1 8269  29.638  39.074   9.215
  379POPC   GL2 8270  30.004  39.023   9.023
  379POPC   C1A 8271  29.639  39.169   8.715
  379POPC   D2A 8272  29.864  39.299   8.293
  379POPC   C3A 8273  29.741  39.421   7.880
  379POPC   C4A 8274  29.597  39.069   7.651
  379POPC   C1B 8275  30.142  39.387   8.700
  379POPC   C2B 8276  30.285  39.617   8.310
  379POPC   C3B 8277  30.260  39.477   7.906
  379POPC   C4B 8278  30.102  39.036   7.813
  380POPC   NC3 8279  11.332  37.870   9.603
  380POPC   PO4 8280  10.853  37.496   9.469
  380POPC   GL1 8281  11.043  37.820   9.151
  380POPC   GL2 8282  11.441  37.882   9.112
  380POPC   C1A 8283  11.162  37.810   8.692
  380POPC   D2A 8284  11.465  37.909   8.361
  380POPC   C3A 8285  11.273  37.888   7.942
  380POPC   C4A 8286  11.102  37.792   7.525
  380POPC   C1B 8287  11.632  37.605   8.784
  380POPC   C2B 8288  11.725  37.438   8.389
  380POPC   C3B 8289  11.659  37.317   7.964
  380POPC   C4B 8290  11.599  37.641   7.639
  381POPC   NC3 8291  41.329  44.087   9.515
  381POPC   PO4 8292  41.922  43.911   9.318
  381POPC   GL1 8293  41.493  43.812   9.101
  381POPC   GL2 8294  41.411  43.468   9.090
  381POPC   C1A 8295  41.334  43.901   8.662
  381POPC   D2A 8296  41.671  44.121   8.382
  381POPC   C3A 8297  41.615  44.095   7.941
  381POPC   C4A 8298  41.282  43.858   7.764
  381POPC   C1B 8299  41.687  43.541   8.702
  381POPC   C2B 8300  41.641  43.583   8.264
  381POPC   C3B 8301  41.955  43.714   7.997
  381POPC   C4B 8302  41.931  43.920   7.567
  382POPC   NC3 8303   3.368  33.904   9.510
  382POPC   PO4 8304   3.728  33.449   9.479
  382POPC   GL1 8305   3.892  33.527   9.093
  382POPC   GL2 8306   3.810  33.890   9.086
  382POPC   C1A 8307   3.752  33.523   8.693
  382POPC   D2A 8308   3.605  33.841   8.430
  382POPC   C3A 8309   3.515  33.608   8.116
  382POPC   C4A 8310   3.784  33.787   7.836
  382POPC   C1B 8311   3.372  33.823   8.880
  382POPC   C2B 8312   3.080  33.822   8.513
  382POPC   C3B 8313   3.140  33.953   8.100
  382POPC   C4B 8314   3.294  33.801   7.686
  383POPC   NC3 8315  16.592  24.285   9.588
  383POPC   PO4 8316  17.062  24.839   9.421
  383POPC   GL1 8317  16.718  24.565   9.175
  383POPC   GL2 8318  16.376  24.363   9.137
  383POPC   C1A 8319  16.755  24.364   8.773
  383POPC   D2A 8320  16.903  24.416   8.363
  383POPC   C3A 8321  16.760  24.614   8.005
  383POPC   C4A 8322  16.968  24.649   7.637
  383POPC   C1B 8323  16.277  24.542   8.758
  383POPC   C2B 8324  16.377  24.277   8.406
  383POPC   C3B 8325  16.686  23.992   8.194
  383POPC   C4B 8326  16.664  24.136   7.798
  384POPC   NC3 8327  11.386  43.051   9.689
  384POPC   PO4 8328  10.971  42.597   9.520
  384POPC   GL1 8329  11.150  42.924   9.234
  384POPC   GL2 8330  11.505  43.034   9.195
  384POPC   C1A 8331  11.110  43.184   8.870
  384POPC   D2A 8332  10.873  43.287   8.511
  384POPC   C3A 8333  11.079  43.059   8.226
  384POPC   C4A 8334  11.112  43.111   7.825
  384POPC   C1B 8335  11.606  43.025   8.738
  384POPC   C2B 8336  11.673  43.193   8.292
  384POPC   C3B 8337  11.616  42.981   7.868
  384POPC   C4B 8338  11.735  42.665   7.540
  385POPC   NC3 8339  12.907  44.459   9.473
  385POPC   PO4 8340  13.195   0.077   9.643
  385POPC   GL1 8341  13.008  44.914   9.244
  385POPC   GL2 8342  12.647  44.780   9.178
  385POPC   C1A 8343  13.015  44.745   8.808
  385POPC   D2A 8344  13.021  44.533   8.410
  385POPC   C3A 8345  12.866  44.692   8.014
  385POPC   C4A 8346  13.101  44.735   7.641
  385POPC   C1B 8347  12.540  44.960   8.786
  385POPC   C2B 8348  12.513  44.886   8.354
  385POPC   C3B 8349  12.541   0.191   8.028
  385POPC   C4B 8350  12.807   0.162   7.677
  386POPC   NC3 8351  11.309   6.449   9.477
  386POPC   PO4 8352  10.917   6.939   9.703
  386POPC   GL1 8353  11.205   6.909   9.252
  386POPC   GL2 8354  11.218   6.597   9.022
  386POPC   C1A 8355  11.460   6.961   8.806
  386POPC   D2A 8356  11.538   6.707   8.451
  386POPC   C3A 8357  11.172   6.787   8.186
  386POPC   C4A 8358  11.148   6.821   7.772
  386POPC   C1B 8359  11.077   6.526   8.633
  386POPC   C2B 8360  11.224   6.295   8.303
  386POPC   C3B 8361  11.487   6.423   7.966
  386POPC   C4B 8362  11.198   6.318   7.691
  387POPC   NC3 8363  43.608   0.070   9.551
  387POPC   PO4 8364  44.080   0.641   9.546
  387POPC   GL1 8365  43.925   0.464   9.203
  387POPC   GL2 8366  43.644   0.729   9.134
  387POPC   C1A 8367  44.104   0.267   8.839
  387POPC   D2A 8368  43.945   0.024   8.482
  387POPC   C3A 8369  43.936   0.191   8.107
  387POPC   C4A 8370  44.024   0.334   7.740
  387POPC   C1B 8371  43.954   0.805   8.814
  387POPC   C2B 8372  43.977   0.641   8.402
  387POPC   C3B 8373  43.984   0.773   7.979
  387POPC   C4B 8374  43.668   0.747   7.652
  388POPC   NC3 8375  41.227   6.538   9.805
  388POPC   PO4 8376  40.639   6.739   9.469
  388POPC   GL1 8377  40.718   6.585   9.099
  388POPC   GL2 8378  41.047   6.535   9.168
  388POPC   C1A 8379  40.830   6.754   8.712
  388POPC   D2A 8380  40.996   6.605   8.335
  388POPC   C3A 8381  40.828   6.711   7.920
  388POPC   C4A 8382  41.047   6.971   7.618
  388POPC   C1B 8383  41.146   6.337   8.772
  388POPC   C2B 8384  41.141   6.126   8.365
  388POPC   C3B 8385  41.169   6.286   7.968
  388POPC   C4B 8386  40.917   6.256   7.652
  389POPC   NC3 8387  23.100  33.527   9.586
  389POPC   PO4 8388  22.683  34.027   9.662
  389POPC   GL1 8389  22.798  33.863   9.250
  389POPC   GL2 8390  23.163  33.876   9.205
  389POPC   C1A 8391  22.836  33.745   8.792
  389POPC   D2A 8392  23.045  33.878   8.403
  389POPC   C3A 8393  22.851  34.086   8.053
  389POPC   C4A 8394  22.695  33.723   7.848
  389POPC   C1B 8395  23.387  33.809   8.812
  389POPC   C2B 8396  23.537  33.993   8.421
  389POPC   C3B 8397  23.365  34.032   8.009
  389POPC   C4B 8398  23.176  33.744   7.680
  390POPC   NC3 8399  32.854   7.193   9.547
  390POPC   PO4 8400  32.581   7.795   9.353
  390POPC   GL1 8401  32.927   7.501   9.133
  390POPC   GL2 8402  33.221   7.204   9.206
  390POPC   C1A 8403  33.044   7.588   8.719
  390POPC   D2A 8404  32.789   7.478   8.354
  390POPC   C3A 8405  32.699   7.773   8.088
  390POPC   C4A 8406  32.835   7.552   7.760
  390POPC   C1B 8407  33.246   7.012   8.837
  390POPC   C2B 8408  33.191   7.185   8.424
  390POPC   C3B 8409  33.075   7.025   8.005
  390POPC   C4B 8410  33.172   7.150   7.562
  391POPC   NC3 8411  40.974  43.185   9.540
  391POPC   PO4 8412  40.368  43.456   9.344
  391POPC   GL1 8413  40.606  43.150   9.159
  391POPC   GL2 8414  40.927  43.229   9.033
  391POPC   C1A 8415  40.600  42.890   8.811
  391POPC   D2A 8416  40.776  42.806   8.449
  391POPC   C3A 8417  40.836  43.160   8.189
  391POPC   C4A 8418  40.843  43.066   7.768
  391POPC   C1B 8419  41.144  43.397   8.667
  391POPC   C2B 8420  41.118  43.596   8.275
  391POPC   C3B 8421  41.248  43.356   7.931
  391POPC   C4B 8422  41.214  43.350   7.447
  392POPC   NC3 8423  21.720  42.869   9.768
  392POPC   PO4 8424  21.206  43.312   9.630
  392POPC   GL1 8425  21.587  43.175   9.343
  392POPC   GL2 8426  21.321  43.073   9.154
  392POPC   C1A 8427  21.761  43.058   8.868
  392POPC   D2A 8428  21.623  42.921   8.424
  392POPC   C3A 8429  21.749  43.132   8.027
  392POPC   C4A 8430  21.922  42.947   7.654
  392POPC   C1B 8431  21.308  42.776   8.823
  392POPC   C2B 8432  21.093  42.834   8.437
  392POPC   C3B 8433  21.254  42.967   8.061
  392POPC   C4B 8434  21.551  42.691   7.866
  393POPC   NC3 8435   8.965  40.777   9.639
  393POPC   PO4 8436   8.265  40.911   9.320
  393POPC   GL1 8437   8.276  40.758   8.958
  393POPC   GL2 8438   7.956  40.593   9.014
  393POPC   C1A 8439   8.496  40.904   8.594
  393POPC   D2A 8440   8.622  41.085   8.163
  393POPC   C3A 8441   8.453  40.891   7.731
  393POPC   C4A 8442   8.439  41.060   7.257
  393POPC   C1B 8443   7.972  40.717   8.570
  393POPC   C2B 8444   8.227  40.725   8.215
  393POPC   C3B 8445   8.249  40.434   7.979
  393POPC   C4B 8446   7.950  40.352   7.717
  394POPC   NC3 8447   2.513  39.105   9.753
  394POPC   PO4 8448   1.878  39.013   9.576
  394POPC   GL1 8449   1.920  39.172   9.198
  394POPC   GL2 8450   1.605  39.037   9.114
  394POPC   C1A 8451   2.051  39.415   8.852
  394POPC   D2A 8452   2.245  39.204   8.498
  394POPC   C3A 8453   2.157  39.264   8.048
  394POPC   C4A 8454   2.260  39.345   7.611
  394POPC   C1B 8455   1.809  38.981   8.725
  394POPC   C2B 8456   1.736  39.210   8.360
  394POPC   C3B 8457   1.751  38.983   7.999
  394POPC   C4B 8458   1.972  38.933   7.633
  395POPC   NC3 8459  39.602  20.493   9.399
  395POPC   PO4 8460  39.878  21.017   9.630
  395POPC   GL1 8461  40.124  20.794   9.317
  395POPC   GL2 8462  40.132  20.419   9.329
  395POPC   C1A 8463  40.011  20.747   8.905
  395POPC   D2A 8464  39.679  20.480   8.734
  395POPC   C3A 8465  39.684  20.519   8.297
  395POPC   C4A 8466  39.699  20.705   7.893
  395POPC   C1B 8467  40.092  20.245   8.909
  395POPC   C2B 8468  40.169  20.457   8.520
  395POPC   C3B 8469  40.227  20.428   8.107
  395POPC   C4B 8470  40.057  20.380   7.738
  396POPC   NC3 8471  34.002  40.163   9.539
  396POPC   PO4 8472  33.362  39.824   9.524
  396POPC   GL1 8473  33.719  39.840   9.255
  396POPC   GL2 8474  33.536  40.100   9.110
  396POPC   C1A 8475  33.862  39.815   8.819
  396POPC   D2A 8476  33.569  39.893   8.464
  396POPC   C3A 8477  33.526  39.768   8.026
  396POPC   C4A 8478  33.790  39.791   7.659
  396POPC   C1B 8479  33.680  40.313   8.802
  396POPC   C2B 8480  33.951  40.232   8.468
  396POPC   C3B 8481  33.927  40.112   8.051
  396POPC   C4B 8482  33.735  40.345   7.745
  397POPC   NC3 8483  26.898  16.376   9.461
  397POPC   PO4 8484  27.023  15.736   9.454
  397POPC   GL1 8485  26.988  15.914   9.071
  397POPC   GL2 8486  27.063  16.240   8.988
  397POPC   C1A 8487  26.953  15.756   8.657
  397POPC   D2A 8488  26.661  15.808   8.319
  397POPC   C3A 8489  26.872  15.961   7.988
  397POPC   C4A 8490  27.213  16.152   7.819
  397POPC   C1B 8491  26.744  16.242   8.681
  397POPC   C2B 8492  26.637  16.333   8.257
  397POPC   C3B 8493  26.443  16.228   7.855
  397POPC   C4B 8494  26.427  16.063   7.433
  398POPC   NC3 8495   8.231  19.219   9.545
  398POPC   PO4 8496   8.570  18.680   9.398
  398POPC   GL1 8497   8.479  19.014   9.117
  398POPC   GL2 8498   8.125  19.043   9.077
  398POPC   C1A 8499   8.419  18.986   8.667
  398POPC   D2A 8500   8.383  18.655   8.396
  398POPC   C3A 8501   8.302  18.800   7.990
  398POPC   C4A 8502   8.344  19.178   7.813
  398POPC   C1B 8503   7.936  19.114   8.678
  398POPC   C2B 8504   8.093  19.254   8.281
  398POPC   C3B 8505   7.853  19.292   7.892
  398POPC   C4B 8506   7.906  18.926   7.638
  399POPC   NC3 8507  25.507   2.937   9.564
  399POPC   PO4 8508  24.960   2.504   9.436
  399POPC   GL1 8509  25.222   2.655   9.109
  399POPC   GL2 8510  25.334   3.004   9.093
  399POPC   C1A 8511  25.012   2.867   8.731
  399POPC   D2A 8512  25.022   2.820   8.307
  399POPC   C3A 8513  25.239   2.482   8.171
  399POPC   C4A 8514  25.255   2.402   7.759
  399POPC   C1B 8515  25.538   2.786   8.731
  399POPC   C2B 8516  25.635   2.780   8.305
  399POPC   C3B 8517  25.421   2.954   7.973
  399POPC   C4B 8518  25.695   3.054   7.673
  400POPC   NC3 8519  13.933  11.340   9.881
  400POPC   PO4 8520  13.345  11.358   9.550
  400POPC   GL1 8521  13.375  11.361   9.140
  400POPC   GL2 8522  13.372  11.712   9.136
  400POPC   C1A 8523  13.710  11.300   8.790
  400POPC   D2A 8524  13.580  11.152   8.424
  400POPC   C3A 8525  13.733  11.163   8.067
  400POPC   C4A 8526  13.976  11.385   7.768
  400POPC   C1B 8527  13.329  11.628   8.722
  400POPC   C2B 8528  13.277  11.590   8.346
  400POPC   C3B 8529  13.527  11.608   8.026
  400POPC   C4B 8530  13.483  11.412   7.642
  401POPC   NC3 8531  31.706  23.406   9.619
  401POPC   PO4 8532  31.362  22.781   9.438
  401POPC   GL1 8533  31.570  22.817   9.097
  401POPC   GL2 8534  31.674  23.143   9.161
  401POPC   C1A 8535  31.476  22.751   8.674
  401POPC   D2A 8536  31.601  22.836   8.288
  401POPC   C3A 8537  31.340  22.735   7.935
  401POPC   C4A 8538  31.346  22.892   7.503
  401POPC   C1B 8539  31.452  23.241   8.809
  401POPC   C2B 8540  31.628  23.337   8.402
  401POPC   C3B 8541  31.539  23.239   7.978
  401POPC   C4B 8542  31.341  23.397   7.605
  402POPC   NC3 8543  42.299  13.811   9.957
  402POPC   PO4 8544  42.185  14.395   9.667
  402POPC   GL1 8545  42.243  14.472   9.258
  402POPC   GL2 8546  41.997  14.196   9.216
  402POPC   C1A 8547  42.442  14.346   8.879
  402POPC   D2A 8548  42.197  14.496   8.497
  402POPC   C3A 8549  42.331  14.432   8.116
  402POPC   C4A 8550  42.095  14.499   7.781
  402POPC   C1B 8551  41.939  14.268   8.853
  402POPC   C2B 8552  41.905  14.075   8.484
  402POPC   C3B 8553  41.842  14.230   8.117
  402POPC   C4B 8554  41.683  14.141   7.768
  403POPC   NC3 8555  43.954  44.296   9.839
  403POPC   PO4 8556  44.080  44.926   9.590
  403POPC   GL1 8557  43.894  44.926   9.170
  403POPC   GL2 8558  43.986  44.638   9.081
  403POPC   C1A 8559  43.617  44.871   8.815
  403POPC   D2A 8560  43.406  44.667   8.487
  403POPC   C3A 8561  43.666  44.724   8.108
  403POPC   C4A 8562  43.712  44.908   7.702
  403POPC   C1B 8563  43.822  44.409   8.762
  403POPC   C2B 8564  43.720  44.251   8.391
  403POPC   C3B 8565  43.919  44.271   8.031
  403POPC   C4B 8566  43.817  44.423   7.654
  404POPC   NC3 8567  38.168  29.820   9.557
  404POPC   PO4 8568  38.841  29.803   9.712
  404POPC   GL1 8569  38.643  29.942   9.318
  404POPC   GL2 8570  38.481  29.647   9.186
  404POPC   C1A 8571  38.601  30.001   8.850
  404POPC   D2A 8572  38.513  29.752   8.484
  404POPC   C3A 8573  38.488  29.982   8.115
  404POPC   C4A 8574  38.517  29.992   7.689
  404POPC   C1B 8575  38.142  29.777   8.890
  404POPC   C2B 8576  37.971  29.632   8.509
  404POPC   C3B 8577  38.039  29.689   8.074
  404POPC   C4B 8578  38.170  29.597   7.645
  405POPC   NC3 8579   9.256   2.125   9.371
  405POPC   PO4 8580   8.836   1.694   9.605
  405POPC   GL1 8581   8.895   1.841   9.139
  405POPC   GL2 8582   8.822   2.203   9.055
  405POPC   C1A 8583   9.139   1.942   8.740
  405POPC   D2A 8584   9.323   2.113   8.353
  405POPC   C3A 8585   9.100   2.037   7.975
  405POPC   C4A 8586   8.778   1.870   7.732
  405POPC   C1B 8587   9.093   2.471   8.769
  405POPC   C2B 8588   9.286   2.624   8.408
  405POPC   C3B 8589   9.416   2.507   7.989
  405POPC   C4B 8590   9.173   2.419   7.618
  406POPC   NC3 8591  38.202   2.402   9.800
  406POPC   PO4 8592  38.406   1.801   9.563
  406POPC   GL1 8593  38.484   1.921   9.137
  406POPC   GL2 8594  38.113   1.849   9.146
  406POPC   C1A 8595  38.756   2.021   8.749
  406POPC   D2A 8596  38.943   1.938   8.329
  406POPC   C3A 8597  38.624   2.052   8.017
  406POPC   C4A 8598  38.320   2.107   7.686
  406POPC   C1B 8599  38.209   1.790   8.733
  406POPC   C2B 8600  38.256   1.768   8.308
  406POPC   C3B 8601  38.000   1.869   7.981
  406POPC   C4B 8602  38.028   1.707   7.531
  407POPC   NC3 8603   3.235  28.398   9.504
  407POPC   PO4 8604   3.736  28.504   9.953
  407POPC   GL1 8605   3.660  28.621   9.388
  407POPC   GL2 8606   3.819  28.500   9.112
  407POPC   C1A 8607   3.375  28.659   8.910
  407POPC   D2A 8608   3.231  28.432   8.533
  407POPC   C3A 8609   3.518  28.562   8.212
  407POPC   C4A 8610   3.377  28.556   7.804
  407POPC   C1B 8611   3.714  28.343   8.702
  407POPC   C2B 8612   3.648  28.087   8.376
  407POPC   C3B 8613   3.544  28.097   7.962
  407POPC   C4B 8614   3.806  28.105   7.633
  408POPC   NC3 8615  41.710   2.252   9.694
  408POPC   PO4 8616  41.558   2.857   9.600
  408POPC   GL1 8617  41.696   2.797   9.164
  408POPC   GL2 8618  41.525   2.519   9.158
  408POPC   C1A 8619  41.733   2.629   8.722
  408POPC   D2A 8620  41.735   2.921   8.401
  408POPC   C3A 8621  41.954   2.868   8.058
  408POPC   C4A 8622  41.903   2.708   7.679
  408POPC   C1B 8623  41.248   2.445   8.813
  408POPC   C2B 8624  41.302   2.615   8.408
  408POPC   C3B 8625  41.454   2.781   7.999
  408POPC   C4B 8626  41.376   2.605   7.607
  409POPC   NC3 8627   9.613   2.865   9.536
  409POPC   PO4 8628   9.923   2.286   9.714
  409POPC   GL1 8629   9.898   2.523   9.264
  409POPC   GL2 8630   9.512   2.553   9.128
  409POPC   C1A 8631   9.879   2.801   8.861
  409POPC   D2A 8632   9.753   2.817   8.430
  409POPC   C3A 8633   9.924   2.735   8.031
  409POPC   C4A 8634   9.800   2.734   7.602
  409POPC   C1B 8635   9.374   2.934   8.864
  409POPC   C2B 8636   9.343   3.137   8.437
  409POPC   C3B 8637   9.492   3.035   8.018
  409POPC   C4B 8638   9.321   2.891   7.635
  410POPC   NC3 8639  12.089  11.505   9.570
  410POPC   PO4 8640  12.319  10.834   9.444
  410POPC   GL1 8641  12.253  11.233   9.171
  410POPC   GL2 8642  11.891  11.370   9.107
  410POPC   C1A 8643  12.286  11.450   8.779
  410POPC   D2A 8644  12.015  11.481   8.424
  410POPC   C3A 8645  12.251  11.501   8.087
  410POPC   C4A 8646  12.465  11.294   7.725
  410POPC   C1B 8647  11.876  11.761   8.822
  410POPC   C2B 8648  11.642  11.844   8.457
  410POPC   C3B 8649  11.670  11.660   8.063
  410POPC   C4B 8650  11.905  11.668   7.692
  411POPC   NC3 8651  37.678  24.038   9.359
  411POPC   PO4 8652  38.103  24.484   9.505
  411POPC   GL1 8653  37.774  24.562   9.186
  411POPC   GL2 8654  37.404  24.428   9.154
  411POPC   C1A 8655  37.673  24.736   8.786
  411POPC   D2A 8656  37.812  24.865   8.385
  411POPC   C3A 8657  37.676  24.680   8.022
  411POPC   C4A 8658  37.674  24.838   7.629
  411POPC   C1B 8659  37.240  24.235   8.755
  411POPC   C2B 8660  37.000  24.168   8.354
  411POPC   C3B 8661  37.100  24.262   7.927
  411POPC   C4B 8662  37.470  24.357   7.645
  412POPC   NC3 8663  11.298  33.740   9.747
  412POPC   PO4 8664  11.934  33.642   9.423
  412POPC   GL1 8665  11.700  33.676   9.014
  412POPC   GL2 8666  11.343  33.689   9.051
  412POPC   C1A 8667  11.547  33.695   8.580
  412POPC   D2A 8668  11.327  33.452   8.284
  412POPC   C3A 8669  11.403  33.660   7.893
  412POPC   C4A 8670  11.328  33.942   7.565
  412POPC   C1B 8671  11.056  33.746   8.687
  412POPC   C2B 8672  11.197  33.948   8.280
  412POPC   C3B 8673  10.954  34.014   7.917
  412POPC   C4B 8674  10.911  33.635   7.734
  413POPC   NC3 8675   0.729  32.994   9.412
  413POPC   PO4 8676   0.186  33.337   9.723
  413POPC   GL1 8677   0.304  33.221   9.257
  413POPC   GL2 8678   0.074  33.011   9.077
  413POPC   C1A 8679   0.479  33.197   8.804
  413POPC   D2A 8680   0.723  33.059   8.419
  413POPC   C3A 8681   0.486  33.111   8.037
  413POPC   C4A 8682   0.281  33.490   7.862
  413POPC   C1B 8683   0.226  32.767   8.753
  413POPC   C2B 8684   0.382  32.681   8.363
  413POPC   C3B 8685   0.631  32.581   8.002
  413POPC   C4B 8686   0.283  32.713   7.778
  414POPC   NC3 8687  12.081   0.551   9.587
  414POPC   PO4 8688  11.544   0.083   9.531
  414POPC   GL1 8689  11.840   0.197   9.168
  414POPC   GL2 8690  12.140   0.406   9.119
  414POPC   C1A 8691  11.855   0.354   8.719
  414POPC   D2A 8692  12.150   0.273   8.380
  414POPC   C3A 8693  11.931   0.297   7.969
  414POPC   C4A 8694  12.165   0.306   7.598
  414POPC   C1B 8695  12.141   0.784   8.859
  414POPC   C2B 8696  12.240   0.907   8.446
  414POPC   C3B 8697  12.239   0.702   8.040
  414POPC   C4B 8698  11.885   0.771   7.777
  415POPC   NC3 8699  38.262  31.682   9.889
  415POPC   PO4 8700  38.339  32.195   9.470
  415POPC   GL1 8701  38.315  32.281   9.060
  415POPC   GL2 8702  38.343  32.654   9.086
  415POPC   C1A 8703  38.179  32.208   8.627
  415POPC   D2A 8704  38.515  32.236   8.358
  415POPC   C3A 8705  38.426  32.102   7.975
  415POPC   C4A 8706  38.030  32.208   7.792
  415POPC   C1B 8707  38.419  32.657   8.685
  415POPC   C2B 8708  38.550  32.753   8.313
  415POPC   C3B 8709  38.448  32.604   7.958
  415POPC   C4B 8710  38.672  32.531   7.597
  416POPC   NC3 8711  28.415  31.853   9.365
  416POPC   PO4 8712  28.460  32.449   9.516
  416POPC   GL1 8713  28.290  32.340   9.132
  416POPC   GL2 8714  28.576  32.184   8.995
  416POPC   C1A 8715  28.177  32.484   8.724
  416POPC   D2A 8716  28.056  32.297   8.332
  416POPC   C3A 8717  28.253  32.442   7.964
  416POPC   C4A 8718  28.135  32.702   7.641
  416POPC   C1B 8719  28.252  31.967   8.746
  416POPC   C2B 8720  28.155  31.773   8.361
  416POPC   C3B 8721  28.168  31.925   7.927
  416POPC   C4B 8722  28.613  31.914   7.754
  417POPC   NC3 8723  29.769  33.791   9.644
  417POPC   PO4 8724  30.312  33.467   9.502
  417POPC   GL1 8725  30.005  33.647   9.212
  417POPC   GL2 8726  29.658  33.500   9.192
  417POPC   C1A 8727  29.943  33.974   8.888
  417POPC   D2A 8728  29.804  33.959   8.457
  417POPC   C3A 8729  30.020  33.828   8.063
  417POPC   C4A 8730  29.746  33.808   7.653
  417POPC   C1B 8731  29.833  33.503   8.757
  417POPC   C2B 8732  29.790  33.407   8.325
  417POPC   C3B 8733  29.821  33.382   7.912
  417POPC   C4B 8734  30.099  33.425   7.592
  418POPC   NC3 8735   5.860  41.976   9.390
  418POPC   PO4 8736   5.733  42.611   9.567
  418POPC   GL1 8737   5.973  42.450   9.234
  418POPC   GL2 8738   5.759  42.282   9.012
  418POPC   C1A 8739   6.190  42.628   8.893
  418POPC   D2A 8740   6.147  42.743   8.465
  418POPC   C3A 8741   6.177  42.433   8.152
  418POPC   C4A 8742   6.047  42.529   7.735
  418POPC   C1B 8743   5.860  42.316   8.589
  418POPC   C2B 8744   5.722  42.195   8.190
  418POPC   C3B 8745   5.547  42.088   7.806
  418POPC   C4B 8746   5.580  42.189   7.395
  419POPC   NC3 8747   8.613  36.662   9.473
  419POPC   PO4 8748   8.835  36.001   9.449
  419POPC   GL1 8749   8.983  36.212   9.093
  419POPC   GL2 8750   9.183  35.976   8.990
  419POPC   C1A 8751   8.929  36.288   8.652
  419POPC   D2A 8752   9.068  36.618   8.370
  419POPC   C3A 8753   8.926  36.483   7.967
  419POPC   C4A 8754   8.842  36.039   7.827
  419POPC   C1B 8755   9.417  35.852   8.644
  419POPC   C2B 8756   9.473  35.692   8.224
  419POPC   C3B 8757   9.332  35.899   7.855
  419POPC   C4B 8758   9.331  35.799   7.391
  420POPC   NC3 8759   3.094   0.765   9.575
  420POPC   PO4 8760   3.672   0.538   9.681
  420POPC   GL1 8761   3.621   0.415   9.249
  420POPC   GL2 8762   3.286   0.290   9.173
  420POPC   C1A 8763   3.730   0.409   8.805
  420POPC   D2A 8764   3.975   0.249   8.452
  420POPC   C3A 8765   3.735   0.234   8.098
  420POPC   C4A 8766   3.673   0.489   7.757
  420POPC   C1B 8767   3.224   0.393   8.745
  420POPC   C2B 8768   3.324   0.486   8.289
  420POPC   C3B 8769   3.206   0.301   7.871
  420POPC   C4B 8770   3.229   0.539   7.462
  421POPC   NC3 8771  24.603  23.532   9.439
  421POPC   PO4 8772  24.919  23.990   9.660
  421POPC   GL1 8773  24.807  23.977   9.182
  421POPC   GL2 8774  24.488  23.799   9.031
  421POPC   C1A 8775  24.746  24.046   8.707
  421POPC   D2A 8776  24.326  24.059   8.472
  421POPC   C3A 8777  24.374  23.914   8.052
  421POPC   C4A 8778  24.765  23.839   7.812
  421POPC   C1B 8779  24.456  23.387   8.816
  421POPC   C2B 8780  24.590  23.216   8.413
  421POPC   C3B 8781  24.603  23.398   8.056
  421POPC   C4B 8782  24.319  23.525   7.728
  422POPC   NC3 8783  24.787  21.154   9.491
  422POPC   PO4 8784  24.462  21.733   9.523
  422POPC   GL1 8785  24.646  21.572   9.210
  422POPC   GL2 8786  24.395  21.319   9.159
  422POPC   C1A 8787  24.781  21.460   8.833
  422POPC   D2A 8788  24.491  21.501   8.468
  422POPC   C3A 8789  24.559  21.285   8.075
  422POPC   C4A 8790  24.488  21.494   7.636
  422POPC   C1B 8791  24.450  21.063   8.788
  422POPC   C2B 8792  24.159  20.946   8.464
  422POPC   C3B 8793  24.019  21.058   8.083
  422POPC   C4B 8794  24.200  21.088   7.734
  423POPC   NC3 8795  42.870  17.262   9.533
  423POPC   PO4 8796  43.406  17.641   9.578
  423POPC   GL1 8797  43.148  17.559   9.230
  423POPC   GL2 8798  43.268  17.224   9.177
  423POPC   C1A 8799  42.903  17.367   8.846
  423POPC   D2A 8800  43.044  17.247   8.432
  423POPC   C3A 8801  42.882  17.362   8.046
  423POPC   C4A 8802  42.774  17.645   7.722
  423POPC   C1B 8803  43.403  17.384   8.776
  423POPC   C2B 8804  43.527  17.303   8.350
  423POPC   C3B 8805  43.407  17.426   7.917
  423POPC   C4B 8806  43.103  17.267   7.584
  424POPC   NC3 8807   4.233  29.943   9.506
  424POPC   PO4 8808   4.750  29.522   9.525
  424POPC   GL1 8809   4.553  29.773   9.162
  424POPC   GL2 8810   4.652  30.128   9.219
  424POPC   C1A 8811   4.401  29.791   8.736
  424POPC   D2A 8812   4.640  29.929   8.370
  424POPC   C3A 8813   4.553  29.653   8.045
  424POPC   C4A 8814   4.312  29.713   7.727
  424POPC   C1B 8815   4.324  30.254   8.917
  424POPC   C2B 8816   4.015  30.154   8.549
  424POPC   C3B 8817   4.138  30.050   8.109
  424POPC   C4B 8818   4.520  30.145   7.862
  425POPC   NC3 8819   6.738  12.658   9.537
  425POPC   PO4 8820   6.258  13.078   9.417
  425POPC   GL1 8821   6.473  12.839   9.100
  425POPC   GL2 8822   6.448  12.485   9.134
  425POPC   C1A 8823   6.688  12.974   8.716
  425POPC   D2A 8824   6.758  13.349   8.415
  425POPC   C3A 8825   6.748  13.226   7.977
  425POPC   C4A 8826   6.765  13.104   7.527
  425POPC   C1B 8827   6.450  12.368   8.766
  425POPC   C2B 8828   6.369  12.622   8.444
  425POPC   C3B 8829   6.415  12.507   8.049
  425POPC   C4B 8830   6.579  12.562   7.646
  426POPC   NC3 8831  43.911  30.164   9.429
  426POPC   PO4 8832  44.182  29.572   9.481
  426POPC   GL1 8833  44.058  29.690   9.018
  426POPC   GL2 8834  43.908  30.042   8.949
  426POPC   C1A 8835  44.025  29.772   8.541
  426POPC   D2A 8836  43.751  30.106   8.354
  426POPC   C3A 8837  43.884  30.168   7.937
  426POPC   C4A 8838  44.011  29.781   7.691
  426POPC   C1B 8839  43.583  29.794   8.780
  426POPC   C2B 8840  43.459  29.668   8.371
  426POPC   C3B 8841  43.580  29.755   7.978
  426POPC   C4B 8842  43.539  29.953   7.597
  427POPC   NC3 8843  27.707  40.646   9.663
  427POPC   PO4 8844  26.979  40.715   9.582
  427POPC   GL1 8845  27.370  40.801   9.266
  427POPC   GL2 8846  27.766  40.891   9.216
  427POPC   C1A 8847  27.475  40.717   8.820
  427POPC   D2A 8848  27.463  40.453   8.466
  427POPC   C3A 8849  27.512  40.589   8.050
  427POPC   C4A 8850  27.293  40.920   7.880
  427POPC   C1B 8851  27.905  41.002   8.787
  427POPC   C2B 8852  27.748  40.904   8.373
  427POPC   C3B 8853  27.794  41.000   7.911
  427POPC   C4B 8854  28.088  40.904   7.586
  428POPC   NC3 8855   1.224  16.196   9.593
  428POPC   PO4 8856   1.705  15.771   9.361
  428POPC   GL1 8857   1.372  15.967   9.127
  428POPC   GL2 8858   1.009  16.031   9.102
  428POPC   C1A 8859   1.290  16.133   8.707
  428POPC   D2A 8860   1.238  15.925   8.341
  428POPC   C3A 8861   1.580  16.013   8.093
  428POPC   C4A 8862   1.406  16.005   7.693
  428POPC   C1B 8863   0.917  16.427   8.928
  428POPC   C2B 8864   1.063  16.556   8.519
  428POPC   C3B 8865   0.999  16.353   8.113
  428POPC   C4B 8866   0.953  16.263   7.652
  429POPC   NC3 8867  17.058  19.518   9.346
  429POPC   PO4 8868  16.505  19.876   9.518
  429POPC   GL1 8869  16.814  19.985   9.193
  429POPC   GL2 8870  17.003  20.306   9.139
  429POPC   C1A 8871  16.844  19.867   8.767
  429POPC   D2A 8872  16.630  19.907   8.373
  429POPC   C3A 8873  16.823  19.831   7.990
  429POPC   C4A 8874  16.660  19.679   7.626
  429POPC   C1B 8875  17.200  20.247   8.703
  429POPC   C2B 8876  17.070  20.196   8.288
  429POPC   C3B 8877  17.215  20.120   7.864
  429POPC   C4B 8878  16.977  20.094   7.464
  430POPC   NC3 8879  17.866   9.946   9.451
  430POPC   PO4 8880  17.156   9.743   9.525
  430POPC   GL1 8881  17.220   9.551   9.123
  430POPC   GL2 8882  17.573   9.592   9.157
  430POPC   C1A 8883  17.354   9.600   8.656
  430POPC   D2A 8884  17.398   9.838   8.263
  430POPC   C3A 8885  17.322   9.797   7.804
  430POPC   C4A 8886  17.189  10.164   7.528
  430POPC   C1B 8887  17.868   9.492   8.831
  430POPC   C2B 8888  17.839   9.591   8.394
  430POPC   C3B 8889  17.822   9.708   7.976
  430POPC   C4B 8890  17.771   9.460   7.643
  431POPC   NC3 8891  22.939   1.691   9.405
  431POPC   PO4 8892  22.718   2.275   9.659
  431POPC   GL1 8893  22.896   2.189   9.186
  431POPC   GL2 8894  22.787   1.935   8.984
  431POPC   C1A 8895  23.122   2.242   8.752
  431POPC   D2A 8896  23.030   2.456   8.335
  431POPC   C3A 8897  22.989   2.170   7.972
  431POPC   C4A 8898  22.688   1.893   7.772
  431POPC   C1B 8899  23.037   1.696   8.711
  431POPC   C2B 8900  23.014   1.691   8.251
  431POPC   C3B 8901  23.049   1.534   7.825
  431POPC   C4B 8902  23.080   1.645   7.374
  432POPC   NC3 8903  33.506  44.586   9.594
  432POPC   PO4 8904  34.167  44.419   9.491
  432POPC   GL1 8905  33.861  44.611   9.211
  432POPC   GL2 8906  33.969  44.916   9.115
  432POPC   C1A 8907  33.649  44.691   8.804
  432POPC   D2A 8908  33.550  44.490   8.421
  432POPC   C3A 8909  33.637  44.641   8.019
  432POPC   C4A 8910  34.029  44.628   7.771
  432POPC   C1B 8911  33.992   0.075   8.715
  432POPC   C2B 8912  33.729   0.031   8.364
  432POPC   C3B 8913  33.881   0.087   7.979
  432POPC   C4B 8914  33.851   0.103   7.568
  433POPC   NC3 8915  17.924  19.639   9.379
  433POPC   PO4 8916  18.600  19.773   9.499
  433POPC   GL1 8917  18.593  19.920   9.084
  433POPC   GL2 8918  18.244  20.034   9.026
  433POPC   C1A 8919  18.471  19.652   8.748
  433POPC   D2A 8920  18.104  19.561   8.481
  433POPC   C3A 8921  18.042  19.725   8.058
  433POPC   C4A 8922  18.226  19.540   7.658
  433POPC   C1B 8923  18.228  20.071   8.563
  433POPC   C2B 8924  18.571  19.896   8.310
  433POPC   C3B 8925  18.537  19.843   7.907
  433POPC   C4B 8926  18.243  20.108   7.757
  434POPC   NC3 8927  20.962  23.653   9.497
  434POPC   PO4 8928  21.566  23.448   9.529
  434POPC   GL1 8929  21.417  23.722   9.235
  434POPC   GL2 8930  21.728  23.873   9.234
  434POPC   C1A 8931  21.206  23.634   8.845
  434POPC   D2A 8932  21.150  23.353   8.461
  434POPC   C3A 8933  21.268  23.630   8.103
  434POPC   C4A 8934  21.162  23.918   7.754
  434POPC   C1B 8935  21.695  23.844   8.815
  434POPC   C2B 8936  21.427  24.041   8.533
  434POPC   C3B 8937  21.500  24.101   8.117
  434POPC   C4B 8938  21.741  23.807   7.887
  435POPC   NC3 8939  38.605   1.385   9.624
  435POPC   PO4 8940  38.166   0.856   9.584
  435POPC   GL1 8941  38.347   1.163   9.239
  435POPC   GL2 8942  38.619   1.401   9.121
  435POPC   C1A 8943  38.390   1.100   8.769
  435POPC   D2A 8944  38.275   1.242   8.347
  435POPC   C3A 8945  38.247   0.937   8.027
  435POPC   C4A 8946  38.395   0.838   7.638
  435POPC   C1B 8947  38.664   1.525   8.668
  435POPC   C2B 8948  38.684   1.526   8.213
  435POPC   C3B 8949  38.459   1.604   7.828
  435POPC   C4B 8950  38.582   1.778   7.400
  436POPC   NC3 8951  30.759   7.076   9.472
  436POPC   PO4 8952  30.917   7.714   9.577
  436POPC   GL1 8953  30.738   7.599   9.214
  436POPC   GL2 8954  30.414   7.716   9.167
  436POPC   C1A 8955  30.745   7.329   8.875
  436POPC   D2A 8956  30.745   7.388   8.459
  436POPC   C3A 8957  30.678   7.062   8.152
  436POPC   C4A 8958  30.816   7.132   7.766
  436POPC   C1B 8959  30.555   7.858   8.779
  436POPC   C2B 8960  30.413   7.786   8.377
  436POPC   C3B 8961  30.582   7.564   8.009
  436POPC   C4B 8962  30.875   7.613   7.689
  437POPC   NC3 8963   2.330  42.808   9.848
  437POPC   PO4 8964   1.808  42.949   9.414
  437POPC   GL1 8965   1.952  42.950   9.030
  437POPC   GL2 8966   2.123  43.275   9.018
  437POPC   C1A 8967   1.863  43.068   8.602
  437POPC   D2A 8968   2.189  43.367   8.430
  437POPC   C3A 8969   2.129  43.402   8.015
  437POPC   C4A 8970   1.990  43.141   7.681
  437POPC   C1B 8971   2.344  42.964   8.711
  437POPC   C2B 8972   2.398  42.893   8.267
  437POPC   C3B 8973   2.402  42.909   7.820
  437POPC   C4B 8974   2.224  42.632   7.535
  438POPC   NC3 8975  20.488   3.999   9.440
  438POPC   PO4 8976  20.396   4.719   9.484
  438POPC   GL1 8977  20.520   4.456   9.172
  438POPC   GL2 8978  20.862   4.304   9.244
  438POPC   C1A 8979  20.498   4.577   8.742
  438POPC   D2A 8980  20.687   4.800   8.399
  438POPC   C3A 8981  20.573   4.606   8.024
  438POPC   C4A 8982  20.427   4.178   7.937
  438POPC   C1B 8983  20.710   4.110   8.838
  438POPC   C2B 8984  20.724   4.248   8.413
  438POPC   C3B 8985  21.034   4.358   8.130
  438POPC   C4B 8986  20.902   4.201   7.764
  439POPC   NC3 8987  40.747  27.796   9.622
  439POPC   PO4 8988  40.576  27.164   9.688
  439POPC   GL1 8989  40.715  27.437   9.270
  439POPC   GL2 8990  41.059  27.503   9.223
  439POPC   C1A 8991  40.798  27.429   8.791
  439POPC   D2A 8992  40.759  27.607   8.377
  439POPC   C3A 8993  40.875  27.391   7.997
  439POPC   C4A 8994  40.689  27.588   7.654
  439POPC   C1B 8995  41.115  27.821   8.862
  439POPC   C2B 8996  41.216  27.879   8.434
  439POPC   C3B 8997  41.068  27.884   8.023
  439POPC   C4B 8998  41.225  27.705   7.665
  440POPC   NC3 8999   4.088  30.836   9.552
  440POPC   PO4 9000   3.429  30.732   9.560
  440POPC   GL1 9001   3.671  30.727   9.237
  440POPC   GL2 9002   3.907  30.429   9.276
  440POPC   C1A 9003   3.521  30.853   8.842
  440POPC   D2A 9004   3.382  30.730   8.455
  440POPC   C3A 9005   3.460  31.038   8.160
  440POPC   C4A 9006   3.536  30.865   7.778
  440POPC   C1B 9007   3.954  30.574   8.857
  440POPC   C2B 9008   3.919  30.684   8.465
  440POPC   C3B 9009   3.758  30.463   8.118
  440POPC   C4B 9010   3.941  30.458   7.728
  441POPC   NC3 9011  29.437  25.297   9.653
  441POPC   PO4 9012  30.060  25.189   9.566
  441POPC   GL1 9013  30.069  25.040   9.146
  441POPC   GL2 9014  30.177  25.376   9.063
  441POPC   C1A 9015  29.837  24.929   8.722
  441POPC   D2A 9016  29.695  24.760   8.308
  441POPC   C3A 9017  29.624  25.001   7.923
  441POPC   C4A 9018  29.714  25.375   7.670
  441POPC   C1B 9019  30.232  25.251   8.645
  441POPC   C2B 9020  30.048  25.153   8.237
  441POPC   C3B 9021  30.067  25.541   7.986
  441POPC   C4B 9022  30.383  25.818   7.838
  442POPC   NC3 9023  42.467  22.384   9.406
  442POPC   PO4 9024  42.134  21.778   9.540
  442POPC   GL1 9025  42.113  22.005   9.117
  442POPC   GL2 9026  42.484  21.961   9.121
  442POPC   C1A 9027  42.011  22.268   8.712
  442POPC   D2A 9028  42.302  22.562   8.437
  442POPC   C3A 9029  42.433  22.366   8.032
  442POPC   C4A 9030  42.219  21.993   7.849
  442POPC   C1B 9031  42.517  22.217   8.764
  442POPC   C2B 9032  42.371  22.032   8.397
  442POPC   C3B 9033  42.632  21.824   8.115
  442POPC   C4B 9034  42.685  21.694   7.734
  443POPC   NC3 9035   3.050   7.214   9.310
  443POPC   PO4 9036   3.538   7.572   9.531
  443POPC   GL1 9037   3.468   7.420   9.099
  443POPC   GL2 9038   3.499   7.042   9.062
  443POPC   C1A 9039   3.582   7.332   8.661
  443POPC   D2A 9040   3.715   7.608   8.326
  443POPC   C3A 9041   3.693   7.480   7.927
  443POPC   C4A 9042   3.485   7.708   7.589
  443POPC   C1B 9043   3.148   7.006   8.735
  443POPC   C2B 9044   3.029   6.898   8.314
  443POPC   C3B 9045   3.230   7.035   7.947
  443POPC   C4B 9046   3.422   7.204   7.592
  444POPC   NC3 9047  11.196  44.846   9.340
  444POPC   PO4 9048  11.665  44.372   9.491
  444POPC   GL1 9049  11.419  44.444   9.129
  444POPC   GL2 9050  11.624  44.746   9.116
  444POPC   C1A 9051  11.214  44.551   8.700
  444POPC   D2A 9052  11.200  44.910   8.373
  444POPC   C3A 9053  11.114  44.832   7.972
  444POPC   C4A 9054  11.312  44.454   7.872
  444POPC   C1B 9055  11.532  44.962   8.762
  444POPC   C2B 9056  11.705   0.012   8.349
  444POPC   C3B 9057  11.632  44.875   7.907
  444POPC   C4B 9058  11.913  44.858   7.550
  445POPC   NC3 9059  41.703  41.779   9.403
  445POPC   PO4 9060  41.516  41.087   9.463
  445POPC   GL1 9061  41.518  41.390   9.143
  445POPC   GL2 9062  41.264  41.657   9.143
  445POPC   C1A 9063  41.637  41.589   8.743
  445POPC   D2A 9064  41.762  41.520   8.305
  445POPC   C3A 9065  41.502  41.748   8.030
  445POPC   C4A 9066  41.274  41.770   7.690
  445POPC   C1B 9067  41.123  41.377   8.854
  445POPC   C2B 9068  41.325  41.211   8.504
  445POPC   C3B 9069  41.197  41.339   8.114
  445POPC   C4B 9070  41.224  41.258   7.713
  446POPC   NC3 9071  39.816  17.433   9.559
  446POPC   PO4 9072  40.342  17.801   9.770
  446POPC   GL1 9073  40.267  17.325   9.350
  446POPC   GL2 9074  39.967  17.228   9.137
  446POPC   C1A 9075  40.327  17.354   8.832
  446POPC   D2A 9076  40.029  17.541   8.528
  446POPC   C3A 9077  40.170  17.532   8.095
  446POPC   C4A 9078  40.288  17.816   7.723
  446POPC   C1B 9079  39.713  17.207   8.789
  446POPC   C2B 9080  39.628  17.235   8.357
  446POPC   C3B 9081  39.655  17.375   7.950
  446POPC   C4B 9082  39.984  17.371   7.653
  447POPC   NC3 9083  28.741   8.425   9.254
  447POPC   PO4 9084  29.180   8.026   9.572
  447POPC   GL1 9085  29.170   8.119   9.138
  447POPC   GL2 9086  29.260   8.451   9.137
  447POPC   C1A 9087  29.014   8.021   8.722
  447POPC   D2A 9088  28.799   8.230   8.373
  447POPC   C3A 9089  28.945   8.000   8.060
  447POPC   C4A 9090  29.278   7.998   7.784
  447POPC   C1B 9091  29.079   8.531   8.724
  447POPC   C2B 9092  29.018   8.688   8.305
  447POPC   C3B 9093  29.037   8.495   7.901
  447POPC   C4B 9094  28.824   8.212   7.616
  448POPC   NC3 9095  42.008  31.987   9.534
  448POPC   PO4 9096  42.469  32.513   9.593
  448POPC   GL1 9097  42.274  32.398   9.204
  448POPC   GL2 9098  42.293  32.082   9.130
  448POPC   C1A 9099  42.537  32.493   8.810
  448POPC   D2A 9100  42.566  32.825   8.526
  448POPC   C3A 9101  42.623  32.694   8.095
  448POPC   C4A 9102  42.684  32.513   7.715
  448POPC   C1B 9103  42.109  32.228   8.746
  448POPC   C2B 9104  42.307  32.383   8.378
  448POPC   C3B 9105  42.264  32.282   7.966
  448POPC   C4B 9106  42.248  31.914   7.696
  449POPC   NC3 9107  22.188   5.047   9.547
  449POPC   PO4 9108  21.902   5.664   9.582
  449POPC   GL1 9109  21.956   5.373   9.215
  449POPC   GL2 9110  22.320   5.276   9.097
  449POPC   C1A 9111  21.907   5.184   8.820
  449POPC   D2A 9112  22.164   5.179   8.434
  449POPC   C3A 9113  21.976   5.258   8.042
  449POPC   C4A 9114  21.885   5.143   7.630
  449POPC   C1B 9115  22.502   5.013   8.789
  449POPC   C2B 9116  22.493   4.774   8.414
  449POPC   C3B 9117  22.591   4.991   8.052
  449POPC   C4B 9118  22.395   5.126   7.689
  450POPC   NC3 9119   2.395  43.533   9.414
  450POPC   PO4 9120   1.953  43.916   9.620
  450POPC   GL1 9121   2.011  43.811   9.196
  450POPC   GL2 9122   2.325  43.968   9.130
  450POPC   C1A 9123   2.016  43.734   8.757
  450POPC   D2A 9124   2.166  43.901   8.370
  450POPC   C3A 9125   1.896  43.865   8.032
  450POPC   C4A 9126   1.793  43.715   7.632
  450POPC   C1B 9127   2.578  44.141   8.814
  450POPC   C2B 9128   2.457  44.359   8.418
  450POPC   C3B 9129   2.319  44.288   7.995
  450POPC   C4B 9130   2.140  44.078   7.615
  451POPC   NC3 9131  27.004  36.526   9.498
  451POPC   PO4 9132  27.065  35.857   9.680
  451POPC   GL1 9133  26.937  36.035   9.277
  451POPC   GL2 9134  26.588  35.924   9.144
  451POPC   C1A 9135  26.909  36.163   8.842
  451POPC   D2A 9136  26.743  36.332   8.486
  451POPC   C3A 9137  26.867  36.067   8.138
  451POPC   C4A 9138  26.931  36.069   7.704
  451POPC   C1B 9139  26.371  36.101   8.804
  451POPC   C2B 9140  26.339  36.037   8.371
  451POPC   C3B 9141  26.428  36.303   8.070
  451POPC   C4B 9142  26.430  36.006   7.802
  452POPC   NC3 9143  34.321  30.420   9.474
  452POPC   PO4 9144  34.882  29.988   9.491
  452POPC   GL1 9145  34.629  29.783   9.201
  452POPC   GL2 9146  34.296  29.922   9.241
  452POPC   C1A 9147  34.522  29.757   8.772
  452POPC   D2A 9148  34.357  29.745   8.370
  452POPC   C3A 9149  34.669  29.707   8.061
  452POPC   C4A 9150  34.547  29.670   7.684
  452POPC   C1B 9151  34.307  30.223   8.882
  452POPC   C2B 9152  34.486  30.217   8.511
  452POPC   C3B 9153  34.441  30.201   8.104
  452POPC   C4B 9154  34.328  30.134   7.701
  453POPC   NC3 9155  24.143  44.613   9.321
  453POPC   PO4 9156  24.619  44.944   9.707
  453POPC   GL1 9157  24.640  44.834   9.191
  453POPC   GL2 9158  24.413  44.820   8.946
  453POPC   C1A 9159  24.765  44.498   8.837
  453POPC   D2A 9160  24.563  44.595   8.438
  453POPC   C3A 9161  24.703  44.418   8.062
  453POPC   C4A 9162  24.597  44.085   7.784
  453POPC   C1B 9163  24.317   0.117   8.635
  453POPC   C2B 9164  24.555   0.123   8.291
  453POPC   C3B 9165  24.598  44.898   7.949
  453POPC   C4B 9166  24.448  44.575   7.668
  454POPC   NC3 9167  10.229  27.703   9.597
  454POPC   PO4 9168  10.902  27.475   9.664
  454POPC   GL1 9169  10.622  27.526   9.295
  454POPC   GL2 9170  10.263  27.522   9.138
  454POPC   C1A 9171  10.704  27.475   8.862
  454POPC   D2A 9172  10.734  27.678   8.450
  454POPC   C3A 9173  10.715  27.424   8.083
  454POPC   C4A 9174  10.775  27.627   7.662
  454POPC   C1B 9175  10.265  27.697   8.715
  454POPC   C2B 9176  10.256  27.865   8.290
  454POPC   C3B 9177  10.297  27.676   7.899
  454POPC   C4B 9178  10.304  27.736   7.451
  455POPC   NC3 9179  13.547  21.123   9.438
  455POPC   PO4 9180  13.546  21.721   9.311
  455POPC   GL1 9181  13.773  21.434   9.113
  455POPC   GL2 9182  13.927  21.091   9.103
  455POPC   C1A 9183  13.710  21.332   8.722
  455POPC   D2A 9184  13.821  21.606   8.427
  455POPC   C3A 9185  13.664  21.441   8.060
  455POPC   C4A 9186  13.523  21.558   7.701
  455POPC   C1B 9187  14.059  20.949   8.728
  455POPC   C2B 9188  13.951  21.095   8.310
  455POPC   C3B 9189  13.863  21.009   7.856
  455POPC   C4B 9190  13.788  21.203   7.437
  456POPC   NC3 9191  43.356  24.328   9.496
  456POPC   PO4 9192  43.974  24.542   9.578
  456POPC   GL1 9193  43.773  24.572   9.214
  456POPC   GL2 9194  43.796  24.241   9.147
  456POPC   C1A 9195  43.720  24.558   8.757
  456POPC   D2A 9196  43.836  24.347   8.386
  456POPC   C3A 9197  44.075  24.597   8.115
  456POPC   C4A 9198  43.913  24.890   7.801
  456POPC   C1B 9199  44.094  24.141   8.791
  456POPC   C2B 9200  44.180  23.981   8.347
  456POPC   C3B 9201  44.190  24.132   7.919
  456POPC   C4B 9202  43.936  24.337   7.642
  457POPC   NC3 9203   7.618   2.428   9.463
  457POPC   PO4 9204   7.390   3.070   9.571
  457POPC   GL1 9205   7.530   2.928   9.210
  457POPC   GL2 9206   7.218   3.039   9.064
  457POPC   C1A 9207   7.626   2.726   8.836
  457POPC   D2A 9208   7.744   2.625   8.426
  457POPC   C3A 9209   7.446   2.652   8.100
  457POPC   C4A 9210   7.540   2.940   7.794
  457POPC   C1B 9211   7.221   2.965   8.616
  457POPC   C2B 9212   7.186   3.215   8.247
  457POPC   C3B 9213   7.053   3.055   7.885
  457POPC   C4B 9214   7.076   2.661   7.691
  458POPC   NC3 9215  34.205  31.413   9.455
  458POPC   PO4 9216  34.803  31.652   9.537
  458POPC   GL1 9217  34.681  31.385   9.190
  458POPC   GL2 9218  34.813  31.114   9.328
  458POPC   C1A 9219  34.649  31.464   8.743
  458POPC   D2A 9220  34.471  31.691   8.405
  458POPC   C3A 9221  34.597  31.522   8.011
  458POPC   C4A 9222  34.718  31.808   7.725
  458POPC   C1B 9223  34.936  31.028   8.880
  458POPC   C2B 9224  34.918  31.064   8.428
  458POPC   C3B 9225  35.137  31.199   8.036
  458POPC   C4B 9226  35.004  31.405   7.641
  459POPC   NC3 9227  33.349  39.484   9.205
  459POPC   PO4 9228  32.783  39.243   9.497
  459POPC   GL1 9229  32.875  39.375   9.115
  459POPC   GL2 9230  33.026  39.035   9.114
  459POPC   C1A 9231  33.055  39.283   8.684
  459POPC   D2A 9232  33.170  39.091   8.369
  459POPC   C3A 9233  33.198  39.320   8.023
  459POPC   C4A 9234  32.906  39.360   7.716
  459POPC   C1B 9235  32.746  38.839   8.795
  459POPC   C2B 9236  32.593  38.904   8.375
  459POPC   C3B 9237  32.840  38.930   8.028
  459POPC   C4B 9238  33.034  38.657   7.823
  460POPC   NC3 9239   6.828  37.148   9.625
  460POPC   PO4 9240   7.269  36.702   9.492
  460POPC   GL1 9241   7.451  36.931   9.191
  460POPC   GL2 9242   7.131  37.129   9.176
  460POPC   C1A 9243   7.702  36.789   8.819
  460POPC   D2A 9244   7.647  36.610   8.388
  460POPC   C3A 9245   7.548  36.876   8.003
  460POPC   C4A 9246   7.410  36.924   7.544
  460POPC   C1B 9247   7.340  37.163   8.774
  460POPC   C2B 9248   7.225  36.985   8.403
  460POPC   C3B 9249   7.032  37.235   8.102
  460POPC   C4B 9250   7.157  37.358   7.690
  461POPC   NC3 9251  20.394  30.663   9.627
  461POPC   PO4 9252  20.904  30.321   9.414
  461POPC   GL1 9253  20.628  30.598   9.177
  461POPC   GL2 9254  20.425  30.457   8.958
  461POPC   C1A 9255  20.693  30.897   8.847
  461POPC   D2A 9256  20.669  30.724   8.430
  461POPC   C3A 9257  20.656  30.878   8.006
  461POPC   C4A 9258  20.735  30.822   7.555
  461POPC   C1B 9259  20.219  30.461   8.572
  461POPC   C2B 9260  20.296  30.503   8.123
  461POPC   C3B 9261  20.473  30.433   7.720
  461POPC   C4B 9262  20.413  30.491   7.254
  462POPC   NC3 9263  34.869  15.379   9.509
  462POPC   PO4 9264  34.440  14.774   9.696
  462POPC   GL1 9265  34.507  14.908   9.266
  462POPC   GL2 9266  34.843  14.924   9.115
  462POPC   C1A 9267  34.426  15.158   8.899
  462POPC   D2A 9268  34.679  15.382   8.585
  462POPC   C3A 9269  34.518  15.390   8.168
  462POPC   C4A 9270  34.487  15.118   7.805
  462POPC   C1B 9271  34.980  14.953   8.692
  462POPC   C2B 9272  34.767  14.930   8.289
  462POPC   C3B 9273  34.879  14.781   7.883
  462POPC   C4B 9274  34.786  14.817   7.431
  463POPC   NC3 9275  14.555  11.993   9.493
  463POPC   PO4 9276  14.726  11.417   9.161
  463POPC   GL1 9277  14.631  11.861   9.017
  463POPC   GL2 9278  14.263  12.016   9.072
  463POPC   C1A 9279  14.555  12.157   8.669
  463POPC   D2A 9280  14.304  12.168   8.294
  463POPC   C3A 9281  14.541  12.039   7.900
  463POPC   C4A 9282  14.528  11.805   7.491
  463POPC   C1B 9283  14.041  12.299   8.774
  463POPC   C2B 9284  13.811  12.472   8.413
  463POPC   C3B 9285  13.965  12.413   7.994
  463POPC   C4B 9286  14.185  12.531   7.623
  464POPC   NC3 9287   1.739  32.410   9.358
  464POPC   PO4 9288   1.918  32.889   9.830
  464POPC   GL1 9289   1.785  33.005   9.359
  464POPC   GL2 9290   1.658  33.343   9.211
  464POPC   C1A 9291   1.858  32.924   8.872
  464POPC   D2A 9292   2.088  32.834   8.448
  464POPC   C3A 9293   2.100  33.021   7.985
  464POPC   C4A 9294   2.037  32.812   7.536
  464POPC   C1B 9295   1.892  33.428   8.802
  464POPC   C2B 9296   1.804  33.266   8.399
  464POPC   C3B 9297   1.591  32.982   8.120
  464POPC   C4B 9298   1.614  33.014   7.683
  465POPC   NC3 9299  41.941   7.143   9.453
  465POPC   PO4 9300  41.337   6.854   9.483
  465POPC   GL1 9301  41.500   7.181   9.187
  465POPC   GL2 9302  41.699   7.538   9.233
  465POPC   C1A 9303  41.482   7.376   8.790
  465POPC   D2A 9304  41.323   7.474   8.411
  465POPC   C3A 9305  41.617   7.311   8.164
  465POPC   C4A 9306  41.496   7.294   7.796
  465POPC   C1B 9307  41.710   7.837   8.863
  465POPC   C2B 9308  41.743   7.764   8.429
  465POPC   C3B 9309  41.584   7.782   7.996
  465POPC   C4B 9310  41.653   7.695   7.548
  466POPC   NC3 9311  14.927   8.373   9.328
  466POPC   PO4 9312  15.543   8.139   9.457
  466POPC   GL1 9313  15.425   8.348   9.098
  466POPC   GL2 9314  15.211   8.055   9.042
  466POPC   C1A 9315  15.225   8.397   8.692
  466POPC   D2A 9316  14.957   8.320   8.340
  466POPC   C3A 9317  15.051   8.615   8.029
  466POPC   C4A 9318  15.122   8.435   7.646
  466POPC   C1B 9319  14.993   7.939   8.684
  466POPC   C2B 9320  15.190   7.865   8.267
  466POPC   C3B 9321  15.065   7.974   7.854
  466POPC   C4B 9322  15.226   7.903   7.432
  467POPC   NC3 9323  32.381  18.244   9.760
  467POPC   PO4 9324  32.283  17.761   9.298
  467POPC   GL1 9325  32.542  18.161   9.114
  467POPC   GL2 9326  32.500  18.549   9.163
  467POPC   C1A 9327  32.382  18.285   8.694
  467POPC   D2A 9328  32.039  18.326   8.386
  467POPC   C3A 9329  32.247  18.226   8.037
  467POPC   C4A 9330  32.122  18.051   7.714
  467POPC   C1B 9331  32.503  18.789   8.737
  467POPC   C2B 9332  32.447  18.644   8.298
  467POPC   C3B 9333  32.466  18.641   7.832
  467POPC   C4B 9334  32.519  18.738   7.381
  468POPC   NC3 9335   3.889  17.880   9.354
  468POPC   PO4 9336   3.338  18.108   9.475
  468POPC   GL1 9337   3.466  18.343   9.140
  468POPC   GL2 9338   3.457  18.033   8.937
  468POPC   C1A 9339   3.623  18.466   8.734
  468POPC   D2A 9340   3.660  18.179   8.396
  468POPC   C3A 9341   3.577  18.368   7.993
  468POPC   C4A 9342   3.353  18.454   7.626
  468POPC   C1B 9343   3.089  17.905   8.681
  468POPC   C2B 9344   2.987  17.895   8.233
  468POPC   C3B 9345   3.185  18.002   7.823
  468POPC   C4B 9346   3.186  17.906   7.360
  469POPC   NC3 9347  42.358  23.876   9.418
  469POPC   PO4 9348  42.204  24.563   9.446
  469POPC   GL1 9349  42.439  24.490   9.122
  469POPC   GL2 9350  42.465  24.862   9.040
  469POPC   C1A 9351  42.373  24.333   8.729
  469POPC   D2A 9352  42.347  24.632   8.409
  469POPC   C3A 9353  42.368  24.442   8.011
  469POPC   C4A 9354  42.710  24.260   7.806
  469POPC   C1B 9355  42.045  24.735   8.835
  469POPC   C2B 9356  41.763  24.697   8.505
  469POPC   C3B 9357  41.916  24.693   8.099
  469POPC   C4B 9358  42.060  24.723   7.703
  470POPC   NC3 9359  35.595  18.506   9.254
  470POPC   PO4 9360  36.069  18.198   9.526
  470POPC   GL1 9361  36.117  18.277   9.125
  470POPC   GL2 9362  35.859  18.096   9.077
  470POPC   C1A 9363  36.275  18.225   8.722
  470POPC   D2A 9364  36.532  18.490   8.447
  470POPC   C3A 9365  36.333  18.442   8.052
  470POPC   C4A 9366  36.351  18.568   7.639
  470POPC   C1B 9367  35.834  17.880   8.744
  470POPC   C2B 9368  35.905  18.070   8.365
  470POPC   C3B 9369  36.139  17.936   8.038
  470POPC   C4B 9370  36.065  18.081   7.649
  471POPC   NC3 9371  19.059   8.481   9.317
  471POPC   PO4 9372  19.002   9.072   9.606
  471POPC   GL1 9373  19.163   8.977   9.188
  471POPC   GL2 9374  19.480   8.756   9.152
  471POPC   C1A 9375  19.158   8.958   8.746
  471POPC   D2A 9376  19.406   9.096   8.407
  471POPC   C3A 9377  19.161   9.139   8.048
  471POPC   C4A 9378  19.034   9.059   7.640
  471POPC   C1B 9379  19.374   8.498   8.764
  471POPC   C2B 9380  19.215   8.599   8.346
  471POPC   C3B 9381  19.269   8.667   7.889
  471POPC   C4B 9382  19.535   9.022   7.687
  472POPC   NC3 9383  27.907  17.399   9.609
  472POPC   PO4 9384  27.417  16.987   9.604
  472POPC   GL1 9385  27.502  17.381   9.263
  472POPC   GL2 9386  27.731  17.654   9.189
  472POPC   C1A 9387  27.496  17.434   8.765
  472POPC   D2A 9388  27.402  17.571   8.319
  472POPC   C3A 9389  27.558  17.405   7.901
  472POPC   C4A 9390  27.670  17.299   7.426
  472POPC   C1B 9391  27.964  17.657   8.795
  472POPC   C2B 9392  27.936  17.523   8.358
  472POPC   C3B 9393  28.001  17.658   7.950
  472POPC   C4B 9394  28.092  17.516   7.576
  473POPC   NC3 9395  16.654  15.856   9.609
  473POPC   PO4 9396  17.135  16.296   9.531
  473POPC   GL1 9397  16.835  16.153   9.224
  473POPC   GL2 9398  17.057  15.858   9.156
  473POPC   C1A 9399  16.572  16.123   8.812
  473POPC   D2A 9400  16.425  16.279   8.368
  473POPC   C3A 9401  16.356  15.942   8.051
  473POPC   C4A 9402  16.667  15.702   7.790
  473POPC   C1B 9403  17.080  16.172   8.789
  473POPC   C2B 9404  16.931  16.073   8.381
  473POPC   C3B 9405  16.814  16.169   7.956
  473POPC   C4B 9406  16.767  16.145   7.495
  474POPC   NC3 9407  33.720   8.632   9.481
  474POPC   PO4 9408  34.044   9.221   9.488
  474POPC   GL1 9409  33.952   8.952   9.149
  474POPC   GL2 9410  33.608   8.938   9.083
  474POPC   C1A 9411  33.964   8.912   8.711
  474POPC   D2A 9412  33.626   8.932   8.437
  474POPC   C3A 9413  33.784   9.076   8.059
  474POPC   C4A 9414  34.173   8.973   7.878
  474POPC   C1B 9415  33.578   8.561   8.783
  474POPC   C2B 9416  33.798   8.435   8.382
  474POPC   C3B 9417  33.685   8.583   7.947
  474POPC   C4B 9418  33.754   8.886   7.583
  475POPC   NC3 9419   3.939  20.995   9.352
  475POPC   PO4 9420   3.883  20.327   9.507
  475POPC   GL1 9421   3.733  20.575   9.123
  475POPC   GL2 9422   3.396  20.517   9.115
  475POPC   C1A 9423   3.618  20.648   8.657
  475POPC   D2A 9424   3.457  20.383   8.317
  475POPC   C3A 9425   3.642  20.537   7.908
  475POPC   C4A 9426   3.508  20.434   7.481
  475POPC   C1B 9427   3.125  20.523   8.745
  475POPC   C2B 9428   2.960  20.556   8.324
  475POPC   C3B 9429   3.128  20.522   7.928
  475POPC   C4B 9430   3.272  20.845   7.670
  476POPC   NC3 9431   7.552  15.303   9.454
  476POPC   PO4 9432   7.099  14.726   9.491
  476POPC   GL1 9433   7.209  15.046   9.166
  476POPC   GL2 9434   7.140  15.409   9.161
  476POPC   C1A 9435   7.486  15.081   8.792
  476POPC   D2A 9436   7.257  14.957   8.436
  476POPC   C3A 9437   7.432  14.973   8.051
  476POPC   C4A 9438   7.316  14.939   7.641
  476POPC   C1B 9439   7.269  15.519   8.750
  476POPC   C2B 9440   7.447  15.440   8.356
  476POPC   C3B 9441   7.216  15.515   7.975
  476POPC   C4B 9442   7.127  15.500   7.497
  477POPC   NC3 9443  35.166  12.144   9.304
  477POPC   PO4 9444  34.531  12.105   9.573
  477POPC   GL1 9445  34.535  12.253   9.149
  477POPC   GL2 9446  34.798  12.470   9.068
  477POPC   C1A 9447  34.682  11.998   8.788
  477POPC   D2A 9448  34.583  11.671   8.457
  477POPC   C3A 9449  34.557  11.791   8.015
  477POPC   C4A 9450  34.673  11.903   7.572
  477POPC   C1B 9451  34.685  12.475   8.630
  477POPC   C2B 9452  34.566  12.206   8.319
  477POPC   C3B 9453  34.730  12.259   7.923
  477POPC   C4B 9454  34.722  12.592   7.643
  478POPC   NC3 9455   6.060   2.357   9.443
  478POPC   PO4 9456   5.701   1.717   9.475
  478POPC   GL1 9457   5.763   1.990   9.121
  478POPC   GL2 9458   6.116   2.044   9.009
  478POPC   C1A 9459   5.782   2.061   8.639
  478POPC   D2A 9460   6.099   2.003   8.297
  478POPC   C3A 9461   5.884   2.012   7.886
  478POPC   C4A 9462   5.850   2.086   7.435
  478POPC   C1B 9463   6.152   2.426   8.778
  478POPC   C2B 9464   5.941   2.506   8.416
  478POPC   C3B 9465   6.103   2.435   8.034
  478POPC   C4B 9466   6.005   2.536   7.633
  479POPC   NC3 9467  18.750  34.670   9.535
  479POPC   PO4 9468  19.104  34.291   9.774
  479POPC   GL1 9469  19.075  34.364   9.306
  479POPC   GL2 9470  18.774  34.199   9.277
  479POPC   C1A 9471  19.092  34.621   8.875
  479POPC   D2A 9472  18.856  34.715   8.466
  479POPC   C3A 9473  19.085  34.766   8.049
  479POPC   C4A 9474  19.272  34.608   7.641
  479POPC   C1B 9475  18.759  34.244   8.861
  479POPC   C2B 9476  18.627  34.215   8.476
  479POPC   C3B 9477  18.781  34.336   8.122
  479POPC   C4B 9478  18.885  34.208   7.774
  480POPC   NC3 9479   2.016  35.885   9.537
  480POPC   PO4 9480   1.806  36.525   9.423
  480POPC   GL1 9481   2.066  36.219   9.144
  480POPC   GL2 9482   2.329  35.892   9.102
  480POPC   C1A 9483   1.875  36.103   8.757
  480POPC   D2A 9484   1.700  36.297   8.391
  480POPC   C3A 9485   1.732  36.062   8.035
  480POPC   C4A 9486   1.963  36.129   7.708
  480POPC   C1B 9487   2.386  36.170   8.741
  480POPC   C2B 9488   2.212  36.123   8.319
  480POPC   C3B 9489   2.417  36.090   7.929
  480POPC   C4B 9490   2.371  36.381   7.587
  481POPC   NC3 9491   9.201  37.918   9.530
  481POPC   PO4 9492   8.859  37.372   9.619
  481POPC   GL1 9493   8.982  37.620   9.202
  481POPC   GL2 9494   8.748  37.792   9.122
  481POPC   C1A 9495   9.212  37.523   8.785
  481POPC   D2A 9496   9.373  37.720   8.435
  481POPC   C3A 9497   9.232  37.573   8.050
  481POPC   C4A 9498   9.088  37.779   7.712
  481POPC   C1B 9499   8.709  37.606   8.762
  481POPC   C2B 9500   8.847  37.704   8.383
  481POPC   C3B 9501   8.729  37.495   8.038
  481POPC   C4B 9502   8.612  37.590   7.673
  482POPC   NC3 9503   6.612   0.984   9.775
  482POPC   PO4 9504   6.676   0.287   9.554
  482POPC   GL1 9505   6.463   0.309   9.155
  482POPC   GL2 9506   6.727   0.471   9.023
  482POPC   C1A 9507   6.267   0.307   8.756
  482POPC   D2A 9508   6.218   0.550   8.350
  482POPC   C3A 9509   6.430   0.569   7.927
  482POPC   C4A 9510   6.259   0.665   7.473
  482POPC   C1B 9511   6.739   0.432   8.597
  482POPC   C2B 9512   6.891   0.430   8.219
  482POPC   C3B 9513   6.882   0.351   7.826
  482POPC   C4B 9514   6.741   0.538   7.499
  483POPC   NC3 9515  27.693  44.317   9.627
  483POPC   PO4 9516  27.133  44.006   9.502
  483POPC   GL1 9517  27.395  44.062   9.128
  483POPC   GL2 9518  27.745  43.993   9.179
  483POPC   C1A 9519  27.597  44.035   8.695
  483POPC   D2A 9520  27.594  43.709   8.344
  483POPC   C3A 9521  27.587  43.847   7.900
  483POPC   C4A 9522  27.345  43.638   7.576
  483POPC   C1B 9523  27.875  43.622   8.857
  483POPC   C2B 9524  28.050  43.494   8.406
  483POPC   C3B 9525  28.074  43.703   7.966
  483POPC   C4B 9526  27.974  44.152   7.760
  484POPC   NC3 9527  13.276  40.530   9.433
  484POPC   PO4 9528  12.638  40.807   9.522
  484POPC   GL1 9529  12.622  40.859   9.101
  484POPC   GL2 9530  13.005  40.862   9.108
  484POPC   C1A 9531  12.705  40.785   8.686
  484POPC   D2A 9532  13.002  40.811   8.383
  484POPC   C3A 9533  12.764  40.837   8.072
  484POPC   C4A 9534  12.712  40.642   7.747
  484POPC   C1B 9535  13.293  41.060   8.804
  484POPC   C2B 9536  13.238  41.248   8.428
  484POPC   C3B 9537  13.076  41.250   8.042
  484POPC   C4B 9538  13.154  40.980   7.744
  485POPC   NC3 9539  21.714  15.824   9.523
  485POPC   PO4 9540  21.268  16.266   9.352
  485POPC   GL1 9541  21.199  16.232   8.956
  485POPC   GL2 9542  21.051  15.931   8.931
  485POPC   C1A 9543  21.406  16.073   8.596
  485POPC   D2A 9544  21.339  15.943   8.186
  485POPC   C3A 9545  21.530  16.173   7.845
  485POPC   C4A 9546  21.829  16.074   7.511
  485POPC   C1B 9547  21.047  15.567   8.752
  485POPC   C2B 9548  21.204  15.463   8.371
  485POPC   C3B 9549  21.085  15.560   7.960
  485POPC   C4B 9550  21.061  15.608   7.520
  486POPC   NC3 9551  19.015  15.887   9.501
  486POPC   PO4 9552  18.718  16.515   9.484
  486POPC   GL1 9553  18.906  16.252   9.153
  486POPC   GL2 9554  19.283  16.129   9.138
  486POPC   C1A 9555  18.945  16.065   8.749
  486POPC   D2A 9556  18.839  16.231   8.357
  486POPC   C3A 9557  18.834  16.004   7.993
  486POPC   C4A 9558  19.195  16.147   7.825
  486POPC   C1B 9559  19.415  15.800   8.810
  486POPC   C2B 9560  19.262  15.833   8.379
  486POPC   C3B 9561  19.444  15.721   7.971
  486POPC   C4B 9562  19.323  15.748   7.518
  487POPC   NC3 9563  42.517  31.025   9.999
  487POPC   PO4 9564  42.139  30.691   9.533
  487POPC   GL1 9565  42.298  30.539   9.147
  487POPC   GL2 9566  42.585  30.748   9.070
  487POPC   C1A 9567  42.438  30.408   8.742
  487POPC   D2A 9568  42.308  30.353   8.349
  487POPC   C3A 9569  42.474  30.635   8.054
  487POPC   C4A 9570  42.411  30.566   7.621
  487POPC   C1B 9571  42.368  30.963   8.738
  487POPC   C2B 9572  42.250  31.264   8.434
  487POPC   C3B 9573  42.271  31.127   8.020
  487POPC   C4B 9574  42.458  31.068   7.642
  488POPC   NC3 9575  28.748  19.220   9.439
  488POPC   PO4 9576  28.076  19.323   9.496
  488POPC   GL1 9577  28.326  19.222   9.141
  488POPC   GL2 9578  28.168  18.899   9.100
  488POPC   C1A 9579  28.530  19.006   8.758
  488POPC   D2A 9580  28.306  18.899   8.386
  488POPC   C3A 9581  28.535  18.812   8.041
  488POPC   C4A 9582  28.810  18.927   7.698
  488POPC   C1B 9583  28.026  19.184   8.738
  488POPC   C2B 9584  28.014  19.330   8.294
  488POPC   C3B 9585  28.134  19.172   7.862
  488POPC   C4B 9586  28.307  18.812   7.600
  489POPC   NC3 9587  25.309  24.081   9.889
  489POPC   PO4 9588  25.359  23.692   9.320
  489POPC   GL1 9589  25.206  23.668   8.988
  489POPC   GL2 9590  24.920  23.474   9.050
  489POPC   C1A 9591  25.390  23.685   8.583
  489POPC   D2A 9592  25.155  23.908   8.273
  489POPC   C3A 9593  25.479  24.037   8.037
  489POPC   C4A 9594  25.591  23.645   7.888
  489POPC   C1B 9595  24.890  23.568   8.616
  489POPC   C2B 9596  25.085  23.378   8.296
  489POPC   C3B 9597  25.106  23.464   7.880
  489POPC   C4B 9598  24.782  23.331   7.601
  490POPC   NC3 9599  25.791  22.502   9.519
  490POPC   PO4 9600  26.168  23.138   9.514
  490POPC   GL1 9601  26.052  22.820   9.201
  490POPC   GL2 9602  25.760  22.981   9.140
  490POPC   C1A 9603  25.983  22.743   8.752
  490POPC   D2A 9604  25.950  22.928   8.345
  490POPC   C3A 9605  25.845  22.681   8.014
  490POPC   C4A 9606  25.860  22.815   7.640
  490POPC   C1B 9607  25.889  23.245   8.758
  490POPC   C2B 9608  25.816  23.424   8.327
  490POPC   C3B 9609  25.946  23.264   7.889
  490POPC   C4B 9610  26.011  23.239   7.417
  491POPC   NC3 9611   0.077  14.531   9.540
  491POPC   PO4 9612   0.727  14.333   9.612
  491POPC   GL1 9613   0.494  14.402   9.223
  491POPC   GL2 9614   0.226  14.150   9.221
  491POPC   C1A 9615   0.279  14.563   8.833
  491POPC   D2A 9616   0.415  14.381   8.428
  491POPC   C3A 9617   0.332  14.540   8.016
  491POPC   C4A 9618   0.714  14.637   7.770
  491POPC   C1B 9619   0.313  14.050   8.812
  491POPC   C2B 9620   0.431  13.818   8.488
  491POPC   C3B 9621   0.355  13.964   8.092
  491POPC   C4B 9622   0.352  14.150   7.672
  492POPC   NC3 9623  32.429  19.215   9.542
  492POPC   PO4 9624  32.131  18.627   9.570
  492POPC   GL1 9625  32.021  18.766   9.194
  492POPC   GL2 9626  32.251  19.020   9.112
  492POPC   C1A 9627  32.018  18.640   8.791
  492POPC   D2A 9628  31.944  18.833   8.427
  492POPC   C3A 9629  31.980  18.711   7.987
  492POPC   C4A 9630  32.125  18.993   7.653
  492POPC   C1B 9631  32.159  19.219   8.728
  492POPC   C2B 9632  32.346  19.141   8.343
  492POPC   C3B 9633  32.412  19.276   7.966
  492POPC   C4B 9634  32.585  19.607   7.740
  493POPC   NC3 9635  33.353  21.500   9.608
  493POPC   PO4 9636  33.928  21.663   9.814
  493POPC   GL1 9637  33.818  21.527   9.339
  493POPC   GL2 9638  33.617  21.207   9.229
  493POPC   C1A 9639  33.951  21.465   8.875
  493POPC   D2A 9640  34.058  21.270   8.473
  493POPC   C3A 9641  33.897  21.497   8.124
  493POPC   C4A 9642  33.740  21.676   7.752
  493POPC   C1B 9643  33.585  21.080   8.758
  493POPC   C2B 9644  33.446  21.275   8.349
  493POPC   C3B 9645  33.472  21.277   7.876
  493POPC   C4B 9646  33.548  21.171   7.414
  494POPC   NC3 9647  18.977  43.573   9.509
  494POPC   PO4 9648  19.209  44.158   9.292
  494POPC   GL1 9649  19.104  43.808   9.083
  494POPC   GL2 9650  19.411  43.595   9.169
  494POPC   C1A 9651  18.948  43.938   8.713
  494POPC   D2A 9652  19.010  44.238   8.430
  494POPC   C3A 9653  18.940  44.034   8.055
  494POPC   C4A 9654  19.242  43.975   7.740
  494POPC   C1B 9655  19.481  43.757   8.746
  494POPC   C2B 9656  19.276  43.776   8.354
  494POPC   C3B 9657  19.297  43.532   8.005
  494POPC   C4B 9658  19.420  43.493   7.603
  495POPC   NC3 9659  10.576  37.843   9.625
  495POPC   PO4 9660  10.394  37.217   9.357
  495POPC   GL1 9661  10.509  37.571   9.117
  495POPC   GL2 9662  10.337  37.864   9.157
  495POPC   C1A 9663  10.582  37.574   8.689
  495POPC   D2A 9664  10.423  37.309   8.345
  495POPC   C3A 9665  10.584  37.506   7.979
  495POPC   C4A 9666  10.723  37.905   7.855
  495POPC   C1B 9667  10.127  37.863   8.766
  495POPC   C2B 9668  10.017  38.105   8.390
  495POPC   C3B 9669  10.205  37.902   8.045
  495POPC   C4B 9670  10.003  37.801   7.680
  496POPC   NC3 9671  30.471  32.454   9.464
  496POPC   PO4 9672  30.720  31.883   9.730
  496POPC   GL1 9673  30.865  31.932   9.257
  496POPC   GL2 9674  30.851  32.270   9.167
  496POPC   C1A 9675  30.680  31.945   8.776
  496POPC   D2A 9676  30.723  32.158   8.354
  496POPC   C3A 9677  30.642  31.916   7.968
  496POPC   C4A 9678  30.372  31.968   7.646
  496POPC   C1B 9679  31.068  32.392   8.788
  496POPC   C2B 9680  31.118  32.573   8.370
  496POPC   C3B 9681  30.989  32.407   7.971
  496POPC   C4B 9682  30.630  32.424   7.706
  497POPC   NC3 9683  20.413  25.551   9.319
  497POPC   PO4 9684  20.831  26.038   9.564
  497POPC   GL1 9685  20.757  26.119   9.140
  497POPC   GL2 9686  20.412  26.231   9.228
  497POPC   C1A 9687  20.894  26.047   8.693
  497POPC   D2A 9688  20.774  25.863   8.292
  497POPC   C3A 9689  20.842  25.997   7.859
  497POPC   C4A 9690  20.491  25.773   7.690
  497POPC   C1B 9691  20.380  26.182   8.796
  497POPC   C2B 9692  20.513  26.299   8.396
  497POPC   C3B 9693  20.384  26.212   7.977
  497POPC   C4B 9694  20.094  26.490   7.823
  498POPC   NC3 9695  17.155  28.375   9.475
  498POPC   PO4 9696  17.748  28.645   9.470
  498POPC   GL1 9697  17.689  28.305   9.184
  498POPC   GL2 9698  17.359  28.217   9.033
  498POPC   C1A 9699  17.857  28.264   8.775
  498POPC   D2A 9700  17.781  28.509   8.412
  498POPC   C3A 9701  17.826  28.394   7.998
  498POPC   C4A 9702  17.469  28.587   7.775
  498POPC   C1B 9703  17.345  28.528   8.695
  498POPC   C2B 9704  17.256  28.561   8.256
  498POPC   C3B 9705  17.371  28.179   8.051
  498POPC   C4B 9706  17.268  27.944   7.683
  499POPC   NC3 9707   4.002  28.327   9.608
  499POPC   PO4 9708   4.671  28.559   9.603
  499POPC   GL1 9709   4.568  28.258   9.217
  499POPC   GL2 9710   4.207  28.178   9.175
  499POPC   C1A 9711   4.438  28.280   8.726
  499POPC   D2A 9712   4.105  28.513   8.457
  499POPC   C3A 9713   3.993  28.390   8.040
  499POPC   C4A 9714   4.384  28.248   7.847
  499POPC   C1B 9715   4.038  27.957   8.839
  499POPC   C2B 9716   4.188  27.932   8.429
  499POPC   C3B 9717   4.024  27.874   8.047
  499POPC   C4B 9718   4.212  27.819   7.649
  500POPC   NC3 9719   9.250  13.374   9.789
  500POPC   PO4 9720   8.735  13.743   9.651
  500POPC   GL1 9721   8.737  13.548   9.200
  500POPC   GL2 9722   8.702  13.229   9.187
  500POPC   C1A 9723   8.784  13.628   8.721
  500POPC   D2A 9724   8.998  13.832   8.315
  500POPC   C3A 9725   8.777  13.753   7.935
  500POPC   C4A 9726   8.721  13.359   7.731
  500POPC   C1B 9727   9.140  13.377   8.986
  500POPC   C2B 9728   9.244  13.457   8.554
  500POPC   C3B 9729   9.072  13.330   8.160
  500POPC   C4B 9730   9.205  13.524   7.781
  501POPC   NC3 9731  30.173  18.858   9.552
  501POPC   PO4 9732  29.874  19.438   9.714
  501POPC   GL1 9733  29.953  19.220   9.251
  501POPC   GL2 9734  30.006  18.916   9.088
  501POPC   C1A 9735  30.095  19.319   8.799
  501POPC   D2A 9736  29.918  19.145   8.424
  501POPC   C3A 9737  29.991  19.295   8.002
  501POPC   C4A 9738  29.683  19.430   7.701
  501POPC   C1B 9739  29.818  18.696   8.757
  501POPC   C2B 9740  29.930  18.643   8.337
  501POPC   C3B 9741  29.745  18.854   7.978
  501POPC   C4B 9742  29.753  18.580   7.597
  502POPC   NC3 9743  14.459  22.778   9.533
  502POPC   PO4 9744  14.194  23.374   9.512
  502POPC   GL1 9745  14.319  23.087   9.181
  502POPC   GL2 9746  14.700  23.086   9.172
  502POPC   C1A 9747  14.421  22.827   8.808
  502POPC   D2A 9748  14.335  22.592   8.405
  502POPC   C3A 9749  14.528  22.723   8.023
  502POPC   C4A 9750  14.203  22.948   7.830
  502POPC   C1B 9751  14.819  23.191   8.767
  502POPC   C2B 9752  14.563  23.118   8.408
  502POPC   C3B 9753  14.571  23.250   8.011
  502POPC   C4B 9754  14.664  23.101   7.601
  503POPC   NC3 9755  38.860  26.170   9.708
  503POPC   PO4 9756  39.377  25.741   9.659
  503POPC   GL1 9757  39.139  26.014   9.320
  503POPC   GL2 9758  38.817  25.868   9.249
  503POPC   C1A 9759  39.123  26.014   8.856
  503POPC   D2A 9760  39.331  26.170   8.490
  503POPC   C3A 9761  39.383  26.042   8.066
  503POPC   C4A 9762  39.116  26.226   7.747
  503POPC   C1B 9763  38.823  25.591   8.869
  503POPC   C2B 9764  38.999  25.660   8.452
  503POPC   C3B 9765  38.930  25.802   8.033
  503POPC   C4B 9766  39.119  25.689   7.654
  504POPC   NC3 9767   7.615  30.276   9.490
  504POPC   PO4 9768   7.441  29.544   9.433
  504POPC   GL1 9769   7.305  29.769   9.052
  504POPC   GL2 9770   7.386  30.097   9.075
  504POPC   C1A 9771   7.152  29.940   8.644
  504POPC   D2A 9772   7.294  30.102   8.264
  504POPC   C3A 9773   7.091  29.945   7.904
  504POPC   C4A 9774   7.046  29.943   7.470
  504POPC   C1B 9775   7.665  30.044   8.718
  504POPC   C2B 9776   7.742  29.832   8.338
  504POPC   C3B 9777   7.605  29.865   7.926
  504POPC   C4B 9778   7.441  29.651   7.611
  505POPC   NC3 9779  22.840   1.067   9.806
  505POPC   PO4 9780  23.216   0.555   9.436
  505POPC   GL1 9781  22.991   0.327   9.151
  505POPC   GL2 9782  22.628   0.314   9.221
  505POPC   C1A 9783  22.983   0.536   8.747
  505POPC   D2A 9784  23.183   0.610   8.334
  505POPC   C3A 9785  22.876   0.555   8.013
  505POPC   C4A 9786  22.862   0.278   7.669
  505POPC   C1B 9787  22.679   0.119   8.806
  505POPC   C2B 9788  22.891   0.171   8.398
  505POPC   C3B 9789  22.601   0.120   8.077
  505POPC   C4B 9790  22.423  44.943   7.710
  506POPC   NC3 9791   7.098  32.003   9.445
  506POPC   PO4 9792   7.753  32.272   9.438
  506POPC   GL1 9793   7.506  32.275   9.114
  506POPC   GL2 9794   7.503  31.947   9.080
  506POPC   C1A 9795   7.517  32.505   8.730
  506POPC   D2A 9796   7.658  32.659   8.336
  506POPC   C3A 9797   7.417  32.443   8.048
  506POPC   C4A 9798   7.417  32.396   7.550
  506POPC   C1B 9799   7.235  32.048   8.719
  506POPC   C2B 9800   7.190  31.972   8.261
  506POPC   C3B 9801   7.426  31.984   7.861
  506POPC   C4B 9802   7.343  31.818   7.444
  507POPC   NC3 9803  28.677   4.414   9.366
  507POPC   PO4 9804  28.084   4.230   9.550
  507POPC   GL1 9805  28.219   4.272   9.174
  507POPC   GL2 9806  28.255   4.633   9.120
  507POPC   C1A 9807  28.017   4.229   8.829
  507POPC   D2A 9808  27.872   4.351   8.468
  507POPC   C3A 9809  28.197   4.330   8.148
  507POPC   C4A 9810  28.191   4.368   7.708
  507POPC   C1B 9811  28.440   4.512   8.692
  507POPC   C2B 9812  28.607   4.654   8.266
  507POPC   C3B 9813  28.686   4.482   7.851
  507POPC   C4B 9814  28.670   4.517   7.388
  508POPC   NC3 9815  22.705  29.202   9.559
  508POPC   PO4 9816  22.002  29.031   9.563
  508POPC   GL1 9817  22.089  29.010   9.142
  508POPC   GL2 9818  22.446  28.999   9.176
  508POPC   C1A 9819  21.861  29.035   8.738
  508POPC   D2A 9820  22.012  29.161   8.327
  508POPC   C3A 9821  21.878  29.095   7.893
  508POPC   C4A 9822  22.021  29.415   7.602
  508POPC   C1B 9823  22.479  29.242   8.813
  508POPC   C2B 9824  22.579  29.090   8.389
  508POPC   C3B 9825  22.403  29.059   7.972
  508POPC   C4B 9826  22.278  28.990   7.531
  509POPC   NC3 9827  22.848  14.318   9.519
  509POPC   PO4 9828  23.397  13.973   9.441
  509POPC   GL1 9829  23.036  14.067   9.101
  509POPC   GL2 9830  22.647  14.166   9.088
  509POPC   C1A 9831  22.912  14.150   8.649
  509POPC   D2A 9832  22.849  14.482   8.365
  509POPC   C3A 9833  23.154  14.441   8.032
  509POPC   C4A 9834  23.032  14.754   7.751
  509POPC   C1B 9835  22.414  14.113   8.709
  509POPC   C2B 9836  22.452  14.192   8.239
  509POPC   C3B 9837  22.709  14.309   7.843
  509POPC   C4B 9838  22.636  14.150   7.398
  510POPC   NC3 9839  36.095  13.665   9.661
  510POPC   PO4 9840  36.376  14.084   9.240
  510POPC   GL1 9841  35.975  13.835   9.185
  510POPC   GL2 9842  35.946  13.471   9.109
  510POPC   C1A 9843  35.867  13.828   8.753
  510POPC   D2A 9844  35.980  13.534   8.421
  510POPC   C3A 9845  35.912  13.693   8.013
  510POPC   C4A 9846  36.220  13.742   7.675
  510POPC   C1B 9847  35.620  13.366   8.769
  510POPC   C2B 9848  35.576  13.241   8.316
  510POPC   C3B 9849  35.852  13.186   7.958
  510POPC   C4B 9850  35.884  13.388   7.566
  511POPC   NC3 9851  28.196  42.249   9.659
  511POPC   PO4 9852  28.698  42.535   9.282
  511POPC   GL1 9853  28.523  42.213   9.119
  511POPC   GL2 9854  28.194  42.288   9.151
  511POPC   C1A 9855  28.513  42.240   8.691
  511POPC   D2A 9856  28.279  42.158   8.312
  511POPC   C3A 9857  28.368  42.440   8.040
  511POPC   C4A 9858  28.463  42.674   7.708
  511POPC   C1B 9859  28.015  42.220   8.734
  511POPC   C2B 9860  27.875  42.500   8.388
  511POPC   C3B 9861  27.944  42.710   7.975
  511POPC   C4B 9862  27.990  42.642   7.510
  512POPC   NC3 9863   4.387  13.867   9.459
  512POPC   PO4 9864   4.129  13.205   9.539
  512POPC   GL1 9865   4.422  13.411   9.231
  512POPC   GL2 9866   4.140  13.591   9.104
  512POPC   C1A 9867   4.565  13.627   8.820
  512POPC   D2A 9868   4.343  13.701   8.421
  512POPC   C3A 9869   4.430  13.506   8.024
  512POPC   C4A 9870   4.598  13.629   7.629
  512POPC   C1B 9871   4.150  13.967   8.813
  512POPC   C2B 9872   3.898  13.978   8.433
  512POPC   C3B 9873   3.968  13.764   8.079
  512POPC   C4B 9874   4.131  13.816   7.688
  513POPC   NC3 9875  33.946  42.753   9.898
  513POPC   PO4 9876  33.602  43.236   9.533
  513POPC   GL1 9877  33.728  43.293   9.113
  513POPC   GL2 9878  33.490  43.053   8.991
  513POPC   C1A 9879  33.874  43.198   8.701
  513POPC   D2A 9880  33.702  43.036   8.337
  513POPC   C3A 9881  34.004  43.200   8.101
  513POPC   C4A 9882  34.190  43.203   7.736
  513POPC   C1B 9883  33.401  42.733   8.675
  513POPC   C2B 9884  33.259  42.715   8.284
  513POPC   C3B 9885  33.450  42.864   7.904
  513POPC   C4B 9886  33.609  43.254   7.795
  514POPC   NC3 9887  29.003  39.684   9.441
  514POPC   PO4 9888  29.421  40.168   9.646
  514POPC   GL1 9889  29.321  40.022   9.209
  514POPC   GL2 9890  28.991  40.065   9.072
  514POPC   C1A 9891  29.276  39.820   8.767
  514POPC   D2A 9892  29.338  40.007   8.377
  514POPC   C3A 9893  29.038  39.912   8.073
  514POPC   C4A 9894  28.930  39.688   7.707
  514POPC   C1B 9895  29.328  40.319   8.789
  514POPC   C2B 9896  29.235  40.514   8.401
  514POPC   C3B 9897  29.236  40.394   7.972
  514POPC   C4B 9898  29.155  40.145   7.628
  515POPC   NC3 9899  13.198  27.756   9.911
  515POPC   PO4 9900  13.774  27.645   9.642
  515POPC   GL1 9901  13.874  27.631   9.182
  515POPC   GL2 9902  14.098  27.351   9.199
  515POPC   C1A 9903  13.673  27.747   8.771
  515POPC   D2A 9904  13.378  27.487   8.484
  515POPC   C3A 9905  13.344  27.577   8.028
  515POPC   C4A 9906  13.149  27.939   7.822
  515POPC   C1B 9907  14.086  27.380   8.741
  515POPC   C2B 9908  13.873  27.524   8.363
  515POPC   C3B 9909  13.801  27.276   7.995
  515POPC   C4B 9910  13.546  26.954   7.763
  516POPC   NC3 9911  20.071  37.428   9.511
  516POPC   PO4 9912  20.062  38.097   9.544
  516POPC   GL1 9913  19.858  37.801   9.218
  516POPC   GL2 9914  19.555  37.620   9.329
  516POPC   C1A 9915  20.033  37.641   8.798
  516POPC   D2A 9916  20.093  37.758   8.378
  516POPC   C3A 9917  20.015  37.494   8.031
  516POPC   C4A 9918  19.837  37.711   7.719
  516POPC   C1B 9919  19.540  37.571   8.889
  516POPC   C2B 9920  19.605  37.515   8.465
  516POPC   C3B 9921  19.457  37.505   8.060
  516POPC   C4B 9922  19.592  37.267   7.720
  517POPC   NC3 9923  22.731  22.084   9.867
  517POPC   PO4 9924  22.996  22.633   9.575
  517POPC   GL1 9925  23.073  22.283   9.315
  517POPC   GL2 9926  22.753  22.099   9.235
  517POPC   C1A 9927  23.137  22.212   8.894
  517POPC   D2A 9928  22.879  22.174   8.568
  517POPC   C3A 9929  23.085  21.963   8.239
  517POPC   C4A 9930  22.992  22.082   7.826
  517POPC   C1B 9931  22.554  21.855   8.867
  517POPC   C2B 9932  22.636  21.743   8.420
  517POPC   C3B 9933  22.653  21.717   7.962
  517POPC   C4B 9934  22.679  21.778   7.504
  518POPC   NC3 9935  31.744  21.626   9.544
  518POPC   PO4 9936  32.322  21.149   9.532
  518POPC   GL1 9937  32.107  21.403   9.227
  518POPC   GL2 9938  32.342  21.257   9.044
  518POPC   C1A 9939  32.155  21.653   8.825
  518POPC   D2A 9940  32.355  21.617   8.396
  518POPC   C3A 9941  32.120  21.635   8.042
  518POPC   C4A 9942  32.315  21.616   7.676
  518POPC   C1B 9943  32.570  21.285   8.719
  518POPC   C2B 9944  32.493  21.090   8.330
  518POPC   C3B 9945  32.581  21.252   7.945
  518POPC   C4B 9946  32.502  21.017   7.599
  519POPC   NC3 9947  34.131   1.353   9.667
  519POPC   PO4 9948  34.709   1.174   9.492
  519POPC   GL1 9949  34.766   1.144   9.085
  519POPC   GL2 9950  34.929   0.818   9.059
  519POPC   C1A 9951  34.599   1.435   8.742
  519POPC   D2A 9952  34.227   1.559   8.472
  519POPC   C3A 9953  34.232   1.358   8.082
  519POPC   C4A 9954  34.480   1.437   7.712
  519POPC   C1B 9955  34.598   0.760   8.774
  519POPC   C2B 9956  34.464   1.031   8.446
  519POPC   C3B 9957  34.710   1.154   8.078
  519POPC   C4B 9958  34.750   0.967   7.654
  520POPC   NC3 9959  24.624   9.631   9.537
  520POPC   PO4 9960  23.973   9.787   9.379
  520POPC   GL1 9961  24.307   9.624   9.104
  520POPC   GL2 9962  24.672   9.523   9.062
  520POPC   C1A 9963  24.317   9.524   8.695
  520POPC   D2A 9964  24.361   9.834   8.435
  520POPC   C3A 9965  24.112   9.754   8.156
  520POPC   C4A 9966  24.280   9.766   7.788
  520POPC   C1B 9967  24.730   9.885   8.812
  520POPC   C2B 9968  24.863   9.970   8.402
  520POPC   C3B 9969  24.738   9.895   7.991
  520POPC   C4B 9970  24.748  10.137   7.611
  521POPC   NC3 9971  31.505   8.460   9.440
  521POPC   PO4 9972  31.770   7.893   9.699
  521POPC   GL1 9973  31.525   7.880   9.249
  521POPC   GL2 9974  31.212   7.986   9.270
  521POPC   C1A 9975  31.607   7.808   8.817
  521POPC   D2A 9976  31.864   7.807   8.455
  521POPC   C3A 9977  31.711   8.013   8.093
  521POPC   C4A 9978  31.794   8.388   7.848
  521POPC   C1B 9979  31.301   8.201   8.885
  521POPC   C2B 9980  31.342   8.097   8.465
  521POPC   C3B 9981  31.254   8.285   8.069
  521POPC   C4B 9982  31.325   8.255   7.623
  522POPC   NC3 9983  15.542  13.140   9.707
  522POPC   PO4 9984  15.065  12.767   9.441
  522POPC   GL1 9985  15.384  12.752   9.138
  522POPC   GL2 9986  15.536  13.082   9.167
  522POPC   C1A 9987  15.373  12.675   8.692
  522POPC   D2A 9988  15.223  12.931   8.361
  522POPC   C3A 9989  15.145  12.657   8.021
  522POPC   C4A 9990  15.443  12.486   7.796
  522POPC   C1B 9991  15.155  13.122   8.854
  522POPC   C2B 9992  14.771  13.092   8.565
  522POPC   C3B 9993  14.784  13.013   8.116
  522POPC   C4B 9994  15.163  13.145   7.860
  523POPC   NC3 9995  37.040  39.720   9.556
  523POPC   PO4 9996  37.180  40.406   9.596
  523POPC   GL1 9997  36.915  40.251   9.189
  523POPC   GL2 9998  36.912  39.856   9.048
  523POPC   C1A 9999  36.764  40.254   8.757
  523POPC   D2A10000  36.965  40.031   8.437
  523POPC   C3A10001  36.804  40.162   8.045
  523POPC   C4A10002  36.774  40.006   7.650
  523POPC   C1B10003  37.277  39.680   8.808
  523POPC   C2B10004  37.343  39.687   8.369
  523POPC   C3B10005  37.030  39.679   8.042
  523POPC   C4B10006  37.182  39.700   7.663
  524POPC   NC310007  14.566  38.236   9.556
  524POPC   PO410008  13.915  38.410   9.509
  524POPC   GL110009  14.295  38.583   9.244
  524POPC   GL210010  14.412  38.292   9.082
  524POPC   C1A10011  14.670  38.715   8.949
  524POPC   D2A10012  14.706  38.777   8.496
  524POPC   C3A10013  14.378  38.632   8.190
  524POPC   C4A10014  14.405  38.791   7.733
  524POPC   C1B10015  14.347  38.382   8.670
  524POPC   C2B10016  14.104  38.141   8.390
  524POPC   C3B10017  14.434  38.080   8.122
  524POPC   C4B10018  14.573  38.334   7.806
  525POPC   NC310019  15.768  20.976   9.648
  525POPC   PO410020  15.909  20.308   9.505
  525POPC   GL110021  15.971  20.464   9.124
  525POPC   GL210022  15.938  20.769   9.203
  525POPC   C1A10023  16.126  20.586   8.716
  525POPC   D2A10024  15.930  20.528   8.280
  525POPC   C3A10025  16.180  20.498   7.906
  525POPC   C4A10026  16.062  20.322   7.516
  525POPC   C1B10027  15.764  21.001   8.912
  525POPC   C2B10028  15.887  20.985   8.503
  525POPC   C3B10029  15.749  21.006   8.106
  525POPC   C4B10030  15.913  20.964   7.712
  526POPC   NC310031  34.655  42.283   9.643
  526POPC   PO410032  34.532  41.572   9.576
  526POPC   GL110033  34.540  41.546   9.155
  526POPC   GL210034  34.651  41.892   9.129
  526POPC   C1A10035  34.803  41.528   8.786
  526POPC   D2A10036  34.816  41.694   8.363
  526POPC   C3A10037  34.738  41.428   8.015
  526POPC   C4A10038  34.960  41.295   7.694
  526POPC   C1B10039  34.400  41.836   8.748
  526POPC   C2B10040  34.422  42.008   8.344
  526POPC   C3B10041  34.600  41.922   7.934
  526POPC   C4B10042  34.292  41.898   7.622
  527POPC   NC310043  14.452   5.705   9.245
  527POPC   PO410044  14.066   6.160   9.465
  527POPC   GL110045  14.006   5.935   9.045
  527POPC   GL210046  14.149   5.610   8.853
  527POPC   C1A10047  14.030   6.062   8.614
  527POPC   D2A10048  14.344   5.865   8.365
  527POPC   C3A10049  14.242   5.777   7.943
  527POPC   C4A10050  14.555   5.868   7.586
  527POPC   C1B10051  14.593   5.505   8.649
  527POPC   C2B10052  14.727   5.327   8.244
  527POPC   C3B10053  14.568   5.386   7.827
  527POPC   C4B10054  14.194   5.420   7.581
  528POPC   NC310055  11.674  21.735   9.535
  528POPC   PO410056  11.409  21.135   9.471
  528POPC   GL110057  11.262  21.341   9.150
  528POPC   GL210058  11.307  21.700   9.186
  528POPC   C1A10059  11.117  21.480   8.769
  528POPC   D2A10060  11.324  21.622   8.430
  528POPC   C3A10061  11.205  21.419   8.102
  528POPC   C4A10062  11.100  21.475   7.709
  528POPC   C1B10063  11.645  21.607   8.860
  528POPC   C2B10064  11.847  21.682   8.451
  528POPC   C3B10065  11.724  21.542   8.028
  528POPC   C4B10066  11.555  21.643   7.626
  529POPC   NC310067  18.069  34.012   9.523
  529POPC   PO410068  18.483  33.519   9.639
  529POPC   GL110069  18.447  33.791   9.258
  529POPC   GL210070  18.071  33.758   9.095
  529POPC   C1A10071  18.461  33.833   8.792
  529POPC   D2A10072  18.461  33.646   8.344
  529POPC   C3A10073  18.527  33.872   7.921
  529POPC   C4A10074  18.658  33.892   7.440
  529POPC   C1B10075  17.999  33.999   8.701
  529POPC   C2B10076  18.173  34.082   8.302
  529POPC   C3B10077  18.023  33.951   7.930
  529POPC   C4B10078  17.679  34.095   7.682
  530POPC   NC310079  32.977  29.136   9.452
  530POPC   PO410080  32.393  29.340   9.415
  530POPC   GL110081  32.546  29.107   9.069
  530POPC   GL210082  32.903  28.977   8.998
  530POPC   C1A10083  32.672  29.252   8.663
  530POPC   D2A10084  32.988  29.030   8.450
  530POPC   C3A10085  32.845  29.082   8.077
  530POPC   C4A10086  32.904  28.943   7.684
  530POPC   C1B10087  33.248  29.257   8.820
  530POPC   C2B10088  33.506  29.160   8.443
  530POPC   C3B10089  33.369  29.095   8.038
  530POPC   C4B10090  33.155  29.373   7.749
  531POPC   NC310091   5.018  36.640   9.796
  531POPC   PO410092   5.390  37.162   9.746
  531POPC   GL110093   5.144  37.096   9.312
  531POPC   GL210094   5.363  36.821   9.208
  531POPC   C1A10095   4.904  36.866   8.917
  531POPC   D2A10096   4.830  36.595   8.514
  531POPC   C3A10097   4.779  36.806   8.092
  531POPC   C4A10098   4.936  36.739   7.635
  531POPC   C1B10099   5.370  37.042   8.813
  531POPC   C2B10100   5.176  36.957   8.409
  531POPC   C3B10101   5.300  36.803   7.980
  531POPC   C4B10102   5.487  36.815   7.527
  532POPC   NC310103   7.012  21.807   9.775
  532POPC   PO410104   6.454  22.202   9.770
  532POPC   GL110105   6.412  22.249   9.299
  532POPC   GL210106   6.764  22.238   9.147
  532POPC   C1A10107   6.360  22.048   8.880
  532POPC   D2A10108   6.376  22.207   8.461
  532POPC   C3A10109   6.718  22.096   8.189
  532POPC   C4A10110   6.696  22.219   7.768
  532POPC   C1B10111   6.979  22.585   8.892
  532POPC   C2B10112   6.998  22.483   8.462
  532POPC   C3B10113   6.907  22.640   8.084
  532POPC   C4B10114   7.058  22.594   7.684
  533POPC   NC310115  36.196   4.413   9.853
  533POPC   PO410116  36.258   4.878   9.458
  533POPC   GL110117  36.227   5.132   9.099
  533POPC   GL210118  36.572   5.025   9.084
  533POPC   C1A10119  35.997   5.173   8.703
  533POPC   D2A10120  36.028   5.328   8.283
  533POPC   C3A10121  35.917   5.081   7.935
  533POPC   C4A10122  35.912   5.139   7.513
  533POPC   C1B10123  36.484   4.908   8.695
  533POPC   C2B10124  36.436   5.022   8.300
  533POPC   C3B10125  36.419   5.017   7.895
  533POPC   C4B10126  36.412   5.153   7.500
  534POPC   NC310127   6.362   9.509   9.595
  534POPC   PO410128   6.996   9.900   9.614
  534POPC   GL110129   6.686   9.819   9.290
  534POPC   GL210130   6.482  10.113   9.215
  534POPC   C1A10131   6.773   9.780   8.836
  534POPC   D2A10132   6.950   9.954   8.451
  534POPC   C3A10133   6.815   9.832   8.020
  534POPC   C4A10134   6.873   9.926   7.561
  534POPC   C1B10135   6.361  10.108   8.784
  534POPC   C2B10136   6.442   9.856   8.399
  534POPC   C3B10137   6.292   9.839   7.955
  534POPC   C4B10138   6.438   9.649   7.565
  535POPC   NC310139   9.101  18.396   9.253
  535POPC   PO410140   9.065  18.941   9.680
  535POPC   GL110141   9.018  18.927   9.205
  535POPC   GL210142   9.345  19.046   9.086
  535POPC   C1A10143   8.870  19.196   8.817
  535POPC   D2A10144   8.648  19.365   8.409
  535POPC   C3A10145   8.815  19.220   8.024
  535POPC   C4A10146   8.759  18.907   7.697
  535POPC   C1B10147   9.266  18.879   8.694
  535POPC   C2B10148   9.325  19.006   8.266
  535POPC   C3B10149   9.205  18.786   7.916
  535POPC   C4B10150   9.243  18.872   7.482
  536POPC   NC310151  43.299  27.772   9.701
  536POPC   PO410152  42.778  27.493   9.435
  536POPC   GL110153  43.060  27.781   9.228
  536POPC   GL210154  42.830  27.899   9.052
  536POPC   C1A10155  43.224  27.799   8.775
  536POPC   D2A10156  43.249  27.431   8.526
  536POPC   C3A10157  43.183  27.495   8.108
  536POPC   C4A10158  43.433  27.242   7.782
  536POPC   C1B10159  42.789  27.495   8.806
  536POPC   C2B10160  42.769  27.276   8.431
  536POPC   C3B10161  42.647  27.406   8.038
  536POPC   C4B10162  42.905  27.419   7.697
  537POPC   NC310163  12.318  40.348   9.655
  537POPC   PO410164  12.464  39.722   9.565
  537POPC   GL110165  12.119  39.929   9.264
  537POPC   GL210166  12.299  40.226   9.139
  537POPC   C1A10167  11.972  40.036   8.787
  537POPC   D2A10168  11.850  39.854   8.332
  537POPC   C3A10169  11.747  40.024   7.877
  537POPC   C4A10170  11.906  40.179   7.410
  537POPC   C1B10171  12.450  39.866   8.883
  537POPC   C2B10172  12.393  39.915   8.442
  537POPC   C3B10173  12.405  39.721   8.036
  537POPC   C4B10174  12.161  39.820   7.675
  538POPC   NC310175  19.449  42.692   9.515
  538POPC   PO410176  18.785  42.393   9.530
  538POPC   GL110177  19.070  42.485   9.186
  538POPC   GL210178  19.347  42.272   9.201
  538POPC   C1A10179  19.025  42.288   8.768
  538POPC   D2A10180  18.901  42.057   8.360
  538POPC   C3A10181  18.937  42.245   7.940
  538POPC   C4A10182  18.844  42.660   7.775
  538POPC   C1B10183  19.533  42.221   8.803
  538POPC   C2B10184  19.366  42.283   8.392
  538POPC   C3B10185  19.440  42.116   8.006
  538POPC   C4B10186  19.379  42.288   7.638
  539POPC   NC310187  37.892   9.296   9.670
  539POPC   PO410188  37.883   8.664   9.806
  539POPC   GL110189  37.710   8.865   9.412
  539POPC   GL210190  37.645   8.617   9.174
  539POPC   C1A10191  37.757   9.049   8.966
  539POPC   D2A10192  37.716   8.832   8.557
  539POPC   C3A10193  37.766   9.026   8.161
  539POPC   C4A10194  37.618   9.026   7.719
  539POPC   C1B10195  37.412   8.392   8.858
  539POPC   C2B10196  37.307   8.512   8.437
  539POPC   C3B10197  37.446   8.654   8.030
  539POPC   C4B10198  37.340   8.554   7.621
  540POPC   NC310199  28.499  37.305   9.588
  540POPC   PO410200  28.452  37.918   9.258
  540POPC   GL110201  28.284  37.661   8.983
  540POPC   GL210202  28.333  37.296   8.970
  540POPC   C1A10203  28.189  37.685   8.583
  540POPC   D2A10204  28.136  37.421   8.248
  540POPC   C3A10205  28.231  37.738   7.962
  540POPC   C4A10206  28.624  37.850   7.806
  540POPC   C1B10207  28.667  37.481   8.697
  540POPC   C2B10208  28.620  37.746   8.329
  540POPC   C3B10209  28.626  37.411   8.075
  540POPC   C4B10210  28.451  37.354   7.691
  541POPC   NC310211   3.955  16.247   9.527
  541POPC   PO410212   4.339  16.864   9.529
  541POPC   GL110213   4.154  16.652   9.181
  541POPC   GL210214   4.482  16.644   9.056
  541POPC   C1A10215   4.090  16.814   8.788
  541POPC   D2A10216   4.459  16.922   8.594
  541POPC   C3A10217   4.370  16.840   8.189
  541POPC   C4A10218   4.214  16.842   7.803
  541POPC   C1B10219   4.340  16.369   8.718
  541POPC   C2B10220   4.456  16.345   8.311
  541POPC   C3B10221   4.403  16.374   7.887
  541POPC   C4B10222   4.304  16.337   7.439
  542POPC   NC310223  33.850   7.137   9.492
  542POPC   PO410224  33.417   7.624   9.371
  542POPC   GL110225  33.714   7.376   9.059
  542POPC   GL210226  34.006   7.119   9.005
  542POPC   C1A10227  33.918   7.490   8.664
  542POPC   D2A10228  33.700   7.608   8.279
  542POPC   C3A10229  33.953   7.535   7.893
  542POPC   C4A10230  34.140   7.534   7.448
  542POPC   C1B10231  33.715   7.020   8.651
  542POPC   C2B10232  33.593   6.981   8.226
  542POPC   C3B10233  33.492   7.311   7.921
  542POPC   C4B10234  33.651   7.346   7.489
  543POPC   NC310235   9.723  10.937   9.412
  543POPC   PO410236   9.548  11.574   9.467
  543POPC   GL110237   9.695  11.359   9.108
  543POPC   GL210238  10.036  11.249   9.033
  543POPC   C1A10239   9.614  11.158   8.714
  543POPC   D2A10240   9.723  11.330   8.312
  543POPC   C3A10241   9.465  11.540   8.013
  543POPC   C4A10242   9.790  11.422   7.702
  543POPC   C1B10243  10.053  10.870   8.729
  543POPC   C2B10244   9.794  10.819   8.334
  543POPC   C3B10245   9.802  10.955   7.898
  543POPC   C4B10246  10.129  11.061   7.591
  544POPC   NC310247   4.049  19.870   9.485
  544POPC   PO410248   4.538  19.464   9.598
  544POPC   GL110249   4.538  19.692   9.244
  544POPC   GL210250   4.504  20.048   9.344
  544POPC   C1A10251   4.590  19.584   8.795
  544POPC   D2A10252   4.289  19.575   8.464
  544POPC   C3A10253   4.495  19.492   8.123
  544POPC   C4A10254   4.512  19.517   7.710
  544POPC   C1B10255   4.332  20.003   8.900
  544POPC   C2B10256   4.328  20.093   8.438
  544POPC   C3B10257   4.426  19.995   7.993
  544POPC   C4B10258   4.490  20.198   7.588
  545POPC   NC310259  11.250  44.028   9.524
  545POPC   PO410260  11.544  43.469   9.700
  545POPC   GL110261  11.687  43.556   9.264
  545POPC   GL210262  11.656  43.929   9.186
  545POPC   C1A10263  11.486  43.550   8.855
  545POPC   D2A10264  11.184  43.675   8.536
  545POPC   C3A10265  11.270  43.523   8.115
  545POPC   C4A10266  11.153  43.643   7.690
  545POPC   C1B10267  11.411  44.065   8.797
  545POPC   C2B10268  11.259  44.140   8.345
  545POPC   C3B10269  11.442  43.980   7.960
  545POPC   C4B10270  11.750  43.973   7.640
  546POPC   NC310271  32.048  13.959   9.312
  546POPC   PO410272  32.432  13.372   9.538
  546POPC   GL110273  32.300  13.537   9.178
  546POPC   GL210274  32.490  13.814   9.092
  546POPC   C1A10275  32.132  13.457   8.798
  546POPC   D2A10276  32.142  13.630   8.387
  546POPC   C3A10277  32.155  13.429   7.955
  546POPC   C4A10278  32.229  13.367   7.469
  546POPC   C1B10279  32.252  14.018   8.734
  546POPC   C2B10280  32.025  14.155   8.380
  546POPC   C3B10281  32.124  13.951   8.004
  546POPC   C4B10282  32.288  13.838   7.630
  547POPC   NC310283  36.735  23.843   9.494
  547POPC   PO410284  37.199  23.308   9.481
  547POPC   GL110285  37.074  23.599   9.197
  547POPC   GL210286  36.750  23.461   9.148
  547POPC   C1A10287  37.069  23.740   8.788
  547POPC   D2A10288  37.003  23.474   8.440
  547POPC   C3A10289  37.099  23.701   8.089
  547POPC   C4A10290  37.062  23.807   7.688
  547POPC   C1B10291  36.599  23.610   8.792
  547POPC   C2B10292  36.602  23.800   8.416
  547POPC   C3B10293  36.670  23.958   8.024
  547POPC   C4B10294  36.531  23.787   7.674
  548POPC   NC310295  14.388  31.190   9.593
  548POPC   PO410296  14.270  31.878   9.628
  548POPC   GL110297  14.368  31.639   9.272
  548POPC   GL210298  14.176  31.785   9.090
  548POPC   C1A10299  14.441  31.374   8.904
  548POPC   D2A10300  14.356  31.174   8.489
  548POPC   C3A10301  14.498  31.366   8.088
  548POPC   C4A10302  14.460  31.371   7.633
  548POPC   C1B10303  14.443  31.867   8.750
  548POPC   C2B10304  14.333  31.809   8.319
  548POPC   C3B10305  14.535  31.897   7.930
  548POPC   C4B10306  14.354  31.868   7.532
  549POPC   NC310307  23.187  24.449   9.553
  549POPC   PO410308  22.553  24.397   9.323
  549POPC   GL110309  22.732  24.725   9.118
  549POPC   GL210310  23.048  24.662   9.108
  549POPC   C1A10311  22.706  24.802   8.695
  549POPC   D2A10312  22.805  24.514   8.380
  549POPC   C3A10313  22.992  24.706   8.066
  549POPC   C4A10314  22.744  24.717   7.712
  549POPC   C1B10315  23.040  24.345   8.804
  549POPC   C2B10316  23.284  24.303   8.429
  549POPC   C3B10317  23.257  24.275   7.998
  549POPC   C4B10318  23.205  24.541   7.619
  550POPC   NC310319  37.290  15.618   9.595
  550POPC   PO410320  36.936  16.126   9.501
  550POPC   GL110321  36.754  15.830   9.213
  550POPC   GL210322  37.061  15.750   9.133
  550POPC   C1A10323  36.670  15.870   8.762
  550POPC   D2A10324  36.850  15.954   8.352
  550POPC   C3A10325  36.897  15.771   7.937
  550POPC   C4A10326  36.855  15.803   7.457
  550POPC   C1B10327  37.114  16.118   8.831
  550POPC   C2B10328  37.193  16.341   8.437
  550POPC   C3B10329  37.203  16.185   8.025
  550POPC   C4B10330  37.077  16.252   7.634
  551POPC   NC310331  41.779   1.799   9.419
  551POPC   PO410332  41.986   2.393   9.357
  551POPC   GL110333  41.844   2.133   9.019
  551POPC   GL210334  41.502   2.031   9.081
  551POPC   C1A10335  41.698   2.131   8.597
  551POPC   D2A10336  41.748   2.397   8.243
  551POPC   C3A10337  41.406   2.282   8.000
  551POPC   C4A10338  41.550   2.088   7.643
  551POPC   C1B10339  41.227   1.905   8.809
  551POPC   C2B10340  41.163   2.078   8.426
  551POPC   C3B10341  41.126   1.858   8.066
  551POPC   C4B10342  41.241   1.670   7.739
  552POPC   NC310343   5.497  18.952   9.442
  552POPC   PO410344   6.185  19.153   9.489
  552POPC   GL110345   6.137  18.908   9.108
  552POPC   GL210346   5.798  18.793   9.028
  552POPC   C1A10347   6.116  18.980   8.672
  552POPC   D2A10348   5.941  19.340   8.471
  552POPC   C3A10349   6.120  19.220   8.110
  552POPC   C4A10350   6.107  18.747   8.117
  552POPC   C1B10351   5.610  19.003   8.717
  552POPC   C2B10352   5.421  19.165   8.384
  552POPC   C3B10353   5.458  19.003   8.035
  552POPC   C4B10354   5.820  18.969   7.764
  553POPC   NC310355  26.278  36.727   9.386
  553POPC   PO410356  26.817  37.164   9.503
  553POPC   GL110357  26.706  36.919   9.138
  553POPC   GL210358  26.745  36.570   9.061
  553POPC   C1A10359  26.819  36.941   8.707
  553POPC   D2A10360  26.862  37.197   8.345
  553POPC   C3A10361  27.018  37.025   7.954
  553POPC   C4A10362  27.182  37.134   7.555
  553POPC   C1B10363  27.166  36.593   8.787
  553POPC   C2B10364  27.076  36.685   8.338
  553POPC   C3B10365  26.935  36.528   7.947
  553POPC   C4B10366  27.236  36.478   7.605
  554POPC   NC310367  41.128  37.543   9.398
  554POPC   PO410368  40.570  37.926   9.498
  554POPC   GL110369  40.756  37.803   9.130
  554POPC   GL210370  41.048  37.990   9.136
  554POPC   C1A10371  40.788  37.512   8.791
  554POPC   D2A10372  40.622  37.394   8.400
  554POPC   C3A10373  40.911  37.331   8.059
  554POPC   C4A10374  40.799  37.408   7.638
  554POPC   C1B10375  41.196  37.828   8.765
  554POPC   C2B10376  41.110  37.693   8.365
  554POPC   C3B10377  41.034  37.836   7.944
  554POPC   C4B10378  40.653  37.883   7.722
  555POPC   NC310379  41.029  20.062   9.543
  555POPC   PO410380  40.588  19.546   9.492
  555POPC   GL110381  40.920  19.629   9.245
  555POPC   GL210382  40.813  19.959   9.088
  555POPC   C1A10383  40.961  19.541   8.818
  555POPC   D2A10384  40.816  19.844   8.517
  555POPC   C3A10385  40.657  19.700   8.116
  555POPC   C4A10386  40.907  19.723   7.785
  555POPC   C1B10387  40.589  20.240   8.801
  555POPC   C2B10388  40.675  20.407   8.412
  555POPC   C3B10389  40.681  20.185   8.051
  555POPC   C4B10390  40.481  20.012   7.706
  556POPC   NC310391   3.237  41.339   9.359
  556POPC   PO410392   2.586  41.193   9.259
  556POPC   GL110393   2.732  40.828   8.971
  556POPC   GL210394   3.074  40.702   9.015
  556POPC   C1A10395   2.729  40.617   8.578
  556POPC   D2A10396   2.397  40.474   8.289
  556POPC   C3A10397   2.523  40.579   7.864
  556POPC   C4A10398   2.462  40.970   7.778
  556POPC   C1B10399   3.067  41.091   8.742
  556POPC   C2B10400   2.791  41.134   8.383
  556POPC   C3B10401   2.869  41.199   7.963
  556POPC   C4B10402   2.957  40.862   7.674
  557POPC   NC310403  22.417  34.974   9.331
  557POPC   PO410404  23.047  35.318   9.484
  557POPC   GL110405  22.850  35.195   9.164
  557POPC   GL210406  22.566  35.431   9.168
  557POPC   C1A10407  23.092  35.062   8.802
  557POPC   D2A10408  23.052  35.213   8.422
  557POPC   C3A10409  23.133  35.054   8.044
  557POPC   C4A10410  23.082  35.267   7.672
  557POPC   C1B10411  22.587  35.200   8.732
  557POPC   C2B10412  22.546  35.324   8.301
  557POPC   C3B10413  22.629  35.178   7.887
  557POPC   C4B10414  22.626  35.316   7.445
  558POPC   NC310415   9.495  44.824   9.281
  558POPC   PO410416   9.954  44.318   9.440
  558POPC   GL110417   9.997  44.562   9.073
  558POPC   GL210418  10.091  44.947   9.032
  558POPC   C1A10419   9.791  44.347   8.717
  558POPC   D2A10420   9.440  44.482   8.466
  558POPC   C3A10421   9.600  44.576   8.070
  558POPC   C4A10422   9.972  44.528   7.818
  558POPC   C1B10423   9.835  44.853   8.668
  558POPC   C2B10424   9.519  44.992   8.379
  558POPC   C3B10425   9.414   0.040   7.942
  558POPC   C4B10426   9.584  44.780   7.569
  559POPC   NC310427  24.445  41.067   9.520
  559POPC   PO410428  24.576  40.433   9.537
  559POPC   GL110429  24.770  40.685   9.216
  559POPC   GL210430  24.518  40.850   9.073
  559POPC   C1A10431  24.827  40.654   8.746
  559POPC   D2A10432  24.673  40.800   8.416
  559POPC   C3A10433  24.633  40.632   8.012
  559POPC   C4A10434  24.883  40.743   7.661
  559POPC   C1B10435  24.275  40.652   8.764
  559POPC   C2B10436  24.156  40.695   8.323
  559POPC   C3B10437  24.157  40.523   7.880
  559POPC   C4B10438  24.342  40.642   7.479
  560POPC   NC310439  33.524  17.277   9.545
  560POPC   PO410440  33.810  17.931   9.521
  560POPC   GL110441  33.799  17.587   9.226
  560POPC   GL210442  33.530  17.522   9.104
  560POPC   C1A10443  33.907  17.649   8.786
  560POPC   D2A10444  33.842  17.817   8.386
  560POPC   C3A10445  33.966  17.555   8.048
  560POPC   C4A10446  33.970  17.400   7.659
  560POPC   C1B10447  33.538  17.274   8.762
  560POPC   C2B10448  33.521  17.414   8.362
  560POPC   C3B10449  33.612  17.188   7.997
  560POPC   C4B10450  33.465  17.271   7.601
  561POPC   NC310451  27.927   9.712   9.608
  561POPC   PO410452  28.569   9.751   9.567
  561POPC   GL110453  28.288   9.787   9.229
  561POPC   GL210454  28.072  10.081   9.252
  561POPC   C1A10455  28.231   9.684   8.793
  561POPC   D2A10456  28.045   9.884   8.430
  561POPC   C3A10457  28.114   9.614   8.081
  561POPC   C4A10458  28.462   9.374   7.896
  561POPC   C1B10459  28.314  10.189   8.863
  561POPC   C2B10460  28.521  10.114   8.468
  561POPC   C3B10461  28.370  10.044   8.036
  561POPC   C4B10462  28.601  10.088   7.663
  562POPC   NC310463  35.420  20.179   9.298
  562POPC   PO410464  35.053  19.756   9.513
  562POPC   GL110465  35.200  19.711   9.117
  562POPC   GL210466  35.506  19.687   9.072
  562POPC   C1A10467  35.104  19.817   8.704
  562POPC   D2A10468  35.023  19.572   8.336
  562POPC   C3A10469  35.099  19.737   7.918
  562POPC   C4A10470  35.414  19.627   7.592
  562POPC   C1B10471  35.610  19.876   8.721
  562POPC   C2B10472  35.509  19.747   8.363
  562POPC   C3B10473  35.548  19.960   8.003
  562POPC   C4B10474  35.791  19.926   7.686
  563POPC   NC310475  23.062   7.692   9.381
  563POPC   PO410476  22.728   7.042   9.505
  563POPC   GL110477  22.745   7.289   9.129
  563POPC   GL210478  23.098   7.279   9.071
  563POPC   C1A10479  22.788   7.464   8.698
  563POPC   D2A10480  22.593   7.738   8.367
  563POPC   C3A10481  22.610   7.452   8.020
  563POPC   C4A10482  22.848   7.497   7.606
  563POPC   C1B10483  23.318   7.302   8.688
  563POPC   C2B10484  23.096   7.246   8.313
  563POPC   C3B10485  23.094   7.573   8.044
  563POPC   C4B10486  23.311   7.711   7.696
  564POPC   NC310487   3.818   7.134   9.549
  564POPC   PO410488   4.354   7.529   9.599
  564POPC   GL110489   4.311   7.642   9.179
  564POPC   GL210490   3.976   7.481   9.199
  564POPC   C1A10491   4.536   7.529   8.783
  564POPC   D2A10492   4.713   7.345   8.393
  564POPC   C3A10493   4.540   7.429   7.973
  564POPC   C4A10494   4.157   7.236   7.831
  564POPC   C1B10495   4.017   7.593   8.759
  564POPC   C2B10496   4.198   7.468   8.372
  564POPC   C3B10497   4.136   7.724   8.029
  564POPC   C4B10498   3.894   7.944   7.774
  565POPC   NC310499   5.992  25.883   9.453
  565POPC   PO410500   5.843  26.514   9.542
  565POPC   GL110501   5.741  26.306   9.134
  565POPC   GL210502   5.492  26.026   9.178
  565POPC   C1A10503   5.969  26.319   8.716
  565POPC   D2A10504   6.208  26.193   8.307
  565POPC   C3A10505   6.109  26.444   7.949
  565POPC   C4A10506   5.763  26.206   7.832
  565POPC   C1B10507   5.675  25.900   8.787
  565POPC   C2B10508   5.689  26.045   8.357
  565POPC   C3B10509   5.551  25.803   8.012
  565POPC   C4B10510   5.755  25.701   7.619
  566POPC   NC310511   7.303  34.453   9.430
  566POPC   PO410512   6.718  34.338   9.556
  566POPC   GL110513   6.589  34.426   9.156
  566POPC   GL210514   6.361  34.696   9.220
  566POPC   C1A10515   6.814  34.414   8.761
  566POPC   D2A10516   6.588  34.253   8.439
  566POPC   C3A10517   6.525  34.467   8.037
  566POPC   C4A10518   6.829  34.740   7.829
  566POPC   C1B10519   6.561  34.849   8.823
  566POPC   C2B10520   6.643  34.871   8.391
  566POPC   C3B10521   6.450  35.004   8.012
  566POPC   C4B10522   6.381  34.869   7.584
  567POPC   NC310523  31.246  13.799   9.446
  567POPC   PO410524  31.922  13.582   9.553
  567POPC   GL110525  31.678  13.656   9.151
  567POPC   GL210526  31.334  13.653   8.971
  567POPC   C1A10527  31.759  13.835   8.733
  567POPC   D2A10528  31.613  13.606   8.426
  567POPC   C3A10529  31.663  13.590   7.996
  567POPC   C4A10530  31.361  13.306   7.848
  567POPC   C1B10531  31.246  13.920   8.609
  567POPC   C2B10532  31.392  14.001   8.186
  567POPC   C3B10533  31.228  13.852   7.800
  567POPC   C4B10534  31.047  13.974   7.341
  568POPC   NC310535  14.331   9.305   9.569
  568POPC   PO410536  14.754   8.755   9.546
  568POPC   GL110537  14.447   8.823   9.179
  568POPC   GL210538  14.217   9.111   9.116
  568POPC   C1A10539  14.236   8.738   8.760
  568POPC   D2A10540  14.195   8.970   8.371
  568POPC   C3A10541  14.226   8.775   7.963
  568POPC   C4A10542  14.565   8.814   7.656
  568POPC   C1B10543  14.188   9.335   8.729
  568POPC   C2B10544  14.219   9.484   8.293
  568POPC   C3B10545  14.204   9.376   7.825
  568POPC   C4B10546  14.104   9.462   7.349
  569POPC   NC310547  21.982  41.000   9.499
  569POPC   PO410548  22.293  41.565   9.625
  569POPC   GL110549  22.092  41.574   9.225
  569POPC   GL210550  21.817  41.826   9.250
  569POPC   C1A10551  22.204  41.576   8.794
  569POPC   D2A10552  22.342  41.762   8.405
  569POPC   C3A10553  22.217  41.706   7.972
  569POPC   C4A10554  22.183  41.514   7.550
  569POPC   C1B10555  21.711  41.715   8.832
  569POPC   C2B10556  21.846  41.560   8.422
  569POPC   C3B10557  21.733  41.593   7.997
  569POPC   C4B10558  21.830  41.854   7.622
  570POPC   NC310559  11.849  15.709   9.588
  570POPC   PO410560  12.317  16.045   9.878
  570POPC   GL110561  12.172  16.050   9.400
  570POPC   GL210562  12.327  15.865   9.277
  570POPC   C1A10563  11.973  16.047   8.954
  570POPC   D2A10564  12.171  16.056   8.508
  570POPC   C3A10565  12.106  16.182   8.086
  570POPC   C4A10566  11.928  15.911   7.797
  570POPC   C1B10567  12.475  15.941   8.881
  570POPC   C2B10568  12.598  15.734   8.482
  570POPC   C3B10569  12.355  15.720   8.081
  570POPC   C4B10570  12.412  16.014   7.694
  571POPC   NC310571  15.878   8.685   9.336
  571POPC   PO410572  16.328   9.184   9.550
  571POPC   GL110573  16.098   9.135   9.160
  571POPC   GL210574  16.228   8.939   8.953
  571POPC   C1A10575  15.745   8.999   8.800
  571POPC   D2A10576  15.832   9.105   8.420
  571POPC   C3A10577  15.876   8.871   8.089
  571POPC   C4A10578  15.840   9.052   7.692
  571POPC   C1B10579  16.153   8.731   8.596
  571POPC   C2B10580  16.195   8.472   8.258
  571POPC   C3B10581  16.323   8.692   7.904
  571POPC   C4B10582  16.342   9.065   7.626
  572POPC   NC310583  10.303  16.755   9.654
  572POPC   PO410584  10.907  16.747   9.436
  572POPC   GL110585  10.573  16.839   9.184
  572POPC   GL210586  10.462  16.502   9.221
  572POPC   C1A10587  10.528  16.979   8.756
  572POPC   D2A10588  10.684  16.766   8.387
  572POPC   C3A10589  10.723  16.943   7.987
  572POPC   C4A10590  10.909  16.800   7.606
  572POPC   C1B10591  10.238  16.570   8.842
  572POPC   C2B10592  10.180  16.710   8.419
  572POPC   C3B10593  10.320  16.590   8.008
  572POPC   C4B10594  10.469  16.398   7.614
  573POPC   NC310595  12.368  29.210   9.447
  573POPC   PO410596  12.921  29.006   9.626
  573POPC   GL110597  12.847  29.131   9.201
  573POPC   GL210598  12.609  28.858   9.136
  573POPC   C1A10599  13.095  29.231   8.811
  573POPC   D2A10600  12.865  29.355   8.440
  573POPC   C3A10601  12.902  29.271   8.007
  573POPC   C4A10602  12.550  29.364   7.721
  573POPC   C1B10603  12.712  28.902   8.708
  573POPC   C2B10604  12.517  28.948   8.314
  573POPC   C3B10605  12.743  28.777   8.006
  573POPC   C4B10606  12.796  28.928   7.615
  574POPC   NC310607   4.787  19.223   9.291
  574POPC   PO410608   4.223  18.932   9.561
  574POPC   GL110609   4.266  19.224   9.243
  574POPC   GL210610   4.418  18.959   9.064
  574POPC   C1A10611   4.079  19.339   8.869
  574POPC   D2A10612   3.973  19.053   8.527
  574POPC   C3A10613   4.057  19.202   8.118
  574POPC   C4A10614   4.125  19.153   7.677
  574POPC   C1B10615   4.501  19.083   8.650
  574POPC   C2B10616   4.444  18.871   8.274
  574POPC   C3B10617   4.587  19.046   7.894
  574POPC   C4B10618   4.591  18.905   7.493
  575POPC   NC310619  31.680  31.174   9.583
  575POPC   PO410620  31.358  31.773   9.574
  575POPC   GL110621  31.465  31.629   9.227
  575POPC   GL210622  31.360  31.276   9.192
  575POPC   C1A10623  31.617  31.567   8.813
  575POPC   D2A10624  31.469  31.526   8.417
  575POPC   C3A10625  31.619  31.686   8.015
  575POPC   C4A10626  31.562  31.640   7.554
  575POPC   C1B10627  31.101  31.116   8.841
  575POPC   C2B10628  31.080  31.218   8.389
  575POPC   C3B10629  31.463  31.163   8.073
  575POPC   C4B10630  31.337  31.141   7.619
  576POPC   NC310631  12.786  18.463   9.309
  576POPC   PO410632  12.651  19.089   9.399
  576POPC   GL110633  12.999  19.089   9.085
  576POPC   GL210634  13.107  18.774   9.106
  576POPC   C1A10635  13.020  19.258   8.687
  576POPC   D2A10636  12.768  19.090   8.331
  576POPC   C3A10637  12.782  19.336   7.958
  576POPC   C4A10638  12.777  19.261   7.502
  576POPC   C1B10639  12.907  18.711   8.674
  576POPC   C2B10640  12.899  18.608   8.214
  576POPC   C3B10641  12.827  18.842   7.828
  576POPC   C4B10642  12.948  18.779   7.378
  577POPC   NC310643   6.190  15.113   9.509
  577POPC   PO410644   5.652  15.446   9.534
  577POPC   GL110645   5.934  15.359   9.173
  577POPC   GL210646   5.665  15.180   9.069
  577POPC   C1A10647   6.091  15.194   8.770
  577POPC   D2A10648   5.802  15.175   8.413
  577POPC   C3A10649   5.865  14.981   7.998
  577POPC   C4A10650   6.029  15.042   7.640
  577POPC   C1B10651   5.470  14.923   8.762
  577POPC   C2B10652   5.273  15.087   8.453
  577POPC   C3B10653   5.404  15.213   8.084
  577POPC   C4B10654   5.417  14.969   7.727
  578POPC   NC310655  15.992   7.151   9.240
  578POPC   PO410656  16.144   6.557   9.578
  578POPC   GL110657  15.970   6.445   9.201
  578POPC   GL210658  15.688   6.707   9.165
  578POPC   C1A10659  16.194   6.285   8.850
  578POPC   D2A10660  16.279   6.520   8.470
  578POPC   C3A10661  16.194   6.411   8.060
  578POPC   C4A10662  15.941   6.340   7.714
  578POPC   C1B10663  15.842   6.649   8.730
  578POPC   C2B10664  15.773   6.608   8.284
  578POPC   C3B10665  15.672   6.752   7.863
  578POPC   C4B10666  15.571   6.824   7.420
  579POPC   NC310667  13.854  19.441   9.528
  579POPC   PO410668  13.937  18.734   9.684
  579POPC   GL110669  13.887  18.974   9.289
  579POPC   GL210670  13.534  19.069   9.210
  579POPC   C1A10671  13.941  18.981   8.834
  579POPC   D2A10672  13.818  18.710   8.490
  579POPC   C3A10673  13.723  18.907   8.105
  579POPC   C4A10674  13.676  18.870   7.662
  579POPC   C1B10675  13.438  18.883   8.771
  579POPC   C2B10676  13.281  18.960   8.364
  579POPC   C3B10677  13.250  19.117   7.957
  579POPC   C4B10678  13.296  19.182   7.512
  580POPC   NC310679  33.049  40.382   9.330
  580POPC   PO410680  32.784  39.852   9.684
  580POPC   GL110681  32.737  39.904   9.212
  580POPC   GL210682  33.060  39.907   9.132
  580POPC   C1A10683  32.809  39.737   8.749
  580POPC   D2A10684  33.100  39.696   8.376
  580POPC   C3A10685  33.001  39.811   7.939
  580POPC   C4A10686  32.935  39.795   7.475
  580POPC   C1B10687  33.168  40.118   8.731
  580POPC   C2B10688  33.302  40.318   8.350
  580POPC   C3B10689  33.259  40.267   7.910
  580POPC   C4B10690  33.352  40.019   7.589
  581POPC   NC310691  19.557   3.893   9.556
  581POPC   PO410692  19.868   3.326   9.563
  581POPC   GL110693  19.794   3.547   9.185
  581POPC   GL210694  19.464   3.554   9.200
  581POPC   C1A10695  19.780   3.471   8.719
  581POPC   D2A10696  19.880   3.625   8.292
  581POPC   C3A10697  19.837   3.355   7.940
  581POPC   C4A10698  20.034   3.271   7.598
  581POPC   C1B10699  19.482   3.857   8.881
  581POPC   C2B10700  19.473   4.028   8.475
  581POPC   C3B10701  19.411   4.082   8.033
  581POPC   C4B10702  19.634   3.796   7.789
  582POPC   NC310703  37.615  38.257   9.943
  582POPC   PO410704  37.911  38.577   9.404
  582POPC   GL110705  37.636  38.555   9.063
  582POPC   GL210706  37.364  38.804   8.990
  582POPC   C1A10707  37.610  38.499   8.619
  582POPC   D2A10708  37.541  38.747   8.267
  582POPC   C3A10709  37.807  38.587   7.947
  582POPC   C4A10710  37.762  38.602   7.518
  582POPC   C1B10711  37.185  38.383   8.875
  582POPC   C2B10712  37.141  38.340   8.423
  582POPC   C3B10713  37.485  38.233   8.147
  582POPC   C4B10714  37.630  38.128   7.733
  583POPC   NC310715  17.633  31.363   9.708
  583POPC   PO410716  17.369  30.713   9.486
  583POPC   GL110717  17.305  30.391   9.139
  583POPC   GL210718  17.627  30.506   9.031
  583POPC   C1A10719  17.304  30.436   8.649
  583POPC   D2A10720  17.463  30.742   8.385
  583POPC   C3A10721  17.217  30.771   8.025
  583POPC   C4A10722  17.113  31.077   7.749
  583POPC   C1B10723  17.967  30.311   8.860
  583POPC   C2B10724  17.857  30.263   8.462
  583POPC   C3B10725  17.834  30.514   8.130
  583POPC   C4B10726  17.631  30.608   7.731
  584POPC   NC310727  28.285  23.046   9.317
  584POPC   PO410728  27.881  22.625   9.722
  584POPC   GL110729  28.316  22.533   9.359
  584POPC   GL210730  28.706  22.503   9.291
  584POPC   C1A10731  28.389  22.617   8.840
  584POPC   D2A10732  28.186  22.812   8.416
  584POPC   C3A10733  28.355  23.009   8.026
  584POPC   C4A10734  28.234  23.211   7.634
  584POPC   C1B10735  28.876  22.523   8.848
  584POPC   C2B10736  28.698  22.637   8.415
  584POPC   C3B10737  28.762  22.619   7.971
  584POPC   C4B10738  28.543  22.782   7.601
  585POPC   NC310739  39.562   6.587   9.403
  585POPC   PO410740  38.832   6.763   9.573
  585POPC   GL110741  39.102   6.784   9.236
  585POPC   GL210742  39.087   6.441   9.170
  585POPC   C1A10743  39.194   6.892   8.821
  585POPC   D2A10744  38.954   6.887   8.453
  585POPC   C3A10745  39.165   6.877   8.044
  585POPC   C4A10746  39.528   6.983   7.774
  585POPC   C1B10747  39.326   6.378   8.799
  585POPC   C2B10748  39.357   6.566   8.417
  585POPC   C3B10749  39.310   6.372   8.041
  585POPC   C4B10750  39.466   6.493   7.682
  586POPC   NC310751  13.001   2.312   9.415
  586POPC   PO410752  13.038   1.626   9.447
  586POPC   GL110753  12.975   1.896   9.141
  586POPC   GL210754  13.330   1.916   9.073
  586POPC   C1A10755  12.725   2.089   8.799
  586POPC   D2A10756  12.855   2.108   8.365
  586POPC   C3A10757  12.636   2.006   7.957
  586POPC   C4A10758  12.467   1.614   7.714
  586POPC   C1B10759  13.221   2.203   8.746
  586POPC   C2B10760  13.253   2.411   8.315
  586POPC   C3B10761  13.179   2.104   7.963
  586POPC   C4B10762  12.990   2.062   7.578
  587POPC   NC310763   6.377  35.575   9.450
  587POPC   PO410764   6.546  36.229   9.495
  587POPC   GL110765   6.740  36.118   9.121
  587POPC   GL210766   6.948  35.814   9.257
  587POPC   C1A10767   6.723  36.326   8.709
  587POPC   D2A10768   6.508  36.417   8.294
  587POPC   C3A10769   6.518  36.110   7.938
  587POPC   C4A10770   6.144  35.887   7.761
  587POPC   C1B10771   6.803  35.692   8.852
  587POPC   C2B10772   6.780  35.864   8.434
  587POPC   C3B10773   6.886  35.728   8.028
  587POPC   C4B10774   7.023  36.001   7.735
  588POPC   NC310775  21.171  12.432   9.686
  588POPC   PO410776  21.264  11.785   9.507
  588POPC   GL110777  21.273  12.008   9.141
  588POPC   GL210778  21.354  12.343   9.229
  588POPC   C1A10779  21.473  11.905   8.754
  588POPC   D2A10780  21.331  11.662   8.485
  588POPC   C3A10781  21.283  11.931   8.144
  588POPC   C4A10782  21.536  12.026   7.771
  588POPC   C1B10783  21.390  12.415   8.813
  588POPC   C2B10784  21.519  12.317   8.413
  588POPC   C3B10785  21.554  12.522   8.046
  588POPC   C4B10786  21.783  12.494   7.715
  589POPC   NC310787  12.024   3.467   9.647
  589POPC   PO410788  12.050   4.125   9.569
  589POPC   GL110789  11.928   3.822   9.230
  589POPC   GL210790  12.173   3.553   9.177
  589POPC   C1A10791  11.796   3.786   8.769
  589POPC   D2A10792  11.795   3.817   8.273
  589POPC   C3A10793  11.858   3.416   8.021
  589POPC   C4A10794  11.597   3.118   7.784
  589POPC   C1B10795  12.383   3.673   8.811
  589POPC   C2B10796  12.440   3.391   8.456
  589POPC   C3B10797  12.424   3.480   8.057
  589POPC   C4B10798  12.192   3.748   7.810
  590POPC   NC310799  41.814  15.285   9.496
  590POPC   PO410800  41.348  14.845   9.501
  590POPC   GL110801  41.484  15.035   9.110
  590POPC   GL210802  41.779  15.252   8.998
  590POPC   C1A10803  41.405  14.908   8.702
  590POPC   D2A10804  41.483  14.974   8.272
  590POPC   C3A10805  41.235  15.147   7.965
  590POPC   C4A10806  41.178  14.923   7.658
  590POPC   C1B10807  41.566  15.395   8.642
  590POPC   C2B10808  41.529  15.472   8.204
  590POPC   C3B10809  41.742  15.273   7.864
  590POPC   C4B10810  41.978  15.431   7.521
  591POPC   NC310811  26.738  15.394   9.364
  591POPC   PO410812  26.436  14.896   9.552
  591POPC   GL110813  26.637  14.932   9.136
  591POPC   GL210814  26.992  15.003   9.108
  591POPC   C1A10815  26.657  15.092   8.722
  591POPC   D2A10816  26.836  15.319   8.368
  591POPC   C3A10817  26.768  15.128   7.996
  591POPC   C4A10818  26.848  15.403   7.687
  591POPC   C1B10819  27.163  15.204   8.728
  591POPC   C2B10820  27.294  15.040   8.302
  591POPC   C3B10821  27.272  15.111   7.848
  591POPC   C4B10822  26.996  14.915   7.579
  592POPC   NC310823  35.145  17.044   9.451
  592POPC   PO410824  35.662  16.597   9.467
  592POPC   GL110825  35.373  16.709   9.156
  592POPC   GL210826  35.595  16.987   9.073
  592POPC   C1A10827  35.204  16.545   8.794
  592POPC   D2A10828  35.460  16.626   8.431
  592POPC   C3A10829  35.244  16.471   8.115
  592POPC   C4A10830  35.426  16.394   7.766
  592POPC   C1B10831  35.314  17.042   8.723
  592POPC   C2B10832  35.330  17.112   8.247
  592POPC   C3B10833  35.505  16.882   7.923
  592POPC   C4B10834  35.369  16.854   7.484
  593POPC   NC310835  42.654  26.266   9.471
  593POPC   PO410836  43.214  26.601   9.554
  593POPC   GL110837  43.086  26.743   9.200
  593POPC   GL210838  43.051  26.393   9.111
  593POPC   C1A10839  43.058  27.030   8.844
  593POPC   D2A10840  43.087  26.851   8.443
  593POPC   C3A10841  42.994  27.028   8.043
  593POPC   C4A10842  43.115  26.870   7.668
  593POPC   C1B10843  42.776  26.587   8.828
  593POPC   C2B10844  42.643  26.557   8.434
  593POPC   C3B10845  42.880  26.540   8.080
  593POPC   C4B10846  42.776  26.470   7.701
  594POPC   NC310847  16.428  42.784   9.546
  594POPC   PO410848  16.757  42.163   9.563
  594POPC   GL110849  16.702  42.146   9.132
  594POPC   GL210850  17.017  41.991   9.155
  594POPC   C1A10851  16.638  42.341   8.723
  594POPC   D2A10852  16.495  42.518   8.319
  594POPC   C3A10853  16.525  42.254   7.923
  594POPC   C4A10854  16.428  42.321   7.465
  594POPC   C1B10855  17.105  42.117   8.769
  594POPC   C2B10856  17.066  42.327   8.363
  594POPC   C3B10857  17.028  42.153   7.939
  594POPC   C4B10858  16.946  42.336   7.507
  595POPC   NC310859  12.914  20.348   9.421
  595POPC   PO410860  13.345  20.813   9.708
  595POPC   GL110861  13.127  20.922   9.239
  595POPC   GL210862  12.812  20.775   9.146
  595POPC   C1A10863  13.096  20.960   8.756
  595POPC   D2A10864  13.224  20.587   8.486
  595POPC   C3A10865  13.106  20.505   8.083
  595POPC   C4A10866  13.054  20.532   7.648
  595POPC   C1B10867  12.816  20.537   8.766
  595POPC   C2B10868  12.734  20.754   8.390
  595POPC   C3B10869  12.620  20.636   7.983
  595POPC   C4B10870  12.668  20.242   7.805
  596POPC   NC310871  15.561   0.471   9.549
  596POPC   PO410872  16.064   0.081   9.555
  596POPC   GL110873  15.792   0.181   9.186
  596POPC   GL210874  15.723   0.559   9.082
  596POPC   C1A10875  15.920   0.202   8.753
  596POPC   D2A10876  15.794   0.315   8.329
  596POPC   C3A10877  15.977   0.168   7.925
  596POPC   C4A10878  15.769   0.343   7.564
  596POPC   C1B10879  16.066   0.699   8.817
  596POPC   C2B10880  15.999   0.803   8.396
  596POPC   C3B10881  15.951   0.681   7.956
  596POPC   C4B10882  16.249   0.511   7.667
  597POPC   NC310883   2.225  33.243   9.621
  597POPC   PO410884   1.866  33.842   9.531
  597POPC   GL110885   1.808  33.835   9.102
  597POPC   GL210886   2.169  33.692   9.132
  597POPC   C1A10887   1.682  34.024   8.685
  597POPC   D2A10888   1.971  34.255   8.413
  597POPC   C3A10889   2.004  34.147   7.993
  597POPC   C4A10890   1.662  33.978   7.773
  597POPC   C1B10891   2.166  33.867   8.708
  597POPC   C2B10892   2.060  33.725   8.277
  597POPC   C3B10893   2.070  33.653   7.792
  597POPC   C4B10894   2.111  33.311   7.470
  598POPC   NC310895   6.150  36.008   9.693
  598POPC   PO410896   5.680  35.624   9.439
  598POPC   GL110897   5.923  35.882   9.173
  598POPC   GL210898   6.197  36.095   9.142
  598POPC   C1A10899   5.741  36.058   8.803
  598POPC   D2A10900   5.516  35.797   8.507
  598POPC   C3A10901   5.702  35.932   8.146
  598POPC   C4A10902   5.564  35.977   7.782
  598POPC   C1B10903   6.170  36.368   8.749
  598POPC   C2B10904   5.949  36.336   8.376
  598POPC   C3B10905   6.053  36.340   7.971
  598POPC   C4B10906   5.805  36.382   7.614
  599POPC   NC310907   0.528  37.849   9.558
  599POPC   PO410908   0.271  37.237   9.640
  599POPC   GL110909   0.241  37.516   9.287
  599POPC   GL210910   0.571  37.518   9.139
  599POPC   C1A10911   0.216  37.775   8.886
  599POPC   D2A10912   0.033  37.858   8.461
  599POPC   C3A10913   0.275  37.709   8.096
  599POPC   C4A10914   0.392  37.920   7.734
  599POPC   C1B10915   0.797  37.753   8.849
  599POPC   C2B10916   0.656  37.708   8.448
  599POPC   C3B10917   0.797  37.784   8.032
  599POPC   C4B10918   0.651  37.427   7.833
  600POPC   NC310919  38.206  37.765   9.708
  600POPC   PO410920  38.760  37.493   9.695
  600POPC   GL110921  38.426  37.452   9.364
  600POPC   GL210922  38.535  37.762   9.276
  600POPC   C1A10923  38.360  37.325   8.931
  600POPC   D2A10924  38.474  37.473   8.527
  600POPC   C3A10925  38.387  37.317   8.123
  600POPC   C4A10926  38.345  37.575   7.782
  600POPC   C1B10927  38.356  37.835   8.899
  600POPC   C2B10928  38.450  37.985   8.511
  600POPC   C3B10929  38.504  37.944   8.092
  600POPC   C4B10930  38.641  38.177   7.753
  601POPC   NC310931  32.171  34.264   9.535
  601POPC   PO410932  32.481  34.797   9.454
  601POPC   GL110933  32.240  34.570   9.122
  601POPC   GL210934  32.326  34.189   9.065
  601POPC   C1A10935  32.011  34.720   8.767
  601POPC   D2A10936  31.901  34.941   8.395
  601POPC   C3A10937  32.175  34.826   8.105
  601POPC   C4A10938  32.125  34.956   7.712
  601POPC   C1B10939  31.994  34.191   8.771
  601POPC   C2B10940  32.090  34.229   8.324
  601POPC   C3B10941  32.125  34.375   7.877
  601POPC   C4B10942  32.429  34.275   7.564
  602POPC   NC310943  42.788   6.199   9.284
  602POPC   PO410944  43.313   6.586   9.446
  602POPC   GL110945  43.092   6.636   9.124
  602POPC   GL210946  42.854   6.898   9.161
  602POPC   C1A10947  43.237   6.592   8.699
  602POPC   D2A10948  43.390   6.463   8.315
  602POPC   C3A10949  43.369   6.713   7.920
  602POPC   C4A10950  43.335   6.926   7.484
  602POPC   C1B10951  42.745   6.696   8.782
  602POPC   C2B10952  42.741   6.443   8.420
  602POPC   C3B10953  42.929   6.446   8.021
  602POPC   C4B10954  42.624   6.410   7.694
  603POPC   NC310955  13.830  15.073   9.522
  603POPC   PO410956  13.457  15.677   9.636
  603POPC   GL110957  13.587  15.425   9.249
  603POPC   GL210958  13.393  15.167   9.136
  603POPC   C1A10959  13.690  15.449   8.808
  603POPC   D2A10960  13.485  15.479   8.410
  603POPC   C3A10961  13.688  15.452   8.027
  603POPC   C4A10962  13.597  15.647   7.656
  603POPC   C1B10963  13.568  14.944   8.819
  603POPC   C2B10964  13.358  14.956   8.443
  603POPC   C3B10965  13.463  14.880   8.021
  603POPC   C4B10966  13.393  14.508   7.813
  604POPC   NC310967   2.863  19.336   9.509
  604POPC   PO410968   2.518  18.677   9.493
  604POPC   GL110969   2.773  18.730   9.138
  604POPC   GL210970   2.702  19.067   9.130
  604POPC   C1A10971   2.823  18.814   8.703
  604POPC   D2A10972   3.010  18.899   8.320
  604POPC   C3A10973   2.740  18.907   7.992
  604POPC   C4A10974   2.921  18.853   7.628
  604POPC   C1B10975   2.503  19.273   8.826
  604POPC   C2B10976   2.519  19.100   8.421
  604POPC   C3B10977   2.396  19.294   8.056
  604POPC   C4B10978   2.616  19.329   7.676
  605POPC   NC310979   8.898  18.497   9.698
  605POPC   PO410980   9.149  17.932   9.333
  605POPC   GL110981   8.788  17.919   9.091
  605POPC   GL210982   8.665  18.299   9.028
  605POPC   C1A10983   8.821  17.951   8.670
  605POPC   D2A10984   8.978  18.315   8.450
  605POPC   C3A10985   9.172  18.209   8.083
  605POPC   C4A10986   9.048  17.977   7.734
  605POPC   C1B10987   8.793  18.674   8.777
  605POPC   C2B10988   8.857  18.830   8.366
  605POPC   C3B10989   8.752  18.534   8.038
  605POPC   C4B10990   8.609  18.157   7.843
  606POPC   NC310991  24.586   0.571   9.510
  606POPC   PO410992  24.198   0.090   9.310
  606POPC   GL110993  24.420   0.345   9.085
  606POPC   GL210994  24.170   0.611   9.207
  606POPC   C1A10995  24.723   0.475   8.767
  606POPC   D2A10996  24.658   0.655   8.384
  606POPC   C3A10997  24.864   0.676   7.988
  606POPC   C4A10998  24.589   0.397   7.771
  606POPC   C1B10999  24.289   0.760   8.808
  606POPC   C2B11000  24.296   0.988   8.422
  606POPC   C3B11001  24.369   0.854   7.992
  606POPC   C4B11002  24.137   0.625   7.697
  607POPC   NC311003  10.833  37.074   9.260
  607POPC   PO411004  11.280  36.985   9.760
  607POPC   GL111005  11.321  37.050   9.291
  607POPC   GL211006  11.321  37.375   9.164
  607POPC   C1A11007  11.316  36.847   8.855
  607POPC   D2A11008  11.494  36.969   8.436
  607POPC   C3A11009  11.313  36.918   8.058
  607POPC   C4A11010  11.500  36.723   7.768
  607POPC   C1B11011  11.202  37.311   8.708
  607POPC   C2B11012  11.226  37.466   8.277
  607POPC   C3B11013  11.166  37.383   7.852
  607POPC   C4B11014  11.179  37.052   7.544
  608POPC   NC311015  30.076  20.160   9.678
  608POPC   PO411016  29.796  19.692   9.277
  608POPC   GL111017  29.993  20.031   9.098
  608POPC   GL211018  29.738  20.220   8.925
  608POPC   C1A11019  30.096  19.921   8.667
  608POPC   D2A11020  29.926  19.840   8.275
  608POPC   C3A11021  30.035  20.083   7.925
  608POPC   C4A11022  29.939  19.849   7.546
  608POPC   C1B11023  29.571  19.852   8.680
  608POPC   C2B11024  29.408  19.838   8.267
  608POPC   C3B11025  29.555  19.914   7.891
  608POPC   C4B11026  29.638  20.287   7.646
  609POPC   NC311027  43.390  22.000   9.416
  609POPC   PO411028  43.007  22.537   9.404
  609POPC   GL111029  42.955  22.273   9.053
  609POPC   GL211030  42.989  21.895   9.060
  609POPC   C1A11031  43.287  22.258   8.759
  609POPC   D2A11032  43.341  22.104   8.384
  609POPC   C3A11033  43.332  22.298   8.014
  609POPC   C4A11034  43.391  22.076   7.633
  609POPC   C1B11035  42.894  21.909   8.597
  609POPC   C2B11036  42.867  22.246   8.275
  609POPC   C3B11037  42.880  22.191   7.808
  609POPC   C4B11038  42.886  22.449   7.433
  610POPC   NC311039  39.168  37.351   9.863
  610POPC   PO411040  39.655  37.800   9.712
  610POPC   GL111041  39.436  37.628   9.316
  610POPC   GL211042  39.053  37.609   9.276
  610POPC   C1A11043  39.337  37.496   8.873
  610POPC   D2A11044  39.538  37.471   8.476
  610POPC   C3A11045  39.300  37.467   8.128
  610POPC   C4A11046  39.342  37.718   7.807
  610POPC   C1B11047  38.879  37.757   8.845
  610POPC   C2B11048  38.902  37.744   8.368
  610POPC   C3B11049  38.845  37.596   7.917
  610POPC   C4B11050  38.731  37.458   7.487
  611POPC   NC311051  40.416  33.502   9.432
  611POPC   PO411052  39.921  33.922   9.548
  611POPC   GL111053  39.950  33.698   9.185
  611POPC   GL211054  40.266  33.886   9.137
  611POPC   C1A11055  39.998  33.612   8.746
  611POPC   D2A11056  40.006  33.319   8.405
  611POPC   C3A11057  39.869  33.456   8.003
  611POPC   C4A11058  39.748  33.743   7.696
  611POPC   C1B11059  40.438  33.852   8.744
  611POPC   C2B11060  40.258  33.979   8.379
  611POPC   C3B11061  40.452  33.943   8.000
  611POPC   C4B11062  40.237  33.688   7.692
  612POPC   NC311063  35.683  15.403   9.499
  612POPC   PO411064  35.147  14.977   9.512
  612POPC   GL111065  35.294  15.228   9.178
  612POPC   GL211066  35.637  15.150   9.043
  612POPC   C1A11067  35.263  15.379   8.756
  612POPC   D2A11068  35.523  15.222   8.395
  612POPC   C3A11069  35.387  15.375   7.999
  612POPC   C4A11070  34.949  15.299   7.927
  612POPC   C1B11071  35.647  14.821   8.684
  612POPC   C2B11072  35.762  14.789   8.224
  612POPC   C3B11073  35.654  14.891   7.761
  612POPC   C4B11074  35.670  14.916   7.272
  613POPC   NC311075  39.081  18.000   9.591
  613POPC   PO411076  39.589  18.481   9.488
  613POPC   GL111077  39.209  18.395   9.235
  613POPC   GL211078  39.288  18.052   9.119
  613POPC   C1A11079  39.014  18.377   8.798
  613POPC   D2A11080  39.167  18.404   8.376
  613POPC   C3A11081  39.090  18.461   7.925
  613POPC   C4A11082  39.469  18.550   7.691
  613POPC   C1B11083  38.903  17.897   8.929
  613POPC   C2B11084  38.833  17.962   8.524
  613POPC   C3B11085  38.906  18.014   8.106
  613POPC   C4B11086  38.943  18.019   7.666
  614POPC   NC311087  44.945  18.405   9.412
  614POPC   PO411088  44.312  18.064   9.548
  614POPC   GL111089  44.506  18.268   9.172
  614POPC   GL211090  44.837  18.118   9.005
  614POPC   C1A11091  44.447  18.239   8.731
  614POPC   D2A11092  44.759  18.212   8.423
  614POPC   C3A11093  44.715  18.010   8.022
  614POPC   C4A11094  44.581  18.148   7.616
  614POPC   C1B11095  44.878  18.554   8.798
  614POPC   C2B11096  44.716  18.746   8.431
  614POPC   C3B11097  44.711  18.550   8.033
  614POPC   C4B11098  44.876  18.598   7.615
  615POPC   NC311099  43.018  44.529   9.588
  615POPC   PO411100  43.719  44.467   9.484
  615POPC   GL111101  43.399  44.715   9.244
  615POPC   GL211102  43.393  44.463   9.034
  615POPC   C1A11103  43.125  44.944   8.888
  615POPC   D2A11104  43.013   0.074   8.445
  615POPC   C3A11105  43.139  44.876   8.019
  615POPC   C4A11106  42.859  44.772   7.632
  615POPC   C1B11107  42.995  44.459   8.867
  615POPC   C2B11108  42.917  44.488   8.435
  615POPC   C3B11109  42.877  44.407   7.990
  615POPC   C4B11110  42.845  44.272   7.538
  616POPC   NC311111  44.564  35.465   9.540
  616POPC   PO411112  44.393  34.913   9.750
  616POPC   GL111113  44.376  35.114   9.233
  616POPC   GL211114  44.731  35.261   9.090
  616POPC   C1A11115  44.351  35.478   8.856
  616POPC   D2A11116  44.649  35.504   8.462
  616POPC   C3A11117  44.429  35.549   8.048
  616POPC   C4A11118  44.488  35.645   7.628
  616POPC   C1B11119   0.002  35.029   8.768
  616POPC   C2B11120  44.900  35.038   8.349
  616POPC   C3B11121  44.898  35.320   8.022
  616POPC   C4B11122  44.783  35.172   7.634
  617POPC   NC311123  40.508  39.816   9.511
  617POPC   PO411124  41.007  40.236   9.338
  617POPC   GL111125  40.652  40.113   9.045
  617POPC   GL211126  40.749  39.809   9.028
  617POPC   C1A11127  40.434  39.993   8.648
  617POPC   D2A11128  40.547  39.956   8.194
  617POPC   C3A11129  40.265  40.113   7.847
  617POPC   C4A11130  40.342  40.322   7.443
  617POPC   C1B11131  40.939  39.929   8.622
  617POPC   C2B11132  41.156  39.739   8.277
  617POPC   C3B11133  40.943  39.749   7.910
  617POPC   C4B11134  40.770  40.153   7.763
  618POPC   NC311135  21.041  15.874   9.460
  618POPC   PO411136  20.347  15.904   9.493
  618POPC   GL111137  20.342  16.024   9.094
  618POPC   GL211138  20.677  16.161   9.154
  618POPC   C1A11139  20.570  15.825   8.750
  618POPC   D2A11140  20.867  15.908   8.407
  618POPC   C3A11141  20.635  15.821   8.044
  618POPC   C4A11142  20.580  15.703   7.634
  618POPC   C1B11143  20.766  16.320   8.734
  618POPC   C2B11144  21.076  16.417   8.444
  618POPC   C3B11145  21.057  16.426   8.020
  618POPC   C4B11146  21.026  16.043   7.796
  619POPC   NC311147  29.766   9.755   9.537
  619POPC   PO411148  30.315   9.252   9.446
  619POPC   GL111149  30.087   9.535   9.198
  619POPC   GL211150  30.005   9.889   9.127
  619POPC   C1A11151  29.890   9.514   8.811
  619POPC   D2A11152  29.986   9.689   8.433
  619POPC   C3A11153  29.747   9.556   8.106
  619POPC   C4A11154  29.930   9.517   7.696
  619POPC   C1B11155  29.923  10.093   8.738
  619POPC   C2B11156  29.691  10.107   8.315
  619POPC   C3B11157  29.799  10.018   7.887
  619POPC   C4B11158  29.919  10.225   7.518
  620POPC   NC311159  10.002  35.563   9.478
  620POPC   PO411160   9.351  35.714   9.387
  620POPC   GL111161   9.547  35.556   9.032
  620POPC   GL211162   9.725  35.271   9.116
  620POPC   C1A11163   9.743  35.477   8.625
  620POPC   D2A11164   9.869  35.159   8.332
  620POPC   C3A11165   9.868  35.171   7.898
  620POPC   C4A11166   9.573  35.468   7.732
  620POPC   C1B11167   9.472  35.085   8.755
  620POPC   C2B11168   9.266  35.260   8.431
  620POPC   C3B11169   9.390  35.126   8.082
  620POPC   C4B11170   9.436  34.937   7.707
  621POPC   NC311171  24.582  28.984   9.350
  621POPC   PO411172  25.312  28.983   9.422
  621POPC   GL111173  25.369  29.149   9.074
  621POPC   GL211174  25.015  29.290   9.109
  621POPC   C1A11175  25.499  29.040   8.662
  621POPC   D2A11176  25.433  28.906   8.263
  621POPC   C3A11177  25.408  29.261   8.032
  621POPC   C4A11178  25.075  29.365   7.731
  621POPC   C1B11179  25.008  28.942   8.784
  621POPC   C2B11180  24.872  28.933   8.370
  621POPC   C3B11181  25.028  28.892   7.942
  621POPC   C4B11182  25.048  28.756   7.471
  622POPC   NC311183  18.326   9.126   9.531
  622POPC   PO411184  18.622   8.507   9.520
  622POPC   GL111185  18.390   8.727   9.216
  622POPC   GL211186  18.698   8.760   9.037
  622POPC   C1A11187  18.181   9.020   8.879
  622POPC   D2A11188  18.219   9.265   8.492
  622POPC   C3A11189  18.012   9.159   8.105
  622POPC   C4A11190  18.077   9.006   7.692
  622POPC   C1B11191  18.666   9.116   8.764
  622POPC   C2B11192  18.712   9.182   8.317
  622POPC   C3B11193  18.542   9.130   7.901
  622POPC   C4B11194  18.558   9.008   7.466
  623POPC   NC311195  42.561  38.593   9.474
  623POPC   PO411196  41.986  38.668   9.802
  623POPC   GL111197  42.081  38.373   9.348
  623POPC   GL211198  42.346  38.162   9.258
  623POPC   C1A11199  42.147  38.433   8.863
  623POPC   D2A11200  42.301  38.723   8.520
  623POPC   C3A11201  42.335  38.572   8.084
  623POPC   C4A11202  42.300  38.512   7.655
  623POPC   C1B11203  42.631  38.314   8.885
  623POPC   C2B11204  42.848  38.411   8.511
  623POPC   C3B11205  42.794  38.378   8.064
  623POPC   C4B11206  42.731  38.222   7.625
  624POPC   NC311207  25.098   8.788   9.540
  624POPC   PO411208  25.041   9.419   9.434
  624POPC   GL111209  25.425   9.152   9.228
  624POPC   GL211210  25.375   8.795   9.132
  624POPC   C1A11211  25.655   9.009   8.801
  624POPC   D2A11212  25.382   8.981   8.476
  624POPC   C3A11213  25.370   9.184   8.077
  624POPC   C4A11214  25.048   9.456   7.885
  624POPC   C1B11215  25.032   8.801   8.849
  624POPC   C2B11216  24.983   8.629   8.435
  624POPC   C3B11217  25.358   8.576   8.180
  624POPC   C4B11218  25.508   8.701   7.784
  625POPC   NC311219   7.334  12.341   9.420
  625POPC   PO411220   7.087  11.663   9.524
  625POPC   GL111221   7.207  11.933   9.161
  625POPC   GL211222   7.562  12.001   9.108
  625POPC   C1A11223   7.218  12.166   8.758
  625POPC   D2A11224   7.279  11.999   8.371
  625POPC   C3A11225   7.407  12.166   8.011
  625POPC   C4A11226   7.318  12.398   7.684
  625POPC   C1B11227   7.721  11.951   8.716
  625POPC   C2B11228   7.812  12.147   8.333
  625POPC   C3B11229   7.887  12.324   7.916
  625POPC   C4B11230   7.771  12.262   7.475
  626POPC   NC311231  38.852   6.210   9.582
  626POPC   PO411232  39.437   6.140   9.398
  626POPC   GL111233  39.070   5.922   9.220
  626POPC   GL211234  39.062   5.570   9.130
  626POPC   C1A11235  38.957   5.998   8.819
  626POPC   D2A11236  39.204   6.031   8.419
  626POPC   C3A11237  39.028   5.941   7.997
  626POPC   C4A11238  39.156   6.113   7.607
  626POPC   C1B11239  39.400   5.705   8.809
  626POPC   C2B11240  39.540   5.647   8.355
  626POPC   C3B11241  39.470   5.640   7.889
  626POPC   C4B11242  39.310   5.639   7.435
  627POPC   NC311243  40.226   1.399   9.540
  627POPC   PO411244  40.398   0.797   9.442
  627POPC   GL111245  40.135   1.044   9.129
  627POPC   GL211246  40.015   1.413   9.063
  627POPC   C1A11247  39.904   1.024   8.735
  627POPC   D2A11248  40.113   1.053   8.358
  627POPC   C3A11249  40.057   0.854   7.968
  627POPC   C4A11250  40.043   0.808   7.536
  627POPC   C1B11251  39.697   1.488   8.752
  627POPC   C2B11252  39.663   1.302   8.324
  627POPC   C3B11253  39.865   1.368   7.970
  627POPC   C4B11254  39.723   1.644   7.660
  628POPC   NC311255  26.123  28.844   9.585
  628POPC   PO411256  25.847  29.545   9.613
  628POPC   GL111257  25.851  29.258   9.280
  628POPC   GL211258  26.200  29.231   9.148
  628POPC   C1A11259  25.785  29.392   8.871
  628POPC   D2A11260  25.774  29.391   8.410
  628POPC   C3A11261  26.218  29.366   8.207
  628POPC   C4A11262  26.362  29.339   7.766
  628POPC   C1B11263  26.192  29.169   8.679
  628POPC   C2B11264  25.942  28.924   8.327
  628POPC   C3B11265  25.946  29.036   7.868
  628POPC   C4B11266  25.905  28.778   7.473
  629POPC   NC311267  38.756   2.222   9.463
  629POPC   PO411268  39.221   1.732   9.460
  629POPC   GL111269  39.012   1.750   9.098
  629POPC   GL211270  39.140   2.081   9.072
  629POPC   C1A11271  39.192   1.656   8.691
  629POPC   D2A11272  39.534   1.802   8.385
  629POPC   C3A11273  39.390   1.895   7.972
  629POPC   C4A11274  39.003   1.852   7.736
  629POPC   C1B11275  39.270   2.177   8.649
  629POPC   C2B11276  39.534   2.313   8.294
  629POPC   C3B11277  39.472   2.402   7.854
  629POPC   C4B11278  39.110   2.366   7.569
  630POPC   NC311279  18.912  29.401   9.438
  630POPC   PO411280  19.461  28.987   9.473
  630POPC   GL111281  19.285  29.246   9.151
  630POPC   GL211282  19.047  29.015   9.087
  630POPC   C1A11283  19.251  29.353   8.724
  630POPC   D2A11284  19.232  29.080   8.370
  630POPC   C3A11285  19.131  29.291   7.989
  630POPC   C4A11286  19.224  29.040   7.665
  630POPC   C1B11287  18.770  29.157   8.783
  630POPC   C2B11288  18.789  29.308   8.385
  630POPC   C3B11289  18.644  29.648   8.160
  630POPC   C4B11290  18.842  29.772   7.783
  631POPC   NC311291  41.665   4.834   9.432
  631POPC   PO411292  41.411   5.494   9.391
  631POPC   GL111293  41.283   5.131   9.154
  631POPC   GL211294  41.591   5.068   8.996
  631POPC   C1A11295  41.186   4.952   8.738
  631POPC   D2A11296  41.490   4.911   8.418
  631POPC   C3A11297  41.310   5.101   8.061
  631POPC   C4A11298  41.447   5.069   7.645
  631POPC   C1B11299  41.842   4.759   8.794
  631POPC   C2B11300  42.023   4.837   8.407
  631POPC   C3B11301  41.843   4.964   8.024
  631POPC   C4B11302  41.899   4.822   7.636
  632POPC   NC311303   3.648  40.205   9.593
  632POPC   PO411304   3.245  39.699   9.385
  632POPC   GL111305   3.337  39.846   9.000
  632POPC   GL211306   3.505  40.123   9.098
  632POPC   C1A11307   3.547  39.807   8.644
  632POPC   D2A11308   3.784  39.927   8.310
  632POPC   C3A11309   3.516  39.972   7.957
  632POPC   C4A11310   3.724  40.089   7.569
  632POPC   C1B11311   3.682  40.312   8.767
  632POPC   C2B11312   3.680  40.476   8.370
  632POPC   C3B11313   3.586  40.472   7.950
  632POPC   C4B11314   3.136  40.462   7.920
  633POPC   NC311315  14.151  15.542   9.889
  633POPC   PO411316  14.423  16.147   9.658
  633POPC   GL111317  14.376  16.019   9.250
  633POPC   GL211318  14.712  16.074   9.151
  633POPC   C1A11319  14.333  15.882   8.825
  633POPC   D2A11320  14.484  16.039   8.455
  633POPC   C3A11321  14.347  15.876   8.085
  633POPC   C4A11322  14.511  15.798   7.704
  633POPC   C1B11323  14.819  16.324   8.767
  633POPC   C2B11324  14.615  16.530   8.420
  633POPC   C3B11325  14.572  16.354   8.021
  633POPC   C4B11326  14.890  16.113   7.845
  634POPC   NC311327   8.146  21.845   9.779
  634POPC   PO411328   7.642  21.443   9.627
  634POPC   GL111329   7.919  21.408   9.257
  634POPC   GL211330   7.987  21.723   9.182
  634POPC   C1A11331   8.207  21.207   8.944
  634POPC   D2A11332   8.381  21.324   8.540
  634POPC   C3A11333   8.319  21.061   8.180
  634POPC   C4A11334   8.132  21.143   7.795
  634POPC   C1B11335   7.876  21.535   8.762
  634POPC   C2B11336   8.001  21.625   8.337
  634POPC   C3B11337   7.940  21.616   7.897
  634POPC   C4B11338   7.903  21.680   7.443
  635POPC   NC311339   7.804  31.765   9.476
  635POPC   PO411340   8.328  32.087   9.637
  635POPC   GL111341   8.204  32.009   9.197
  635POPC   GL211342   8.007  31.776   9.010
  635POPC   C1A11343   8.385  32.032   8.788
  635POPC   D2A11344   8.193  31.920   8.407
  635POPC   C3A11345   8.439  32.045   8.063
  635POPC   C4A11346   8.266  32.163   7.681
  635POPC   C1B11347   7.863  32.112   8.772
  635POPC   C2B11348   7.678  32.117   8.390
  635POPC   C3B11349   7.889  32.094   8.017
  635POPC   C4B11350   7.874  32.482   7.845
  636POPC   NC311351  17.112   2.504   9.848
  636POPC   PO411352  16.681   2.959   9.570
  636POPC   GL111353  16.922   2.845   9.219
  636POPC   GL211354  16.620   2.733   9.080
  636POPC   C1A11355  16.977   2.920   8.771
  636POPC   D2A11356  16.724   2.875   8.389
  636POPC   C3A11357  16.854   3.018   7.984
  636POPC   C4A11358  17.073   2.722   7.743
  636POPC   C1B11359  16.518   2.512   8.711
  636POPC   C2B11360  16.260   2.675   8.383
  636POPC   C3B11361  16.365   2.791   7.993
  636POPC   C4B11362  16.564   2.708   7.635
  637POPC   NC311363  26.612   2.017   9.234
  637POPC   PO411364  27.231   2.157   9.530
  637POPC   GL111365  27.099   1.858   9.169
  637POPC   GL211366  26.766   1.591   9.088
  637POPC   C1A11367  27.031   2.077   8.738
  637POPC   D2A11368  27.120   2.057   8.297
  637POPC   C3A11369  26.811   2.209   7.999
  637POPC   C4A11370  26.986   2.025   7.615
  637POPC   C1B11371  26.549   1.688   8.717
  637POPC   C2B11372  26.630   1.908   8.383
  637POPC   C3B11373  26.654   1.740   7.986
  637POPC   C4B11374  26.493   1.983   7.648
  638POPC   NC311375  16.345  39.126   9.587
  638POPC   PO411376  16.894  39.501   9.587
  638POPC   GL111377  16.767  39.218   9.241
  638POPC   GL211378  16.500  39.312   9.115
  638POPC   C1A11379  16.759  38.940   8.828
  638POPC   D2A11380  16.978  39.013   8.402
  638POPC   C3A11381  16.876  39.240   8.011
  638POPC   C4A11382  16.472  39.116   7.841
  638POPC   C1B11383  16.776  39.435   8.757
  638POPC   C2B11384  16.589  39.417   8.369
  638POPC   C3B11385  16.477  39.612   7.966
  638POPC   C4B11386  16.321  39.511   7.554
  639POPC   NC311387  12.896   0.451   9.610
  639POPC   PO411388  13.662   0.436   9.499
  639POPC   GL111389  13.439   0.510   9.134
  639POPC   GL211390  13.142   0.611   9.220
  639POPC   C1A11391  13.480   0.383   8.736
  639POPC   D2A11392  13.646   0.607   8.421
  639POPC   C3A11393  13.605   0.452   8.053
  639POPC   C4A11394  13.700   0.597   7.639
  639POPC   C1B11395  13.073   0.786   8.871
  639POPC   C2B11396  13.117   0.641   8.507
  639POPC   C3B11397  13.181   0.714   8.124
  639POPC   C4B11398  13.176   0.941   7.780
  640POPC   NC311399  34.229   5.781   9.524
  640POPC   PO411400  34.899   5.527   9.468
  640POPC   GL111401  34.851   5.786   9.100
  640POPC   GL211402  34.537   5.776   9.131
  640POPC   C1A11403  34.749   6.012   8.719
  640POPC   D2A11404  34.558   6.103   8.320
  640POPC   C3A11405  34.727   6.114   7.924
  640POPC   C4A11406  34.635   5.969   7.476
  640POPC   C1B11407  34.469   5.585   8.751
  640POPC   C2B11408  34.267   5.700   8.386
  640POPC   C3B11409  34.416   5.727   7.961
  640POPC   C4B11410  34.228   5.669   7.555
  641POPC   NC311411  27.970  32.455   9.523
  641POPC   PO411412  27.357  32.011   9.600
  641POPC   GL111413  27.572  32.176   9.167
  641POPC   GL211414  27.761  32.483   9.081
  641POPC   C1A11415  27.750  32.120   8.714
  641POPC   D2A11416  27.688  31.927   8.295
  641POPC   C3A11417  27.481  32.049   7.928
  641POPC   C4A11418  27.778  32.127   7.588
  641POPC   C1B11419  27.446  32.523   8.792
  641POPC   C2B11420  27.591  32.544   8.378
  641POPC   C3B11421  27.734  32.489   7.960
  641POPC   C4B11422  27.557  32.584   7.553
  642POPC   NC311423  37.565   5.348   9.611
  642POPC   PO411424  38.056   4.961   9.723
  642POPC   GL111425  37.653   5.005   9.281
  642POPC   GL211426  37.768   5.345   9.143
  642POPC   C1A11427  37.519   5.025   8.825
  642POPC   D2A11428  37.709   4.976   8.396
  642POPC   C3A11429  37.467   5.122   8.054
  642POPC   C4A11430  37.325   4.859   7.740
  642POPC   C1B11431  37.799   5.580   8.759
  642POPC   C2B11432  37.827   5.468   8.332
  642POPC   C3B11433  37.983   5.245   7.992
  642POPC   C4B11434  38.144   5.341   7.567
  643POPC   NC311435  33.553   5.077   9.457
  643POPC   PO411436  34.028   4.573   9.495
  643POPC   GL111437  33.916   4.895   9.120
  643POPC   GL211438  33.636   5.179   8.986
  643POPC   C1A11439  33.891   4.867   8.670
  643POPC   D2A11440  34.080   4.914   8.311
  643POPC   C3A11441  33.811   5.031   7.968
  643POPC   C4A11442  33.883   4.903   7.527
  643POPC   C1B11443  33.913   5.390   8.720
  643POPC   C2B11444  33.880   5.381   8.329
  643POPC   C3B11445  33.916   5.602   7.995
  643POPC   C4B11446  33.819   5.399   7.635
  644POPC   NC311447  12.012   2.278   9.558
  644POPC   PO411448  12.184   1.603   9.609
  644POPC   GL111449  12.201   1.765   9.188
  644POPC   GL211450  11.963   2.028   9.132
  644POPC   C1A11451  12.258   1.906   8.752
  644POPC   D2A11452  12.353   2.061   8.382
  644POPC   C3A11453  12.162   1.838   8.055
  644POPC   C4A11454  12.201   2.046   7.659
  644POPC   C1B11455  11.870   2.228   8.759
  644POPC   C2B11456  11.842   2.085   8.373
  644POPC   C3B11457  11.848   2.257   7.978
  644POPC   C4B11458  11.682   2.203   7.614
  645POPC   NC311459   1.376  37.870   9.480
  645POPC   PO411460   0.823  37.490   9.576
  645POPC   GL111461   1.112  37.536   9.201
  645POPC   GL211462   1.343  37.290   9.099
  645POPC   C1A11463   1.340  37.746   8.819
  645POPC   D2A11464   1.166  37.881   8.407
  645POPC   C3A11465   1.326  37.750   7.991
  645POPC   C4A11466   1.363  38.025   7.620
  645POPC   C1B11467   1.071  37.308   8.743
  645POPC   C2B11468   1.042  37.385   8.302
  645POPC   C3B11469   1.136  37.272   7.881
  645POPC   C4B11470   1.270  37.205   7.459
  646POPC   NC311471   8.266  12.449   9.536
  646POPC   PO411472   7.953  13.210   9.493
  646POPC   GL111473   8.237  12.930   9.243
  646POPC   GL211474   8.080  12.650   9.114
  646POPC   C1A11475   8.428  12.994   8.815
  646POPC   D2A11476   8.249  13.109   8.429
  646POPC   C3A11477   8.528  13.073   8.080
  646POPC   C4A11478   8.539  12.879   7.671
  646POPC   C1B11479   7.955  12.833   8.764
  646POPC   C2B11480   7.954  12.685   8.364
  646POPC   C3B11481   8.137  12.768   8.003
  646POPC   C4B11482   8.067  12.700   7.583
  647POPC   NC311483  23.132  32.608   9.708
  647POPC   PO411484  23.701  32.916   9.556
  647POPC   GL111485  23.783  32.888   9.164
  647POPC   GL211486  24.157  32.829   9.214
  647POPC   C1A11487  23.555  32.972   8.803
  647POPC   D2A11488  23.452  33.219   8.446
  647POPC   C3A11489  23.574  33.028   8.086
  647POPC   C4A11490  23.391  32.817   7.756
  647POPC   C1B11491  24.135  33.059   8.833
  647POPC   C2B11492  23.954  33.055   8.453
  647POPC   C3B11493  24.052  32.819   8.087
  647POPC   C4B11494  23.881  32.899   7.665
  648POPC   NC311495  30.409  25.498   9.528
  648POPC   PO411496  30.663  24.923   9.561
  648POPC   GL111497  30.922  25.075   9.223
  648POPC   GL211498  30.618  25.116   9.057
  648POPC   C1A11499  31.100  25.176   8.819
  648POPC   D2A11500  30.899  25.158   8.456
  648POPC   C3A11501  31.024  25.383   8.131
  648POPC   C4A11502  31.105  25.342   7.714
  648POPC   C1B11503  30.674  25.483   8.817
  648POPC   C2B11504  30.586  25.563   8.370
  648POPC   C3B11505  30.529  25.295   8.031
  648POPC   C4B11506  30.235  25.129   7.751
  649POPC   NC311507  15.402  25.533   9.544
  649POPC   PO411508  15.270  24.814   9.590
  649POPC   GL111509  15.439  25.092   9.292
  649POPC   GL211510  15.130  25.239   9.225
  649POPC   C1A11511  15.510  25.157   8.857
  649POPC   D2A11512  15.451  25.426   8.484
  649POPC   C3A11513  15.364  25.246   8.091
  649POPC   C4A11514  15.424  25.322   7.661
  649POPC   C1B11515  15.026  25.319   8.797
  649POPC   C2B11516  14.943  25.458   8.368
  649POPC   C3B11517  14.683  25.461   8.025
  649POPC   C4B11518  14.916  25.218   7.815
  650POPC   NC311519  30.891  28.737   9.742
  650POPC   PO411520  30.492  29.254   9.470
  650POPC   GL111521  30.792  29.293   9.076
  650POPC   GL211522  30.827  29.614   9.173
  650POPC   C1A11523  31.040  29.079   8.698
  650POPC   D2A11524  31.023  28.789   8.321
  650POPC   C3A11525  30.601  28.877   8.125
  650POPC   C4A11526  30.396  29.018   7.732
  650POPC   C1B11527  30.488  29.586   8.835
  650POPC   C2B11528  30.567  29.274   8.534
  650POPC   C3B11529  30.884  29.314   8.210
  650POPC   C4B11530  30.877  29.199   7.773
  651POPC   NC311531   7.246  29.035   9.426
  651POPC   PO411532   7.828  28.882   9.589
  651POPC   GL111533   7.688  29.045   9.157
  651POPC   GL211534   7.391  29.260   9.016
  651POPC   C1A11535   7.650  29.000   8.681
  651POPC   D2A11536   7.819  29.322   8.384
  651POPC   C3A11537   7.629  29.266   7.987
  651POPC   C4A11538   7.620  28.840   7.807
  651POPC   C1B11539   7.378  29.468   8.638
  651POPC   C2B11540   7.287  29.582   8.239
  651POPC   C3B11541   7.092  29.414   7.899
  651POPC   C4B11542   7.033  29.411   7.467
  652POPC   NC311543   9.529  10.184   9.596
  652POPC   PO411544   9.988  10.702   9.695
  652POPC   GL111545   9.994  10.590   9.195
  652POPC   GL211546   9.808  10.335   9.198
  652POPC   C1A11547  10.124  10.353   8.810
  652POPC   D2A11548  10.165  10.470   8.384
  652POPC   C3A11549   9.922  10.430   7.995
  652POPC   C4A11550   9.877  10.579   7.569
  652POPC   C1B11551   9.643  10.558   8.803
  652POPC   C2B11552   9.536  10.377   8.417
  652POPC   C3B11553   9.406  10.503   8.041
  652POPC   C4B11554   9.368  10.696   7.675
  653POPC   NC311555  37.602  23.038   9.401
  653POPC   PO411556  37.563  22.377   9.458
  653POPC   GL111557  37.685  22.599   9.099
  653POPC   GL211558  37.466  22.857   8.924
  653POPC   C1A11559  37.898  22.651   8.708
  653POPC   D2A11560  37.744  23.007   8.484
  653POPC   C3A11561  37.694  22.923   8.076
  653POPC   C4A11562  38.005  22.819   7.777
  653POPC   C1B11563  37.408  23.302   8.730
  653POPC   C2B11564  37.486  23.395   8.249
  653POPC   C3B11565  37.290  23.320   7.806
  653POPC   C4B11566  37.366  23.533   7.366
  654POPC   NC311567  19.488  35.005   9.379
  654POPC   PO411568  20.166  35.106   9.458
  654POPC   GL111569  19.902  35.363   9.197
  654POPC   GL211570  20.004  35.703   9.068
  654POPC   C1A11571  19.753  35.284   8.786
  654POPC   D2A11572  19.940  35.183   8.388
  654POPC   C3A11573  19.758  35.352   8.061
  654POPC   C4A11574  19.867  35.303   7.670
  654POPC   C1B11575  19.856  35.817   8.660
  654POPC   C2B11576  19.716  35.854   8.217
  654POPC   C3B11577  19.876  35.792   7.779
  654POPC   C4B11578  19.911  35.706   7.308
  655POPC   NC311579  43.450   5.493   9.535
  655POPC   PO411580  44.092   5.188   9.641
  655POPC   GL111581  43.992   5.022   9.241
  655POPC   GL211582  43.802   5.303   9.214
  655POPC   C1A11583  44.017   4.833   8.801
  655POPC   D2A11584  43.990   5.050   8.381
  655POPC   C3A11585  43.781   4.940   8.010
  655POPC   C4A11586  43.851   4.816   7.595
  655POPC   C1B11587  43.652   5.521   8.902
  655POPC   C2B11588  43.756   5.474   8.516
  655POPC   C3B11589  43.744   5.458   8.079
  655POPC   C4B11590  43.796   5.321   7.658
  656POPC   NC311591  39.588  44.126   9.574
  656POPC   PO411592  39.308  43.635   9.396
  656POPC   GL111593  39.319  43.983   9.122
  656POPC   GL211594  39.573  44.222   9.065
  656POPC   C1A11595  39.392  43.908   8.676
  656POPC   D2A11596  39.089  43.775   8.384
  656POPC   C3A11597  39.325  43.819   8.023
  656POPC   C4A11598  39.072  43.807   7.682
  656POPC   C1B11599  39.246  44.378   8.750
  656POPC   C2B11600  39.189  44.275   8.301
  656POPC   C3B11601  39.314  44.308   7.879
  656POPC   C4B11602  39.689  44.099   7.759
  657POPC   NC311603  25.989   1.899   9.548
  657POPC   PO411604  26.427   2.401   9.384
  657POPC   GL111605  26.138   2.106   9.101
  657POPC   GL211606  26.169   1.732   9.076
  657POPC   C1A11607  26.120   2.003   8.662
  657POPC   D2A11608  26.157   1.707   8.371
  657POPC   C3A11609  26.190   1.940   8.060
  657POPC   C4A11610  25.979   2.022   7.731
  657POPC   C1B11611  25.806   1.650   8.836
  657POPC   C2B11612  25.660   1.653   8.411
  657POPC   C3B11613  25.786   1.609   7.987
  657POPC   C4B11614  25.747   1.619   7.525
  658POPC   NC311615  24.873  33.632   9.891
  658POPC   PO411616  25.186  34.039   9.431
  658POPC   GL111617  25.339  34.043   9.076
  658POPC   GL211618  25.183  33.724   9.035
  658POPC   C1A11619  25.313  34.054   8.675
  658POPC   D2A11620  25.236  33.746   8.420
  658POPC   C3A11621  25.416  33.915   8.084
  658POPC   C4A11622  25.298  33.811   7.707
  658POPC   C1B11623  25.533  33.588   8.811
  658POPC   C2B11624  25.558  33.335   8.450
  658POPC   C3B11625  25.388  33.391   8.042
  658POPC   C4B11626  25.447  33.259   7.612
  659POPC   NC311627  15.643  44.758   9.547
  659POPC   PO411628  16.087  44.228   9.416
  659POPC   GL111629  15.873  44.511   9.169
  659POPC   GL211630  15.533  44.431   9.162
  659POPC   C1A11631  16.021  44.688   8.812
  659POPC   D2A11632  16.307  44.543   8.503
  659POPC   C3A11633  16.214  44.731   8.103
  659POPC   C4A11634  16.052  44.706   7.672
  659POPC   C1B11635  15.591  44.367   8.760
  659POPC   C2B11636  15.826  44.395   8.411
  659POPC   C3B11637  15.863  44.369   8.009
  659POPC   C4B11638  15.547  44.538   7.745
  660POPC   NC311639  40.984  21.894   9.693
  660POPC   PO411640  40.486  22.308   9.487
  660POPC   GL111641  40.827  22.227   9.215
  660POPC   GL211642  40.898  21.910   9.185
  660POPC   C1A11643  40.855  22.271   8.773
  660POPC   D2A11644  40.541  22.243   8.420
  660POPC   C3A11645  40.749  22.222   8.020
  660POPC   C4A11646  40.805  22.314   7.586
  660POPC   C1B11647  40.994  21.740   8.784
  660POPC   C2B11648  41.062  21.897   8.353
  660POPC   C3B11649  41.003  21.771   7.941
  660POPC   C4B11650  41.168  21.953   7.567
  661POPC   NC311651  42.377  14.023   9.467
  661POPC   PO411652  42.449  13.416   9.757
  661POPC   GL111653  42.550  13.404   9.292
  661POPC   GL211654  42.252  13.535   9.188
  661POPC   C1A11655  42.619  13.533   8.832
  661POPC   D2A11656  42.349  13.532   8.454
  661POPC   C3A11657  42.466  13.492   8.042
  661POPC   C4A11658  42.136  13.590   7.735
  661POPC   C1B11659  42.202  13.835   8.855
  661POPC   C2B11660  42.399  14.027   8.493
  661POPC   C3B11661  42.233  13.923   8.122
  661POPC   C4B11662  42.330  14.056   7.743
  662POPC   NC311663  37.223  26.325   9.573
  662POPC   PO411664  36.897  25.674   9.544
  662POPC   GL111665  36.811  26.022   9.258
  662POPC   GL211666  37.098  26.199   9.110
  662POPC   C1A11667  36.730  26.022   8.812
  662POPC   D2A11668  37.011  26.014   8.449
  662POPC   C3A11669  36.883  26.249   8.121
  662POPC   C4A11670  36.668  26.167   7.736
  662POPC   C1B11671  37.358  26.181   8.798
  662POPC   C2B11672  37.401  26.375   8.417
  662POPC   C3B11673  37.320  26.448   8.001
  662POPC   C4B11674  37.156  26.269   7.640
  663POPC   NC311675  20.332  44.176   9.649
  663POPC   PO411676  19.758  43.801   9.590
  663POPC   GL111677  19.847  43.894   9.160
  663POPC   GL211678  20.094  43.622   9.117
  663POPC   C1A11679  19.733  44.188   8.811
  663POPC   D2A11680  19.552  44.220   8.395
  663POPC   C3A11681  19.831  44.294   8.061
  663POPC   C4A11682  19.849  43.962   7.774
  663POPC   C1B11683  20.006  43.662   8.662
  663POPC   C2B11684  20.122  43.809   8.219
  663POPC   C3B11685  20.337  43.784   7.786
  663POPC   C4B11686  20.680  43.744   7.442
  664POPC   NC311687  32.337   7.925   9.734
  664POPC   PO411688  31.876   8.201   9.282
  664POPC   GL111689  32.022   8.366   8.960
  664POPC   GL211690  32.341   8.166   9.071
  664POPC   C1A11691  32.037   8.311   8.553
  664POPC   D2A11692  32.350   8.022   8.466
  664POPC   C3A11693  32.225   7.953   8.090
  664POPC   C4A11694  32.136   7.817   7.746
  664POPC   C1B11695  32.492   8.427   8.761
  664POPC   C2B11696  32.473   8.503   8.313
  664POPC   C3B11697  32.408   8.371   7.873
  664POPC   C4B11698  32.567   8.023   7.644
  665POPC   NC311699  24.171  41.806   9.424
  665POPC   PO411700  24.815  41.837   9.469
  665POPC   GL111701  24.552  41.673   9.125
  665POPC   GL211702  24.409  41.345   9.103
  665POPC   C1A11703  24.563  41.615   8.711
  665POPC   D2A11704  24.298  41.598   8.367
  665POPC   C3A11705  24.525  41.587   8.001
  665POPC   C4A11706  24.376  41.731   7.623
  665POPC   C1B11707  24.379  41.148   8.656
  665POPC   C2B11708  24.400  41.129   8.179
  665POPC   C3B11709  24.431  41.056   7.772
  665POPC   C4B11710  24.158  41.202   7.488
  666POPC   NC311711  21.051   2.008   9.467
  666POPC   PO411712  21.665   1.567   9.499
  666POPC   GL111713  21.522   1.938   9.279
  666POPC   GL211714  21.320   1.724   9.119
  666POPC   C1A11715  21.346   2.188   8.901
  666POPC   D2A11716  21.196   1.980   8.534
  666POPC   C3A11717  21.357   2.030   8.131
  666POPC   C4A11718  21.171   2.236   7.799
  666POPC   C1B11719  21.559   1.721   8.788
  666POPC   C2B11720  21.644   1.650   8.401
  666POPC   C3B11721  21.721   1.698   7.982
  666POPC   C4B11722  21.472   1.765   7.643
  667POPC   NC311723  40.128  28.650   9.265
  667POPC   PO411724  39.967  29.322   9.479
  667POPC   GL111725  40.149  29.154   9.102
  667POPC   GL211726  40.000  28.865   8.844
  667POPC   C1A11727  39.963  29.344   8.768
  667POPC   D2A11728  39.891  29.133   8.381
  667POPC   C3A11729  39.990  29.348   8.042
  667POPC   C4A11730  40.264  29.295   7.735
  667POPC   C1B11731  40.366  29.075   8.621
  667POPC   C2B11732  40.427  29.073   8.205
  667POPC   C3B11733  40.191  28.831   7.938
  667POPC   C4B11734  40.192  28.845   7.501
  668POPC   NC311735  44.330  22.405   9.612
  668POPC   PO411736  43.797  22.013   9.618
  668POPC   GL111737  43.898  21.844   9.266
  668POPC   GL211738  44.122  22.124   9.234
  668POPC   C1A11739  43.813  21.983   8.846
  668POPC   D2A11740  43.791  22.299   8.543
  668POPC   C3A11741  43.786  22.108   8.150
  668POPC   C4A11742  43.823  22.341   7.776
  668POPC   C1B11743  44.130  22.440   8.930
  668POPC   C2B11744  44.309  22.371   8.546
  668POPC   C3B11745  44.196  22.402   8.130
  668POPC   C4B11746  44.195  22.732   7.832
  669POPC   NC311747  36.463  22.321   9.421
  669POPC   PO411748  35.926  21.944   9.583
  669POPC   GL111749  36.082  22.071   9.172
  669POPC   GL211750  36.011  22.418   9.155
  669POPC   C1A11751  36.373  22.138   8.798
  669POPC   D2A11752  36.456  22.202   8.336
  669POPC   C3A11753  36.065  22.109   8.096
  669POPC   C4A11754  36.063  21.857   7.730
  669POPC   C1B11755  35.871  22.362   8.736
  669POPC   C2B11756  35.933  22.579   8.352
  669POPC   C3B11757  36.142  22.600   7.975
  669POPC   C4B11758  35.925  22.464   7.647
  670POPC   NC311759  22.823  44.204   9.721
  670POPC   PO411760  23.296  43.759   9.522
  670POPC   GL111761  22.988  43.952   9.224
  670POPC   GL211762  22.942  44.307   9.209
  670POPC   C1A11763  22.848  44.006   8.784
  670POPC   D2A11764  22.921  43.724   8.426
  670POPC   C3A11765  22.985  43.844   8.003
  670POPC   C4A11766  22.994  43.607   7.645
  670POPC   C1B11767  23.238  44.365   8.852
  670POPC   C2B11768  23.310  44.172   8.461
  670POPC   C3B11769  23.374  44.175   8.046
  670POPC   C4B11770  23.075  44.393   7.803
  671POPC   NC311771  44.023   4.728   9.710
  671POPC   PO411772  43.552   4.317   9.496
  671POPC   GL111773  43.822   4.487   9.179
  671POPC   GL211774  44.187   4.559   9.195
  671POPC   C1A11775  43.708   4.406   8.759
  671POPC   D2A11776  43.673   4.647   8.415
  671POPC   C3A11777  43.818   4.424   8.051
  671POPC   C4A11778  43.690   4.074   7.816
  671POPC   C1B11779  44.216   4.345   8.819
  671POPC   C2B11780  44.106   4.145   8.431
  671POPC   C3B11781  44.279   4.120   8.007
  671POPC   C4B11782  44.211   4.463   7.705
  672POPC   NC311783  16.313  22.671  10.045
  672POPC   PO411784  15.938  22.975   9.581
  672POPC   GL111785  15.973  22.953   9.170
  672POPC   GL211786  16.257  22.741   9.176
  672POPC   C1A11787  15.762  23.043   8.776
  672POPC   D2A11788  15.687  22.857   8.381
  672POPC   C3A11789  15.526  23.006   8.004
  672POPC   C4A11790  15.649  22.942   7.570
  672POPC   C1B11791  16.265  22.815   8.742
  672POPC   C2B11792  16.196  22.746   8.306
  672POPC   C3B11793  16.067  22.977   7.924
  672POPC   C4B11794  16.196  22.946   7.484
  673POPC   NC311795  32.671   1.811   9.453
  673POPC   PO411796  32.082   2.187   9.535
  673POPC   GL111797  32.167   1.932   9.211
  673POPC   GL211798  31.869   1.768   9.111
  673POPC   C1A11799  32.459   1.933   8.862
  673POPC   D2A11800  32.474   1.773   8.454
  673POPC   C3A11801  32.430   2.019   8.079
  673POPC   C4A11802  32.347   1.883   7.659
  673POPC   C1B11803  31.991   1.826   8.699
  673POPC   C2B11804  31.979   1.952   8.310
  673POPC   C3B11805  31.996   1.727   7.989
  673POPC   C4B11806  31.944   1.561   7.600
  674POPC   NC311807  11.197   4.787   9.522
  674POPC   PO411808  11.519   5.334   9.720
  674POPC   GL111809  11.361   5.295   9.255
  674POPC   GL211810  11.098   5.090   9.132
  674POPC   C1A11811  11.300   5.394   8.773
  674POPC   D2A11812  11.283   5.369   8.288
  674POPC   C3A11813  11.271   4.996   8.062
  674POPC   C4A11814  11.429   4.751   7.718
  674POPC   C1B11815  11.001   4.948   8.718
  674POPC   C2B11816  10.820   5.143   8.357
  674POPC   C3B11817  10.757   5.018   7.962
  674POPC   C4B11818  10.966   4.923   7.608
  675POPC   NC311819   0.195  26.711   9.522
  675POPC   PO411820   0.745  26.855   9.774
  675POPC   GL111821   0.575  26.948   9.280
  675POPC   GL211822   0.210  26.988   9.116
  675POPC   C1A11823   0.634  26.986   8.818
  675POPC   D2A11824   0.632  26.799   8.412
  675POPC   C3A11825   0.701  26.976   7.999
  675POPC   C4A11826   0.544  26.899   7.564
  675POPC   C1B11827   0.273  26.626   8.811
  675POPC   C2B11828   0.166  26.573   8.397
  675POPC   C3B11829   0.330  26.615   7.993
  675POPC   C4B11830   0.325  26.449   7.605
  676POPC   NC311831   4.039  31.973   9.491
  676POPC   PO411832   4.204  31.277   9.461
  676POPC   GL111833   4.276  31.478   9.095
  676POPC   GL211834   4.454  31.747   9.251
  676POPC   C1A11835   4.365  31.299   8.682
  676POPC   D2A11836   4.419  31.042   8.302
  676POPC   C3A11837   4.306  31.333   7.976
  676POPC   C4A11838   4.617  31.376   7.703
  676POPC   C1B11839   4.655  31.709   8.848
  676POPC   C2B11840   4.625  31.680   8.406
  676POPC   C3B11841   4.667  31.813   7.985
  676POPC   C4B11842   4.335  31.796   7.687
  677POPC   NC311843  17.066  30.050   9.519
  677POPC   PO411844  16.603  29.517   9.421
  677POPC   GL111845  16.762  29.836   9.166
  677POPC   GL211846  17.162  29.739   9.149
  677POPC   C1A11847  16.566  29.937   8.759
  677POPC   D2A11848  16.430  29.724   8.402
  677POPC   C3A11849  16.581  29.956   8.046
  677POPC   C4A11850  16.429  30.303   7.794
  677POPC   C1B11851  17.061  29.995   8.788
  677POPC   C2B11852  16.956  30.151   8.365
  677POPC   C3B11853  17.068  29.911   7.975
  677POPC   C4B11854  16.902  29.947   7.550
  678POPC   NC311855  32.704   9.936   9.476
  678POPC   PO411856  33.268   9.755   9.378
  678POPC   GL111857  32.906   9.708   9.061
  678POPC   GL211858  32.822  10.064   8.997
  678POPC   C1A11859  32.997   9.701   8.616
  678POPC   D2A11860  33.430   9.697   8.422
  678POPC   C3A11861  33.431   9.460   8.028
  678POPC   C4A11862  33.131   9.550   7.699
  678POPC   C1B11863  32.560  10.012   8.650
  678POPC   C2B11864  32.532   9.692   8.358
  678POPC   C3B11865  32.861   9.735   8.087
  678POPC   C4B11866  32.641   9.969   7.795
  679POPC   NC311867  15.465  12.391   9.498
  679POPC   PO411868  14.979  11.936   9.645
  679POPC   GL111869  15.115  11.998   9.199
  679POPC   GL211870  15.381  12.237   9.026
  679POPC   C1A11871  15.065  11.968   8.747
  679POPC   D2A11872  15.273  12.204   8.446
  679POPC   C3A11873  15.024  12.136   8.114
  679POPC   C4A11874  14.990  12.224   7.715
  679POPC   C1B11875  15.607  11.938   8.757
  679POPC   C2B11876  15.746  11.936   8.352
  679POPC   C3B11877  15.559  12.044   8.007
  679POPC   C4B11878  15.397  11.874   7.677
  680POPC   NC311879   0.186  12.440   9.467
  680POPC   PO411880   0.040  11.808   9.522
  680POPC   GL111881   0.254  11.990   9.120
  680POPC   GL211882   0.498  12.300   9.080
  680POPC   C1A11883   0.444  11.948   8.685
  680POPC   D2A11884   0.617  12.154   8.288
  680POPC   C3A11885   0.436  11.987   7.878
  680POPC   C4A11886   0.427  11.935   7.424
  680POPC   C1B11887   0.144  12.384   8.802
  680POPC   C2B11888   0.117  12.199   8.395
  680POPC   C3B11889   0.166  12.393   7.989
  680POPC   C4B11890   0.031  12.251   7.555
  681POPC   NC311891  24.834  14.151   9.497
  681POPC   PO411892  25.525  14.393   9.493
  681POPC   GL111893  25.465  14.196   9.068
  681POPC   GL211894  25.113  14.113   9.063
  681POPC   C1A11895  25.606  14.206   8.616
  681POPC   D2A11896  25.393  14.081   8.220
  681POPC   C3A11897  25.372  14.337   7.822
  681POPC   C4A11898  25.141  14.507   7.433
  681POPC   C1B11899  24.992  14.162   8.623
  681POPC   C2B11900  24.917  14.223   8.184
  681POPC   C3B11901  24.846  14.270   7.766
  681POPC   C4B11902  24.592  14.297   7.430
  682POPC   NC311903  32.998  18.866   9.427
  682POPC   PO411904  33.329  19.449   9.517
  682POPC   GL111905  33.277  19.143   9.100
  682POPC   GL211906  32.970  18.930   8.932
  682POPC   C1A11907  33.401  19.053   8.704
  682POPC   D2A11908  33.224  19.263   8.368
  682POPC   C3A11909  32.928  18.991   8.196
  682POPC   C4A11910  33.212  18.889   7.862
  682POPC   C1B11911  32.773  19.232   8.634
  682POPC   C2B11912  32.782  19.509   8.254
  682POPC   C3B11913  33.006  19.384   7.883
  682POPC   C4B11914  32.765  19.033   7.705
  683POPC   NC311915  20.239  27.537   9.490
  683POPC   PO411916  20.835  27.708   9.210
  683POPC   GL111917  20.488  27.632   9.036
  683POPC   GL211918  20.382  27.278   9.097
  683POPC   C1A11919  20.567  27.769   8.641
  683POPC   D2A11920  20.831  28.022   8.410
  683POPC   C3A11921  20.664  27.820   8.110
  683POPC   C4A11922  20.556  27.790   7.723
  683POPC   C1B11923  20.600  27.208   8.762
  683POPC   C2B11924  20.759  27.364   8.407
  683POPC   C3B11925  20.577  27.323   8.048
  683POPC   C4B11926  20.508  27.274   7.642
  684POPC   NC311927  38.808  35.337   9.634
  684POPC   PO411928  39.445  35.386   9.524
  684POPC   GL111929  39.225  35.334   9.185
  684POPC   GL211930  39.035  35.050   9.265
  684POPC   C1A11931  39.080  35.379   8.779
  684POPC   D2A11932  39.226  35.185   8.443
  684POPC   C3A11933  39.184  35.376   8.051
  684POPC   C4A11934  39.234  35.421   7.603
  684POPC   C1B11935  38.871  34.907   8.888
  684POPC   C2B11936  38.773  34.946   8.495
  684POPC   C3B11937  38.717  35.216   8.185
  684POPC   C4B11938  38.841  35.129   7.768
  685POPC   NC311939  27.229  16.713   9.927
  685POPC   PO411940  26.660  16.759   9.619
  685POPC   GL111941  26.918  16.821   9.216
  685POPC   GL211942  26.665  16.594   9.073
  685POPC   C1A11943  27.063  16.695   8.768
  685POPC   D2A11944  27.155  16.392   8.406
  685POPC   C3A11945  27.135  16.620   8.017
  685POPC   C4A11946  27.023  17.085   7.964
  685POPC   C1B11947  26.555  16.739   8.676
  685POPC   C2B11948  26.771  16.823   8.319
  685POPC   C3B11949  26.652  16.704   7.897
  685POPC   C4B11950  26.415  16.847   7.579
  686POPC   NC311951  40.311  21.156   9.639
  686POPC   PO411952  39.803  21.688   9.544
  686POPC   GL111953  40.029  21.430   9.278
  686POPC   GL211954  39.837  21.183   9.108
  686POPC   C1A11955  40.200  21.507   8.872
  686POPC   D2A11956  40.098  21.703   8.474
  686POPC   C3A11957  40.034  21.432   8.131
  686POPC   C4A11958  40.027  21.575   7.741
  686POPC   C1B11959  39.874  21.175   8.621
  686POPC   C2B11960  40.028  20.916   8.252
  686POPC   C3B11961  40.146  20.975   7.804
  686POPC   C4B11962  40.418  20.911   7.405
  687POPC   NC311963   6.935  41.217   9.442
  687POPC   PO411964   6.485  41.774   9.461
  687POPC   GL111965   6.775  41.647   9.162
  687POPC   GL211966   6.556  41.359   9.141
  687POPC   C1A11967   6.884  41.494   8.747
  687POPC   D2A11968   6.790  41.364   8.309
  687POPC   C3A11969   6.893  41.674   7.949
  687POPC   C4A11970   6.948  41.698   7.469
  687POPC   C1B11971   6.308  41.524   8.837
  687POPC   C2B11972   6.242  41.399   8.449
  687POPC   C3B11973   6.372  41.564   8.097
  687POPC   C4B11974   6.536  41.319   7.847
  688POPC   NC311975   6.744  25.367   9.528
  688POPC   PO411976   6.944  24.725   9.400
  688POPC   GL111977   6.839  25.128   9.080
  688POPC   GL211978   6.862  25.538   9.082
  688POPC   C1A11979   6.860  25.311   8.636
  688POPC   D2A11980   7.037  25.493   8.268
  688POPC   C3A11981   6.949  25.212   7.927
  688POPC   C4A11982   6.716  24.981   7.614
  688POPC   C1B11983   6.463  25.562   8.839
  688POPC   C2B11984   6.334  25.336   8.442
  688POPC   C3B11985   6.435  25.200   8.026
  688POPC   C4B11986   6.555  25.470   7.672
  689POPC   NC311987  42.690   5.346   9.311
  689POPC   PO411988  42.149   4.993   9.609
  689POPC   GL111989  42.068   5.032   9.185
  689POPC   GL211990  42.398   4.998   9.075
  689POPC   C1A11991  42.042   5.235   8.769
  689POPC   D2A11992  42.375   5.218   8.475
  689POPC   C3A11993  42.201   5.319   8.107
  689POPC   C4A11994  42.228   5.211   7.688
  689POPC   C1B11995  42.670   4.769   8.791
  689POPC   C2B11996  42.562   4.739   8.372
  689POPC   C3B11997  42.621   4.983   8.021
  689POPC   C4B11998  42.465   4.777   7.677
  690POPC   NC311999   4.071  24.890   9.527
  690POPC   PO412000   4.742  25.152   9.585
  690POPC   GL112001   4.364  25.210   9.237
  690POPC   GL212002   4.181  25.557   9.157
  690POPC   C1A12003   4.237  25.207   8.781
  690POPC   D2A12004   4.511  25.198   8.453
  690POPC   C3A12005   4.437  25.095   8.039
  690POPC   C4A12006   4.057  25.096   7.856
  690POPC   C1B12007   4.583  25.581   8.895
  690POPC   C2B12008   4.752  25.655   8.471
  690POPC   C3B12009   4.522  25.593   8.108
  690POPC   C4B12010   4.630  25.562   7.698
  691POPC   NC312011  40.968  38.243   9.565
  691POPC   PO412012  40.527  38.664   9.476
  691POPC   GL112013  40.696  38.689   9.074
  691POPC   GL212014  40.933  38.504   9.125
  691POPC   C1A12015  40.773  38.702   8.632
  691POPC   D2A12016  40.559  38.678   8.246
  691POPC   C3A12017  40.824  38.812   7.938
  691POPC   C4A12018  41.026  38.830   7.540
  691POPC   C1B12019  40.761  38.216   8.783
  691POPC   C2B12020  40.788  38.225   8.313
  691POPC   C3B12021  41.047  38.348   7.956
  691POPC   C4B12022  41.048  38.229   7.524
  692POPC   NC312023  24.559   5.585   9.536
  692POPC   PO412024  24.162   6.076   9.263
  692POPC   GL112025  24.550   5.904   9.128
  692POPC   GL212026  24.828   6.087   9.227
  692POPC   C1A12027  24.617   5.818   8.726
  692POPC   D2A12028  24.560   6.002   8.344
  692POPC   C3A12029  24.496   5.679   8.091
  692POPC   C4A12030  24.306   5.684   7.709
  692POPC   C1B12031  25.026   6.137   8.822
  692POPC   C2B12032  24.962   6.328   8.403
  692POPC   C3B12033  24.888   6.160   7.969
  692POPC   C4B12034  24.789   6.191   7.481
  693POPC   NC312035  44.358  44.581   9.426
  693POPC   PO412036  44.838  44.978   9.536
  693POPC   GL112037  44.683  44.858   9.176
  693POPC   GL212038  44.392   0.010   9.147
  693POPC   C1A12039  44.809  44.661   8.812
  693POPC   D2A12040  44.741  44.793   8.394
  693POPC   C3A12041  44.819  44.532   8.032
  693POPC   C4A12042  44.652  44.719   7.664
  693POPC   C1B12043  44.323  44.780   8.730
  693POPC   C2B12044  44.210  44.634   8.283
  693POPC   C3B12045  44.176  44.782   7.838
  693POPC   C4B12046  44.223  44.577   7.394
  694POPC   NC312047  18.218  36.431   9.404
  694POPC   PO412048  18.546  35.934   9.529
  694POPC   GL112049  18.414  36.013   9.043
  694POPC   GL212050  18.122  36.253   8.963
  694POPC   C1A12051  18.284  35.996   8.584
  694POPC   D2A12052  18.228  36.160   8.155
  694POPC   C3A12053  18.311  35.981   7.796
  694POPC   C4A12054  18.228  35.995   7.356
  694POPC   C1B12055  17.954  36.656   8.801
  694POPC   C2B12056  17.745  36.621   8.409
  694POPC   C3B12057  17.797  36.442   8.024
  694POPC   C4B12058  18.000  36.345   7.672
  695POPC   NC312059  20.063   3.100   9.216
  695POPC   PO412060  19.800   2.407   9.242
  695POPC   GL112061  19.766   2.743   9.007
  695POPC   GL212062  19.563   3.060   9.093
  695POPC   C1A12063  20.030   2.759   8.638
  695POPC   D2A12064  20.018   2.575   8.246
  695POPC   C3A12065  20.065   2.854   7.900
  695POPC   C4A12066  19.914   2.800   7.479
  695POPC   C1B12067  19.552   3.010   8.658
  695POPC   C2B12068  19.731   3.009   8.284
  695POPC   C3B12069  19.558   2.877   7.895
  695POPC   C4B12070  19.443   2.959   7.488
  696POPC   NC312071  22.464   8.154   9.614
  696POPC   PO412072  23.111   8.158   9.463
  696POPC   GL112073  22.808   8.200   9.205
  696POPC   GL212074  22.622   7.877   9.191
  696POPC   C1A12075  23.028   8.159   8.810
  696POPC   D2A12076  23.057   7.869   8.496
  696POPC   C3A12077  23.197   8.059   8.138
  696POPC   C4A12078  23.164   8.184   7.739
  696POPC   C1B12079  22.518   8.113   8.811
  696POPC   C2B12080  22.700   8.343   8.469
  696POPC   C3B12081  22.788   8.376   8.035
  696POPC   C4B12082  22.729   7.944   7.847
  697POPC   NC312083   0.199   0.272   9.478
  697POPC   PO412084   0.632   0.742   9.449
  697POPC   GL112085   0.286   0.700   9.137
  697POPC   GL212086   0.374   0.369   9.025
  697POPC   C1A12087   0.022   0.621   8.767
  697POPC   D2A12088   0.313   0.450   8.488
  697POPC   C3A12089   0.340   0.388   8.041
  697POPC   C4A12090   0.646   0.592   7.782
  697POPC   C1B12091   0.673   0.209   8.776
  697POPC   C2B12092   0.728   0.197   8.365
  697POPC   C3B12093   0.686  44.985   8.005
  697POPC   C4B12094   0.611   0.090   7.605
  698POPC   NC312095  39.349  40.085   9.717
  698POPC   PO412096  38.720  40.174   9.528
  698POPC   GL112097  39.066  39.960   9.194
  698POPC   GL212098  39.443  40.020   9.202
  698POPC   C1A12099  38.913  39.798   8.769
  698POPC   D2A12100  38.913  39.984   8.378
  698POPC   C3A12101  38.892  39.729   8.021
  698POPC   C4A12102  38.934  39.920   7.663
  698POPC   C1B12103  39.520  40.274   8.863
  698POPC   C2B12104  39.421  40.233   8.427
  698POPC   C3B12105  39.331  40.004   8.054
  698POPC   C4B12106  39.402  40.107   7.635
  699POPC   NC312107  40.567  12.243   9.515
  699POPC   PO412108  41.162  12.049   9.524
  699POPC   GL112109  40.919  11.994   9.151
  699POPC   GL212110  40.540  11.983   9.082
  699POPC   C1A12111  41.026  12.148   8.754
  699POPC   D2A12112  41.141  12.275   8.350
  699POPC   C3A12113  40.895  12.148   7.976
  699POPC   C4A12114  40.951  11.881   7.604
  699POPC   C1B12115  40.520  12.255   8.706
  699POPC   C2B12116  40.609  12.456   8.285
  699POPC   C3B12117  40.357  12.328   7.898
  699POPC   C4B12118  40.402  12.301   7.428
  700POPC   NC312119  44.827  13.568   9.447
  700POPC   PO412120  44.312  14.010   9.550
  700POPC   GL112121  44.556  13.908   9.175
  700POPC   GL212122  44.417  13.563   9.116
  700POPC   C1A12123  44.878  13.756   8.831
  700POPC   D2A12124  44.962  13.663   8.391
  700POPC   C3A12125  44.636  13.542   8.108
  700POPC   C4A12126  44.601  13.580   7.656
  700POPC   C1B12127  44.364  13.816   8.723
  700POPC   C2B12128  44.191  13.857   8.319
  700POPC   C3B12129  44.346  13.938   7.948
  700POPC   C4B12130  44.486  14.126   7.597
  701POPC   NC312131   0.829  19.509   9.519
  701POPC   PO412132   1.321  19.938   9.558
  701POPC   GL112133   1.278  19.922   9.145
  701POPC   GL212134   0.950  19.868   9.174
  701POPC   C1A12135   1.373  20.018   8.723
  701POPC   D2A12136   1.211  20.050   8.315
  701POPC   C3A12137   1.501  20.107   7.957
  701POPC   C4A12138   1.413  20.168   7.528
  701POPC   C1B12139   0.979  19.691   8.779
  701POPC   C2B12140   0.882  19.534   8.400
  701POPC   C3B12141   1.081  19.633   8.035
  701POPC   C4B12142   1.016  20.025   7.835
  702POPC   NC312143  37.141  18.917   9.528
  702POPC   PO412144  36.646  19.388   9.430
  702POPC   GL112145  36.762  19.035   9.179
  702POPC   GL212146  37.059  19.227   9.126
  702POPC   C1A12147  36.798  18.852   8.770
  702POPC   D2A12148  36.729  19.051   8.384
  702POPC   C3A12149  36.571  18.913   7.992
  702POPC   C4A12150  36.729  18.953   7.570
  702POPC   C1B12151  37.273  19.201   8.762
  702POPC   C2B12152  37.281  18.917   8.429
  702POPC   C3B12153  37.103  18.906   8.022
  702POPC   C4B12154  37.221  19.015   7.626
  703POPC   NC312155  18.712  30.132   9.496
  703POPC   PO412156  19.316  29.752   9.446
  703POPC   GL112157  19.195  29.750   9.088
  703POPC   GL212158  18.855  29.652   9.001
  703POPC   C1A12159  19.306  29.890   8.738
  703POPC   D2A12160  19.045  29.783   8.429
  703POPC   C3A12161  19.274  29.791   8.055
  703POPC   C4A12162  19.532  30.067   7.834
  703POPC   C1B12163  18.832  30.067   8.861
  703POPC   C2B12164  18.786  30.317   8.523
  703POPC   C3B12165  18.809  30.167   8.140
  703POPC   C4B12166  19.056  30.244   7.826
  704POPC   NC312167  11.615  12.383   9.507
  704POPC   PO412168  11.313  12.993   9.481
  704POPC   GL112169  11.422  12.810   9.084
  704POPC   GL212170  11.708  12.605   9.065
  704POPC   C1A12171  11.207  12.645   8.709
  704POPC   D2A12172  11.020  12.688   8.280
  704POPC   C3A12173  11.284  12.871   7.920
  704POPC   C4A12174  11.576  12.889   7.530
  704POPC   C1B12175  11.711  12.762   8.643
  704POPC   C2B12176  11.524  12.605   8.258
  704POPC   C3B12177  11.682  12.487   7.801
  704POPC   C4B12178  11.886  12.510   7.355
  705POPC   NC312179   7.960   0.803   9.313
  705POPC   PO412180   7.982   1.433   9.536
  705POPC   GL112181   8.246   1.288   9.196
  705POPC   GL212182   8.448   0.985   9.254
  705POPC   C1A12183   8.127   1.245   8.752
  705POPC   D2A12184   8.104   1.161   8.310
  705POPC   C3A12185   7.786   1.402   8.094
  705POPC   C4A12186   7.839   1.618   7.702
  705POPC   C1B12187   8.606   1.065   8.846
  705POPC   C2B12188   8.599   1.187   8.421
  705POPC   C3B12189   8.492   1.033   8.001
  705POPC   C4B12190   8.110   1.156   7.785
  706POPC   NC312191   5.062  22.626   9.643
  706POPC   PO412192   4.867  21.991   9.528
  706POPC   GL112193   4.867  22.189   9.115
  706POPC   GL212194   5.066  22.472   9.103
  706POPC   C1A12195   5.029  22.094   8.685
  706POPC   D2A12196   5.232  22.243   8.275
  706POPC   C3A12197   5.343  22.014   7.901
  706POPC   C4A12198   5.751  21.852   7.853
  706POPC   C1B12199   5.191  22.572   8.688
  706POPC   C2B12200   4.927  22.645   8.324
  706POPC   C3B12201   4.956  22.513   7.884
  706POPC   C4B12202   4.811  22.196   7.562
  707POPC   NC312203  20.322   8.670   9.472
  707POPC   PO412204  19.609   8.437   9.666
  707POPC   GL112205  19.876   8.441   9.312
  707POPC   GL212206  19.967   8.137   9.200
  707POPC   C1A12207  19.891   8.513   8.857
  707POPC   D2A12208  19.737   8.407   8.424
  707POPC   C3A12209  19.604   8.026   8.226
  707POPC   C4A12210  19.667   7.963   7.808
  707POPC   C1B12211  20.173   8.066   8.801
  707POPC   C2B12212  20.398   7.935   8.427
  707POPC   C3B12213  20.427   8.178   8.086
  707POPC   C4B12214  20.116   8.211   7.790
  708POPC   NC312215  20.189  42.620   9.559
  708POPC   PO412216  20.754  42.234   9.575
  708POPC   GL112217  20.632  42.224   9.197
  708POPC   GL212218  20.468  42.533   9.134
  708POPC   C1A12219  20.531  42.149   8.797
  708POPC   D2A12220  20.496  42.456   8.495
  708POPC   C3A12221  20.648  42.304   8.141
  708POPC   C4A12222  20.591  42.111   7.749
  708POPC   C1B12223  20.223  42.781   8.845
  708POPC   C2B12224  20.076  42.776   8.433
  708POPC   C3B12225  20.279  42.689   8.036
  708POPC   C4B12226  20.283  42.507   7.609
  709POPC   NC312227  44.880  20.876   9.491
  709POPC   PO412228  44.734  20.207   9.496
  709POPC   GL112229  44.656  20.492   9.192
  709POPC   GL212230  44.346  20.699   9.174
  709POPC   C1A12231  44.838  20.426   8.808
  709POPC   D2A12232  44.970  20.573   8.423
  709POPC   C3A12233  44.735  20.557   8.063
  709POPC   C4A12234  44.734  20.233   7.775
  709POPC   C1B12235  44.563  20.841   8.766
  709POPC   C2B12236  44.619  21.009   8.324
  709POPC   C3B12237  44.429  20.940   7.914
  709POPC   C4B12238  44.414  20.614   7.646
  710POPC   NC312239  35.737   0.283   9.464
  710POPC   PO412240  35.014   0.535   9.472
  710POPC   GL112241  35.328   0.402   9.138
  710POPC   GL212242  35.492   0.055   9.092
  710POPC   C1A12243  35.682   0.496   8.859
  710POPC   D2A12244  35.782   0.845   8.577
  710POPC   C3A12245  35.575   0.770   8.188
  710POPC   C4A12246  35.573   0.686   7.764
  710POPC   C1B12247  35.374   0.094   8.671
  710POPC   C2B12248  35.272   0.318   8.307
  710POPC   C3B12249  35.472   0.227   7.930
  710POPC   C4B12250  35.498   0.262   7.466
  711POPC   NC312251  39.232  38.947   9.520
  711POPC   PO412252  39.360  39.652   9.541
  711POPC   GL112253  39.286  39.489   9.141
  711POPC   GL212254  39.591  39.520   9.000
  711POPC   C1A12255  39.242  39.188   8.785
  711POPC   D2A12256  39.416  38.874   8.510
  711POPC   C3A12257  39.383  39.023   8.121
  711POPC   C4A12258  39.418  39.106   7.685
  711POPC   C1B12259  39.408  39.774   8.717
  711POPC   C2B12260  39.230  39.579   8.390
  711POPC   C3B12261  39.406  39.505   8.030
  711POPC   C4B12262  39.298  39.594   7.683
  712POPC   NC312263  18.926  14.053   9.537
  712POPC   PO412264  19.251  14.773   9.512
  712POPC   GL112265  19.064  14.459   9.259
  712POPC   GL212266  19.358  14.228   9.271
  712POPC   C1A12267  18.829  14.286   8.874
  712POPC   D2A12268  18.884  14.055   8.457
  712POPC   C3A12269  18.784  14.296   8.065
  712POPC   C4A12270  19.003  14.447   7.694
  712POPC   C1B12271  19.301  14.098   8.846
  712POPC   C2B12272  19.383  14.208   8.417
  712POPC   C3B12273  19.433  13.988   8.012
  712POPC   C4B12274  19.195  13.984   7.626
  713POPC   NC312275  17.280  16.754   9.563
  713POPC   PO412276  16.637  16.976   9.472
  713POPC   GL112277  16.842  16.675   9.137
  713POPC   GL212278  17.214  16.566   9.098
  713POPC   C1A12279  16.654  16.632   8.709
  713POPC   D2A12280  16.671  16.971   8.391
  713POPC   C3A12281  16.849  16.916   7.988
  713POPC   C4A12282  16.715  16.618   7.713
  713POPC   C1B12283  17.154  16.756   8.686
  713POPC   C2B12284  17.001  16.567   8.317
  713POPC   C3B12285  17.186  16.520   7.921
  713POPC   C4B12286  17.158  16.471   7.507
  714POPC   NC312287  32.994  26.455  10.013
  714POPC   PO412288  33.045  25.922   9.557
  714POPC   GL112289  32.954  26.035   9.165
  714POPC   GL212290  33.118  26.386   9.201
  714POPC   C1A12291  33.031  25.760   8.780
  714POPC   D2A12292  33.376  25.796   8.451
  714POPC   C3A12293  33.211  25.684   8.041
  714POPC   C4A12294  33.276  25.784   7.611
  714POPC   C1B12295  33.245  26.219   8.777
  714POPC   C2B12296  32.946  26.110   8.411
  714POPC   C3B12297  32.978  26.138   7.962
  714POPC   C4B12298  33.320  26.320   7.726
  715POPC   NC312299   5.652  35.151   9.824
  715POPC   PO412300   4.959  35.193   9.567
  715POPC   GL112301   5.045  35.296   9.149
  715POPC   GL212302   5.307  35.572   9.079
  715POPC   C1A12303   5.187  35.142   8.759
  715POPC   D2A12304   5.043  35.212   8.339
  715POPC   C3A12305   5.379  35.412   8.114
  715POPC   C4A12306   5.463  35.142   7.780
  715POPC   C1B12307   5.030  35.647   8.710
  715POPC   C2B12308   4.956  35.718   8.259
  715POPC   C3B12309   4.945  35.468   7.863
  715POPC   C4B12310   5.314  35.593   7.606
  716POPC   NC312311  20.310  18.918   9.596
  716POPC   PO412312  20.909  19.130   9.474
  716POPC   GL112313  20.703  19.025   9.122
  716POPC   GL212314  20.416  19.199   9.176
  716POPC   C1A12315  20.820  19.027   8.679
  716POPC   D2A12316  20.923  19.272   8.308
  716POPC   C3A12317  20.745  19.147   7.906
  716POPC   C4A12318  20.830  19.314   7.495
  716POPC   C1B12319  20.397  19.277   8.764
  716POPC   C2B12320  20.416  19.075   8.366
  716POPC   C3B12321  20.248  19.010   7.962
  716POPC   C4B12322  20.338  19.078   7.539
  717POPC   NC312323  43.528  30.722   9.532
  717POPC   PO412324  42.881  31.030   9.705
  717POPC   GL112325  43.074  30.903   9.284
  717POPC   GL212326  43.379  31.107   9.224
  717POPC   C1A12327  43.034  30.625   8.890
  717POPC   D2A12328  42.879  30.526   8.481
  717POPC   C3A12329  43.056  30.666   8.102
  717POPC   C4A12330  42.862  30.743   7.710
  717POPC   C1B12331  43.387  31.222   8.832
  717POPC   C2B12332  43.252  30.994   8.491
  717POPC   C3B12333  43.402  31.069   8.110
  717POPC   C4B12334  43.338  30.929   7.730
  718POPC   NC312335  24.226  22.720   9.549
  718POPC   PO412336  23.559  23.037   9.537
  718POPC   GL112337  23.480  22.875   9.148
  718POPC   GL212338  23.841  22.775   9.200
  718POPC   C1A12339  23.578  22.944   8.743
  718POPC   D2A12340  23.760  22.812   8.369
  718POPC   C3A12341  23.496  22.805   8.053
  718POPC   C4A12342  23.410  23.079   7.746
  718POPC   C1B12343  23.999  22.662   8.830
  718POPC   C2B12344  24.051  22.383   8.515
  718POPC   C3B12345  23.989  22.441   8.088
  718POPC   C4B12346  23.963  22.806   7.852
  719POPC   NC312347  21.363  30.476   9.465
  719POPC   PO412348  20.837  30.854   9.561
  719POPC   GL112349  21.112  30.738   9.146
  719POPC   GL212350  21.422  30.947   9.091
  719POPC   C1A12351  21.450  30.533   8.802
  719POPC   D2A12352  21.576  30.738   8.401
  719POPC   C3A12353  21.462  30.542   8.001
  719POPC   C4A12354  21.364  30.442   7.565
  719POPC   C1B12355  21.188  30.951   8.713
  719POPC   C2B12356  21.271  31.158   8.406
  719POPC   C3B12357  21.156  30.926   8.131
  719POPC   C4B12358  21.195  30.912   7.751
  720POPC   NC312359  27.619  38.293   9.794
  720POPC   PO412360  27.832  38.953   9.697
  720POPC   GL112361  27.754  38.755   9.271
  720POPC   GL212362  27.529  38.482   9.321
  720POPC   C1A12363  27.536  38.715   8.866
  720POPC   D2A12364  27.324  38.740   8.455
  720POPC   C3A12365  27.601  38.669   8.090
  720POPC   C4A12366  27.424  38.771   7.701
  720POPC   C1B12367  27.286  38.244   8.999
  720POPC   C2B12368  27.271  38.193   8.545
  720POPC   C3B12369  27.199  38.361   8.133
  720POPC   C4B12370  27.338  38.257   7.730
  721POPC   NC312371  39.098  12.946   9.669
  721POPC   PO412372  39.450  12.405   9.676
  721POPC   GL112373  39.436  12.763   9.329
  721POPC   GL212374  39.171  13.046   9.177
  721POPC   C1A12375  39.569  12.840   8.904
  721POPC   D2A12376  39.520  13.077   8.513
  721POPC   C3A12377  39.376  12.867   8.121
  721POPC   C4A12378  39.274  13.082   7.743
  721POPC   C1B12379  39.044  13.238   8.763
  721POPC   C2B12380  38.984  13.190   8.294
  721POPC   C3B12381  38.837  12.869   8.002
  721POPC   C4B12382  38.459  12.819   7.729
  722POPC   NC312383  44.057  25.763   9.601
  722POPC   PO412384  43.970  26.471   9.662
  722POPC   GL112385  44.048  26.182   9.277
  722POPC   GL212386  43.774  25.963   9.210
  722POPC   C1A12387  43.970  26.201   8.804
  722POPC   D2A12388  43.679  26.117   8.439
  722POPC   C3A12389  43.756  26.333   8.049
  722POPC   C4A12390  44.017  26.212   7.759
  722POPC   C1B12391  43.991  25.698   8.884
  722POPC   C2B12392  44.127  25.822   8.450
  722POPC   C3B12393  43.957  25.800   8.051
  722POPC   C4B12394  44.200  25.715   7.691
  723POPC   NC312395   7.905  23.372   9.573
  723POPC   PO412396   7.424  23.858   9.535
  723POPC   GL112397   7.361  23.696   9.124
  723POPC   GL212398   7.512  23.413   9.239
  723POPC   C1A12399   7.310  23.799   8.697
  723POPC   D2A12400   7.573  24.089   8.475
  723POPC   C3A12401   7.554  24.127   8.033
  723POPC   C4A12402   7.311  23.865   7.768
  723POPC   C1B12403   7.650  23.280   8.859
  723POPC   C2B12404   7.420  23.336   8.523
  723POPC   C3B12405   7.439  23.507   8.126
  723POPC   C4B12406   7.481  23.374   7.712
  724POPC   NC312407  17.470  32.462   9.552
  724POPC   PO412408  17.591  31.824   9.499
  724POPC   GL112409  17.479  32.097   9.134
  724POPC   GL212410  17.333  32.427   9.068
  724POPC   C1A12411  17.453  31.949   8.708
  724POPC   D2A12412  17.760  31.743   8.389
  724POPC   C3A12413  17.793  31.930   7.983
  724POPC   C4A12414  17.421  31.991   7.761
  724POPC   C1B12415  17.608  32.418   8.689
  724POPC   C2B12416  17.399  32.246   8.305
  724POPC   C3B12417  17.219  32.414   7.962
  724POPC   C4B12418  17.625  32.507   7.818
  725POPC   NC312419  42.189  33.530   9.540
  725POPC   PO412420  42.696  33.887   9.424
  725POPC   GL112421  42.533  33.632   9.127
  725POPC   GL212422  42.148  33.635   9.066
  725POPC   C1A12423  42.459  33.796   8.712
  725POPC   D2A12424  42.700  33.929   8.351
  725POPC   C3A12425  42.552  33.725   7.987
  725POPC   C4A12426  42.366  34.010   7.696
  725POPC   C1B12427  41.985  33.475   8.691
  725POPC   C2B12428  42.112  33.532   8.257
  725POPC   C3B12429  41.970  33.694   7.855
  725POPC   C4B12430  41.829  33.440   7.505
  726POPC   NC312431  42.531  31.106   9.407
  726POPC   PO412432  42.338  31.660   9.678
  726POPC   GL112433  42.174  31.601   9.232
  726POPC   GL212434  42.220  31.305   9.079
  726POPC   C1A12435  42.073  31.718   8.782
  726POPC   D2A12436  42.146  31.854   8.337
  726POPC   C3A12437  42.008  31.578   7.983
  726POPC   C4A12438  42.151  31.465   7.498
  726POPC   C1B12439  42.539  31.502   8.832
  726POPC   C2B12440  42.697  31.515   8.419
  726POPC   C3B12441  42.523  31.571   8.037
  726POPC   C4B12442  42.646  31.575   7.628
  727POPC   NC312443   9.522  44.091   9.428
  727POPC   PO412444   8.901  43.645   9.465
  727POPC   GL112445   8.740  43.576   9.083
  727POPC   GL212446   9.102  43.535   9.019
  727POPC   C1A12447   8.694  43.769   8.679
  727POPC   D2A12448   8.846  43.739   8.250
  727POPC   C3A12449   8.804  44.108   7.965
  727POPC   C4A12450   8.626  44.257   7.577
  727POPC   C1B12451   9.208  43.737   8.665
  727POPC   C2B12452   9.474  43.969   8.432
  727POPC   C3B12453   9.305  44.024   8.036
  727POPC   C4B12454   9.085  43.663   7.807
  728POPC   NC312455  40.759  33.185   9.774
  728POPC   PO412456  41.024  32.616   9.477
  728POPC   GL112457  40.787  32.807   9.173
  728POPC   GL212458  40.597  33.111   9.159
  728POPC   C1A12459  40.722  32.800   8.769
  728POPC   D2A12460  40.784  33.098   8.479
  728POPC   C3A12461  40.811  32.940   8.123
  728POPC   C4A12462  40.789  33.083   7.733
  728POPC   C1B12463  40.416  33.306   8.773
  728POPC   C2B12464  40.483  33.480   8.327
  728POPC   C3B12465  40.344  33.244   7.938
  728POPC   C4B12466  40.407  33.266   7.444
  729POPC   NC312467  42.386   3.717   9.335
  729POPC   PO412468  43.071   3.476   9.562
  729POPC   GL112469  43.133   3.471   9.119
  729POPC   GL212470  42.829   3.601   9.120
  729POPC   C1A12471  43.338   3.610   8.722
  729POPC   D2A12472  43.529   3.837   8.338
  729POPC   C3A12473  43.460   3.646   7.962
  729POPC   C4A12474  43.231   3.652   7.606
  729POPC   C1B12475  42.840   3.814   8.761
  729POPC   C2B12476  43.015   3.848   8.371
  729POPC   C3B12477  42.927   3.679   8.009
  729POPC   C4B12478  42.660   3.844   7.718
  730POPC   NC312479  37.262  27.874   9.444
  730POPC   PO412480  37.942  27.749   9.572
  730POPC   GL112481  37.695  27.748   9.175
  730POPC   GL212482  37.418  27.474   9.177
  730POPC   C1A12483  37.836  27.574   8.773
  730POPC   D2A12484  38.093  27.463   8.407
  730POPC   C3A12485  37.911  27.522   8.011
  730POPC   C4A12486  37.741  27.527   7.610
  730POPC   C1B12487  37.419  27.256   8.784
  730POPC   C2B12488  37.585  27.337   8.366
  730POPC   C3B12489  37.381  27.444   7.964
  730POPC   C4B12490  37.256  27.342   7.528
  731POPC   NC312491  30.135  34.804   9.495
  731POPC   PO412492  29.988  34.180   9.509
  731POPC   GL112493  29.933  34.494   9.140
  731POPC   GL212494  29.897  34.869   9.031
  731POPC   C1A12495  29.761  34.441   8.757
  731POPC   D2A12496  29.842  34.605   8.388
  731POPC   C3A12497  29.807  34.327   8.085
  731POPC   C4A12498  30.017  34.230   7.737
  731POPC   C1B12499  30.191  34.854   8.713
  731POPC   C2B12500  30.226  34.928   8.266
  731POPC   C3B12501  29.979  34.805   7.906
  731POPC   C4B12502  30.334  34.862   7.628
  732POPC   NC312503  43.486  10.639   9.519
  732POPC   PO412504  43.785  10.030   9.516
  732POPC   GL112505  43.942  10.391   9.230
  732POPC   GL212506  43.698  10.622   9.070
  732POPC   C1A12507  44.137  10.576   8.836
  732POPC   D2A12508  43.929  10.600   8.407
  732POPC   C3A12509  44.083  10.639   7.988
  732POPC   C4A12510  43.858  10.585   7.594
  732POPC   C1B12511  43.738  10.928   8.751
  732POPC   C2B12512  43.513  10.919   8.368
  732POPC   C3B12513  43.624  10.899   7.926
  732POPC   C4B12514  43.432  10.949   7.510
  733POPC   NC312515   9.706  24.655   9.708
  733POPC   PO412516   9.628  25.250   9.526
  733POPC   GL112517   9.519  25.245   9.136
  733POPC   GL212518   9.750  25.448   8.999
  733POPC   C1A12519   9.453  25.082   8.760
  733POPC   D2A12520   9.725  25.270   8.450
  733POPC   C3A12521   9.651  25.278   8.010
  733POPC   C4A12522   9.534  24.958   7.729
  733POPC   C1B12523   9.407  25.602   8.746
  733POPC   C2B12524   9.313  25.621   8.303
  733POPC   C3B12525   9.451  25.735   7.878
  733POPC   C4B12526   9.720  25.575   7.570
  734POPC   NC312527  41.435  26.028   9.560
  734POPC   PO412528  41.893  25.495   9.474
  734POPC   GL112529  41.654  25.779   9.171
  734POPC   GL212530  41.650  26.183   9.136
  734POPC   C1A12531  41.583  25.833   8.738
  734POPC   D2A12532  41.833  25.913   8.371
  734POPC   C3A12533  41.689  25.907   7.958
  734POPC   C4A12534  41.817  26.143   7.612
  734POPC   C1B12535  41.425  26.318   8.767
  734POPC   C2B12536  41.382  26.138   8.326
  734POPC   C3B12537  41.481  26.359   7.936
  734POPC   C4B12538  41.346  26.287   7.502
  735POPC   NC312539  17.227  23.656   9.711
  735POPC   PO412540  17.687  24.062   9.344
  735POPC   GL112541  17.608  23.698   9.081
  735POPC   GL212542  17.322  23.459   9.215
  735POPC   C1A12543  17.539  23.882   8.671
  735POPC   D2A12544  17.745  23.871   8.308
  735POPC   C3A12545  17.636  24.074   7.960
  735POPC   C4A12546  17.574  23.827   7.625
  735POPC   C1B12547  17.209  23.490   8.791
  735POPC   C2B12548  17.362  23.515   8.384
  735POPC   C3B12549  17.285  23.615   8.007
  735POPC   C4B12550  17.287  23.368   7.697
  736POPC   NC312551  11.753  17.359   9.614
  736POPC   PO412552  12.253  17.843   9.708
  736POPC   GL112553  12.206  17.709   9.257
  736POPC   GL212554  11.864  17.682   9.214
  736POPC   C1A12555  12.292  17.480   8.846
  736POPC   D2A12556  12.124  17.595   8.409
  736POPC   C3A12557  12.280  17.450   8.009
  736POPC   C4A12558  12.099  17.311   7.607
  736POPC   C1B12559  11.791  17.532   8.809
  736POPC   C2B12560  11.613  17.472   8.408
  736POPC   C3B12561  11.729  17.677   8.014
  736POPC   C4B12562  11.822  17.733   7.558
  737POPC   NC312563  21.820  34.916   9.626
  737POPC   PO412564  22.240  35.491   9.569
  737POPC   GL112565  22.043  35.289   9.190
  737POPC   GL212566  21.724  35.321   9.314
  737POPC   C1A12567  22.048  35.227   8.717
  737POPC   D2A12568  22.038  35.495   8.336
  737POPC   C3A12569  22.129  35.351   7.897
  737POPC   C4A12570  21.946  35.675   7.612
  737POPC   C1B12571  21.617  35.069   8.960
  737POPC   C2B12572  21.700  34.877   8.555
  737POPC   C3B12573  21.855  35.020   8.184
  737POPC   C4B12574  21.778  35.015   7.749
  738POPC   NC312575  16.396  11.057   9.589
  738POPC   PO412576  16.735  11.599   9.444
  738POPC   GL112577  16.815  11.302   9.154
  738POPC   GL212578  16.653  11.000   9.163
  738POPC   C1A12579  16.699  11.380   8.762
  738POPC   D2A12580  16.777  11.579   8.400
  738POPC   C3A12581  16.672  11.552   7.978
  738POPC   C4A12582  16.966  11.527   7.627
  738POPC   C1B12583  16.849  10.867   8.826
  738POPC   C2B12584  16.871  11.028   8.445
  738POPC   C3B12585  16.781  10.939   8.067
  738POPC   C4B12586  16.709  11.101   7.720
  739POPC   NC312587  42.133  30.218   9.551
  739POPC   PO412588  42.608  29.741   9.591
  739POPC   GL112589  42.435  29.680   9.185
  739POPC   GL212590  42.352  30.012   9.107
  739POPC   C1A12591  42.506  29.653   8.757
  739POPC   D2A12592  42.218  29.829   8.458
  739POPC   C3A12593  42.360  29.918   8.059
  739POPC   C4A12594  42.481  30.065   7.641
  739POPC   C1B12595  42.018  30.129   8.836
  739POPC   C2B12596  41.819  30.182   8.430
  739POPC   C3B12597  41.966  30.219   7.988
  739POPC   C4B12598  42.021  30.265   7.537
  740POPC   NC312599   4.186  37.151   9.578
  740POPC   PO412600   4.717  36.899   9.572
  740POPC   GL112601   4.417  36.926   9.170
  740POPC   GL212602   4.138  37.190   9.090
  740POPC   C1A12603   4.407  36.706   8.774
  740POPC   D2A12604   4.309  36.524   8.346
  740POPC   C3A12605   4.232  36.766   7.960
  740POPC   C4A12606   4.502  36.977   7.696
  740POPC   C1B12607   3.990  36.983   8.736
  740POPC   C2B12608   3.888  36.837   8.340
  740POPC   C3B12609   3.954  37.197   8.091
  740POPC   C4B12610   4.094  37.266   7.704
  741POPC   NC312611   9.681  44.537   9.739
  741POPC   PO412612   9.846  43.844   9.681
  741POPC   GL112613   9.920  43.863   9.210
  741POPC   GL212614   9.604  43.744   9.043
  741POPC   C1A12615  10.083  43.902   8.799
  741POPC   D2A12616   9.962  43.803   8.381
  741POPC   C3A12617   9.819  44.101   8.072
  741POPC   C4A12618   9.611  44.228   7.671
  741POPC   C1B12619   9.516  43.344   8.817
  741POPC   C2B12620   9.414  43.302   8.387
  741POPC   C3B12621   9.584  43.581   8.080
  741POPC   C4B12622   9.568  43.730   7.663
  742POPC   NC312623  28.763   1.261   9.311
  742POPC   PO412624  29.334   1.124   9.765
  742POPC   GL112625  29.266   1.017   9.300
  742POPC   GL212626  28.984   0.818   9.176
  742POPC   C1A12627  29.301   1.196   8.866
  742POPC   D2A12628  29.127   1.283   8.442
  742POPC   C3A12629  29.416   1.203   8.092
  742POPC   C4A12630  29.610   0.921   7.786
  742POPC   C1B12631  28.859   0.922   8.746
  742POPC   C2B12632  28.748   0.964   8.312
  742POPC   C3B12633  28.897   1.176   7.951
  742POPC   C4B12634  28.849   1.135   7.475
  743POPC   NC312635   0.925  38.753   9.925
  743POPC   PO412636   1.174  38.306   9.498
  743POPC   GL112637   1.335  38.380   9.111
  743POPC   GL212638   1.227  38.697   9.154
  743POPC   C1A12639   1.177  38.323   8.685
  743POPC   D2A12640   1.028  38.602   8.339
  743POPC   C3A12641   1.007  38.340   7.959
  743POPC   C4A12642   1.149  38.480   7.540
  743POPC   C1B12643   1.326  38.799   8.741
  743POPC   C2B12644   1.541  38.673   8.366
  743POPC   C3B12645   1.350  38.707   7.961
  743POPC   C4B12646   1.460  38.871   7.578
  744POPC   NC312647  20.186  20.738   9.547
  744POPC   PO412648  19.744  20.280   9.477
  744POPC   GL112649  19.689  20.559   9.140
  744POPC   GL212650  19.947  20.793   9.116
  744POPC   C1A12651  19.770  20.518   8.700
  744POPC   D2A12652  19.713  20.330   8.310
  744POPC   C3A12653  19.726  20.640   8.012
  744POPC   C4A12654  19.454  20.871   7.767
  744POPC   C1B12655  20.211  20.755   8.759
  744POPC   C2B12656  20.184  20.554   8.359
  744POPC   C3B12657  20.256  20.709   7.960
  744POPC   C4B12658  20.323  20.465   7.554
  745POPC   NC312659  44.329  36.152   9.533
  745POPC   PO412660  44.916  35.776   9.586
  745POPC   GL112661  44.639  35.878   9.234
  745POPC   GL212662  44.658  36.257   9.156
  745POPC   C1A12663  44.713  35.868   8.815
  745POPC   D2A12664  44.662  36.058   8.444
  745POPC   C3A12665  44.830  35.876   8.085
  745POPC   C4A12666  44.906  36.129   7.746
  745POPC   C1B12667  44.493  36.477   8.798
  745POPC   C2B12668  44.367  36.454   8.380
  745POPC   C3B12669  44.500  36.561   7.999
  745POPC   C4B12670  44.220  36.657   7.702
  746POPC   NC312671   5.837  31.586   9.619
  746POPC   PO412672   5.526  32.053   9.224
  746POPC   GL112673   5.821  31.714   9.106
  746POPC   GL212674   6.145  31.592   9.176
  746POPC   C1A12675   5.769  31.444   8.735
  746POPC   D2A12676   5.552  31.376   8.326
  746POPC   C3A12677   5.639  31.484   7.884
  746POPC   C4A12678   5.836  31.235   7.531
  746POPC   C1B12679   6.237  31.280   8.821
  746POPC   C2B12680   6.067  31.175   8.400
  746POPC   C3B12681   6.129  31.355   7.987
  746POPC   C4B12682   6.520  31.508   7.794
  747POPC   NC312683  38.941   3.107   9.325
  747POPC   PO412684  39.372   3.589   9.379
  747POPC   GL112685  39.193   3.634   9.004
  747POPC   GL212686  38.853   3.649   9.043
  747POPC   C1A12687  39.274   3.596   8.576
  747POPC   D2A12688  39.555   3.709   8.263
  747POPC   C3A12689  39.336   3.530   7.927
  747POPC   C4A12690  39.454   3.311   7.537
  747POPC   C1B12691  38.850   3.878   8.659
  747POPC   C2B12692  38.900   3.811   8.215
  747POPC   C3B12693  38.898   3.849   7.768
  747POPC   C4B12694  39.031   3.556   7.476
  748POPC   NC312695  32.050  29.645   9.346
  748POPC   PO412696  32.178  30.230   9.657
  748POPC   GL112697  32.256  30.063   9.188
  748POPC   GL212698  32.492  29.819   9.116
  748POPC   C1A12699  32.085  29.813   8.744
  748POPC   D2A12700  31.863  29.832   8.343
  748POPC   C3A12701  32.125  29.764   7.971
  748POPC   C4A12702  32.015  29.858   7.513
  748POPC   C1B12703  32.479  30.116   8.737
  748POPC   C2B12704  32.429  29.971   8.357
  748POPC   C3B12705  32.567  30.102   7.995
  748POPC   C4B12706  32.492  29.883   7.649
  749POPC   NC312707  11.859   5.284   9.418
  749POPC   PO412708  12.439   5.040   9.463
  749POPC   GL112709  12.241   4.883   9.125
  749POPC   GL212710  11.933   4.836   9.210
  749POPC   C1A12711  12.095   5.112   8.777
  749POPC   D2A12712  12.118   5.257   8.348
  749POPC   C3A12713  12.230   4.987   7.976
  749POPC   C4A12714  12.185   4.976   7.503
  749POPC   C1B12715  11.601   4.971   8.906
  749POPC   C2B12716  11.545   4.812   8.503
  749POPC   C3B12717  11.756   4.803   8.108
  749POPC   C4B12718  11.759   5.162   7.819
  750POPC   NC312719  16.912  37.373   9.509
  750POPC   PO412720  16.488  37.914   9.586
  750POPC   GL112721  16.538  37.588   9.223
  750POPC   GL212722  16.887  37.622   9.069
  750POPC   C1A12723  16.531  37.404   8.783
  750POPC   D2A12724  16.847  37.493   8.461
  750POPC   C3A12725  16.853  37.379   7.998
  750POPC   C4A12726  16.592  37.201   7.654
  750POPC   C1B12727  17.006  37.943   8.792
  750POPC   C2B12728  16.780  38.015   8.464
  750POPC   C3B12729  16.711  37.854   8.118
  750POPC   C4B12730  17.070  37.839   7.862
  751POPC   NC312731  28.612  10.899   9.544
  751POPC   PO412732  28.200  11.415   9.727
  751POPC   GL112733  28.245  11.381   9.246
  751POPC   GL212734  28.155  11.077   9.257
  751POPC   C1A12735  28.529  11.343   8.842
  751POPC   D2A12736  28.487  11.630   8.496
  751POPC   C3A12737  28.432  11.451   8.082
  751POPC   C4A12738  28.477  11.473   7.652
  751POPC   C1B12739  28.055  11.162   8.814
  751POPC   C2B12740  28.318  11.010   8.478
  751POPC   C3B12741  28.464  10.939   8.059
  751POPC   C4B12742  28.237  11.026   7.698
  752POPC   NC312743  25.039  13.180   9.375
  752POPC   PO412744  25.518  12.728   9.512
  752POPC   GL112745  25.298  12.796   9.138
  752POPC   GL212746  24.936  12.716   9.178
  752POPC   C1A12747  25.238  12.895   8.708
  752POPC   D2A12748  25.353  12.724   8.316
  752POPC   C3A12749  25.189  12.875   7.951
  752POPC   C4A12750  25.539  12.823   7.671
  752POPC   C1B12751  25.050  12.434   8.861
  752POPC   C2B12752  25.133  12.285   8.466
  752POPC   C3B12753  25.111  12.329   8.051
  752POPC   C4B12754  25.128  12.466   7.656
  753POPC   NC312755  40.083  38.764   9.613
  753POPC   PO412756  40.201  39.471   9.492
  753POPC   GL112757  40.026  39.309   9.141
  753POPC   GL212758  39.815  39.052   9.198
  753POPC   C1A12759  39.977  39.306   8.732
  753POPC   D2A12760  39.661  39.320   8.486
  753POPC   C3A12761  39.868  39.317   8.128
  753POPC   C4A12762  39.875  39.310   7.715
  753POPC   C1B12763  39.824  38.820   8.796
  753POPC   C2B12764  39.928  38.848   8.359
  753POPC   C3B12765  39.795  38.804   7.921
  753POPC   C4B12766  39.998  38.844   7.512
  754POPC   NC312767   5.783  10.337   9.320
  754POPC   PO412768   6.016   9.872   9.773
  754POPC   GL112769   6.025   9.900   9.275
  754POPC   GL212770   6.230   9.683   9.056
  754POPC   C1A12771   5.799   9.849   8.850
  754POPC   D2A12772   5.960   9.748   8.458
  754POPC   C3A12773   5.666   9.728   8.167
  754POPC   C4A12774   5.702   9.711   7.730
  754POPC   C1B12775   5.986   9.353   8.770
  754POPC   C2B12776   5.816   9.248   8.396
  754POPC   C3B12777   6.027   9.393   8.047
  754POPC   C4B12778   6.104   9.270   7.663
  755POPC   NC312779   9.925  17.244   9.650
  755POPC   PO412780   9.423  16.885   9.397
  755POPC   GL112781   9.713  16.795   9.108
  755POPC   GL212782   9.915  17.140   9.141
  755POPC   C1A12783   9.743  16.526   8.728
  755POPC   D2A12784   9.819  16.337   8.322
  755POPC   C3A12785   9.668  16.524   7.948
  755POPC   C4A12786   9.970  16.640   7.635
  755POPC   C1B12787   9.896  17.037   8.705
  755POPC   C2B12788   9.710  16.869   8.345
  755POPC   C3B12789   9.780  17.018   7.955
  755POPC   C4B12790   9.507  17.306   7.821
  756POPC   NC312791  40.151  28.520   9.758
  756POPC   PO412792  40.312  27.869   9.477
  756POPC   GL112793  40.140  28.093   9.106
  756POPC   GL212794  39.777  28.067   9.112
  756POPC   C1A12795  40.254  28.342   8.730
  756POPC   D2A12796  40.168  28.622   8.416
  756POPC   C3A12797  40.149  28.307   8.144
  756POPC   C4A12798  40.212  28.351   7.733
  756POPC   C1B12799  39.683  28.433   8.819
  756POPC   C2B12800  39.646  28.686   8.441
  756POPC   C3B12801  39.747  28.597   8.017
  756POPC   C4B12802  39.782  28.127   7.856
  757POPC   NC312803  11.598  40.823  10.160
  757POPC   PO412804  11.193  40.959   9.604
  757POPC   GL112805  11.354  40.826   9.212
  757POPC   GL212806  11.676  40.967   9.171
  757POPC   C1A12807  11.165  40.853   8.799
  757POPC   D2A12808  11.288  40.775   8.382
  757POPC   C3A12809  11.132  40.843   7.963
  757POPC   C4A12810  10.984  40.564   7.594
  757POPC   C1B12811  11.533  41.202   8.798
  757POPC   C2B12812  11.480  41.264   8.336
  757POPC   C3B12813  11.509  41.238   7.881
  757POPC   C4B12814  11.784  41.021   7.615
  758POPC   NC312815  21.822   9.693   9.721
  758POPC   PO412816  21.198   9.347   9.651
  758POPC   GL112817  21.090   9.499   9.195
  758POPC   GL212818  21.348   9.797   9.095
  758POPC   C1A12819  21.044   9.637   8.743
  758POPC   D2A12820  21.333   9.558   8.432
  758POPC   C3A12821  21.161   9.610   8.027
  758POPC   C4A12822  21.202   9.803   7.645
  758POPC   C1B12823  21.649  10.009   8.820
  758POPC   C2B12824  21.711  10.170   8.414
  758POPC   C3B12825  21.613  10.052   7.996
  758POPC   C4B12826  21.832   9.968   7.669
  759POPC   NC312827  25.538  36.736   9.454
  759POPC   PO412828  25.091  37.212   9.471
  759POPC   GL112829  25.235  37.003   9.125
  759POPC   GL212830  25.529  37.085   9.057
  759POPC   C1A12831  25.303  36.726   8.759
  759POPC   D2A12832  25.141  36.681   8.353
  759POPC   C3A12833  25.428  36.681   8.017
  759POPC   C4A12834  25.350  36.780   7.572
  759POPC   C1B12835  25.404  37.236   8.677
  759POPC   C2B12836  25.539  37.121   8.264
  759POPC   C3B12837  25.427  37.197   7.843
  759POPC   C4B12838  25.625  37.228   7.427
  760POPC   NC312839  43.137  16.268   9.464
  760POPC   PO412840  43.537  15.697   9.305
  760POPC   GL112841  43.395  16.020   9.093
  760POPC   GL212842  43.519  16.337   9.164
  760POPC   C1A12843  43.014  16.040   8.856
  760POPC   D2A12844  42.842  15.840   8.492
  760POPC   C3A12845  43.032  15.875   8.104
  760POPC   C4A12846  43.327  15.655   7.837
  760POPC   C1B12847  43.366  16.442   8.798
  760POPC   C2B12848  43.244  16.264   8.432
  760POPC   C3B12849  43.094  16.422   8.070
  760POPC   C4B12850  43.235  16.172   7.744
  761POPC   NC312851  10.092   1.934   9.466
  761POPC   PO412852  10.704   2.216   9.502
  761POPC   GL112853  10.601   1.885   9.187
  761POPC   GL212854  10.295   1.726   9.046
  761POPC   C1A12855  10.644   2.045   8.785
  761POPC   D2A12856  10.511   2.181   8.394
  761POPC   C3A12857  10.751   2.039   8.048
  761POPC   C4A12858  10.635   2.155   7.642
  761POPC   C1B12859  10.124   1.954   8.739
  761POPC   C2B12860  10.174   1.795   8.360
  761POPC   C3B12861  10.251   1.926   7.945
  761POPC   C4B12862  10.428   1.685   7.584
  762POPC   NC312863  19.918  44.999   9.863
  762POPC   PO412864  19.611   0.411   9.494
  762POPC   GL112865  19.819   0.482   9.107
  762POPC   GL212866  20.175   0.453   9.215
  762POPC   C1A12867  19.606   0.501   8.705
  762POPC   D2A12868  19.422   0.228   8.403
  762POPC   C3A12869  19.596   0.314   8.034
  762POPC   C4A12870  19.504   0.223   7.635
  762POPC   C1B12871  20.133   0.183   8.843
  762POPC   C2B12872  19.944   0.192   8.447
  762POPC   C3B12873  20.076   0.169   8.042
  762POPC   C4B12874  19.993   0.395   7.676
  763POPC   NC312875   7.817  39.939   9.509
  763POPC   PO412876   7.211  39.804   9.398
  763POPC   GL112877   7.382  40.098   9.133
  763POPC   GL212878   7.710  40.138   9.048
  763POPC   C1A12879   7.319  40.260   8.717
  763POPC   D2A12880   7.373  40.067   8.312
  763POPC   C3A12881   7.078  40.019   7.959
  763POPC   C4A12882   7.123  39.832   7.530
  763POPC   C1B12883   7.785  40.055   8.629
  763POPC   C2B12884   7.824  40.325   8.259
  763POPC   C3B12885   7.496  40.391   7.948
  763POPC   C4B12886   7.538  40.056   7.675
  764POPC   NC312887  24.104   8.680   9.567
  764POPC   PO412888  24.294   9.275   9.483
  764POPC   GL112889  24.398   9.087   9.124
  764POPC   GL212890  24.609   8.818   9.174
  764POPC   C1A12891  24.636   9.128   8.750
  764POPC   D2A12892  24.472   9.083   8.350
  764POPC   C3A12893  24.524   9.420   8.088
  764POPC   C4A12894  24.477   9.217   7.710
  764POPC   C1B12895  24.545   8.634   8.748
  764POPC   C2B12896  24.254   8.595   8.371
  764POPC   C3B12897  24.238   8.745   7.916
  764POPC   C4B12898  24.220   8.564   7.471
  765POPC   NC312899  36.869   8.929   9.685
  765POPC   PO412900  37.438   9.301   9.810
  765POPC   GL112901  37.213   9.065   9.337
  765POPC   GL212902  37.156   8.697   9.280
  765POPC   C1A12903  36.806   8.927   8.992
  765POPC   D2A12904  36.818   8.833   8.503
  765POPC   C3A12905  36.588   8.841   8.061
  765POPC   C4A12906  36.674   9.193   7.744
  765POPC   C1B12907  37.275   8.878   8.822
  765POPC   C2B12908  37.272   9.036   8.357
  765POPC   C3B12909  37.140   9.081   7.920
  765POPC   C4B12910  37.131   9.453   7.598
  766POPC   NC312911  34.764  40.976   9.963
  766POPC   PO412912  34.285  40.592   9.597
  766POPC   GL112913  34.473  40.740   9.231
  766POPC   GL212914  34.668  41.045   9.340
  766POPC   C1A12915  34.651  40.593   8.843
  766POPC   D2A12916  34.791  40.829   8.505
  766POPC   C3A12917  34.891  40.903   8.082
  766POPC   C4A12918  34.691  40.877   7.710
  766POPC   C1B12919  34.571  41.095   8.890
  766POPC   C2B12920  34.527  41.248   8.453
  766POPC   C3B12921  34.385  41.053   8.083
  766POPC   C4B12922  34.301  41.208   7.676
  767POPC   NC312923   6.686  28.745   9.478
  767POPC   PO412924   7.120  28.178   9.650
  767POPC   GL112925   6.742  28.240   9.308
  767POPC   GL212926   6.370  28.414   9.255
  767POPC   C1A12927   6.589  28.129   8.898
  767POPC   D2A12928   6.699  28.044   8.481
  767POPC   C3A12929   6.603  28.277   8.141
  767POPC   C4A12930   6.501  28.287   7.703
  767POPC   C1B12931   6.489  28.644   8.859
  767POPC   C2B12932   6.522  28.775   8.426
  767POPC   C3B12933   6.304  28.678   8.059
  767POPC   C4B12934   6.391  28.762   7.634
  768POPC   NC312935  14.166  39.793   9.413
  768POPC   PO412936  14.692  40.188   9.671
  768POPC   GL112937  14.642  39.948   9.269
  768POPC   GL212938  14.492  40.205   9.057
  768POPC   C1A12939  14.561  39.745   8.836
  768POPC   D2A12940  14.520  39.961   8.413
  768POPC   C3A12941  14.377  39.752   8.025
  768POPC   C4A12942  14.529  39.803   7.627
  768POPC   C1B12943  14.148  40.031   8.780
  768POPC   C2B12944  14.033  40.137   8.375
  768POPC   C3B12945  13.927  39.967   8.019
  768POPC   C4B12946  14.096  40.031   7.631
  769POPC   NC312947  11.224  39.574   9.503
  769POPC   PO412948  11.681  39.161   9.297
  769POPC   GL112949  11.371  39.323   9.096
  769POPC   GL212950  11.561  39.236   8.804
  769POPC   C1A12951  11.160  39.529   8.788
  769POPC   D2A12952  11.361  39.545   8.371
  769POPC   C3A12953  11.314  39.305   8.006
  769POPC   C4A12954  10.978  39.195   7.724
  769POPC   C1B12955  11.155  39.031   8.712
  769POPC   C2B12956  11.018  39.057   8.323
  769POPC   C3B12957  11.186  38.809   7.988
  769POPC   C4B12958  11.279  38.787   7.566
  770POPC   NC312959  30.452  36.261   9.421
  770POPC   PO412960  31.086  35.850   9.517
  770POPC   GL112961  30.796  35.955   9.174
  770POPC   GL212962  30.536  35.731   9.248
  770POPC   C1A12963  30.723  36.145   8.741
  770POPC   D2A12964  30.821  35.972   8.313
  770POPC   C3A12965  30.770  36.244   7.915
  770POPC   C4A12966  30.730  36.473   7.485
  770POPC   C1B12967  30.512  35.681   8.826
  770POPC   C2B12968  30.297  35.881   8.507
  770POPC   C3B12969  30.351  36.128   8.166
  770POPC   C4B12970  30.307  36.069   7.741
  771POPC   NC312971  36.235  37.837   9.643
  771POPC   PO412972  36.664  37.358   9.504
  771POPC   GL112973  36.375  37.638   9.220
  771POPC   GL212974  36.044  37.540   9.272
  771POPC   C1A12975  36.451  37.834   8.814
  771POPC   D2A12976  36.672  37.593   8.480
  771POPC   C3A12977  36.460  37.659   8.115
  771POPC   C4A12978  36.279  37.582   7.721
  771POPC   C1B12979  35.953  37.711   8.887
  771POPC   C2B12980  35.862  37.621   8.477
  771POPC   C3B12981  35.947  37.771   8.085
  771POPC   C4B12982  35.783  37.617   7.691
  772POPC   NC312983  29.292  16.576   9.424
  772POPC   PO412984  28.957  17.144   9.635
  772POPC   GL112985  29.116  17.092   9.170
  772POPC   GL212986  29.128  16.782   8.986
  772POPC   C1A12987  29.332  17.202   8.785
  772POPC   D2A12988  29.440  16.914   8.479
  772POPC   C3A12989  29.573  16.971   8.078
  772POPC   C4A12990  29.402  16.620   7.842
  772POPC   C1B12991  29.380  16.472   8.739
  772POPC   C2B12992  29.292  16.373   8.311
  772POPC   C3B12993  28.944  16.483   8.095
  772POPC   C4B12994  28.653  16.375   7.793
  773POPC   NC312995   3.427  41.733   9.784
  773POPC   PO412996   3.684  41.385   9.277
  773POPC   GL112997   3.601  41.661   9.015
  773POPC   GL212998   3.920  41.911   8.976
  773POPC   C1A12999   3.313  41.588   8.676
  773POPC   D2A13000   3.282  41.303   8.333
  773POPC   C3A13001   3.220  41.554   8.028
  773POPC   C4A13002   3.427  41.771   7.720
  773POPC   C1B13003   4.025  41.508   8.775
  773POPC   C2B13004   3.768  41.420   8.464
  773POPC   C3B13005   3.679  41.744   8.186
  773POPC   C4B13006   3.926  41.730   7.813
  774POPC   NC313007  22.426  13.483   9.523
  774POPC   PO413008  21.907  13.188   9.501
  774POPC   GL113009  22.003  13.557   9.204
  774POPC   GL213010  22.196  13.895   9.222
  774POPC   C1A13011  22.220  13.629   8.802
  774POPC   D2A13012  22.506  13.677   8.465
  774POPC   C3A13013  22.443  13.394   8.147
  774POPC   C4A13014  22.245  13.403   7.743
  774POPC   C1B13015  21.925  14.051   8.835
  774POPC   C2B13016  21.960  14.090   8.401
  774POPC   C3B13017  22.112  13.835   8.090
  774POPC   C4B13018  21.949  13.802   7.701
  775POPC   NC313019  14.716  17.629   9.282
  775POPC   PO413020  15.329  17.697   9.527
  775POPC   GL113021  15.191  17.549   9.135
  775POPC   GL213022  14.984  17.248   9.073
  775POPC   C1A13023  15.068  17.621   8.716
  775POPC   D2A13024  15.441  17.690   8.501
  775POPC   C3A13025  15.355  17.665   8.096
  775POPC   C4A13026  15.525  17.577   7.721
  775POPC   C1B13027  15.311  17.175   8.759
  775POPC   C2B13028  15.174  17.245   8.357
  775POPC   C3B13029  15.179  17.202   7.929
  775POPC   C4B13030  15.003  17.575   7.732
  776POPC   NC313031   8.976  13.994   9.310
  776POPC   PO413032   8.801  14.659   9.506
  776POPC   GL113033   9.021  14.603   9.087
  776POPC   GL213034   9.205  14.290   8.943
  776POPC   C1A13035   9.006  14.628   8.616
  776POPC   D2A13036   9.110  14.374   8.259
  776POPC   C3A13037   9.237  14.550   7.872
  776POPC   C4A13038   9.029  14.575   7.473
  776POPC   C1B13039   8.828  14.157   8.669
  776POPC   C2B13040   8.617  14.187   8.245
  776POPC   C3B13041   8.845  14.242   7.835
  776POPC   C4B13042   9.048  13.943   7.555
  777POPC   NC313043  22.290   7.162   9.624
  777POPC   PO413044  22.189   7.795   9.599
  777POPC   GL113045  22.257   7.511   9.242
  777POPC   GL213046  21.968   7.282   9.235
  777POPC   C1A13047  22.305   7.588   8.804
  777POPC   D2A13048  22.241   7.381   8.412
  777POPC   C3A13049  22.141   7.650   8.097
  777POPC   C4A13050  22.295   7.674   7.700
  777POPC   C1B13051  21.903   7.229   8.808
  777POPC   C2B13052  21.790   7.129   8.393
  777POPC   C3B13053  21.964   7.178   7.995
  777POPC   C4B13054  21.680   7.120   7.690
  778POPC   NC313055  31.619  19.666   9.915
  778POPC   PO413056  31.139  19.877   9.487
  778POPC   GL113057  31.206  19.707   9.098
  778POPC   GL213058  31.279  20.063   9.011
  778POPC   C1A13059  31.525  19.469   8.856
  778POPC   D2A13060  31.790  19.567   8.498
  778POPC   C3A13061  31.524  19.636   8.135
  778POPC   C4A13062  31.683  19.821   7.770
  778POPC   C1B13063  31.348  19.866   8.609
  778POPC   C2B13064  31.145  19.998   8.268
  778POPC   C3B13065  31.272  20.095   7.891
  778POPC   C4B13066  31.442  20.171   7.480
  779POPC   NC313067  20.380  25.491   9.844
  779POPC   PO413068  20.845  25.088   9.497
  779POPC   GL113069  20.740  25.235   9.131
  779POPC   GL213070  20.903  25.600   9.172
  779POPC   C1A13071  20.457  25.144   8.771
  779POPC   D2A13072  20.309  25.338   8.369
  779POPC   C3A13073  20.529  25.241   7.978
  779POPC   C4A13074  20.617  25.002   7.618
  779POPC   C1B13075  20.826  25.520   8.723
  779POPC   C2B13076  20.891  25.316   8.348
  779POPC   C3B13077  20.972  25.503   7.961
  779POPC   C4B13078  20.866  25.429   7.568
  780POPC   NC313079   1.427   6.981   9.468
  780POPC   PO413080   1.147   6.370   9.508
  780POPC   GL113081   1.360   6.413   9.162
  780POPC   GL213082   1.211   6.709   9.061
  780POPC   C1A13083   1.444   6.344   8.739
  780POPC   D2A13084   1.236   6.289   8.337
  780POPC   C3A13085   1.255   6.676   8.118
  780POPC   C4A13086   1.395   6.771   7.724
  780POPC   C1B13087   0.941   6.484   8.737
  780POPC   C2B13088   0.725   6.427   8.332
  780POPC   C3B13089   0.854   6.443   7.895
  780POPC   C4B13090   0.857   6.723   7.563
  781POPC   NC313091   8.405  27.951   9.327
  781POPC   PO413092   8.048  28.283   9.805
  781POPC   GL113093   8.000  28.372   9.306
  781POPC   GL213094   8.330  28.395   9.110
  781POPC   C1A13095   7.948  28.347   8.818
  781POPC   D2A13096   8.173  28.417   8.427
  781POPC   C3A13097   8.082  28.273   8.010
  781POPC   C4A13098   8.051  28.552   7.672
  781POPC   C1B13099   8.397  28.057   8.704
  781POPC   C2B13100   8.533  28.129   8.229
  781POPC   C3B13101   8.551  28.222   7.741
  781POPC   C4B13102   8.638  28.131   7.243
  782POPC   NC313103  24.775  10.632   9.564
  782POPC   PO413104  24.098  10.685   9.522
  782POPC   GL113105  24.393  10.557   9.190
  782POPC   GL213106  24.585  10.216   9.233
  782POPC   C1A13107  24.566  10.686   8.766
  782POPC   D2A13108  24.726  10.795   8.331
  782POPC   C3A13109  24.454  10.868   7.945
  782POPC   C4A13110  24.513  10.950   7.499
  782POPC   C1B13111  24.340  10.216   8.816
  782POPC   C2B13112  24.484  10.330   8.390
  782POPC   C3B13113  24.368  10.252   7.969
  782POPC   C4B13114  24.380  10.467   7.555
  783POPC   NC313115  25.984   9.932   9.863
  783POPC   PO413116  26.621   9.868   9.616
  783POPC   GL113117  26.292   9.649   9.286
  783POPC   GL213118  25.924   9.844   9.215
  783POPC   C1A13119  26.196   9.684   8.827
  783POPC   D2A13120  26.110   9.840   8.403
  783POPC   C3A13121  26.296   9.696   8.035
  783POPC   C4A13122  26.059   9.593   7.675
  783POPC   C1B13123  25.762   9.967   8.789
  783POPC   C2B13124  25.639  10.062   8.365
  783POPC   C3B13125  25.739   9.981   7.910
  783POPC   C4B13126  25.694   9.915   7.427
  784POPC   NC313127  22.325  26.424   9.567
  784POPC   PO413128  22.050  27.056   9.320
  784POPC   GL113129  22.318  26.756   9.193
  784POPC   GL213130  22.571  26.966   9.311
  784POPC   C1A13131  22.285  26.496   8.830
  784POPC   D2A13132  21.895  26.409   8.535
  784POPC   C3A13133  21.911  26.539   8.078
  784POPC   C4A13134  22.099  26.858   7.804
  784POPC   C1B13135  22.631  26.961   8.865
  784POPC   C2B13136  22.549  26.776   8.466
  784POPC   C3B13137  22.590  26.799   8.019
  784POPC   C4B13138  22.530  27.104   7.703
  785POPC   NC313139  21.761  34.222   9.386
  785POPC   PO413140  21.845  33.522   9.456
  785POPC   GL113141  22.112  33.660   9.125
  785POPC   GL213142  22.172  34.022   9.157
  785POPC   C1A13143  22.302  33.779   8.729
  785POPC   D2A13144  22.502  33.824   8.348
  785POPC   C3A13145  22.201  33.731   8.036
  785POPC   C4A13146  22.274  33.521   7.672
  785POPC   C1B13147  22.082  34.249   8.756
  785POPC   C2B13148  21.999  34.066   8.367
  785POPC   C3B13149  21.842  34.112   7.953
  785POPC   C4B13150  22.055  34.028   7.582
  786POPC   NC313151  25.976  25.497   9.435
  786POPC   PO413152  26.440  24.989   9.578
  786POPC   GL113153  26.313  25.178   9.196
  786POPC   GL213154  26.301  25.517   9.036
  786POPC   C1A13155  26.106  25.025   8.839
  786POPC   D2A13156  26.289  25.036   8.424
  786POPC   C3A13157  26.049  25.160   8.105
  786POPC   C4A13158  25.787  25.235   7.743
  786POPC   C1B13159  25.972  25.479   8.702
  786POPC   C2B13160  25.783  25.553   8.267
  786POPC   C3B13161  26.074  25.630   7.892
  786POPC   C4B13162  26.416  25.890   7.755
  787POPC   NC313163  20.290  32.009   9.422
  787POPC   PO413164  19.678  32.306   9.481
  787POPC   GL113165  19.874  32.198   9.123
  787POPC   GL213166  20.144  32.454   9.144
  787POPC   C1A13167  19.671  32.103   8.713
  787POPC   D2A13168  19.416  32.354   8.401
  787POPC   C3A13169  19.410  32.267   7.942
  787POPC   C4A13170  19.603  32.168   7.495
  787POPC   C1B13171  20.009  32.466   8.716
  787POPC   C2B13172  20.078  32.198   8.370
  787POPC   C3B13173  19.928  32.249   7.953
  787POPC   C4B13174  19.722  32.591   7.745
  788POPC   NC313175   6.251  41.372   9.572
  788POPC   PO413176   5.644  41.687   9.678
  788POPC   GL113177   5.741  41.532   9.197
  788POPC   GL213178   5.990  41.248   9.139
  788POPC   C1A13179   5.868  41.811   8.763
  788POPC   D2A13180   6.135  41.928   8.376
  788POPC   C3A13181   5.989  41.844   7.928
  788POPC   C4A13182   5.649  41.605   7.727
  788POPC   C1B13183   5.788  41.323   8.735
  788POPC   C2B13184   5.763  41.532   8.335
  788POPC   C3B13185   5.927  41.323   8.017
  788POPC   C4B13186   6.101  41.415   7.618
  789POPC   NC313187  11.868   8.816   9.300
  789POPC   PO413188  12.319   9.162   9.296
  789POPC   GL113189  12.199   8.974   8.936
  789POPC   GL213190  11.880   9.141   8.886
  789POPC   C1A13191  11.983   8.673   8.637
  789POPC   D2A13192  11.829   8.699   8.207
  789POPC   C3A13193  12.136   8.693   7.868
  789POPC   C4A13194  12.394   9.066   7.729
  789POPC   C1B13195  12.134   9.135   8.477
  789POPC   C2B13196  12.279   9.320   8.146
  789POPC   C3B13197  11.944   9.163   7.942
  789POPC   C4B13198  11.883   9.041   7.539
  790POPC   NC313199  33.328   5.693   9.508
  790POPC   PO413200  33.845   5.912   9.757
  790POPC   GL113201  33.756   5.848   9.283
  790POPC   GL213202  34.024   5.741   9.062
  790POPC   C1A13203  33.552   5.749   8.863
  790POPC   D2A13204  33.775   5.868   8.472
  790POPC   C3A13205  33.562   5.985   8.072
  790POPC   C4A13206  33.747   5.918   7.631
  790POPC   C1B13207  34.219   6.051   8.820
  790POPC   C2B13208  34.109   6.252   8.454
  790POPC   C3B13209  34.062   6.092   8.078
  790POPC   C4B13210  34.233   6.159   7.723
  791POPC   NC313211  15.099  39.878   9.761
  791POPC   PO413212  15.398  40.214   9.262
  791POPC   GL113213  15.374  39.878   9.052
  791POPC   GL213214  15.118  39.715   9.247
  791POPC   C1A13215  15.386  39.983   8.620
  791POPC   D2A13216  15.446  40.299   8.286
  791POPC   C3A13217  15.262  40.201   7.925
  791POPC   C4A13218  14.955  40.502   7.828
  791POPC   C1B13219  15.042  39.582   8.796
  791POPC   C2B13220  15.037  39.719   8.353
  791POPC   C3B13221  14.859  39.927   8.012
  791POPC   C4B13222  15.034  39.815   7.624
  792POPC   NC313223  10.699   6.518   9.779
  792POPC   PO413224  10.754   6.684   9.213
  792POPC   GL113225  10.446   6.512   9.017
  792POPC   GL213226  10.364   6.191   9.121
  792POPC   C1A13227  10.457   6.617   8.599
  792POPC   D2A13228  10.711   6.506   8.266
  792POPC   C3A13229  10.666   6.804   7.964
  792POPC   C4A13230  10.719   6.593   7.610
  792POPC   C1B13231  10.131   6.227   8.703
  792POPC   C2B13232  10.152   6.414   8.254
  792POPC   C3B13233  10.367   6.323   7.870
  792POPC   C4B13234  10.357   6.281   7.401
  793POPC   NC313235  44.557  15.962   9.531
  793POPC   PO413236   0.189  15.906   9.630
  793POPC   GL113237  44.998  15.989   9.237
  793POPC   GL213238  44.797  15.678   9.180
  793POPC   C1A13239  44.774  16.083   8.856
  793POPC   D2A13240  44.631  16.209   8.434
  793POPC   C3A13241  44.696  16.089   7.990
  793POPC   C4A13242  44.299  15.934   7.823
  793POPC   C1B13243  44.709  15.556   8.735
  793POPC   C2B13244  44.573  15.663   8.302
  793POPC   C3B13245  44.659  15.562   7.867
  793POPC   C4B13246   0.038  15.442   7.653
  794POPC   NC313247  25.957  42.184   9.438
  794POPC   PO413248  25.334  42.609   9.393
  794POPC   GL113249  25.504  42.420   9.038
  794POPC   GL213250  25.413  42.115   9.191
  794POPC   C1A13251  25.324  42.455   8.617
  794POPC   D2A13252  25.014  42.424   8.285
  794POPC   C3A13253  25.203  42.368   7.908
  794POPC   C4A13254  25.429  42.702   7.680
  794POPC   C1B13255  25.145  41.979   8.841
  794POPC   C2B13256  25.217  41.965   8.410
  794POPC   C3B13257  25.515  41.926   8.069
  794POPC   C4B13258  25.492  42.043   7.618
  795POPC   NC313259  35.879  17.091   9.493
  795POPC   PO413260  36.410  16.701   9.656
  795POPC   GL113261  36.224  16.776   9.250
  795POPC   GL213262  36.310  17.112   9.171
  795POPC   C1A13263  36.072  16.793   8.817
  795POPC   D2A13264  36.137  16.545   8.434
  795POPC   C3A13265  35.897  16.414   8.063
  795POPC   C4A13266  36.202  16.435   7.747
  795POPC   C1B13267  36.444  17.227   8.766
  795POPC   C2B13268  36.263  17.064   8.407
  795POPC   C3B13269  36.047  16.910   8.038
  795POPC   C4B13270  36.280  16.936   7.665
  796POPC   NC313271  21.283  11.349   9.684
  796POPC   PO413272  21.741  10.848   9.493
  796POPC   GL113273  21.398  11.130   9.232
  796POPC   GL213274  21.486  11.493   9.115
  796POPC   C1A13275  21.037  11.326   8.958
  796POPC   D2A13276  20.864  11.406   8.550
  796POPC   C3A13277  21.042  11.463   8.126
  796POPC   C4A13278  21.268  11.283   7.783
  796POPC   C1B13279  21.455  11.181   8.726
  796POPC   C2B13280  21.462  11.219   8.283
  796POPC   C3B13281  21.595  11.560   8.015
  796POPC   C4B13282  21.825  11.270   7.779
  797POPC   NC313283  35.062  23.235   9.497
  797POPC   PO413284  35.314  22.648   9.522
  797POPC   GL113285  35.380  22.905   9.168
  797POPC   GL213286  35.726  22.841   9.204
  797POPC   C1A13287  35.232  23.093   8.770
  797POPC   D2A13288  35.021  22.989   8.377
  797POPC   C3A13289  35.186  23.112   7.966
  797POPC   C4A13290  35.149  22.770   7.660
  797POPC   C1B13291  35.739  22.858   8.755
  797POPC   C2B13292  35.536  22.925   8.366
  797POPC   C3B13293  35.606  22.774   7.960
  797POPC   C4B13294  35.617  22.859   7.528
  798POPC   NC313295  30.201   8.837   9.306
  798POPC   PO413296  30.735   9.157   9.769
  798POPC   GL113297  30.781   9.138   9.272
  798POPC   GL213298  30.702   8.816   9.163
  798POPC   C1A13299  30.918   9.143   8.813
  798POPC   D2A13300  31.040   8.922   8.403
  798POPC   C3A13301  30.852   9.072   7.991
  798POPC   C4A13302  30.424   9.193   7.813
  798POPC   C1B13303  30.509   8.791   8.730
  798POPC   C2B13304  30.470   8.829   8.280
  798POPC   C3B13305  30.412   8.701   7.865
  798POPC   C4B13306  30.486   8.382   7.560
  799POPC   NC313307   7.426  19.322   9.520
  799POPC   PO413308   7.896  18.794   9.487
  799POPC   GL113309   7.627  18.989   9.166
  799POPC   GL213310   7.280  18.905   9.196
  799POPC   C1A13311   7.477  18.951   8.749
  799POPC   D2A13312   7.373  18.747   8.425
  799POPC   C3A13313   7.504  18.997   8.125
  799POPC   C4A13314   7.393  19.058   7.727
  799POPC   C1B13315   7.097  19.217   8.919
  799POPC   C2B13316   7.148  19.205   8.475
  799POPC   C3B13317   6.998  19.035   8.080
  799POPC   C4B13318   6.913  19.275   7.698
  800POPC   NC313319   9.479  31.976   9.471
  800POPC   PO413320  10.114  32.265   9.438
  800POPC   GL113321   9.730  32.372   9.206
  800POPC   GL213322   9.692  32.065   9.023
  800POPC   C1A13323   9.671  32.492   8.774
  800POPC   D2A13324   9.663  32.191   8.458
  800POPC   C3A13325   9.687  32.404   8.092
  800POPC   C4A13326   9.521  32.338   7.694
  800POPC   C1B13327  10.067  32.024   8.773
  800POPC   C2B13328  10.111  31.931   8.327
  800POPC   C3B13329   9.960  32.007   7.903
  800POPC   C4B13330  10.119  31.930   7.504
  801POPC   NC313331  22.870  29.959   9.612
  801POPC   PO413332  22.419  29.558   9.606
  801POPC   GL113333  22.690  29.598   9.220
  801POPC   GL213334  22.994  29.815   9.157
  801POPC   C1A13335  22.657  29.731   8.787
  801POPC   D2A13336  22.575  30.010   8.430
  801POPC   C3A13337  22.733  29.865   8.001
  801POPC   C4A13338  23.090  29.734   7.740
  801POPC   C1B13339  23.288  29.759   8.853
  801POPC   C2B13340  23.341  29.634   8.435
  801POPC   C3B13341  23.449  29.866   8.083
  801POPC   C4B13342  23.440  30.259   7.822
  802POPC   NC313343  26.796  40.289   9.614
  802POPC   PO413344  26.917  39.601   9.642
  802POPC   GL113345  26.657  39.828   9.321
  802POPC   GL213346  26.886  40.063   9.163
  802POPC   C1A13347  26.570  39.818   8.858
  802POPC   D2A13348  26.621  39.910   8.434
  802POPC   C3A13349  26.976  39.721   8.216
  802POPC   C4A13350  26.772  39.558   7.872
  802POPC   C1B13351  26.963  40.351   8.811
  802POPC   C2B13352  26.989  40.268   8.392
  802POPC   C3B13353  27.022  40.467   8.022
  802POPC   C4B13354  27.004  40.406   7.581
  803POPC   NC313355  23.610  29.423   9.398
  803POPC   PO413356  23.778  28.762   9.551
  803POPC   GL113357  23.830  29.006   9.193
  803POPC   GL213358  23.494  28.981   9.151
  803POPC   C1A13359  23.736  29.213   8.761
  803POPC   D2A13360  23.828  28.960   8.373
  803POPC   C3A13361  23.823  29.117   7.947
  803POPC   C4A13362  23.478  29.400   7.863
  803POPC   C1B13363  23.321  28.902   8.769
  803POPC   C2B13364  23.326  29.107   8.389
  803POPC   C3B13365  23.355  28.912   8.025
  803POPC   C4B13366  23.202  29.050   7.629
  804POPC   NC313367  11.924  44.764   9.575
  804POPC   PO413368  12.444  44.372   9.411
  804POPC   GL113369  12.139  44.590   9.165
  804POPC   GL213370  11.922  44.355   9.039
  804POPC   C1A13371  12.040  44.846   8.795
  804POPC   D2A13372  12.068  44.656   8.387
  804POPC   C3A13373  12.137  44.844   8.010
  804POPC   C4A13374  12.434  44.818   7.669
  804POPC   C1B13375  11.716  44.460   8.697
  804POPC   C2B13376  11.579  44.526   8.305
  804POPC   C3B13377  11.813  44.385   7.974
  804POPC   C4B13378  12.110  44.418   7.688
  805POPC   NC313379  40.959   5.519   9.254
  805POPC   PO413380  40.723   5.168   9.740
  805POPC   GL113381  40.780   4.967   9.276
  805POPC   GL213382  40.610   5.200   9.078
  805POPC   C1A13383  40.705   4.798   8.819
  805POPC   D2A13384  40.715   5.077   8.441
  805POPC   C3A13385  40.776   4.920   8.010
  805POPC   C4A13386  41.036   4.799   7.688
  805POPC   C1B13387  40.431   5.432   8.757
  805POPC   C2B13388  40.599   5.644   8.402
  805POPC   C3B13389  40.628   5.429   8.024
  805POPC   C4B13390  40.505   5.510   7.611
  806POPC   NC313391   0.880  40.047   9.770
  806POPC   PO413392   1.536  39.860   9.581
  806POPC   GL113393   1.149  39.881   9.306
  806POPC   GL213394   0.929  40.174   9.275
  806POPC   C1A13395   1.126  39.829   8.852
  806POPC   D2A13396   1.419  39.757   8.482
  806POPC   C3A13397   1.290  39.780   8.048
  806POPC   C4A13398   1.557  40.030   7.819
  806POPC   C1B13399   0.861  40.324   8.855
  806POPC   C2B13400   1.007  40.164   8.462
  806POPC   C3B13401   1.182  40.282   8.102
  806POPC   C4B13402   1.079  40.210   7.689
  807POPC   NC313403  44.089   7.392   9.440
  807POPC   PO413404  43.443   7.733   9.362
  807POPC   GL113405  43.723   7.554   9.048
  807POPC   GL213406  43.991   7.273   8.969
  807POPC   C1A13407  43.845   7.600   8.620
  807POPC   D2A13408  44.227   7.470   8.440
  807POPC   C3A13409  44.167   7.437   7.989
  807POPC   C4A13410  43.845   7.483   7.662
  807POPC   C1B13411  43.612   7.129   8.765
  807POPC   C2B13412  43.514   6.970   8.375
  807POPC   C3B13413  43.717   7.097   7.996
  807POPC   C4B13414  43.820   6.953   7.587
  808POPC   NC313415  22.367  34.357   9.778
  808POPC   PO413416  22.049  34.703   9.285
  808POPC   GL113417  22.330  34.570   9.054
  808POPC   GL213418  22.495  34.389   9.292
  808POPC   C1A13419  22.326  34.746   8.658
  808POPC   D2A13420  22.106  34.591   8.355
  808POPC   C3A13421  22.231  34.749   7.989
  808POPC   C4A13422  22.013  34.538   7.710
  808POPC   C1B13423  22.592  34.185   8.882
  808POPC   C2B13424  22.553  34.319   8.458
  808POPC   C3B13425  22.357  34.243   8.049
  808POPC   C4B13426  22.509  34.380   7.682
  809POPC   NC313427  11.789   1.304   9.585
  809POPC   PO413428  12.325   0.931   9.464
  809POPC   GL113429  12.130   1.224   9.191
  809POPC   GL213430  11.788   1.086   9.113
  809POPC   C1A13431  12.309   1.411   8.832
  809POPC   D2A13432  12.571   1.575   8.490
  809POPC   C3A13433  12.459   1.307   8.175
  809POPC   C4A13434  12.199   1.187   7.853
  809POPC   C1B13435  11.865   1.199   8.671
  809POPC   C2B13436  11.889   1.363   8.231
  809POPC   C3B13437  11.661   1.248   7.814
  809POPC   C4B13438  11.522   0.966   7.430
  810POPC   NC313439  28.833  32.742   9.576
  810POPC   PO413440  29.332  33.331   9.635
  810POPC   GL113441  29.341  33.073   9.230
  810POPC   GL213442  29.008  32.941   9.152
  810POPC   C1A13443  29.361  32.796   8.837
  810POPC   D2A13444  29.460  32.805   8.396
  810POPC   C3A13445  29.382  33.157   8.151
  810POPC   C4A13446  29.405  33.179   7.704
  810POPC   C1B13447  28.853  32.722   8.781
  810POPC   C2B13448  28.947  32.948   8.379
  810POPC   C3B13449  28.949  33.029   7.921
  810POPC   C4B13450  29.015  32.740   7.584
  811POPC   NC313451  16.693  36.697   9.531
  811POPC   PO413452  17.252  37.065   9.671
  811POPC   GL113453  16.910  36.993   9.205
  811POPC   GL213454  16.942  36.712   9.072
  811POPC   C1A13455  16.987  37.080   8.729
  811POPC   D2A13456  16.968  36.778   8.463
  811POPC   C3A13457  16.719  36.916   8.152
  811POPC   C4A13458  16.719  36.724   7.779
  811POPC   C1B13459  16.553  36.862   8.852
  811POPC   C2B13460  16.436  36.668   8.483
  811POPC   C3B13461  16.334  36.609   8.074
  811POPC   C4B13462  16.163  36.854   7.720
  812POPC   NC313463   7.289   7.059   9.466
  812POPC   PO413464   7.742   6.422   9.507
  812POPC   GL113465   7.464   6.331   9.191
  812POPC   GL213466   7.270   6.640   9.140
  812POPC   C1A13467   7.524   6.363   8.765
  812POPC   D2A13468   7.516   6.684   8.460
  812POPC   C3A13469   7.488   6.597   8.032
  812POPC   C4A13470   7.831   6.499   7.804
  812POPC   C1B13471   7.071   6.586   8.719
  812POPC   C2B13472   7.031   6.721   8.287
  812POPC   C3B13473   7.028   6.738   7.838
  812POPC   C4B13474   6.957   6.495   7.485
  813POPC   NC313475  35.196   9.258   9.514
  813POPC   PO413476  35.719   8.740   9.470
  813POPC   GL113477  35.488   8.968   9.152
  813POPC   GL213478  35.147   8.933   9.115
  813POPC   C1A13479  35.506   9.156   8.720
  813POPC   D2A13480  35.762   9.098   8.313
  813POPC   C3A13481  35.641   8.834   7.986
  813POPC   C4A13482  35.457   8.942   7.597
  813POPC   C1B13483  34.915   9.062   8.777
  813POPC   C2B13484  35.098   9.091   8.385
  813POPC   C3B13485  35.310   9.252   8.042
  813POPC   C4B13486  35.015   9.224   7.714
  814POPC   NC313487  24.541   4.656   9.538
  814POPC   PO413488  24.263   5.230   9.634
  814POPC   GL113489  24.521   5.167   9.225
  814POPC   GL213490  24.660   4.873   9.088
  814POPC   C1A13491  24.591   5.273   8.760
  814POPC   D2A13492  24.382   5.216   8.335
  814POPC   C3A13493  24.600   5.203   7.905
  814POPC   C4A13494  24.752   5.304   7.470
  814POPC   C1B13495  24.575   4.749   8.687
  814POPC   C2B13496  24.680   4.816   8.263
  814POPC   C3B13497  24.597   4.640   7.877
  814POPC   C4B13498  24.459   4.873   7.511
  815POPC   NC313499  11.930  43.208   9.638
  815POPC   PO413500  12.560  43.142   9.696
  815POPC   GL113501  12.277  42.927   9.351
  815POPC   GL213502  12.002  43.129   9.148
  815POPC   C1A13503  12.312  42.881   8.866
  815POPC   D2A13504  12.058  42.851   8.496
  815POPC   C3A13505  12.198  43.126   8.169
  815POPC   C4A13506  12.073  43.218   7.750
  815POPC   C1B13507  11.958  43.381   8.784
  815POPC   C2B13508  12.068  43.576   8.406
  815POPC   C3B13509  11.843  43.662   8.056
  815POPC   C4B13510  11.630  43.477   7.723
  816POPC   NC313511  29.242  15.863   9.591
  816POPC   PO413512  28.941  16.354   9.210
  816POPC   GL113513  29.257  16.092   9.097
  816POPC   GL213514  29.202  15.731   9.116
  816POPC   C1A13515  29.172  15.990   8.669
  816POPC   D2A13516  28.905  15.986   8.331
  816POPC   C3A13517  29.107  16.018   7.962
  816POPC   C4A13518  28.843  15.889   7.638
  816POPC   C1B13519  29.408  15.546   8.771
  816POPC   C2B13520  29.256  15.591   8.352
  816POPC   C3B13521  29.118  15.514   7.953
  816POPC   C4B13522  29.461  15.364   7.777
  817POPC   NC313523  14.758  20.406   9.549
  817POPC   PO413524  14.127  20.511   9.414
  817POPC   GL113525  14.371  20.893   9.238
  817POPC   GL213526  14.677  20.760   9.178
  817POPC   C1A13527  14.537  21.041   8.800
  817POPC   D2A13528  14.400  20.836   8.388
  817POPC   C3A13529  14.354  20.976   7.992
  817POPC   C4A13530  14.368  20.761   7.614
  817POPC   C1B13531  14.563  20.543   8.782
  817POPC   C2B13532  14.532  20.343   8.353
  817POPC   C3B13533  14.448  20.335   7.899
  817POPC   C4B13534  14.689  20.365   7.543
  818POPC   NC313535  32.296  42.660   9.547
  818POPC   PO413536  32.000  41.965   9.444
  818POPC   GL113537  32.210  42.150   9.084
  818POPC   GL213538  32.323  42.467   9.085
  818POPC   C1A13539  32.416  42.175   8.691
  818POPC   D2A13540  32.388  42.337   8.289
  818POPC   C3A13541  32.168  42.134   7.951
  818POPC   C4A13542  32.280  42.240   7.516
  818POPC   C1B13543  32.094  42.595   8.729
  818POPC   C2B13544  32.150  42.777   8.313
  818POPC   C3B13545  32.189  42.626   7.880
  818POPC   C4B13546  32.023  42.683   7.454
  819POPC   NC313547  37.895   4.617   9.445
  819POPC   PO413548  37.198   4.634   9.353
  819POPC   GL113549  37.562   4.496   9.082
  819POPC   GL213550  37.880   4.250   9.076
  819POPC   C1A13551  37.821   4.595   8.722
  819POPC   D2A13552  37.744   4.414   8.348
  819POPC   C3A13553  37.458   4.539   8.106
  819POPC   C4A13554  37.790   4.751   7.913
  819POPC   C1B13555  37.600   4.099   8.748
  819POPC   C2B13556  37.712   3.921   8.363
  819POPC   C3B13557  37.765   4.076   7.931
  819POPC   C4B13558  37.541   3.867   7.569
  820POPC   NC313559   2.587  34.055   9.482
  820POPC   PO413560   2.736  33.417   9.602
  820POPC   GL113561   2.672  33.549   9.178
  820POPC   GL213562   2.480  33.231   9.150
  820POPC   C1A13563   2.664  33.893   8.822
  820POPC   D2A13564   2.496  34.102   8.386
  820POPC   C3A13565   2.637  33.914   7.967
  820POPC   C4A13566   2.806  33.858   7.521
  820POPC   C1B13567   2.408  33.414   8.760
  820POPC   C2B13568   2.581  33.598   8.409
  820POPC   C3B13569   2.443  33.450   8.051
  820POPC   C4B13570   2.538  33.451   7.663
  821POPC   NC313571  44.107  14.377   9.354
  821POPC   PO413572  44.642  14.701   9.691
  821POPC   GL113573  44.549  14.705   9.227
  821POPC   GL213574  44.458  14.406   9.012
  821POPC   C1A13575  44.757  14.767   8.796
  821POPC   D2A13576  44.912  14.688   8.353
  821POPC   C3A13577  44.565  14.549   8.063
  821POPC   C4A13578  44.459  14.650   7.628
  821POPC   C1B13579  44.837  14.263   8.865
  821POPC   C2B13580  44.953  14.162   8.446
  821POPC   C3B13581  44.849  14.071   8.015
  821POPC   C4B13582  44.909  14.383   7.711
  822POPC   NC313583  14.459   5.161   9.652
  822POPC   PO413584  14.049   5.521   9.379
  822POPC   GL113585  14.235   5.170   9.170
  822POPC   GL213586  14.603   5.109   9.168
  822POPC   C1A13587  14.350   5.054   8.743
  822POPC   D2A13588  14.367   4.762   8.426
  822POPC   C3A13589  14.419   4.930   8.022
  822POPC   C4A13590  14.626   4.864   7.644
  822POPC   C1B13591  14.859   5.068   8.813
  822POPC   C2B13592  14.858   4.858   8.430
  822POPC   C3B13593  14.936   4.763   8.033
  822POPC   C4B13594  15.028   5.150   7.825
  823POPC   NC313595   9.021  21.416   9.559
  823POPC   PO413596   8.306  21.444   9.584
  823POPC   GL113597   8.615  21.243   9.277
  823POPC   GL213598   8.860  21.490   9.103
  823POPC   C1A13599   8.716  21.084   8.859
  823POPC   D2A13600   8.784  21.012   8.436
  823POPC   C3A13601   8.760  21.319   8.117
  823POPC   C4A13602   8.995  21.168   7.808
  823POPC   C1B13603   9.183  21.511   8.861
  823POPC   C2B13604   9.072  21.543   8.452
  823POPC   C3B13605   9.279  21.480   8.083
  823POPC   C4B13606   9.213  21.640   7.678
  824POPC   NC313607  24.507  24.199   9.585
  824POPC   PO413608  25.031  24.527   9.511
  824POPC   GL113609  24.710  24.516   9.201
  824POPC   GL213610  24.700  24.882   9.215
  824POPC   C1A13611  24.427  24.422   8.836
  824POPC   D2A13612  24.417  24.564   8.367
  824POPC   C3A13613  24.535  24.387   7.925
  824POPC   C4A13614  24.487  24.418   7.434
  824POPC   C1B13615  24.643  24.873   8.764
  824POPC   C2B13616  24.422  25.077   8.395
  824POPC   C3B13617  24.479  24.908   7.947
  824POPC   C4B13618  24.506  24.915   7.464
  825POPC   NC313619  37.277  19.783   9.541
  825POPC   PO413620  36.714  20.257   9.497
  825POPC   GL113621  36.900  20.103   9.165
  825POPC   GL213622  36.932  19.728   9.136
  825POPC   C1A13623  36.941  20.064   8.751
  825POPC   D2A13624  36.953  19.877   8.379
  825POPC   C3A13625  36.534  19.944   8.215
  825POPC   C4A13626  36.510  20.269   7.883
  825POPC   C1B13627  36.846  19.492   8.720
  825POPC   C2B13628  37.103  19.391   8.318
  825POPC   C3B13629  37.052  19.417   7.891
  825POPC   C4B13630  36.628  19.458   7.800
  826POPC   NC313631   9.094  11.704   9.534
  826POPC   PO413632   8.614  11.217   9.436
  826POPC   GL113633   8.798  11.468   9.135
  826POPC   GL213634   9.164  11.437   9.117
  826POPC   C1A13635   8.811  11.626   8.714
  826POPC   D2A13636   9.020  11.754   8.312
  826POPC   C3A13637   8.957  11.453   7.995
  826POPC   C4A13638   8.875  11.056   7.863
  826POPC   C1B13639   9.065  11.168   8.797
  826POPC   C2B13640   9.204  11.271   8.411
  826POPC   C3B13641   9.347  11.052   8.068
  826POPC   C4B13642   9.323  11.200   7.672
  827POPC   NC313643  32.192  36.182   9.585
  827POPC   PO413644  32.676  36.574   9.331
  827POPC   GL113645  32.383  36.332   9.078
  827POPC   GL213646  32.107  36.068   9.093
  827POPC   C1A13647  32.379  36.203   8.653
  827POPC   D2A13648  32.373  36.478   8.312
  827POPC   C3A13649  32.400  36.311   7.935
  827POPC   C4A13650  32.086  36.469   7.699
  827POPC   C1B13651  32.190  35.742   8.762
  827POPC   C2B13652  32.397  35.728   8.343
  827POPC   C3B13653  32.345  35.802   7.911
  827POPC   C4B13654  32.056  35.972   7.667
  828POPC   NC313655  12.917  37.896   9.294
  828POPC   PO413656  12.378  37.493   9.557
  828POPC   GL113657  12.701  37.437   9.182
  828POPC   GL213658  13.094  37.459   9.073
  828POPC   C1A13659  12.704  37.619   8.764
  828POPC   D2A13660  12.573  37.540   8.385
  828POPC   C3A13661  12.568  37.707   7.998
  828POPC   C4A13662  12.675  37.476   7.593
  828POPC   C1B13663  13.249  37.695   8.696
  828POPC   C2B13664  13.044  37.871   8.325
  828POPC   C3B13665  13.068  37.715   7.892
  828POPC   C4B13666  13.198  37.344   7.659
  829POPC   NC313667  32.301   7.034   9.645
  829POPC   PO413668  32.033   6.361   9.514
  829POPC   GL113669  32.138   6.509   9.136
  829POPC   GL213670  32.254   6.854   9.140
  829POPC   C1A13671  32.075   6.515   8.721
  829POPC   D2A13672  32.290   6.654   8.373
  829POPC   C3A13673  32.252   6.481   7.987
  829POPC   C4A13674  31.899   6.548   7.764
  829POPC   C1B13675  32.544   6.648   8.831
  829POPC   C2B13676  32.718   6.417   8.474
  829POPC   C3B13677  32.810   6.478   8.053
  829POPC   C4B13678  32.631   6.595   7.654
  830POPC   NC313679   3.040  31.988   9.462
  830POPC   PO413680   2.300  31.999   9.581
  830POPC   GL113681   2.534  32.237   9.203
  830POPC   GL213682   2.889  32.204   9.041
  830POPC   C1A13683   2.549  32.070   8.731
  830POPC   D2A13684   2.928  32.084   8.472
  830POPC   C3A13685   2.844  32.259   8.094
  830POPC   C4A13686   2.705  32.101   7.707
  830POPC   C1B13687   2.882  32.509   8.747
  830POPC   C2B13688   2.972  32.799   8.419
  830POPC   C3B13689   3.074  32.673   7.997
  830POPC   C4B13690   3.152  32.376   7.624
  831POPC   NC313691   0.673  36.957   9.985
  831POPC   PO413692   1.149  36.783   9.486
  831POPC   GL113693   1.094  36.845   9.067
  831POPC   GL213694   1.454  36.791   8.996
  831POPC   C1A13695   1.062  36.803   8.626
  831POPC   D2A13696   1.366  36.690   8.357
  831POPC   C3A13697   1.243  36.777   7.961
  831POPC   C4A13698   0.965  36.839   7.650
  831POPC   C1B13699   1.549  37.100   8.658
  831POPC   C2B13700   1.509  37.166   8.204
  831POPC   C3B13701   1.647  37.050   7.771
  831POPC   C4B13702   1.738  37.181   7.282
  832POPC   NC313703  16.364  23.223   9.455
  832POPC   PO413704  16.056  23.807   9.476
  832POPC   GL113705  15.970  23.465   9.237
  832POPC   GL213706  15.712  23.557   9.082
  832POPC   C1A13707  16.175  23.328   8.851
  832POPC   D2A13708  16.174  23.241   8.405
  832POPC   C3A13709  16.033  23.498   8.045
  832POPC   C4A13710  16.283  23.597   7.682
  832POPC   C1B13711  15.816  23.607   8.640
  832POPC   C2B13712  15.835  23.984   8.411
  832POPC   C3B13713  15.684  24.013   8.011
  832POPC   C4B13714  15.815  23.826   7.630
  833POPC   NC313715  42.020   7.977   9.414
  833POPC   PO413716  41.461   8.251   9.585
  833POPC   GL113717  41.455   8.230   9.143
  833POPC   GL213718  41.799   8.317   9.101
  833POPC   C1A13719  41.320   8.169   8.707
  833POPC   D2A13720  41.513   8.203   8.309
  833POPC   C3A13721  41.295   8.201   7.965
  833POPC   C4A13722  41.524   8.159   7.655
  833POPC   C1B13723  41.781   8.422   8.677
  833POPC   C2B13724  41.946   8.565   8.259
  833POPC   C3B13725  41.800   8.536   7.825
  833POPC   C4B13726  41.886   8.359   7.362
  834POPC   NC313727  32.338  43.557   9.447
  834POPC   PO413728  32.626  43.012   9.588
  834POPC   GL113729  32.500  42.945   9.146
  834POPC   GL213730  32.130  42.946   9.131
  834POPC   C1A13731  32.440  42.972   8.683
  834POPC   D2A13732  32.231  43.280   8.345
  834POPC   C3A13733  32.255  43.117   7.912
  834POPC   C4A13734  32.308  43.119   7.414
  834POPC   C1B13735  32.026  43.245   8.813
  834POPC   C2B13736  31.726  43.225   8.445
  834POPC   C3B13737  31.811  43.384   8.039
  834POPC   C4B13738  31.864  43.255   7.630
  835POPC   NC313739  22.514   2.590   9.378
  835POPC   PO413740  22.019   2.991   9.656
  835POPC   GL113741  22.143   2.927   9.233
  835POPC   GL213742  22.372   3.191   9.154
  835POPC   C1A13743  22.125   2.688   8.816
  835POPC   D2A13744  21.814   2.592   8.479
  835POPC   C3A13745  21.993   2.600   8.048
  835POPC   C4A13746  21.800   2.686   7.634
  835POPC   C1B13747  22.103   3.202   8.813
  835POPC   C2B13748  22.123   2.998   8.398
  835POPC   C3B13749  22.038   3.112   7.959
  835POPC   C4B13750  22.255   2.908   7.615
  836POPC   NC313751  15.438  20.181   9.384
  836POPC   PO413752  15.031  20.784   9.548
  836POPC   GL113753  15.141  20.562   9.184
  836POPC   GL213754  15.446  20.713   9.222
  836POPC   C1A13755  15.060  20.706   8.759
  836POPC   D2A13756  14.878  20.715   8.353
  836POPC   C3A13757  14.822  20.735   7.920
  836POPC   C4A13758  15.124  20.538   7.707
  836POPC   C1B13759  15.560  20.550   8.816
  836POPC   C2B13760  15.425  20.598   8.404
  836POPC   C3B13761  15.442  20.378   8.062
  836POPC   C4B13762  15.655  20.538   7.729
  837POPC   NC313763  38.950   3.900   9.468
  837POPC   PO413764  39.487   4.392   9.486
  837POPC   GL113765  39.434   4.079   9.181
  837POPC   GL213766  39.099   4.138   9.048
  837POPC   C1A13767  39.480   4.041   8.740
  837POPC   D2A13768  39.227   4.159   8.422
  837POPC   C3A13769  39.309   4.072   8.011
  837POPC   C4A13770  39.212   4.291   7.682
  837POPC   C1B13771  38.899   4.389   8.745
  837POPC   C2B13772  38.663   4.400   8.351
  837POPC   C3B13773  38.738   4.341   7.914
  837POPC   C4B13774  38.759   4.270   7.485
  838POPC   NC313775  12.053   5.788   9.581
  838POPC   PO413776  11.727   6.299   9.562
  838POPC   GL113777  11.868   6.123   9.090
  838POPC   GL213778  12.174   5.950   9.115
  838POPC   C1A13779  11.851   5.862   8.697
  838POPC   D2A13780  12.104   5.783   8.337
  838POPC   C3A13781  12.070   5.564   7.942
  838POPC   C4A13782  12.105   5.879   7.643
  838POPC   C1B13783  12.306   5.617   8.813
  838POPC   C2B13784  12.584   5.721   8.469
  838POPC   C3B13785  12.528   5.797   8.011
  838POPC   C4B13786  12.491   5.548   7.612
  839POPC   NC313787  14.809  11.515   9.597
  839POPC   PO413788  15.346  11.086   9.557
  839POPC   GL113789  15.183  11.179   9.122
  839POPC   GL213790  15.190  11.525   8.956
  839POPC   C1A13791  15.187  11.091   8.681
  839POPC   D2A13792  15.475  11.074   8.319
  839POPC   C3A13793  15.272  11.173   7.898
  839POPC   C4A13794  15.021  10.974   7.574
  839POPC   C1B13795  15.372  11.554   8.532
  839POPC   C2B13796  15.218  11.655   8.127
  839POPC   C3B13797  14.937  11.682   7.768
  839POPC   C4B13798  14.998  11.869   7.338
  840POPC   NC313799   8.426  28.008   9.887
  840POPC   PO413800   7.952  27.870   9.407
  840POPC   GL113801   8.051  27.683   9.029
  840POPC   GL213802   8.386  27.555   8.998
  840POPC   C1A13803   8.028  27.723   8.598
  840POPC   D2A13804   8.393  27.657   8.339
  840POPC   C3A13805   8.313  27.794   7.904
  840POPC   C4A13806   8.466  27.648   7.489
  840POPC   C1B13807   8.232  27.276   8.658
  840POPC   C2B13808   8.017  27.333   8.233
  840POPC   C3B13809   8.236  27.288   7.839
  840POPC   C4B13810   8.207  27.207   7.393
  841POPC   NC313811  33.733  29.745   9.607
  841POPC   PO413812  34.200  29.262   9.586
  841POPC   GL113813  33.980  29.406   9.228
  841POPC   GL213814  33.909  29.055   9.146
  841POPC   C1A13815  33.757  29.407   8.814
  841POPC   D2A13816  33.932  29.461   8.390
  841POPC   C3A13817  33.799  29.336   7.967
  841POPC   C4A13818  33.782  29.318   7.503
  841POPC   C1B13819  33.592  28.854   8.916
  841POPC   C2B13820  33.799  28.745   8.567
  841POPC   C3B13821  33.959  28.920   8.202
  841POPC   C4B13822  33.901  28.876   7.748
  842POPC   NC313823   4.520  40.590   9.590
  842POPC   PO413824   4.169  41.021   9.443
  842POPC   GL113825   4.358  40.768   9.098
  842POPC   GL213826   4.701  40.648   9.124
  842POPC   C1A13827   4.531  40.794   8.653
  842POPC   D2A13828   4.320  40.782   8.262
  842POPC   C3A13829   4.472  40.957   7.880
  842POPC   C4A13830   4.332  40.761   7.493
  842POPC   C1B13831   4.690  40.330   8.778
  842POPC   C2B13832   4.655  40.354   8.348
  842POPC   C3B13833   4.695  40.506   7.959
  842POPC   C4B13834   4.649  40.358   7.561
  843POPC   NC313835   7.485  30.994   9.279
  843POPC   PO413836   7.354  31.628   9.457
  843POPC   GL113837   7.114  31.628   9.065
  843POPC   GL213838   7.125  31.292   9.060
  843POPC   C1A13839   7.084  31.559   8.603
  843POPC   D2A13840   7.359  31.350   8.292
  843POPC   C3A13841   7.466  31.476   7.870
  843POPC   C4A13842   7.548  31.359   7.434
  843POPC   C1B13843   7.235  31.062   8.704
  843POPC   C2B13844   7.072  30.928   8.340
  843POPC   C3B13845   7.227  30.973   7.934
  843POPC   C4B13846   7.035  31.264   7.674
  844POPC   NC313847   8.743  29.576   9.509
  844POPC   PO413848   9.114  30.030   9.568
  844POPC   GL113849   9.157  30.004   9.174
  844POPC   GL213850   9.138  29.647   9.109
  844POPC   C1A13851   8.971  30.191   8.830
  844POPC   D2A13852   8.722  29.932   8.574
  844POPC   C3A13853   8.719  30.002   8.152
  844POPC   C4A13854   8.769  30.107   7.752
  844POPC   C1B13855   9.274  29.796   8.702
  844POPC   C2B13856   9.215  29.947   8.287
  844POPC   C3B13857   9.258  30.011   7.859
  844POPC   C4B13858   9.096  29.835   7.439
  845POPC   NC313859  38.000  20.332   9.531
  845POPC   PO413860  38.060  21.010   9.588
  845POPC   GL113861  37.744  20.894   9.237
  845POPC   GL213862  37.651  20.534   9.221
  845POPC   C1A13863  37.887  20.786   8.826
  845POPC   D2A13864  38.070  20.497   8.511
  845POPC   C3A13865  37.984  20.641   8.076
  845POPC   C4A13866  37.757  20.826   7.732
  845POPC   C1B13867  37.601  20.361   8.807
  845POPC   C2B13868  37.422  20.177   8.439
  845POPC   C3B13869  37.585  20.308   8.034
  845POPC   C4B13870  37.457  20.272   7.621
  846POPC   NC313871  40.314  19.001   9.550
  846POPC   PO413872  39.663  19.170   9.579
  846POPC   GL113873  39.770  18.902   9.223
  846POPC   GL213874  40.084  19.044   9.104
  846POPC   C1A13875  39.848  18.736   8.791
  846POPC   D2A13876  40.028  18.864   8.396
  846POPC   C3A13877  39.784  18.808   8.043
  846POPC   C4A13878  39.891  18.816   7.628
  846POPC   C1B13879  40.115  19.253   8.725
  846POPC   C2B13880  40.255  19.325   8.306
  846POPC   C3B13881  40.111  19.264   7.878
  846POPC   C4B13882  40.318  19.513   7.536
  847POPC   NC313883  29.458  29.520   9.486
  847POPC   PO413884  29.010  29.972   9.490
  847POPC   GL113885  29.212  30.076   9.135
  847POPC   GL213886  29.219  29.726   9.054
  847POPC   C1A13887  29.055  30.080   8.715
  847POPC   D2A13888  29.120  29.770   8.401
  847POPC   C3A13889  29.011  29.917   8.004
  847POPC   C4A13890  29.106  30.293   7.847
  847POPC   C1B13891  29.486  29.590   8.748
  847POPC   C2B13892  29.623  29.711   8.358
  847POPC   C3B13893  29.389  29.578   7.972
  847POPC   C4B13894  29.251  29.477   7.541
  848POPC   NC313895  22.293  36.938   9.599
  848POPC   PO413896  22.383  37.478   9.546
  848POPC   GL113897  22.157  37.213   9.174
  848POPC   GL213898  22.138  36.819   9.131
  848POPC   C1A13899  22.190  37.088   8.706
  848POPC   D2A13900  22.038  37.171   8.288
  848POPC   C3A13901  22.004  37.135   7.823
  848POPC   C4A13902  21.736  37.382   7.513
  848POPC   C1B13903  22.003  36.599   8.761
  848POPC   C2B13904  22.115  36.639   8.335
  848POPC   C3B13905  21.956  36.634   7.907
  848POPC   C4B13906  22.211  36.703   7.519
  849POPC   NC313907  26.829  11.641   9.720
  849POPC   PO413908  26.731  12.309   9.584
  849POPC   GL113909  26.799  12.139   9.165
  849POPC   GL213910  26.901  11.828   9.252
  849POPC   C1A13911  26.576  12.200   8.782
  849POPC   D2A13912  26.550  12.433   8.375
  849POPC   C3A13913  26.567  12.190   8.027
  849POPC   C4A13914  26.894  12.169   7.762
  849POPC   C1B13915  26.738  11.699   8.838
  849POPC   C2B13916  26.722  11.874   8.422
  849POPC   C3B13917  26.827  11.753   8.031
  849POPC   C4B13918  26.605  11.778   7.655
  850POPC   NC313919  30.457  14.636   9.505
  850POPC   PO413920  30.929  14.155   9.455
  850POPC   GL113921  30.728  14.133   9.077
  850POPC   GL213922  30.394  14.212   9.070
  850POPC   C1A13923  30.734  13.941   8.673
  850POPC   D2A13924  30.848  13.950   8.240
  850POPC   C3A13925  30.643  14.332   8.066
  850POPC   C4A13926  30.734  14.685   7.751
  850POPC   C1B13927  30.261  14.595   8.835
  850POPC   C2B13928  30.378  14.670   8.395
  850POPC   C3B13929  30.267  14.678   7.972
  850POPC   C4B13930  30.322  14.697   7.454
  851POPC   NC313931  16.469  43.646   9.384
  851POPC   PO413932  16.951  44.000   9.571
  851POPC   GL113933  16.904  43.872   9.125
  851POPC   GL213934  16.916  43.518   9.138
  851POPC   C1A13935  16.723  43.850   8.681
  851POPC   D2A13936  16.348  44.030   8.488
  851POPC   C3A13937  16.409  44.219   8.108
  851POPC   C4A13938  16.616  44.030   7.741
  851POPC   C1B13939  16.606  43.376   8.803
  851POPC   C2B13940  16.708  43.359   8.366
  851POPC   C3B13941  16.623  43.572   7.986
  851POPC   C4B13942  16.812  43.601   7.578
  852POPC   NC313943  43.559  13.072   9.465
  852POPC   PO413944  44.208  13.217   9.519
  852POPC   GL113945  43.993  13.029   9.191
  852POPC   GL213946  43.868  12.678   9.264
  852POPC   C1A13947  43.736  13.040   8.822
  852POPC   D2A13948  43.623  13.114   8.402
  852POPC   C3A13949  43.982  13.060   8.161
  852POPC   C4A13950  43.972  12.954   7.753
  852POPC   C1B13951  44.155  12.651   8.898
  852POPC   C2B13952  44.022  12.655   8.478
  852POPC   C3B13953  43.922  12.549   8.058
  852POPC   C4B13954  44.163  12.490   7.674
  853POPC   NC313955   9.306  41.703   9.480
  853POPC   PO413956   9.985  41.452   9.654
  853POPC   GL113957   9.792  41.731   9.299
  853POPC   GL213958   9.600  41.488   9.116
  853POPC   C1A13959   9.773  41.895   8.866
  853POPC   D2A13960   9.654  41.689   8.516
  853POPC   C3A13961   9.751  41.820   8.118
  853POPC   C4A13962   9.767  41.721   7.684
  853POPC   C1B13963   9.463  41.231   8.775
  853POPC   C2B13964   9.296  41.332   8.387
  853POPC   C3B13965   9.445  41.423   7.999
  853POPC   C4B13966   9.293  41.294   7.600
  854POPC   NC313967  17.711   7.473   9.459
  854POPC   PO413968  17.223   7.041   9.551
  854POPC   GL113969  17.337   7.292   9.181
  854POPC   GL213970  17.207   7.634   9.235
  854POPC   C1A13971  17.528   7.596   8.840
  854POPC   D2A13972  17.743   7.717   8.444
  854POPC   C3A13973  17.775   7.380   8.124
  854POPC   C4A13974  17.650   7.361   7.687
  854POPC   C1B13975  17.038   7.751   8.811
  854POPC   C2B13976  17.218   7.810   8.384
  854POPC   C3B13977  17.257   7.774   7.930
  854POPC   C4B13978  17.299   7.667   7.485
  855POPC   NC313979   4.202  38.121   9.431
  855POPC   PO413980   4.542  38.693   9.586
  855POPC   GL113981   4.504  38.480   9.187
  855POPC   GL213982   4.144  38.528   9.089
  855POPC   C1A13983   4.518  38.608   8.751
  855POPC   D2A13984   4.338  38.620   8.346
  855POPC   C3A13985   4.598  38.700   7.967
  855POPC   C4A13986   4.580  38.486   7.565
  855POPC   C1B13987   4.223  38.185   8.766
  855POPC   C2B13988   4.185  38.107   8.326
  855POPC   C3B13989   4.260  38.256   7.921
  855POPC   C4B13990   4.029  38.088   7.565
  856POPC   NC313991  11.210   7.349   9.560
  856POPC   PO413992  11.710   6.823   9.412
  856POPC   GL113993  11.568   7.251   9.203
  856POPC   GL213994  11.848   7.326   9.023
  856POPC   C1A13995  11.160   7.361   8.894
  856POPC   D2A13996  11.193   7.239   8.428
  856POPC   C3A13997  11.340   7.393   8.000
  856POPC   C4A13998  11.149   7.518   7.594
  856POPC   C1B13999  11.607   7.447   8.697
  856POPC   C2B14000  11.501   7.722   8.388
  856POPC   C3B14001  11.432   7.919   7.994
  856POPC   C4B14002  11.612   7.694   7.646
  857POPC   NC314003  41.470   6.366   9.396
  857POPC   PO414004  42.092   6.706   9.533
  857POPC   GL114005  41.795   6.723   9.181
  857POPC   GL214006  41.622   6.472   8.943
  857POPC   C1A14007  41.801   6.969   8.817
  857POPC   D2A14008  41.998   7.133   8.472
  857POPC   C3A14009  41.858   6.856   8.167
  857POPC   C4A14010  41.920   7.024   7.800
  857POPC   C1B14011  41.328   6.813   8.832
  857POPC   C2B14012  41.365   6.968   8.441
  857POPC   C3B14013  41.352   6.836   8.011
  857POPC   C4B14014  41.601   6.503   7.818
  858POPC   NC314015  14.543  32.921   9.597
  858POPC   PO414016  13.967  32.761   9.549
  858POPC   GL114017  14.278  32.778   9.168
  858POPC   GL214018  14.654  32.727   9.144
  858POPC   C1A14019  14.362  32.924   8.734
  858POPC   D2A14020  14.219  32.797   8.305
  858POPC   C3A14021  14.084  33.035   7.922
  858POPC   C4A14022  14.211  33.301   7.559
  858POPC   C1B14023  14.885  32.739   8.800
  858POPC   C2B14024  14.712  32.737   8.417
  858POPC   C3B14025  14.841  32.771   8.043
  858POPC   C4B14026  14.588  32.844   7.718
  859POPC   NC314027   7.849   1.804   9.284
  859POPC   PO414028   7.259   2.120   9.476
  859POPC   GL114029   7.407   2.027   9.099
  859POPC   GL214030   7.304   1.684   9.122
  859POPC   C1A14031   7.498   2.225   8.702
  859POPC   D2A14032   7.297   2.158   8.293
  859POPC   C3A14033   7.570   1.998   7.961
  859POPC   C4A14034   7.516   2.179   7.567
  859POPC   C1B14035   7.088   1.679   8.692
  859POPC   C2B14036   7.175   1.645   8.237
  859POPC   C3B14037   7.082   1.886   7.850
  859POPC   C4B14038   7.236   1.809   7.410
  860POPC   NC314039  36.827  34.516   9.966
  860POPC   PO414040  36.996  34.152   9.609
  860POPC   GL114041  36.987  34.557   9.384
  860POPC   GL214042  37.287  34.681   9.183
  860POPC   C1A14043  36.867  34.665   8.928
  860POPC   D2A14044  37.117  34.501   8.587
  860POPC   C3A14045  37.024  34.534   8.153
  860POPC   C4A14046  37.264  34.389   7.845
  860POPC   C1B14047  37.316  34.923   8.792
  860POPC   C2B14048  37.097  34.996   8.397
  860POPC   C3B14049  37.043  35.007   7.954
  860POPC   C4B14050  36.699  34.951   7.674
  861POPC   NC314051  43.492  40.268   9.509
  861POPC   PO414052  44.168  40.043   9.535
  861POPC   GL114053  44.074  40.123   9.122
  861POPC   GL214054  43.746  39.956   9.019
  861POPC   C1A14055  44.207  39.918   8.750
  861POPC   D2A14056  43.957  39.808   8.405
  861POPC   C3A14057  44.177  39.879   8.069
  861POPC   C4A14058  44.136  39.800   7.688
  861POPC   C1B14059  43.587  40.190   8.684
  861POPC   C2B14060  43.680  40.235   8.245
  861POPC   C3B14061  43.688  39.946   7.908
  861POPC   C4B14062  43.698  39.955   7.465
  862POPC   NC314063  16.585  32.527   9.509
  862POPC   PO414064  16.453  33.203   9.487
  862POPC   GL114065  16.800  33.089   9.188
  862POPC   GL214066  16.972  32.766   9.242
  862POPC   C1A14067  16.887  33.083   8.738
  862POPC   D2A14068  17.026  33.069   8.292
  862POPC   C3A14069  16.771  33.176   7.924
  862POPC   C4A14070  16.392  33.422   7.875
  862POPC   C1B14071  16.876  32.545   8.853
  862POPC   C2B14072  16.995  32.562   8.428
  862POPC   C3B14073  16.784  32.668   8.056
  862POPC   C4B14074  16.939  32.762   7.647
  863POPC   NC314075  20.286  15.429   9.437
  863POPC   PO414076  20.966  15.313   9.363
  863POPC   GL114077  20.786  15.077   9.026
  863POPC   GL214078  20.421  15.006   9.114
  863POPC   C1A14079  20.877  15.103   8.595
  863POPC   D2A14080  20.721  15.340   8.265
  863POPC   C3A14081  20.862  15.121   7.873
  863POPC   C4A14082  20.898  15.124   7.419
  863POPC   C1B14083  20.367  15.318   8.787
  863POPC   C2B14084  20.170  15.365   8.392
  863POPC   C3B14085  20.310  15.414   7.970
  863POPC   C4B14086  20.445  15.187   7.604
  864POPC   NC314087  42.792   1.230   9.401
  864POPC   PO414088  43.393   1.317   9.446
  864POPC   GL114089  43.187   1.026   9.144
  864POPC   GL214090  43.067   1.358   8.990
  864POPC   C1A14091  42.937   0.937   8.764
  864POPC   D2A14092  43.045   1.219   8.440
  864POPC   C3A14093  43.003   1.099   8.039
  864POPC   C4A14094  42.939   1.161   7.622
  864POPC   C1B14095  42.659   1.384   8.751
  864POPC   C2B14096  42.560   1.413   8.299
  864POPC   C3B14097  42.664   1.514   7.847
  864POPC   C4B14098  42.743   1.536   7.344
  865POPC   NC314099   9.709   3.613   9.567
  865POPC   PO414100  10.073   2.989   9.450
  865POPC   GL114101   9.764   3.244   9.176
  865POPC   GL214102   9.918   3.583   9.131
  865POPC   C1A14103   9.667   3.402   8.731
  865POPC   D2A14104   9.735   3.457   8.260
  865POPC   C3A14105   9.956   3.227   7.931
  865POPC   C4A14106   9.691   3.230   7.544
  865POPC   C1B14107   9.945   3.874   8.819
  865POPC   C2B14108  10.099   3.819   8.435
  865POPC   C3B14109   9.943   3.969   8.066
  865POPC   C4B14110   9.820   3.683   7.782
  866POPC   NC314111   7.262  26.846   9.525
  866POPC   PO414112   7.957  26.875   9.510
  866POPC   GL114113   7.690  26.700   9.222
  866POPC   GL214114   7.547  27.017   9.144
  866POPC   C1A14115   7.527  26.581   8.831
  866POPC   D2A14116   7.337  26.472   8.457
  866POPC   C3A14117   7.570  26.490   8.079
  866POPC   C4A14118   7.461  26.804   7.800
  866POPC   C1B14119   7.506  27.148   8.746
  866POPC   C2B14120   7.196  27.184   8.439
  866POPC   C3B14121   7.152  27.126   8.020
  866POPC   C4B14122   7.580  27.307   7.865
  867POPC   NC314123   0.976  20.312   9.579
  867POPC   PO414124   1.401  20.795   9.316
  867POPC   GL114125   1.311  20.448   9.048
  867POPC   GL214126   0.996  20.375   9.088
  867POPC   C1A14127   1.174  20.497   8.618
  867POPC   D2A14128   0.985  20.725   8.278
  867POPC   C3A14129   1.211  20.544   7.917
  867POPC   C4A14130   1.637  20.584   7.737
  867POPC   C1B14131   0.822  20.169   8.792
  867POPC   C2B14132   0.766  20.261   8.408
  867POPC   C3B14133   0.706  20.372   8.010
  867POPC   C4B14134   0.837  20.473   7.588
  868POPC   NC314135  36.600   3.035   9.583
  868POPC   PO414136  37.037   2.552   9.519
  868POPC   GL114137  37.061   2.826   9.143
  868POPC   GL214138  36.907   2.569   9.012
  868POPC   C1A14139  37.157   2.816   8.653
  868POPC   D2A14140  37.240   3.112   8.276
  868POPC   C3A14141  37.066   3.009   7.842
  868POPC   C4A14142  37.048   3.181   7.369
  868POPC   C1B14143  36.634   2.439   8.739
  868POPC   C2B14144  36.805   2.392   8.358
  868POPC   C3B14145  36.812   2.570   7.975
  868POPC   C4B14146  36.765   2.447   7.569
  869POPC   NC314147   8.795   9.534   9.398
  869POPC   PO414148   9.270   9.840   9.832
  869POPC   GL114149   9.182   9.888   9.304
  869POPC   GL214150   8.848   9.873   9.037
  869POPC   C1A14151   9.296   9.695   8.874
  869POPC   D2A14152   9.320   9.850   8.421
  869POPC   C3A14153   8.951   9.662   8.171
  869POPC   C4A14154   8.575   9.688   7.855
  869POPC   C1B14155   8.636  10.107   8.674
  869POPC   C2B14156   8.586  10.082   8.207
  869POPC   C3B14157   8.603  10.203   7.773
  869POPC   C4B14158   8.729   9.962   7.423
  870POPC   NC314159  17.953  18.710   9.712
  870POPC   PO414160  17.254  18.835   9.857
  870POPC   GL114161  17.280  19.009   9.386
  870POPC   GL214162  17.524  18.771   9.285
  870POPC   C1A14163  17.395  19.166   8.916
  870POPC   D2A14164  17.368  19.049   8.441
  870POPC   C3A14165  17.217  19.261   8.056
  870POPC   C4A14166  17.456  19.234   7.650
  870POPC   C1B14167  17.519  18.673   8.833
  870POPC   C2B14168  17.772  18.741   8.469
  870POPC   C3B14169  17.759  18.964   8.058
  870POPC   C4B14170  17.750  18.826   7.616
  871POPC   NC314171  14.442   8.302   9.893
  871POPC   PO414172  13.843   8.370   9.621
  871POPC   GL114173  14.126   8.139   9.267
  871POPC   GL214174  14.462   8.300   9.121
  871POPC   C1A14175  14.219   7.986   8.808
  871POPC   D2A14176  14.354   8.249   8.429
  871POPC   C3A14177  14.162   8.178   8.008
  871POPC   C4A14178  14.305   8.020   7.626
  871POPC   C1B14179  14.698   8.520   8.748
  871POPC   C2B14180  14.623   8.693   8.315
  871POPC   C3B14181  14.612   8.392   7.934
  871POPC   C4B14182  14.653   8.340   7.477
  872POPC   NC314183  20.316   3.474   9.646
  872POPC   PO414184  20.888   3.864   9.619
  872POPC   GL114185  20.912   3.769   9.187
  872POPC   GL214186  20.598   3.567   9.152
  872POPC   C1A14187  20.914   3.626   8.751
  872POPC   D2A14188  20.750   3.442   8.346
  872POPC   C3A14189  20.721   3.739   7.982
  872POPC   C4A14190  20.860   3.733   7.543
  872POPC   C1B14191  20.541   3.261   8.782
  872POPC   C2B14192  20.202   3.224   8.465
  872POPC   C3B14193  20.334   3.263   8.048
  872POPC   C4B14194  20.587   3.324   7.699
  873POPC   NC314195  29.919   3.356   9.496
  873POPC   PO414196  30.638   3.361   9.624
  873POPC   GL114197  30.349   3.495   9.281
  873POPC   GL214198  30.474   3.342   9.082
  873POPC   C1A14199  30.108   3.676   8.949
  873POPC   D2A14200  30.092   3.725   8.507
  873POPC   C3A14201  29.779   3.522   8.237
  873POPC   C4A14202  29.613   3.500   7.831
  873POPC   C1B14203  30.313   3.262   8.670
  873POPC   C2B14204  30.267   3.335   8.211
  873POPC   C3B14205  30.136   3.360   7.766
  873POPC   C4B14206  30.144   3.393   7.307
  874POPC   NC314207  33.317  12.429   9.460
  874POPC   PO414208  33.100  13.112   9.565
  874POPC   GL114209  33.160  12.982   9.167
  874POPC   GL214210  32.935  12.756   9.134
  874POPC   C1A14211  33.072  13.095   8.732
  874POPC   D2A14212  33.067  13.269   8.311
  874POPC   C3A14213  33.035  12.971   7.961
  874POPC   C4A14214  33.277  12.566   7.911
  874POPC   C1B14215  32.939  12.594   8.759
  874POPC   C2B14216  32.801  12.783   8.387
  874POPC   C3B14217  32.710  12.579   8.052
  874POPC   C4B14218  32.835  12.547   7.673
  875POPC   NC314219   6.028  23.994   9.392
  875POPC   PO414220   5.906  23.355   9.407
  875POPC   GL114221   6.046  23.381   9.028
  875POPC   GL214222   5.874  23.707   8.988
  875POPC   C1A14223   6.087  23.479   8.600
  875POPC   D2A14224   5.935  23.652   8.214
  875POPC   C3A14225   5.980  23.371   7.846
  875POPC   C4A14226   6.128  23.341   7.366
  875POPC   C1B14227   5.514  23.822   8.733
  875POPC   C2B14228   5.443  24.090   8.372
  875POPC   C3B14229   5.431  23.931   7.959
  875POPC   C4B14230   5.807  23.835   7.740
  876POPC   NC314231   7.054  33.525   9.504
  876POPC   PO414232   7.510  34.040   9.440
  876POPC   GL114233   7.632  33.746   9.128
  876POPC   GL214234   7.284  33.659   9.065
  876POPC   C1A14235   7.599  33.519   8.708
  876POPC   D2A14236   7.310  33.621   8.385
  876POPC   C3A14237   7.534  33.779   8.052
  876POPC   C4A14238   7.789  33.655   7.723
  876POPC   C1B14239   7.404  34.002   8.745
  876POPC   C2B14240   7.183  34.118   8.375
  876POPC   C3B14241   7.052  33.953   7.979
  876POPC   C4B14242   6.947  34.267   7.684
  877POPC   NC314243  21.321  14.238   9.564
  877POPC   PO414244  21.748  14.717   9.461
  877POPC   GL114245  21.376  14.640   9.168
  877POPC   GL214246  21.227  14.286   9.073
  877POPC   C1A14247  21.110  14.682   8.789
  877POPC   D2A14248  21.095  14.444   8.388
  877POPC   C3A14249  21.108  14.655   7.984
  877POPC   C4A14250  21.487  14.715   7.698
  877POPC   C1B14251  21.412  13.988   8.776
  877POPC   C2B14252  21.526  13.796   8.396
  877POPC   C3B14253  21.564  13.939   8.007
  877POPC   C4B14254  21.317  14.233   7.794
  878POPC   NC314255  29.070  30.441   9.493
  878POPC   PO414256  28.923  31.109   9.498
  878POPC   GL114257  28.855  30.799   9.182
  878POPC   GL214258  29.221  30.800   9.142
  878POPC   C1A14259  28.941  30.612   8.751
  878POPC   D2A14260  28.909  30.451   8.312
  878POPC   C3A14261  29.038  30.759   8.024
  878POPC   C4A14262  29.158  30.773   7.611
  878POPC   C1B14263  29.493  30.650   8.805
  878POPC   C2B14264  29.379  30.673   8.389
  878POPC   C3B14265  29.541  30.584   7.969
  878POPC   C4B14266  29.657  30.794   7.575
  879POPC   NC314267  36.071  16.384   9.571
  879POPC   PO414268  36.019  15.730   9.566
  879POPC   GL114269  36.252  15.960   9.255
  879POPC   GL214270  36.488  16.279   9.316
  879POPC   C1A14271  36.161  15.878   8.831
  879POPC   D2A14272  35.907  16.028   8.505
  879POPC   C3A14273  35.962  15.748   8.170
  879POPC   C4A14274  36.092  15.941   7.817
  879POPC   C1B14275  36.376  16.333   8.900
  879POPC   C2B14276  36.616  16.375   8.528
  879POPC   C3B14277  36.446  16.216   8.144
  879POPC   C4B14278  36.574  16.101   7.743
  880POPC   NC314279  38.971  41.762   9.540
  880POPC   PO414280  39.018  41.109   9.335
  880POPC   GL114281  39.198  41.475   9.057
  880POPC   GL214282  39.223  41.836   9.128
  880POPC   C1A14283  39.106  41.687   8.656
  880POPC   D2A14284  38.974  41.630   8.250
  880POPC   C3A14285  39.227  41.370   8.033
  880POPC   C4A14286  39.231  41.514   7.643
  880POPC   C1B14287  39.474  41.988   8.876
  880POPC   C2B14288  39.500  41.980   8.454
  880POPC   C3B14289  39.492  41.793   8.080
  880POPC   C4B14290  39.533  41.946   7.651
  881POPC   NC314291  23.353   6.979   9.395
  881POPC   PO414292  23.840   6.551   9.564
  881POPC   GL114293  23.774   6.620   9.107
  881POPC   GL214294  23.471   6.606   8.871
  881POPC   C1A14295  23.931   6.709   8.703
  881POPC   D2A14296  23.799   6.569   8.325
  881POPC   C3A14297  23.973   6.823   8.047
  881POPC   C4A14298  23.705   6.935   7.751
  881POPC   C1B14299  23.670   6.220   8.703
  881POPC   C2B14300  23.576   5.923   8.382
  881POPC   C3B14301  23.544   6.186   8.058
  881POPC   C4B14302  23.779   6.423   7.809
  882POPC   NC314303  26.615  20.774   9.960
  882POPC   PO414304  26.831  20.334   9.488
  882POPC   GL114305  26.652  20.616   9.222
  882POPC   GL214306  26.350  20.400   9.219
  882POPC   C1A14307  26.836  20.739   8.810
  882POPC   D2A14308  26.873  20.948   8.407
  882POPC   C3A14309  26.892  20.660   8.047
  882POPC   C4A14310  26.960  20.789   7.627
  882POPC   C1B14311  26.407  20.454   8.805
  882POPC   C2B14312  26.607  20.414   8.433
  882POPC   C3B14313  26.440  20.278   8.054
  882POPC   C4B14314  26.514  20.320   7.636
  883POPC   NC314315   8.153  35.037   9.814
  883POPC   PO414316   8.398  34.461   9.625
  883POPC   GL114317   8.370  34.422   9.210
  883POPC   GL214318   8.077  34.611   9.143
  883POPC   C1A14319   8.312  34.288   8.785
  883POPC   D2A14320   8.195  34.465   8.378
  883POPC   C3A14321   8.428  34.319   8.044
  883POPC   C4A14322   8.237  34.453   7.711
  883POPC   C1B14323   7.977  34.811   8.725
  883POPC   C2B14324   7.743  34.754   8.359
  883POPC   C3B14325   7.810  34.650   7.931
  883POPC   C4B14326   7.807  34.645   7.470
  884POPC   NC314327  24.199  31.563   9.444
  884POPC   PO414328  24.929  31.743   9.496
  884POPC   GL114329  24.618  31.718   9.185
  884POPC   GL214330  24.590  31.340   9.171
  884POPC   C1A14331  24.530  31.623   8.755
  884POPC   D2A14332  24.596  31.424   8.347
  884POPC   C3A14333  24.551  31.654   7.962
  884POPC   C4A14334  24.446  31.714   7.528
  884POPC   C1B14335  24.350  31.142   8.805
  884POPC   C2B14336  24.459  30.929   8.411
  884POPC   C3B14337  24.710  31.019   8.038
  884POPC   C4B14338  24.625  31.241   7.666
  885POPC   NC314339   3.414  38.673   9.704
  885POPC   PO414340   3.741  38.094   9.565
  885POPC   GL114341   3.653  38.413   9.230
  885POPC   GL214342   3.478  38.767   9.198
  885POPC   C1A14343   3.717  38.370   8.787
  885POPC   D2A14344   3.535  38.317   8.382
  885POPC   C3A14345   3.869  38.493   8.150
  885POPC   C4A14346   3.870  38.555   7.724
  885POPC   C1B14347   3.700  38.883   8.805
  885POPC   C2B14348   3.551  38.838   8.389
  885POPC   C3B14349   3.437  38.700   8.014
  885POPC   C4B14350   3.391  38.735   7.608
  886POPC   NC314351  29.456  19.401   9.482
  886POPC   PO414352  29.001  18.834   9.463
  886POPC   GL114353  29.174  19.101   9.159
  886POPC   GL214354  29.497  18.952   9.177
  886POPC   C1A14355  29.039  19.174   8.744
  886POPC   D2A14356  28.896  19.019   8.346
  886POPC   C3A14357  29.251  18.965   8.082
  886POPC   C4A14358  29.312  18.792   7.691
  886POPC   C1B14359  29.576  19.232   8.829
  886POPC   C2B14360  29.420  19.346   8.420
  886POPC   C3B14361  29.102  19.454   8.101
  886POPC   C4B14362  29.186  19.284   7.679
  887POPC   NC314363  13.667   5.125   9.460
  887POPC   PO414364  13.214   5.617   9.365
  887POPC   GL114365  13.366   5.361   9.037
  887POPC   GL214366  13.703   5.406   9.040
  887POPC   C1A14367  13.472   5.258   8.590
  887POPC   D2A14368  13.447   4.906   8.285
  887POPC   C3A14369  13.353   5.004   7.850
  887POPC   C4A14370  13.390   5.303   7.525
  887POPC   C1B14371  13.851   5.049   8.852
  887POPC   C2B14372  13.925   5.011   8.443
  887POPC   C3B14373  13.927   4.784   8.084
  887POPC   C4B14374  13.858   5.010   7.714
  888POPC   NC314375  26.096  19.526   9.746
  888POPC   PO414376  26.091  18.877   9.591
  888POPC   GL114377  26.127  19.063   9.211
  888POPC   GL214378  25.800  19.117   9.160
  888POPC   C1A14379  26.268  19.065   8.793
  888POPC   D2A14380  26.078  19.072   8.390
  888POPC   C3A14381  25.925  19.053   7.983
  888POPC   C4A14382  26.148  19.047   7.622
  888POPC   C1B14383  25.814  18.827   8.786
  888POPC   C2B14384  25.618  18.860   8.367
  888POPC   C3B14385  25.635  18.609   7.971
  888POPC   C4B14386  25.793  18.680   7.553
  889POPC   NC314387  26.834   2.431   9.603
  889POPC   PO414388  26.756   3.092   9.485
  889POPC   GL114389  26.778   2.775   9.191
  889POPC   GL214390  27.140   2.668   9.188
  889POPC   C1A14391  26.701   2.762   8.751
  889POPC   D2A14392  26.827   2.516   8.414
  889POPC   C3A14393  26.612   2.691   8.061
  889POPC   C4A14394  26.574   2.528   7.662
  889POPC   C1B14395  27.145   3.013   8.844
  889POPC   C2B14396  27.110   2.950   8.378
  889POPC   C3B14397  27.037   2.899   7.899
  889POPC   C4B14398  27.184   2.987   7.475
  890POPC   NC314399  26.902  25.131   9.523
  890POPC   PO414400  27.105  25.716   9.408
  890POPC   GL114401  26.814  25.415   9.127
  890POPC   GL214402  27.029  25.077   9.037
  890POPC   C1A14403  26.615  25.169   8.785
  890POPC   D2A14404  26.771  25.241   8.378
  890POPC   C3A14405  26.561  25.175   8.005
  890POPC   C4A14406  26.720  24.973   7.640
  890POPC   C1B14407  27.128  25.412   8.730
  890POPC   C2B14408  27.171  25.554   8.303
  890POPC   C3B14409  27.039  25.372   7.889
  890POPC   C4B14410  27.190  25.131   7.523
  891POPC   NC314411  42.657  28.525   9.815
  891POPC   PO414412  42.138  28.260   9.486
  891POPC   GL114413  42.265  28.418   9.100
  891POPC   GL214414  42.483  28.694   9.064
  891POPC   C1A14415  42.327  28.375   8.667
  891POPC   D2A14416  42.516  28.234   8.310
  891POPC   C3A14417  42.299  28.127   7.932
  891POPC   C4A14418  42.541  28.208   7.563
  891POPC   C1B14419  42.092  28.817   8.793
  891POPC   C2B14420  42.002  28.653   8.385
  891POPC   C3B14421  42.237  28.641   7.988
  891POPC   C4B14422  42.107  28.477   7.581
  892POPC   NC314423  12.940   3.082   9.533
  892POPC   PO414424  12.567   2.507   9.419
  892POPC   GL114425  12.797   2.669   9.105
  892POPC   GL214426  12.691   2.993   9.094
  892POPC   C1A14427  12.879   2.582   8.679
  892POPC   D2A14428  12.633   2.587   8.333
  892POPC   C3A14429  12.844   2.494   7.990
  892POPC   C4A14430  12.973   2.612   7.634
  892POPC   C1B14431  13.136   2.981   8.872
  892POPC   C2B14432  13.332   2.899   8.453
  892POPC   C3B14433  13.221   2.957   7.977
  892POPC   C4B14434  13.283   2.991   7.484
  893POPC   NC314435   3.973  41.711   9.428
  893POPC   PO414436   4.680  41.878   9.494
  893POPC   GL114437   4.489  41.768   9.131
  893POPC   GL214438   4.416  41.449   9.265
  893POPC   C1A14439   4.481  41.713   8.687
  893POPC   D2A14440   4.170  41.743   8.363
  893POPC   C3A14441   4.413  41.739   8.048
  893POPC   C4A14442   4.596  41.642   7.715
  893POPC   C1B14443   4.436  41.235   8.876
  893POPC   C2B14444   4.400  41.266   8.430
  893POPC   C3B14445   4.141  41.303   8.085
  893POPC   C4B14446   4.091  41.257   7.658
  894POPC   NC314447  11.336  40.300   9.471
  894POPC   PO414448  11.672  39.713   9.524
  894POPC   GL114449  11.487  39.867   9.139
  894POPC   GL214450  11.125  39.967   9.029
  894POPC   C1A14451  11.486  39.910   8.701
  894POPC   D2A14452  11.072  39.953   8.484
  894POPC   C3A14453  11.186  39.940   8.068
  894POPC   C4A14454  11.337  39.713   7.723
  894POPC   C1B14455  11.218  40.339   8.773
  894POPC   C2B14456  11.461  40.306   8.355
  894POPC   C3B14457  11.388  40.393   7.894
  894POPC   C4B14458  11.410  40.151   7.500
  895POPC   NC314459  28.020  30.719   9.587
  895POPC   PO414460  28.611  30.435   9.498
  895POPC   GL114461  28.349  30.586   9.201
  895POPC   GL214462  28.338  30.943   9.236
  895POPC   C1A14463  28.069  30.689   8.891
  895POPC   D2A14464  28.109  30.845   8.503
  895POPC   C3A14465  28.322  30.572   8.231
  895POPC   C4A14466  28.143  30.621   7.834
  895POPC   C1B14467  28.535  31.013   8.819
  895POPC   C2B14468  28.705  30.943   8.396
  895POPC   C3B14469  28.554  30.949   7.961
  895POPC   C4B14470  28.654  30.545   7.789
  896POPC   NC314471  33.440  23.856   9.601
  896POPC   PO414472  32.888  23.395   9.479
  896POPC   GL114473  32.986  23.596   9.136
  896POPC   GL214474  33.110  23.900   9.144
  896POPC   C1A14475  32.854  23.677   8.740
  896POPC   D2A14476  33.035  23.499   8.393
  896POPC   C3A14477  32.966  23.733   8.047
  896POPC   C4A14478  32.639  23.714   7.780
  896POPC   C1B14479  32.895  24.187   8.845
  896POPC   C2B14480  32.972  24.095   8.398
  896POPC   C3B14481  32.844  24.228   7.962
  896POPC   C4B14482  32.566  24.186   7.600
  897POPC   NC314483  33.266  22.379   9.355
  897POPC   PO414484  32.979  21.801   9.519
  897POPC   GL114485  32.884  22.025   9.152
  897POPC   GL214486  32.504  21.949   9.154
  897POPC   C1A14487  33.115  22.188   8.745
  897POPC   D2A14488  33.243  22.471   8.385
  897POPC   C3A14489  33.112  22.272   8.030
  897POPC   C4A14490  32.927  22.236   7.641
  897POPC   C1B14491  32.648  21.846   8.743
  897POPC   C2B14492  32.905  21.869   8.380
  897POPC   C3B14493  32.684  21.881   8.017
  897POPC   C4B14494  32.788  21.756   7.632
  898POPC   NC314495   9.010  28.726   9.508
  898POPC   PO414496   9.188  29.338   9.521
  898POPC   GL114497   9.011  29.135   9.202
  898POPC   GL214498   9.300  28.958   9.136
  898POPC   C1A14499   8.951  28.815   8.848
  898POPC   D2A14500   9.136  28.617   8.505
  898POPC   C3A14501   9.214  28.892   8.157
  898POPC   C4A14502   9.159  28.886   7.697
  898POPC   C1B14503   9.192  29.252   8.730
  898POPC   C2B14504   8.955  29.503   8.367
  898POPC   C3B14505   8.927  29.601   7.901
  898POPC   C4B14506   9.037  29.342   7.525
  899POPC   NC314507   5.830  37.178   9.570
  899POPC   PO414508   5.874  36.343   9.494
  899POPC   GL114509   5.787  36.509   9.099
  899POPC   GL214510   5.890  36.874   9.129
  899POPC   C1A14511   5.711  36.670   8.683
  899POPC   D2A14512   5.672  36.948   8.321
  899POPC   C3A14513   5.811  36.777   7.936
  899POPC   C4A14514   5.999  36.843   7.512
  899POPC   C1B14515   5.857  37.161   8.770
  899POPC   C2B14516   6.031  37.298   8.378
  899POPC   C3B14517   6.007  37.233   7.944
  899POPC   C4B14518   6.169  37.434   7.624
  900POPC   NC314519  26.115  24.617   9.641
  900POPC   PO414520  26.525  24.072   9.503
  900POPC   GL114521  26.212  24.292   9.231
  900POPC   GL214522  26.272  24.661   9.170
  900POPC   C1A14523  26.007  24.315   8.824
  900POPC   D2A14524  25.867  24.112   8.430
  900POPC   C3A14525  25.897  24.349   8.059
  900POPC   C4A14526  25.818  24.754   7.913
  900POPC   C1B14527  26.432  24.656   8.770
  900POPC   C2B14528  26.231  24.537   8.402
  900POPC   C3B14529  26.346  24.633   7.976
  900POPC   C4B14530  26.222  24.942   7.680
  901POPC   NC314531  10.929  42.045   9.238
  901POPC   PO414532  10.356  42.364   9.533
  901POPC   GL114533  10.526  42.466   9.141
  901POPC   GL214534  10.874  42.504   9.044
  901POPC   C1A14535  10.314  42.652   8.821
  901POPC   D2A14536  10.407  42.565   8.405
  901POPC   C3A14537  10.192  42.644   8.042
  901POPC   C4A14538  10.399  42.313   7.828
  901POPC   C1B14539  10.725  42.272   8.667
  901POPC   C2B14540  10.590  42.091   8.251
  901POPC   C3B14541  10.763  41.931   7.837
  901POPC   C4B14542  10.900  42.021   7.375
  902POPC   NC314543  32.633  25.700   9.466
  902POPC   PO414544  32.171  25.188   9.514
  902POPC   GL114545  32.150  25.393   9.147
  902POPC   GL214546  31.955  25.123   8.990
  902POPC   C1A14547  32.132  25.518   8.734
  902POPC   D2A14548  32.094  25.377   8.312
  902POPC   C3A14549  32.328  25.590   7.940
  902POPC   C4A14550  32.373  25.554   7.461
  902POPC   C1B14551  32.306  25.023   8.699
  902POPC   C2B14552  32.351  24.948   8.248
  902POPC   C3B14553  32.402  25.093   7.817
  902POPC   C4B14554  32.239  24.933   7.429
  903POPC   NC314555  33.188  40.188   9.774
  903POPC   PO414556  33.131  40.797   9.522
  903POPC   GL114557  33.149  40.873   9.127
  903POPC   GL214558  32.817  40.765   9.080
  903POPC   C1A14559  33.235  40.657   8.759
  903POPC   D2A14560  33.125  40.823   8.396
  903POPC   C3A14561  32.940  40.607   8.094
  903POPC   C4A14562  33.094  40.739   7.729
  903POPC   C1B14563  32.803  41.042   8.740
  903POPC   C2B14564  32.623  40.965   8.325
  903POPC   C3B14565  32.744  41.049   7.938
  903POPC   C4B14566  32.729  41.162   7.534
  904POPC   NC314567  12.046  38.151   9.400
  904POPC   PO414568  11.925  38.765   9.713
  904POPC   GL114569  11.829  38.657   9.244
  904POPC   GL214570  11.630  38.366   9.188
  904POPC   C1A14571  12.024  38.495   8.825
  904POPC   D2A14572  12.349  38.616   8.491
  904POPC   C3A14573  12.216  38.543   8.051
  904POPC   C4A14574  12.277  38.168   7.826
  904POPC   C1B14575  11.573  38.227   8.753
  904POPC   C2B14576  11.837  38.276   8.366
  904POPC   C3B14577  11.791  38.033   7.972
  904POPC   C4B14578  11.868  38.068   7.526
  905POPC   NC314579  16.214   3.573   9.521
  905POPC   PO414580  15.633   3.297   9.126
  905POPC   GL114581  16.019   3.351   9.078
  905POPC   GL214582  16.004   3.694   9.091
  905POPC   C1A14583  16.058   3.457   8.660
  905POPC   D2A14584  15.796   3.384   8.333
  905POPC   C3A14585  15.943   3.529   7.971
  905POPC   C4A14586  15.774   3.798   7.618
  905POPC   C1B14587  16.424   3.706   8.896
  905POPC   C2B14588  16.559   3.654   8.476
  905POPC   C3B14589  16.459   3.849   8.045
  905POPC   C4B14590  16.295   3.739   7.685
  906POPC   NC314591  23.905   9.292   9.217
  906POPC   PO414592  23.646   8.812   9.619
  906POPC   GL114593  23.805   8.621   9.147
  906POPC   GL214594  24.124   8.633   9.037
  906POPC   C1A14595  23.709   8.668   8.666
  906POPC   D2A14596  23.441   8.958   8.406
  906POPC   C3A14597  23.569   9.051   7.982
  906POPC   C4A14598  23.497   9.296   7.634
  906POPC   C1B14599  24.128   8.968   8.710
  906POPC   C2B14600  23.970   9.270   8.387
  906POPC   C3B14601  24.027   9.302   7.944
  906POPC   C4B14602  23.968   9.065   7.602
  907POPC   NC314603  24.410  43.843   9.435
  907POPC   PO414604  24.569  44.428   9.461
  907POPC   GL114605  24.428  44.243   9.112
  907POPC   GL214606  24.717  44.022   9.058
  907POPC   C1A14607  24.362  44.185   8.694
  907POPC   D2A14608  24.540  44.014   8.313
  907POPC   C3A14609  24.458  43.650   8.036
  907POPC   C4A14610  24.287  43.598   7.615
  907POPC   C1B14611  24.761  43.757   8.701
  907POPC   C2B14612  24.846  43.497   8.352
  907POPC   C3B14613  25.003  43.517   7.953
  907POPC   C4B14614  24.813  43.663   7.574
  908POPC   NC314615  34.662  37.416   9.559
  908POPC   PO414616  34.506  38.051   9.796
  908POPC   GL114617  34.386  37.829   9.324
  908POPC   GL214618  34.379  37.469   9.138
  908POPC   C1A14619  34.548  37.830   8.836
  908POPC   D2A14620  34.351  37.811   8.379
  908POPC   C3A14621  34.577  37.831   7.991
  908POPC   C4A14622  34.544  37.621   7.605
  908POPC   C1B14623  34.359  37.388   8.677
  908POPC   C2B14624  34.737  37.475   8.380
  908POPC   C3B14625  34.801  37.328   7.955
  908POPC   C4B14626  34.390  37.156   7.839
  909POPC   NC314627   4.158  43.571   9.499
  909POPC   PO414628   4.089  44.244   9.377
  909POPC   GL114629   4.330  44.118   9.050
  909POPC   GL214630   4.431  43.776   9.090
  909POPC   C1A14631   4.138  43.975   8.678
  909POPC   D2A14632   4.122  43.750   8.283
  909POPC   C3A14633   4.128  44.046   7.939
  909POPC   C4A14634   4.504  44.135   7.751
  909POPC   C1B14635   4.410  43.543   8.685
  909POPC   C2B14636   4.634  43.622   8.288
  909POPC   C3B14637   4.447  43.617   7.889
  909POPC   C4B14638   4.029  43.580   7.736
  910POPC   NC314639  11.361  27.430   9.730
  910POPC   PO414640  11.456  28.003   9.584
  910POPC   GL114641  11.297  27.805   9.189
  910POPC   GL214642  11.134  27.485   9.206
  910POPC   C1A14643  11.078  27.861   8.800
  910POPC   D2A14644  11.160  28.020   8.372
  910POPC   C3A14645  11.080  27.801   8.036
  910POPC   C4A14646  11.367  27.738   7.677
  910POPC   C1B14647  11.197  27.358   8.747
  910POPC   C2B14648  11.320  27.479   8.321
  910POPC   C3B14649  11.173  27.319   7.880
  910POPC   C4B14650  11.260  26.942   7.605
  911POPC   NC314651  18.275  44.194   9.484
  911POPC   PO414652  18.607  44.797   9.570
  911POPC   GL114653  18.513  44.622   9.163
  911POPC   GL214654  18.635  44.958   9.052
  911POPC   C1A14655  18.542  44.230   8.870
  911POPC   D2A14656  18.504  44.167   8.420
  911POPC   C3A14657  18.258  44.544   8.233
  911POPC   C4A14658  18.126  44.585   7.801
  911POPC   C1B14659  18.313  44.953   8.721
  911POPC   C2B14660  18.439   0.060   8.295
  911POPC   C3B14661  18.429  44.972   7.890
  911POPC   C4B14662  18.050   0.083   7.715
  912POPC   NC314663  34.670  39.472   9.441
  912POPC   PO414664  34.501  38.823   9.509
  912POPC   GL114665  34.455  39.118   9.147
  912POPC   GL214666  34.340  39.490   9.065
  912POPC   C1A14667  34.667  39.188   8.765
  912POPC   D2A14668  34.611  38.960   8.427
  912POPC   C3A14669  34.710  39.099   8.012
  912POPC   C4A14670  34.334  39.176   7.787
  912POPC   C1B14671  34.272  39.565   8.630
  912POPC   C2B14672  34.513  39.463   8.305
  912POPC   C3B14673  34.758  39.625   7.995
  912POPC   C4B14674  34.743  39.423   7.617
  913POPC   NC314675  36.858  24.571   9.569
  913POPC   PO414676  37.230  23.996   9.515
  913POPC   GL114677  36.949  24.139   9.159
  913POPC   GL214678  36.881  24.514   9.072
  913POPC   C1A14679  36.721  24.152   8.777
  913POPC   D2A14680  36.726  24.565   8.559
  913POPC   C3A14681  36.737  24.608   8.111
  913POPC   C4A14682  36.604  24.380   7.752
  913POPC   C1B14683  37.159  24.734   8.767
  913POPC   C2B14684  37.250  24.627   8.308
  913POPC   C3B14685  37.174  24.780   7.844
  913POPC   C4B14686  37.210  24.947   7.383
  914POPC   NC314687  25.571  33.764   9.456
  914POPC   PO414688  26.262  33.813   9.674
  914POPC   GL114689  26.274  33.805   9.239
  914POPC   GL214690  26.383  34.134   9.149
  914POPC   C1A14691  26.015  33.730   8.897
  914POPC   D2A14692  26.078  33.535   8.493
  914POPC   C3A14693  25.849  33.671   8.157
  914POPC   C4A14694  25.806  33.571   7.758
  914POPC   C1B14695  26.262  34.118   8.697
  914POPC   C2B14696  26.281  33.959   8.285
  914POPC   C3B14697  26.209  33.919   7.845
  914POPC   C4B14698  26.442  34.012   7.450
  915POPC   NC314699  41.178   2.595   9.495
  915POPC   PO414700  40.563   2.823   9.504
  915POPC   GL114701  40.878   2.889   9.179
  915POPC   GL214702  41.231   3.046   9.212
  915POPC   C1A14703  40.918   2.873   8.757
  915POPC   D2A14704  40.747   2.980   8.389
  915POPC   C3A14705  40.943   2.758   8.069
  915POPC   C4A14706  40.832   2.595   7.698
  915POPC   C1B14707  41.397   3.021   8.776
  915POPC   C2B14708  41.256   3.128   8.333
  915POPC   C3B14709  41.141   3.156   7.849
  915POPC   C4B14710  41.069   2.999   7.408
  916POPC   NC314711  12.991  39.700   9.301
  916POPC   PO414712  13.215  39.119   9.594
  916POPC   GL114713  13.075  39.005   9.119
  916POPC   GL214714  13.018  39.309   9.006
  916POPC   C1A14715  12.719  39.051   8.728
  916POPC   D2A14716  12.886  39.057   8.301
  916POPC   C3A14717  12.609  39.185   7.951
  916POPC   C4A14718  12.468  39.416   7.588
  916POPC   C1B14719  13.250  39.511   8.711
  916POPC   C2B14720  13.155  39.495   8.303
  916POPC   C3B14721  13.093  39.344   7.906
  916POPC   C4B14722  13.071  39.280   7.450
  917POPC   NC314723   7.044  18.552   9.470
  917POPC   PO414724   6.452  18.192   9.567
  917POPC   GL114725   6.586  18.116   9.207
  917POPC   GL214726   6.370  17.803   9.210
  917POPC   C1A14727   6.734  18.277   8.826
  917POPC   D2A14728   6.446  18.521   8.598
  917POPC   C3A14729   6.436  18.363   8.182
  917POPC   C4A14730   6.276  18.395   7.775
  917POPC   C1B14731   6.656  17.772   8.856
  917POPC   C2B14732   6.656  17.933   8.449
  917POPC   C3B14733   6.844  18.081   8.088
  917POPC   C4B14734   6.674  18.099   7.712
  918POPC   NC314735  26.551  41.728   9.458
  918POPC   PO414736  27.225  41.684   9.614
  918POPC   GL114737  27.045  41.607   9.175
  918POPC   GL214738  26.794  41.396   9.148
  918POPC   C1A14739  26.769  41.755   8.778
  918POPC   D2A14740  26.665  41.872   8.310
  918POPC   C3A14741  26.888  41.609   7.990
  918POPC   C4A14742  26.962  41.251   7.702
  918POPC   C1B14743  26.586  41.246   8.768
  918POPC   C2B14744  26.415  41.379   8.360
  918POPC   C3B14745  26.490  41.259   7.924
  918POPC   C4B14746  26.522  41.114   7.492
  919POPC   NC314747   5.293  39.070   9.545
  919POPC   PO414748   4.890  39.561   9.565
  919POPC   GL114749   5.079  39.358   9.143
  919POPC   GL214750   5.236  38.996   9.064
  919POPC   C1A14751   5.129  39.376   8.679
  919POPC   D2A14752   4.843  39.183   8.342
  919POPC   C3A14753   4.899  39.391   7.966
  919POPC   C4A14754   5.291  39.530   7.859
  919POPC   C1B14755   4.931  38.898   8.794
  919POPC   C2B14756   4.905  38.685   8.415
  919POPC   C3B14757   5.116  38.806   8.058
  919POPC   C4B14758   5.139  39.045   7.673
  920POPC   NC314759  39.362  11.044   9.623
  920POPC   PO414760  39.341  11.687   9.617
  920POPC   GL114761  39.579  11.402   9.299
  920POPC   GL214762  39.259  11.263   9.162
  920POPC   C1A14763  39.631  11.328   8.824
  920POPC   D2A14764  39.462  11.503   8.421
  920POPC   C3A14765  39.710  11.513   8.049
  920POPC   C4A14766  39.806  11.120   7.877
  920POPC   C1B14767  39.219  11.038   8.744
  920POPC   C2B14768  39.213  11.054   8.273
  920POPC   C3B14769  39.261  11.309   7.900
  920POPC   C4B14770  39.069  11.385   7.491
  921POPC   NC314771  17.576  40.782   9.348
  921POPC   PO414772  17.015  41.087   9.488
  921POPC   GL114773  17.299  41.174   9.127
  921POPC   GL214774  17.654  41.335   9.161
  921POPC   C1A14775  17.351  40.943   8.729
  921POPC   D2A14776  17.528  40.560   8.520
  921POPC   C3A14777  17.568  40.712   8.115
  921POPC   C4A14778  17.508  40.562   7.732
  921POPC   C1B14779  17.928  41.111   8.860
  921POPC   C2B14780  17.828  40.970   8.487
  921POPC   C3B14781  17.982  41.023   8.103
  921POPC   C4B14782  17.814  40.970   7.719
  922POPC   NC314783  24.673  43.038   9.473
  922POPC   PO414784  24.172  43.458   9.405
  922POPC   GL114785  24.424  43.283   9.101
  922POPC   GL214786  24.713  43.473   9.129
  922POPC   C1A14787  24.410  42.911   8.842
  922POPC   D2A14788  24.184  42.869   8.496
  922POPC   C3A14789  24.244  43.158   8.179
  922POPC   C4A14790  24.206  43.048   7.762
  922POPC   C1B14791  24.833  43.194   8.787
  922POPC   C2B14792  24.713  42.979   8.386
  922POPC   C3B14793  24.695  43.109   7.939
  922POPC   C4B14794  24.615  43.189   7.499
  923POPC   NC314795   1.238  29.953   9.636
  923POPC   PO414796   0.587  30.022   9.517
  923POPC   GL114797   0.985  30.046   9.196
  923POPC   GL214798   1.276  29.837   9.135
  923POPC   C1A14799   1.133  30.193   8.759
  923POPC   D2A14800   1.144  30.385   8.333
  923POPC   C3A14801   1.126  30.062   8.077
  923POPC   C4A14802   1.143  29.945   7.707
  923POPC   C1B14803   1.028  29.699   8.766
  923POPC   C2B14804   1.096  29.606   8.290
  923POPC   C3B14805   1.390  29.549   7.883
  923POPC   C4B14806   1.460  29.687   7.393
  924POPC   NC314807  13.759  39.100   9.529
  924POPC   PO414808  13.452  39.743   9.414
  924POPC   GL114809  13.483  39.391   9.198
  924POPC   GL214810  13.832  39.475   9.167
  924POPC   C1A14811  13.617  39.154   8.838
  924POPC   D2A14812  13.673  39.359   8.460
  924POPC   C3A14813  13.510  39.136   8.131
  924POPC   C4A14814  13.547  39.199   7.704
  924POPC   C1B14815  14.115  39.460   8.831
  924POPC   C2B14816  14.107  39.630   8.436
  924POPC   C3B14817  13.971  39.433   8.055
  924POPC   C4B14818  13.870  39.586   7.661
  925POPC   NC314819   3.191  16.892   9.561
  925POPC   PO414820   2.876  16.315   9.406
  925POPC   GL114821   2.806  16.717   9.195
  925POPC   GL214822   2.543  16.511   9.045
  925POPC   C1A14823   2.716  16.912   8.793
  925POPC   D2A14824   2.840  16.730   8.392
  925POPC   C3A14825   2.638  16.938   8.070
  925POPC   C4A14826   2.834  17.135   7.743
  925POPC   C1B14827   2.487  16.462   8.629
  925POPC   C2B14828   2.556  16.268   8.260
  925POPC   C3B14829   2.492  16.392   7.833
  925POPC   C4B14830   2.832  16.626   7.704
  926POPC   NC314831  34.328  44.859   9.464
  926POPC   PO414832  34.795  44.562   9.539
  926POPC   GL114833  34.623  44.543   9.137
  926POPC   GL214834  34.484  44.833   8.977
  926POPC   C1A14835  34.630  44.386   8.714
  926POPC   D2A14836  34.663  44.593   8.353
  926POPC   C3A14837  34.533  44.499   7.968
  926POPC   C4A14838  34.836  44.637   7.688
  926POPC   C1B14839  34.163  44.569   8.784
  926POPC   C2B14840  34.075  44.631   8.350
  926POPC   C3B14841  34.337  44.958   8.147
  926POPC   C4B14842  34.433  44.961   7.712
  927POPC   NC314843  37.015  44.756  10.050
  927POPC   PO414844  36.567  44.372   9.719
  927POPC   GL114845  36.727  44.690   9.393
  927POPC   GL214846  37.092  44.640   9.330
  927POPC   C1A14847  36.756  44.774   8.921
  927POPC   D2A14848  36.815  44.477   8.513
  927POPC   C3A14849  36.824  44.620   8.034
  927POPC   C4A14850  36.842  44.896   7.632
  927POPC   C1B14851  37.189  44.506   8.897
  927POPC   C2B14852  37.361  44.477   8.467
  927POPC   C3B14853  37.330  44.557   8.044
  927POPC   C4B14854  37.209  44.509   7.631
  928POPC   NC314855   1.681  43.414   9.387
  928POPC   PO414856   0.994  43.024   9.481
  928POPC   GL114857   1.104  43.054   9.074
  928POPC   GL214858   1.451  43.052   9.066
  928POPC   C1A14859   1.200  42.906   8.660
  928POPC   D2A14860   1.332  43.118   8.274
  928POPC   C3A14861   1.020  43.120   7.913
  928POPC   C4A14862   0.926  42.845   7.538
  928POPC   C1B14863   1.441  43.358   8.720
  928POPC   C2B14864   1.691  43.517   8.378
  928POPC   C3B14865   1.616  43.399   7.968
  928POPC   C4B14866   1.497  43.008   7.796
  929POPC   NC314867  31.044  44.394   9.866
  929POPC   PO414868  30.514  44.682   9.494
  929POPC   GL114869  30.599  44.746   9.072
  929POPC   GL214870  30.539  44.465   9.041
  929POPC   C1A14871  30.757  44.824   8.686
  929POPC   D2A14872  30.727  44.636   8.320
  929POPC   C3A14873  30.809  44.798   7.944
  929POPC   C4A14874  30.729  44.602   7.559
  929POPC   C1B14875  30.562  44.328   8.689
  929POPC   C2B14876  30.788  44.085   8.429
  929POPC   C3B14877  30.730  44.238   8.015
  929POPC   C4B14878  30.806  44.052   7.655
  930POPC   NC314879  27.468  13.294   9.309
  930POPC   PO414880  27.768  13.892   9.507
  930POPC   GL114881  27.654  13.753   9.104
  930POPC   GL214882  27.788  13.449   8.942
  930POPC   C1A14883  27.394  13.666   8.742
  930POPC   D2A14884  27.361  13.388   8.358
  930POPC   C3A14885  27.394  13.675   8.033
  930POPC   C4A14886  27.361  13.698   7.616
  930POPC   C1B14887  27.834  13.533   8.521
  930POPC   C2B14888  27.832  13.450   8.121
  930POPC   C3B14889  27.599  13.268   7.820
  930POPC   C4B14890  27.375  13.238   7.396
  931POPC   NC314891  38.245  14.185   9.424
  931POPC   PO414892  38.209  14.897   9.519
  931POPC   GL114893  38.303  14.655   9.136
  931POPC   GL214894  38.614  14.481   9.151
  931POPC   C1A14895  38.186  14.513   8.722
  931POPC   D2A14896  38.268  14.706   8.315
  931POPC   C3A14897  38.194  14.516   7.892
  931POPC   C4A14898  38.184  14.416   7.442
  931POPC   C1B14899  38.664  14.678   8.732
  931POPC   C2B14900  38.802  14.582   8.316
  931POPC   C3B14901  38.664  14.710   7.911
  931POPC   C4B14902  38.629  14.327   7.704
  932POPC   NC314903  10.997  17.207   9.436
  932POPC   PO414904  11.509  17.781   9.562
  932POPC   GL114905  11.301  17.682   9.226
  932POPC   GL214906  11.440  17.375   9.204
  932POPC   C1A14907  11.254  17.606   8.794
  932POPC   D2A14908  11.239  17.855   8.440
  932POPC   C3A14909  11.222  17.601   8.080
  932POPC   C4A14910  11.275  17.678   7.655
  932POPC   C1B14911  11.493  17.133   8.828
  932POPC   C2B14912  11.714  16.955   8.475
  932POPC   C3B14913  11.838  17.149   8.059
  932POPC   C4B14914  11.599  17.288   7.705
  933POPC   NC314915  25.815   6.000   9.660
  933POPC   PO414916  25.144   5.847   9.566
  933POPC   GL114917  25.215   5.720   9.189
  933POPC   GL214918  24.925   5.491   9.182
  933POPC   C1A14919  25.452   5.857   8.840
  933POPC   D2A14920  25.434   6.117   8.477
  933POPC   C3A14921  25.375   5.990   8.060
  933POPC   C4A14922  25.246   5.997   7.623
  933POPC   C1B14923  25.037   5.543   8.760
  933POPC   C2B14924  25.038   5.787   8.408
  933POPC   C3B14925  25.018   5.642   8.007
  933POPC   C4B14926  24.811   5.739   7.685
  934POPC   NC314927  17.180  36.011   9.531
  934POPC   PO414928  17.818  36.246   9.583
  934POPC   GL114929  17.605  36.185   9.227
  934POPC   GL214930  17.381  36.470   9.307
  934POPC   C1A14931  17.651  36.260   8.798
  934POPC   D2A14932  17.810  36.114   8.449
  934POPC   C3A14933  17.531  36.027   8.157
  934POPC   C4A14934  17.513  36.134   7.717
  934POPC   C1B14935  17.192  36.315   8.954
  934POPC   C2B14936  17.224  36.282   8.521
  934POPC   C3B14937  17.305  36.496   8.172
  934POPC   C4B14938  17.103  36.399   7.823
  935POPC   NC314939  35.759  14.568   9.558
  935POPC   PO414940  35.158  14.262   9.493
  935POPC   GL114941  35.161  14.507   9.147
  935POPC   GL214942  35.445  14.685   9.144
  935POPC   C1A14943  35.034  14.450   8.755
  935POPC   D2A14944  35.241  14.580   8.371
  935POPC   C3A14945  35.140  14.358   7.982
  935POPC   C4A14946  35.202  14.531   7.547
  935POPC   C1B14947  35.537  14.327   8.819
  935POPC   C2B14948  35.647  14.248   8.364
  935POPC   C3B14949  35.643  14.389   7.920
  935POPC   C4B14950  35.695  14.458   7.477
  936POPC   NC314951  35.737  17.843   9.554
  936POPC   PO414952  36.222  17.420   9.558
  936POPC   GL114953  36.132  17.686   9.230
  936POPC   GL214954  35.817  17.562   9.141
  936POPC   C1A14955  36.286  17.707   8.807
  936POPC   D2A14956  36.071  17.563   8.410
  936POPC   C3A14957  36.240  17.396   8.022
  936POPC   C4A14958  36.246  17.599   7.649
  936POPC   C1B14959  35.941  17.296   8.836
  936POPC   C2B14960  35.773  17.145   8.459
  936POPC   C3B14961  35.741  17.334   8.032
  936POPC   C4B14962  35.847  17.212   7.632
  937POPC   NC314963  26.926  29.325   9.804
  937POPC   PO414964  26.576  28.862   9.646
  937POPC   GL114965  26.686  29.209   9.356
  937POPC   GL214966  27.018  29.373   9.290
  937POPC   C1A14967  26.678  29.283   8.905
  937POPC   D2A14968  26.759  29.455   8.497
  937POPC   C3A14969  26.691  29.159   8.160
  937POPC   C4A14970  26.783  29.054   7.745
  937POPC   C1B14971  27.134  29.566   8.865
  937POPC   C2B14972  27.262  29.526   8.401
  937POPC   C3B14973  27.142  29.429   7.960
  937POPC   C4B14974  27.223  29.211   7.536
  938POPC   NC314975  21.390  21.554   9.549
  938POPC   PO414976  21.542  21.029   9.183
  938POPC   GL114977  21.160  21.204   9.047
  938POPC   GL214978  21.107  21.587   9.055
  938POPC   C1A14979  20.989  21.087   8.674
  938POPC   D2A14980  21.303  21.104   8.407
  938POPC   C3A14981  21.232  21.361   8.099
  938POPC   C4A14982  21.384  21.202   7.746
  938POPC   C1B14983  21.405  21.522   8.714
  938POPC   C2B14984  21.685  21.551   8.378
  938POPC   C3B14985  21.692  21.575   7.971
  938POPC   C4B14986  21.652  21.659   7.577
  939POPC   NC314987  37.766   6.870   9.808
  939POPC   PO414988  37.187   6.888   9.571
  939POPC   GL114989  37.456   6.850   9.202
  939POPC   GL214990  37.807   6.903   9.208
  939POPC   C1A14991  37.576   6.629   8.803
  939POPC   D2A14992  37.861   6.644   8.420
  939POPC   C3A14993  37.633   6.601   8.010
  939POPC   C4A14994  37.453   6.420   7.600
  939POPC   C1B14995  37.907   7.023   8.768
  939POPC   C2B14996  38.018   7.161   8.332
  939POPC   C3B14997  37.963   7.047   7.881
  939POPC   C4B14998  37.971   6.695   7.599
  940POPC   NC314999  40.704   3.563   9.553
  940POPC   PO415000  40.819   4.204   9.621
  940POPC   GL115001  40.887   3.896   9.197
  940POPC   GL215002  40.945   3.499   9.119
  940POPC   C1A15003  40.907   3.821   8.732
  940POPC   D2A15004  40.886   3.499   8.376
  940POPC   C3A15005  40.720   3.627   7.960
  940POPC   C4A15006  40.857   3.984   7.716
  940POPC   C1B15007  40.664   3.338   8.821
  940POPC   C2B15008  40.356   3.311   8.483
  940POPC   C3B15009  40.419   3.196   8.053
  940POPC   C4B15010  40.656   3.199   7.644
  941POPC   NC315011   7.714  43.408   9.822
  941POPC   PO415012   7.589  44.033   9.585
  941POPC   GL115013   7.462  44.024   9.146
  941POPC   GL215014   7.575  44.363   9.210
  941POPC   C1A15015   7.306  44.077   8.743
  941POPC   D2A15016   7.173  44.093   8.318
  941POPC   C3A15017   7.264  44.019   7.905
  941POPC   C4A15018   7.498  43.710   7.690
  941POPC   C1B15019   7.770  44.338   8.831
  941POPC   C2B15020   7.690  44.151   8.413
  941POPC   C3B15021   7.763  44.027   8.023
  941POPC   C4B15022   7.633  44.272   7.680
  942POPC   NC315023  29.121  12.468   9.393
  942POPC   PO415024  29.496  11.941   9.619
  942POPC   GL115025  29.267  11.966   9.207
  942POPC   GL215026  28.932  11.818   9.269
  942POPC   C1A15027  29.214  12.195   8.788
  942POPC   D2A15028  29.289  12.396   8.372
  942POPC   C3A15029  29.236  12.157   7.992
  942POPC   C4A15030  29.300  11.708   7.867
  942POPC   C1B15031  28.925  11.747   8.800
  942POPC   C2B15032  28.975  11.715   8.322
  942POPC   C3B15033  28.804  11.782   7.893
  942POPC   C4B15034  28.936  11.552   7.475
  943POPC   NC315035  10.392  18.690   9.781
  943POPC   PO415036  10.711  18.128   9.423
  943POPC   GL115037  10.537  18.188   9.059
  943POPC   GL215038  10.214  18.123   9.091
  943POPC   C1A15039  10.718  18.372   8.692
  943POPC   D2A15040  10.944  18.256   8.319
  943POPC   C3A15041  10.665  18.346   8.018
  943POPC   C4A15042  10.376  18.057   7.818
  943POPC   C1B15043  10.184  18.449   8.754
  943POPC   C2B15044   9.988  18.481   8.368
  943POPC   C3B15045  10.174  18.526   7.991
  943POPC   C4B15046  10.462  18.546   7.600
  944POPC   NC315047  13.168  16.808   9.619
  944POPC   PO415048  12.684  16.384   9.580
  944POPC   GL115049  12.910  16.500   9.200
  944POPC   GL215050  13.172  16.757   9.120
  944POPC   C1A15051  12.733  16.626   8.810
  944POPC   D2A15052  12.720  16.833   8.398
  944POPC   C3A15053  12.713  16.555   8.046
  944POPC   C4A15054  12.617  16.532   7.616
  944POPC   C1B15055  13.115  16.965   8.747
  944POPC   C2B15056  13.206  17.083   8.336
  944POPC   C3B15057  13.130  16.885   7.976
  944POPC   C4B15058  13.133  16.585   7.669
  945POPC   NC315059  38.339   0.445   9.411
  945POPC   PO415060  38.826   0.967   9.485
  945POPC   GL115061  38.625   0.746   9.120
  945POPC   GL215062  38.203   0.728   9.037
  945POPC   C1A15063  38.549   0.481   8.771
  945POPC   D2A15064  38.389   0.630   8.407
  945POPC   C3A15065  38.695   0.586   8.070
  945POPC   C4A15066  38.644   0.292   7.735
  945POPC   C1B15067  37.997   0.467   8.728
  945POPC   C2B15068  37.881   0.476   8.275
  945POPC   C3B15069  38.202   0.408   7.967
  945POPC   C4B15070  38.173   0.384   7.530
  946POPC   NC315071   6.396  16.926   9.525
  946POPC   PO415072   6.922  16.466   9.488
  946POPC   GL115073   6.766  16.774   9.147
  946POPC   GL215074   6.408  16.824   9.036
  946POPC   C1A15075   6.721  16.689   8.679
  946POPC   D2A15076   6.571  16.510   8.300
  946POPC   C3A15077   6.743  16.633   7.923
  946POPC   C4A15078   7.008  16.348   7.712
  946POPC   C1B15079   6.299  17.011   8.631
  946POPC   C2B15080   6.552  17.027   8.253
  946POPC   C3B15081   6.477  17.051   7.826
  946POPC   C4B15082   6.393  16.874   7.421
  947POPC   NC315083  37.009   5.754   9.513
  947POPC   PO415084  36.370   5.797   9.368
  947POPC   GL115085  36.610   6.024   9.109
  947POPC   GL215086  36.308   6.181   9.005
  947POPC   C1A15087  36.778   5.853   8.774
  947POPC   D2A15088  37.068   5.857   8.477
  947POPC   C3A15089  36.908   5.832   8.086
  947POPC   C4A15090  37.168   6.042   7.808
  947POPC   C1B15091  36.299   5.999   8.677
  947POPC   C2B15092  36.501   6.151   8.392
  947POPC   C3B15093  36.340   6.035   8.045
  947POPC   C4B15094  36.565   5.914   7.714
  948POPC   NC315095   8.207  32.467   9.404
  948POPC   PO415096   8.070  33.050   9.712
  948POPC   GL115097   7.972  33.047   9.213
  948POPC   GL215098   7.898  32.690   9.073
  948POPC   C1A15099   8.141  33.026   8.765
  948POPC   D2A15100   8.358  32.932   8.374
  948POPC   C3A15101   8.032  32.945   8.056
  948POPC   C4A15102   7.951  33.132   7.671
  948POPC   C1B15103   8.173  32.516   8.742
  948POPC   C2B15104   8.133  32.434   8.323
  948POPC   C3B15105   8.363  32.562   7.987
  948POPC   C4B15106   8.267  32.680   7.595
  949POPC   NC315107  22.409  35.946   9.554
  949POPC   PO415108  22.072  36.536   9.561
  949POPC   GL115109  22.109  36.193   9.206
  949POPC   GL215110  22.150  35.789   9.148
  949POPC   C1A15111  22.195  36.127   8.775
  949POPC   D2A15112  22.001  36.125   8.407
  949POPC   C3A15113  22.208  36.218   8.046
  949POPC   C4A15114  22.177  36.196   7.615
  949POPC   C1B15115  22.338  35.649   8.745
  949POPC   C2B15116  22.432  35.840   8.337
  949POPC   C3B15117  22.377  35.781   7.879
  949POPC   C4B15118  22.432  35.796   7.398
  950POPC   NC315119  43.107  15.587   9.479
  950POPC   PO415120  43.014  14.896   9.496
  950POPC   GL115121  43.135  14.909   9.074
  950POPC   GL215122  43.411  15.147   9.187
  950POPC   C1A15123  42.880  15.027   8.673
  950POPC   D2A15124  42.633  15.373   8.420
  950POPC   C3A15125  42.796  15.383   7.997
  950POPC   C4A15126  43.157  15.078   7.873
  950POPC   C1B15127  43.400  15.177   8.730
  950POPC   C2B15128  43.502  15.110   8.288
  950POPC   C3B15129  43.674  15.232   7.889
  950POPC   C4B15130  43.506  15.318   7.497
  951POPC   NC315131  35.098  30.406   9.518
  951POPC   PO415132  35.715  30.540   9.473
  951POPC   GL115133  35.440  30.553   9.156
  951POPC   GL215134  35.240  30.836   9.249
  951POPC   C1A15135  35.179  30.551   8.769
  951POPC   D2A15136  34.940  30.517   8.378
  951POPC   C3A15137  35.183  30.644   8.036
  951POPC   C4A15138  35.392  30.362   7.748
  951POPC   C1B15139  35.478  30.948   8.869
  951POPC   C2B15140  35.430  30.936   8.451
  951POPC   C3B15141  35.643  31.044   8.094
  951POPC   C4B15142  35.525  30.930   7.712
  952POPC   NC315143  30.081  11.561   9.429
  952POPC   PO415144  29.660  11.108   9.479
  952POPC   GL115145  29.953  11.052   9.117
  952POPC   GL215146  30.018  11.378   8.976
  952POPC   C1A15147  30.112  11.022   8.661
  952POPC   D2A15148  30.011  10.960   8.250
  952POPC   C3A15149  29.911  11.331   8.025
  952POPC   C4A15150  29.956  11.236   7.618
  952POPC   C1B15151  30.147  11.755   8.785
  952POPC   C2B15152  30.055  11.900   8.411
  952POPC   C3B15153  30.203  11.779   8.020
  952POPC   C4B15154  30.281  11.638   7.651
  953POPC   NC315155  41.073  10.369   9.739
  953POPC   PO415156  41.719  10.453   9.726
  953POPC   GL115157  41.761  10.509   9.303
  953POPC   GL215158  41.454  10.673   9.277
  953POPC   C1A15159  41.821  10.434   8.893
  953POPC   D2A15160  41.824  10.645   8.519
  953POPC   C3A15161  41.525  10.481   8.243
  953POPC   C4A15162  41.518  10.389   7.837
  953POPC   C1B15163  41.473  10.817   8.849
  953POPC   C2B15164  41.439  10.980   8.411
  953POPC   C3B15165  41.579  10.956   7.993
  953POPC   C4B15166  41.312  10.812   7.670
  954POPC   NC315167  26.629  30.283   9.340
  954POPC   PO415168  26.935  29.749   9.656
  954POPC   GL115169  26.845  29.844   9.201
  954POPC   GL215170  26.546  29.684   9.198
  954POPC   C1A15171  26.809  29.962   8.737
  954POPC   D2A15172  26.979  29.954   8.300
  954POPC   C3A15173  26.865  30.123   7.870
  954POPC   C4A15174  27.104  30.047   7.468
  954POPC   C1B15175  26.376  29.674   8.766
  954POPC   C2B15176  26.449  29.831   8.348
  954POPC   C3B15177  26.675  29.651   8.025
  954POPC   C4B15178  26.800  29.657   7.624
  955POPC   NC315179  15.927  15.751   9.450
  955POPC   PO415180  15.838  15.153   9.608
  955POPC   GL115181  15.825  15.049   9.211
  955POPC   GL215182  16.078  15.291   9.127
  955POPC   C1A15183  15.688  15.139   8.794
  955POPC   D2A15184  15.505  15.018   8.399
  955POPC   C3A15185  15.766  15.023   8.080
  955POPC   C4A15186  15.967  15.286   7.803
  955POPC   C1B15187  16.191  14.923   8.860
  955POPC   C2B15188  16.024  14.829   8.482
  955POPC   C3B15189  16.120  14.663   8.072
  955POPC   C4B15190  16.003  14.774   7.652
  956POPC   NC315191  23.337   0.098   9.554
  956POPC   PO415192  22.850  44.647   9.639
  956POPC   GL115193  22.860  44.812   9.215
  956POPC   GL215194  23.173  44.771   9.185
  956POPC   C1A15195  22.735  44.571   8.824
  956POPC   D2A15196  22.613  44.751   8.442
  956POPC   C3A15197  22.614  44.591   8.056
  956POPC   C4A15198  22.611  44.188   7.922
  956POPC   C1B15199  23.132  44.873   8.766
  956POPC   C2B15200  23.127  44.688   8.344
  956POPC   C3B15201  23.037  44.887   7.963
  956POPC   C4B15202  23.153  44.855   7.547
  957POPC   NC315203  14.745  14.562   9.323
  957POPC   PO415204  15.389  14.367   9.554
  957POPC   GL115205  15.247  14.337   9.147
  957POPC   GL215206  15.212  14.682   9.141
  957POPC   C1A15207  15.308  14.135   8.758
  957POPC   D2A15208  15.194  13.948   8.380
  957POPC   C3A15209  15.243  14.222   8.092
  957POPC   C4A15210  15.268  14.271   7.696
  957POPC   C1B15211  15.018  14.565   8.738
  957POPC   C2B15212  15.159  14.648   8.355
  957POPC   C3B15213  15.337  14.733   7.956
  957POPC   C4B15214  15.170  14.744   7.522
  958POPC   NC315215  32.568  15.821   9.683
  958POPC   PO415216  33.218  15.897   9.545
  958POPC   GL115217  33.021  15.789   9.142
  958POPC   GL215218  32.667  15.696   9.197
  958POPC   C1A15219  33.176  15.668   8.729
  958POPC   D2A15220  33.163  15.613   8.272
  958POPC   C3A15221  33.352  15.959   8.082
  958POPC   C4A15222  33.343  16.203   7.726
  958POPC   C1B15223  32.652  15.912   8.783
  958POPC   C2B15224  32.905  16.049   8.413
  958POPC   C3B15225  32.851  16.000   7.954
  958POPC   C4B15226  32.673  16.324   7.718
  959POPC   NC315227   3.643  13.305   9.557
  959POPC   PO415228   3.890  13.962   9.409
  959POPC   GL115229   3.679  13.826   9.039
  959POPC   GL215230   3.524  13.497   9.081
  959POPC   C1A15231   3.836  13.564   8.699
  959POPC   D2A15232   3.572  13.507   8.390
  959POPC   C3A15233   3.583  13.463   7.991
  959POPC   C4A15234   3.624  13.742   7.678
  959POPC   C1B15235   3.206  13.489   8.724
  959POPC   C2B15236   3.081  13.629   8.288
  959POPC   C3B15237   3.101  13.486   7.839
  959POPC   C4B15238   3.121  13.484   7.376
  960POPC   NC315239  15.851  18.637   9.716
  960POPC   PO415240  15.805  19.327   9.672
  960POPC   GL115241  15.895  19.068   9.302
  960POPC   GL215242  16.203  18.854   9.340
  960POPC   C1A15243  15.905  19.167   8.845
  960POPC   D2A15244  16.227  19.241   8.499
  960POPC   C3A15245  16.078  19.190   8.081
  960POPC   C4A15246  15.687  19.158   7.884
  960POPC   C1B15247  16.154  18.729   8.898
  960POPC   C2B15248  15.836  18.595   8.553
  960POPC   C3B15249  15.880  18.701   8.103
  960POPC   C4B15250  16.304  18.743   7.883
  961POPC   NC315251  11.749   8.038   9.557
  961POPC   PO415252  12.413   8.183   9.478
  961POPC   GL115253  12.089   8.189   9.205
  961POPC   GL215254  12.214   8.494   9.096
  961POPC   C1A15255  11.883   8.200   8.823
  961POPC   D2A15256  12.062   8.040   8.466
  961POPC   C3A15257  11.863   8.191   8.155
  961POPC   C4A15258  11.873   8.105   7.761
  961POPC   C1B15259  12.409   8.364   8.722
  961POPC   C2B15260  12.346   8.436   8.277
  961POPC   C3B15261  12.356   8.198   7.899
  961POPC   C4B15262  12.242   8.276   7.470
  962POPC   NC315263   9.395  21.964   9.593
  962POPC   PO415264  10.070  21.998   9.550
  962POPC   GL115265   9.843  22.261   9.243
  962POPC   GL215266  10.043  22.517   9.050
  962POPC   C1A15267   9.490  22.391   8.970
  962POPC   D2A15268   9.515  22.285   8.543
  962POPC   C3A15269   9.475  22.415   8.109
  962POPC   C4A15270   9.830  22.382   7.826
  962POPC   C1B15271  10.028  22.150   8.762
  962POPC   C2B15272   9.940  22.069   8.312
  962POPC   C3B15273  10.040  21.927   7.876
  962POPC   C4B15274  10.033  21.853   7.423
  963POPC   NC315275  18.219  16.424   9.461
  963POPC   PO415276  18.384  17.081   9.561
  963POPC   GL115277  18.234  16.872   9.195
  963POPC   GL215278  18.369  17.043   8.944
  963POPC   C1A15279  18.140  16.568   8.834
  963POPC   D2A15280  18.025  16.411   8.434
  963POPC   C3A15281  18.136  16.666   8.056
  963POPC   C4A15282  18.354  16.804   7.686
  963POPC   C1B15283  18.654  17.062   8.625
  963POPC   C2B15284  18.411  17.076   8.275
  963POPC   C3B15285  18.483  17.248   7.935
  963POPC   C4B15286  18.846  17.218   7.743
  964POPC   NC315287   6.065  12.658   9.406
  964POPC   PO415288   5.496  12.437   9.320
  964POPC   GL115289   5.690  12.712   9.046
  964POPC   GL215290   5.780  13.035   9.163
  964POPC   C1A15291   5.597  12.824   8.640
  964POPC   D2A15292   5.804  13.076   8.332
  964POPC   C3A15293   5.746  12.927   7.937
  964POPC   C4A15294   6.028  12.647   7.724
  964POPC   C1B15295   6.074  12.966   8.789
  964POPC   C2B15296   6.294  13.140   8.434
  964POPC   C3B15297   6.264  13.015   8.012
  964POPC   C4B15298   6.267  13.045   7.563
  965POPC   NC315299  17.619  14.942   9.636
  965POPC   PO415300  17.770  14.264   9.461
  965POPC   GL115301  17.546  14.328   9.123
  965POPC   GL215302  17.557  14.651   9.166
  965POPC   C1A15303  17.434  14.426   8.708
  965POPC   D2A15304  17.643  14.370   8.354
  965POPC   C3A15305  17.366  14.387   8.046
  965POPC   C4A15306  17.220  14.308   7.668
  965POPC   C1B15307  17.786  14.772   8.760
  965POPC   C2B15308  17.612  14.885   8.382
  965POPC   C3B15309  17.760  14.728   8.013
  965POPC   C4B15310  17.743  14.450   7.654
  966POPC   NC315311  15.312  26.334   9.407
  966POPC   PO415312  14.992  26.794   9.848
  966POPC   GL115313  14.973  26.760   9.331
  966POPC   GL215314  15.169  26.970   9.078
  966POPC   C1A15315  14.980  26.548   8.871
  966POPC   D2A15316  15.066  26.426   8.406
  966POPC   C3A15317  15.262  26.725   8.093
  966POPC   C4A15318  15.163  26.643   7.666
  966POPC   C1B15319  15.429  26.777   8.725
  966POPC   C2B15320  15.518  27.063   8.405
  966POPC   C3B15321  15.207  27.352   8.191
  966POPC   C4B15322  15.031  27.186   7.777
  967POPC   NC315323  21.452   3.818   9.245
  967POPC   PO415324  21.290   4.381   9.547
  967POPC   GL115325  21.481   4.323   9.143
  967POPC   GL215326  21.236   4.470   8.933
  967POPC   C1A15327  21.700   4.344   8.741
  967POPC   D2A15328  21.497   4.550   8.374
  967POPC   C3A15329  21.552   4.379   7.969
  967POPC   C4A15330  21.312   4.450   7.602
  967POPC   C1B15331  21.201   4.096   8.687
  967POPC   C2B15332  21.089   3.863   8.327
  967POPC   C3B15333  21.245   3.857   7.920
  967POPC   C4B15334  21.304   3.955   7.502
  968POPC   NC315335  44.253   4.086   9.414
  968POPC   PO415336  44.715   3.777   9.762
  968POPC   GL115337  44.654   3.591   9.328
  968POPC   GL215338  44.893   3.813   9.166
  968POPC   C1A15339  44.596   3.463   8.848
  968POPC   D2A15340  44.551   3.744   8.439
  968POPC   C3A15341  44.490   3.622   7.995
  968POPC   C4A15342  44.656   3.336   7.686
  968POPC   C1B15343   0.006   3.725   8.739
  968POPC   C2B15344  44.958   3.430   8.399
  968POPC   C3B15345   0.031   3.514   7.978
  968POPC   C4B15346   0.092   3.596   7.531
  969POPC   NC315347  37.012  21.485   9.427
  969POPC   PO415348  36.528  21.151   9.670
  969POPC   GL115349  36.681  21.165   9.186
  969POPC   GL215350  36.756  21.519   9.005
  969POPC   C1A15351  36.951  21.106   8.776
  969POPC   D2A15352  36.978  20.889   8.333
  969POPC   C3A15353  36.831  21.168   7.986
  969POPC   C4A15354  37.060  21.541   7.839
  969POPC   C1B15355  36.636  21.713   8.620
  969POPC   C2B15356  36.873  21.835   8.265
  969POPC   C3B15357  36.972  22.033   7.891
  969POPC   C4B15358  36.981  21.936   7.459
  970POPC   NC315359  27.219  32.417   9.449
  970POPC   PO415360  26.518  32.149   9.422
  970POPC   GL115361  26.859  32.143   9.121
  970POPC   GL215362  27.112  31.880   9.182
  970POPC   C1A15363  26.820  32.274   8.675
  970POPC   D2A15364  26.504  32.180   8.322
  970POPC   C3A15365  26.486  32.390   7.909
  970POPC   C4A15366  26.409  32.526   7.492
  970POPC   C1B15367  27.258  32.008   8.799
  970POPC   C2B15368  27.258  32.161   8.416
  970POPC   C3B15369  26.987  32.234   8.104
  970POPC   C4B15370  27.139  32.394   7.773
  971POPC   NC315371  13.618  37.175   9.569
  971POPC   PO415372  13.334  37.744   9.430
  971POPC   GL115373  13.631  37.680   9.098
  971POPC   GL215374  13.762  37.354   9.121
  971POPC   C1A15375  13.788  37.818   8.684
  971POPC   D2A15376  13.623  37.830   8.268
  971POPC   C3A15377  13.785  38.052   7.915
  971POPC   C4A15378  13.480  37.884   7.660
  971POPC   C1B15379  13.629  37.324   8.705
  971POPC   C2B15380  13.836  37.373   8.335
  971POPC   C3B15381  13.685  37.462   7.884
  971POPC   C4B15382  13.639  37.102   7.585
  972POPC   NC315383  36.664  31.658   9.488
  972POPC   PO415384  37.008  32.339   9.618
  972POPC   GL115385  36.885  32.393   9.219
  972POPC   GL215386  36.856  32.037   9.141
  972POPC   C1A15387  37.117  32.411   8.824
  972POPC   D2A15388  37.191  32.259   8.410
  972POPC   C3A15389  36.939  32.380   8.068
  972POPC   C4A15390  37.049  32.541   7.699
  972POPC   C1B15391  37.078  31.888   8.752
  972POPC   C2B15392  36.900  31.647   8.387
  972POPC   C3B15393  36.724  31.787   7.994
  972POPC   C4B15394  36.853  32.032   7.653
  973POPC   NC315395   1.242  31.877   9.685
  973POPC   PO415396   1.317  32.506   9.539
  973POPC   GL115397   1.304  32.297   9.144
  973POPC   GL215398   1.218  31.978   9.199
  973POPC   C1A15399   1.378  32.443   8.733
  973POPC   D2A15400   1.460  32.308   8.310
  973POPC   C3A15401   1.155  32.353   8.013
  973POPC   C4A15402   1.162  32.591   7.645
  973POPC   C1B15403   1.301  31.921   8.792
  973POPC   C2B15404   1.075  31.952   8.442
  973POPC   C3B15405   1.197  31.837   8.060
  973POPC   C4B15406   1.374  32.003   7.703
  974POPC   NC315407  34.076  12.232   9.543
  974POPC   PO415408  33.447  11.936   9.427
  974POPC   GL115409  33.773  11.957   9.077
  974POPC   GL215410  34.142  11.923   9.160
  974POPC   C1A15411  33.670  11.955   8.622
  974POPC   D2A15412  33.536  12.268   8.308
  974POPC   C3A15413  33.490  12.104   7.897
  974POPC   C4A15414  33.593  11.725   7.721
  974POPC   C1B15415  34.200  12.124   8.756
  974POPC   C2B15416  34.054  12.217   8.372
  974POPC   C3B15417  33.961  11.992   8.050
  974POPC   C4B15418  34.252  12.109   7.767
  975POPC   NC315419  10.290  22.397   9.484
  975POPC   PO415420  10.585  21.702   9.438
  975POPC   GL115421  10.403  21.992   9.136
  975POPC   GL215422  10.559  22.316   9.079
  975POPC   C1A15423  10.536  21.978   8.699
  975POPC   D2A15424  10.412  21.867   8.295
  975POPC   C3A15425  10.485  22.156   7.976
  975POPC   C4A15426  10.497  21.849   7.646
  975POPC   C1B15427  10.449  22.484   8.686
  975POPC   C2B15428  10.729  22.496   8.321
  975POPC   C3B15429  10.965  22.344   7.958
  975POPC   C4B15430  10.779  22.418   7.583
  976POPC   NC315431  29.517  20.070   9.363
  976POPC   PO415432  29.013  19.632   9.457
  976POPC   GL115433  29.207  19.646   9.055
  976POPC   GL215434  29.175  20.005   8.991
  976POPC   C1A15435  29.069  19.682   8.608
  976POPC   D2A15436  28.906  19.943   8.274
  976POPC   C3A15437  29.014  19.904   7.840
  976POPC   C4A15438  29.291  19.748   7.501
  976POPC   C1B15439  29.307  20.295   8.666
  976POPC   C2B15440  29.577  20.318   8.344
  976POPC   C3B15441  29.278  20.320   8.039
  976POPC   C4B15442  29.143  20.420   7.652
  977POPC   NC315443  14.456  18.852   9.602
  977POPC   PO415444  14.244  19.383   9.283
  977POPC   GL115445  14.608  19.205   9.066
  977POPC   GL215446  14.632  18.838   9.137
  977POPC   C1A15447  14.842  19.321   8.686
  977POPC   D2A15448  14.491  19.341   8.400
  977POPC   C3A15449  14.512  19.275   7.973
  977POPC   C4A15450  14.125  19.064   7.812
  977POPC   C1B15451  14.677  18.846   8.701
  977POPC   C2B15452  14.817  18.937   8.293
  977POPC   C3B15453  14.536  18.784   8.016
  977POPC   C4B15454  14.432  18.706   7.632
  978POPC   NC315455  39.449  12.059   9.370
  978POPC   PO415456  40.126  12.120   9.517
  978POPC   GL115457  39.951  12.090   9.173
  978POPC   GL215458  39.771  12.404   9.168
  978POPC   C1A15459  40.104  11.907   8.807
  978POPC   D2A15460  40.003  11.636   8.470
  978POPC   C3A15461  40.011  11.950   8.146
  978POPC   C4A15462  39.904  11.973   7.737
  978POPC   C1B15463  39.966  12.419   8.768
  978POPC   C2B15464  40.096  12.431   8.363
  978POPC   C3B15465  39.845  12.439   7.980
  978POPC   C4B15466  39.932  12.460   7.557
  979POPC   NC315467  31.863  41.460   9.583
  979POPC   PO415468  31.315  41.806   9.706
  979POPC   GL115469  31.253  41.788   9.258
  979POPC   GL215470  31.603  41.768   9.179
  979POPC   C1A15471  31.235  41.589   8.850
  979POPC   D2A15472  31.436  41.671   8.473
  979POPC   C3A15473  31.295  41.478   8.130
  979POPC   C4A15474  31.100  41.558   7.735
  979POPC   C1B15475  31.792  41.583   8.839
  979POPC   C2B15476  31.907  41.426   8.429
  979POPC   C3B15477  31.809  41.579   8.013
  979POPC   C4B15478  31.551  41.336   7.717
  980POPC   NC315479  26.469  20.029   9.547
  980POPC   PO415480  25.747  19.823   9.667
  980POPC   GL115481  26.025  19.881   9.307
  980POPC   GL215482  26.177  19.583   9.236
  980POPC   C1A15483  26.194  19.966   8.877
  980POPC   D2A15484  26.089  20.189   8.485
  980POPC   C3A15485  26.036  19.948   8.101
  980POPC   C4A15486  25.641  19.921   7.837
  980POPC   C1B15487  25.975  19.488   8.859
  980POPC   C2B15488  26.103  19.578   8.467
  980POPC   C3B15489  26.201  19.477   8.053
  980POPC   C4B15490  25.960  19.519   7.703
  981POPC   NC315491   4.693   5.888   9.511
  981POPC   PO415492   4.136   5.603   9.524
  981POPC   GL115493   4.481   5.590   9.181
  981POPC   GL215494   4.574   5.947   9.014
  981POPC   C1A15495   4.583   5.481   8.788
  981POPC   D2A15496   4.542   5.763   8.492
  981POPC   C3A15497   4.673   5.633   8.102
  981POPC   C4A15498   4.508   5.722   7.706
  981POPC   C1B15499   4.168   5.852   8.863
  981POPC   C2B15500   4.003   5.838   8.466
  981POPC   C3B15501   4.212   5.919   8.090
  981POPC   C4B15502   4.028   5.896   7.694
  982POPC   NC315503  34.326   4.167   9.486
  982POPC   PO415504  34.797   4.673   9.523
  982POPC   GL115505  34.730   4.457   9.156
  982POPC   GL215506  34.946   4.757   9.039
  982POPC   C1A15507  34.763   4.178   8.756
  982POPC   D2A15508  34.587   4.020   8.349
  982POPC   C3A15509  34.558   4.242   7.941
  982POPC   C4A15510  34.606   4.119   7.492
  982POPC   C1B15511  34.637   4.675   8.717
  982POPC   C2B15512  34.735   4.579   8.311
  982POPC   C3B15513  34.477   4.738   8.039
  982POPC   C4B15514  34.106   4.628   7.883
  983POPC   NC315515  33.976  14.861   9.536
  983POPC   PO415516  33.613  15.380   9.530
  983POPC   GL115517  33.782  15.186   9.170
  983POPC   GL215518  33.738  14.829   9.091
  983POPC   C1A15519  33.748  15.284   8.753
  983POPC   D2A15520  34.117  15.334   8.506
  983POPC   C3A15521  34.046  15.250   8.086
  983POPC   C4A15522  34.083  15.402   7.691
  983POPC   C1B15523  34.000  14.859   8.758
  983POPC   C2B15524  33.827  14.897   8.384
  983POPC   C3B15525  33.768  14.835   7.979
  983POPC   C4B15526  34.026  14.888   7.673
  984POPC   NC315527  28.008  38.052   9.215
  984POPC   PO415528  27.532  37.655   9.550
  984POPC   GL115529  27.622  37.670   9.156
  984POPC   GL215530  27.897  37.437   9.218
  984POPC   C1A15531  27.342  37.709   8.794
  984POPC   D2A15532  27.179  37.603   8.394
  984POPC   C3A15533  27.355  37.879   8.070
  984POPC   C4A15534  27.783  38.058   7.861
  984POPC   C1B15535  27.819  37.407   8.770
  984POPC   C2B15536  27.699  37.659   8.402
  984POPC   C3B15537  27.737  37.564   7.963
  984POPC   C4B15538  27.935  37.639   7.570
  985POPC   NC315539  35.116  13.803   9.571
  985POPC   PO415540  35.697  13.422   9.559
  985POPC   GL115541  35.466  13.628   9.235
  985POPC   GL215542  35.256  13.378   9.148
  985POPC   C1A15543  35.368  13.807   8.823
  985POPC   D2A15544  35.517  13.745   8.387
  985POPC   C3A15545  35.406  13.926   8.015
  985POPC   C4A15546  35.665  13.938   7.644
  985POPC   C1B15547  34.965  13.383   8.837
  985POPC   C2B15548  35.106  13.474   8.476
  985POPC   C3B15549  35.137  13.338   8.089
  985POPC   C4B15550  35.454  13.462   7.818
  986POPC   NC315551  17.266  15.398   9.500
  986POPC   PO415552  17.870  15.089   9.281
  986POPC   GL115553  17.496  15.141   9.131
  986POPC   GL215554  17.296  15.382   8.977
  986POPC   C1A15555  17.281  14.915   8.803
  986POPC   D2A15556  17.083  15.128   8.468
  986POPC   C3A15557  17.262  15.069   8.044
  986POPC   C4A15558  17.364  14.801   7.711
  986POPC   C1B15559  17.633  15.319   8.675
  986POPC   C2B15560  17.623  15.401   8.254
  986POPC   C3B15561  17.747  15.223   7.880
  986POPC   C4B15562  17.959  15.420   7.529
  987POPC   NC315563   2.564   8.197   9.488
  987POPC   PO415564   2.540   7.556   9.584
  987POPC   GL115565   2.381   7.804   9.173
  987POPC   GL215566   2.615   8.086   9.017
  987POPC   C1A15567   2.515   7.723   8.709
  987POPC   D2A15568   2.805   7.732   8.309
  987POPC   C3A15569   2.560   7.721   7.917
  987POPC   C4A15570   2.623   8.157   7.877
  987POPC   C1B15571   2.907   8.083   8.677
  987POPC   C2B15572   2.972   8.231   8.237
  987POPC   C3B15573   3.146   8.487   7.889
  987POPC   C4B15574   2.997   8.721   7.504
  988POPC   NC315575  37.224  25.424   9.758
  988POPC   PO415576  37.805  25.301   9.364
  988POPC   GL115577  37.717  25.264   8.941
  988POPC   GL215578  37.792  25.622   8.965
  988POPC   C1A15579  37.415  25.171   8.604
  988POPC   D2A15580  37.398  25.114   8.155
  988POPC   C3A15581  37.485  25.481   7.912
  988POPC   C4A15582  37.563  25.334   7.516
  988POPC   C1B15583  38.027  25.555   8.616
  988POPC   C2B15584  37.805  25.380   8.314
  988POPC   C3B15585  37.896  25.193   7.939
  988POPC   C4B15586  37.984  25.571   7.691
  989POPC   NC315587  12.277   4.525   9.515
  989POPC   PO415588  11.590   4.563   9.445
  989POPC   GL115589  11.831   4.339   9.134
  989POPC   GL215590  12.200   4.279   9.084
  989POPC   C1A15591  11.943   4.594   8.773
  989POPC   D2A15592  12.154   4.740   8.435
  989POPC   C3A15593  12.308   4.425   8.190
  989POPC   C4A15594  12.066   4.200   7.950
  989POPC   C1B15595  12.168   4.154   8.654
  989POPC   C2B15596  12.313   3.900   8.338
  989POPC   C3B15597  12.589   3.978   8.022
  989POPC   C4B15598  12.483   4.174   7.650
  990POPC   NC315599  38.010  36.593   9.391
  990POPC   PO415600  37.412  36.912   9.531
  990POPC   GL115601  37.574  37.142   9.223
  990POPC   GL215602  37.934  37.216   9.260
  990POPC   C1A15603  37.489  37.155   8.814
  990POPC   D2A15604  37.616  37.196   8.420
  990POPC   C3A15605  37.509  36.809   8.236
  990POPC   C4A15606  37.462  36.742   7.802
  990POPC   C1B15607  37.985  36.980   8.856
  990POPC   C2B15608  38.117  36.995   8.433
  990POPC   C3B15609  37.917  37.031   8.032
  990POPC   C4B15610  37.884  37.376   7.818
  991POPC   NC315611  44.868   4.167   9.959
  991POPC   PO415612  44.444   4.568   9.617
  991POPC   GL115613  44.716   4.592   9.258
  991POPC   GL215614  44.670   4.273   9.157
  991POPC   C1A15615  44.692   4.636   8.800
  991POPC   D2A15616  44.455   4.551   8.425
  991POPC   C3A15617  44.694   4.599   8.094
  991POPC   C4A15618  44.771   4.441   7.740
  991POPC   C1B15619  44.675   4.136   8.721
  991POPC   C2B15620  44.835   4.145   8.288
  991POPC   C3B15621  44.818   3.962   7.848
  991POPC   C4B15622  44.588   3.794   7.469
  992POPC   NC315623  27.109  37.517   9.420
  992POPC   PO415624  26.527  37.908   9.524
  992POPC   GL115625  26.651  37.611   9.213
  992POPC   GL215626  26.499  37.822   9.010
  992POPC   C1A15627  26.746  37.437   8.808
  992POPC   D2A15628  26.460  37.609   8.517
  992POPC   C3A15629  26.541  37.512   8.103
  992POPC   C4A15630  26.957  37.534   7.931
  992POPC   C1B15631  26.851  37.944   8.742
  992POPC   C2B15632  26.867  37.985   8.299
  992POPC   C3B15633  26.877  38.058   7.885
  992POPC   C4B15634  26.606  37.822   7.697
  993POPC   NC315635  27.105  43.548   9.377
  993POPC   PO415636  27.679  43.177   9.461
  993POPC   GL115637  27.563  43.233   9.054
  993POPC   GL215638  27.515  42.888   8.986
  993POPC   C1A15639  27.655  43.204   8.608
  993POPC   D2A15640  27.550  42.993   8.234
  993POPC   C3A15641  27.418  43.321   7.982
  993POPC   C4A15642  27.756  43.393   7.691
  993POPC   C1B15643  27.208  42.901   8.637
  993POPC   C2B15644  27.027  42.960   8.234
  993POPC   C3B15645  27.148  42.884   7.837
  993POPC   C4B15646  27.568  42.920   7.686
  994POPC   NC315647  25.006  11.606   9.338
  994POPC   PO415648  25.125  10.917   9.401
  994POPC   GL115649  25.306  11.262   9.123
  994POPC   GL215650  25.681  11.346   9.164
  994POPC   C1A15651  25.280  11.383   8.658
  994POPC   D2A15652  24.956  11.260   8.298
  994POPC   C3A15653  25.062  11.280   7.875
  994POPC   C4A15654  25.447  11.463   7.848
  994POPC   C1B15655  25.605  10.986   8.847
  994POPC   C2B15656  25.289  10.885   8.547
  994POPC   C3B15657  25.446  11.023   8.160
  994POPC   C4B15658  25.434  10.873   7.763
  995POPC   NC315659  39.414   8.347   9.573
  995POPC   PO415660  38.758   8.416   9.558
  995POPC   GL115661  39.005   8.278   9.180
  995POPC   GL215662  39.377   8.231   9.094
  995POPC   C1A15663  38.955   8.214   8.737
  995POPC   D2A15664  39.049   8.475   8.378
  995POPC   C3A15665  39.290   8.293   8.044
  995POPC   C4A15666  39.541   8.370   7.638
  995POPC   C1B15667  39.442   7.982   8.735
  995POPC   C2B15668  39.309   7.863   8.309
  995POPC   C3B15669  39.553   7.906   7.885
  995POPC   C4B15670  39.451   7.933   7.389
  996POPC   NC315671  23.956  34.202   9.339
  996POPC   PO415672  23.440  33.875   9.671
  996POPC   GL115673  23.664  33.771   9.249
  996POPC   GL215674  23.562  33.403   9.250
  996POPC   C1A15675  23.895  33.899   8.808
  996POPC   D2A15676  24.034  34.084   8.396
  996POPC   C3A15677  23.883  33.925   8.016
  996POPC   C4A15678  23.669  33.854   7.623
  996POPC   C1B15679  23.769  33.419   8.855
  996POPC   C2B15680  23.822  33.571   8.433
  996POPC   C3B15681  23.558  33.559   8.076
  996POPC   C4B15682  23.623  33.360   7.694
  997POPC   NC315683  38.539  22.717   9.540
  997POPC   PO415684  38.013  23.231   9.510
  997POPC   GL115685  38.287  23.137   9.164
  997POPC   GL215686  38.246  22.778   9.108
  997POPC   C1A15687  38.215  23.071   8.697
  997POPC   D2A15688  38.203  22.876   8.283
  997POPC   C3A15689  38.448  23.020   7.924
  997POPC   C4A15690  38.390  22.962   7.449
  997POPC   C1B15691  38.540  22.698   8.777
  997POPC   C2B15692  38.643  22.598   8.370
  997POPC   C3B15693  38.447  22.496   7.984
  997POPC   C4B15694  38.727  22.671   7.692
  998POPC   NC315695  20.409  10.803   9.625
  998POPC   PO415696  20.847  11.277   9.620
  998POPC   GL115697  20.627  11.327   9.247
  998POPC   GL215698  20.492  11.079   9.205
  998POPC   C1A15699  20.517  11.558   8.886
  998POPC   D2A15700  20.319  11.537   8.488
  998POPC   C3A15701  20.534  11.297   8.182
  998POPC   C4A15702  20.664  11.409   7.783
  998POPC   C1B15703  20.650  10.979   8.795
  998POPC   C2B15704  20.559  10.763   8.393
  998POPC   C3B15705  20.430  10.827   7.973
  998POPC   C4B15706  20.568  10.964   7.555
  999POPC   NC315707  35.296   8.540   9.492
  999POPC   PO415708  35.054   7.925   9.427
  999POPC   GL115709  35.344   8.109   9.109
  999POPC   GL215710  35.365   8.454   9.015
  999POPC   C1A15711  35.341   8.102   8.638
  999POPC   D2A15712  35.053   8.128   8.270
  999POPC   C3A15713  35.283   8.222   7.891
  999POPC   C4A15714  35.417   8.054   7.468
  999POPC   C1B15715  35.286   8.688   8.692
  999POPC   C2B15716  35.324   8.587   8.300
  999POPC   C3B15717  35.128   8.765   7.973
  999POPC   C4B15718  35.083   8.603   7.610
 1000POPC   NC315719  30.678  21.114   9.421
 1000POPC   PO415720  31.373  21.297   9.583
 1000POPC   GL115721  31.534  21.337   9.180
 1000POPC   GL215722  31.395  21.057   9.097
 1000POPC   C1A15723  31.697  21.346   8.774
 1000POPC   D2A15724  31.510  21.531   8.441
 1000POPC   C3A15725  31.633  21.466   8.061
 1000POPC   C4A15726  31.385  21.407   7.781
 1000POPC   C1B15727  31.146  21.133   8.733
 1000POPC   C2B15728  31.058  21.313   8.333
 1000POPC   C3B15729  31.052  21.073   7.964
 1000POPC   C4B15730  31.168  21.016   7.527
 1001POPC   NC315731  14.301   1.021   9.534
 1001POPC   PO415732  14.734   1.547   9.522
 1001POPC   GL115733  14.614   1.324   9.126
 1001POPC   GL215734  14.226   1.241   9.087
 1001POPC   C1A15735  14.473   1.411   8.697
 1001POPC   D2A15736  14.427   1.198   8.345
 1001POPC   C3A15737  14.092   1.345   8.116
 1001POPC   C4A15738  14.335   1.468   7.778
 1001POPC   C1B15739  14.038   1.080   8.694
 1001POPC   C2B15740  14.101   0.814   8.314
 1001POPC   C3B15741  14.281   0.909   7.923
 1001POPC   C4B15742  14.075   1.053   7.595
 1002POPC   NC315743  36.006  28.533   9.443
 1002POPC   PO415744  36.600  28.311   9.512
 1002POPC   GL115745  36.329  28.185   9.143
 1002POPC   GL215746  35.943  28.185   9.081
 1002POPC   C1A15747  36.245  28.345   8.696
 1002POPC   D2A15748  36.151  28.735   8.428
 1002POPC   C3A15749  36.004  28.723   8.008
 1002POPC   C4A15750  36.110  28.648   7.566
 1002POPC   C1B15751  35.768  28.080   8.669
 1002POPC   C2B15752  35.970  28.207   8.272
 1002POPC   C3B15753  35.922  28.250   7.839
 1002POPC   C4B15754  36.093  28.157   7.432
 1003POPC   NC315755  25.501  26.956   9.607
 1003POPC   PO415756  24.887  27.150   9.493
 1003POPC   GL115757  25.164  26.948   9.185
 1003POPC   GL215758  25.049  26.651   9.056
 1003POPC   C1A15759  25.334  26.867   8.732
 1003POPC   D2A15760  25.125  27.003   8.356
 1003POPC   C3A15761  25.359  26.962   7.939
 1003POPC   C4A15762  25.549  26.789   7.556
 1003POPC   C1B15763  24.930  26.541   8.626
 1003POPC   C2B15764  25.066  26.367   8.207
 1003POPC   C3B15765  25.157  26.533   7.784
 1003POPC   C4B15766  25.059  26.664   7.377
 1004POPC   NC315767   6.436  44.877   9.427
 1004POPC   PO415768   6.675  44.291   9.466
 1004POPC   GL115769   6.494  44.482   9.067
 1004POPC   GL215770   6.342  44.835   8.952
 1004POPC   C1A15771   6.759  44.466   8.701
 1004POPC   D2A15772   7.059  44.583   8.407
 1004POPC   C3A15773   6.914  44.413   8.036
 1004POPC   C4A15774   6.524  44.516   7.845
 1004POPC   C1B15775   6.728  44.966   8.790
 1004POPC   C2B15776   6.736  44.958   8.344
 1004POPC   C3B15777   6.471   0.056   8.023
 1004POPC   C4B15778   6.477   0.106   7.575
 1005POPC   NC315779   1.204  36.313   9.435
 1005POPC   PO415780   1.543  35.708   9.518
 1005POPC   GL115781   1.568  36.038   9.187
 1005POPC   GL215782   1.266  35.905   9.095
 1005POPC   C1A15783   1.392  36.302   8.805
 1005POPC   D2A15784   1.105  36.272   8.451
 1005POPC   C3A15785   1.265  36.259   8.045
 1005POPC   C4A15786   1.545  36.437   7.738
 1005POPC   C1B15787   0.999  35.852   8.740
 1005POPC   C2B15788   0.691  35.972   8.421
 1005POPC   C3B15789   0.813  35.982   8.008
 1005POPC   C4B15790   1.060  35.995   7.657
 1006POPC   NC315791  38.417  24.120   9.514
 1006POPC   PO415792  38.661  24.793   9.461
 1006POPC   GL115793  38.496  24.481   9.158
 1006POPC   GL215794  38.163  24.223   9.085
 1006POPC   C1A15795  38.699  24.439   8.772
 1006POPC   D2A15796  38.812  24.269   8.368
 1006POPC   C3A15797  38.702  24.511   8.005
 1006POPC   C4A15798  38.482  24.435   7.616
 1006POPC   C1B15799  38.164  24.532   8.779
 1006POPC   C2B15800  38.390  24.657   8.429
 1006POPC   C3B15801  38.214  24.712   8.038
 1006POPC   C4B15802  38.279  24.964   7.702
 1007POPC   NC315803  19.584  10.528   9.776
 1007POPC   PO415804  19.970  10.078   9.537
 1007POPC   GL115805  19.902  10.307   9.190
 1007POPC   GL215806  19.709  10.573   9.253
 1007POPC   C1A15807  19.823  10.272   8.779
 1007POPC   D2A15808  19.878  10.520   8.404
 1007POPC   C3A15809  19.948  10.350   7.958
 1007POPC   C4A15810  20.140  10.587   7.587
 1007POPC   C1B15811  19.831  10.782   8.878
 1007POPC   C2B15812  19.606  10.970   8.551
 1007POPC   C3B15813  19.680  10.899   8.145
 1007POPC   C4B15814  19.688  10.756   7.764
 1008POPC   NC315815  41.016  28.988   9.578
 1008POPC   PO415816  40.548  28.791   9.168
 1008POPC   GL115817  40.713  29.209   9.163
 1008POPC   GL215818  41.100  29.248   9.134
 1008POPC   C1A15819  40.778  29.376   8.773
 1008POPC   D2A15820  40.761  29.594   8.432
 1008POPC   C3A15821  40.843  29.354   8.104
 1008POPC   C4A15822  40.760  29.421   7.709
 1008POPC   C1B15823  41.118  28.961   8.807
 1008POPC   C2B15824  41.176  29.024   8.368
 1008POPC   C3B15825  40.956  28.846   8.049
 1008POPC   C4B15826  40.651  28.940   7.740
 1009POPC   NC315827  28.084  15.120   9.828
 1009POPC   PO415828  28.549  15.374   9.463
 1009POPC   GL115829  28.266  15.185   9.175
 1009POPC   GL215830  28.559  15.115   8.966
 1009POPC   C1A15831  28.121  14.958   8.795
 1009POPC   D2A15832  28.364  14.947   8.415
 1009POPC   C3A15833  28.175  14.882   8.024
 1009POPC   C4A15834  28.464  14.916   7.690
 1009POPC   C1B15835  28.353  15.402   8.674
 1009POPC   C2B15836  28.144  15.408   8.275
 1009POPC   C3B15837  28.233  15.335   7.828
 1009POPC   C4B15838  28.231  15.231   7.368
 1010POPC   NC315839  40.227  27.377   9.431
 1010POPC   PO415840  39.548  27.439   9.714
 1010POPC   GL115841  39.741  27.519   9.269
 1010POPC   GL215842  39.530  27.383   9.024
 1010POPC   C1A15843  39.948  27.652   8.852
 1010POPC   D2A15844  40.069  27.918   8.495
 1010POPC   C3A15845  40.238  27.723   8.118
 1010POPC   C4A15846  40.158  27.716   7.676
 1010POPC   C1B15847  39.613  27.201   8.622
 1010POPC   C2B15848  39.891  27.410   8.358
 1010POPC   C3B15849  39.838  27.387   7.933
 1010POPC   C4B15850  39.484  27.317   7.668
 1011POPC   NC315851   0.152   3.706   9.632
 1011POPC   PO415852   0.366   3.111   9.649
 1011POPC   GL115853   0.358   3.337   9.212
 1011POPC   GL215854   0.033   3.318   9.100
 1011POPC   C1A15855   0.414   3.419   8.712
 1011POPC   D2A15856   0.444   3.299   8.241
 1011POPC   C3A15857   0.527   3.596   7.882
 1011POPC   C4A15858   0.811   3.576   7.523
 1011POPC   C1B15859  44.994   3.049   8.748
 1011POPC   C2B15860   0.092   2.891   8.332
 1011POPC   C3B15861   0.158   3.022   7.903
 1011POPC   C4B15862   0.433   3.203   7.591
 1012POPC   NC315863  36.331  20.023   9.385
 1012POPC   PO415864  35.723  19.883   9.478
 1012POPC   GL115865  35.960  19.914   9.071
 1012POPC   GL215866  36.140  19.596   9.131
 1012POPC   C1A15867  36.130  19.824   8.635
 1012POPC   D2A15868  36.018  19.802   8.186
 1012POPC   C3A15869  36.266  19.818   7.787
 1012POPC   C4A15870  36.158  19.990   7.358
 1012POPC   C1B15871  35.870  19.426   8.818
 1012POPC   C2B15872  35.847  19.336   8.398
 1012POPC   C3B15873  35.693  19.463   7.988
 1012POPC   C4B15874  35.897  19.460   7.555
 1013POPC   NC315875  29.577  10.641   9.494
 1013POPC   PO415876  30.126  10.224   9.517
 1013POPC   GL115877  29.884  10.391   9.176
 1013POPC   GL215878  29.562  10.216   9.151
 1013POPC   C1A15879  29.898  10.599   8.802
 1013POPC   D2A15880  30.132  10.478   8.413
 1013POPC   C3A15881  29.992  10.499   7.991
 1013POPC   C4A15882  29.822  10.720   7.639
 1013POPC   C1B15883  29.468  10.337   8.719
 1013POPC   C2B15884  29.595  10.622   8.375
 1013POPC   C3B15885  29.486  10.500   7.960
 1013POPC   C4B15886  29.431  10.248   7.613
 1014POPC   NC315887   4.680  31.229   9.385
 1014POPC   PO415888   4.468  30.546   9.526
 1014POPC   GL115889   4.410  30.828   9.154
 1014POPC   GL215890   4.090  30.996   9.063
 1014POPC   C1A15891   4.412  30.757   8.723
 1014POPC   D2A15892   4.458  30.417   8.439
 1014POPC   C3A15893   4.318  30.549   8.077
 1014POPC   C4A15894   4.438  30.869   7.799
 1014POPC   C1B15895   3.875  31.192   8.735
 1014POPC   C2B15896   3.942  31.196   8.320
 1014POPC   C3B15897   3.983  30.910   8.009
 1014POPC   C4B15898   3.997  30.943   7.557
 1015POPC   NC315899   4.081   0.369   9.559
 1015POPC   PO415900   4.672   0.530   9.754
 1015POPC   GL115901   4.500   0.426   9.294
 1015POPC   GL215902   4.763   0.334   9.147
 1015POPC   C1A15903   4.235   0.505   8.905
 1015POPC   D2A15904   4.126   0.757   8.533
 1015POPC   C3A15905   4.098   0.608   8.085
 1015POPC   C4A15906   4.221   0.750   7.651
 1015POPC   C1B15907   4.783   0.308   8.713
 1015POPC   C2B15908   4.484   0.408   8.402
 1015POPC   C3B15909   4.570   0.482   7.971
 1015POPC   C4B15910   4.517   0.301   7.585
 1016POPC   NC315911  32.892  27.388   9.631
 1016POPC   PO415912  33.309  27.870   9.610
 1016POPC   GL115913  33.094  27.657   9.259
 1016POPC   GL215914  33.223  27.317   9.173
 1016POPC   C1A15915  32.905  27.636   8.877
 1016POPC   D2A15916  33.061  27.598   8.491
 1016POPC   C3A15917  32.793  27.742   8.138
 1016POPC   C4A15918  32.885  27.862   7.705
 1016POPC   C1B15919  33.511  27.334   8.783
 1016POPC   C2B15920  33.545  27.458   8.330
 1016POPC   C3B15921  33.274  27.639   8.032
 1016POPC   C4B15922  33.032  27.390   7.754
 1017POPC   NC315923  31.559  43.598   9.546
 1017POPC   PO415924  31.015  43.986   9.638
 1017POPC   GL115925  31.297  43.927   9.241
 1017POPC   GL215926  31.647  43.885   9.156
 1017POPC   C1A15927  31.350  43.991   8.757
 1017POPC   D2A15928  31.315  43.669   8.410
 1017POPC   C3A15929  31.102  43.858   8.059
 1017POPC   C4A15930  31.309  44.007   7.700
 1017POPC   C1B15931  31.684  43.614   8.814
 1017POPC   C2B15932  31.858  43.721   8.435
 1017POPC   C3B15933  31.687  43.891   8.061
 1017POPC   C4B15934  31.824  43.759   7.674
 1018POPC   NC315935   6.567   7.057   9.748
 1018POPC   PO415936   7.055   7.411   9.661
 1018POPC   GL115937   6.734   7.523   9.345
 1018POPC   GL215938   6.567   7.214   9.228
 1018POPC   C1A15939   6.706   7.589   8.884
 1018POPC   D2A15940   6.946   7.512   8.486
 1018POPC   C3A15941   6.903   7.725   8.070
 1018POPC   C4A15942   6.823   7.517   7.690
 1018POPC   C1B15943   6.366   7.192   8.835
 1018POPC   C2B15944   6.419   7.463   8.470
 1018POPC   C3B15945   6.444   7.478   8.045
 1018POPC   C4B15946   6.239   7.388   7.652
 1019POPC   NC315947   8.434  31.211   9.505
 1019POPC   PO415948   7.805  31.242   9.521
 1019POPC   GL115949   7.897  31.306   9.160
 1019POPC   GL215950   7.613  31.438   9.043
 1019POPC   C1A15951   8.060  31.164   8.800
 1019POPC   D2A15952   8.189  31.300   8.400
 1019POPC   C3A15953   8.279  31.017   8.050
 1019POPC   C4A15954   8.433  31.156   7.660
 1019POPC   C1B15955   7.601  31.657   8.660
 1019POPC   C2B15956   7.787  31.626   8.251
 1019POPC   C3B15957   8.027  31.451   7.929
 1019POPC   C4B15958   8.328  31.667   7.704
 1020POPC   NC315959  36.576   0.485   9.444
 1020POPC   PO415960  35.923   0.754   9.438
 1020POPC   GL115961  36.211   0.558   9.062
 1020POPC   GL215962  36.387   0.188   8.963
 1020POPC   C1A15963  36.154   0.477   8.626
 1020POPC   D2A15964  35.799   0.345   8.391
 1020POPC   C3A15965  35.956   0.441   8.019
 1020POPC   C4A15966  35.950   0.175   7.706
 1020POPC   C1B15967  36.638   0.237   8.579
 1020POPC   C2B15968  36.569   0.547   8.236
 1020POPC   C3B15969  36.458   0.435   7.797
 1020POPC   C4B15970  36.388   0.099   7.452
 1021POPC   NC315971  18.022  14.662   9.398
 1021POPC   PO415972  18.622  14.408   9.541
 1021POPC   GL115973  18.453  14.478   9.172
 1021POPC   GL215974  18.193  14.219   9.170
 1021POPC   C1A15975  18.353  14.629   8.764
 1021POPC   D2A15976  18.094  14.605   8.387
 1021POPC   C3A15977  18.251  14.463   7.973
 1021POPC   C4A15978  18.550  14.680   7.678
 1021POPC   C1B15979  17.942  14.249   8.788
 1021POPC   C2B15980  18.040  14.069   8.381
 1021POPC   C3B15981  17.887  14.064   7.960
 1021POPC   C4B15982  18.149  14.124   7.592
 1022POPC   NC315983  13.027  14.479   9.565
 1022POPC   PO415984  12.350  14.527   9.517
 1022POPC   GL115985  12.645  14.541   9.209
 1022POPC   GL215986  12.966  14.413   9.070
 1022POPC   C1A15987  12.549  14.564   8.806
 1022POPC   D2A15988  12.812  14.422   8.491
 1022POPC   C3A15989  12.564  14.529   8.136
 1022POPC   C4A15990  12.364  14.656   7.740
 1022POPC   C1B15991  13.276  14.496   8.746
 1022POPC   C2B15992  13.325  14.414   8.327
 1022POPC   C3B15993  13.012  14.253   8.059
 1022POPC   C4B15994  12.879  14.492   7.752
 1023POPC   NC315995  20.578  13.915   9.538
 1023POPC   PO415996  20.269  13.371   9.675
 1023POPC   GL115997  20.379  13.520   9.246
 1023POPC   GL215998  20.239  13.854   9.139
 1023POPC   C1A15999  20.483  13.552   8.788
 1023POPC   D2A16000  20.376  13.421   8.336
 1023POPC   C3A16001  20.739  13.367   8.047
 1023POPC   C4A16002  20.770  13.203   7.617
 1023POPC   C1B16003  20.310  14.074   8.758
 1023POPC   C2B16004  20.543  13.915   8.389
 1023POPC   C3B16005  20.467  13.813   7.954
 1023POPC   C4B16006  20.623  13.709   7.541
 1024POPC   NC316007  24.498   8.015   9.746
 1024POPC   PO416008  24.840   8.439   9.423
 1024POPC   GL116009  24.459   8.296   9.220
 1024POPC   GL216010  24.482   7.956   9.217
 1024POPC   C1A16011  24.315   8.186   8.779
 1024POPC   D2A16012  24.630   8.233   8.419
 1024POPC   C3A16013  24.519   8.309   8.013
 1024POPC   C4A16014  24.119   8.225   7.833
 1024POPC   C1B16015  24.723   7.884   8.766
 1024POPC   C2B16016  24.812   7.757   8.307
 1024POPC   C3B16017  24.766   7.864   7.849
 1024POPC   C4B16018  24.793   7.763   7.372
 1025POPC   NC316019  31.087  33.735   9.841
 1025POPC   PO416020  30.830  33.772   9.205
 1025POPC   GL116021  30.663  34.022   8.941
 1025POPC   GL216022  30.414  33.771   8.849
 1025POPC   C1A16023  30.694  34.128   8.557
 1025POPC   D2A16024  30.530  33.840   8.316
 1025POPC   C3A16025  30.588  33.769   7.936
 1025POPC   C4A16026  30.702  34.108   7.738
 1025POPC   C1B16027  30.767  33.512   8.634
 1025POPC   C2B16028  30.970  33.519   8.244
 1025POPC   C3B16029  30.935  33.363   7.840
 1025POPC   C4B16030  30.967  33.225   7.391
 1026POPC   NC316031   8.611  23.217   9.974
 1026POPC   PO416032   9.123  22.804   9.730
 1026POPC   GL116033   9.078  22.968   9.297
 1026POPC   GL216034   9.164  23.329   9.325
 1026POPC   C1A16035   8.989  22.774   8.883
 1026POPC   D2A16036   9.064  22.564   8.463
 1026POPC   C3A16037   8.853  22.783   8.104
 1026POPC   C4A16038   9.048  22.817   7.705
 1026POPC   C1B16039   9.159  23.295   8.874
 1026POPC   C2B16040   9.056  23.164   8.446
 1026POPC   C3B16041   9.089  23.273   7.991
 1026POPC   C4B16042   8.718  23.211   7.732
 1027POPC   NC316043  34.097  25.308   9.361
 1027POPC   PO416044  33.517  25.642   9.376
 1027POPC   GL116045  33.650  25.369   9.075
 1027POPC   GL216046  33.932  25.139   8.932
 1027POPC   C1A16047  33.567  25.365   8.684
 1027POPC   D2A16048  33.795  25.168   8.399
 1027POPC   C3A16049  33.657  25.441   8.132
 1027POPC   C4A16050  33.512  25.363   7.751
 1027POPC   C1B16051  34.027  24.780   8.751
 1027POPC   C2B16052  34.143  24.584   8.387
 1027POPC   C3B16053  34.137  24.805   7.990
 1027POPC   C4B16054  33.978  25.192   7.827
 1028POPC   NC316055  43.005  28.788   9.360
 1028POPC   PO416056  42.937  28.151   9.694
 1028POPC   GL116057  42.791  28.333   9.306
 1028POPC   GL216058  43.157  28.315   9.189
 1028POPC   C1A16059  42.805  28.354   8.833
 1028POPC   D2A16060  43.103  28.245   8.514
 1028POPC   C3A16061  42.958  28.419   8.125
 1028POPC   C4A16062  43.033  28.284   7.704
 1028POPC   C1B16063  43.516  28.217   8.891
 1028POPC   C2B16064  43.686  28.307   8.471
 1028POPC   C3B16065  43.457  28.322   8.070
 1028POPC   C4B16066  43.469  28.542   7.647
 1029POPC   NC316067   5.454  24.434   9.674
 1029POPC   PO416068   6.057  24.483   9.429
 1029POPC   GL116069   5.726  24.507   9.147
 1029POPC   GL216070   5.618  24.166   9.103
 1029POPC   C1A16071   5.791  24.676   8.731
 1029POPC   D2A16072   5.668  24.549   8.344
 1029POPC   C3A16073   5.823  24.405   7.955
 1029POPC   C4A16074   5.774  24.446   7.488
 1029POPC   C1B16075   5.884  24.178   8.733
 1029POPC   C2B16076   6.159  24.296   8.409
 1029POPC   C3B16077   6.198  24.066   8.035
 1029POPC   C4B16078   6.165  24.192   7.626
 1030POPC   NC316079  42.437  34.260   9.311
 1030POPC   PO416080  42.099  34.830   9.520
 1030POPC   GL116081  42.066  34.603   9.133
 1030POPC   GL216082  42.378  34.640   8.961
 1030POPC   C1A16083  41.951  34.476   8.709
 1030POPC   D2A16084  42.102  34.758   8.369
 1030POPC   C3A16085  42.196  34.601   7.946
 1030POPC   C4A16086  41.990  34.676   7.562
 1030POPC   C1B16087  42.671  34.816   8.670
 1030POPC   C2B16088  42.608  34.858   8.240
 1030POPC   C3B16089  42.690  34.757   7.830
 1030POPC   C4B16090  42.614  34.445   7.578
 1031POPC   NC316091   7.262  35.433   9.593
 1031POPC   PO416092   7.953  35.415   9.619
 1031POPC   GL116093   7.644  35.461   9.189
 1031POPC   GL216094   7.390  35.201   9.163
 1031POPC   C1A16095   7.585  35.640   8.808
 1031POPC   D2A16096   7.231  35.592   8.589
 1031POPC   C3A16097   7.321  35.539   8.208
 1031POPC   C4A16098   7.280  35.466   7.785
 1031POPC   C1B16099   7.508  35.108   8.767
 1031POPC   C2B16100   7.341  35.067   8.403
 1031POPC   C3B16101   7.604  35.150   8.055
 1031POPC   C4B16102   7.607  35.066   7.637
 1032POPC   NC316103  18.471  24.176   9.693
 1032POPC   PO416104  18.004  24.603   9.421
 1032POPC   GL116105  18.336  24.667   9.134
 1032POPC   GL216106  18.119  24.552   8.885
 1032POPC   C1A16107  18.606  24.573   8.798
 1032POPC   D2A16108  18.473  24.304   8.518
 1032POPC   C3A16109  18.605  24.428   8.141
 1032POPC   C4A16110  18.418  24.278   7.784
 1032POPC   C1B16111  17.959  24.238   8.616
 1032POPC   C2B16112  18.086  24.227   8.196
 1032POPC   C3B16113  17.964  24.506   7.899
 1032POPC   C4B16114  18.139  24.652   7.515
 1033POPC   NC316115  22.153   6.034   9.756
 1033POPC   PO416116  22.118   6.737   9.668
 1033POPC   GL116117  22.154   6.673   9.206
 1033POPC   GL216118  22.371   6.922   9.163
 1033POPC   C1A16119  22.103   6.549   8.732
 1033POPC   D2A16120  22.324   6.378   8.299
 1033POPC   C3A16121  22.224   6.502   7.870
 1033POPC   C4A16122  22.078   6.853   7.600
 1033POPC   C1B16123  22.397   7.038   8.761
 1033POPC   C2B16124  22.251   6.878   8.356
 1033POPC   C3B16125  22.420   6.955   7.970
 1033POPC   C4B16126  22.445   7.201   7.599
 1034POPC   NC316127  15.579  16.376   9.446
 1034POPC   PO416128  16.254  16.076   9.485
 1034POPC   GL116129  15.990  16.205   9.171
 1034POPC   GL216130  15.690  16.007   9.076
 1034POPC   C1A16131  16.044  16.205   8.741
 1034POPC   D2A16132  15.889  16.139   8.337
 1034POPC   C3A16133  15.926  16.478   8.085
 1034POPC   C4A16134  16.287  16.399   7.839
 1034POPC   C1B16135  15.820  15.658   8.793
 1034POPC   C2B16136  15.791  15.469   8.370
 1034POPC   C3B16137  15.880  15.737   8.011
 1034POPC   C4B16138  15.847  16.102   7.764
 1035POPC   NC316139  11.132   5.632   9.614
 1035POPC   PO416140  11.707   5.699   9.294
 1035POPC   GL116141  11.295   5.798   9.155
 1035POPC   GL216142  11.369   6.111   9.127
 1035POPC   C1A16143  11.135   5.889   8.752
 1035POPC   D2A16144  11.407   5.835   8.424
 1035POPC   C3A16145  11.237   5.859   8.018
 1035POPC   C4A16146  11.099   5.818   7.605
 1035POPC   C1B16147  11.517   6.265   8.735
 1035POPC   C2B16148  11.741   6.212   8.346
 1035POPC   C3B16149  11.729   5.941   8.014
 1035POPC   C4B16150  11.614   5.695   7.668
 1036POPC   NC316151  10.561  42.795   9.536
 1036POPC   PO416152  10.282  43.322   9.678
 1036POPC   GL116153  10.335  43.145   9.223
 1036POPC   GL216154  10.662  42.985   9.089
 1036POPC   C1A16155  10.399  43.214   8.747
 1036POPC   D2A16156  10.451  43.060   8.343
 1036POPC   C3A16157  10.636  43.258   7.990
 1036POPC   C4A16158  10.327  43.066   7.777
 1036POPC   C1B16159  10.785  42.819   8.681
 1036POPC   C2B16160  10.911  42.599   8.327
 1036POPC   C3B16161  10.702  42.752   7.985
 1036POPC   C4B16162  10.729  42.831   7.544
 1037POPC   NC316163  33.520  10.117   9.539
 1037POPC   PO416164  34.104  10.304   9.357
 1037POPC   GL116165  33.815  10.381   9.087
 1037POPC   GL216166  33.470  10.444   9.131
 1037POPC   C1A16167  33.884  10.357   8.676
 1037POPC   D2A16168  33.705  10.397   8.306
 1037POPC   C3A16169  33.974  10.342   7.997
 1037POPC   C4A16170  33.768  10.292   7.651
 1037POPC   C1B16171  33.630  10.777   8.782
 1037POPC   C2B16172  33.597  10.926   8.342
 1037POPC   C3B16173  33.723  10.782   7.922
 1037POPC   C4B16174  33.635  10.754   7.469
 1038POPC   NC316175  10.025  31.100   9.518
 1038POPC   PO416176   9.453  31.518   9.516
 1038POPC   GL116177   9.737  31.383   9.173
 1038POPC   GL216178  10.115  31.402   9.112
 1038POPC   C1A16179   9.753  31.617   8.786
 1038POPC   D2A16180   9.429  31.725   8.514
 1038POPC   C3A16181   9.598  31.694   8.112
 1038POPC   C4A16182   9.541  31.816   7.692
 1038POPC   C1B16183   9.983  31.177   8.722
 1038POPC   C2B16184   9.856  31.088   8.312
 1038POPC   C3B16185  10.105  31.244   7.996
 1038POPC   C4B16186   9.941  31.489   7.682
 1039POPC   NC316187  38.152  43.153   9.568
 1039POPC   PO416188  38.810  43.306   9.546
 1039POPC   GL116189  38.626  43.005   9.262
 1039POPC   GL216190  38.323  43.142   9.096
 1039POPC   C1A16191  38.750  42.991   8.823
 1039POPC   D2A16192  38.842  43.268   8.440
 1039POPC   C3A16193  38.780  43.014   8.068
 1039POPC   C4A16194  38.574  42.855   7.719
 1039POPC   C1B16195  38.363  43.294   8.689
 1039POPC   C2B16196  38.359  43.253   8.263
 1039POPC   C3B16197  38.168  43.053   7.965
 1039POPC   C4B16198  38.290  43.280   7.654
 1040POPC   NC316199  31.954  13.099   9.535
 1040POPC   PO416200  31.348  12.785   9.738
 1040POPC   GL116201  31.391  12.810   9.262
 1040POPC   GL216202  31.317  13.162   9.151
 1040POPC   C1A16203  31.560  12.731   8.844
 1040POPC   D2A16204  31.658  12.722   8.402
 1040POPC   C3A16205  31.391  12.750   8.039
 1040POPC   C4A16206  31.487  12.825   7.618
 1040POPC   C1B16207  31.650  13.246   8.835
 1040POPC   C2B16208  31.869  13.179   8.442
 1040POPC   C3B16209  31.792  13.078   8.031
 1040POPC   C4B16210  32.059  12.967   7.716
 1041POPC   NC316211  37.196  43.316   9.533
 1041POPC   PO416212  36.650  42.935   9.427
 1041POPC   GL116213  36.908  43.102   9.113
 1041POPC   GL216214  36.609  43.207   8.985
 1041POPC   C1A16215  36.996  43.125   8.647
 1041POPC   D2A16216  36.720  43.070   8.258
 1041POPC   C3A16217  36.924  43.204   7.898
 1041POPC   C4A16218  37.349  43.114   7.813
 1041POPC   C1B16219  36.600  42.817   8.710
 1041POPC   C2B16220  36.533  42.597   8.283
 1041POPC   C3B16221  36.538  42.701   7.838
 1041POPC   C4B16222  36.525  42.791   7.326
 1042POPC   NC316223  36.714   6.919   9.588
 1042POPC   PO416224  36.884   6.245   9.502
 1042POPC   GL116225  36.924   6.464   9.135
 1042POPC   GL216226  36.936   6.806   9.141
 1042POPC   C1A16227  36.916   6.328   8.734
 1042POPC   D2A16228  37.176   6.412   8.397
 1042POPC   C3A16229  36.879   6.346   8.102
 1042POPC   C4A16230  36.612   6.398   7.790
 1042POPC   C1B16231  37.022   6.813   8.739
 1042POPC   C2B16232  36.796   6.789   8.369
 1042POPC   C3B16233  37.079   6.835   8.088
 1042POPC   C4B16234  37.035   6.665   7.731
 1043POPC   NC316235  42.995  33.515   9.491
 1043POPC   PO416236  43.491  33.949   9.465
 1043POPC   GL116237  43.186  33.877   9.175
 1043POPC   GL216238  43.011  34.180   9.152
 1043POPC   C1A16239  42.982  33.771   8.784
 1043POPC   D2A16240  43.052  33.570   8.383
 1043POPC   C3A16241  43.100  33.793   8.025
 1043POPC   C4A16242  43.345  33.685   7.673
 1043POPC   C1B16243  43.293  34.222   8.802
 1043POPC   C2B16244  43.324  34.205   8.335
 1043POPC   C3B16245  43.437  34.156   7.877
 1043POPC   C4B16246  43.372  34.098   7.390
 1044POPC   NC316247   1.507  41.930   9.518
 1044POPC   PO416248   1.180  41.296   9.685
 1044POPC   GL116249   1.196  41.409   9.254
 1044POPC   GL216250   0.984  41.704   9.220
 1044POPC   C1A16251   1.058  41.327   8.813
 1044POPC   D2A16252   0.942  41.170   8.420
 1044POPC   C3A16253   1.032  41.461   8.123
 1044POPC   C4A16254   1.029  41.422   7.704
 1044POPC   C1B16255   1.281  41.765   8.898
 1044POPC   C2B16256   1.324  41.740   8.472
 1044POPC   C3B16257   1.603  41.698   8.134
 1044POPC   C4B16258   1.498  41.608   7.713
 1045POPC   NC316259  43.597  17.147   9.592
 1045POPC   PO416260  43.977  16.565   9.535
 1045POPC   GL116261  43.715  16.790   9.244
 1045POPC   GL216262  43.932  17.040   9.211
 1045POPC   C1A16263  43.630  16.936   8.828
 1045POPC   D2A16264  43.878  16.949   8.453
 1045POPC   C3A16265  43.764  16.847   8.052
 1045POPC   C4A16266  43.533  16.574   7.820
 1045POPC   C1B16267  44.181  16.927   8.872
 1045POPC   C2B16268  44.358  17.082   8.489
 1045POPC   C3B16269  44.271  16.945   8.098
 1045POPC   C4B16270  44.106  17.027   7.698
 1046POPC   NC316271  34.846  25.849   9.369
 1046POPC   PO416272  34.863  26.517   9.229
 1046POPC   GL116273  34.720  26.204   9.003
 1046POPC   GL216274  34.442  26.038   9.145
 1046POPC   C1A16275  34.801  25.998   8.617
 1046POPC   D2A16276  34.611  25.965   8.214
 1046POPC   C3A16277  34.648  26.354   7.964
 1046POPC   C4A16278  34.788  26.138   7.623
 1046POPC   C1B16279  34.286  26.046   8.756
 1046POPC   C2B16280  34.275  26.308   8.409
 1046POPC   C3B16281  34.164  26.198   8.004
 1046POPC   C4B16282  34.277  26.003   7.604
 1047POPC   NC316283  17.121  31.859   9.425
 1047POPC   PO416284  16.579  31.323   9.551
 1047POPC   GL116285  16.730  31.585   9.236
 1047POPC   GL216286  16.435  31.748   9.186
 1047POPC   C1A16287  16.869  31.434   8.885
 1047POPC   D2A16288  16.729  31.219   8.534
 1047POPC   C3A16289  16.974  31.336   8.175
 1047POPC   C4A16290  16.784  31.453   7.788
 1047POPC   C1B16291  16.444  31.646   8.743
 1047POPC   C2B16292  16.597  31.664   8.320
 1047POPC   C3B16293  16.404  31.755   7.967
 1047POPC   C4B16294  16.535  31.838   7.561
 1048POPC   NC316295   2.209  28.952   9.475
 1048POPC   PO416296   2.093  29.564   9.374
 1048POPC   GL116297   2.024  29.276   9.054
 1048POPC   GL216298   1.776  29.008   9.142
 1048POPC   C1A16299   2.008  29.346   8.605
 1048POPC   D2A16300   2.273  29.141   8.305
 1048POPC   C3A16301   2.095  29.139   7.929
 1048POPC   C4A16302   1.685  29.114   8.050
 1048POPC   C1B16303   2.017  28.848   8.769
 1048POPC   C2B16304   1.930  28.668   8.373
 1048POPC   C3B16305   1.827  28.627   7.951
 1048POPC   C4B16306   2.077  28.726   7.656
 1049POPC   NC316307  40.335  10.878   9.465
 1049POPC   PO416308  40.835  10.828   9.970
 1049POPC   GL116309  40.832  10.704   9.428
 1049POPC   GL216310  40.609  10.734   9.071
 1049POPC   C1A16311  41.041  10.513   9.019
 1049POPC   D2A16312  41.140  10.580   8.568
 1049POPC   C3A16313  40.983  10.411   8.183
 1049POPC   C4A16314  40.829  10.639   7.851
 1049POPC   C1B16315  40.647  10.456   8.667
 1049POPC   C2B16316  40.474  10.499   8.215
 1049POPC   C3B16317  40.480  10.283   7.764
 1049POPC   C4B16318  40.559  10.293   7.299
 1050POPC   NC316319  19.694  29.445   9.407
 1050POPC   PO416320  20.164  28.943   9.663
 1050POPC   GL116321  20.090  29.020   9.206
 1050POPC   GL216322  19.749  29.090   9.055
 1050POPC   C1A16323  20.125  29.191   8.760
 1050POPC   D2A16324  19.741  29.098   8.489
 1050POPC   C3A16325  19.655  29.240   8.073
 1050POPC   C4A16326  19.781  29.142   7.669
 1050POPC   C1B16327  19.435  28.854   8.803
 1050POPC   C2B16328  19.454  28.620   8.414
 1050POPC   C3B16329  19.429  28.665   7.948
 1050POPC   C4B16330  19.571  28.718   7.494
 1051POPC   NC316331   7.540  11.761   9.547
 1051POPC   PO416332   7.631  11.051   9.508
 1051POPC   GL116333   7.533  11.160   9.127
 1051POPC   GL216334   7.420  11.482   9.132
 1051POPC   C1A16335   7.400  11.184   8.718
 1051POPC   D2A16336   7.640  11.063   8.433
 1051POPC   C3A16337   7.420  11.126   8.121
 1051POPC   C4A16338   7.616  11.137   7.783
 1051POPC   C1B16339   7.178  11.638   8.751
 1051POPC   C2B16340   7.121  11.523   8.301
 1051POPC   C3B16341   7.482  11.619   8.042
 1051POPC   C4B16342   7.712  11.849   7.774
 1052POPC   NC316343  41.719  14.303   9.659
 1052POPC   PO416344  41.111  14.125   9.417
 1052POPC   GL116345  41.472  14.184   9.172
 1052POPC   GL216346  41.624  14.527   9.196
 1052POPC   C1A16347  41.467  14.329   8.738
 1052POPC   D2A16348  41.661  14.537   8.459
 1052POPC   C3A16349  41.383  14.460   8.119
 1052POPC   C4A16350  41.256  14.398   7.689
 1052POPC   C1B16351  41.920  14.763   8.968
 1052POPC   C2B16352  41.935  14.953   8.578
 1052POPC   C3B16353  41.954  14.839   8.139
 1052POPC   C4B16354  41.647  14.744   7.805
 1053POPC   NC316355  17.983  29.760   9.515
 1053POPC   PO416356  18.279  30.367   9.490
 1053POPC   GL116357  18.381  30.138   9.097
 1053POPC   GL216358  18.184  29.845   9.049
 1053POPC   C1A16359  18.361  30.065   8.619
 1053POPC   D2A16360  18.300  30.267   8.212
 1053POPC   C3A16361  18.386  30.008   7.877
 1053POPC   C4A16362  18.370  29.588   7.744
 1053POPC   C1B16363  17.945  29.779   8.658
 1053POPC   C2B16364  18.003  29.841   8.206
 1053POPC   C3B16365  17.809  30.027   7.841
 1053POPC   C4B16366  17.706  29.872   7.417
 1054POPC   NC316367  14.581  28.340   9.641
 1054POPC   PO416368  14.073  28.081   9.288
 1054POPC   GL116369  14.322  28.302   9.036
 1054POPC   GL216370  14.391  28.613   9.195
 1054POPC   C1A16371  14.455  28.275   8.612
 1054POPC   D2A16372  14.489  27.999   8.273
 1054POPC   C3A16373  14.432  28.243   7.959
 1054POPC   C4A16374  14.194  28.135   7.612
 1054POPC   C1B16375  14.474  28.741   8.810
 1054POPC   C2B16376  14.227  28.701   8.448
 1054POPC   C3B16377  14.311  28.791   8.060
 1054POPC   C4B16378  14.339  28.637   7.650
 1055POPC   NC316379   1.237   5.071   9.600
 1055POPC   PO416380   1.065   4.469   9.331
 1055POPC   GL116381   1.227   4.890   9.103
 1055POPC   GL216382   1.132   5.253   9.124
 1055POPC   C1A16383   1.379   5.111   8.700
 1055POPC   D2A16384   1.292   4.944   8.295
 1055POPC   C3A16385   1.419   4.955   7.872
 1055POPC   C4A16386   1.184   4.668   7.633
 1055POPC   C1B16387   0.938   5.442   8.746
 1055POPC   C2B16388   0.958   5.317   8.343
 1055POPC   C3B16389   1.139   5.388   7.934
 1055POPC   C4B16390   1.455   5.412   7.573
 1056POPC   NC316391  44.997  16.787   9.876
 1056POPC   PO416392   0.556  16.828   9.509
 1056POPC   GL116393   0.471  16.722   9.111
 1056POPC   GL216394   0.137  16.717   9.197
 1056POPC   C1A16395   0.634  16.801   8.696
 1056POPC   D2A16396   0.711  16.807   8.249
 1056POPC   C3A16397   0.585  16.987   7.874
 1056POPC   C4A16398   0.538  16.599   7.611
 1056POPC   C1B16399   0.094  16.491   8.819
 1056POPC   C2B16400   0.111  16.369   8.376
 1056POPC   C3B16401   0.251  16.598   8.022
 1056POPC   C4B16402   0.103  16.870   7.679
 1057POPC   NC316403   7.038   6.215   9.486
 1057POPC   PO416404   6.829   6.824   9.445
 1057POPC   GL116405   6.775   6.509   9.143
 1057POPC   GL216406   6.654   6.777   8.949
 1057POPC   C1A16407   6.652   6.301   8.774
 1057POPC   D2A16408   6.744   6.149   8.351
 1057POPC   C3A16409   6.661   6.462   8.058
 1057POPC   C4A16410   6.487   6.608   7.691
 1057POPC   C1B16411   6.801   7.035   8.623
 1057POPC   C2B16412   6.589   7.018   8.228
 1057POPC   C3B16413   6.621   7.068   7.786
 1057POPC   C4B16414   6.842   6.983   7.392
 1058POPC   NC316415   7.539  38.546   9.314
 1058POPC   PO416416   7.140  38.182   9.645
 1058POPC   GL116417   7.372  38.096   9.171
 1058POPC   GL216418   7.292  38.379   8.901
 1058POPC   C1A16419   7.624  38.029   8.781
 1058POPC   D2A16420   7.380  38.036   8.396
 1058POPC   C3A16421   7.476  38.165   7.960
 1058POPC   C4A16422   7.397  38.514   7.683
 1058POPC   C1B16423   7.623  38.541   8.629
 1058POPC   C2B16424   7.661  38.586   8.180
 1058POPC   C3B16425   7.762  38.821   7.839
 1058POPC   C4B16426   7.807  38.708   7.389
 1059POPC   NC316427  43.971  41.146   9.522
 1059POPC   PO416428  43.472  40.739   9.360
 1059POPC   GL116429  43.842  40.894   9.091
 1059POPC   GL216430  44.178  40.722   9.148
 1059POPC   C1A16431  43.985  40.766   8.673
 1059POPC   D2A16432  44.240  40.787   8.307
 1059POPC   C3A16433  44.010  40.897   7.922
 1059POPC   C4A16434  43.907  40.782   7.492
 1059POPC   C1B16435  44.359  40.444   8.803
 1059POPC   C2B16436  44.337  40.275   8.365
 1059POPC   C3B16437  44.116  40.379   7.954
 1059POPC   C4B16438  44.077  40.305   7.487
 1060POPC   NC316439  18.721  34.005   9.750
 1060POPC   PO416440  19.085  33.670   9.346
 1060POPC   GL116441  18.930  33.775   9.020
 1060POPC   GL216442  19.188  34.016   8.968
 1060POPC   C1A16443  18.909  33.782   8.603
 1060POPC   D2A16444  19.112  34.020   8.380
 1060POPC   C3A16445  19.244  33.764   8.077
 1060POPC   C4A16446  18.960  33.621   7.777
 1060POPC   C1B16447  19.472  34.257   8.758
 1060POPC   C2B16448  19.323  34.475   8.424
 1060POPC   C3B16449  19.357  34.312   8.027
 1060POPC   C4B16450  19.345  34.044   7.672
 1061POPC   NC316451  18.466   1.851   9.469
 1061POPC   PO416452  18.159   2.446   9.422
 1061POPC   GL116453  18.380   2.238   9.113
 1061POPC   GL216454  18.296   1.887   9.006
 1061POPC   C1A16455  18.436   2.302   8.692
 1061POPC   D2A16456  18.504   2.065   8.326
 1061POPC   C3A16457  18.365   2.202   7.906
 1061POPC   C4A16458  18.483   2.182   7.466
 1061POPC   C1B16459  18.142   1.692   8.631
 1061POPC   C2B16460  18.054   1.453   8.301
 1061POPC   C3B16461  18.138   1.771   8.046
 1061POPC   C4B16462  18.329   1.742   7.643
 1062POPC   NC316463  35.838  38.416   9.429
 1062POPC   PO416464  36.389  38.260   9.563
 1062POPC   GL116465  36.207  38.139   9.156
 1062POPC   GL216466  36.199  38.504   9.064
 1062POPC   C1A16467  36.066  38.192   8.690
 1062POPC   D2A16468  36.190  38.591   8.425
 1062POPC   C3A16469  36.275  38.521   7.985
 1062POPC   C4A16470  36.286  38.086   7.827
 1062POPC   C1B16471  35.839  38.645   8.795
 1062POPC   C2B16472  35.678  38.683   8.344
 1062POPC   C3B16473  35.757  38.594   7.902
 1062POPC   C4B16474  35.635  38.720   7.475
 1063POPC   NC316475  32.467  39.566   9.468
 1063POPC   PO416476  32.156  38.951   9.548
 1063POPC   GL116477  32.153  39.261   9.227
 1063POPC   GL216478  32.437  39.132   9.117
 1063POPC   C1A16479  32.069  39.389   8.799
 1063POPC   D2A16480  32.187  39.271   8.381
 1063POPC   C3A16481  32.150  39.475   7.999
 1063POPC   C4A16482  32.038  39.330   7.591
 1063POPC   C1B16483  32.559  39.309   8.705
 1063POPC   C2B16484  32.665  39.385   8.216
 1063POPC   C3B16485  32.469  39.165   7.793
 1063POPC   C4B16486  32.501  39.372   7.357
 1064POPC   NC316487  20.912  37.232   9.498
 1064POPC   PO416488  21.143  36.673   9.489
 1064POPC   GL116489  20.692  36.736   9.288
 1064POPC   GL216490  20.460  37.050   9.274
 1064POPC   C1A16491  20.467  36.691   8.887
 1064POPC   D2A16492  20.420  36.900   8.505
 1064POPC   C3A16493  20.461  36.745   8.095
 1064POPC   C4A16494  20.858  36.762   7.851
 1064POPC   C1B16495  20.617  37.213   8.876
 1064POPC   C2B16496  20.467  37.401   8.488
 1064POPC   C3B16497  20.632  37.224   8.129
 1064POPC   C4B16498  20.501  37.119   7.730
 1065POPC   NC316499  36.854  29.537   9.800
 1065POPC   PO416500  36.867  30.053   9.333
 1065POPC   GL116501  37.170  29.973   9.021
 1065POPC   GL216502  37.134  29.646   9.015
 1065POPC   C1A16503  37.164  29.968   8.580
 1065POPC   D2A16504  36.825  30.043   8.303
 1065POPC   C3A16505  37.001  30.273   7.990
 1065POPC   C4A16506  37.184  30.087   7.636
 1065POPC   C1B16507  36.811  29.614   8.676
 1065POPC   C2B16508  36.967  29.531   8.293
 1065POPC   C3B16509  36.989  29.708   7.919
 1065POPC   C4B16510  36.621  29.934   7.787
 1066POPC   NC316511  25.602  27.870   9.719
 1066POPC   PO416512  25.884  28.445   9.601
 1066POPC   GL116513  25.854  28.440   9.152
 1066POPC   GL216514  25.750  28.776   9.050
 1066POPC   C1A16515  25.823  28.261   8.743
 1066POPC   D2A16516  26.152  28.323   8.427
 1066POPC   C3A16517  26.132  28.282   7.996
 1066POPC   C4A16518  25.811  28.130   7.729
 1066POPC   C1B16519  26.148  28.679   8.798
 1066POPC   C2B16520  26.411  28.788   8.398
 1066POPC   C3B16521  26.398  28.738   7.936
 1066POPC   C4B16522  26.695  28.531   7.618
 1067POPC   NC316523  26.279  33.324   9.688
 1067POPC   PO416524  25.841  32.926   9.486
 1067POPC   GL116525  25.957  33.308   9.263
 1067POPC   GL216526  26.306  33.300   9.153
 1067POPC   C1A16527  25.896  33.221   8.838
 1067POPC   D2A16528  25.980  33.014   8.459
 1067POPC   C3A16529  25.851  33.154   8.062
 1067POPC   C4A16530  25.926  33.080   7.644
 1067POPC   C1B16531  26.459  33.159   8.742
 1067POPC   C2B16532  26.467  33.044   8.300
 1067POPC   C3B16533  26.339  32.910   7.889
 1067POPC   C4B16534  26.436  33.025   7.442
 1068POPC   NC316535  14.747  29.713   9.532
 1068POPC   PO416536  14.278  30.187   9.402
 1068POPC   GL116537  14.618  30.047   9.143
 1068POPC   GL216538  14.552  29.662   9.085
 1068POPC   C1A16539  14.496  30.020   8.715
 1068POPC   D2A16540  14.160  30.070   8.455
 1068POPC   C3A16541  14.417  30.212   8.132
 1068POPC   C4A16542  14.284  30.161   7.720
 1068POPC   C1B16543  14.743  29.575   8.725
 1068POPC   C2B16544  14.737  29.752   8.314
 1068POPC   C3B16545  14.720  29.541   7.931
 1068POPC   C4B16546  14.449  29.644   7.601
 1069POPC   NC316547  36.449  26.316   9.524
 1069POPC   PO416548  35.932  25.923   9.466
 1069POPC   GL116549  35.925  25.957   9.036
 1069POPC   GL216550  35.998  26.304   9.054
 1069POPC   C1A16551  36.260  25.788   8.742
 1069POPC   D2A16552  36.577  25.691   8.433
 1069POPC   C3A16553  36.442  26.017   8.173
 1069POPC   C4A16554  36.163  26.042   7.831
 1069POPC   C1B16555  36.121  26.293   8.635
 1069POPC   C2B16556  35.934  26.057   8.319
 1069POPC   C3B16557  35.681  26.191   7.959
 1069POPC   C4B16558  35.821  26.348   7.604
 1070POPC   NC316559  27.289  21.509   9.898
 1070POPC   PO416560  26.908  21.166   9.428
 1070POPC   GL116561  26.968  21.456   9.121
 1070POPC   GL216562  27.065  21.182   8.937
 1070POPC   C1A16563  26.806  21.638   8.786
 1070POPC   D2A16564  26.866  21.478   8.403
 1070POPC   C3A16565  27.073  21.709   8.097
 1070POPC   C4A16566  26.811  21.598   7.771
 1070POPC   C1B16567  27.298  21.409   8.694
 1070POPC   C2B16568  27.338  21.330   8.301
 1070POPC   C3B16569  27.061  21.191   7.941
 1070POPC   C4B16570  27.173  21.251   7.477
 1071POPC   NC316571  44.338  28.338   9.609
 1071POPC   PO416572  44.915  28.118   9.410
 1071POPC   GL116573  44.601  28.317   9.120
 1071POPC   GL216574  44.381  28.608   9.161
 1071POPC   C1A16575  44.716  28.394   8.675
 1071POPC   D2A16576   0.083  28.266   8.417
 1071POPC   C3A16577  44.920  28.046   8.064
 1071POPC   C4A16578  44.638  28.114   7.722
 1071POPC   C1B16579  44.213  28.451   8.745
 1071POPC   C2B16580  44.336  28.541   8.323
 1071POPC   C3B16581  44.708  28.546   8.073
 1071POPC   C4B16582  44.648  28.791   7.708
 1072POPC   NC316583  28.629  13.323   9.560
 1072POPC   PO416584  29.305  13.679   9.600
 1072POPC   GL116585  29.270  13.542   9.209
 1072POPC   GL216586  28.937  13.608   9.223
 1072POPC   C1A16587  29.464  13.458   8.812
 1072POPC   D2A16588  29.504  13.687   8.436
 1072POPC   C3A16589  29.368  13.525   8.059
 1072POPC   C4A16590  29.655  13.436   7.708
 1072POPC   C1B16591  29.040  13.723   8.796
 1072POPC   C2B16592  28.953  13.631   8.393
 1072POPC   C3B16593  28.930  13.865   8.037
 1072POPC   C4B16594  28.907  13.636   7.688
 1073POPC   NC316595  25.939  44.162   9.325
 1073POPC   PO416596  25.784  43.483   9.485
 1073POPC   GL116597  25.802  43.678   9.126
 1073POPC   GL216598  26.144  43.600   9.097
 1073POPC   C1A16599  25.665  43.830   8.737
 1073POPC   D2A16600  25.850  43.856   8.326
 1073POPC   C3A16601  25.856  44.095   7.954
 1073POPC   C4A16602  25.621  44.057   7.553
 1073POPC   C1B16603  26.213  43.817   8.713
 1073POPC   C2B16604  26.316  43.625   8.319
 1073POPC   C3B16605  26.415  43.491   7.922
 1073POPC   C4B16606  26.235  43.849   7.700
 1074POPC   NC316607   1.882  44.373   9.588
 1074POPC   PO416608   2.309  44.936   9.344
 1074POPC   GL116609   1.984  44.718   9.059
 1074POPC   GL216610   1.933  44.344   9.087
 1074POPC   C1A16611   1.686  44.701   8.672
 1074POPC   D2A16612   1.539  44.713   8.217
 1074POPC   C3A16613   1.831  44.899   7.923
 1074POPC   C4A16614   2.299  44.921   7.805
 1074POPC   C1B16615   1.713  44.179   8.740
 1074POPC   C2B16616   1.796  44.279   8.335
 1074POPC   C3B16617   1.814  44.367   7.926
 1074POPC   C4B16618   2.013  44.566   7.585
 1075POPC   NC316619  33.057  37.822   9.821
 1075POPC   PO416620  32.494  37.473   9.749
 1075POPC   GL116621  32.870  37.580   9.397
 1075POPC   GL216622  33.172  37.363   9.382
 1075POPC   C1A16623  32.920  37.694   8.906
 1075POPC   D2A16624  32.722  37.627   8.453
 1075POPC   C3A16625  32.968  37.773   8.079
 1075POPC   C4A16626  32.764  37.761   7.699
 1075POPC   C1B16627  33.266  37.322   8.908
 1075POPC   C2B16628  33.209  37.482   8.478
 1075POPC   C3B16629  33.009  37.284   8.093
 1075POPC   C4B16630  33.120  37.400   7.684
 1076POPC   NC316631  32.743   8.825   9.570
 1076POPC   PO416632  33.395   8.964   9.587
 1076POPC   GL116633  33.115   8.878   9.215
 1076POPC   GL216634  32.842   9.151   9.160
 1076POPC   C1A16635  33.192   8.971   8.781
 1076POPC   D2A16636  33.191   9.228   8.423
 1076POPC   C3A16637  33.284   8.961   8.068
 1076POPC   C4A16638  33.219   9.051   7.654
 1076POPC   C1B16639  32.671   8.912   8.804
 1076POPC   C2B16640  32.812   8.884   8.353
 1076POPC   C3B16641  32.842   9.194   7.995
 1076POPC   C4B16642  32.689   9.309   7.562
 1077POPC   NC316643   6.044  15.823   9.447
 1077POPC   PO416644   5.453  16.121   9.456
 1077POPC   GL116645   5.684  16.048   9.131
 1077POPC   GL216646   5.590  15.718   9.111
 1077POPC   C1A16647   5.822  16.122   8.728
 1077POPC   D2A16648   5.651  16.037   8.336
 1077POPC   C3A16649   5.788  15.848   7.974
 1077POPC   C4A16650   6.028  15.956   7.616
 1077POPC   C1B16651   5.752  15.594   8.730
 1077POPC   C2B16652   6.045  15.660   8.395
 1077POPC   C3B16653   6.086  15.430   8.002
 1077POPC   C4B16654   5.715  15.417   7.719
 1078POPC   NC316655  11.152   3.353   9.405
 1078POPC   PO416656  11.838   3.176   9.337
 1078POPC   GL116657  11.576   3.440   9.106
 1078POPC   GL216658  11.409   3.753   9.187
 1078POPC   C1A16659  11.398   3.410   8.697
 1078POPC   D2A16660  11.394   3.295   8.262
 1078POPC   C3A16661  11.363   3.583   7.953
 1078POPC   C4A16662  11.320   3.455   7.536
 1078POPC   C1B16663  11.220   3.867   8.845
 1078POPC   C2B16664  11.288   3.904   8.416
 1078POPC   C3B16665  11.110   4.043   8.049
 1078POPC   C4B16666  11.216   3.991   7.660
 1079POPC   NC316667  31.928   4.728   9.601
 1079POPC   PO416668  32.352   5.191   9.665
 1079POPC   GL116669  32.302   5.055   9.216
 1079POPC   GL216670  32.018   4.873   9.119
 1079POPC   C1A16671  32.213   5.250   8.793
 1079POPC   D2A16672  31.930   5.236   8.458
 1079POPC   C3A16673  32.066   5.139   8.058
 1079POPC   C4A16674  32.214   5.429   7.772
 1079POPC   C1B16675  32.330   4.770   8.778
 1079POPC   C2B16676  32.405   4.885   8.377
 1079POPC   C3B16677  32.447   4.783   7.950
 1079POPC   C4B16678  32.212   4.950   7.597
 1080POPC   NC316679   0.471  13.286   9.409
 1080POPC   PO416680   0.670  12.584   9.486
 1080POPC   GL116681   0.414  12.826   9.169
 1080POPC   GL216682   0.630  13.062   8.969
 1080POPC   C1A16683   0.152  12.913   8.789
 1080POPC   D2A16684   0.146  12.714   8.393
 1080POPC   C3A16685   0.316  12.916   8.014
 1080POPC   C4A16686   0.169  12.765   7.645
 1080POPC   C1B16687   0.577  12.678   8.703
 1080POPC   C2B16688   0.656  12.661   8.291
 1080POPC   C3B16689   0.821  12.551   7.923
 1080POPC   C4B16690   0.549  12.398   7.609
 1081POPC   NC316691  23.996  28.322   9.430
 1081POPC   PO416692  23.289  28.204   9.484
 1081POPC   GL116693  23.565  28.139   9.162
 1081POPC   GL216694  23.619  28.488   9.141
 1081POPC   C1A16695  23.664  28.198   8.726
 1081POPC   D2A16696  23.515  28.490   8.409
 1081POPC   C3A16697  23.650  28.198   8.127
 1081POPC   C4A16698  23.874  28.123   7.789
 1081POPC   C1B16699  23.794  28.685   8.804
 1081POPC   C2B16700  24.071  28.507   8.490
 1081POPC   C3B16701  23.973  28.586   8.060
 1081POPC   C4B16702  23.676  28.615   7.731
 1082POPC   NC316703  16.883  38.157   9.750
 1082POPC   PO416704  16.854  38.758   9.466
 1082POPC   GL116705  16.589  38.467   9.196
 1082POPC   GL216706  16.719  38.113   9.183
 1082POPC   C1A16707  16.628  38.415   8.736
 1082POPC   D2A16708  16.929  38.496   8.387
 1082POPC   C3A16709  16.802  38.712   8.010
 1082POPC   C4A16710  16.591  38.693   7.593
 1082POPC   C1B16711  16.431  37.934   8.863
 1082POPC   C2B16712  16.273  38.064   8.467
 1082POPC   C3B16713  16.473  38.331   8.168
 1082POPC   C4B16714  16.722  38.246   7.809
 1083POPC   NC316715  17.674  25.749   9.941
 1083POPC   PO416716  17.514  26.208   9.494
 1083POPC   GL116717  17.736  26.134   9.120
 1083POPC   GL216718  17.595  26.418   9.032
 1083POPC   C1A16719  17.650  25.834   8.776
 1083POPC   D2A16720  17.424  25.873   8.382
 1083POPC   C3A16721  17.668  25.884   7.999
 1083POPC   C4A16722  17.463  25.828   7.621
 1083POPC   C1B16723  17.618  26.320   8.611
 1083POPC   C2B16724  17.583  26.355   8.188
 1083POPC   C3B16725  17.568  26.362   7.762
 1083POPC   C4B16726  17.812  26.168   7.457
 1084POPC   NC316727   0.905   8.610   9.563
 1084POPC   PO416728   1.222   8.046   9.595
 1084POPC   GL116729   1.186   8.056   9.178
 1084POPC   GL216730   0.923   8.284   9.153
 1084POPC   C1A16731   1.335   8.016   8.778
 1084POPC   D2A16732   1.311   8.221   8.393
 1084POPC   C3A16733   1.161   8.029   8.011
 1084POPC   C4A16734   1.099   8.156   7.565
 1084POPC   C1B16735   0.818   8.021   8.798
 1084POPC   C2B16736   0.797   8.159   8.367
 1084POPC   C3B16737   0.966   8.490   8.096
 1084POPC   C4B16738   0.770   8.616   7.726
 1085POPC   NC316739  33.587  19.065   9.476
 1085POPC   PO416740  34.265  18.819   9.457
 1085POPC   GL116741  34.077  19.151   9.204
 1085POPC   GL216742  33.860  19.474   9.311
 1085POPC   C1A16743  33.915  18.926   8.833
 1085POPC   D2A16744  33.769  18.801   8.430
 1085POPC   C3A16745  33.919  19.003   8.055
 1085POPC   C4A16746  33.700  18.928   7.703
 1085POPC   C1B16747  33.751  19.398   8.875
 1085POPC   C2B16748  33.750  19.306   8.426
 1085POPC   C3B16749  33.550  19.383   7.976
 1085POPC   C4B16750  33.389  19.298   7.542
 1086POPC   NC316751  31.046  11.357   9.594
 1086POPC   PO416752  30.514  11.600   9.311
 1086POPC   GL116753  30.774  11.269   9.152
 1086POPC   GL216754  30.495  11.123   9.014
 1086POPC   C1A16755  30.944  11.170   8.740
 1086POPC   D2A16756  30.833  11.369   8.328
 1086POPC   C3A16757  30.897  11.062   8.032
 1086POPC   C4A16758  31.074  11.001   7.624
 1086POPC   C1B16759  30.487  11.393   8.701
 1086POPC   C2B16760  30.279  11.410   8.369
 1086POPC   C3B16761  30.425  11.297   7.994
 1086POPC   C4B16762  30.766  11.457   7.741
 1087POPC   NC316763  23.670   0.725   9.389
 1087POPC   PO416764  23.761   0.176   9.748
 1087POPC   GL116765  23.732   0.241   9.264
 1087POPC   GL216766  23.469   0.175   9.061
 1087POPC   C1A16767  23.892   0.393   8.831
 1087POPC   D2A16768  23.969   0.594   8.433
 1087POPC   C3A16769  24.153   0.370   8.132
 1087POPC   C4A16770  23.871   0.216   7.844
 1087POPC   C1B16771  23.442   0.242   8.616
 1087POPC   C2B16772  23.467   0.096   8.193
 1087POPC   C3B16773  23.369   0.263   7.777
 1087POPC   C4B16774  23.277   0.286   7.293
 1088POPC   NC316775  34.041  37.968   9.915
 1088POPC   PO416776  33.435  37.758   9.564
 1088POPC   GL116777  33.593  37.608   9.208
 1088POPC   GL216778  33.911  37.556   9.307
 1088POPC   C1A16779  33.494  37.778   8.817
 1088POPC   D2A16780  33.458  38.003   8.437
 1088POPC   C3A16781  33.502  37.725   8.122
 1088POPC   C4A16782  33.438  37.782   7.733
 1088POPC   C1B16783  34.035  37.746   8.901
 1088POPC   C2B16784  33.881  37.682   8.480
 1088POPC   C3B16785  33.972  37.509   8.054
 1088POPC   C4B16786  34.090  37.777   7.724
 1089POPC   NC316787  21.467   5.475   9.497
 1089POPC   PO416788  21.123   6.145   9.568
 1089POPC   GL116789  21.357   5.946   9.240
 1089POPC   GL216790  21.125   5.676   9.166
 1089POPC   C1A16791  21.569   5.943   8.811
 1089POPC   D2A16792  21.433   6.098   8.397
 1089POPC   C3A16793  21.669   6.123   8.004
 1089POPC   C4A16794  21.788   5.728   7.817
 1089POPC   C1B16795  21.063   5.923   8.791
 1089POPC   C2B16796  20.916   6.017   8.404
 1089POPC   C3B16797  21.108   5.754   8.147
 1089POPC   C4B16798  21.264   5.842   7.790
 1090POPC   NC316799  36.159   8.563   9.576
 1090POPC   PO416800  36.296   7.924   9.435
 1090POPC   GL116801  36.182   8.290   9.165
 1090POPC   GL216802  35.864   8.395   9.102
 1090POPC   C1A16803  36.308   8.417   8.771
 1090POPC   D2A16804  36.262   8.077   8.467
 1090POPC   C3A16805  36.277   8.191   8.043
 1090POPC   C4A16806  36.578   8.364   7.773
 1090POPC   C1B16807  35.859   8.001   8.816
 1090POPC   C2B16808  35.789   7.870   8.353
 1090POPC   C3B16809  35.794   8.081   7.917
 1090POPC   C4B16810  35.926   7.937   7.475
 1091POPC   NC316811  28.862  42.953   9.414
 1091POPC   PO416812  29.387  43.428   9.474
 1091POPC   GL116813  29.203  43.183   9.116
 1091POPC   GL216814  28.854  43.172   8.949
 1091POPC   C1A16815  29.293  43.019   8.727
 1091POPC   D2A16816  29.060  43.149   8.377
 1091POPC   C3A16817  29.327  43.395   8.172
 1091POPC   C4A16818  29.496  43.389   7.792
 1091POPC   C1B16819  28.825  42.793   8.693
 1091POPC   C2B16820  28.741  42.752   8.254
 1091POPC   C3B16821  28.844  42.998   7.876
 1091POPC   C4B16822  28.841  42.849   7.427
 1092POPC   NC316823   5.290  22.020   9.353
 1092POPC   PO416824   5.197  21.312   9.523
 1092POPC   GL116825   5.173  21.453   9.143
 1092POPC   GL216826   4.965  21.686   9.074
 1092POPC   C1A16827   5.067  21.237   8.744
 1092POPC   D2A16828   5.143  21.074   8.314
 1092POPC   C3A16829   4.960  21.251   7.988
 1092POPC   C4A16830   5.221  21.101   7.681
 1092POPC   C1B16831   5.353  21.711   8.761
 1092POPC   C2B16832   5.492  21.750   8.339
 1092POPC   C3B16833   5.429  21.477   7.991
 1092POPC   C4B16834   5.498  21.525   7.553
 1093POPC   NC316835  41.708   3.293   9.631
 1093POPC   PO416836  41.177   3.658   9.541
 1093POPC   GL116837  41.445   3.577   9.217
 1093POPC   GL216838  41.803   3.677   9.272
 1093POPC   C1A16839  41.320   3.537   8.784
 1093POPC   D2A16840  41.364   3.813   8.443
 1093POPC   C3A16841  41.365   3.563   8.089
 1093POPC   C4A16842  41.203   3.632   7.708
 1093POPC   C1B16843  41.774   3.358   8.909
 1093POPC   C2B16844  41.732   3.424   8.501
 1093POPC   C3B16845  41.848   3.355   8.124
 1093POPC   C4B16846  41.657   3.209   7.745
 1094POPC   NC316847  42.472  27.161   9.402
 1094POPC   PO416848  42.262  26.495   9.434
 1094POPC   GL116849  42.059  26.495   9.098
 1094POPC   GL216850  42.297  26.744   8.966
 1094POPC   C1A16851  41.894  26.533   8.726
 1094POPC   D2A16852  42.076  26.755   8.403
 1094POPC   C3A16853  41.939  26.617   8.015
 1094POPC   C4A16854  42.160  26.721   7.660
 1094POPC   C1B16855  42.393  27.132   8.751
 1094POPC   C2B16856  42.269  27.225   8.338
 1094POPC   C3B16857  42.445  26.919   8.053
 1094POPC   C4B16858  42.626  26.959   7.654
 1095POPC   NC316859  21.705  32.732   9.435
 1095POPC   PO416860  21.161  33.067   9.552
 1095POPC   GL116861  21.167  33.144   9.141
 1095POPC   GL216862  21.527  33.194   9.174
 1095POPC   C1A16863  21.290  32.916   8.773
 1095POPC   D2A16864  21.459  32.707   8.408
 1095POPC   C3A16865  21.213  32.829   8.035
 1095POPC   C4A16866  21.041  33.196   7.827
 1095POPC   C1B16867  21.473  33.409   8.806
 1095POPC   C2B16868  21.404  33.258   8.390
 1095POPC   C3B16869  21.532  33.202   7.961
 1095POPC   C4B16870  21.711  32.786   7.842
 1096POPC   NC316871  17.674  36.856   9.556
 1096POPC   PO416872  17.267  37.311   9.221
 1096POPC   GL116873  17.411  36.949   9.123
 1096POPC   GL216874  17.722  37.033   9.098
 1096POPC   C1A16875  17.403  36.753   8.749
 1096POPC   D2A16876  17.418  37.049   8.384
 1096POPC   C3A16877  17.195  36.970   8.014
 1096POPC   C4A16878  17.388  36.787   7.707
 1096POPC   C1B16879  17.809  37.162   8.708
 1096POPC   C2B16880  18.033  37.022   8.366
 1096POPC   C3B16881  17.817  36.948   7.989
 1096POPC   C4B16882  17.848  37.191   7.643
 1097POPC   NC316883   6.834  15.999   9.482
 1097POPC   PO416884   6.178  16.294   9.474
 1097POPC   GL116885   6.506  16.317   9.105
 1097POPC   GL216886   6.894  16.273   9.026
 1097POPC   C1A16887   6.548  16.154   8.669
 1097POPC   D2A16888   6.561  15.772   8.410
 1097POPC   C3A16889   6.363  15.852   8.022
 1097POPC   C4A16890   6.466  16.222   7.855
 1097POPC   C1B16891   6.918  15.861   8.828
 1097POPC   C2B16892   7.091  15.849   8.395
 1097POPC   C3B16893   6.900  15.940   8.012
 1097POPC   C4B16894   6.720  15.660   7.725
 1098POPC   NC316895   2.451  41.666   9.378
 1098POPC   PO416896   3.108  41.806   9.451
 1098POPC   GL116897   2.891  41.694   9.093
 1098POPC   GL216898   2.604  41.920   8.964
 1098POPC   C1A16899   2.797  41.528   8.707
 1098POPC   D2A16900   2.803  41.669   8.315
 1098POPC   C3A16901   2.444  41.493   8.181
 1098POPC   C4A16902   2.410  41.446   7.795
 1098POPC   C1B16903   2.974  42.007   8.687
 1098POPC   C2B16904   3.230  41.998   8.327
 1098POPC   C3B16905   3.016  42.007   7.972
 1098POPC   C4B16906   2.560  41.926   7.900
 1099POPC   NC316907  22.162  14.937   9.412
 1099POPC   PO416908  21.806  15.423   9.330
 1099POPC   GL116909  21.814  15.065   9.043
 1099POPC   GL216910  22.172  15.001   8.911
 1099POPC   C1A16911  21.797  14.887   8.615
 1099POPC   D2A16912  21.830  14.865   8.145
 1099POPC   C3A16913  22.175  15.076   7.906
 1099POPC   C4A16914  22.294  15.109   7.474
 1099POPC   C1B16915  22.202  15.165   8.466
 1099POPC   C2B16916  22.344  15.485   8.173
 1099POPC   C3B16917  22.524  15.506   7.754
 1099POPC   C4B16918  22.797  15.180   7.586
 1100POPC   NC316919  37.830  44.083   9.623
 1100POPC   PO416920  37.166  44.140   9.527
 1100POPC   GL116921  37.521  43.939   9.232
 1100POPC   GL216922  37.829  43.686   9.277
 1100POPC   C1A16923  37.648  43.832   8.805
 1100POPC   D2A16924  37.733  44.060   8.425
 1100POPC   C3A16925  37.663  43.841   8.065
 1100POPC   C4A16926  37.425  44.084   7.804
 1100POPC   C1B16927  38.124  43.708   8.900
 1100POPC   C2B16928  38.023  43.621   8.442
 1100POPC   C3B16929  38.150  43.647   7.995
 1100POPC   C4B16930  38.097  43.708   7.501
 1101POPC   NC316931  40.513  43.888   9.278
 1101POPC   PO416932  41.143  43.659   9.486
 1101POPC   GL116933  41.004  43.990   9.158
 1101POPC   GL216934  40.931  43.739   8.965
 1101POPC   C1A16935  40.816  44.212   8.801
 1101POPC   D2A16936  40.763  43.958   8.487
 1101POPC   C3A16937  40.666  44.164   8.132
 1101POPC   C4A16938  40.704  44.091   7.711
 1101POPC   C1B16939  40.614  43.512   8.723
 1101POPC   C2B16940  40.312  43.673   8.435
 1101POPC   C3B16941  40.612  43.641   8.119
 1101POPC   C4B16942  40.838  43.589   7.751
 1102POPC   NC316943  44.431  34.468   9.844
 1102POPC   PO416944  44.783  34.838   9.342
 1102POPC   GL116945  44.733  34.615   9.000
 1102POPC   GL216946  44.390  34.710   8.902
 1102POPC   C1A16947  44.650  34.380   8.660
 1102POPC   D2A16948  44.544  34.652   8.324
 1102POPC   C3A16949  44.820  34.703   7.960
 1102POPC   C4A16950  44.778  34.519   7.566
 1102POPC   C1B16951  44.495  35.023   8.690
 1102POPC   C2B16952  44.293  35.166   8.361
 1102POPC   C3B16953  44.452  35.047   8.006
 1102POPC   C4B16954  44.396  34.834   7.644
 1103POPC   NC316955   6.057  39.681   9.337
 1103POPC   PO416956   5.590  40.142   9.576
 1103POPC   GL116957   5.670  39.988   9.187
 1103POPC   GL216958   5.570  39.604   9.182
 1103POPC   C1A16959   5.945  40.140   8.845
 1103POPC   D2A16960   5.762  40.100   8.441
 1103POPC   C3A16961   6.010  40.069   8.076
 1103POPC   C4A16962   5.866  40.088   7.649
 1103POPC   C1B16963   5.775  39.654   8.767
 1103POPC   C2B16964   5.943  39.596   8.397
 1103POPC   C3B16965   5.781  39.573   8.025
 1103POPC   C4B16966   5.866  39.568   7.627
 1104POPC   NC316967  22.516  12.006   9.515
 1104POPC   PO416968  23.146  11.671   9.244
 1104POPC   GL116969  22.943  12.057   9.134
 1104POPC   GL216970  22.592  12.173   9.059
 1104POPC   C1A16971  23.085  12.237   8.745
 1104POPC   D2A16972  23.366  12.220   8.371
 1104POPC   C3A16973  23.175  12.337   7.983
 1104POPC   C4A16974  22.918  12.041   7.794
 1104POPC   C1B16975  22.619  12.043   8.680
 1104POPC   C2B16976  22.844  12.042   8.314
 1104POPC   C3B16977  22.502  11.970   8.067
 1104POPC   C4B16978  22.518  11.712   7.753
 1105POPC   NC316979  28.148   5.103   9.408
 1105POPC   PO416980  28.771   4.863   9.329
 1105POPC   GL116981  28.542   5.250   9.111
 1105POPC   GL216982  28.202   5.373   8.963
 1105POPC   C1A16983  28.633   5.397   8.697
 1105POPC   D2A16984  28.513   5.177   8.317
 1105POPC   C3A16985  28.732   5.060   7.931
 1105POPC   C4A16986  28.504   5.302   7.639
 1105POPC   C1B16987  28.243   4.993   8.750
 1105POPC   C2B16988  28.120   4.804   8.382
 1105POPC   C3B16989  28.196   4.943   7.978
 1105POPC   C4B16990  28.358   4.830   7.626
 1106POPC   NC316991  43.506   8.163   9.536
 1106POPC   PO416992  44.000   8.560   9.636
 1106POPC   GL116993  43.868   8.432   9.253
 1106POPC   GL216994  43.588   8.637   9.295
 1106POPC   C1A16995  43.868   8.134   8.912
 1106POPC   D2A16996  44.125   8.044   8.551
 1106POPC   C3A16997  43.941   7.880   8.194
 1106POPC   C4A16998  44.040   7.941   7.791
 1106POPC   C1B16999  43.654   8.620   8.827
 1106POPC   C2B17000  43.707   8.354   8.454
 1106POPC   C3B17001  43.866   8.399   8.028
 1106POPC   C4B17002  43.879   8.731   7.718
 1107POPC   NC317003  35.501  39.835   9.286
 1107POPC   PO417004  35.691  40.446   9.416
 1107POPC   GL117005  35.405  40.312   9.105
 1107POPC   GL217006  35.090  40.182   9.233
 1107POPC   C1A17007  35.405  40.109   8.682
 1107POPC   D2A17008  35.193  39.873   8.355
 1107POPC   C3A17009  35.344  39.960   7.941
 1107POPC   C4A17010  35.129  39.777   7.594
 1107POPC   C1B17011  34.906  40.162   8.818
 1107POPC   C2B17012  34.939  40.342   8.390
 1107POPC   C3B17013  34.900  40.187   8.004
 1107POPC   C4B17014  35.044  40.282   7.617
 1108POPC   NC317015   2.334  15.176  10.054
 1108POPC   PO417016   2.084  15.053   9.445
 1108POPC   GL117017   1.933  15.149   9.053
 1108POPC   GL217018   1.804  15.460   8.985
 1108POPC   C1A17019   1.918  15.120   8.604
 1108POPC   D2A17020   2.207  14.906   8.413
 1108POPC   C3A17021   2.200  15.081   8.055
 1108POPC   C4A17022   2.198  14.994   7.666
 1108POPC   C1B17023   1.473  15.150   8.835
 1108POPC   C2B17024   1.417  14.994   8.395
 1108POPC   C3B17025   1.685  15.074   8.025
 1108POPC   C4B17026   1.838  15.391   7.725
 1109POPC   NC317027   0.261  28.613   9.343
 1109POPC   PO417028   0.537  28.062   9.611
 1109POPC   GL117029   0.426  28.164   9.160
 1109POPC   GL217030   0.115  28.246   8.961
 1109POPC   C1A17031   0.578  28.376   8.777
 1109POPC   D2A17032   0.646  28.301   8.360
 1109POPC   C3A17033   0.387  28.314   7.992
 1109POPC   C4A17034   0.561  28.237   7.592
 1109POPC   C1B17035   0.156  28.676   8.720
 1109POPC   C2B17036   0.252  28.790   8.303
 1109POPC   C3B17037   0.135  28.757   7.863
 1109POPC   C4B17038   0.028  28.390   7.571
 1110POPC   NC317039  41.300  22.645   9.326
 1110POPC   PO417040  42.025  22.593   9.306
 1110POPC   GL117041  41.686  22.875   9.100
 1110POPC   GL217042  41.676  23.239   9.116
 1110POPC   C1A17043  41.622  23.033   8.654
 1110POPC   D2A17044  41.357  22.914   8.294
 1110POPC   C3A17045  41.498  22.716   7.959
 1110POPC   C4A17046  41.587  22.869   7.555
 1110POPC   C1B17047  41.333  23.411   8.818
 1110POPC   C2B17048  41.409  23.409   8.380
 1110POPC   C3B17049  41.532  23.257   7.942
 1110POPC   C4B17050  41.406  23.480   7.565
 1111POPC   NC317051  13.915   0.126   9.750
 1111POPC   PO417052  14.464   0.601   9.701
 1111POPC   GL117053  14.201   0.672   9.192
 1111POPC   GL217054  14.430   0.808   8.903
 1111POPC   C1A17055  14.071   0.511   8.734
 1111POPC   D2A17056  14.285   0.316   8.306
 1111POPC   C3A17057  14.089   0.440   7.921
 1111POPC   C4A17058  14.172   0.572   7.461
 1111POPC   C1B17059  14.600   0.449   8.682
 1111POPC   C2B17060  14.807   0.460   8.315
 1111POPC   C3B17061  14.616   0.517   7.910
 1111POPC   C4B17062  14.430   0.184   7.675
 1112POPC   NC317063  40.592  40.454   9.396
 1112POPC   PO417064  40.918  40.936   9.540
 1112POPC   GL117065  40.868  41.014   9.131
 1112POPC   GL217066  40.909  40.658   9.058
 1112POPC   C1A17067  40.886  40.968   8.678
 1112POPC   D2A17068  41.021  40.871   8.269
 1112POPC   C3A17069  40.835  40.998   7.909
 1112POPC   C4A17070  40.435  41.055   7.800
 1112POPC   C1B17071  41.043  40.473   8.673
 1112POPC   C2B17072  40.950  40.341   8.253
 1112POPC   C3B17073  41.079  40.545   7.882
 1112POPC   C4B17074  41.160  40.358   7.485
 1113POPC   NC317075  39.494  41.193   9.362
 1113POPC   PO417076  39.481  40.525   9.657
 1113POPC   GL117077  39.351  40.681   9.248
 1113POPC   GL217078  39.124  40.453   9.176
 1113POPC   C1A17079  39.244  40.773   8.789
 1113POPC   D2A17080  39.422  40.906   8.389
 1113POPC   C3A17081  39.145  40.874   8.059
 1113POPC   C4A17082  39.013  41.050   7.692
 1113POPC   C1B17083  38.990  40.321   8.776
 1113POPC   C2B17084  38.957  40.491   8.354
 1113POPC   C3B17085  39.069  40.407   7.893
 1113POPC   C4B17086  39.332  40.632   7.616
 1114POPC   NC317087  10.326   0.174   9.472
 1114POPC   PO417088  10.778   0.652   9.635
 1114POPC   GL117089  10.634   0.506   9.239
 1114POPC   GL217090  10.312   0.655   9.259
 1114POPC   C1A17091  10.492   0.271   8.852
 1114POPC   D2A17092  10.244   0.129   8.503
 1114POPC   C3A17093  10.421   0.306   8.132
 1114POPC   C4A17094  10.627   0.108   7.782
 1114POPC   C1B17095  10.075   0.554   8.894
 1114POPC   C2B17096  10.200   0.646   8.479
 1114POPC   C3B17097  10.079   0.679   8.046
 1114POPC   C4B17098  10.270   0.471   7.673
 1115POPC   NC317099  19.758  31.214   9.135
 1115POPC   PO417100  19.942  30.587   9.465
 1115POPC   GL117101  19.994  30.729   9.046
 1115POPC   GL217102  20.243  30.952   9.157
 1115POPC   C1A17103  19.778  30.715   8.618
 1115POPC   D2A17104  19.699  30.897   8.196
 1115POPC   C3A17105  19.850  30.646   7.837
 1115POPC   C4A17106  19.916  30.442   7.437
 1115POPC   C1B17107  20.238  31.094   8.736
 1115POPC   C2B17108  20.195  30.940   8.362
 1115POPC   C3B17109  20.176  31.016   7.961
 1115POPC   C4B17110  20.216  30.862   7.550
 1116POPC   NC317111  40.582  22.750   9.517
 1116POPC   PO417112  41.165  23.088   9.433
 1116POPC   GL117113  40.903  23.027   9.105
 1116POPC   GL217114  40.790  22.707   9.068
 1116POPC   C1A17115  41.072  22.885   8.701
 1116POPC   D2A17116  40.992  22.555   8.363
 1116POPC   C3A17117  40.962  22.721   7.935
 1116POPC   C4A17118  41.140  23.040   7.683
 1116POPC   C1B17119  40.589  22.701   8.668
 1116POPC   C2B17120  40.505  22.768   8.233
 1116POPC   C3B17121  40.467  22.630   7.805
 1116POPC   C4B17122  40.443  22.570   7.336
 1117POPC   NC317123   7.755  32.746   9.574
 1117POPC   PO417124   7.201  33.101   9.530
 1117POPC   GL117125   7.454  33.131   9.175
 1117POPC   GL217126   7.408  32.778   9.171
 1117POPC   C1A17127   7.632  33.015   8.761
 1117POPC   D2A17128   7.407  33.110   8.380
 1117POPC   C3A17129   7.609  33.267   8.020
 1117POPC   C4A17130   7.485  33.316   7.548
 1117POPC   C1B17131   7.149  32.878   8.816
 1117POPC   C2B17132   7.100  32.702   8.415
 1117POPC   C3B17133   7.089  32.842   8.025
 1117POPC   C4B17134   7.440  32.862   7.759
 1118POPC   NC317135  35.387  13.088   9.548
 1118POPC   PO417136  35.100  12.552   9.470
 1118POPC   GL117137  35.111  12.877   9.168
 1118POPC   GL217138  34.810  13.056   9.244
 1118POPC   C1A17139  35.267  12.999   8.748
 1118POPC   D2A17140  35.293  12.817   8.348
 1118POPC   C3A17141  35.394  12.916   7.917
 1118POPC   C4A17142  35.281  12.638   7.527
 1118POPC   C1B17143  34.742  12.930   8.834
 1118POPC   C2B17144  34.828  13.044   8.440
 1118POPC   C3B17145  34.864  12.867   8.057
 1118POPC   C4B17146  34.965  13.073   7.685
 1119POPC   NC317147  39.452  27.856   9.529
 1119POPC   PO417148  39.760  28.472   9.496
 1119POPC   GL117149  39.355  28.320   9.244
 1119POPC   GL217150  39.063  28.522   9.106
 1119POPC   C1A17151  39.245  28.139   8.833
 1119POPC   D2A17152  39.069  28.211   8.432
 1119POPC   C3A17153  39.368  28.299   8.170
 1119POPC   C4A17154  39.355  28.377   7.760
 1119POPC   C1B17155  39.208  28.663   8.749
 1119POPC   C2B17156  39.147  28.782   8.360
 1119POPC   C3B17157  38.958  28.592   8.053
 1119POPC   C4B17158  38.917  28.584   7.627
 1120POPC   NC317159  17.297  34.151   9.458
 1120POPC   PO417160  17.764  33.637   9.492
 1120POPC   GL117161  17.555  33.758   9.139
 1120POPC   GL217162  17.561  34.080   9.014
 1120POPC   C1A17163  17.668  33.623   8.732
 1120POPC   D2A17164  17.870  33.659   8.325
 1120POPC   C3A17165  17.563  33.706   8.014
 1120POPC   C4A17166  17.218  33.453   7.868
 1120POPC   C1B17167  17.230  33.864   8.758
 1120POPC   C2B17168  17.153  33.864   8.345
 1120POPC   C3B17169  17.157  33.990   7.921
 1120POPC   C4B17170  17.246  33.907   7.485
 1121POPC   NC317171  35.725  20.716   9.787
 1121POPC   PO417172  36.013  20.377   9.302
 1121POPC   GL117173  36.264  20.632   9.073
 1121POPC   GL217174  36.457  20.325   8.961
 1121POPC   C1A17175  36.102  20.831   8.682
 1121POPC   D2A17176  36.072  20.653   8.262
 1121POPC   C3A17177  35.958  20.844   7.837
 1121POPC   C4A17178  36.251  20.848   7.456
 1121POPC   C1B17179  36.079  20.323   8.678
 1121POPC   C2B17180  35.785  20.230   8.369
 1121POPC   C3B17181  35.973  20.290   7.947
 1121POPC   C4B17182  35.962  20.418   7.513
 1122POPC   NC317183  40.427   8.060   9.349
 1122POPC   PO417184  39.806   8.119   9.451
 1122POPC   GL117185  39.943   8.147   9.070
 1122POPC   GL217186  40.213   8.379   9.025
 1122POPC   C1A17187  39.955   7.856   8.748
 1122POPC   D2A17188  39.808   7.963   8.353
 1122POPC   C3A17189  40.102   8.034   8.079
 1122POPC   C4A17190  40.002   8.068   7.687
 1122POPC   C1B17191  40.126   8.330   8.601
 1122POPC   C2B17192  40.417   8.377   8.284
 1122POPC   C3B17193  40.325   8.603   7.933
 1122POPC   C4B17194  40.105   8.557   7.566
 1123POPC   NC317195  16.345  17.990   9.543
 1123POPC   PO417196  16.941  18.176   9.544
 1123POPC   GL117197  16.648  18.254   9.194
 1123POPC   GL217198  16.460  17.997   9.052
 1123POPC   C1A17199  16.654  18.409   8.781
 1123POPC   D2A17200  16.820  18.250   8.376
 1123POPC   C3A17201  16.681  18.390   7.984
 1123POPC   C4A17202  16.907  18.584   7.640
 1123POPC   C1B17203  16.713  17.907   8.728
 1123POPC   C2B17204  16.842  17.750   8.308
 1123POPC   C3B17205  16.886  17.915   7.881
 1123POPC   C4B17206  16.577  17.896   7.546
 1124POPC   NC317207  10.426  15.808   9.654
 1124POPC   PO417208  10.938  16.202   9.711
 1124POPC   GL117209  10.713  16.054   9.299
 1124POPC   GL217210  10.717  15.698   9.181
 1124POPC   C1A17211  10.504  16.116   8.867
 1124POPC   D2A17212  10.462  16.282   8.421
 1124POPC   C3A17213  10.472  16.029   8.021
 1124POPC   C4A17214  10.318  15.857   7.592
 1124POPC   C1B17215  10.476  15.605   8.767
 1124POPC   C2B17216  10.421  15.563   8.276
 1124POPC   C3B17217  10.696  15.587   7.867
 1124POPC   C4B17218  10.650  15.502   7.412
 1125POPC   NC317219   3.026  26.682   9.403
 1125POPC   PO417220   2.867  27.265   9.658
 1125POPC   GL117221   2.761  27.096   9.229
 1125POPC   GL217222   2.538  26.772   9.145
 1125POPC   C1A17223   2.833  27.118   8.785
 1125POPC   D2A17224   3.027  26.958   8.426
 1125POPC   C3A17225   2.803  26.791   8.108
 1125POPC   C4A17226   2.943  26.900   7.714
 1125POPC   C1B17227   2.397  26.831   8.685
 1125POPC   C2B17228   2.460  27.145   8.309
 1125POPC   C3B17229   2.494  27.101   7.840
 1125POPC   C4B17230   2.502  26.751   7.512
 1126POPC   NC317231  27.472  22.946   9.560
 1126POPC   PO417232  27.859  22.583   9.182
 1126POPC   GL117233  27.646  22.942   9.061
 1126POPC   GL217234  27.345  22.737   9.097
 1126POPC   C1A17235  27.646  23.279   8.701
 1126POPC   D2A17236  27.745  23.448   8.308
 1126POPC   C3A17237  27.848  23.132   8.013
 1126POPC   C4A17238  27.739  23.022   7.597
 1126POPC   C1B17239  27.294  22.927   8.699
 1126POPC   C2B17240  27.316  23.107   8.284
 1126POPC   C3B17241  27.246  22.894   7.900
 1126POPC   C4B17242  27.371  22.668   7.544
 1127POPC   NC317243  40.330   5.213   9.500
 1127POPC   PO417244  39.693   5.329   9.456
 1127POPC   GL117245  39.915   5.032   9.213
 1127POPC   GL217246  39.632   4.982   9.012
 1127POPC   C1A17247  40.143   4.968   8.832
 1127POPC   D2A17248  40.014   4.838   8.425
 1127POPC   C3A17249  40.274   5.013   8.124
 1127POPC   C4A17250  40.317   4.874   7.722
 1127POPC   C1B17251  39.662   5.223   8.659
 1127POPC   C2B17252  39.379   5.123   8.307
 1127POPC   C3B17253  39.611   4.926   7.999
 1127POPC   C4B17254  39.896   5.168   7.772
 1128POPC   NC317255  37.326   6.427   9.461
 1128POPC   PO417256  37.570   5.787   9.436
 1128POPC   GL117257  37.541   6.068   9.062
 1128POPC   GL217258  37.174   6.025   9.083
 1128POPC   C1A17259  37.887   6.143   8.711
 1128POPC   D2A17260  38.167   5.855   8.454
 1128POPC   C3A17261  38.029   5.792   8.006
 1128POPC   C4A17262  37.698   6.052   7.840
 1128POPC   C1B17263  37.290   5.611   8.889
 1128POPC   C2B17264  37.340   5.408   8.484
 1128POPC   C3B17265  37.396   5.634   8.080
 1128POPC   C4B17266  37.664   5.551   7.746
 1129POPC   NC317267   1.984  30.619   9.643
 1129POPC   PO417268   2.113  31.096   9.193
 1129POPC   GL117269   2.132  30.621   9.063
 1129POPC   GL217270   1.820  30.448   9.153
 1129POPC   C1A17271   2.028  30.392   8.636
 1129POPC   D2A17272   1.847  30.455   8.197
 1129POPC   C3A17273   2.015  30.810   7.887
 1129POPC   C4A17274   2.240  30.924   7.492
 1129POPC   C1B17275   1.627  30.160   8.836
 1129POPC   C2B17276   1.535  30.034   8.399
 1129POPC   C3B17277   1.650  30.027   7.941
 1129POPC   C4B17278   1.815  30.383   7.687
 1130POPC   NC317279  19.941  18.078   9.805
 1130POPC   PO417280  19.845  17.606   9.311
 1130POPC   GL117281  19.914  17.708   8.936
 1130POPC   GL217282  20.206  17.898   9.013
 1130POPC   C1A17283  19.664  17.637   8.581
 1130POPC   D2A17284  19.551  17.610   8.142
 1130POPC   C3A17285  19.824  17.291   7.966
 1130POPC   C4A17286  20.184  17.063   7.762
 1130POPC   C1B17287  20.261  17.830   8.581
 1130POPC   C2B17288  20.077  17.694   8.209
 1130POPC   C3B17289  19.986  17.893   7.831
 1130POPC   C4B17290  20.211  18.199   7.565
 1131POPC   NC317291  36.818  38.117   9.503
 1131POPC   PO417292  37.351  38.492   9.627
 1131POPC   GL117293  36.981  38.622   9.279
 1131POPC   GL217294  36.704  38.394   9.112
 1131POPC   C1A17295  36.854  38.764   8.806
 1131POPC   D2A17296  36.694  38.744   8.362
 1131POPC   C3A17297  37.025  38.693   8.044
 1131POPC   C4A17298  37.235  38.438   7.754
 1131POPC   C1B17299  36.575  38.331   8.682
 1131POPC   C2B17300  36.661  38.203   8.239
 1131POPC   C3B17301  36.723  38.343   7.791
 1131POPC   C4B17302  36.537  38.213   7.374
 1132POPC   NC317303  36.545  25.352   9.557
 1132POPC   PO417304  35.907  25.051   9.547
 1132POPC   GL117305  36.170  25.197   9.216
 1132POPC   GL217306  36.195  25.547   9.194
 1132POPC   C1A17307  36.288  25.132   8.788
 1132POPC   D2A17308  36.442  24.966   8.390
 1132POPC   C3A17309  36.228  25.075   8.027
 1132POPC   C4A17310  36.408  25.217   7.687
 1132POPC   C1B17311  35.890  25.455   8.833
 1132POPC   C2B17312  36.040  25.373   8.405
 1132POPC   C3B17313  36.229  25.570   8.058
 1132POPC   C4B17314  36.089  25.590   7.628
 1133POPC   NC317315  42.198  15.734   9.734
 1133POPC   PO417316  42.666  16.161   9.463
 1133POPC   GL117317  42.478  16.124   9.073
 1133POPC   GL217318  42.208  15.863   9.180
 1133POPC   C1A17319  42.386  15.964   8.672
 1133POPC   D2A17320  42.370  15.798   8.259
 1133POPC   C3A17321  42.573  15.994   7.917
 1133POPC   C4A17322  42.857  15.878   7.588
 1133POPC   C1B17323  41.959  15.711   8.833
 1133POPC   C2B17324  41.776  15.837   8.459
 1133POPC   C3B17325  41.911  15.760   8.056
 1133POPC   C4B17326  42.119  15.873   7.728
 1134POPC   NC317327  27.659   2.380   9.552
 1134POPC   PO417328  27.754   3.050   9.538
 1134POPC   GL117329  27.700   2.740   9.195
 1134POPC   GL217330  27.979   2.488   9.168
 1134POPC   C1A17331  27.483   2.646   8.791
 1134POPC   D2A17332  27.366   2.485   8.403
 1134POPC   C3A17333  27.482   2.763   8.082
 1134POPC   C4A17334  27.579   2.711   7.651
 1134POPC   C1B17335  27.976   2.753   8.776
 1134POPC   C2B17336  27.856   2.641   8.380
 1134POPC   C3B17337  27.985   2.772   7.963
 1134POPC   C4B17338  28.061   2.777   7.487
 1135POPC   NC317339   0.075  44.549   9.536
 1135POPC   PO417340   0.554  44.940   9.471
 1135POPC   GL117341   0.516  44.829   9.068
 1135POPC   GL217342   0.176  44.879   9.117
 1135POPC   C1A17343   0.602  44.721   8.619
 1135POPC   D2A17344   0.649  44.339   8.381
 1135POPC   C3A17345   0.570  44.429   7.943
 1135POPC   C4A17346   0.877  44.617   7.704
 1135POPC   C1B17347   0.179   0.004   8.706
 1135POPC   C2B17348   0.254  44.927   8.284
 1135POPC   C3B17349   0.206  44.842   7.849
 1135POPC   C4B17350   0.039  44.986   7.470
 1136POPC   NC317351  27.455   7.576   9.559
 1136POPC   PO417352  27.638   6.925   9.755
 1136POPC   GL117353  27.603   7.176   9.264
 1136POPC   GL217354  27.297   7.296   9.148
 1136POPC   C1A17355  27.545   7.120   8.762
 1136POPC   D2A17356  27.529   7.362   8.363
 1136POPC   C3A17357  27.433   7.326   7.881
 1136POPC   C4A17358  27.469   7.542   7.438
 1136POPC   C1B17359  27.488   7.618   8.862
 1136POPC   C2B17360  27.600   7.848   8.499
 1136POPC   C3B17361  27.511   7.785   8.090
 1136POPC   C4B17362  27.782   7.774   7.774
 1137POPC   NC317363  33.419   1.959   9.497
 1137POPC   PO417364  32.836   2.287   9.420
 1137POPC   GL117365  32.947   1.993   9.066
 1137POPC   GL217366  33.276   1.839   9.016
 1137POPC   C1A17367  32.871   2.106   8.640
 1137POPC   D2A17368  33.157   2.307   8.361
 1137POPC   C3A17369  33.244   2.150   7.952
 1137POPC   C4A17370  33.080   2.312   7.546
 1137POPC   C1B17371  33.305   1.847   8.563
 1137POPC   C2B17372  32.947   1.824   8.239
 1137POPC   C3B17373  32.840   1.888   7.836
 1137POPC   C4B17374  33.163   1.803   7.566
 1138POPC   NC317375  44.255  10.000   9.514
 1138POPC   PO417376  44.981   9.907   9.445
 1138POPC   GL117377  44.800   9.968   9.092
 1138POPC   GL217378  44.471   9.872   9.084
 1138POPC   C1A17379  44.776   9.818   8.673
 1138POPC   D2A17380  44.559   9.889   8.313
 1138POPC   C3A17381  44.784   9.644   8.057
 1138POPC   C4A17382  44.969   9.676   7.690
 1138POPC   C1B17383  44.277   9.719   8.707
 1138POPC   C2B17384  44.122   9.504   8.360
 1138POPC   C3B17385  44.275   9.626   7.964
 1138POPC   C4B17386  44.539   9.959   7.726
 1139POPC   NC317387   3.186  25.887   9.452
 1139POPC   PO417388   2.707  26.322   9.368
 1139POPC   GL117389   2.861  26.113   9.037
 1139POPC   GL217390   3.164  26.298   9.043
 1139POPC   C1A17391   2.612  26.147   8.652
 1139POPC   D2A17392   2.496  26.430   8.327
 1139POPC   C3A17393   2.465  26.177   7.968
 1139POPC   C4A17394   2.822  25.908   7.806
 1139POPC   C1B17395   2.864  26.574   8.785
 1139POPC   C2B17396   3.010  26.442   8.439
 1139POPC   C3B17397   3.039  26.318   8.067
 1139POPC   C4B17398   2.816  26.425   7.731
 1140POPC   NC317399   7.534  37.856   9.581
 1140POPC   PO417400   6.953  37.577   9.679
 1140POPC   GL117401   7.150  37.645   9.268
 1140POPC   GL217402   7.498  37.491   9.209
 1140POPC   C1A17403   7.217  37.681   8.806
 1140POPC   D2A17404   7.377  37.514   8.395
 1140POPC   C3A17405   7.208  37.723   8.028
 1140POPC   C4A17406   7.325  37.838   7.604
 1140POPC   C1B17407   7.711  37.531   8.817
 1140POPC   C2B17408   7.862  37.727   8.426
 1140POPC   C3B17409   7.722  37.699   8.020
 1140POPC   C4B17410   7.647  37.351   7.760
 1141POPC   NC317411   9.938   1.395   9.342
 1141POPC   PO417412   9.956   0.784   9.613
 1141POPC   GL117413   9.856   0.903   9.204
 1141POPC   GL217414   9.525   1.064   9.250
 1141POPC   C1A17415  10.051   1.063   8.794
 1141POPC   D2A17416   9.853   1.320   8.465
 1141POPC   C3A17417   9.925   1.212   8.037
 1141POPC   C4A17418   9.934   1.550   7.755
 1141POPC   C1B17419   9.491   1.311   8.852
 1141POPC   C2B17420   9.331   1.417   8.432
 1141POPC   C3B17421   9.456   1.453   8.002
 1141POPC   C4B17422   9.200   1.562   7.620
 1142POPC   NC317423  35.645  22.325   9.548
 1142POPC   PO417424  35.081  22.005   9.614
 1142POPC   GL117425  35.161  22.235   9.221
 1142POPC   GL217426  35.475  22.391   9.086
 1142POPC   C1A17427  35.137  22.104   8.802
 1142POPC   D2A17428  35.266  21.896   8.439
 1142POPC   C3A17429  35.095  22.026   8.065
 1142POPC   C4A17430  35.238  21.951   7.640
 1142POPC   C1B17431  35.338  22.573   8.721
 1142POPC   C2B17432  35.388  22.423   8.304
 1142POPC   C3B17433  35.536  22.265   7.909
 1142POPC   C4B17434  35.434  22.367   7.461
 1143POPC   NC317435   5.334  42.900   9.588
 1143POPC   PO417436   4.801  42.756   9.237
 1143POPC   GL117437   5.084  43.151   9.185
 1143POPC   GL217438   5.427  43.102   9.126
 1143POPC   C1A17439   5.241  43.417   8.800
 1143POPC   D2A17440   5.344  43.260   8.403
 1143POPC   C3A17441   5.042  43.355   8.109
 1143POPC   C4A17442   5.193  43.277   7.714
 1143POPC   C1B17443   5.222  42.899   8.772
 1143POPC   C2B17444   5.003  42.825   8.423
 1143POPC   C3B17445   5.132  42.853   8.029
 1143POPC   C4B17446   4.886  42.812   7.699
 1144POPC   NC317447  34.763  43.394   9.469
 1144POPC   PO417448  34.391  42.821   9.556
 1144POPC   GL117449  34.478  42.915   9.143
 1144POPC   GL217450  34.828  42.933   8.995
 1144POPC   C1A17451  34.368  42.871   8.747
 1144POPC   D2A17452  34.346  43.193   8.477
 1144POPC   C3A17453  34.522  43.093   8.108
 1144POPC   C4A17454  34.453  42.768   7.813
 1144POPC   C1B17455  34.723  43.349   8.805
 1144POPC   C2B17456  34.738  43.515   8.371
 1144POPC   C3B17457  34.927  43.370   7.976
 1144POPC   C4B17458  34.765  43.139   7.640
 1145POPC   NC317459  44.646  33.602   9.394
 1145POPC   PO417460  44.774  34.242   9.616
 1145POPC   GL117461  44.617  34.133   9.198
 1145POPC   GL217462  44.916  34.109   9.043
 1145POPC   C1A17463  44.523  33.885   8.807
 1145POPC   D2A17464  44.465  33.532   8.504
 1145POPC   C3A17465  44.563  33.698   8.090
 1145POPC   C4A17466  44.352  33.910   7.735
 1145POPC   C1B17467   0.009  34.018   8.623
 1145POPC   C2B17468  44.922  34.278   8.249
 1145POPC   C3B17469  44.811  34.122   7.886
 1145POPC   C4B17470  44.868  33.740   7.682
 1146POPC   NC317471  19.655  21.584   9.503
 1146POPC   PO417472  20.098  21.181   9.619
 1146POPC   GL117473  20.008  21.310   9.200
 1146POPC   GL217474  19.639  21.216   9.123
 1146POPC   C1A17475  19.933  21.581   8.843
 1146POPC   D2A17476  19.774  21.481   8.426
 1146POPC   C3A17477  20.034  21.568   8.111
 1146POPC   C4A17478  20.088  21.597   7.684
 1146POPC   C1B17479  19.801  21.069   8.733
 1146POPC   C2B17480  19.971  21.004   8.333
 1146POPC   C3B17481  19.865  21.122   7.951
 1146POPC   C4B17482  19.629  21.368   7.707
 1147POPC   NC317483  21.726  26.736   9.407
 1147POPC   PO417484  21.105  26.795   9.517
 1147POPC   GL117485  21.261  26.969   9.139
 1147POPC   GL217486  21.042  27.262   9.035
 1147POPC   C1A17487  21.524  26.816   8.791
 1147POPC   D2A17488  21.446  26.695   8.385
 1147POPC   C3A17489  21.503  26.906   7.994
 1147POPC   C4A17490  21.652  26.705   7.639
 1147POPC   C1B17491  21.055  26.990   8.655
 1147POPC   C2B17492  21.025  26.971   8.199
 1147POPC   C3B17493  20.910  26.969   7.782
 1147POPC   C4B17494  21.234  26.935   7.478
 1148POPC   NC317495  25.427   9.687   9.452
 1148POPC   PO417496  24.908  10.024   9.731
 1148POPC   GL117497  25.029   9.902   9.216
 1148POPC   GL217498  25.186   9.569   8.998
 1148POPC   C1A17499  25.256   9.976   8.764
 1148POPC   D2A17500  25.310   9.685   8.386
 1148POPC   C3A17501  25.245   9.950   8.013
 1148POPC   C4A17502  25.176   9.877   7.578
 1148POPC   C1B17503  25.629   9.498   8.884
 1148POPC   C2B17504  25.818   9.416   8.515
 1148POPC   C3B17505  25.779   9.525   8.115
 1148POPC   C4B17506  25.528   9.551   7.741
 1149POPC   NC317507   0.153  31.074   9.337
 1149POPC   PO417508   0.330  31.672   9.642
 1149POPC   GL117509   0.509  31.627   9.234
 1149POPC   GL217510   0.709  31.937   9.195
 1149POPC   C1A17511   0.444  31.402   8.839
 1149POPC   D2A17512   0.198  31.404   8.471
 1149POPC   C3A17513   0.268  31.265   8.052
 1149POPC   C4A17514   0.035  31.112   7.703
 1149POPC   C1B17515   0.545  31.904   8.789
 1149POPC   C2B17516   0.329  31.898   8.427
 1149POPC   C3B17517   0.336  31.753   8.040
 1149POPC   C4B17518   0.553  31.751   7.654
 1150POPC   NC317519  31.127  34.691   9.551
 1150POPC   PO417520  31.839  34.585   9.464
 1150POPC   GL117521  31.525  34.699   9.172
 1150POPC   GL217522  31.310  34.375   9.193
 1150POPC   C1A17523  31.556  34.512   8.765
 1150POPC   D2A17524  31.581  34.188   8.452
 1150POPC   C3A17525  31.697  34.498   8.157
 1150POPC   C4A17526  31.695  34.674   7.775
 1150POPC   C1B17527  31.083  34.357   8.791
 1150POPC   C2B17528  31.217  34.540   8.376
 1150POPC   C3B17529  31.263  34.385   7.901
 1150POPC   C4B17530  31.101  34.269   7.465
 1151POPC   NC317531   9.734  20.035   9.516
 1151POPC   PO417532   9.488  19.429   9.392
 1151POPC   GL117533   9.707  19.692   9.132
 1151POPC   GL217534  10.066  19.703   9.081
 1151POPC   C1A17535   9.685  19.984   8.832
 1151POPC   D2A17536   9.516  19.831   8.485
 1151POPC   C3A17537   9.603  19.970   8.087
 1151POPC   C4A17538   9.535  19.731   7.738
 1151POPC   C1B17539  10.000  19.591   8.672
 1151POPC   C2B17540  10.062  19.903   8.401
 1151POPC   C3B17541  10.077  20.157   8.084
 1151POPC   C4B17542   9.969  20.013   7.687
 1152POPC   NC317543  25.278  24.148   9.361
 1152POPC   PO417544  25.652  24.668   9.597
 1152POPC   GL117545  25.487  24.607   9.198
 1152POPC   GL217546  25.178  24.705   9.074
 1152POPC   C1A17547  25.559  24.592   8.758
 1152POPC   D2A17548  25.400  24.355   8.435
 1152POPC   C3A17549  25.356  24.599   8.082
 1152POPC   C4A17550  25.505  24.450   7.672
 1152POPC   C1B17551  24.990  24.484   8.745
 1152POPC   C2B17552  24.892  24.347   8.319
 1152POPC   C3B17553  25.030  24.274   7.902
 1152POPC   C4B17554  24.901  24.626   7.651
 1153POPC   NC317555  33.680  15.816   9.610
 1153POPC   PO417556  34.015  16.369   9.436
 1153POPC   GL117557  33.654  16.119   9.186
 1153POPC   GL217558  33.540  15.732   9.132
 1153POPC   C1A17559  33.488  16.140   8.766
 1153POPC   D2A17560  33.745  16.119   8.390
 1153POPC   C3A17561  33.784  16.262   7.970
 1153POPC   C4A17562  33.790  16.147   7.508
 1153POPC   C1B17563  33.831  15.773   8.778
 1153POPC   C2B17564  33.702  15.614   8.365
 1153POPC   C3B17565  33.814  15.748   7.976
 1153POPC   C4B17566  33.635  15.667   7.591
 1154POPC   NC317567  28.556  16.439   9.452
 1154POPC   PO417568  28.209  17.038   9.607
 1154POPC   GL117569  28.273  16.931   9.213
 1154POPC   GL217570  28.604  17.113   9.242
 1154POPC   C1A17571  28.112  16.663   8.850
 1154POPC   D2A17572  28.185  16.319   8.536
 1154POPC   C3A17573  28.200  16.441   8.102
 1154POPC   C4A17574  27.903  16.578   7.780
 1154POPC   C1B17575  28.636  16.880   8.859
 1154POPC   C2B17576  28.425  16.864   8.471
 1154POPC   C3B17577  28.576  16.844   8.077
 1154POPC   C4B17578  28.370  16.788   7.732
 1155POPC   NC317579   5.112  37.522   9.653
 1155POPC   PO417580   5.370  38.202   9.781
 1155POPC   GL117581   5.211  38.033   9.325
 1155POPC   GL217582   5.126  37.675   9.171
 1155POPC   C1A17583   5.323  38.021   8.871
 1155POPC   D2A17584   5.121  37.786   8.557
 1155POPC   C3A17585   5.227  37.807   8.138
 1155POPC   C4A17586   5.107  37.878   7.728
 1155POPC   C1B17587   4.995  37.388   8.842
 1155POPC   C2B17588   4.856  37.356   8.396
 1155POPC   C3B17589   4.962  37.385   7.961
 1155POPC   C4B17590   5.296  37.273   7.688
 1156POPC   NC317591  43.145   4.543   9.464
 1156POPC   PO417592  42.744   3.989   9.459
 1156POPC   GL117593  43.057   4.084   9.148
 1156POPC   GL217594  42.968   4.400   9.022
 1156POPC   C1A17595  43.278   4.114   8.735
 1156POPC   D2A17596  43.314   4.305   8.311
 1156POPC   C3A17597  43.163   4.118   7.931
 1156POPC   C4A17598  42.903   4.288   7.589
 1156POPC   C1B17599  43.213   4.638   8.741
 1156POPC   C2B17600  43.067   4.768   8.360
 1156POPC   C3B17601  43.059   4.643   7.967
 1156POPC   C4B17602  43.421   4.524   7.721
 1157POPC   NC317603  37.417  37.287   9.799
 1157POPC   PO417604  37.156  37.807   9.456
 1157POPC   GL117605  36.875  37.799   9.115
 1157POPC   GL217606  36.788  37.488   9.003
 1157POPC   C1A17607  36.938  37.961   8.720
 1157POPC   D2A17608  37.154  37.828   8.370
 1157POPC   C3A17609  37.061  37.989   7.975
 1157POPC   C4A17610  36.726  37.826   7.723
 1157POPC   C1B17611  37.106  37.466   8.733
 1157POPC   C2B17612  37.113  37.287   8.364
 1157POPC   C3B17613  36.969  37.473   8.001
 1157POPC   C4B17614  37.246  37.629   7.651
 1158POPC   NC317615  11.268  16.522   9.620
 1158POPC   PO417616  11.344  17.184   9.723
 1158POPC   GL117617  11.379  16.886   9.289
 1158POPC   GL217618  11.065  16.937   9.010
 1158POPC   C1A17619  11.452  16.638   8.903
 1158POPC   D2A17620  11.201  16.799   8.540
 1158POPC   C3A17621  11.230  16.707   8.112
 1158POPC   C4A17622  11.475  16.792   7.764
 1158POPC   C1B17623  10.853  16.538   8.823
 1158POPC   C2B17624  10.975  16.346   8.434
 1158POPC   C3B17625  10.820  16.426   8.007
 1158POPC   C4B17626  11.155  16.365   7.719
 1159POPC   NC317627  37.407  18.111   9.441
 1159POPC   PO417628  38.026  18.558   9.442
 1159POPC   GL117629  37.836  18.271   9.143
 1159POPC   GL217630  37.532  18.492   9.114
 1159POPC   C1A17631  37.957  18.052   8.733
 1159POPC   D2A17632  38.068  18.242   8.302
 1159POPC   C3A17633  37.781  18.222   7.896
 1159POPC   C4A17634  37.820  18.087   7.412
 1159POPC   C1B17635  37.736  18.506   8.698
 1159POPC   C2B17636  37.599  18.513   8.302
 1159POPC   C3B17637  37.586  18.700   7.936
 1159POPC   C4B17638  37.335  18.520   7.654
 1160POPC   NC317639  30.171  44.263   9.980
 1160POPC   PO417640  30.146  43.754   9.494
 1160POPC   GL117641  30.066  43.936   9.099
 1160POPC   GL217642  30.073  44.293   9.002
 1160POPC   C1A17643  29.940  43.704   8.735
 1160POPC   D2A17644  29.609  43.736   8.431
 1160POPC   C3A17645  29.827  43.710   8.035
 1160POPC   C4A17646  29.785  43.885   7.630
 1160POPC   C1B17647  29.797  44.199   8.665
 1160POPC   C2B17648  29.803  44.175   8.239
 1160POPC   C3B17649  30.136  44.139   7.986
 1160POPC   C4B17650  30.363  44.261   7.662
 1161POPC   NC317651  26.724  44.160   9.625
 1161POPC   PO417652  26.758  43.486   9.699
 1161POPC   GL117653  26.728  43.834   9.235
 1161POPC   GL217654  26.432  44.023   9.168
 1161POPC   C1A17655  27.040  43.846   8.817
 1161POPC   D2A17656  27.189  44.018   8.409
 1161POPC   C3A17657  27.123  43.792   8.041
 1161POPC   C4A17658  27.019  43.990   7.617
 1161POPC   C1B17659  26.635  44.128   8.798
 1161POPC   C2B17660  26.705  43.924   8.409
 1161POPC   C3B17661  26.657  43.921   7.955
 1161POPC   C4B17662  26.662  43.662   7.492
 1162POPC   NC317663  24.193  40.175   9.509
 1162POPC   PO417664  24.727  39.720   9.634
 1162POPC   GL117665  24.609  39.977   9.261
 1162POPC   GL217666  24.869  39.856   9.066
 1162POPC   C1A17667  24.575  40.255   8.908
 1162POPC   D2A17668  24.502  40.310   8.448
 1162POPC   C3A17669  24.465  40.114   8.022
 1162POPC   C4A17670  24.235  40.053   7.621
 1162POPC   C1B17671  24.652  39.806   8.667
 1162POPC   C2B17672  24.732  39.730   8.224
 1162POPC   C3B17673  24.618  39.651   7.779
 1162POPC   C4B17674  24.600  39.815   7.352
 1163POPC   NC317675   1.850  34.295   9.405
 1163POPC   PO417676   2.471  34.504   9.524
 1163POPC   GL117677   2.353  34.628   9.144
 1163POPC   GL217678   2.025  34.819   9.103
 1163POPC   C1A17679   2.278  34.470   8.769
 1163POPC   D2A17680   2.138  34.770   8.518
 1163POPC   C3A17681   2.114  34.654   8.123
 1163POPC   C4A17682   2.395  34.461   7.859
 1163POPC   C1B17683   1.768  34.567   8.795
 1163POPC   C2B17684   1.644  34.654   8.372
 1163POPC   C3B17685   1.652  34.526   7.931
 1163POPC   C4B17686   1.851  34.837   7.722
 1164POPC   NC317687   2.100  14.611   9.544
 1164POPC   PO417688   2.661  14.950   9.793
 1164POPC   GL117689   2.500  14.753   9.286
 1164POPC   GL217690   2.382  14.381   9.194
 1164POPC   C1A17691   2.139  14.708   8.887
 1164POPC   D2A17692   1.771  14.621   8.572
 1164POPC   C3A17693   1.891  14.626   8.126
 1164POPC   C4A17694   2.139  14.500   7.803
 1164POPC   C1B17695   2.020  14.186   8.923
 1164POPC   C2B17696   1.842  14.111   8.488
 1164POPC   C3B17697   1.629  14.193   8.105
 1164POPC   C4B17698   1.735  14.211   7.698
 1165POPC   NC317699  35.841  10.002   9.464
 1165POPC   PO417700  36.419  10.163   9.368
 1165POPC   GL117701  36.124   9.935   9.032
 1165POPC   GL217702  35.933   9.618   9.066
 1165POPC   C1A17703  36.010   9.900   8.573
 1165POPC   D2A17704  36.240  10.027   8.208
 1165POPC   C3A17705  36.098   9.984   7.777
 1165POPC   C4A17706  36.038  10.102   7.313
 1165POPC   C1B17707  35.975   9.396   8.673
 1165POPC   C2B17708  36.043   9.532   8.227
 1165POPC   C3B17709  36.431   9.584   8.025
 1165POPC   C4B17710  36.510   9.651   7.624
 1166POPC   NC317711  31.857   1.736   9.626
 1166POPC   PO417712  32.421   1.308   9.500
 1166POPC   GL117713  32.099   1.299   9.182
 1166POPC   GL217714  32.269   1.485   8.969
 1166POPC   C1A17715  32.029   1.115   8.748
 1166POPC   D2A17716  32.109   1.409   8.392
 1166POPC   C3A17717  32.025   1.201   7.993
 1166POPC   C4A17718  31.915   0.975   7.621
 1166POPC   C1B17719  32.518   1.264   8.692
 1166POPC   C2B17720  32.666   1.325   8.299
 1166POPC   C3B17721  32.458   1.484   7.966
 1166POPC   C4B17722  32.340   1.231   7.583
 1167POPC   NC317723  32.094  18.231   9.317
 1167POPC   PO417724  31.391  18.408   9.408
 1167POPC   GL117725  31.227  18.189   9.091
 1167POPC   GL217726  31.184  18.508   8.932
 1167POPC   C1A17727  31.256  18.056   8.697
 1167POPC   D2A17728  31.544  18.084   8.380
 1167POPC   C3A17729  31.389  18.080   7.966
 1167POPC   C4A17730  31.684  18.326   7.757
 1167POPC   C1B17731  31.521  18.520   8.657
 1167POPC   C2B17732  31.529  18.602   8.231
 1167POPC   C3B17733  31.370  18.714   7.848
 1167POPC   C4B17734  31.318  18.486   7.422
 1168POPC   NC317735   3.796  40.799   9.571
 1168POPC   PO417736   3.439  41.275   9.775
 1168POPC   GL117737   3.485  40.930   9.226
 1168POPC   GL217738   3.824  40.688   9.092
 1168POPC   C1A17739   3.493  40.822   8.735
 1168POPC   D2A17740   3.220  40.767   8.347
 1168POPC   C3A17741   3.391  40.945   7.965
 1168POPC   C4A17742   3.654  41.303   7.926
 1168POPC   C1B17743   4.002  40.929   8.715
 1168POPC   C2B17744   3.823  40.951   8.289
 1168POPC   C3B17745   3.950  40.824   7.883
 1168POPC   C4B17746   3.868  40.569   7.507
 1169POPC   NC317747  24.010  33.247   9.504
 1169POPC   PO417748  24.597  33.344   9.681
 1169POPC   GL117749  24.610  33.168   9.257
 1169POPC   GL217750  24.375  33.394   9.162
 1169POPC   C1A17751  24.635  33.163   8.786
 1169POPC   D2A17752  24.487  32.948   8.420
 1169POPC   C3A17753  24.511  33.112   8.002
 1169POPC   C4A17754  24.372  32.844   7.665
 1169POPC   C1B17755  24.274  33.555   8.780
 1169POPC   C2B17756  24.308  33.426   8.385
 1169POPC   C3B17757  24.035  33.335   8.029
 1169POPC   C4B17758  24.189  33.343   7.644
 1170POPC   NC317759  22.125  30.299   9.616
 1170POPC   PO417760  21.753  30.873   9.536
 1170POPC   GL117761  22.155  30.745   9.322
 1170POPC   GL217762  22.487  30.837   9.414
 1170POPC   C1A17763  22.275  30.511   8.962
 1170POPC   D2A17764  21.956  30.459   8.638
 1170POPC   C3A17765  21.991  30.513   8.174
 1170POPC   C4A17766  21.856  30.373   7.755
 1170POPC   C1B17767  22.520  30.953   8.954
 1170POPC   C2B17768  22.443  30.791   8.542
 1170POPC   C3B17769  22.434  30.914   8.109
 1170POPC   C4B17770  22.149  30.842   7.766
 1171POPC   NC317771   7.670  25.670   9.481
 1171POPC   PO417772   7.363  26.373   9.484
 1171POPC   GL117773   7.332  26.168   9.081
 1171POPC   GL217774   7.336  25.836   9.123
 1171POPC   C1A17775   7.577  26.073   8.722
 1171POPC   D2A17776   7.944  25.932   8.514
 1171POPC   C3A17777   7.842  26.042   8.123
 1171POPC   C4A17778   7.761  26.023   7.704
 1171POPC   C1B17779   7.128  25.785   8.728
 1171POPC   C2B17780   7.131  26.007   8.365
 1171POPC   C3B17781   7.341  26.019   8.006
 1171POPC   C4B17782   7.311  26.291   7.676
 1172POPC   NC317783  30.966  12.946   9.511
 1172POPC   PO417784  30.383  12.632   9.523
 1172POPC   GL117785  30.466  12.955   9.133
 1172POPC   GL217786  30.796  13.087   9.064
 1172POPC   C1A17787  30.492  13.060   8.673
 1172POPC   D2A17788  30.710  12.750   8.441
 1172POPC   C3A17789  30.574  12.608   8.051
 1172POPC   C4A17790  30.655  12.674   7.636
 1172POPC   C1B17791  31.058  12.857   8.825
 1172POPC   C2B17792  31.208  12.997   8.450
 1172POPC   C3B17793  30.959  13.031   8.071
 1172POPC   C4B17794  30.993  13.058   7.630
 1173POPC   NC317795  24.083  11.236   9.445
 1173POPC   PO417796  24.746  11.421   9.667
 1173POPC   GL117797  24.577  11.404   9.194
 1173POPC   GL217798  24.571  11.755   9.057
 1173POPC   C1A17799  24.769  11.445   8.732
 1173POPC   D2A17800  24.564  11.642   8.339
 1173POPC   C3A17801  24.550  11.401   7.935
 1173POPC   C4A17802  24.676  11.435   7.487
 1173POPC   C1B17803  24.274  11.485   8.738
 1173POPC   C2B17804  24.233  11.248   8.370
 1173POPC   C3B17805  24.039  11.385   8.004
 1173POPC   C4B17806  24.077  11.162   7.651
 1174POPC   NC317807   4.765   0.829   9.405
 1174POPC   PO417808   5.065   1.281   9.827
 1174POPC   GL117809   5.157   1.253   9.324
 1174POPC   GL217810   5.147   0.980   9.068
 1174POPC   C1A17811   5.298   1.406   8.875
 1174POPC   D2A17812   5.545   1.205   8.540
 1174POPC   C3A17813   5.374   1.281   8.142
 1174POPC   C4A17814   5.152   1.521   7.837
 1174POPC   C1B17815   5.101   0.966   8.638
 1174POPC   C2B17816   4.950   1.315   8.419
 1174POPC   C3B17817   4.741   1.318   8.045
 1174POPC   C4B17818   4.672   0.972   7.834
 1175POPC   NC317819  17.320  21.769   9.537
 1175POPC   PO417820  17.431  22.425   9.491
 1175POPC   GL117821  17.226  22.120   9.146
 1175POPC   GL217822  17.260  21.731   9.035
 1175POPC   C1A17823  17.231  22.184   8.680
 1175POPC   D2A17824  17.379  22.525   8.362
 1175POPC   C3A17825  17.428  22.438   7.905
 1175POPC   C4A17826  17.703  22.244   7.565
 1175POPC   C1B17827  17.640  21.851   8.828
 1175POPC   C2B17828  17.726  22.113   8.458
 1175POPC   C3B17829  17.687  21.996   8.021
 1175POPC   C4B17830  17.762  21.751   7.654
 1176POPC   NC317831  23.542  25.084   9.561
 1176POPC   PO417832  23.931  25.589   9.484
 1176POPC   GL117833  23.820  25.308   9.167
 1176POPC   GL217834  23.464  25.327   9.108
 1176POPC   C1A17835  23.752  25.086   8.764
 1176POPC   D2A17836  23.428  24.997   8.408
 1176POPC   C3A17837  23.588  25.083   7.996
 1176POPC   C4A17838  23.973  24.935   7.812
 1176POPC   C1B17839  23.588  25.563   8.732
 1176POPC   C2B17840  23.434  25.486   8.324
 1176POPC   C3B17841  23.643  25.580   7.944
 1176POPC   C4B17842  23.753  25.666   7.537
 1177POPC   NC317843  21.425  41.389   9.686
 1177POPC   PO417844  21.361  41.925   9.610
 1177POPC   GL117845  21.343  41.632   9.233
 1177POPC   GL217846  21.614  41.361   9.193
 1177POPC   C1A17847  21.271  41.460   8.817
 1177POPC   D2A17848  21.351  41.720   8.440
 1177POPC   C3A17849  21.218  41.532   8.063
 1177POPC   C4A17850  21.352  41.720   7.691
 1177POPC   C1B17851  21.801  41.204   8.809
 1177POPC   C2B17852  21.766  41.046   8.371
 1177POPC   C3B17853  21.827  41.073   7.928
 1177POPC   C4B17854  21.486  41.222   7.695
 1178POPC   NC317855  34.296  21.658   9.519
 1178POPC   PO417856  34.849  21.328   9.546
 1178POPC   GL117857  34.586  21.325   9.175
 1178POPC   GL217858  34.541  21.679   9.068
 1178POPC   C1A17859  34.504  21.200   8.740
 1178POPC   D2A17860  34.468  20.960   8.334
 1178POPC   C3A17861  34.609  21.157   7.957
 1178POPC   C4A17862  34.991  21.191   7.798
 1178POPC   C1B17863  34.368  21.689   8.648
 1178POPC   C2B17864  34.430  21.576   8.222
 1178POPC   C3B17865  34.303  21.535   7.796
 1178POPC   C4B17866  34.350  21.812   7.467
 1179POPC   NC317867  30.153  37.381   9.410
 1179POPC   PO417868  30.156  36.679   9.511
 1179POPC   GL117869  30.039  36.686   9.098
 1179POPC   GL217870  29.953  37.014   9.139
 1179POPC   C1A17871  29.766  36.810   8.732
 1179POPC   D2A17872  29.931  36.737   8.346
 1179POPC   C3A17873  29.716  36.863   7.984
 1179POPC   C4A17874  29.733  36.675   7.600
 1179POPC   C1B17875  30.226  36.998   8.751
 1179POPC   C2B17876  30.241  37.257   8.430
 1179POPC   C3B17877  30.266  37.060   8.077
 1179POPC   C4B17878  30.121  37.008   7.662
 1180POPC   NC317879   7.969   3.363   9.535
 1180POPC   PO417880   8.580   3.642   9.670
 1180POPC   GL117881   8.455   3.602   9.243
 1180POPC   GL217882   8.272   3.858   9.110
 1180POPC   C1A17883   8.364   3.389   8.850
 1180POPC   D2A17884   8.116   3.448   8.472
 1180POPC   C3A17885   8.384   3.390   8.118
 1180POPC   C4A17886   8.350   3.184   7.733
 1180POPC   C1B17887   7.931   3.658   8.929
 1180POPC   C2B17888   7.693   3.763   8.579
 1180POPC   C3B17889   7.731   3.667   8.164
 1180POPC   C4B17890   8.071   3.712   7.869
 1181POPC   NC317891  18.913  32.466   9.554
 1181POPC   PO417892  19.012  31.776   9.711
 1181POPC   GL117893  19.032  32.034   9.276
 1181POPC   GL217894  19.326  32.179   9.108
 1181POPC   C1A17895  18.817  32.249   8.919
 1181POPC   D2A17896  18.892  32.317   8.455
 1181POPC   C3A17897  18.593  32.339   8.089
 1181POPC   C4A17898  18.785  32.535   7.744
 1181POPC   C1B17899  19.173  31.968   8.720
 1181POPC   C2B17900  19.194  31.882   8.274
 1181POPC   C3B17901  18.968  32.062   7.946
 1181POPC   C4B17902  19.092  32.174   7.513
 1182POPC   NC317903   8.436  41.313   9.178
 1182POPC   PO417904   8.236  41.829   9.496
 1182POPC   GL117905   8.008  41.642   9.160
 1182POPC   GL217906   7.853  41.908   9.007
 1182POPC   C1A17907   7.898  41.452   8.725
 1182POPC   D2A17908   8.102  41.201   8.378
 1182POPC   C3A17909   8.223  41.363   7.955
 1182POPC   C4A17910   8.025  41.282   7.555
 1182POPC   C1B17911   8.237  41.828   8.749
 1182POPC   C2B17912   8.278  41.699   8.362
 1182POPC   C3B17913   8.279  41.898   7.990
 1182POPC   C4B17914   8.237  42.001   7.585
 1183POPC   NC317915  23.935   3.204   9.339
 1183POPC   PO417916  23.410   2.850   9.520
 1183POPC   GL117917  23.546   2.682   9.132
 1183POPC   GL217918  23.918   2.740   9.040
 1183POPC   C1A17919  23.464   2.646   8.703
 1183POPC   D2A17920  23.803   2.686   8.377
 1183POPC   C3A17921  23.730   2.564   7.954
 1183POPC   C4A17922  23.373   2.412   7.729
 1183POPC   C1B17923  23.749   3.070   8.727
 1183POPC   C2B17924  23.867   3.180   8.295
 1183POPC   C3B17925  23.623   3.095   7.929
 1183POPC   C4B17926  23.676   3.146   7.493
 1184POPC   NC317927  19.251  37.321   9.628
 1184POPC   PO417928  18.715  37.645   9.580
 1184POPC   GL117929  19.001  37.581   9.257
 1184POPC   GL217930  19.067  37.930   9.201
 1184POPC   C1A17931  19.045  37.480   8.831
 1184POPC   D2A17932  19.094  37.670   8.437
 1184POPC   C3A17933  18.940  37.387   8.125
 1184POPC   C4A17934  19.080  37.336   7.728
 1184POPC   C1B17935  19.293  38.014   8.812
 1184POPC   C2B17936  19.519  37.999   8.397
 1184POPC   C3B17937  19.423  38.026   7.979
 1184POPC   C4B17938  19.001  37.856   7.958
 1185POPC   NC317939   1.393  42.767   9.500
 1185POPC   PO417940   1.072  42.136   9.490
 1185POPC   GL117941   1.274  42.217   9.134
 1185POPC   GL217942   1.203  42.544   9.086
 1185POPC   C1A17943   1.095  42.176   8.703
 1185POPC   D2A17944   1.237  42.228   8.307
 1185POPC   C3A17945   1.184  41.934   7.989
 1185POPC   C4A17946   1.101  41.941   7.567
 1185POPC   C1B17947   1.493  42.500   8.751
 1185POPC   C2B17948   1.558  42.664   8.363
 1185POPC   C3B17949   1.202  42.671   8.077
 1185POPC   C4B17950   1.240  42.433   7.744
 1186POPC   NC317951  10.274  20.510   9.490
 1186POPC   PO417952  10.773  20.870   9.603
 1186POPC   GL117953  10.732  20.708   9.174
 1186POPC   GL217954  10.401  20.716   9.055
 1186POPC   C1A17955  10.812  20.520   8.745
 1186POPC   D2A17956  10.652  20.642   8.318
 1186POPC   C3A17957  10.773  20.462   7.918
 1186POPC   C4A17958  10.718  20.534   7.471
 1186POPC   C1B17959  10.526  20.959   8.715
 1186POPC   C2B17960  10.422  21.141   8.311
 1186POPC   C3B17961  10.439  20.963   7.885
 1186POPC   C4B17962  10.298  20.876   7.423
 1187POPC   NC317963  44.249  10.921   9.486
 1187POPC   PO417964  44.682  11.390   9.751
 1187POPC   GL117965  44.718  11.504   9.278
 1187POPC   GL217966  44.595  11.243   9.163
 1187POPC   C1A17967  44.875  11.581   8.814
 1187POPC   D2A17968  44.709  11.269   8.474
 1187POPC   C3A17969  44.655  11.347   7.994
 1187POPC   C4A17970  44.855  11.547   7.631
 1187POPC   C1B17971  44.449  10.987   8.867
 1187POPC   C2B17972  44.389  10.858   8.465
 1187POPC   C3B17973  44.595  10.838   8.105
 1187POPC   C4B17974  44.609  10.907   7.699
 1188POPC   NC317975   9.002   3.740   9.805
 1188POPC   PO417976   9.369   3.265   9.575
 1188POPC   GL117977   9.281   3.526   9.236
 1188POPC   GL217978   8.979   3.731   9.282
 1188POPC   C1A17979   9.125   3.447   8.807
 1188POPC   D2A17980   9.133   3.679   8.420
 1188POPC   C3A17981   9.204   3.472   8.032
 1188POPC   C4A17982   8.834   3.326   7.851
 1188POPC   C1B17983   8.759   3.815   8.891
 1188POPC   C2B17984   8.639   3.638   8.498
 1188POPC   C3B17985   8.745   3.776   8.074
 1188POPC   C4B17986   8.539   3.714   7.687
 1189POPC   NC317987  37.524  17.229   9.899
 1189POPC   PO417988  37.619  16.845   9.379
 1189POPC   GL117989  37.572  16.632   9.059
 1189POPC   GL217990  37.904  16.551   9.007
 1189POPC   C1A17991  37.596  16.605   8.620
 1189POPC   D2A17992  37.783  16.856   8.385
 1189POPC   C3A17993  37.654  16.874   8.007
 1189POPC   C4A17994  38.024  17.035   7.806
 1189POPC   C1B17995  37.636  16.167   8.855
 1189POPC   C2B17996  37.751  16.129   8.424
 1189POPC   C3B17997  37.682  16.357   8.066
 1189POPC   C4B17998  37.901  16.516   7.731
 1190POPC   NC317999  30.321   8.972   9.816
 1190POPC   PO418000  29.780   9.286   9.524
 1190POPC   GL118001  29.808   9.100   9.102
 1190POPC   GL218002  29.596   8.820   8.996
 1190POPC   C1A18003  29.952   9.003   8.659
 1190POPC   D2A18004  29.929   8.766   8.249
 1190POPC   C3A18005  29.943   9.033   7.887
 1190POPC   C4A18006  30.009   9.081   7.419
 1190POPC   C1B18007  29.487   8.771   8.539
 1190POPC   C2B18008  29.441   8.885   8.084
 1190POPC   C3B18009  29.575   8.807   7.636
 1190POPC   C4B18010  29.621   8.741   7.183
 1191POPC   NC318011  31.435  10.852   9.411
 1191POPC   PO418012  31.734  10.317   9.619
 1191POPC   GL118013  31.547  10.349   9.167
 1191POPC   GL218014  31.678  10.642   9.004
 1191POPC   C1A18015  31.415  10.300   8.703
 1191POPC   D2A18016  31.255  10.431   8.290
 1191POPC   C3A18017  31.391  10.377   7.844
 1191POPC   C4A18018  31.343  10.600   7.442
 1191POPC   C1B18019  32.031  10.781   8.777
 1191POPC   C2B18020  32.068  10.907   8.363
 1191POPC   C3B18021  31.856  10.722   8.025
 1191POPC   C4B18022  31.817  10.550   7.617
 1192POPC   NC318023  42.764  16.555   9.664
 1192POPC   PO418024  43.200  16.902   9.570
 1192POPC   GL118025  43.143  16.724   9.185
 1192POPC   GL218026  42.890  16.499   9.105
 1192POPC   C1A18027  43.130  16.897   8.783
 1192POPC   D2A18028  43.373  16.783   8.406
 1192POPC   C3A18029  43.244  16.954   8.039
 1192POPC   C4A18030  42.914  16.852   7.808
 1192POPC   C1B18031  42.859  16.486   8.681
 1192POPC   C2B18032  42.656  16.300   8.361
 1192POPC   C3B18033  42.587  16.505   8.022
 1192POPC   C4B18034  42.768  16.396   7.635
 1193POPC   NC318035  40.040   0.005   9.421
 1193POPC   PO418036  39.992  44.355   9.569
 1193POPC   GL118037  39.972  44.550   9.188
 1193POPC   GL218038  40.326  44.510   9.186
 1193POPC   C1A18039  39.913  44.440   8.764
 1193POPC   D2A18040  39.678  44.318   8.420
 1193POPC   C3A18041  39.839  44.482   8.039
 1193POPC   C4A18042  39.874  44.883   7.869
 1193POPC   C1B18043  40.406  44.618   8.774
 1193POPC   C2B18044  40.193  44.679   8.372
 1193POPC   C3B18045  40.353  44.584   7.958
 1193POPC   C4B18046  40.375  44.964   7.710
 1194POPC   NC318047  37.274   2.313   9.834
 1194POPC   PO418048  36.953   1.883   9.507
 1194POPC   GL118049  37.093   2.145   9.184
 1194POPC   GL218050  36.839   1.987   9.001
 1194POPC   C1A18051  37.171   2.218   8.711
 1194POPC   D2A18052  37.020   1.939   8.353
 1194POPC   C3A18053  37.008   2.089   7.929
 1194POPC   C4A18054  37.179   2.139   7.505
 1194POPC   C1B18055  36.435   1.942   8.834
 1194POPC   C2B18056  36.367   2.098   8.453
 1194POPC   C3B18057  36.447   2.175   8.033
 1194POPC   C4B18058  36.564   2.009   7.702
 1195POPC   NC318059  42.080  10.176   9.595
 1195POPC   PO418060  42.231  10.748   9.298
 1195POPC   GL118061  42.270  10.354   9.137
 1195POPC   GL218062  42.599  10.314   9.221
 1195POPC   C1A18063  42.299  10.346   8.696
 1195POPC   D2A18064  42.316  10.630   8.364
 1195POPC   C3A18065  42.029  10.448   8.106
 1195POPC   C4A18066  41.927  10.657   7.783
 1195POPC   C1B18067  42.731  10.569   8.837
 1195POPC   C2B18068  42.752  10.371   8.449
 1195POPC   C3B18069  42.713  10.496   8.048
 1195POPC   C4B18070  42.408  10.457   7.781
 1196POPC   NC318071  27.297   0.828   9.330
 1196POPC   PO418072  26.989   0.266   9.609
 1196POPC   GL118073  26.823   0.193   9.195
 1196POPC   GL218074  26.826   0.538   9.126
 1196POPC   C1A18075  26.722   0.152   8.785
 1196POPC   D2A18076  26.788  44.951   8.418
 1196POPC   C3A18077  26.812   0.202   8.083
 1196POPC   C4A18078  26.577   0.114   7.733
 1196POPC   C1B18079  26.825   0.751   8.756
 1196POPC   C2B18080  26.712   0.883   8.349
 1196POPC   C3B18081  26.966   0.880   7.979
 1196POPC   C4B18082  26.726   0.610   7.739
 1197POPC   NC318083   2.984   6.587   9.606
 1197POPC   PO418084   2.483   6.094   9.605
 1197POPC   GL118085   2.597   6.505   9.296
 1197POPC   GL218086   2.923   6.710   9.118
 1197POPC   C1A18087   2.453   6.820   8.969
 1197POPC   D2A18088   2.284   6.715   8.584
 1197POPC   C3A18089   2.480   6.884   8.263
 1197POPC   C4A18090   2.467   6.747   7.847
 1197POPC   C1B18091   2.803   6.602   8.672
 1197POPC   C2B18092   2.757   6.488   8.224
 1197POPC   C3B18093   2.990   6.579   7.864
 1197POPC   C4B18094   3.138   6.326   7.484
 1198POPC   NC318095  12.876   3.949   9.519
 1198POPC   PO418096  12.534   3.324   9.543
 1198POPC   GL118097  12.737   3.528   9.205
 1198POPC   GL218098  13.111   3.567   9.222
 1198POPC   C1A18099  12.812   3.373   8.804
 1198POPC   D2A18100  12.968   3.236   8.416
 1198POPC   C3A18101  12.724   3.058   8.084
 1198POPC   C4A18102  12.850   3.156   7.673
 1198POPC   C1B18103  13.090   3.785   8.805
 1198POPC   C2B18104  12.819   3.729   8.441
 1198POPC   C3B18105  12.926   3.578   8.030
 1198POPC   C4B18106  12.731   3.658   7.646
 1199POPC   NC318107   6.241  40.503   9.533
 1199POPC   PO418108   6.888  40.748   9.470
 1199POPC   GL118109   6.708  40.870   9.099
 1199POPC   GL218110   6.367  40.873   9.138
 1199POPC   C1A18111   6.580  41.071   8.718
 1199POPC   D2A18112   6.575  40.775   8.423
 1199POPC   C3A18113   6.710  40.893   8.034
 1199POPC   C4A18114   6.632  40.891   7.588
 1199POPC   C1B18115   6.343  40.529   8.856
 1199POPC   C2B18116   6.190  40.419   8.448
 1199POPC   C3B18117   6.347  40.499   8.047
 1199POPC   C4B18118   6.340  40.451   7.624
 1200POPC   NC318119  37.471   2.571   9.354
 1200POPC   PO418120  37.834   3.153   9.577
 1200POPC   GL118121  37.746   2.978   9.197
 1200POPC   GL218122  37.472   3.181   9.075
 1200POPC   C1A18123  37.972   2.710   8.903
 1200POPC   D2A18124  38.058   2.697   8.454
 1200POPC   C3A18125  37.715   2.827   8.163
 1200POPC   C4A18126  37.833   2.688   7.748
 1200POPC   C1B18127  37.628   2.993   8.676
 1200POPC   C2B18128  37.582   2.530   8.567
 1200POPC   C3B18129  37.312   2.398   8.228
 1200POPC   C4B18130  37.297   2.543   7.794
 1201POPC   NC318131  44.357  26.578   9.386
 1201POPC   PO418132  44.495  25.894   9.450
 1201POPC   GL118133  44.580  26.171   9.142
 1201POPC   GL218134  44.870  26.407   9.200
 1201POPC   C1A18135  44.492  25.962   8.768
 1201POPC   D2A18136  44.686  25.812   8.411
 1201POPC   C3A18137  44.493  25.952   8.041
 1201POPC   C4A18138  44.733  25.838   7.698
 1201POPC   C1B18139  44.896  26.268   8.748
 1201POPC   C2B18140  44.736  26.321   8.308
 1201POPC   C3B18141  44.893  26.315   7.859
 1201POPC   C4B18142  44.920  26.236   7.390
 1202POPC   NC318143  18.466  26.783   9.364
 1202POPC   PO418144  17.879  27.062   9.483
 1202POPC   GL118145  18.045  26.917   9.127
 1202POPC   GL218146  18.100  26.548   9.062
 1202POPC   C1A18147  18.220  26.955   8.736
 1202POPC   D2A18148  18.448  26.951   8.391
 1202POPC   C3A18149  18.236  27.008   8.033
 1202POPC   C4A18150  18.395  26.844   7.688
 1202POPC   C1B18151  18.467  26.499   8.743
 1202POPC   C2B18152  18.738  26.527   8.361
 1202POPC   C3B18153  18.374  26.502   8.087
 1202POPC   C4B18154  18.235  26.360   7.679
 1203POPC   NC318155   0.110  24.785   9.544
 1203POPC   PO418156   0.767  24.534   9.606
 1203POPC   GL118157   0.554  24.526   9.159
 1203POPC   GL218158   0.162  24.529   9.105
 1203POPC   C1A18159   0.449  24.528   8.702
 1203POPC   D2A18160   0.292  24.845   8.415
 1203POPC   C3A18161   0.408  24.700   8.040
 1203POPC   C4A18162   0.487  24.278   8.054
 1203POPC   C1B18163   0.022  24.231   8.745
 1203POPC   C2B18164   0.044  24.405   8.311
 1203POPC   C3B18165   0.018  24.252   7.868
 1203POPC   C4B18166   0.048  24.202   7.442
 1204POPC   NC318167  23.764  10.896   9.765
 1204POPC   PO418168  23.750  11.510   9.666
 1204POPC   GL118169  23.645  11.443   9.247
 1204POPC   GL218170  23.611  11.090   9.250
 1204POPC   C1A18171  23.720  11.455   8.803
 1204POPC   D2A18172  23.446  11.609   8.441
 1204POPC   C3A18173  23.509  11.444   8.034
 1204POPC   C4A18174  23.725  11.579   7.634
 1204POPC   C1B18175  23.541  10.972   8.809
 1204POPC   C2B18176  23.734  11.120   8.392
 1204POPC   C3B18177  23.694  10.987   7.960
 1204POPC   C4B18178  23.277  10.904   7.780
 1205POPC   NC318179  40.233  14.991   9.499
 1205POPC   PO418180  39.769  15.443   9.542
 1205POPC   GL118181  40.101  15.415   9.203
 1205POPC   GL218182  40.167  15.092   9.012
 1205POPC   C1A18183  40.197  15.516   8.773
 1205POPC   D2A18184  40.121  15.227   8.441
 1205POPC   C3A18185  40.080  15.450   8.045
 1205POPC   C4A18186  40.217  15.267   7.669
 1205POPC   C1B18187  39.835  14.876   8.764
 1205POPC   C2B18188  39.700  14.869   8.344
 1205POPC   C3B18189  39.936  14.948   8.013
 1205POPC   C4B18190  39.873  14.827   7.637
 1206POPC   NC318191  26.373  43.273   9.472
 1206POPC   PO418192  25.995  42.731   9.666
 1206POPC   GL118193  25.910  42.730   9.208
 1206POPC   GL218194  25.965  43.101   9.148
 1206POPC   C1A18195  25.827  42.754   8.750
 1206POPC   D2A18196  25.616  42.847   8.353
 1206POPC   C3A18197  25.836  42.879   7.947
 1206POPC   C4A18198  26.152  43.112   7.743
 1206POPC   C1B18199  26.177  43.174   8.727
 1206POPC   C2B18200  26.093  43.182   8.258
 1206POPC   C3B18201  25.913  43.518   7.941
 1206POPC   C4B18202  25.865  43.619   7.482
 1207POPC   NC318203  14.270  17.390   9.701
 1207POPC   PO418204  14.548  17.978   9.515
 1207POPC   GL118205  14.217  17.674   9.289
 1207POPC   GL218206  14.320  17.318   9.169
 1207POPC   C1A18207  14.102  17.611   8.849
 1207POPC   D2A18208  14.060  17.690   8.429
 1207POPC   C3A18209  14.182  17.370   8.130
 1207POPC   C4A18210  14.221  17.219   7.703
 1207POPC   C1B18211  14.548  17.381   8.734
 1207POPC   C2B18212  14.688  17.522   8.314
 1207POPC   C3B18213  14.665  17.269   7.950
 1207POPC   C4B18214  14.705  17.143   7.531
 1208POPC   NC318215  29.808  38.824   9.619
 1208POPC   PO418216  30.016  38.183   9.610
 1208POPC   GL118217  29.922  38.465   9.281
 1208POPC   GL218218  30.108  38.251   9.107
 1208POPC   C1A18219  29.796  38.569   8.841
 1208POPC   D2A18220  29.975  38.821   8.502
 1208POPC   C3A18221  29.748  38.775   8.094
 1208POPC   C4A18222  29.776  38.601   7.668
 1208POPC   C1B18223  30.324  38.493   8.813
 1208POPC   C2B18224  30.179  38.354   8.432
 1208POPC   C3B18225  30.117  38.399   7.999
 1208POPC   C4B18226  30.017  38.172   7.575
 1209POPC   NC318227  31.545  27.115   9.632
 1209POPC   PO418228  31.080  26.710   9.460
 1209POPC   GL118229  31.526  26.740   9.274
 1209POPC   GL218230  31.693  27.089   9.159
 1209POPC   C1A18231  31.655  26.586   8.884
 1209POPC   D2A18232  31.456  26.673   8.493
 1209POPC   C3A18233  31.593  26.624   8.066
 1209POPC   C4A18234  31.185  26.684   7.903
 1209POPC   C1B18235  31.588  27.137   8.769
 1209POPC   C2B18236  31.728  27.084   8.375
 1209POPC   C3B18237  31.438  27.112   8.096
 1209POPC   C4B18238  31.504  27.043   7.697
 1210POPC   NC318239  41.165  12.928   9.471
 1210POPC   PO418240  40.489  12.726   9.509
 1210POPC   GL118241  40.765  12.854   9.154
 1210POPC   GL218242  40.828  12.503   9.089
 1210POPC   C1A18243  40.787  13.162   8.761
 1210POPC   D2A18244  40.917  13.146   8.320
 1210POPC   C3A18245  40.706  13.034   7.942
 1210POPC   C4A18246  40.702  13.081   7.499
 1210POPC   C1B18247  40.961  12.686   8.686
 1210POPC   C2B18248  41.253  12.789   8.354
 1210POPC   C3B18249  41.042  12.669   7.995
 1210POPC   C4B18250  40.765  12.555   7.685
 1211POPC   NC318251  37.367   3.381   9.600
 1211POPC   PO418252  37.688   4.059   9.499
 1211POPC   GL118253  37.685   3.787   9.157
 1211POPC   GL218254  37.840   3.523   9.233
 1211POPC   C1A18255  37.574   3.575   8.764
 1211POPC   D2A18256  37.689   3.397   8.369
 1211POPC   C3A18257  37.493   3.601   8.036
 1211POPC   C4A18258  37.281   3.445   7.726
 1211POPC   C1B18259  37.992   3.295   8.891
 1211POPC   C2B18260  38.153   3.169   8.542
 1211POPC   C3B18261  38.095   3.171   8.133
 1211POPC   C4B18262  37.749   3.229   7.826
 1212POPC   NC318263  31.904  15.512   9.559
 1212POPC   PO418264  32.290  16.205   9.593
 1212POPC   GL118265  32.183  15.887   9.329
 1212POPC   GL218266  31.858  16.015   9.361
 1212POPC   C1A18267  32.081  15.751   8.925
 1212POPC   D2A18268  32.202  15.732   8.506
 1212POPC   C3A18269  32.411  15.993   8.227
 1212POPC   C4A18270  32.284  15.991   7.791
 1212POPC   C1B18271  31.934  16.242   8.963
 1212POPC   C2B18272  32.061  16.238   8.536
 1212POPC   C3B18273  31.889  16.073   8.144
 1212POPC   C4B18274  31.787  16.310   7.782
 1213POPC   NC318275  39.280  14.428   9.304
 1213POPC   PO418276  38.679  14.027   9.478
 1213POPC   GL118277  38.946  14.090   9.116
 1213POPC   GL218278  39.297  13.978   9.065
 1213POPC   C1A18279  39.029  14.280   8.696
 1213POPC   D2A18280  39.162  14.151   8.267
 1213POPC   C3A18281  39.133  14.432   7.904
 1213POPC   C4A18282  39.084  14.520   7.460
 1213POPC   C1B18283  39.479  13.994   8.653
 1213POPC   C2B18284  39.702  14.131   8.274
 1213POPC   C3B18285  39.685  14.459   7.959
 1213POPC   C4B18286  39.585  14.421   7.507
 1214POPC   NC318287  42.881  21.159   9.599
 1214POPC   PO418288  43.343  21.582   9.581
 1214POPC   GL118289  43.385  21.569   9.154
 1214POPC   GL218290  43.096  21.380   9.137
 1214POPC   C1A18291  43.368  21.743   8.745
 1214POPC   D2A18292  43.388  21.615   8.295
 1214POPC   C3A18293  43.145  21.791   7.994
 1214POPC   C4A18294  43.159  21.602   7.584
 1214POPC   C1B18295  43.164  21.293   8.685
 1214POPC   C2B18296  42.924  21.441   8.343
 1214POPC   C3B18297  42.978  21.300   7.947
 1214POPC   C4B18298  42.921  21.131   7.551
 1215POPC   NC318299   0.245  34.037   9.453
 1215POPC   PO418300   0.547  34.624   9.376
 1215POPC   GL118301   0.226  34.497   9.137
 1215POPC   GL218302   0.423  34.231   9.025
 1215POPC   C1A18303   0.130  34.523   8.686
 1215POPC   D2A18304   0.274  34.684   8.284
 1215POPC   C3A18305   0.266  34.484   7.876
 1215POPC   C4A18306   0.231  34.645   7.437
 1215POPC   C1B18307   0.626  34.487   8.733
 1215POPC   C2B18308   0.783  34.533   8.365
 1215POPC   C3B18309   0.769  34.462   7.957
 1215POPC   C4B18310   0.692  34.794   7.651
 1216POPC   NC318311  26.809   5.937   9.579
 1216POPC   PO418312  26.122   5.649   9.618
 1216POPC   GL118313  25.850   5.714   9.243
 1216POPC   GL218314  25.976   6.040   9.172
 1216POPC   C1A18315  25.936   5.685   8.802
 1216POPC   D2A18316  25.816   5.784   8.369
 1216POPC   C3A18317  26.098   5.685   8.005
 1216POPC   C4A18318  26.002   5.455   7.628
 1216POPC   C1B18319  25.840   6.195   8.784
 1216POPC   C2B18320  25.934   6.300   8.364
 1216POPC   C3B18321  25.841   6.125   7.958
 1216POPC   C4B18322  25.677   6.290   7.580
 1217POPC   NC318323   8.593  24.380   9.587
 1217POPC   PO418324   9.255  24.690   9.582
 1217POPC   GL118325   9.120  24.826   9.125
 1217POPC   GL218326   8.780  24.659   9.160
 1217POPC   C1A18327   9.023  24.593   8.698
 1217POPC   D2A18328   8.870  24.670   8.285
 1217POPC   C3A18329   9.206  24.676   8.025
 1217POPC   C4A18330   9.320  24.421   7.730
 1217POPC   C1B18331   8.502  24.526   8.812
 1217POPC   C2B18332   8.416  24.440   8.399
 1217POPC   C3B18333   8.506  24.416   7.971
 1217POPC   C4B18334   8.779  24.621   7.721
 1218POPC   NC318335  32.584  23.024   9.414
 1218POPC   PO418336  31.964  23.022   9.556
 1218POPC   GL118337  32.086  22.834   9.168
 1218POPC   GL218338  32.201  23.142   9.059
 1218POPC   C1A18339  32.335  22.744   8.768
 1218POPC   D2A18340  32.571  22.834   8.385
 1218POPC   C3A18341  32.428  22.872   7.961
 1218POPC   C4A18342  32.194  22.549   7.781
 1218POPC   C1B18343  31.926  23.042   8.709
 1218POPC   C2B18344  32.071  23.037   8.286
 1218POPC   C3B18345  31.923  22.956   7.860
 1218POPC   C4B18346  31.832  23.255   7.536
 1219POPC   NC318347   3.627  43.289   9.730
 1219POPC   PO418348   3.350  42.776   9.442
 1219POPC   GL118349   3.575  43.098   9.241
 1219POPC   GL218350   3.859  42.920   9.113
 1219POPC   C1A18351   3.561  43.361   8.849
 1219POPC   D2A18352   3.676  43.496   8.418
 1219POPC   C3A18353   3.340  43.449   8.126
 1219POPC   C4A18354   3.243  43.189   7.793
 1219POPC   C1B18355   3.562  42.833   8.787
 1219POPC   C2B18356   3.421  43.034   8.426
 1219POPC   C3B18357   3.661  43.064   8.052
 1219POPC   C4B18358   3.615  42.788   7.741
 1220POPC   NC318359  39.739  24.743   9.422
 1220POPC   PO418360  39.680  24.042   9.388
 1220POPC   GL118361  39.896  24.247   9.032
 1220POPC   GL218362  40.095  24.521   9.147
 1220POPC   C1A18363  39.844  24.444   8.602
 1220POPC   D2A18364  39.883  24.514   8.166
 1220POPC   C3A18365  39.734  24.232   7.868
 1220POPC   C4A18366  39.939  24.228   7.483
 1220POPC   C1B18367  40.047  24.846   8.843
 1220POPC   C2B18368  40.189  24.849   8.453
 1220POPC   C3B18369  40.316  24.839   8.032
 1220POPC   C4B18370  40.085  24.662   7.707
 1221POPC   NC318371  27.747   6.501   9.912
 1221POPC   PO418372  27.520   6.677   9.288
 1221POPC   GL118373  27.521   6.540   8.925
 1221POPC   GL218374  27.180   6.412   8.871
 1221POPC   C1A18375  27.839   6.714   8.683
 1221POPC   D2A18376  27.910   7.005   8.405
 1221POPC   C3A18377  27.864   6.769   8.068
 1221POPC   C4A18378  27.560   6.828   7.750
 1221POPC   C1B18379  27.425   6.113   8.668
 1221POPC   C2B18380  27.628   6.360   8.400
 1221POPC   C3B18381  27.383   6.575   8.143
 1221POPC   C4B18382  27.304   6.387   7.755
 1222POPC   NC318383  35.951   4.494   9.389
 1222POPC   PO418384  36.358   4.064   9.603
 1222POPC   GL118385  36.320   4.156   9.172
 1222POPC   GL218386  36.381   4.524   9.103
 1222POPC   C1A18387  36.322   4.163   8.728
 1222POPC   D2A18388  36.109   4.300   8.357
 1222POPC   C3A18389  36.218   4.427   7.946
 1222POPC   C4A18390  36.089   4.160   7.628
 1222POPC   C1B18391  36.064   4.622   8.777
 1222POPC   C2B18392  35.996   4.791   8.385
 1222POPC   C3B18393  35.757   4.639   8.125
 1222POPC   C4B18394  35.742   4.610   7.696
 1223POPC   NC318395  19.923  35.862   9.540
 1223POPC   PO418396  19.546  36.322   9.251
 1223POPC   GL118397  19.769  36.204   8.971
 1223POPC   GL218398  20.050  36.210   9.143
 1223POPC   C1A18399  19.658  36.295   8.555
 1223POPC   D2A18400  19.536  36.529   8.212
 1223POPC   C3A18401  19.620  36.233   7.873
 1223POPC   C4A18402  19.588  36.062   7.465
 1223POPC   C1B18403  20.217  36.268   8.737
 1223POPC   C2B18404  20.103  36.164   8.349
 1223POPC   C3B18405  20.258  36.018   8.013
 1223POPC   C4B18406  20.246  36.147   7.624
 1224POPC   NC318407  22.657  35.306   9.732
 1224POPC   PO418408  22.874  35.939   9.587
 1224POPC   GL118409  22.982  35.981   9.148
 1224POPC   GL218410  22.633  35.949   9.060
 1224POPC   C1A18411  23.151  36.060   8.702
 1224POPC   D2A18412  23.377  35.929   8.305
 1224POPC   C3A18413  23.136  36.060   7.918
 1224POPC   C4A18414  22.689  36.195   7.766
 1224POPC   C1B18415  22.859  35.630   8.816
 1224POPC   C2B18416  22.918  35.696   8.418
 1224POPC   C3B18417  23.054  35.579   8.061
 1224POPC   C4B18418  22.833  35.692   7.717
 1225POPC   NC318419  10.286  43.763   9.552
 1225POPC   PO418420  10.795  44.155   9.473
 1225POPC   GL118421  10.727  43.944   9.114
 1225POPC   GL218422  10.457  43.653   9.098
 1225POPC   C1A18423  10.902  44.096   8.728
 1225POPC   D2A18424  10.715  44.102   8.325
 1225POPC   C3A18425  10.815  43.976   7.906
 1225POPC   C4A18426  10.494  44.146   7.633
 1225POPC   C1B18427  10.590  43.690   8.693
 1225POPC   C2B18428  10.501  43.621   8.310
 1225POPC   C3B18429  10.304  43.856   8.010
 1225POPC   C4B18430  10.042  43.889   7.660
 1226POPC   NC318431  38.642  14.970   9.368
 1226POPC   PO418432  38.609  15.642   9.450
 1226POPC   GL118433  38.504  15.396   9.076
 1226POPC   GL218434  38.191  15.199   9.113
 1226POPC   C1A18435  38.732  15.222   8.738
 1226POPC   D2A18436  38.632  15.054   8.340
 1226POPC   C3A18437  38.698  15.308   7.993
 1226POPC   C4A18438  38.483  15.352   7.639
 1226POPC   C1B18439  38.221  15.037   8.726
 1226POPC   C2B18440  38.159  15.223   8.340
 1226POPC   C3B18441  38.224  15.054   7.951
 1226POPC   C4B18442  38.231  14.913   7.531
 1227POPC   NC318443  37.829  19.498   9.848
 1227POPC   PO418444  37.614  20.100   9.649
 1227POPC   GL118445  37.720  19.991   9.221
 1227POPC   GL218446  37.395  19.997   9.086
 1227POPC   C1A18447  37.810  19.891   8.766
 1227POPC   D2A18448  37.936  20.008   8.325
 1227POPC   C3A18449  37.815  19.728   7.976
 1227POPC   C4A18450  37.528  19.526   7.696
 1227POPC   C1B18451  37.318  19.725   8.740
 1227POPC   C2B18452  37.520  19.666   8.370
 1227POPC   C3B18453  37.319  19.871   8.006
 1227POPC   C4B18454  36.900  19.910   7.874
 1228POPC   NC318455   6.749  37.962   9.502
 1228POPC   PO418456   6.112  38.043   9.579
 1228POPC   GL118457   6.369  37.641   9.311
 1228POPC   GL218458   6.116  37.368   9.186
 1228POPC   C1A18459   6.717  37.588   8.963
 1228POPC   D2A18460   6.775  37.880   8.588
 1228POPC   C3A18461   6.700  37.779   8.133
 1228POPC   C4A18462   6.824  37.922   7.731
 1228POPC   C1B18463   6.285  37.411   8.806
 1228POPC   C2B18464   6.531  37.417   8.460
 1228POPC   C3B18465   6.517  37.283   8.043
 1228POPC   C4B18466   6.673  37.448   7.681
 1229POPC   NC318467  43.462  26.195   9.614
 1229POPC   PO418468  42.826  25.846   9.552
 1229POPC   GL118469  42.951  25.885   9.184
 1229POPC   GL218470  43.271  25.892   9.226
 1229POPC   C1A18471  42.855  26.040   8.786
 1229POPC   D2A18472  42.618  25.947   8.421
 1229POPC   C3A18473  42.742  26.037   8.022
 1229POPC   C4A18474  42.942  25.988   7.651
 1229POPC   C1B18475  43.384  26.117   8.862
 1229POPC   C2B18476  43.163  26.327   8.504
 1229POPC   C3B18477  43.255  26.200   8.082
 1229POPC   C4B18478  43.292  26.377   7.684
 1230POPC   NC318479  34.036   6.312   9.846
 1230POPC   PO418480  33.562   6.777   9.622
 1230POPC   GL118481  33.589   6.823   9.182
 1230POPC   GL218482  33.901   6.650   9.203
 1230POPC   C1A18483  33.532   6.564   8.831
 1230POPC   D2A18484  33.619   6.371   8.452
 1230POPC   C3A18485  33.865   6.564   8.131
 1230POPC   C4A18486  33.757   6.399   7.751
 1230POPC   C1B18487  34.026   6.646   8.765
 1230POPC   C2B18488  34.194   6.892   8.417
 1230POPC   C3B18489  34.069   7.047   8.018
 1230POPC   C4B18490  33.736   6.905   7.737
 1231POPC   NC318491  15.252   7.786   9.459
 1231POPC   PO418492  15.469   7.141   9.423
 1231POPC   GL118493  15.168   7.226   9.082
 1231POPC   GL218494  15.056   7.558   9.033
 1231POPC   C1A18495  15.084   7.111   8.660
 1231POPC   D2A18496  15.338   6.920   8.325
 1231POPC   C3A18497  15.273   7.126   7.904
 1231POPC   C4A18498  15.023   7.485   7.687
 1231POPC   C1B18499  15.353   7.579   8.674
 1231POPC   C2B18500  15.517   7.415   8.287
 1231POPC   C3B18501  15.484   7.611   7.872
 1231POPC   C4B18502  15.482   7.468   7.433
 1232POPC   NC318503  38.804  31.914   9.402
 1232POPC   PO418504  39.399  32.126   9.488
 1232POPC   GL118505  39.154  32.299   9.165
 1232POPC   GL218506  38.800  32.428   9.250
 1232POPC   C1A18507  39.351  32.439   8.772
 1232POPC   D2A18508  39.538  32.285   8.395
 1232POPC   C3A18509  39.415  32.341   7.958
 1232POPC   C4A18510  39.370  31.953   7.759
 1232POPC   C1B18511  38.782  32.331   8.812
 1232POPC   C2B18512  38.992  32.412   8.420
 1232POPC   C3B18513  38.899  32.377   8.036
 1232POPC   C4B18514  38.884  32.100   7.748
 1233POPC   NC318515  13.853   2.572   9.518
 1233POPC   PO418516  13.394   3.063   9.499
 1233POPC   GL118517  13.483   2.762   9.206
 1233POPC   GL218518  13.820   2.881   9.132
 1233POPC   C1A18519  13.550   2.578   8.810
 1233POPC   D2A18520  13.763   2.494   8.435
 1233POPC   C3A18521  13.652   2.715   8.114
 1233POPC   C4A18522  13.471   2.581   7.704
 1233POPC   C1B18523  13.646   3.095   8.836
 1233POPC   C2B18524  13.796   3.163   8.460
 1233POPC   C3B18525  13.624   3.272   8.121
 1233POPC   C4B18526  13.681   3.081   7.771
 1234POPC   NC318527   8.009   8.259   9.678
 1234POPC   PO418528   7.372   8.325   9.548
 1234POPC   GL118529   7.464   8.134   9.176
 1234POPC   GL218530   7.694   7.888   9.259
 1234POPC   C1A18531   7.387   8.296   8.766
 1234POPC   D2A18532   7.071   8.443   8.461
 1234POPC   C3A18533   7.237   8.230   8.101
 1234POPC   C4A18534   7.382   8.331   7.702
 1234POPC   C1B18535   7.795   7.963   8.802
 1234POPC   C2B18536   7.666   8.068   8.354
 1234POPC   C3B18537   7.677   7.940   7.892
 1234POPC   C4B18538   7.553   7.950   7.425
 1235POPC   NC318539  32.657  22.218   9.586
 1235POPC   PO418540  32.011  22.024   9.508
 1235POPC   GL118541  32.126  22.306   9.180
 1235POPC   GL218542  32.452  22.487   9.209
 1235POPC   C1A18543  32.187  22.200   8.751
 1235POPC   D2A18544  32.253  22.427   8.367
 1235POPC   C3A18545  32.185  22.127   8.089
 1235POPC   C4A18546  31.942  22.065   7.739
 1235POPC   C1B18547  32.653  22.357   8.847
 1235POPC   C2B18548  32.750  22.352   8.411
 1235POPC   C3B18549  32.613  22.388   7.998
 1235POPC   C4B18550  32.438  22.133   7.626
 1236POPC   NC318551  37.458  23.619   9.692
 1236POPC   PO418552  38.058  23.820   9.482
 1236POPC   GL118553  37.937  23.563   9.130
 1236POPC   GL218554  37.591  23.518   9.182
 1236POPC   C1A18555  37.916  23.485   8.676
 1236POPC   D2A18556  37.941  23.860   8.407
 1236POPC   C3A18557  38.083  23.758   8.018
 1236POPC   C4A18558  38.005  23.308   8.005
 1236POPC   C1B18559  37.561  23.798   8.806
 1236POPC   C2B18560  37.423  23.890   8.424
 1236POPC   C3B18561  37.540  23.982   8.018
 1236POPC   C4B18562  37.656  23.657   7.777
 1237POPC   NC318563  38.154  15.636   9.365
 1237POPC   PO418564  38.355  16.228   9.634
 1237POPC   GL118565  38.375  16.059   9.207
 1237POPC   GL218566  38.032  16.108   9.220
 1237POPC   C1A18567  38.571  15.847   8.819
 1237POPC   D2A18568  38.557  15.595   8.422
 1237POPC   C3A18569  38.646  15.845   8.064
 1237POPC   C4A18570  38.635  15.856   7.654
 1237POPC   C1B18571  38.124  16.110   8.785
 1237POPC   C2B18572  38.321  16.065   8.416
 1237POPC   C3B18573  38.183  16.172   8.033
 1237POPC   C4B18574  38.247  16.170   7.619
 1238POPC   NC318575  35.839  23.862   9.445
 1238POPC   PO418576  36.369  23.458   9.494
 1238POPC   GL118577  36.208  23.633   9.137
 1238POPC   GL218578  36.385  23.910   9.121
 1238POPC   C1A18579  36.123  23.574   8.680
 1238POPC   D2A18580  36.051  23.773   8.340
 1238POPC   C3A18581  36.158  23.584   7.993
 1238POPC   C4A18582  35.983  23.746   7.614
 1238POPC   C1B18583  36.232  24.070   8.718
 1238POPC   C2B18584  36.382  24.245   8.335
 1238POPC   C3B18585  36.189  24.099   7.925
 1238POPC   C4B18586  36.210  24.201   7.480
 1239POPC   NC318587   8.316   9.235   9.710
 1239POPC   PO418588   8.112   8.665   9.473
 1239POPC   GL118589   8.306   8.928   9.146
 1239POPC   GL218590   8.319   9.285   9.182
 1239POPC   C1A18591   8.510   8.914   8.755
 1239POPC   D2A18592   8.557   8.681   8.384
 1239POPC   C3A18593   8.390   8.874   8.025
 1239POPC   C4A18594   8.242   8.697   7.632
 1239POPC   C1B18595   8.096   9.241   8.764
 1239POPC   C2B18596   8.056   8.925   8.445
 1239POPC   C3B18597   7.874   8.869   8.058
 1239POPC   C4B18598   7.995   9.130   7.739
 1240POPC   NC318599   6.137   1.501   9.455
 1240POPC   PO418600   6.119   0.830   9.670
 1240POPC   GL118601   5.952   1.033   9.268
 1240POPC   GL218602   5.679   1.270   9.209
 1240POPC   C1A18603   5.994   1.105   8.814
 1240POPC   D2A18604   6.227   1.168   8.447
 1240POPC   C3A18605   6.140   0.976   8.040
 1240POPC   C4A18606   6.108   1.150   7.621
 1240POPC   C1B18607   5.783   1.566   8.854
 1240POPC   C2B18608   5.905   1.566   8.458
 1240POPC   C3B18609   6.020   1.490   8.057
 1240POPC   C4B18610   5.661   1.573   7.849
 1241POPC   NC318611  29.764  21.975   9.361
 1241POPC   PO418612  30.192  22.444   9.366
 1241POPC   GL118613  29.985  22.255   8.995
 1241POPC   GL218614  29.731  21.996   8.872
 1241POPC   C1A18615  29.958  22.388   8.579
 1241POPC   D2A18616  30.283  22.427   8.300
 1241POPC   C3A18617  30.117  22.256   7.937
 1241POPC   C4A18618  29.712  22.388   7.772
 1241POPC   C1B18619  29.621  21.617   8.696
 1241POPC   C2B18620  29.827  21.721   8.381
 1241POPC   C3B18621  29.686  22.050   8.161
 1241POPC   C4B18622  29.749  21.889   7.783
 1242POPC   NC318623   6.402  34.021   9.468
 1242POPC   PO418624   6.609  33.344   9.524
 1242POPC   GL118625   6.673  33.641   9.181
 1242POPC   GL218626   6.881  33.954   9.244
 1242POPC   C1A18627   6.418  33.737   8.836
 1242POPC   D2A18628   6.255  33.769   8.438
 1242POPC   C3A18629   6.439  33.456   8.165
 1242POPC   C4A18630   6.682  33.523   7.752
 1242POPC   C1B18631   6.907  33.907   8.798
 1242POPC   C2B18632   6.784  33.772   8.406
 1242POPC   C3B18633   6.554  33.931   8.060
 1242POPC   C4B18634   6.485  33.997   7.683
 1243POPC   NC318635  11.036   1.830   9.464
 1243POPC   PO418636  11.586   2.298   9.358
 1243POPC   GL118637  11.460   1.869   9.152
 1243POPC   GL218638  11.706   1.589   9.174
 1243POPC   C1A18639  11.172   1.859   8.788
 1243POPC   D2A18640  11.065   2.194   8.470
 1243POPC   C3A18641  11.287   2.122   8.075
 1243POPC   C4A18642  11.171   2.175   7.663
 1243POPC   C1B18643  11.776   1.709   8.757
 1243POPC   C2B18644  11.510   1.712   8.401
 1243POPC   C3B18645  11.655   1.765   8.000
 1243POPC   C4B18646  11.449   1.730   7.674
 1244POPC   NC318647   8.360  38.431   9.631
 1244POPC   PO418648   7.828  38.204   9.444
 1244POPC   GL118649   8.096  38.468   9.186
 1244POPC   GL218650   8.510  38.463   9.166
 1244POPC   C1A18651   8.076  38.308   8.801
 1244POPC   D2A18652   8.096  38.458   8.426
 1244POPC   C3A18653   7.991  38.158   8.106
 1244POPC   C4A18654   7.899  38.341   7.713
 1244POPC   C1B18655   8.485  38.637   8.791
 1244POPC   C2B18656   8.562  38.665   8.390
 1244POPC   C3B18657   8.412  38.471   8.030
 1244POPC   C4B18658   8.727  38.463   7.779
 1245POPC   NC318659  35.117  26.857   9.414
 1245POPC   PO418660  35.842  26.652   9.382
 1245POPC   GL118661  35.575  26.893   9.138
 1245POPC   GL218662  35.360  26.622   9.031
 1245POPC   C1A18663  35.417  27.068   8.755
 1245POPC   D2A18664  35.293  26.854   8.392
 1245POPC   C3A18665  35.347  27.080   8.041
 1245POPC   C4A18666  35.432  27.049   7.636
 1245POPC   C1B18667  35.124  26.430   8.672
 1245POPC   C2B18668  35.057  26.404   8.271
 1245POPC   C3B18669  35.247  26.564   7.922
 1245POPC   C4B18670  34.960  26.612   7.587
 1246POPC   NC318671   8.052  21.021   9.586
 1246POPC   PO418672   8.356  20.424   9.448
 1246POPC   GL118673   8.386  20.769   9.163
 1246POPC   GL218674   8.019  20.764   9.147
 1246POPC   C1A18675   8.367  20.752   8.700
 1246POPC   D2A18676   8.348  20.319   8.492
 1246POPC   C3A18677   8.450  20.376   8.061
 1246POPC   C4A18678   8.265  20.647   7.783
 1246POPC   C1B18679   7.911  20.535   8.762
 1246POPC   C2B18680   8.010  20.688   8.336
 1246POPC   C3B18681   7.793  20.736   7.960
 1246POPC   C4B18682   7.836  20.806   7.539
 1247POPC   NC318683   5.991  18.017   9.546
 1247POPC   PO418684   5.847  18.646   9.496
 1247POPC   GL118685   6.113  18.385   9.189
 1247POPC   GL218686   5.820  18.235   9.090
 1247POPC   C1A18687   6.244  18.110   8.819
 1247POPC   D2A18688   6.159  17.964   8.394
 1247POPC   C3A18689   5.937  18.203   8.100
 1247POPC   C4A18690   5.818  18.181   7.650
 1247POPC   C1B18691   5.554  18.426   8.768
 1247POPC   C2B18692   5.652  18.616   8.366
 1247POPC   C3B18693   5.598  18.536   7.942
 1247POPC   C4B18694   5.350  18.432   7.624
 1248POPC   NC318695  38.743   7.945   9.479
 1248POPC   PO418696  38.088   8.146   9.537
 1248POPC   GL118697  38.361   8.190   9.237
 1248POPC   GL218698  38.359   7.850   9.114
 1248POPC   C1A18699  38.416   8.270   8.821
 1248POPC   D2A18700  38.525   8.441   8.456
 1248POPC   C3A18701  38.639   8.168   8.122
 1248POPC   C4A18702  38.858   8.222   7.718
 1248POPC   C1B18703  38.052   7.901   8.769
 1248POPC   C2B18704  38.153   8.088   8.376
 1248POPC   C3B18705  38.089   8.013   7.945
 1248POPC   C4B18706  38.341   8.251   7.688
 1249POPC   NC318707   9.544  29.031   9.583
 1249POPC   PO418708   9.932  29.454   9.574
 1249POPC   GL118709   9.886  29.226   9.221
 1249POPC   GL218710   9.576  29.366   9.159
 1249POPC   C1A18711   9.922  29.036   8.825
 1249POPC   D2A18712   9.665  29.052   8.437
 1249POPC   C3A18713   9.704  28.971   7.996
 1249POPC   C4A18714  10.001  28.861   7.702
 1249POPC   C1B18715   9.662  29.467   8.747
 1249POPC   C2B18716   9.490  29.511   8.315
 1249POPC   C3B18717   9.385  29.357   7.892
 1249POPC   C4B18718   9.522  29.530   7.463
 1250POPC   NC318719   5.055  33.361   9.692
 1250POPC   PO418720   4.994  32.666   9.598
 1250POPC   GL118721   5.081  32.713   9.141
 1250POPC   GL218722   4.720  32.614   9.123
 1250POPC   C1A18723   5.339  32.878   8.773
 1250POPC   D2A18724   5.561  32.795   8.353
 1250POPC   C3A18725   5.325  33.004   7.981
 1250POPC   C4A18726   4.953  33.305   7.877
 1250POPC   C1B18727   4.811  32.791   8.735
 1250POPC   C2B18728   5.002  32.716   8.364
 1250POPC   C3B18729   4.822  32.840   8.006
 1250POPC   C4B18730   5.006  32.793   7.624
 1251POPC   NC318731  11.441  41.322   9.455
 1251POPC   PO418732  11.374  42.026   9.412
 1251POPC   GL118733  11.287  41.695   9.131
 1251POPC   GL218734  11.594  41.631   9.085
 1251POPC   C1A18735  11.135  41.542   8.725
 1251POPC   D2A18736  10.970  41.750   8.345
 1251POPC   C3A18737  11.113  41.558   7.981
 1251POPC   C4A18738  11.214  41.664   7.584
 1251POPC   C1B18739  11.580  41.789   8.707
 1251POPC   C2B18740  11.495  41.768   8.292
 1251POPC   C3B18741  11.781  41.666   7.995
 1251POPC   C4B18742  11.725  41.619   7.588
 1252POPC   NC318743  14.332  40.520   9.730
 1252POPC   PO418744  14.485  41.097   9.391
 1252POPC   GL118745  14.578  40.705   9.243
 1252POPC   GL218746  14.251  40.663   9.126
 1252POPC   C1A18747  14.655  40.687   8.798
 1252POPC   D2A18748  14.425  40.896   8.458
 1252POPC   C3A18749  14.478  40.759   8.039
 1252POPC   C4A18750  14.700  40.912   7.704
 1252POPC   C1B18751  14.160  40.527   8.705
 1252POPC   C2B18752  13.993  40.676   8.298
 1252POPC   C3B18753  14.068  40.464   7.910
 1252POPC   C4B18754  14.469  40.250   7.901
 1253POPC   NC318755  10.936  35.880   9.620
 1253POPC   PO418756  10.473  35.446   9.419
 1253POPC   GL118757  10.485  35.593   8.997
 1253POPC   GL218758  10.107  35.617   8.977
 1253POPC   C1A18759  10.698  35.598   8.550
 1253POPC   D2A18760  10.778  35.244   8.244
 1253POPC   C3A18761  10.510  35.257   7.902
 1253POPC   C4A18762  10.524  35.674   7.778
 1253POPC   C1B18763  10.237  35.388   8.611
 1253POPC   C2B18764  10.278  35.564   8.222
 1253POPC   C3B18765  10.035  35.658   7.849
 1253POPC   C4B18766  10.170  35.376   7.524
 1254POPC   NC318767  24.786  30.526   9.649
 1254POPC   PO418768  24.298  31.066   9.537
 1254POPC   GL118769  24.503  30.824   9.169
 1254POPC   GL218770  24.611  30.513   9.190
 1254POPC   C1A18771  24.349  30.566   8.773
 1254POPC   D2A18772  24.361  30.381   8.363
 1254POPC   C3A18773  24.170  30.664   8.076
 1254POPC   C4A18774  24.352  30.799   7.697
 1254POPC   C1B18775  24.854  30.316   8.894
 1254POPC   C2B18776  24.973  30.364   8.484
 1254POPC   C3B18777  24.775  30.529   8.130
 1254POPC   C4B18778  24.843  30.555   7.693
 1255POPC   NC318779  41.013  44.843   9.585
 1255POPC   PO418780  40.702  44.276   9.469
 1255POPC   GL118781  40.844  44.601   9.151
 1255POPC   GL218782  41.197  44.679   9.147
 1255POPC   C1A18783  40.922  44.710   8.713
 1255POPC   D2A18784  40.708  44.632   8.348
 1255POPC   C3A18785  40.595   0.018   8.166
 1255POPC   C4A18786  40.883   0.033   7.839
 1255POPC   C1B18787  41.299  44.377   8.829
 1255POPC   C2B18788  41.135  44.321   8.380
 1255POPC   C3B18789  41.021  44.472   7.928
 1255POPC   C4B18790  41.086  44.321   7.453
 1256POPC   NC318791  42.605  14.699   9.612
 1256POPC   PO418792  42.236  15.285   9.677
 1256POPC   GL118793  42.264  15.139   9.229
 1256POPC   GL218794  42.602  14.965   9.171
 1256POPC   C1A18795  42.266  15.311   8.792
 1256POPC   D2A18796  42.051  15.408   8.403
 1256POPC   C3A18797  42.253  15.335   8.019
 1256POPC   C4A18798  42.222  15.008   7.729
 1256POPC   C1B18799  42.416  14.836   8.798
 1256POPC   C2B18800  42.413  14.930   8.355
 1256POPC   C3B18801  42.648  14.847   7.995
 1256POPC   C4B18802  42.603  14.512   7.690
 1257POPC   NC318803   1.842  44.960   9.497
 1257POPC   PO418804   2.058   0.581   9.789
 1257POPC   GL118805   1.992   0.399   9.316
 1257POPC   GL218806   2.305   0.468   9.223
 1257POPC   C1A18807   2.089   0.206   8.831
 1257POPC   D2A18808   2.368   0.095   8.475
 1257POPC   C3A18809   2.135   0.265   8.139
 1257POPC   C4A18810   2.013   0.363   7.753
 1257POPC   C1B18811   2.032   0.704   8.913
 1257POPC   C2B18812   1.945   0.611   8.484
 1257POPC   C3B18813   1.975   0.770   8.069
 1257POPC   C4B18814   2.040   0.856   7.617
 1258POPC   NC318815  31.200   4.368   9.814
 1258POPC   PO418816  31.709   4.442   9.320
 1258POPC   GL118817  31.684   4.105   9.005
 1258POPC   GL218818  31.438   4.219   8.817
 1258POPC   C1A18819  31.834   3.912   8.673
 1258POPC   D2A18820  31.734   4.179   8.341
 1258POPC   C3A18821  31.946   3.976   8.050
 1258POPC   C4A18822  31.942   4.014   7.639
 1258POPC   C1B18823  31.381   4.561   8.525
 1258POPC   C2B18824  31.265   4.800   8.187
 1258POPC   C3B18825  31.243   4.503   7.922
 1258POPC   C4B18826  31.579   4.306   7.823
 1259POPC   NC318827   8.597  15.901   9.357
 1259POPC   PO418828   9.087  16.315   9.496
 1259POPC   GL118829   9.011  16.078   9.123
 1259POPC   GL218830   9.182  15.801   9.245
 1259POPC   C1A18831   8.771  16.082   8.720
 1259POPC   D2A18832   8.857  16.238   8.300
 1259POPC   C3A18833   8.762  15.951   7.988
 1259POPC   C4A18834   9.122  15.805   7.857
 1259POPC   C1B18835   9.354  15.750   8.822
 1259POPC   C2B18836   9.215  15.534   8.435
 1259POPC   C3B18837   9.357  15.377   8.034
 1259POPC   C4B18838   9.586  15.600   7.755
 1260POPC   NC318839  31.851   3.392   9.497
 1260POPC   PO418840  32.404   3.781   9.426
 1260POPC   GL118841  32.457   3.595   9.074
 1260POPC   GL218842  32.270   3.275   9.136
 1260POPC   C1A18843  32.274   3.561   8.709
 1260POPC   D2A18844  32.072   3.574   8.365
 1260POPC   C3A18845  32.345   3.474   8.079
 1260POPC   C4A18846  32.291   3.669   7.776
 1260POPC   C1B18847  31.911   3.209   8.825
 1260POPC   C2B18848  31.776   3.160   8.379
 1260POPC   C3B18849  31.894   3.320   7.941
 1260POPC   C4B18850  32.256   3.177   7.647
 1261POPC   NC318851   8.604  43.996   9.409
 1261POPC   PO418852   8.110  43.587   9.538
 1261POPC   GL118853   8.186  43.783   9.155
 1261POPC   GL218854   7.963  44.022   9.200
 1261POPC   C1A18855   8.248  44.040   8.757
 1261POPC   D2A18856   8.492  44.160   8.378
 1261POPC   C3A18857   8.290  44.073   7.991
 1261POPC   C4A18858   8.510  43.724   7.825
 1261POPC   C1B18859   7.779  43.838   8.799
 1261POPC   C2B18860   7.924  43.629   8.458
 1261POPC   C3B18861   7.853  43.499   8.055
 1261POPC   C4B18862   8.016  43.703   7.708
 1262POPC   NC318863  26.004  41.425   9.636
 1262POPC   PO418864  26.278  41.973   9.758
 1262POPC   GL118865  26.128  41.701   9.253
 1262POPC   GL218866  25.882  41.485   9.150
 1262POPC   C1A18867  26.250  41.655   8.807
 1262POPC   D2A18868  26.153  41.917   8.442
 1262POPC   C3A18869  26.240  41.725   7.999
 1262POPC   C4A18870  26.143  41.471   7.628
 1262POPC   C1B18871  25.765  41.558   8.718
 1262POPC   C2B18872  25.896  41.494   8.310
 1262POPC   C3B18873  25.722  41.466   7.918
 1262POPC   C4B18874  25.652  41.549   7.500
 1263POPC   NC318875  33.450   1.260   9.516
 1263POPC   PO418876  33.991   0.916   9.582
 1263POPC   GL118877  33.902   1.237   9.211
 1263POPC   GL218878  33.619   1.470   9.105
 1263POPC   C1A18879  34.007   1.202   8.761
 1263POPC   D2A18880  33.928   0.991   8.362
 1263POPC   C3A18881  33.746   1.224   8.016
 1263POPC   C4A18882  33.993   1.346   7.613
 1263POPC   C1B18883  33.490   1.287   8.756
 1263POPC   C2B18884  33.668   1.495   8.420
 1263POPC   C3B18885  33.466   1.693   8.065
 1263POPC   C4B18886  33.509   1.480   7.674
 1264POPC   NC318887  18.613  25.073   9.406
 1264POPC   PO418888  19.312  24.976   9.452
 1264POPC   GL118889  19.110  25.270   9.157
 1264POPC   GL218890  18.903  25.542   9.255
 1264POPC   C1A18891  18.784  25.192   8.804
 1264POPC   D2A18892  18.583  25.201   8.387
 1264POPC   C3A18893  18.827  25.176   8.007
 1264POPC   C4A18894  18.958  24.901   7.666
 1264POPC   C1B18895  19.012  25.634   8.804
 1264POPC   C2B18896  18.830  25.662   8.392
 1264POPC   C3B18897  18.952  25.674   7.974
 1264POPC   C4B18898  19.171  25.414   7.703
 1265POPC   NC318899  41.827  26.511   9.565
 1265POPC   PO418900  41.362  26.920   9.535
 1265POPC   GL118901  41.611  26.820   9.176
 1265POPC   GL218902  41.923  26.959   9.255
 1265POPC   C1A18903  41.445  26.832   8.751
 1265POPC   D2A18904  41.538  26.643   8.364
 1265POPC   C3A18905  41.495  26.859   7.977
 1265POPC   C4A18906  41.665  26.661   7.562
 1265POPC   C1B18907  41.899  27.057   8.811
 1265POPC   C2B18908  41.724  27.131   8.412
 1265POPC   C3B18909  41.891  27.146   8.004
 1265POPC   C4B18910  41.803  27.136   7.548
 1266POPC   NC318911  15.525  38.555   9.551
 1266POPC   PO418912  14.868  38.602   9.566
 1266POPC   GL118913  15.149  38.591   9.208
 1266POPC   GL218914  15.252  38.214   9.195
 1266POPC   C1A18915  15.158  38.550   8.775
 1266POPC   D2A18916  15.118  38.191   8.518
 1266POPC   C3A18917  14.957  38.343   8.154
 1266POPC   C4A18918  15.060  38.533   7.755
 1266POPC   C1B18919  14.862  38.076   8.952
 1266POPC   C2B18920  14.702  37.915   8.538
 1266POPC   C3B18921  14.874  37.806   8.130
 1266POPC   C4B18922  14.958  38.040   7.742
 1267POPC   NC318923  16.650  35.660   9.471
 1267POPC   PO418924  16.692  34.963   9.419
 1267POPC   GL118925  16.653  35.201   9.036
 1267POPC   GL218926  16.843  35.482   9.034
 1267POPC   C1A18927  16.721  35.283   8.594
 1267POPC   D2A18928  16.860  35.378   8.197
 1267POPC   C3A18929  16.807  35.105   7.897
 1267POPC   C4A18930  16.658  35.144   7.468
 1267POPC   C1B18931  16.490  35.667   8.834
 1267POPC   C2B18932  16.343  35.625   8.422
 1267POPC   C3B18933  16.525  35.751   8.079
 1267POPC   C4B18934  16.698  35.604   7.733
 1268POPC   NC318935   7.965  34.136   9.422
 1268POPC   PO418936   7.614  34.807   9.426
 1268POPC   GL118937   7.574  34.673   9.026
 1268POPC   GL218938   7.649  34.332   9.058
 1268POPC   C1A18939   7.334  34.550   8.664
 1268POPC   D2A18940   7.069  34.614   8.310
 1268POPC   C3A18941   7.308  34.749   7.977
 1268POPC   C4A18942   7.279  34.659   7.556
 1268POPC   C1B18943   7.804  34.334   8.676
 1268POPC   C2B18944   7.687  34.238   8.264
 1268POPC   C3B18945   7.474  34.254   7.851
 1268POPC   C4B18946   7.496  34.236   7.391
 1269POPC   NC318947   9.841   2.043  10.097
 1269POPC   PO418948   9.616   1.715   9.477
 1269POPC   GL118949   9.742   1.761   9.055
 1269POPC   GL218950   9.732   2.085   9.070
 1269POPC   C1A18951   9.642   1.794   8.611
 1269POPC   D2A18952   9.731   1.845   8.158
 1269POPC   C3A18953   9.536   1.905   7.775
 1269POPC   C4A18954   9.565   1.777   7.363
 1269POPC   C1B18955   9.711   2.319   8.682
 1269POPC   C2B18956   9.955   2.282   8.306
 1269POPC   C3B18957   9.867   2.268   7.860
 1269POPC   C4B18958   9.636   2.282   7.448
 1270POPC   NC318959  43.095  41.040   9.496
 1270POPC   PO418960  43.195  40.426   9.816
 1270POPC   GL118961  43.048  40.454   9.331
 1270POPC   GL218962  42.869  40.708   9.182
 1270POPC   C1A18963  43.159  40.444   8.851
 1270POPC   D2A18964  43.074  40.262   8.417
 1270POPC   C3A18965  43.232  40.452   8.024
 1270POPC   C4A18966  43.620  40.430   7.756
 1270POPC   C1B18967  42.912  41.066   8.848
 1270POPC   C2B18968  42.841  41.211   8.403
 1270POPC   C3B18969  42.730  41.114   7.979
 1270POPC   C4B18970  42.885  40.832   7.640
 1271POPC   NC318971  19.094  28.646   9.459
 1271POPC   PO418972  18.601  28.195   9.396
 1271POPC   GL118973  18.842  28.276   9.026
 1271POPC   GL218974  19.188  28.437   9.003
 1271POPC   C1A18975  18.908  28.197   8.588
 1271POPC   D2A18976  19.298  28.116   8.374
 1271POPC   C3A18977  19.209  28.197   7.955
 1271POPC   C4A18978  19.155  28.005   7.586
 1271POPC   C1B18979  18.958  28.689   8.691
 1271POPC   C2B18980  18.965  28.612   8.249
 1271POPC   C3B18981  18.863  28.678   7.838
 1271POPC   C4B18982  19.109  28.512   7.528
 1272POPC   NC318983   1.739  16.864   9.662
 1272POPC   PO418984   2.415  17.094   9.579
 1272POPC   GL118985   2.213  16.853   9.232
 1272POPC   GL218986   1.862  16.713   9.173
 1272POPC   C1A18987   2.185  16.956   8.788
 1272POPC   D2A18988   1.859  17.146   8.515
 1272POPC   C3A18989   1.776  16.948   8.096
 1272POPC   C4A18990   2.162  16.816   7.893
 1272POPC   C1B18991   2.024  16.490   8.801
 1272POPC   C2B18992   2.058  16.622   8.383
 1272POPC   C3B18993   1.940  16.388   8.027
 1272POPC   C4B18994   1.849  16.419   7.636
 1273POPC   NC318995  44.805  37.163   9.636
 1273POPC   PO418996  44.430  36.609   9.511
 1273POPC   GL118997  44.690  36.785   9.188
 1273POPC   GL218998  44.634  37.142   9.154
 1273POPC   C1A18999  44.962  36.718   8.812
 1273POPC   D2A19000  44.878  36.539   8.381
 1273POPC   C3A19001   0.006  36.714   7.956
 1273POPC   C4A19002   0.053  36.958   7.527
 1273POPC   C1B19003  44.601  37.065   8.713
 1273POPC   C2B19004  44.766  37.051   8.297
 1273POPC   C3B19005  44.653  37.086   7.856
 1273POPC   C4B19006  44.538  37.033   7.441
 1274POPC   NC319007  44.024  36.821   9.503
 1274POPC   PO419008  43.575  37.199   9.273
 1274POPC   GL119009  43.831  36.884   8.999
 1274POPC   GL219010  44.200  36.879   9.033
 1274POPC   C1A19011  43.704  36.641   8.598
 1274POPC   D2A19012  43.928  36.655   8.169
 1274POPC   C3A19013  43.714  36.734   7.798
 1274POPC   C4A19014  43.449  36.448   7.650
 1274POPC   C1B19015  44.162  36.848   8.601
 1274POPC   C2B19016  44.269  37.025   8.207
 1274POPC   C3B19017  44.072  37.125   7.816
 1274POPC   C4B19018  44.038  36.991   7.353
 1275POPC   NC319019  40.043  23.779   9.497
 1275POPC   PO419020  39.529  23.243   9.450
 1275POPC   GL119021  39.742  23.489   9.126
 1275POPC   GL219022  40.098  23.431   9.123
 1275POPC   C1A19023  39.796  23.801   8.775
 1275POPC   D2A19024  40.040  23.978   8.436
 1275POPC   C3A19025  39.997  23.669   8.116
 1275POPC   C4A19026  39.984  23.755   7.682
 1275POPC   C1B19027  40.290  23.637   8.753
 1275POPC   C2B19028  40.468  23.487   8.345
 1275POPC   C3B19029  40.465  23.689   7.937
 1275POPC   C4B19030  40.386  23.495   7.532
 1276POPC   NC319031  14.727   2.669   9.514
 1276POPC   PO419032  14.108   3.075   9.496
 1276POPC   GL119033  14.362   2.878   9.219
 1276POPC   GL219034  14.256   2.563   9.203
 1276POPC   C1A19035  14.574   2.773   8.828
 1276POPC   D2A19036  14.769   2.671   8.434
 1276POPC   C3A19037  14.688   2.916   8.090
 1276POPC   C4A19038  14.467   2.730   7.803
 1276POPC   C1B19039  14.087   2.568   8.824
 1276POPC   C2B19040  14.273   2.553   8.430
 1276POPC   C3B19041  14.160   2.385   8.054
 1276POPC   C4B19042  13.968   2.644   7.742
 1277POPC   NC319043  34.719  40.414   9.518
 1277POPC   PO419044  34.362  39.814   9.508
 1277POPC   GL119045  34.629  39.918   9.182
 1277POPC   GL219046  34.413  40.223   9.164
 1277POPC   C1A19047  34.745  39.693   8.779
 1277POPC   D2A19048  34.684  39.918   8.408
 1277POPC   C3A19049  34.430  40.013   8.040
 1277POPC   C4A19050  34.655  39.936   7.609
 1277POPC   C1B19051  34.352  40.085   8.770
 1277POPC   C2B19052  34.432  40.362   8.440
 1277POPC   C3B19053  34.535  40.546   8.090
 1277POPC   C4B19054  34.550  40.412   7.678
 1278POPC   NC319055  13.794  22.525   9.643
 1278POPC   PO419056  13.603  21.961   9.812
 1278POPC   GL119057  13.763  22.153   9.315
 1278POPC   GL219058  13.441  22.172   9.093
 1278POPC   C1A19059  13.931  22.016   8.847
 1278POPC   D2A19060  14.104  22.059   8.383
 1278POPC   C3A19061  13.839  21.930   8.007
 1278POPC   C4A19062  13.710  22.131   7.622
 1278POPC   C1B19063  13.415  21.875   8.704
 1278POPC   C2B19064  13.407  21.920   8.275
 1278POPC   C3B19065  13.349  22.243   7.955
 1278POPC   C4B19066  13.181  21.928   7.742
 1279POPC   NC319067  42.054  21.318   9.471
 1279POPC   PO419068  41.655  21.687   9.870
 1279POPC   GL119069  41.659  21.686   9.353
 1279POPC   GL219070  41.667  21.339   9.177
 1279POPC   C1A19071  41.545  21.692   8.873
 1279POPC   D2A19072  41.543  21.428   8.503
 1279POPC   C3A19073  41.449  21.591   8.149
 1279POPC   C4A19074  41.443  21.509   7.753
 1279POPC   C1B19075  41.713  21.061   8.845
 1279POPC   C2B19076  41.787  20.962   8.443
 1279POPC   C3B19077  41.507  21.037   8.120
 1279POPC   C4B19078  41.697  21.069   7.764
 1280POPC   NC319079  27.137  41.165   9.582
 1280POPC   PO419080  26.436  41.212   9.484
 1280POPC   GL119081  26.693  40.914   9.198
 1280POPC   GL219082  26.656  40.541   9.168
 1280POPC   C1A19083  27.016  40.937   8.906
 1280POPC   D2A19084  27.077  40.785   8.480
 1280POPC   C3A19085  26.852  40.975   8.152
 1280POPC   C4A19086  26.672  40.757   7.806
 1280POPC   C1B19087  26.586  40.726   8.741
 1280POPC   C2B19088  26.565  40.580   8.326
 1280POPC   C3B19089  26.333  40.388   8.002
 1280POPC   C4B19090  26.443  40.310   7.576
 1281POPC   NC319091   3.262  44.009   9.563
 1281POPC   PO419092   2.853  43.507   9.469
 1281POPC   GL119093   2.769  43.708   9.104
 1281POPC   GL219094   2.971  43.955   9.131
 1281POPC   C1A19095   2.549  43.636   8.722
 1281POPC   D2A19096   2.670  43.900   8.387
 1281POPC   C3A19097   2.699  43.792   8.022
 1281POPC   C4A19098   2.623  43.987   7.706
 1281POPC   C1B19099   3.082  43.855   8.713
 1281POPC   C2B19100   3.251  43.922   8.288
 1281POPC   C3B19101   3.161  43.905   7.838
 1281POPC   C4B19102   2.955  43.611   7.574
 1282POPC   NC319103   0.364   9.628   9.418
 1282POPC   PO419104   0.048   9.324   8.988
 1282POPC   GL119105   0.236   9.745   8.913
 1282POPC   GL219106   0.322  10.061   9.101
 1282POPC   C1A19107   0.511   9.946   8.590
 1282POPC   D2A19108   0.637  10.013   8.134
 1282POPC   C3A19109   0.496   9.723   7.807
 1282POPC   C4A19110   0.344   9.739   7.369
 1282POPC   C1B19111   0.086  10.218   8.739
 1282POPC   C2B19112   0.077  10.026   8.312
 1282POPC   C3B19113   0.149  10.104   7.892
 1282POPC   C4B19114   0.038  10.158   7.430
 1283POPC   NC319115  30.240  24.710   9.552
 1283POPC   PO419116  29.756  24.237   9.555
 1283POPC   GL119117  29.871  24.221   9.143
 1283POPC   GL219118  30.167  24.444   9.121
 1283POPC   C1A19119  29.857  24.410   8.728
 1283POPC   D2A19120  30.139  24.510   8.412
 1283POPC   C3A19121  30.095  24.180   8.153
 1283POPC   C4A19122  29.735  24.185   7.880
 1283POPC   C1B19123  30.323  24.770   8.815
 1283POPC   C2B19124  30.483  24.896   8.402
 1283POPC   C3B19125  30.389  24.735   8.019
 1283POPC   C4B19126  29.985  24.643   7.898
 1284POPC   NC319127  25.389  43.700   9.581
 1284POPC   PO419128  25.564  44.339   9.504
 1284POPC   GL119129  25.412  44.026   9.165
 1284POPC   GL219130  25.158  43.724   9.143
 1284POPC   C1A19131  25.167  44.069   8.788
 1284POPC   D2A19132  24.985  44.244   8.444
 1284POPC   C3A19133  24.999  44.009   8.075
 1284POPC   C4A19134  25.107  44.137   7.672
 1284POPC   C1B19135  25.227  43.541   8.750
 1284POPC   C2B19136  25.303  43.756   8.375
 1284POPC   C3B19137  25.451  43.783   7.955
 1284POPC   C4B19138  25.353  43.592   7.555
 1285POPC   NC319139   5.395   8.188   9.498
 1285POPC   PO419140   4.746   7.956   9.344
 1285POPC   GL119141   5.047   8.193   9.106
 1285POPC   GL219142   5.369   8.034   9.034
 1285POPC   C1A19143   4.981   8.164   8.682
 1285POPC   D2A19144   4.812   8.309   8.319
 1285POPC   C3A19145   4.990   8.122   7.980
 1285POPC   C4A19146   4.790   8.054   7.550
 1285POPC   C1B19147   5.507   8.285   8.711
 1285POPC   C2B19148   5.320   8.404   8.362
 1285POPC   C3B19149   5.384   8.490   7.979
 1285POPC   C4B19150   5.085   8.489   7.671
 1286POPC   NC319151   6.791  10.325   9.543
 1286POPC   PO419152   6.168  10.394   9.539
 1286POPC   GL119153   6.334  10.621   9.155
 1286POPC   GL219154   6.714  10.647   9.171
 1286POPC   C1A19155   6.506  10.619   8.716
 1286POPC   D2A19156   6.624  10.335   8.391
 1286POPC   C3A19157   6.527  10.469   7.974
 1286POPC   C4A19158   6.171  10.558   7.743
 1286POPC   C1B19159   6.907  10.335   8.872
 1286POPC   C2B19160   7.153  10.409   8.496
 1286POPC   C3B19161   7.022  10.332   8.048
 1286POPC   C4B19162   6.883  10.451   7.606
 1287POPC   NC319163  32.630  30.024   9.580
 1287POPC   PO419164  33.260  29.570   9.442
 1287POPC   GL119165  32.987  29.668   9.050
 1287POPC   GL219166  32.929  30.054   8.957
 1287POPC   C1A19167  32.974  29.706   8.584
 1287POPC   D2A19168  32.997  30.040   8.262
 1287POPC   C3A19169  32.989  29.848   7.842
 1287POPC   C4A19170  32.894  29.708   7.382
 1287POPC   C1B19171  33.304  30.114   8.669
 1287POPC   C2B19172  33.549  29.814   8.495
 1287POPC   C3B19173  33.409  29.612   8.154
 1287POPC   C4B19174  33.537  29.701   7.750
 1288POPC   NC319175  17.062  21.139   9.716
 1288POPC   PO419176  17.677  21.456   9.516
 1288POPC   GL119177  17.575  21.262   9.152
 1288POPC   GL219178  17.240  21.268   9.257
 1288POPC   C1A19179  17.652  21.290   8.715
 1288POPC   D2A19180  17.796  21.085   8.316
 1288POPC   C3A19181  17.672  21.336   7.965
 1288POPC   C4A19182  17.313  21.625   8.028
 1288POPC   C1B19183  17.160  21.189   8.812
 1288POPC   C2B19184  17.271  21.179   8.342
 1288POPC   C3B19185  17.194  21.117   7.885
 1288POPC   C4B19186  17.123  21.049   7.420
 1289POPC   NC319187   7.084  36.281   9.464
 1289POPC   PO419188   7.529  35.800   9.511
 1289POPC   GL119189   7.409  36.026   9.143
 1289POPC   GL219190   7.487  36.398   9.123
 1289POPC   C1A19191   7.229  36.082   8.742
 1289POPC   D2A19192   7.527  36.080   8.382
 1289POPC   C3A19193   7.468  35.937   7.948
 1289POPC   C4A19194   7.474  35.860   7.522
 1289POPC   C1B19195   7.198  36.621   8.823
 1289POPC   C2B19196   7.128  36.471   8.414
 1289POPC   C3B19197   7.285  36.417   8.009
 1289POPC   C4B19198   7.065  36.501   7.636
 1290POPC   NC319199  14.622  12.916   9.384
 1290POPC   PO419200  14.125  12.467   9.604
 1290POPC   GL119201  14.260  12.557   9.191
 1290POPC   GL219202  14.600  12.405   9.180
 1290POPC   C1A19203  14.195  12.810   8.800
 1290POPC   D2A19204  14.292  12.678   8.384
 1290POPC   C3A19205  14.244  12.885   7.984
 1290POPC   C4A19206  14.282  13.019   7.499
 1290POPC   C1B19207  14.929  12.454   8.878
 1290POPC   C2B19208  14.872  12.553   8.455
 1290POPC   C3B19209  14.654  12.498   8.081
 1290POPC   C4B19210  14.646  12.708   7.734
 1291POPC   NC319211  16.393  29.868   9.598
 1291POPC   PO419212  15.757  29.997   9.596
 1291POPC   GL119213  15.970  29.987   9.183
 1291POPC   GL219214  16.304  30.142   9.138
 1291POPC   C1A19215  16.025  29.839   8.741
 1291POPC   D2A19216  15.872  29.727   8.321
 1291POPC   C3A19217  15.655  30.026   8.021
 1291POPC   C4A19218  15.642  29.808   7.685
 1291POPC   C1B19219  16.188  30.323   8.722
 1291POPC   C2B19220  16.143  30.166   8.286
 1291POPC   C3B19221  16.113  29.902   7.894
 1291POPC   C4B19222  16.175  29.978   7.480
 1292POPC   NC319223  31.083  24.690   9.519
 1292POPC   PO419224  30.469  24.277   9.540
 1292POPC   GL119225  30.669  24.268   9.154
 1292POPC   GL219226  30.663  24.608   9.162
 1292POPC   C1A19227  30.496  24.306   8.740
 1292POPC   D2A19228  30.662  24.432   8.379
 1292POPC   C3A19229  30.594  24.268   8.021
 1292POPC   C4A19230  30.695  24.467   7.678
 1292POPC   C1B19231  30.838  24.733   8.779
 1292POPC   C2B19232  31.111  24.670   8.428
 1292POPC   C3B19233  30.899  24.803   8.069
 1292POPC   C4B19234  30.727  24.975   7.688
 1293POPC   NC319235  16.170  17.175   9.433
 1293POPC   PO419236  16.074  17.734   9.803
 1293POPC   GL119237  15.831  17.557   9.376
 1293POPC   GL219238  15.941  17.865   9.162
 1293POPC   C1A19239  15.672  17.503   8.940
 1293POPC   D2A19240  15.823  17.323   8.546
 1293POPC   C3A19241  15.873  17.555   8.150
 1293POPC   C4A19242  15.884  17.244   7.809
 1293POPC   C1B19243  16.095  17.737   8.730
 1293POPC   C2B19244  16.327  17.917   8.407
 1293POPC   C3B19245  16.408  17.817   8.028
 1293POPC   C4B19246  16.256  17.548   7.713
 1294POPC   NC319247  44.632  29.637   9.496
 1294POPC   PO419248  44.847  30.319   9.490
 1294POPC   GL119249  44.771  30.032   9.202
 1294POPC   GL219250  44.398  30.025   9.237
 1294POPC   C1A19251  44.732  29.752   8.864
 1294POPC   D2A19252  44.627  29.823   8.445
 1294POPC   C3A19253  44.801  29.704   8.044
 1294POPC   C4A19254   0.005  30.050   7.829
 1294POPC   C1B19255  44.378  30.145   8.810
 1294POPC   C2B19256  44.269  30.190   8.392
 1294POPC   C3B19257  44.338  29.955   8.039
 1294POPC   C4B19258  44.480  30.022   7.639
 1295POPC   NC319259   6.715   8.719   9.306
 1295POPC   PO419260   6.722   8.053   9.523
 1295POPC   GL119261   6.645   8.040   9.138
 1295POPC   GL219262   6.333   8.220   9.139
 1295POPC   C1A19263   6.923   8.055   8.815
 1295POPC   D2A19264   6.711   7.970   8.475
 1295POPC   C3A19265   6.728   8.224   8.129
 1295POPC   C4A19266   6.887   8.167   7.721
 1295POPC   C1B19267   6.525   8.395   8.751
 1295POPC   C2B19268   6.380   8.541   8.356
 1295POPC   C3B19269   6.298   8.389   7.941
 1295POPC   C4B19270   6.450   8.325   7.494
 1296POPC   NC319271  39.420  31.669   9.548
 1296POPC   PO419272  38.829  31.488   9.194
 1296POPC   GL119273  39.228  31.463   9.124
 1296POPC   GL219274  39.249  31.813   9.093
 1296POPC   C1A19275  39.372  31.497   8.718
 1296POPC   D2A19276  39.411  31.697   8.331
 1296POPC   C3A19277  39.346  31.333   8.069
 1296POPC   C4A19278  39.466  31.454   7.690
 1296POPC   C1B19279  39.116  31.967   8.684
 1296POPC   C2B19280  38.905  31.895   8.267
 1296POPC   C3B19281  38.995  31.637   7.890
 1296POPC   C4B19282  39.021  31.716   7.428
 1297POPC   NC319283  18.079  33.259   9.576
 1297POPC   PO419284  18.587  32.807   9.432
 1297POPC   GL119285  18.260  32.981   9.185
 1297POPC   GL219286  18.334  33.316   9.127
 1297POPC   C1A19287  18.228  32.949   8.763
 1297POPC   D2A19288  18.580  33.098   8.484
 1297POPC   C3A19289  18.545  32.918   8.051
 1297POPC   C4A19290  18.476  33.122   7.636
 1297POPC   C1B19291  18.151  33.437   8.715
 1297POPC   C2B19292  18.120  33.221   8.314
 1297POPC   C3B19293  18.191  33.437   7.932
 1297POPC   C4B19294  17.890  33.565   7.647
 1298POPC   NC319295   3.854   0.972   9.684
 1298POPC   PO419296   3.240   1.220   9.676
 1298POPC   GL119297   3.504   0.943   9.321
 1298POPC   GL219298   3.302   0.797   9.074
 1298POPC   C1A19299   3.818   0.903   8.933
 1298POPC   D2A19300   3.798   1.147   8.479
 1298POPC   C3A19301   3.805   1.018   8.024
 1298POPC   C4A19302   3.720   1.266   7.655
 1298POPC   C1B19303   3.400   0.865   8.637
 1298POPC   C2B19304   3.328   1.011   8.229
 1298POPC   C3B19305   3.352   0.889   7.820
 1298POPC   C4B19306   3.177   1.050   7.457
 1299POPC   NC319307  35.992  41.210   9.598
 1299POPC   PO419308  36.260  41.847   9.650
 1299POPC   GL119309  36.209  41.599   9.248
 1299POPC   GL219310  35.895  41.419   9.148
 1299POPC   C1A19311  36.285  41.511   8.802
 1299POPC   D2A19312  36.160  41.675   8.410
 1299POPC   C3A19313  36.321  41.570   8.066
 1299POPC   C4A19314  36.425  41.368   7.706
 1299POPC   C1B19315  35.775  41.566   8.747
 1299POPC   C2B19316  35.655  41.594   8.318
 1299POPC   C3B19317  35.832  41.477   7.937
 1299POPC   C4B19318  35.954  41.256   7.563
 1300POPC   NC319319  12.981   6.057   9.417
 1300POPC   PO419320  12.464   5.602   9.511
 1300POPC   GL119321  12.678   5.836   9.088
 1300POPC   GL219322  12.952   5.659   8.938
 1300POPC   C1A19323  12.905   6.075   8.708
 1300POPC   D2A19324  12.718   6.206   8.330
 1300POPC   C3A19325  12.874   6.162   7.944
 1300POPC   C4A19326  12.521   6.175   7.671
 1300POPC   C1B19327  13.044   5.533   8.568
 1300POPC   C2B19328  13.045   5.770   8.212
 1300POPC   C3B19329  13.284   5.821   7.814
 1300POPC   C4B19330  13.281   5.774   7.347
 1301POPC   NC319331  30.589  12.204   9.536
 1301POPC   PO419332  31.134  11.816   9.755
 1301POPC   GL119333  30.906  11.902   9.254
 1301POPC   GL219334  30.525  12.034   9.074
 1301POPC   C1A19335  30.849  11.773   8.776
 1301POPC   D2A19336  30.581  11.836   8.386
 1301POPC   C3A19337  30.845  11.907   7.999
 1301POPC   C4A19338  31.123  11.885   7.632
 1301POPC   C1B19339  30.173  12.256   8.860
 1301POPC   C2B19340  30.303  12.351   8.443
 1301POPC   C3B19341  30.171  12.282   8.031
 1301POPC   C4B19342  30.474  12.140   7.728
 1302POPC   NC319343  19.420  12.040   9.426
 1302POPC   PO419344  20.050  11.835   9.577
 1302POPC   GL119345  20.125  11.987   9.201
 1302POPC   GL219346  19.822  12.164   9.159
 1302POPC   C1A19347  20.001  11.834   8.813
 1302POPC   D2A19348  19.787  12.024   8.477
 1302POPC   C3A19349  19.840  11.802   8.113
 1302POPC   C4A19350  19.968  12.045   7.799
 1302POPC   C1B19351  19.526  12.290   8.835
 1302POPC   C2B19352  19.375  12.363   8.426
 1302POPC   C3B19353  19.591  12.290   8.052
 1302POPC   C4B19354  19.723  12.587   7.748
 1303POPC   NC319355  12.846  39.463   9.714
 1303POPC   PO419356  13.072  40.107   9.532
 1303POPC   GL119357  13.015  40.189   9.140
 1303POPC   GL219358  12.782  40.398   9.195
 1303POPC   C1A19359  13.165  40.014   8.764
 1303POPC   D2A19360  12.911  39.919   8.431
 1303POPC   C3A19361  13.089  39.948   8.030
 1303POPC   C4A19362  12.829  39.736   7.739
 1303POPC   C1B19363  12.694  40.288   8.755
 1303POPC   C2B19364  12.691  40.379   8.325
 1303POPC   C3B19365  12.646  40.178   7.940
 1303POPC   C4B19366  12.909  40.210   7.544
 1304POPC   NC319367   8.144   5.846   9.863
 1304POPC   PO419368   7.873   5.434   9.422
 1304POPC   GL119369   8.026   5.641   9.038
 1304POPC   GL219370   8.231   5.942   9.056
 1304POPC   C1A19371   8.113   5.738   8.600
 1304POPC   D2A19372   8.229   6.038   8.283
 1304POPC   C3A19373   8.188   5.793   7.956
 1304POPC   C4A19374   8.432   5.735   7.610
 1304POPC   C1B19375   8.029   6.238   8.723
 1304POPC   C2B19376   7.766   6.239   8.317
 1304POPC   C3B19377   7.728   6.008   7.909
 1304POPC   C4B19378   7.957   5.896   7.496
 1305POPC   NC319379  13.209  21.905   9.567
 1305POPC   PO419380  12.740  22.386   9.427
 1305POPC   GL119381  12.923  22.142   9.175
 1305POPC   GL219382  12.825  21.836   9.238
 1305POPC   C1A19383  12.992  22.162   8.772
 1305POPC   D2A19384  13.134  22.339   8.406
 1305POPC   C3A19385  12.846  22.362   8.039
 1305POPC   C4A19386  12.790  22.225   7.610
 1305POPC   C1B19387  12.692  21.757   8.849
 1305POPC   C2B19388  12.899  21.797   8.428
 1305POPC   C3B19389  12.751  21.828   8.000
 1305POPC   C4B19390  12.545  21.629   7.658
 1306POPC   NC319391  15.182   1.335   9.519
 1306POPC   PO419392  14.695   0.854   9.314
 1306POPC   GL119393  15.085   0.984   9.153
 1306POPC   GL219394  15.159   1.325   9.019
 1306POPC   C1A19395  15.316   0.882   8.774
 1306POPC   D2A19396  15.396   1.167   8.402
 1306POPC   C3A19397  15.261   1.157   7.959
 1306POPC   C4A19398  15.170   1.169   7.498
 1306POPC   C1B19399  14.948   1.247   8.655
 1306POPC   C2B19400  14.892   0.990   8.279
 1306POPC   C3B19401  14.749   1.151   7.876
 1306POPC   C4B19402  14.752   1.448   7.500
 1307POPC   NC319403   4.030  12.765   9.449
 1307POPC   PO419404   4.607  12.704   9.555
 1307POPC   GL119405   4.418  12.898   9.150
 1307POPC   GL219406   4.080  13.066   9.045
 1307POPC   C1A19407   4.462  12.767   8.724
 1307POPC   D2A19408   4.705  12.859   8.355
 1307POPC   C3A19409   4.417  12.986   8.070
 1307POPC   C4A19410   4.220  12.722   7.752
 1307POPC   C1B19411   4.237  13.236   8.675
 1307POPC   C2B19412   4.026  13.285   8.292
 1307POPC   C3B19413   3.972  13.165   7.881
 1307POPC   C4B19414   4.303  13.208   7.588
 1308POPC   NC319415  31.649  28.845   9.493
 1308POPC   PO419416  31.051  29.115   9.473
 1308POPC   GL119417  31.307  29.250   9.087
 1308POPC   GL219418  31.470  28.982   9.049
 1308POPC   C1A19419  31.558  29.413   8.724
 1308POPC   D2A19420  31.673  29.271   8.284
 1308POPC   C3A19421  31.340  29.254   7.961
 1308POPC   C4A19422  31.294  29.383   7.512
 1308POPC   C1B19423  31.639  28.889   8.683
 1308POPC   C2B19424  31.566  28.712   8.290
 1308POPC   C3B19425  31.474  28.791   7.878
 1308POPC   C4B19426  31.680  29.070   7.544
 1309POPC   NC319427  10.018  23.743   9.440
 1309POPC   PO419428  10.703  23.678   9.551
 1309POPC   GL119429  10.528  23.562   9.172
 1309POPC   GL219430  10.796  23.303   9.080
 1309POPC   C1A19431  10.382  23.782   8.785
 1309POPC   D2A19432  10.523  23.920   8.341
 1309POPC   C3A19433  10.405  23.760   7.937
 1309POPC   C4A19434  10.503  23.830   7.500
 1309POPC   C1B19435  10.891  23.664   8.825
 1309POPC   C2B19436  11.006  23.749   8.429
 1309POPC   C3B19437  10.956  23.990   8.059
 1309POPC   C4B19438  10.956  24.053   7.626
 1310POPC   NC319439  41.117  35.871   9.469
 1310POPC   PO419440  41.722  36.354   9.458
 1310POPC   GL119441  41.457  36.341   9.104
 1310POPC   GL219442  41.149  36.159   9.067
 1310POPC   C1A19443  41.580  36.158   8.725
 1310POPC   D2A19444  41.805  35.974   8.406
 1310POPC   C3A19445  41.723  36.212   8.089
 1310POPC   C4A19446  41.769  36.252   7.717
 1310POPC   C1B19447  41.103  35.943   8.693
 1310POPC   C2B19448  41.291  36.035   8.296
 1310POPC   C3B19449  41.358  35.940   7.862
 1310POPC   C4B19450  41.126  35.703   7.539
 1311POPC   NC319451  23.084  11.227   9.392
 1311POPC   PO419452  22.766  11.669   9.741
 1311POPC   GL119453  22.648  11.576   9.233
 1311POPC   GL219454  22.663  11.221   9.087
 1311POPC   C1A19455  22.750  11.564   8.740
 1311POPC   D2A19456  22.992  11.376   8.403
 1311POPC   C3A19457  23.004  11.603   8.027
 1311POPC   C4A19458  23.199  11.473   7.646
 1311POPC   C1B19459  22.627  10.884   8.750
 1311POPC   C2B19460  22.669  10.995   8.312
 1311POPC   C3B19461  22.828  11.131   7.916
 1311POPC   C4B19462  22.632  10.918   7.586
 1312POPC   NC319463  23.062  30.887   9.499
 1312POPC   PO419464  22.595  30.332   9.597
 1312POPC   GL119465  22.826  30.497   9.219
 1312POPC   GL219466  23.126  30.326   9.199
 1312POPC   C1A19467  22.962  30.694   8.812
 1312POPC   D2A19468  22.908  30.607   8.368
 1312POPC   C3A19469  23.109  30.809   7.992
 1312POPC   C4A19470  22.783  30.987   7.737
 1312POPC   C1B19471  22.954  30.172   8.781
 1312POPC   C2B19472  23.061  30.080   8.342
 1312POPC   C3B19473  22.960  30.321   7.945
 1312POPC   C4B19474  23.101  30.489   7.516
 1313POPC   NC319475  25.446  30.262   9.402
 1313POPC   PO419476  25.177  30.798   9.665
 1313POPC   GL119477  25.098  30.666   9.249
 1313POPC   GL219478  24.986  30.985   9.143
 1313POPC   C1A19479  25.282  30.602   8.839
 1313POPC   D2A19480  25.494  30.527   8.454
 1313POPC   C3A19481  25.264  30.534   8.079
 1313POPC   C4A19482  25.353  30.585   7.677
 1313POPC   C1B19483  24.820  30.816   8.763
 1313POPC   C2B19484  25.077  30.874   8.403
 1313POPC   C3B19485  25.310  31.025   8.017
 1313POPC   C4B19486  25.079  31.011   7.643
 1314POPC   NC319487  28.300  35.698   9.533
 1314POPC   PO419488  28.707  35.151   9.503
 1314POPC   GL119489  28.622  35.479   9.189
 1314POPC   GL219490  28.267  35.539   9.062
 1314POPC   C1A19491  28.751  35.546   8.774
 1314POPC   D2A19492  28.729  35.271   8.445
 1314POPC   C3A19493  28.530  35.397   8.060
 1314POPC   C4A19494  28.628  35.184   7.688
 1314POPC   C1B19495  28.228  35.416   8.635
 1314POPC   C2B19496  28.087  35.649   8.284
 1314POPC   C3B19497  28.041  35.630   7.847
 1314POPC   C4B19498  28.087  35.461   7.445
 1315POPC   NC319499  18.735  10.477   9.397
 1315POPC   PO419500  18.156  10.287   9.575
 1315POPC   GL119501  18.001  10.367   9.168
 1315POPC   GL219502  18.277  10.575   9.101
 1315POPC   C1A19503  17.872  10.537   8.769
 1315POPC   D2A19504  18.060  10.717   8.392
 1315POPC   C3A19505  18.005  10.463   8.031
 1315POPC   C4A19506  17.940  10.568   7.592
 1315POPC   C1B19507  18.398  10.419   8.701
 1315POPC   C2B19508  18.524  10.312   8.287
 1315POPC   C3B19509  18.484  10.463   7.874
 1315POPC   C4B19510  18.389  10.333   7.500
 1316POPC   NC319511   9.005   7.073   9.468
 1316POPC   PO419512   9.246   7.686   9.501
 1316POPC   GL119513   9.164   7.645   9.063
 1316POPC   GL219514   8.979   7.338   8.982
 1316POPC   C1A19515   9.261   7.590   8.618
 1316POPC   D2A19516   9.048   7.285   8.356
 1316POPC   C3A19517   8.967   7.487   7.996
 1316POPC   C4A19518   9.239   7.795   7.762
 1316POPC   C1B19519   8.708   7.102   8.673
 1316POPC   C2B19520   8.734   6.819   8.316
 1316POPC   C3B19521   8.812   6.922   7.891
 1316POPC   C4B19522   9.187   7.046   7.847
 1317POPC   NC319523  29.762   7.001   9.471
 1317POPC   PO419524  29.718   7.626   9.686
 1317POPC   GL119525  29.752   7.506   9.252
 1317POPC   GL219526  30.085   7.321   9.211
 1317POPC   C1A19527  29.715   7.287   8.855
 1317POPC   D2A19528  29.721   7.411   8.444
 1317POPC   C3A19529  29.782   7.058   8.174
 1317POPC   C4A19530  30.054   7.111   7.822
 1317POPC   C1B19531  30.241   7.394   8.774
 1317POPC   C2B19532  30.231   7.296   8.332
 1317POPC   C3B19533  30.071   7.576   8.033
 1317POPC   C4B19534  30.002   7.577   7.595
 1318POPC   NC319535  21.596  36.528   9.571
 1318POPC   PO419536  21.265  36.004   9.753
 1318POPC   GL119537  21.349  36.051   9.275
 1318POPC   GL219538  21.654  35.867   9.200
 1318POPC   C1A19539  21.310  36.042   8.787
 1318POPC   D2A19540  21.085  35.995   8.334
 1318POPC   C3A19541  21.149  36.117   7.848
 1318POPC   C4A19542  21.212  36.493   7.552
 1318POPC   C1B19543  21.759  35.686   8.785
 1318POPC   C2B19544  21.587  35.842   8.389
 1318POPC   C3B19545  21.563  36.219   8.154
 1318POPC   C4B19546  21.708  36.087   7.785
 1319POPC   NC319547  23.283  21.307   9.565
 1319POPC   PO419548  22.790  21.662   9.689
 1319POPC   GL119549  22.872  21.590   9.222
 1319POPC   GL219550  23.038  21.265   9.096
 1319POPC   C1A19551  23.041  21.705   8.793
 1319POPC   D2A19552  23.064  21.445   8.443
 1319POPC   C3A19553  23.125  21.490   8.008
 1319POPC   C4A19554  23.025  21.410   7.589
 1319POPC   C1B19555  23.150  21.022   8.718
 1319POPC   C2B19556  23.192  20.989   8.259
 1319POPC   C3B19557  22.951  21.004   7.909
 1319POPC   C4B19558  22.933  20.927   7.447
 1320POPC   NC319559  43.454  26.996   9.491
 1320POPC   PO419560  44.119  26.979   9.358
 1320POPC   GL119561  43.921  26.658   9.126
 1320POPC   GL219562  43.616  26.496   9.233
 1320POPC   C1A19563  43.965  26.696   8.704
 1320POPC   D2A19564  43.947  26.999   8.397
 1320POPC   C3A19565  44.037  26.826   7.993
 1320POPC   C4A19566  44.058  27.070   7.602
 1320POPC   C1B19567  43.450  26.643   8.846
 1320POPC   C2B19568  43.556  26.632   8.421
 1320POPC   C3B19569  43.436  26.744   8.039
 1320POPC   C4B19570  43.657  26.757   7.661
 1321POPC   NC319571  31.143   9.011   9.594
 1321POPC   PO419572  31.818   8.841   9.471
 1321POPC   GL119573  31.473   8.950   9.219
 1321POPC   GL219574  31.224   8.739   9.073
 1321POPC   C1A19575  31.434   9.180   8.859
 1321POPC   D2A19576  31.545   9.047   8.455
 1321POPC   C3A19577  31.423   9.273   8.108
 1321POPC   C4A19578  31.303   9.187   7.725
 1321POPC   C1B19579  31.605   8.649   8.803
 1321POPC   C2B19580  31.593   8.530   8.371
 1321POPC   C3B19581  31.406   8.762   8.036
 1321POPC   C4B19582  31.466   8.723   7.619
 1322POPC   NC319583  14.752  31.944   9.606
 1322POPC   PO419584  15.358  32.208   9.845
 1322POPC   GL119585  15.287  32.148   9.355
 1322POPC   GL219586  15.042  32.349   9.201
 1322POPC   C1A19587  15.393  32.012   8.920
 1322POPC   D2A19588  15.234  31.937   8.505
 1322POPC   C3A19589  15.446  32.135   8.170
 1322POPC   C4A19590  15.511  32.028   7.779
 1322POPC   C1B19591  14.938  32.233   8.809
 1322POPC   C2B19592  15.085  32.411   8.424
 1322POPC   C3B19593  14.977  32.271   8.033
 1322POPC   C4B19594  14.942  32.447   7.674
 1323POPC   NC319595  22.191  42.015   9.542
 1323POPC   PO419596  22.082  42.581   9.834
 1323POPC   GL119597  22.289  42.435   9.310
 1323POPC   GL219598  22.050  42.256   9.108
 1323POPC   C1A19599  22.426  42.469   8.855
 1323POPC   D2A19600  22.438  42.276   8.444
 1323POPC   C3A19601  22.506  42.480   8.066
 1323POPC   C4A19602  22.321  42.612   7.675
 1323POPC   C1B19603  22.024  42.092   8.699
 1323POPC   C2B19604  21.940  42.053   8.259
 1323POPC   C3B19605  22.098  42.204   7.860
 1323POPC   C4B19606  22.165  42.170   7.370
 1324POPC   NC319607  40.212   2.520   9.517
 1324POPC   PO419608  39.610   2.882   9.631
 1324POPC   GL119609  39.845   2.793   9.251
 1324POPC   GL219610  40.142   2.990   9.239
 1324POPC   C1A19611  39.935   2.620   8.849
 1324POPC   D2A19612  39.771   2.745   8.450
 1324POPC   C3A19613  40.006   2.871   8.108
 1324POPC   C4A19614  39.866   2.727   7.726
 1324POPC   C1B19615  40.383   2.910   8.857
 1324POPC   C2B19616  40.318   2.671   8.494
 1324POPC   C3B19617  40.457   2.627   8.104
 1324POPC   C4B19618  40.364   2.775   7.717
 1325POPC   NC319619  18.652  17.304   9.266
 1325POPC   PO419620  18.032  17.595   9.478
 1325POPC   GL119621  18.219  17.517   9.152
 1325POPC   GL219622  18.481  17.747   9.062
 1325POPC   C1A19623  18.122  17.483   8.766
 1325POPC   D2A19624  17.993  17.348   8.413
 1325POPC   C3A19625  17.920  17.682   8.113
 1325POPC   C4A19626  18.076  17.495   7.749
 1325POPC   C1B19627  18.604  17.581   8.674
 1325POPC   C2B19628  18.419  17.622   8.293
 1325POPC   C3B19629  18.613  17.805   7.966
 1325POPC   C4B19630  18.576  17.650   7.621
 1326POPC   NC319631   4.683  29.059   9.628
 1326POPC   PO419632   4.290  28.689   9.216
 1326POPC   GL119633   4.325  29.054   9.010
 1326POPC   GL219634   4.253  29.355   9.203
 1326POPC   C1A19635   4.419  29.275   8.660
 1326POPC   D2A19636   4.310  29.253   8.261
 1326POPC   C3A19637   4.262  28.841   8.082
 1326POPC   C4A19638   4.201  28.695   7.658
 1326POPC   C1B19639   3.968  29.448   8.839
 1326POPC   C2B19640   3.998  29.639   8.431
 1326POPC   C3B19641   3.948  29.516   8.023
 1326POPC   C4B19642   4.172  29.225   7.769
 1327POPC   NC319643  40.783   0.641   9.213
 1327POPC   PO419644  41.136   0.278   9.674
 1327POPC   GL119645  41.011   0.173   9.206
 1327POPC   GL219646  40.681   0.179   8.998
 1327POPC   C1A19647  41.138   0.168   8.773
 1327POPC   D2A19648  41.090   0.073   8.342
 1327POPC   C3A19649  40.929   0.446   8.125
 1327POPC   C4A19650  41.073   0.503   7.739
 1327POPC   C1B19651  40.775   0.491   8.607
 1327POPC   C2B19652  40.782   0.905   8.341
 1327POPC   C3B19653  40.610   0.867   7.913
 1327POPC   C4B19654  40.528   0.455   7.757
 1328POPC   NC319655  19.527  25.463   9.509
 1328POPC   PO419656  20.213  25.184   9.530
 1328POPC   GL119657  19.935  25.320   9.205
 1328POPC   GL219658  19.673  25.092   9.102
 1328POPC   C1A19659  19.967  25.375   8.776
 1328POPC   D2A19660  19.780  25.198   8.426
 1328POPC   C3A19661  19.866  25.436   8.078
 1328POPC   C4A19662  20.108  25.438   7.716
 1328POPC   C1B19663  19.386  25.139   8.761
 1328POPC   C2B19664  19.135  25.243   8.427
 1328POPC   C3B19665  19.386  25.206   8.091
 1328POPC   C4B19666  19.662  25.120   7.728
 1329POPC   NC319667  14.336   7.387   9.505
 1329POPC   PO419668  14.818   7.926   9.390
 1329POPC   GL119669  14.542   7.642   9.106
 1329POPC   GL219670  14.617   7.250   9.076
 1329POPC   C1A19671  14.447   7.518   8.672
 1329POPC   D2A19672  14.753   7.602   8.371
 1329POPC   C3A19673  14.603   7.892   8.089
 1329POPC   C4A19674  14.531   7.593   7.806
 1329POPC   C1B19675  14.152   7.177   8.932
 1329POPC   C2B19676  14.005   7.149   8.527
 1329POPC   C3B19677  14.229   7.342   8.186
 1329POPC   C4B19678  14.220   7.201   7.768
 1330POPC   NC319679  26.602  23.071   9.659
 1330POPC   PO419680  27.073  22.630   9.527
 1330POPC   GL119681  26.839  22.841   9.195
 1330POPC   GL219682  26.519  23.031   9.164
 1330POPC   C1A19683  26.812  23.012   8.767
 1330POPC   D2A19684  26.826  23.246   8.413
 1330POPC   C3A19685  26.765  23.090   8.011
 1330POPC   C4A19686  26.816  23.296   7.626
 1330POPC   C1B19687  26.464  22.659   8.885
 1330POPC   C2B19688  26.451  22.809   8.459
 1330POPC   C3B19689  26.356  22.729   8.038
 1330POPC   C4B19690  26.481  22.498   7.644
 1331POPC   NC319691  13.167  29.464   9.470
 1331POPC   PO419692  13.722  29.209   9.196
 1331POPC   GL119693  13.681  28.894   8.947
 1331POPC   GL219694  14.017  28.882   8.905
 1331POPC   C1A19695  13.510  28.890   8.575
 1331POPC   D2A19696  13.337  29.176   8.325
 1331POPC   C3A19697  13.385  29.096   7.913
 1331POPC   C4A19698  13.183  29.233   7.551
 1331POPC   C1B19699  13.965  29.124   8.536
 1331POPC   C2B19700  13.824  28.961   8.174
 1331POPC   C3B19701  13.894  28.912   7.770
 1331POPC   C4B19702  13.968  28.906   7.304
 1332POPC   NC319703  31.096  23.148   9.509
 1332POPC   PO419704  30.617  22.763   9.891
 1332POPC   GL119705  30.622  22.745   9.358
 1332POPC   GL219706  30.926  22.638   9.212
 1332POPC   C1A19707  30.563  22.661   8.841
 1332POPC   D2A19708  30.736  22.751   8.386
 1332POPC   C3A19709  30.461  22.807   7.996
 1332POPC   C4A19710  30.436  22.755   7.559
 1332POPC   C1B19711  31.023  22.906   8.835
 1332POPC   C2B19712  31.159  23.075   8.408
 1332POPC   C3B19713  31.046  23.164   7.997
 1332POPC   C4B19714  30.872  23.004   7.630
 1333POPC   NC319715   8.411  11.875   9.424
 1333POPC   PO419716   7.827  12.330   9.443
 1333POPC   GL119717   8.067  12.103   9.123
 1333POPC   GL219718   8.400  12.257   9.092
 1333POPC   C1A19719   8.238  11.827   8.773
 1333POPC   D2A19720   8.457  11.779   8.357
 1333POPC   C3A19721   8.162  11.853   8.042
 1333POPC   C4A19722   8.179  11.988   7.620
 1333POPC   C1B19723   8.180  12.351   8.693
 1333POPC   C2B19724   8.290  12.297   8.261
 1333POPC   C3B19725   8.418  12.376   7.846
 1333POPC   C4B19726   8.417  12.383   7.400
 1334POPC   NC319727  20.342  44.939   9.408
 1334POPC   PO419728  20.602   0.534   9.540
 1334POPC   GL119729  20.878   0.290   9.235
 1334POPC   GL219730  20.620   0.221   9.091
 1334POPC   C1A19731  21.047   0.380   8.799
 1334POPC   D2A19732  20.877   0.585   8.408
 1334POPC   C3A19733  21.011   0.583   7.992
 1334POPC   C4A19734  20.917   0.482   7.557
 1334POPC   C1B19735  20.546   0.520   8.809
 1334POPC   C2B19736  20.423   0.343   8.424
 1334POPC   C3B19737  20.521   0.421   8.012
 1334POPC   C4B19738  20.458   0.144   7.681
 1335POPC   NC319739  36.542  36.894   9.517
 1335POPC   PO419740  35.921  36.695   9.592
 1335POPC   GL119741  36.112  36.821   9.163
 1335POPC   GL219742  36.299  37.122   9.146
 1335POPC   C1A19743  36.276  36.840   8.703
 1335POPC   D2A19744  36.141  36.812   8.256
 1335POPC   C3A19745  36.390  36.848   7.869
 1335POPC   C4A19746  36.499  36.556   7.506
 1335POPC   C1B19747  36.303  37.354   8.803
 1335POPC   C2B19748  36.246  37.291   8.400
 1335POPC   C3B19749  36.015  37.270   8.041
 1335POPC   C4B19750  35.991  37.150   7.639
 1336POPC   NC319751  42.958   9.827   9.586
 1336POPC   PO419752  42.779   9.146   9.504
 1336POPC   GL119753  42.923   9.230   9.121
 1336POPC   GL219754  43.086   9.554   9.161
 1336POPC   C1A19755  42.834   9.429   8.736
 1336POPC   D2A19756  42.849   9.655   8.343
 1336POPC   C3A19757  43.169   9.599   8.052
 1336POPC   C4A19758  43.056   9.440   7.657
 1336POPC   C1B19759  43.242   9.731   8.779
 1336POPC   C2B19760  43.114  10.041   8.509
 1336POPC   C3B19761  43.120  10.180   8.100
 1336POPC   C4B19762  43.201   9.988   7.730
 1337POPC   NC319763  33.814  13.196   9.580
 1337POPC   PO419764  33.763  12.557   9.540
 1337POPC   GL119765  33.860  12.760   9.169
 1337POPC   GL219766  34.015  12.437   9.095
 1337POPC   C1A19767  33.540  12.868   8.839
 1337POPC   D2A19768  33.326  12.764   8.420
 1337POPC   C3A19769  33.560  12.947   8.082
 1337POPC   C4A19770  34.018  13.002   8.031
 1337POPC   C1B19771  33.781  12.439   8.752
 1337POPC   C2B19772  33.852  12.678   8.395
 1337POPC   C3B19773  33.827  12.513   7.963
 1337POPC   C4B19774  33.665  12.520   7.552
 1338POPC   NC319775  29.314  20.732   9.868
 1338POPC   PO419776  29.238  20.426   9.299
 1338POPC   GL119777  29.032  20.630   9.076
 1338POPC   GL219778  28.825  20.376   9.015
 1338POPC   C1A19779  29.047  20.769   8.703
 1338POPC   D2A19780  29.272  20.764   8.366
 1338POPC   C3A19781  29.041  20.820   7.991
 1338POPC   C4A19782  29.266  20.950   7.656
 1338POPC   C1B19783  28.810  20.283   8.654
 1338POPC   C2B19784  28.852  20.454   8.303
 1338POPC   C3B19785  28.629  20.302   8.001
 1338POPC   C4B19786  28.646  20.396   7.609
 1339POPC   NC319787  35.905   9.172   9.400
 1339POPC   PO419788  36.432   8.934   9.552
 1339POPC   GL119789  36.221   8.835   9.145
 1339POPC   GL219790  36.278   9.179   9.061
 1339POPC   C1A19791  36.030   8.861   8.716
 1339POPC   D2A19792  36.159   8.614   8.322
 1339POPC   C3A19793  36.107   8.649   7.874
 1339POPC   C4A19794  36.387   8.807   7.575
 1339POPC   C1B19795  36.481   9.215   8.693
 1339POPC   C2B19796  36.294   9.115   8.344
 1339POPC   C3B19797  36.193   9.143   7.927
 1339POPC   C4B19798  35.846   9.226   7.740
 1340POPC   NC319799  31.272  33.871   9.342
 1340POPC   PO419800  31.474  33.428   9.888
 1340POPC   GL119801  31.607  33.485   9.302
 1340POPC   GL219802  31.264  33.488   8.998
 1340POPC   C1A19803  31.704  33.654   8.845
 1340POPC   D2A19804  31.445  33.470   8.472
 1340POPC   C3A19805  31.536  33.616   8.064
 1340POPC   C4A19806  31.804  33.982   7.970
 1340POPC   C1B19807  31.185  33.852   8.679
 1340POPC   C2B19808  31.115  34.025   8.284
 1340POPC   C3B19809  31.115  33.871   7.891
 1340POPC   C4B19810  31.050  33.729   7.483
 1341POPC   NC319811  41.557  12.241   9.658
 1341POPC   PO419812  41.619  12.935   9.593
 1341POPC   GL119813  41.626  12.798   9.184
 1341POPC   GL219814  41.350  12.974   8.992
 1341POPC   C1A19815  41.854  12.780   8.812
 1341POPC   D2A19816  41.766  13.008   8.471
 1341POPC   C3A19817  41.730  12.853   8.078
 1341POPC   C4A19818  41.625  12.740   7.623
 1341POPC   C1B19819  41.328  13.245   8.620
 1341POPC   C2B19820  41.417  13.284   8.176
 1341POPC   C3B19821  41.257  13.090   7.796
 1341POPC   C4B19822  41.143  12.792   7.448
 1342POPC   NC319823  19.522  27.931   9.624
 1342POPC   PO419824  19.801  27.344   9.543
 1342POPC   GL119825  19.690  27.632   9.227
 1342POPC   GL219826  19.982  27.780   9.112
 1342POPC   C1A19827  19.605  27.718   8.787
 1342POPC   D2A19828  19.765  27.846   8.406
 1342POPC   C3A19829  19.731  27.586   8.051
 1342POPC   C4A19830  19.605  27.835   7.712
 1342POPC   C1B19831  20.097  27.542   8.731
 1342POPC   C2B19832  20.220  27.637   8.302
 1342POPC   C3B19833  20.114  27.888   7.962
 1342POPC   C4B19834  20.079  27.642   7.653
 1343POPC   NC319835  18.432  40.646   9.847
 1343POPC   PO419836  18.015  41.124   9.490
 1343POPC   GL119837  18.266  40.815   9.268
 1343POPC   GL219838  18.162  40.479   9.245
 1343POPC   C1A19839  18.465  40.835   8.865
 1343POPC   D2A19840  18.334  41.007   8.503
 1343POPC   C3A19841  18.483  40.911   8.107
 1343POPC   C4A19842  18.336  41.016   7.711
 1343POPC   C1B19843  18.014  40.582   8.802
 1343POPC   C2B19844  18.025  40.512   8.338
 1343POPC   C3B19845  18.124  40.577   7.893
 1343POPC   C4B19846  18.034  40.434   7.468
 1344POPC   NC319847   0.829  42.530   9.463
 1344POPC   PO419848   0.145  42.501   9.406
 1344POPC   GL119849   0.436  42.394   9.100
 1344POPC   GL219850   0.759  42.193   9.097
 1344POPC   C1A19851   0.435  42.161   8.731
 1344POPC   D2A19852   0.228  41.997   8.448
 1344POPC   C3A19853   0.308  42.276   8.135
 1344POPC   C4A19854   0.367  42.194   7.722
 1344POPC   C1B19855   0.790  42.567   8.783
 1344POPC   C2B19856   0.760  42.419   8.365
 1344POPC   C3B19857   0.808  42.260   7.949
 1344POPC   C4B19858   0.769  42.345   7.481
 1345POPC   NC319859  18.508  37.305   9.825
 1345POPC   PO419860  18.132  36.871   9.461
 1345POPC   GL119861  18.219  37.039   9.028
 1345POPC   GL219862  18.195  37.415   8.935
 1345POPC   C1A19863  18.430  36.884   8.698
 1345POPC   D2A19864  18.294  36.570   8.424
 1345POPC   C3A19865  18.271  36.676   8.014
 1345POPC   C4A19866  18.209  36.819   7.617
 1345POPC   C1B19867  18.550  37.409   8.618
 1345POPC   C2B19868  18.529  37.126   8.259
 1345POPC   C3B19869  18.259  37.225   7.939
 1345POPC   C4B19870  18.321  37.300   7.485
 1346POPC   NC319871   5.694  38.160   9.441
 1346POPC   PO419872   6.208  38.503   9.814
 1346POPC   GL119873   6.067  38.521   9.320
 1346POPC   GL219874   6.147  38.300   9.122
 1346POPC   C1A19875   5.837  38.677   8.916
 1346POPC   D2A19876   5.828  38.563   8.472
 1346POPC   C3A19877   5.621  38.709   8.132
 1346POPC   C4A19878   5.629  38.590   7.723
 1346POPC   C1B19879   5.813  38.171   8.794
 1346POPC   C2B19880   5.644  38.056   8.392
 1346POPC   C3B19881   5.789  38.125   7.964
 1346POPC   C4B19882   5.543  38.112   7.549
 1347POPC   NC319883   2.435  17.515   9.361
 1347POPC   PO419884   2.920  17.254   9.745
 1347POPC   GL119885   2.905  17.305   9.253
 1347POPC   GL219886   2.866  17.676   9.132
 1347POPC   C1A19887   2.954  17.360   8.765
 1347POPC   D2A19888   3.001  17.228   8.340
 1347POPC   C3A19889   2.719  17.472   8.098
 1347POPC   C4A19890   2.816  17.654   7.717
 1347POPC   C1B19891   2.595  17.810   8.782
 1347POPC   C2B19892   2.422  17.811   8.367
 1347POPC   C3B19893   2.212  17.767   7.960
 1347POPC   C4B19894   2.280  17.714   7.503
 1348POPC   NC319895  38.306  44.538   9.714
 1348POPC   PO419896  38.699   0.128   9.553
 1348POPC   GL119897  38.499   0.003   9.161
 1348POPC   GL219898  38.385  44.637   9.195
 1348POPC   C1A19899  38.552  44.965   8.715
 1348POPC   D2A19900  38.420  44.617   8.493
 1348POPC   C3A19901  38.333  44.648   8.095
 1348POPC   C4A19902  38.345  44.427   7.730
 1348POPC   C1B19903  38.682  44.411   8.895
 1348POPC   C2B19904  38.727  44.208   8.477
 1348POPC   C3B19905  38.747  44.339   8.047
 1348POPC   C4B19906  38.854  44.286   7.617
 1349POPC   NC319907   5.497  36.049   9.412
 1349POPC   PO419908   4.907  36.237   9.605
 1349POPC   GL119909   5.087  36.380   9.250
 1349POPC   GL219910   5.010  36.046   9.077
 1349POPC   C1A19911   5.264  36.434   8.844
 1349POPC   D2A19912   5.130  36.149   8.521
 1349POPC   C3A19913   5.274  36.267   8.111
 1349POPC   C4A19914   5.282  36.378   7.660
 1349POPC   C1B19915   4.652  36.017   8.760
 1349POPC   C2B19916   4.651  36.146   8.321
 1349POPC   C3B19917   4.775  36.302   7.930
 1349POPC   C4B19918   5.015  35.967   7.773
 1350POPC   NC319919  18.516  30.768   9.531
 1350POPC   PO419920  18.114  31.316   9.758
 1350POPC   GL119921  17.967  31.027   9.273
 1350POPC   GL219922  18.163  30.714   9.140
 1350POPC   C1A19923  17.889  30.838   8.741
 1350POPC   D2A19924  18.132  31.004   8.337
 1350POPC   C3A19925  18.160  30.811   7.909
 1350POPC   C4A19926  18.116  30.410   7.725
 1350POPC   C1B19927  18.373  30.607   8.712
 1350POPC   C2B19928  18.543  30.695   8.273
 1350POPC   C3B19929  18.594  30.534   7.838
 1350POPC   C4B19930  18.911  30.637   7.518
 1351POPC   NC319931  40.735  30.774   9.658
 1351POPC   PO419932  40.688  30.026   9.543
 1351POPC   GL119933  40.704  30.427   9.267
 1351POPC   GL219934  41.016  30.650   9.230
 1351POPC   C1A19935  40.626  30.647   8.859
 1351POPC   D2A19936  40.559  30.941   8.518
 1351POPC   C3A19937  40.643  30.749   8.137
 1351POPC   C4A19938  40.770  30.419   7.864
 1351POPC   C1B19939  41.130  30.692   8.787
 1351POPC   C2B19940  41.058  30.914   8.390
 1351POPC   C3B19941  40.998  31.108   7.937
 1351POPC   C4B19942  41.005  30.991   7.436
 1352POPC   NC319943   6.362   6.693   9.379
 1352POPC   PO419944   5.759   6.305   9.510
 1352POPC   GL119945   5.930   6.490   9.151
 1352POPC   GL219946   5.649   6.673   9.065
 1352POPC   C1A19947   6.125   6.708   8.787
 1352POPC   D2A19948   6.376   6.598   8.453
 1352POPC   C3A19949   6.137   6.558   8.064
 1352POPC   C4A19950   6.063   6.919   7.788
 1352POPC   C1B19951   5.688   6.465   8.665
 1352POPC   C2B19952   5.690   6.713   8.277
 1352POPC   C3B19953   5.646   6.609   7.838
 1352POPC   C4B19954   5.645   6.275   7.514
 1353POPC   NC319955   8.234  28.676   9.654
 1353POPC   PO419956   8.399  29.278   9.543
 1353POPC   GL119957   8.239  29.011   9.262
 1353POPC   GL219958   8.561  28.844   9.244
 1353POPC   C1A19959   8.104  29.117   8.864
 1353POPC   D2A19960   8.141  28.910   8.501
 1353POPC   C3A19961   8.259  29.101   8.148
 1353POPC   C4A19962   8.087  29.073   7.773
 1353POPC   C1B19963   8.603  29.170   8.903
 1353POPC   C2B19964   8.702  29.067   8.473
 1353POPC   C3B19965   8.770  29.119   8.031
 1353POPC   C4B19966   8.549  29.293   7.697
 1354POPC   NC319967  33.305  30.006   9.282
 1354POPC   PO419968  33.903  30.191   9.537
 1354POPC   GL119969  33.801  29.973   9.151
 1354POPC   GL219970  33.722  30.268   8.977
 1354POPC   C1A19971  33.996  29.852   8.769
 1354POPC   D2A19972  33.984  30.128   8.424
 1354POPC   C3A19973  33.911  29.877   8.076
 1354POPC   C4A19974  34.050  29.703   7.709
 1354POPC   C1B19975  33.633  30.512   8.596
 1354POPC   C2B19976  33.323  30.469   8.275
 1354POPC   C3B19977  33.446  30.129   8.002
 1354POPC   C4B19978  33.770  30.167   7.658
 1355POPC   NC319979  27.362  39.533   9.534
 1355POPC   PO419980  27.671  40.163   9.615
 1355POPC   GL119981  27.692  40.085   9.231
 1355POPC   GL219982  27.750  39.757   9.247
 1355POPC   C1A19983  27.447  40.149   8.884
 1355POPC   D2A19984  27.402  39.950   8.492
 1355POPC   C3A19985  27.710  40.119   8.174
 1355POPC   C4A19986  27.512  40.163   7.765
 1355POPC   C1B19987  27.588  39.612   8.877
 1355POPC   C2B19988  27.736  39.577   8.473
 1355POPC   C3B19989  27.537  39.670   8.069
 1355POPC   C4B19990  27.672  39.667   7.671
 1356POPC   NC319991  31.608  35.740   9.439
 1356POPC   PO419992  31.271  35.121   9.439
 1356POPC   GL119993  31.214  35.219   9.020
 1356POPC   GL219994  31.252  35.599   9.069
 1356POPC   C1A19995  31.469  35.050   8.674
 1356POPC   D2A19996  31.416  34.979   8.210
 1356POPC   C3A19997  31.703  35.160   7.903
 1356POPC   C4A19998  31.686  35.106   7.417
 1356POPC   C1B19999  30.985  35.549   8.696
 1356POPC   C2B20000  30.953  35.457   8.262
 1356POPC   C3B20001  31.288  35.449   7.996
 1356POPC   C4B20002  31.381  35.583   7.606
 1357POPC   NC320003  11.871   9.755   9.536
 1357POPC   PO420004  12.487   9.744   9.710
 1357POPC   GL120005  12.273   9.668   9.218
 1357POPC   GL220006  11.983   9.890   9.083
 1357POPC   C1A20007  12.105   9.566   8.733
 1357POPC   D2A20008  11.880   9.614   8.288
 1357POPC   C3A20009  12.027   9.643   7.827
 1357POPC   C4A20010  12.437   9.589   7.639
 1357POPC   C1B20011  11.914  10.059   8.728
 1357POPC   C2B20012  12.072  10.092   8.349
 1357POPC   C3B20013  11.926  10.126   7.944
 1357POPC   C4B20014  11.739   9.998   7.565
 1358POPC   NC320015  13.122  12.775   9.532
 1358POPC   PO420016  12.667  13.347   9.426
 1358POPC   GL120017  12.947  13.075   9.123
 1358POPC   GL220018  13.038  12.688   9.058
 1358POPC   C1A20019  13.108  13.040   8.700
 1358POPC   D2A20020  13.048  13.268   8.337
 1358POPC   C3A20021  12.917  13.112   7.986
 1358POPC   C4A20022  13.046  13.078   7.578
 1358POPC   C1B20023  12.759  12.663   8.724
 1358POPC   C2B20024  12.806  12.702   8.296
 1358POPC   C3B20025  12.684  12.645   7.911
 1358POPC   C4B20026  12.866  12.635   7.507
 1359POPC   NC320027  19.411  15.278   9.493
 1359POPC   PO420028  20.052  14.949   9.495
 1359POPC   GL120029  19.864  15.155   9.193
 1359POPC   GL220030  19.589  14.947   9.130
 1359POPC   C1A20031  19.834  15.391   8.827
 1359POPC   D2A20032  19.615  15.463   8.429
 1359POPC   C3A20033  19.793  15.321   8.033
 1359POPC   C4A20034  20.017  15.012   7.815
 1359POPC   C1B20035  19.503  15.029   8.724
 1359POPC   C2B20036  19.461  14.742   8.407
 1359POPC   C3B20037  19.279  14.819   8.015
 1359POPC   C4B20038  19.336  15.236   7.824
 1360POPC   NC320039  15.192  27.971   9.647
 1360POPC   PO420040  15.169  28.567   9.668
 1360POPC   GL120041  15.130  28.319   9.273
 1360POPC   GL220042  14.814  28.319   9.192
 1360POPC   C1A20043  15.286  28.135   8.864
 1360POPC   D2A20044  15.388  28.382   8.478
 1360POPC   C3A20045  15.319  28.223   8.035
 1360POPC   C4A20046  15.418  28.082   7.576
 1360POPC   C1B20047  14.938  28.521   8.799
 1360POPC   C2B20048  14.765  28.638   8.400
 1360POPC   C3B20049  14.876  28.520   8.020
 1360POPC   C4B20050  14.942  28.226   7.716
 1361POPC   NC320051  18.948   8.648   9.820
 1361POPC   PO420052  18.988   8.052   9.464
 1361POPC   GL120053  19.373   8.102   9.165
 1361POPC   GL220054  19.063   8.098   8.956
 1361POPC   C1A20055  19.497   7.990   8.731
 1361POPC   D2A20056  19.121   8.015   8.452
 1361POPC   C3A20057  19.131   8.196   8.058
 1361POPC   C4A20058  18.829   8.158   7.787
 1361POPC   C1B20059  18.847   8.391   8.687
 1361POPC   C2B20060  18.706   8.422   8.286
 1361POPC   C3B20061  18.788   8.703   8.000
 1361POPC   C4B20062  18.844   8.606   7.568
 1362POPC   NC320063  42.131  23.169   9.387
 1362POPC   PO420064  42.408  22.725   9.708
 1362POPC   GL120065  42.455  22.838   9.187
 1362POPC   GL220066  42.149  22.928   8.939
 1362POPC   C1A20067  42.591  22.892   8.757
 1362POPC   D2A20068  42.461  23.143   8.404
 1362POPC   C3A20069  42.393  22.886   8.045
 1362POPC   C4A20070  41.998  22.838   7.860
 1362POPC   C1B20071  42.046  23.299   8.696
 1362POPC   C2B20072  41.929  23.349   8.285
 1362POPC   C3B20073  42.184  23.342   7.924
 1362POPC   C4B20074  42.352  23.104   7.565
 1363POPC   NC320075  35.720   2.859   9.530
 1363POPC   PO420076  35.324   2.301   9.484
 1363POPC   GL120077  35.363   2.628   9.201
 1363POPC   GL220078  35.674   2.695   9.065
 1363POPC   C1A20079  35.273   2.877   8.840
 1363POPC   D2A20080  35.314   3.245   8.594
 1363POPC   C3A20081  35.409   3.057   8.224
 1363POPC   C4A20082  35.323   2.863   7.835
 1363POPC   C1B20083  35.745   2.853   8.656
 1363POPC   C2B20084  35.902   2.831   8.260
 1363POPC   C3B20085  35.847   2.877   7.844
 1363POPC   C4B20086  35.647   2.835   7.435
 1364POPC   NC320087  42.627   8.663   9.509
 1364POPC   PO420088  42.044   9.018   9.647
 1364POPC   GL120089  42.295   8.970   9.249
 1364POPC   GL220090  42.012   9.175   9.146
 1364POPC   C1A20091  42.420   9.127   8.800
 1364POPC   D2A20092  42.633   9.185   8.347
 1364POPC   C3A20093  42.607   9.267   7.912
 1364POPC   C4A20094  42.577   8.897   7.708
 1364POPC   C1B20095  42.010   8.823   8.867
 1364POPC   C2B20096  42.000   9.022   8.474
 1364POPC   C3B20097  42.197   9.005   8.074
 1364POPC   C4B20098  42.066   8.946   7.677
 1365POPC   NC320099   1.092   0.722   9.482
 1365POPC   PO420100   1.428   0.148   9.489
 1365POPC   GL120101   1.264   0.350   9.189
 1365POPC   GL220102   1.510   0.608   9.130
 1365POPC   C1A20103   1.098   0.460   8.838
 1365POPC   D2A20104   1.223   0.349   8.444
 1365POPC   C3A20105   1.023   0.541   8.131
 1365POPC   C4A20106   1.106   0.422   7.739
 1365POPC   C1B20107   1.591   0.265   8.821
 1365POPC   C2B20108   1.711   0.154   8.417
 1365POPC   C3B20109   1.571   0.341   8.052
 1365POPC   C4B20110   1.581   0.654   7.741
 1366POPC   NC320111  19.697  26.184   9.614
 1366POPC   PO420112  20.030  25.661   9.578
 1366POPC   GL120113  20.020  25.837   9.150
 1366POPC   GL220114  19.695  25.863   9.196
 1366POPC   C1A20115  19.869  25.928   8.697
 1366POPC   D2A20116  19.630  26.167   8.341
 1366POPC   C3A20117  19.735  26.123   7.892
 1366POPC   C4A20118  19.566  26.187   7.451
 1366POPC   C1B20119  19.525  25.597   8.898
 1366POPC   C2B20120  19.479  25.616   8.463
 1366POPC   C3B20121  19.442  25.736   8.049
 1366POPC   C4B20122  19.628  25.663   7.642
 1367POPC   NC320123   8.171  26.474   9.519
 1367POPC   PO420124   8.132  25.807   9.496
 1367POPC   GL120125   7.960  25.880   9.105
 1367POPC   GL220126   7.810  26.182   9.232
 1367POPC   C1A20127   8.310  25.850   8.844
 1367POPC   D2A20128   8.555  25.941   8.521
 1367POPC   C3A20129   8.360  25.981   8.145
 1367POPC   C4A20130   8.150  25.738   7.851
 1367POPC   C1B20131   8.007  26.342   8.858
 1367POPC   C2B20132   7.949  26.455   8.435
 1367POPC   C3B20133   8.132  26.446   8.027
 1367POPC   C4B20134   8.226  26.213   7.684
 1368POPC   NC320135  19.338   1.620   9.463
 1368POPC   PO420136  18.855   2.132   9.419
 1368POPC   GL120137  19.103   1.966   9.114
 1368POPC   GL220138  18.815   2.018   8.911
 1368POPC   C1A20139  19.273   2.010   8.700
 1368POPC   D2A20140  19.045   2.159   8.343
 1368POPC   C3A20141  19.204   1.960   7.989
 1368POPC   C4A20142  19.299   1.983   7.582
 1368POPC   C1B20143  18.650   1.717   8.692
 1368POPC   C2B20144  18.556   1.563   8.321
 1368POPC   C3B20145  18.713   1.769   7.969
 1368POPC   C4B20146  18.839   1.750   7.557
 1369POPC   NC320147  40.744  42.181   9.473
 1369POPC   PO420148  40.673  42.848   9.614
 1369POPC   GL120149  40.841  42.685   9.217
 1369POPC   GL220150  41.140  42.473   9.211
 1369POPC   C1A20151  40.795  42.416   8.829
 1369POPC   D2A20152  40.621  42.310   8.439
 1369POPC   C3A20153  40.666  42.519   8.034
 1369POPC   C4A20154  40.404  42.327   7.741
 1369POPC   C1B20155  41.303  42.315   8.804
 1369POPC   C2B20156  41.123  42.229   8.425
 1369POPC   C3B20157  41.243  42.252   8.024
 1369POPC   C4B20158  41.071  42.493   7.687
 1370POPC   NC320159  35.583  42.651   9.595
 1370POPC   PO420160  35.175  43.168   9.424
 1370POPC   GL120161  35.291  43.146   9.067
 1370POPC   GL220162  35.616  42.994   9.184
 1370POPC   C1A20163  35.180  43.197   8.603
 1370POPC   D2A20164  35.360  43.237   8.176
 1370POPC   C3A20165  35.232  42.948   7.778
 1370POPC   C4A20166  35.188  42.928   7.272
 1370POPC   C1B20167  35.675  43.174   8.773
 1370POPC   C2B20168  35.651  42.903   8.441
 1370POPC   C3B20169  35.690  42.910   8.014
 1370POPC   C4B20170  35.810  43.323   7.869
 1371POPC   NC320171   0.464   5.411   9.339
 1371POPC   PO420172   0.806   4.957   9.843
 1371POPC   GL120173   0.760   4.941   9.365
 1371POPC   GL220174   0.397   4.910   9.286
 1371POPC   C1A20175   0.755   4.976   8.891
 1371POPC   D2A20176   0.529   4.891   8.497
 1371POPC   C3A20177   0.607   5.031   8.082
 1371POPC   C4A20178   0.270   5.296   7.887
 1371POPC   C1B20179   0.177   4.729   8.930
 1371POPC   C2B20180   0.133   4.550   8.492
 1371POPC   C3B20181   0.196   4.726   8.068
 1371POPC   C4B20182  44.917   4.949   7.773
 1372POPC   NC320183  35.526  40.777   9.700
 1372POPC   PO420184  36.280  40.849   9.601
 1372POPC   GL120185  36.092  40.826   9.223
 1372POPC   GL220186  36.305  41.109   9.143
 1372POPC   C1A20187  36.127  40.574   8.831
 1372POPC   D2A20188  36.240  40.724   8.416
 1372POPC   C3A20189  36.121  40.501   8.041
 1372POPC   C4A20190  36.404  40.354   7.724
 1372POPC   C1B20191  36.033  41.077   8.776
 1372POPC   C2B20192  35.999  41.216   8.379
 1372POPC   C3B20193  36.167  41.061   8.018
 1372POPC   C4B20194  36.193  40.815   7.640
 1373POPC   NC320195  35.265  28.826   9.761
 1373POPC   PO420196  35.603  28.273   9.450
 1373POPC   GL120197  35.432  28.303   9.041
 1373POPC   GL220198  35.090  28.459   8.960
 1373POPC   C1A20199  35.498  28.515   8.631
 1373POPC   D2A20200  35.476  28.337   8.214
 1373POPC   C3A20201  35.528  28.602   7.871
 1373POPC   C4A20202  35.210  28.928   7.857
 1373POPC   C1B20203  35.130  28.023   8.749
 1373POPC   C2B20204  35.071  27.801   8.369
 1373POPC   C3B20205  34.984  27.988   7.970
 1373POPC   C4B20206  35.061  28.423   7.863
 1374POPC   NC320207  35.155   1.004   9.507
 1374POPC   PO420208  35.646   1.442   9.266
 1374POPC   GL120209  35.279   1.247   9.089
 1374POPC   GL220210  35.432   0.914   9.056
 1374POPC   C1A20211  35.083   1.213   8.696
 1374POPC   D2A20212  35.406   1.209   8.419
 1374POPC   C3A20213  35.414   1.486   8.100
 1374POPC   C4A20214  35.781   1.488   7.878
 1374POPC   C1B20215  35.261   0.724   8.660
 1374POPC   C2B20216  35.079   0.849   8.259
 1374POPC   C3B20217  35.223   1.057   7.865
 1374POPC   C4B20218  35.211   1.006   7.402
 1375POPC   NC320219  35.426   7.623   9.457
 1375POPC   PO420220  35.023   7.109   9.245
 1375POPC   GL120221  35.406   7.290   9.080
 1375POPC   GL220222  35.260   7.612   8.976
 1375POPC   C1A20223  35.688   7.364   8.734
 1375POPC   D2A20224  35.452   7.240   8.397
 1375POPC   C3A20225  35.453   7.538   8.102
 1375POPC   C4A20226  35.599   7.658   7.734
 1375POPC   C1B20227  35.100   7.621   8.553
 1375POPC   C2B20228  34.940   7.576   8.142
 1375POPC   C3B20229  35.104   7.745   7.752
 1375POPC   C4B20230  35.055   7.685   7.288
 1376POPC   NC320231  32.703   3.420   9.489
 1376POPC   PO420232  33.415   3.162   9.407
 1376POPC   GL120233  33.084   3.494   9.168
 1376POPC   GL220234  32.902   3.826   9.261
 1376POPC   C1A20235  32.882   3.543   8.793
 1376POPC   D2A20236  32.700   3.457   8.430
 1376POPC   C3A20237  32.864   3.550   8.037
 1376POPC   C4A20238  32.708   3.400   7.672
 1376POPC   C1B20239  32.898   4.032   8.874
 1376POPC   C2B20240  32.978   3.933   8.438
 1376POPC   C3B20241  32.886   4.064   8.028
 1376POPC   C4B20242  32.877   3.896   7.628
 1377POPC   NC320243  32.002  13.958   9.828
 1377POPC   PO420244  32.424  14.426   9.587
 1377POPC   GL120245  32.233  14.438   9.205
 1377POPC   GL220246  32.556  14.361   9.042
 1377POPC   C1A20247  32.131  14.525   8.777
 1377POPC   D2A20248  32.472  14.493   8.483
 1377POPC   C3A20249  32.400  14.600   8.046
 1377POPC   C4A20250  32.074  14.411   7.809
 1377POPC   C1B20251  32.758  14.077   8.756
 1377POPC   C2B20252  32.562  13.988   8.339
 1377POPC   C3B20253  32.694  13.988   7.914
 1377POPC   C4B20254  32.546  14.302   7.607
 1378POPC   NC320255  40.479  25.175   9.369
 1378POPC   PO420256  41.005  25.604   9.501
 1378POPC   GL120257  40.940  25.298   9.141
 1378POPC   GL220258  41.080  24.941   9.122
 1378POPC   C1A20259  40.728  25.303   8.733
 1378POPC   D2A20260  40.514  25.224   8.343
 1378POPC   C3A20261  40.492  25.550   8.086
 1378POPC   C4A20262  40.476  25.407   7.691
 1378POPC   C1B20263  41.148  24.987   8.661
 1378POPC   C2B20264  41.016  25.223   8.272
 1378POPC   C3B20265  40.996  25.127   7.826
 1378POPC   C4B20266  41.091  24.806   7.491
 1379POPC   NC320267   6.587  31.145   9.494
 1379POPC   PO420268   6.368  31.784   9.605
 1379POPC   GL120269   6.630  31.769   9.210
 1379POPC   GL220270   6.638  31.429   9.087
 1379POPC   C1A20271   6.616  31.773   8.723
 1379POPC   D2A20272   6.487  31.481   8.384
 1379POPC   C3A20273   6.865  31.405   8.149
 1379POPC   C4A20274   7.010  31.722   7.837
 1379POPC   C1B20275   6.740  31.179   8.726
 1379POPC   C2B20276   6.548  30.893   8.444
 1379POPC   C3B20277   6.509  31.017   8.036
 1379POPC   C4B20278   6.316  31.045   7.647
 1380POPC   NC320279  29.848  30.289   9.385
 1380POPC   PO420280  29.942  29.611   9.505
 1380POPC   GL120281  30.058  29.862   9.165
 1380POPC   GL220282  29.715  29.874   9.096
 1380POPC   C1A20283  30.073  30.095   8.766
 1380POPC   D2A20284  30.072  29.969   8.311
 1380POPC   C3A20285  30.179  29.970   7.848
 1380POPC   C4A20286  30.007  29.915   7.423
 1380POPC   C1B20287  29.559  30.120   8.748
 1380POPC   C2B20288  29.401  30.181   8.331
 1380POPC   C3B20289  29.651  30.088   8.016
 1380POPC   C4B20290  29.577  29.920   7.670
 1381POPC   NC320291  43.363  36.817   9.164
 1381POPC   PO420292  42.819  37.160   9.470
 1381POPC   GL120293  42.907  37.015   9.089
 1381POPC   GL220294  42.870  36.646   9.112
 1381POPC   C1A20295  43.127  37.219   8.721
 1381POPC   D2A20296  43.274  37.011   8.362
 1381POPC   C3A20297  43.085  37.122   7.986
 1381POPC   C4A20298  43.208  37.008   7.619
 1381POPC   C1B20299  42.917  36.721   8.672
 1381POPC   C2B20300  42.742  36.879   8.320
 1381POPC   C3B20301  42.767  36.725   7.933
 1381POPC   C4B20302  42.968  36.553   7.620
 1382POPC   NC320303  27.901  10.406   9.635
 1382POPC   PO420304  28.549  10.381   9.647
 1382POPC   GL120305  28.478  10.486   9.241
 1382POPC   GL220306  28.150  10.581   9.218
 1382POPC   C1A20307  28.596  10.645   8.849
 1382POPC   D2A20308  28.716  10.681   8.438
 1382POPC   C3A20309  28.639  10.464   8.088
 1382POPC   C4A20310  28.566  10.606   7.665
 1382POPC   C1B20311  28.079  10.644   8.788
 1382POPC   C2B20312  28.192  10.484   8.385
 1382POPC   C3B20313  28.145  10.517   7.939
 1382POPC   C4B20314  28.163  10.293   7.539
 1383POPC   NC320315  26.330  34.317   9.800
 1383POPC   PO420316  25.801  34.631   9.567
 1383POPC   GL120317  26.017  34.476   9.248
 1383POPC   GL220318  25.870  34.142   9.270
 1383POPC   C1A20319  26.211  34.597   8.846
 1383POPC   D2A20320  26.014  34.558   8.430
 1383POPC   C3A20321  26.239  34.624   8.036
 1383POPC   C4A20322  26.171  34.393   7.666
 1383POPC   C1B20323  25.773  34.247   8.850
 1383POPC   C2B20324  25.789  34.068   8.464
 1383POPC   C3B20325  25.846  34.224   8.056
 1383POPC   C4B20326  25.757  34.052   7.665
 1384POPC   NC320327  30.435  29.733   9.499
 1384POPC   PO420328  31.096  30.047   9.551
 1384POPC   GL120329  30.887  30.126   9.144
 1384POPC   GL220330  30.547  30.038   9.058
 1384POPC   C1A20331  31.010  30.151   8.727
 1384POPC   D2A20332  30.966  30.040   8.283
 1384POPC   C3A20333  30.560  30.185   8.085
 1384POPC   C4A20334  30.515  30.416   7.708
 1384POPC   C1B20335  30.539  30.033   8.594
 1384POPC   C2B20336  30.545  29.716   8.280
 1384POPC   C3B20337  30.630  29.676   7.841
 1384POPC   C4B20338  30.521  29.937   7.461
 1385POPC   NC320339  29.962   2.405   9.575
 1385POPC   PO420340  30.239   3.031   9.451
 1385POPC   GL120341  29.955   2.780   9.202
 1385POPC   GL220342  30.106   2.487   9.120
 1385POPC   C1A20343  29.730   2.751   8.797
 1385POPC   D2A20344  29.842   3.048   8.438
 1385POPC   C3A20345  29.960   2.950   8.008
 1385POPC   C4A20346  30.200   2.882   7.584
 1385POPC   C1B20347  30.191   2.541   8.730
 1385POPC   C2B20348  29.969   2.528   8.377
 1385POPC   C3B20349  30.205   2.522   7.996
 1385POPC   C4B20350  30.254   2.362   7.648
 1386POPC   NC320351  39.579  42.347   9.469
 1386POPC   PO420352  40.268  42.156   9.356
 1386POPC   GL120353  39.901  42.167   9.113
 1386POPC   GL220354  39.827  42.499   9.016
 1386POPC   C1A20355  39.916  42.129   8.680
 1386POPC   D2A20356  40.116  42.217   8.314
 1386POPC   C3A20357  39.970  42.030   7.957
 1386POPC   C4A20358  39.921  42.258   7.604
 1386POPC   C1B20359  40.234  42.515   8.768
 1386POPC   C2B20360  40.278  42.690   8.362
 1386POPC   C3B20361  40.078  42.633   7.970
 1386POPC   C4B20362  39.686  42.667   7.790
 1387POPC   NC320363  18.245   0.192   9.516
 1387POPC   PO420364  18.161   0.868   9.654
 1387POPC   GL120365  18.236   0.763   9.184
 1387POPC   GL220366  18.261   0.380   9.044
 1387POPC   C1A20367  18.302   0.761   8.734
 1387POPC   D2A20368  18.130   0.413   8.508
 1387POPC   C3A20369  18.137   0.447   8.058
 1387POPC   C4A20370  18.159   0.569   7.610
 1387POPC   C1B20371  18.610   0.370   8.724
 1387POPC   C2B20372  18.672   0.566   8.297
 1387POPC   C3B20373  18.623   0.447   7.842
 1387POPC   C4B20374  18.480   0.218   7.436
 1388POPC   NC320375  22.144   1.678   9.471
 1388POPC   PO420376  22.382   2.188   9.182
 1388POPC   GL120377  22.298   1.805   9.001
 1388POPC   GL220378  21.963   1.844   9.035
 1388POPC   C1A20379  22.269   1.907   8.589
 1388POPC   D2A20380  22.406   2.083   8.229
 1388POPC   C3A20381  22.196   1.873   7.906
 1388POPC   C4A20382  22.222   2.144   7.583
 1388POPC   C1B20383  21.836   2.140   8.718
 1388POPC   C2B20384  21.868   2.117   8.261
 1388POPC   C3B20385  21.759   2.188   7.819
 1388POPC   C4B20386  21.516   2.230   7.452
 1389POPC   NC320387  24.264  25.100   9.488
 1389POPC   PO420388  24.884  25.300   9.490
 1389POPC   GL120389  24.575  25.398   9.158
 1389POPC   GL220390  24.307  25.164   9.000
 1389POPC   C1A20391  24.692  25.373   8.739
 1389POPC   D2A20392  24.689  25.573   8.411
 1389POPC   C3A20393  24.729  25.370   8.096
 1389POPC   C4A20394  24.692  25.304   7.719
 1389POPC   C1B20395  24.112  25.465   8.763
 1389POPC   C2B20396  23.932  25.368   8.354
 1389POPC   C3B20397  24.208  25.370   8.005
 1389POPC   C4B20398  24.208  25.326   7.577
 1390POPC   NC320399  32.647  38.789   9.462
 1390POPC   PO420400  32.975  38.251   9.679
 1390POPC   GL120401  33.024  38.509   9.256
 1390POPC   GL220402  33.370  38.651   9.193
 1390POPC   C1A20403  32.967  38.371   8.828
 1390POPC   D2A20404  32.953  38.090   8.478
 1390POPC   C3A20405  32.836  38.258   8.060
 1390POPC   C4A20406  33.089  38.151   7.710
 1390POPC   C1B20407  33.275  38.782   8.766
 1390POPC   C2B20408  33.099  38.589   8.375
 1390POPC   C3B20409  33.365  38.375   8.071
 1390POPC   C4B20410  33.528  38.573   7.666
 1391POPC   NC320411  41.370  17.010   9.546
 1391POPC   PO420412  41.709  16.447   9.506
 1391POPC   GL120413  41.584  16.656   9.176
 1391POPC   GL220414  41.729  16.984   9.180
 1391POPC   C1A20415  41.742  16.661   8.767
 1391POPC   D2A20416  41.744  16.836   8.377
 1391POPC   C3A20417  41.479  16.652   8.096
 1391POPC   C4A20418  41.624  16.692   7.711
 1391POPC   C1B20419  41.579  17.144   8.786
 1391POPC   C2B20420  41.292  17.053   8.424
 1391POPC   C3B20421  41.479  17.141   7.986
 1391POPC   C4B20422  41.284  17.059   7.577
 1392POPC   NC320423  34.290  30.820   9.977
 1392POPC   PO420424  34.732  30.675   9.596
 1392POPC   GL120425  34.710  30.633   9.188
 1392POPC   GL220426  34.391  30.849   9.201
 1392POPC   C1A20427  34.645  30.603   8.780
 1392POPC   D2A20428  34.356  30.691   8.416
 1392POPC   C3A20429  34.614  30.806   8.073
 1392POPC   C4A20430  34.693  30.518   7.771
 1392POPC   C1B20431  34.407  31.038   8.810
 1392POPC   C2B20432  34.397  31.191   8.379
 1392POPC   C3B20433  34.234  31.146   7.965
 1392POPC   C4B20434  34.432  30.947   7.589
 1393POPC   NC320435  38.882  34.608   9.498
 1393POPC   PO420436  39.507  34.485   9.597
 1393POPC   GL120437  39.321  34.595   9.210
 1393POPC   GL220438  39.114  34.299   9.150
 1393POPC   C1A20439  39.376  34.858   8.834
 1393POPC   D2A20440  39.447  34.700   8.399
 1393POPC   C3A20441  39.154  34.842   8.082
 1393POPC   C4A20442  39.341  34.951   7.723
 1393POPC   C1B20443  39.237  34.358   8.747
 1393POPC   C2B20444  38.981  34.483   8.421
 1393POPC   C3B20445  38.991  34.364   8.019
 1393POPC   C4B20446  39.326  34.432   7.793
 1394POPC   NC320447  18.447  13.247   9.392
 1394POPC   PO420448  18.138  12.681   9.532
 1394POPC   GL120449  18.112  12.855   9.150
 1394POPC   GL220450  18.456  12.853   9.054
 1394POPC   C1A20451  18.096  12.990   8.722
 1394POPC   D2A20452  17.977  12.814   8.346
 1394POPC   C3A20453  17.963  13.061   7.968
 1394POPC   C4A20454  18.010  12.874   7.564
 1394POPC   C1B20455  18.673  12.982   8.698
 1394POPC   C2B20456  18.462  12.922   8.328
 1394POPC   C3B20457  18.406  12.791   7.917
 1394POPC   C4B20458  18.490  13.189   7.796
 1395POPC   NC320459  10.496  23.158   9.491
 1395POPC   PO420460  10.792  22.565   9.488
 1395POPC   GL120461  10.791  22.774   9.081
 1395POPC   GL220462  10.430  22.872   9.051
 1395POPC   C1A20463  10.711  22.919   8.643
 1395POPC   D2A20464  10.338  22.923   8.373
 1395POPC   C3A20465  10.462  22.738   7.966
 1395POPC   C4A20466  10.889  22.842   7.897
 1395POPC   C1B20467  10.365  23.264   8.801
 1395POPC   C2B20468  10.606  23.410   8.459
 1395POPC   C3B20469  10.569  23.263   8.043
 1395POPC   C4B20470  10.153  23.290   7.872
 1396POPC   NC320471  38.024  31.619   9.403
 1396POPC   PO420472  38.663  31.551   9.684
 1396POPC   GL120473  38.417  31.759   9.177
 1396POPC   GL220474  38.308  31.471   9.018
 1396POPC   C1A20475  38.544  31.865   8.742
 1396POPC   D2A20476  38.392  31.721   8.345
 1396POPC   C3A20477  38.526  31.470   8.005
 1396POPC   C4A20478  38.555  31.734   7.646
 1396POPC   C1B20479  38.298  31.246   8.651
 1396POPC   C2B20480  38.384  30.935   8.349
 1396POPC   C3B20481  38.369  30.972   7.919
 1396POPC   C4B20482  38.015  31.227   7.862
 1397POPC   NC320483  21.770  25.146   9.957
 1397POPC   PO420484  22.200  25.305   9.518
 1397POPC   GL120485  22.295  25.474   9.168
 1397POPC   GL220486  22.495  25.183   9.113
 1397POPC   C1A20487  22.114  25.558   8.774
 1397POPC   D2A20488  21.881  25.330   8.417
 1397POPC   C3A20489  21.854  25.519   7.995
 1397POPC   C4A20490  21.952  25.381   7.573
 1397POPC   C1B20491  22.288  25.093   8.769
 1397POPC   C2B20492  22.404  25.256   8.405
 1397POPC   C3B20493  22.547  25.023   8.074
 1397POPC   C4B20494  22.372  25.045   7.644
 1398POPC   NC320495   2.522  28.515   9.758
 1398POPC   PO420496   2.948  28.015   9.577
 1398POPC   GL120497   2.784  28.396   9.297
 1398POPC   GL220498   2.523  28.611   9.262
 1398POPC   C1A20499   2.775  28.396   8.830
 1398POPC   D2A20500   2.666  28.204   8.424
 1398POPC   C3A20501   2.868  28.411   8.060
 1398POPC   C4A20502   2.989  28.285   7.626
 1398POPC   C1B20503   2.522  28.849   8.879
 1398POPC   C2B20504   2.439  28.673   8.465
 1398POPC   C3B20505   2.466  28.760   8.015
 1398POPC   C4B20506   2.517  28.480   7.671
 1399POPC   NC320507  38.871  31.080   9.415
 1399POPC   PO420508  38.551  30.466   9.480
 1399POPC   GL120509  38.494  30.801   9.204
 1399POPC   GL220510  38.196  30.975   9.130
 1399POPC   C1A20511  38.556  30.762   8.797
 1399POPC   D2A20512  38.539  30.411   8.545
 1399POPC   C3A20513  38.398  30.479   8.145
 1399POPC   C4A20514  38.342  30.472   7.736
 1399POPC   C1B20515  38.053  30.787   8.766
 1399POPC   C2B20516  37.944  30.582   8.406
 1399POPC   C3B20517  37.910  30.731   7.983
 1399POPC   C4B20518  38.034  30.827   7.548
 1400POPC   NC320519  44.229  31.610   9.402
 1400POPC   PO420520  43.661  31.216   9.641
 1400POPC   GL120521  43.668  31.551   9.296
 1400POPC   GL220522  43.882  31.374   9.063
 1400POPC   C1A20523  43.592  31.713   8.841
 1400POPC   D2A20524  43.730  31.438   8.486
 1400POPC   C3A20525  43.669  31.528   8.049
 1400POPC   C4A20526  43.686  31.278   7.691
 1400POPC   C1B20527  44.140  31.645   8.760
 1400POPC   C2B20528  44.387  31.539   8.399
 1400POPC   C3B20529  44.253  31.386   8.009
 1400POPC   C4B20530  44.067  31.589   7.673
 1401POPC   NC320531  17.856  38.193   9.522
 1401POPC   PO420532  18.477  38.581   9.496
 1401POPC   GL120533  18.210  38.431   9.208
 1401POPC   GL220534  18.504  38.301   9.054
 1401POPC   C1A20535  18.013  38.296   8.851
 1401POPC   D2A20536  17.905  38.425   8.469
 1401POPC   C3A20537  18.133  38.239   8.123
 1401POPC   C4A20538  18.153  38.378   7.687
 1401POPC   C1B20539  18.455  38.397   8.624
 1401POPC   C2B20540  18.604  38.460   8.222
 1401POPC   C3B20541  18.604  38.174   7.886
 1401POPC   C4B20542  18.622  38.063   7.477
 1402POPC   NC320543  18.782  21.860   9.512
 1402POPC   PO420544  19.190  22.395   9.525
 1402POPC   GL120545  19.135  22.105   9.187
 1402POPC   GL220546  18.815  22.242   9.165
 1402POPC   C1A20547  19.096  22.192   8.734
 1402POPC   D2A20548  18.976  22.416   8.342
 1402POPC   C3A20549  19.152  22.143   8.060
 1402POPC   C4A20550  19.348  22.243   7.700
 1402POPC   C1B20551  18.619  21.972   8.862
 1402POPC   C2B20552  18.750  21.961   8.423
 1402POPC   C3B20553  18.622  22.029   8.005
 1402POPC   C4B20554  18.579  21.728   7.683
 1403POPC   NC320555  28.166  39.114   9.956
 1403POPC   PO420556  28.679  39.052   9.521
 1403POPC   GL120557  28.518  39.304   9.161
 1403POPC   GL220558  28.221  39.496   9.276
 1403POPC   C1A20559  28.396  39.079   8.786
 1403POPC   D2A20560  28.507  38.942   8.379
 1403POPC   C3A20561  28.485  39.169   7.970
 1403POPC   C4A20562  28.742  39.234   7.595
 1403POPC   C1B20563  28.194  39.559   8.831
 1403POPC   C2B20564  28.172  39.353   8.417
 1403POPC   C3B20565  28.054  39.540   8.033
 1403POPC   C4B20566  28.398  39.647   7.786
 1404POPC   NC320567  13.162  13.494   9.453
 1404POPC   PO420568  12.792  14.080   9.499
 1404POPC   GL120569  13.023  13.910   9.173
 1404POPC   GL220570  12.884  13.598   9.005
 1404POPC   C1A20571  13.092  14.015   8.759
 1404POPC   D2A20572  12.960  13.737   8.493
 1404POPC   C3A20573  13.022  13.734   8.073
 1404POPC   C4A20574  13.235  13.516   7.758
 1404POPC   C1B20575  12.532  13.554   8.672
 1404POPC   C2B20576  12.549  13.511   8.181
 1404POPC   C3B20577  12.672  13.557   7.752
 1404POPC   C4B20578  12.518  13.806   7.368
 1405POPC   NC320579  26.481  13.796   9.331
 1405POPC   PO420580  27.127  13.604   9.408
 1405POPC   GL120581  26.913  13.656   9.032
 1405POPC   GL220582  26.620  13.452   8.992
 1405POPC   C1A20583  26.942  13.540   8.605
 1405POPC   D2A20584  26.938  13.797   8.269
 1405POPC   C3A20585  26.932  13.503   7.970
 1405POPC   C4A20586  27.116  13.148   7.868
 1405POPC   C1B20587  26.534  13.806   8.674
 1405POPC   C2B20588  26.334  13.854   8.313
 1405POPC   C3B20589  26.542  13.829   7.949
 1405POPC   C4B20590  26.874  13.895   7.647
 1406POPC   NC320591   9.681   7.789   9.651
 1406POPC   PO420592  10.061   7.287   9.362
 1406POPC   GL120593   9.664   7.454   9.203
 1406POPC   GL220594   9.773   7.800   9.138
 1406POPC   C1A20595   9.486   7.221   8.848
 1406POPC   D2A20596   9.655   7.220   8.441
 1406POPC   C3A20597   9.472   7.388   8.102
 1406POPC   C4A20598   9.529   7.358   7.650
 1406POPC   C1B20599   9.803   7.635   8.734
 1406POPC   C2B20600   9.947   7.616   8.316
 1406POPC   C3B20601   9.739   7.754   7.910
 1406POPC   C4B20602   9.659   7.805   7.438
 1407POPC   NC320603  21.523  29.042   9.500
 1407POPC   PO420604  21.113  28.598   9.532
 1407POPC   GL120605  21.257  28.833   9.104
 1407POPC   GL220606  21.434  29.187   9.038
 1407POPC   C1A20607  21.280  28.984   8.632
 1407POPC   D2A20608  21.479  29.153   8.279
 1407POPC   C3A20609  21.326  28.837   8.024
 1407POPC   C4A20610  21.432  28.782   7.597
 1407POPC   C1B20611  21.545  29.471   8.696
 1407POPC   C2B20612  21.726  29.637   8.312
 1407POPC   C3B20613  21.594  29.529   7.907
 1407POPC   C4B20614  21.306  29.259   7.753
 1408POPC   NC320615   6.254  36.562   9.348
 1408POPC   PO420616   6.369  37.136   9.545
 1408POPC   GL120617   6.598  37.115   9.159
 1408POPC   GL220618   6.674  36.743   9.084
 1408POPC   C1A20619   6.822  37.105   8.757
 1408POPC   D2A20620   6.666  36.903   8.400
 1408POPC   C3A20621   6.860  36.738   8.066
 1408POPC   C4A20622   6.857  36.950   7.719
 1408POPC   C1B20623   6.316  36.889   8.788
 1408POPC   C2B20624   6.158  36.807   8.378
 1408POPC   C3B20625   6.331  36.815   7.970
 1408POPC   C4B20626   6.409  36.558   7.654
 1409POPC   NC320627  39.233  27.271   9.413
 1409POPC   PO420628  39.006  27.976   9.526
 1409POPC   GL120629  39.083  27.773   9.132
 1409POPC   GL220630  39.020  27.456   8.993
 1409POPC   C1A20631  38.835  27.831   8.723
 1409POPC   D2A20632  38.865  27.600   8.329
 1409POPC   C3A20633  39.081  27.871   8.054
 1409POPC   C4A20634  39.400  27.822   7.770
 1409POPC   C1B20635  39.298  27.623   8.643
 1409POPC   C2B20636  39.391  27.517   8.208
 1409POPC   C3B20637  39.047  27.353   7.897
 1409POPC   C4B20638  39.040  27.128   7.468
 1410POPC   NC320639   9.934  14.592   9.494
 1410POPC   PO420640   9.406  14.133   9.428
 1410POPC   GL120641   9.669  14.344   9.149
 1410POPC   GL220642   9.520  14.664   9.215
 1410POPC   C1A20643   9.719  14.249   8.739
 1410POPC   D2A20644   9.471  14.063   8.420
 1410POPC   C3A20645   9.630  14.256   8.061
 1410POPC   C4A20646  10.071  14.313   8.010
 1410POPC   C1B20647   9.411  14.846   8.840
 1410POPC   C2B20648   9.509  14.645   8.446
 1410POPC   C3B20649   9.633  14.803   8.048
 1410POPC   C4B20650   9.789  14.621   7.667
 1411POPC   NC320651   5.529  35.165   9.349
 1411POPC   PO420652   6.077  35.398   9.754
 1411POPC   GL120653   6.018  35.339   9.219
 1411POPC   GL220654   6.043  35.051   9.021
 1411POPC   C1A20655   5.838  35.474   8.811
 1411POPC   D2A20656   5.754  35.245   8.432
 1411POPC   C3A20657   5.900  35.475   8.052
 1411POPC   C4A20658   5.811  35.537   7.628
 1411POPC   C1B20659   6.085  34.689   8.769
 1411POPC   C2B20660   6.150  34.755   8.352
 1411POPC   C3B20661   5.945  34.981   8.019
 1411POPC   C4B20662   5.901  35.026   7.602
 1412POPC   NC320663  24.652  13.472   9.717
 1412POPC   PO420664  24.361  14.033   9.511
 1412POPC   GL120665  24.635  13.737   9.253
 1412POPC   GL220666  24.577  13.382   9.133
 1412POPC   C1A20667  24.851  13.702   8.861
 1412POPC   D2A20668  24.610  13.591   8.463
 1412POPC   C3A20669  24.719  13.756   8.057
 1412POPC   C4A20670  24.552  13.848   7.663
 1412POPC   C1B20671  24.811  13.199   8.761
 1412POPC   C2B20672  24.987  13.203   8.335
 1412POPC   C3B20673  24.768  13.235   7.933
 1412POPC   C4B20674  24.518  13.352   7.553
 1413POPC   NC320675   4.313  39.097   9.601
 1413POPC   PO420676   4.158  39.662   9.331
 1413POPC   GL120677   4.535  39.388   9.206
 1413POPC   GL220678   4.551  39.003   9.145
 1413POPC   C1A20679   4.623  39.358   8.778
 1413POPC   D2A20680   4.312  39.466   8.472
 1413POPC   C3A20681   4.384  39.391   8.051
 1413POPC   C4A20682   4.138  39.372   7.688
 1413POPC   C1B20683   4.211  39.024   8.825
 1413POPC   C2B20684   4.021  39.045   8.395
 1413POPC   C3B20685   4.141  38.930   7.988
 1413POPC   C4B20686   4.223  38.870   7.555
 1414POPC   NC320687  22.834  27.990   9.524
 1414POPC   PO420688  22.773  28.699   9.539
 1414POPC   GL120689  22.850  28.419   9.207
 1414POPC   GL220690  23.123  28.526   9.066
 1414POPC   C1A20691  22.682  28.363   8.785
 1414POPC   D2A20692  22.414  28.199   8.497
 1414POPC   C3A20693  22.609  28.322   8.179
 1414POPC   C4A20694  22.724  28.342   7.800
 1414POPC   C1B20695  23.178  28.278   8.765
 1414POPC   C2B20696  23.041  28.130   8.414
 1414POPC   C3B20697  23.161  28.277   8.038
 1414POPC   C4B20698  23.178  28.549   7.713
 1415POPC   NC320699  18.877  44.418   9.480
 1415POPC   PO420700  19.472  44.759   9.616
 1415POPC   GL120701  19.220  44.737   9.220
 1415POPC   GL220702  19.485  44.569   9.101
 1415POPC   C1A20703  18.927  44.565   8.858
 1415POPC   D2A20704  18.684  44.662   8.517
 1415POPC   C3A20705  18.766  44.560   8.093
 1415POPC   C4A20706  18.885  44.385   7.708
 1415POPC   C1B20707  19.395  44.567   8.718
 1415POPC   C2B20708  19.216  44.697   8.369
 1415POPC   C3B20709  19.284  44.468   8.021
 1415POPC   C4B20710  19.235  44.749   7.712
 1416POPC   NC320711   4.810   0.916   9.970
 1416POPC   PO420712   4.257   0.846   9.506
 1416POPC   GL120713   4.389   0.966   9.087
 1416POPC   GL220714   4.685   1.219   9.065
 1416POPC   C1A20715   4.629   0.797   8.754
 1416POPC   D2A20716   4.658   0.883   8.337
 1416POPC   C3A20717   4.294   1.098   8.180
 1416POPC   C4A20718   4.249   1.239   7.769
 1416POPC   C1B20719   4.476   1.284   8.652
 1416POPC   C2B20720   4.413   1.590   8.328
 1416POPC   C3B20721   4.423   1.709   7.907
 1416POPC   C4B20722   4.667   1.527   7.565
 1417POPC   NC320723   7.504  21.811   9.355
 1417POPC   PO420724   7.030  22.232   9.575
 1417POPC   GL120725   7.346  22.327   9.213
 1417POPC   GL220726   7.743  22.226   9.118
 1417POPC   C1A20727   7.354  22.244   8.763
 1417POPC   D2A20728   7.209  21.995   8.399
 1417POPC   C3A20729   7.220  22.234   8.021
 1417POPC   C4A20730   7.541  22.361   7.738
 1417POPC   C1B20731   7.816  22.036   8.667
 1417POPC   C2B20732   7.683  22.009   8.183
 1417POPC   C3B20733   7.519  21.867   7.759
 1417POPC   C4B20734   7.521  22.009   7.274
 1418POPC   NC320735  18.728  39.748   9.523
 1418POPC   PO420736  19.469  39.898   9.474
 1418POPC   GL120737  19.118  39.805   9.155
 1418POPC   GL220738  19.234  40.109   9.026
 1418POPC   C1A20739  18.911  39.928   8.689
 1418POPC   D2A20740  18.985  40.245   8.346
 1418POPC   C3A20741  19.059  40.105   7.944
 1418POPC   C4A20742  18.954  39.801   7.645
 1418POPC   C1B20743  19.390  39.759   8.729
 1418POPC   C2B20744  19.233  39.682   8.311
 1418POPC   C3B20745  19.460  39.762   7.921
 1418POPC   C4B20746  19.392  39.585   7.510
 1419POPC   NC320747   0.115  27.908   9.784
 1419POPC   PO420748   0.476  27.448   9.415
 1419POPC   GL120749   0.529  27.684   9.075
 1419POPC   GL220750   0.332  27.436   8.898
 1419POPC   C1A20751   0.400  27.885   8.694
 1419POPC   D2A20752   0.356  27.566   8.380
 1419POPC   C3A20753   0.364  27.776   8.021
 1419POPC   C4A20754   0.545  27.727   7.614
 1419POPC   C1B20755   0.175  27.113   8.622
 1419POPC   C2B20756   0.227  27.072   8.201
 1419POPC   C3B20757   0.343  27.297   7.839
 1419POPC   C4B20758   0.310  27.310   7.407
 1420POPC   NC320759  39.448  22.024   9.609
 1420POPC   PO420760  38.935  22.439   9.401
 1420POPC   GL120761  39.236  22.204   9.133
 1420POPC   GL220762  39.623  22.094   9.138
 1420POPC   C1A20763  39.262  21.999   8.716
 1420POPC   D2A20764  39.298  21.931   8.238
 1420POPC   C3A20765  38.989  21.820   7.923
 1420POPC   C4A20766  39.095  21.846   7.474
 1420POPC   C1B20767  39.581  22.426   8.833
 1420POPC   C2B20768  39.301  22.458   8.501
 1420POPC   C3B20769  39.490  22.398   8.131
 1420POPC   C4B20770  39.372  22.143   7.778
 1421POPC   NC320771  22.000  27.511   9.249
 1421POPC   PO420772  22.591  27.581   9.461
 1421POPC   GL120773  22.475  27.622   9.080
 1421POPC   GL220774  22.372  27.971   9.109
 1421POPC   C1A20775  22.399  27.394   8.688
 1421POPC   D2A20776  22.428  27.245   8.261
 1421POPC   C3A20777  22.121  27.343   7.965
 1421POPC   C4A20778  21.969  27.670   7.736
 1421POPC   C1B20779  22.133  27.844   8.726
 1421POPC   C2B20780  22.110  27.752   8.305
 1421POPC   C3B20781  22.359  27.887   7.986
 1421POPC   C4B20782  22.515  27.595   7.761
 1422POPC   NC320783  13.061  41.014   9.600
 1422POPC   PO420784  12.809  41.631   9.688
 1422POPC   GL120785  12.735  41.644   9.243
 1422POPC   GL220786  12.752  41.304   9.278
 1422POPC   C1A20787  12.625  41.715   8.791
 1422POPC   D2A20788  12.953  41.668   8.455
 1422POPC   C3A20789  12.821  41.694   8.029
 1422POPC   C4A20790  12.973  41.711   7.606
 1422POPC   C1B20791  12.858  41.281   8.843
 1422POPC   C2B20792  12.719  41.231   8.420
 1422POPC   C3B20793  12.527  41.276   8.038
 1422POPC   C4B20794  12.715  41.230   7.668
 1423POPC   NC320795  40.708   4.663   9.667
 1423POPC   PO420796  41.263   4.630   9.320
 1423POPC   GL120797  40.955   4.404   9.102
 1423POPC   GL220798  40.621   4.450   9.200
 1423POPC   C1A20799  40.887   4.341   8.678
 1423POPC   D2A20800  41.060   4.614   8.355
 1423POPC   C3A20801  40.966   4.418   7.997
 1423POPC   C4A20802  40.626   4.473   7.726
 1423POPC   C1B20803  40.483   4.084   8.978
 1423POPC   C2B20804  40.480   4.010   8.546
 1423POPC   C3B20805  40.591   4.110   8.157
 1423POPC   C4B20806  40.375   4.030   7.812
 1424POPC   NC320807  32.046  24.328   9.805
 1424POPC   PO420808  31.484  24.482   9.684
 1424POPC   GL120809  31.458  24.443   9.203
 1424POPC   GL220810  31.152  24.472   9.072
 1424POPC   C1A20811  31.511  24.278   8.762
 1424POPC   D2A20812  31.526  24.338   8.313
 1424POPC   C3A20813  31.481  24.674   8.026
 1424POPC   C4A20814  31.215  24.804   7.683
 1424POPC   C1B20815  31.000  24.240   8.725
 1424POPC   C2B20816  31.069  24.111   8.332
 1424POPC   C3B20817  31.110  24.330   7.944
 1424POPC   C4B20818  31.132  24.315   7.476
 1425POPC   NC320819   9.122  26.417   9.504
 1425POPC   PO420820   9.036  25.659   9.466
 1425POPC   GL120821   9.104  25.902   9.123
 1425POPC   GL220822   8.744  25.992   9.092
 1425POPC   C1A20823   9.059  25.968   8.685
 1425POPC   D2A20824   8.957  26.097   8.291
 1425POPC   C3A20825   8.993  25.886   7.992
 1425POPC   C4A20826   9.046  26.117   7.657
 1425POPC   C1B20827   8.541  26.345   8.840
 1425POPC   C2B20828   8.512  26.434   8.375
 1425POPC   C3B20829   8.661  26.339   7.944
 1425POPC   C4B20830   8.650  26.380   7.482
 1426POPC   NC320831  20.773   2.569   9.637
 1426POPC   PO420832  20.480   3.123   9.399
 1426POPC   GL120833  20.757   2.808   9.141
 1426POPC   GL220834  20.828   2.436   9.151
 1426POPC   C1A20835  20.815   2.697   8.696
 1426POPC   D2A20836  20.607   2.923   8.378
 1426POPC   C3A20837  20.792   2.963   7.990
 1426POPC   C4A20838  20.788   2.763   7.615
 1426POPC   C1B20839  20.426   2.455   8.889
 1426POPC   C2B20840  20.468   2.410   8.432
 1426POPC   C3B20841  20.481   2.575   7.999
 1426POPC   C4B20842  20.282   2.492   7.602
 1427POPC   NC320843  38.068  41.311   9.498
 1427POPC   PO420844  38.491  41.802   9.584
 1427POPC   GL120845  38.407  41.656   9.212
 1427POPC   GL220846  38.733  41.704   9.066
 1427POPC   C1A20847  38.300  41.572   8.799
 1427POPC   D2A20848  38.366  41.330   8.434
 1427POPC   C3A20849  38.322  41.546   8.064
 1427POPC   C4A20850  38.227  41.866   7.776
 1427POPC   C1B20851  38.750  41.333   8.798
 1427POPC   C2B20852  38.941  41.143   8.458
 1427POPC   C3B20853  38.726  41.211   8.073
 1427POPC   C4B20854  38.738  41.537   7.769
 1428POPC   NC320855  17.149   8.494   9.622
 1428POPC   PO420856  16.510   8.215   9.699
 1428POPC   GL120857  16.682   8.195   9.294
 1428POPC   GL220858  16.831   8.530   9.233
 1428POPC   C1A20859  16.567   7.956   8.891
 1428POPC   D2A20860  16.468   8.001   8.444
 1428POPC   C3A20861  16.750   7.973   8.096
 1428POPC   C4A20862  16.560   8.267   7.732
 1428POPC   C1B20863  16.954   8.284   8.889
 1428POPC   C2B20864  16.990   8.274   8.479
 1428POPC   C3B20865  16.861   8.465   8.114
 1428POPC   C4B20866  17.053   8.264   7.776
 1429POPC   NC320867   9.514  23.007   9.601
 1429POPC   PO420868  10.162  22.840   9.482
 1429POPC   GL120869   9.944  23.091   9.162
 1429POPC   GL220870   9.571  23.028   9.093
 1429POPC   C1A20871   9.917  23.060   8.710
 1429POPC   D2A20872   9.864  23.186   8.289
 1429POPC   C3A20873   9.968  22.843   8.012
 1429POPC   C4A20874  10.064  22.761   7.556
 1429POPC   C1B20875   9.446  22.862   8.669
 1429POPC   C2B20876   9.434  22.912   8.207
 1429POPC   C3B20877   9.542  22.901   7.772
 1429POPC   C4B20878   9.359  23.154   7.480
 1430POPC   NC320879  34.836   7.519   9.303
 1430POPC   PO420880  34.172   7.453   9.401
 1430POPC   GL120881  34.407   7.445   9.048
 1430POPC   GL220882  34.518   7.116   9.136
 1430POPC   C1A20883  34.577   7.477   8.644
 1430POPC   D2A20884  34.302   7.427   8.297
 1430POPC   C3A20885  34.477   7.506   7.911
 1430POPC   C4A20886  34.845   7.335   7.664
 1430POPC   C1B20887  34.617   6.969   8.736
 1430POPC   C2B20888  34.804   7.095   8.346
 1430POPC   C3B20889  34.599   7.000   7.982
 1430POPC   C4B20890  34.393   7.119   7.605
 1431POPC   NC320891  24.236   6.514   9.352
 1431POPC   PO420892  24.811   6.789   9.528
 1431POPC   GL120893  24.750   6.622   9.134
 1431POPC   GL220894  24.605   6.968   9.089
 1431POPC   C1A20895  24.562   6.338   8.784
 1431POPC   D2A20896  24.170   6.270   8.535
 1431POPC   C3A20897  24.216   6.345   8.081
 1431POPC   C4A20898  24.538   6.487   7.816
 1431POPC   C1B20899  24.567   6.834   8.704
 1431POPC   C2B20900  24.522   6.674   8.329
 1431POPC   C3B20901  24.456   6.945   8.007
 1431POPC   C4B20902  24.588   6.937   7.615
 1432POPC   NC320903  16.253  41.949   9.498
 1432POPC   PO420904  15.989  42.620   9.509
 1432POPC   GL120905  16.048  42.414   9.101
 1432POPC   GL220906  15.890  42.080   9.055
 1432POPC   C1A20907  16.029  42.322   8.646
 1432POPC   D2A20908  15.780  42.044   8.417
 1432POPC   C3A20909  15.775  42.270   8.058
 1432POPC   C4A20910  16.048  42.337   7.781
 1432POPC   C1B20911  16.285  41.951   8.849
 1432POPC   C2B20912  16.420  41.996   8.410
 1432POPC   C3B20913  16.166  41.893   8.052
 1432POPC   C4B20914  16.212  41.887   7.621
 1433POPC   NC320915  26.695  33.897   9.527
 1433POPC   PO420916  27.310  33.601   9.627
 1433POPC   GL120917  27.103  33.787   9.207
 1433POPC   GL220918  26.770  33.829   9.042
 1433POPC   C1A20919  27.140  33.964   8.752
 1433POPC   D2A20920  26.833  33.968   8.430
 1433POPC   C3A20921  27.003  33.891   8.040
 1433POPC   C4A20922  26.680  33.757   7.827
 1433POPC   C1B20923  26.522  33.676   8.737
 1433POPC   C2B20924  26.595  33.531   8.321
 1433POPC   C3B20925  26.287  33.435   8.028
 1433POPC   C4B20926  26.275  33.462   7.621
 1434POPC   NC320927   1.305   5.937   9.461
 1434POPC   PO420928   0.880   5.422   9.527
 1434POPC   GL120929   0.944   5.740   9.154
 1434POPC   GL220930   0.947   6.106   9.105
 1434POPC   C1A20931   1.295   5.812   8.791
 1434POPC   D2A20932   1.445   5.562   8.395
 1434POPC   C3A20933   1.449   5.792   7.983
 1434POPC   C4A20934   1.369   6.247   7.816
 1434POPC   C1B20935   0.827   5.985   8.708
 1434POPC   C2B20936   0.998   5.831   8.322
 1434POPC   C3B20937   0.974   5.934   7.885
 1434POPC   C4B20938   0.889   6.126   7.487
 1435POPC   NC320939  16.709  18.606   9.562
 1435POPC   PO420940  16.735  19.201   9.327
 1435POPC   GL120941  16.665  18.813   9.091
 1435POPC   GL220942  17.004  18.631   9.155
 1435POPC   C1A20943  16.574  18.884   8.634
 1435POPC   D2A20944  16.847  19.208   8.452
 1435POPC   C3A20945  16.617  19.398   8.144
 1435POPC   C4A20946  16.474  19.244   7.782
 1435POPC   C1B20947  17.048  18.804   8.755
 1435POPC   C2B20948  16.977  18.726   8.327
 1435POPC   C3B20949  16.799  18.920   7.999
 1435POPC   C4B20950  16.945  19.130   7.622
 1436POPC   NC320951  30.217  26.470   9.668
 1436POPC   PO420952  30.636  25.940   9.537
 1436POPC   GL120953  30.740  25.980   9.096
 1436POPC   GL220954  30.954  26.263   9.001
 1436POPC   C1A20955  30.823  25.943   8.651
 1436POPC   D2A20956  30.671  26.062   8.275
 1436POPC   C3A20957  30.863  25.851   7.961
 1436POPC   C4A20958  30.773  26.175   7.711
 1436POPC   C1B20959  30.529  26.349   8.790
 1436POPC   C2B20960  30.314  26.435   8.387
 1436POPC   C3B20961  30.341  26.340   7.914
 1436POPC   C4B20962  30.427  26.430   7.442
 1437POPC   NC320963  20.154   2.115   9.361
 1437POPC   PO420964  19.617   1.959   9.611
 1437POPC   GL120965  19.836   1.715   9.256
 1437POPC   GL220966  20.221   1.638   9.154
 1437POPC   C1A20967  19.739   1.698   8.804
 1437POPC   D2A20968  19.565   1.740   8.358
 1437POPC   C3A20969  19.681   2.108   8.102
 1437POPC   C4A20970  19.793   2.418   7.815
 1437POPC   C1B20971  20.271   1.915   8.774
 1437POPC   C2B20972  20.099   2.054   8.409
 1437POPC   C3B20973  20.209   2.158   8.010
 1437POPC   C4B20974  20.152   1.977   7.635
 1438POPC   NC320975  28.141  20.768   9.573
 1438POPC   PO420976  28.887  20.619   9.705
 1438POPC   GL120977  28.608  20.700   9.347
 1438POPC   GL220978  28.374  20.470   9.231
 1438POPC   C1A20979  28.567  20.783   8.894
 1438POPC   D2A20980  28.620  20.876   8.469
 1438POPC   C3A20981  28.247  20.866   8.259
 1438POPC   C4A20982  28.310  20.707   7.875
 1438POPC   C1B20983  28.357  20.265   8.881
 1438POPC   C2B20984  28.340  20.405   8.470
 1438POPC   C3B20985  28.096  20.314   8.135
 1438POPC   C4B20986  28.180  20.251   7.724
 1439POPC   NC320987   3.704  15.280   9.494
 1439POPC   PO420988   3.107  15.423   9.417
 1439POPC   GL120989   3.389  15.295   9.101
 1439POPC   GL220990   3.348  14.975   9.138
 1439POPC   C1A20991   3.413  15.351   8.671
 1439POPC   D2A20992   3.128  15.368   8.328
 1439POPC   C3A20993   3.399  15.404   7.952
 1439POPC   C4A20994   3.365  15.639   7.573
 1439POPC   C1B20995   3.419  14.799   8.735
 1439POPC   C2B20996   3.519  14.943   8.294
 1439POPC   C3B20997   3.536  14.701   7.891
 1439POPC   C4B20998   3.516  14.760   7.422
 1440POPC   NC320999  12.660  10.157   9.672
 1440POPC   PO421000  13.119   9.667   9.410
 1440POPC   GL121001  12.924   9.783   9.095
 1440POPC   GL221002  12.678   9.978   9.200
 1440POPC   C1A21003  12.801   9.566   8.754
 1440POPC   D2A21004  12.688   9.272   8.453
 1440POPC   C3A21005  12.776   9.482   8.033
 1440POPC   C4A21006  12.851   9.888   7.777
 1440POPC   C1B21007  12.436   9.938   8.814
 1440POPC   C2B21008  12.450   9.732   8.406
 1440POPC   C3B21009  12.413   9.905   8.028
 1440POPC   C4B21010  12.405  10.148   7.668
 1441POPC   NC321011   3.909  25.876   9.556
 1441POPC   PO421012   3.407  26.343   9.498
 1441POPC   GL121013   3.678  26.185   9.187
 1441POPC   GL221014   3.669  25.847   9.130
 1441POPC   C1A21015   3.689  26.318   8.753
 1441POPC   D2A21016   3.844  26.268   8.320
 1441POPC   C3A21017   3.542  26.300   7.970
 1441POPC   C4A21018   3.246  26.202   7.619
 1441POPC   C1B21019   3.430  25.853   8.792
 1441POPC   C2B21020   3.567  25.845   8.372
 1441POPC   C3B21021   3.385  25.832   7.969
 1441POPC   C4B21022   3.629  25.888   7.592
 1442POPC   NC321023  20.949  20.407   9.346
 1442POPC   PO421024  21.484  20.417   9.798
 1442POPC   GL121025  21.501  20.495   9.291
 1442POPC   GL221026  21.794  20.292   9.176
 1442POPC   C1A21027  21.300  20.548   8.805
 1442POPC   D2A21028  21.064  20.634   8.395
 1442POPC   C3A21029  21.301  20.745   8.038
 1442POPC   C4A21030  21.149  20.776   7.629
 1442POPC   C1B21031  21.824  20.569   8.794
 1442POPC   C2B21032  21.894  20.591   8.359
 1442POPC   C3B21033  21.804  20.391   7.992
 1442POPC   C4B21034  21.693  20.677   7.713
 1443POPC   NC321035  36.258   3.078  10.153
 1443POPC   PO421036  36.202   2.777   9.525
 1443POPC   GL121037  36.155   2.847   9.104
 1443POPC   GL221038  36.488   2.820   9.103
 1443POPC   C1A21039  36.253   2.778   8.647
 1443POPC   D2A21040  36.352   2.597   8.270
 1443POPC   C3A21041  36.317   2.623   7.809
 1443POPC   C4A21042  36.157   2.813   7.446
 1443POPC   C1B21043  36.710   3.003   8.794
 1443POPC   C2B21044  36.744   2.920   8.366
 1443POPC   C3B21045  36.570   3.030   7.984
 1443POPC   C4B21046  36.640   2.958   7.562
 1444POPC   NC321047   8.947  38.720   9.305
 1444POPC   PO421048   8.688  38.112   9.532
 1444POPC   GL121049   8.992  38.223   9.164
 1444POPC   GL221050   8.999  38.488   8.880
 1444POPC   C1A21051   9.070  38.014   8.774
 1444POPC   D2A21052   8.894  38.230   8.433
 1444POPC   C3A21053   9.096  38.093   8.108
 1444POPC   C4A21054   9.197  38.282   7.757
 1444POPC   C1B21055   9.257  38.877   8.778
 1444POPC   C2B21056   9.029  38.910   8.451
 1444POPC   C3B21057   9.042  38.648   8.118
 1444POPC   C4B21058   9.164  38.793   7.724
 1445POPC   NC321059   5.000  28.226   9.672
 1445POPC   PO421060   5.471  28.340   9.200
 1445POPC   GL121061   5.110  28.420   9.182
 1445POPC   GL221062   5.227  28.758   9.074
 1445POPC   C1A21063   4.927  28.183   8.870
 1445POPC   D2A21064   5.060  28.052   8.501
 1445POPC   C3A21065   4.796  28.143   8.176
 1445POPC   C4A21066   4.999  28.281   7.824
 1445POPC   C1B21067   5.243  28.551   8.647
 1445POPC   C2B21068   5.307  28.561   8.216
 1445POPC   C3B21069   5.073  28.779   7.906
 1445POPC   C4B21070   5.077  28.657   7.478
 1446POPC   NC321071  17.899   1.121   9.380
 1446POPC   PO421072  18.508   1.396   9.628
 1446POPC   GL121073  18.359   1.286   9.190
 1446POPC   GL221074  18.062   1.386   9.004
 1446POPC   C1A21075  18.448   1.257   8.731
 1446POPC   D2A21076  18.397   1.063   8.328
 1446POPC   C3A21077  18.496   1.263   7.925
 1446POPC   C4A21078  18.517   0.918   7.675
 1446POPC   C1B21079  17.931   1.082   8.682
 1446POPC   C2B21080  17.936   0.850   8.313
 1446POPC   C3B21081  18.057   0.986   7.930
 1446POPC   C4B21082  17.988   1.394   7.755
 1447POPC   NC321083   1.702  38.606   9.448
 1447POPC   PO421084   2.145  38.077   9.425
 1447POPC   GL121085   2.274  38.390   9.113
 1447POPC   GL221086   2.048  38.685   9.087
 1447POPC   C1A21087   2.284  38.500   8.680
 1447POPC   D2A21088   2.028  38.402   8.323
 1447POPC   C3A21089   2.173  38.695   8.037
 1447POPC   C4A21090   2.455  38.719   7.691
 1447POPC   C1B21091   1.755  38.459   8.798
 1447POPC   C2B21092   1.626  38.127   8.510
 1447POPC   C3B21093   1.515  38.225   8.087
 1447POPC   C4B21094   1.767  38.471   7.790
 1448POPC   NC321095  30.698  22.269   9.565
 1448POPC   PO421096  30.444  21.661   9.655
 1448POPC   GL121097  30.427  21.987   9.227
 1448POPC   GL221098  30.794  22.122   9.090
 1448POPC   C1A21099  30.427  22.150   8.755
 1448POPC   D2A21100  30.734  22.225   8.416
 1448POPC   C3A21101  30.612  22.129   8.029
 1448POPC   C4A21102  30.607  21.811   7.787
 1448POPC   C1B21103  31.031  22.392   8.777
 1448POPC   C2B21104  31.268  22.358   8.400
 1448POPC   C3B21105  31.129  22.241   8.020
 1448POPC   C4B21106  30.857  22.535   7.823
 1449POPC   NC321107   9.113  32.888   9.452
 1449POPC   PO421108   8.434  32.862   9.299
 1449POPC   GL121109   8.744  33.093   9.132
 1449POPC   GL221110   8.898  32.832   8.997
 1449POPC   C1A21111   8.774  33.253   8.728
 1449POPC   D2A21112   8.903  32.934   8.407
 1449POPC   C3A21113   8.907  33.070   7.991
 1449POPC   C4A21114   8.499  33.057   7.827
 1449POPC   C1B21115   9.197  32.673   8.744
 1449POPC   C2B21116   9.390  32.747   8.365
 1449POPC   C3B21117   9.334  32.753   7.935
 1449POPC   C4B21118   9.204  32.919   7.569
 1450POPC   NC321119  14.087   4.319   9.462
 1450POPC   PO421120  14.664   4.752   9.554
 1450POPC   GL121121  14.394   4.636   9.193
 1450POPC   GL221122  14.410   4.267   9.062
 1450POPC   C1A21123  14.103   4.590   8.831
 1450POPC   D2A21124  14.222   4.275   8.508
 1450POPC   C3A21125  14.377   4.397   8.080
 1450POPC   C4A21126  14.190   4.534   7.705
 1450POPC   C1B21127  14.583   3.988   8.736
 1450POPC   C2B21128  14.461   3.867   8.289
 1450POPC   C3B21129  14.410   3.947   7.833
 1450POPC   C4B21130  14.674   4.068   7.460
 1451POPC   NC321131  42.089  13.087   9.669
 1451POPC   PO421132  42.617  12.600   9.544
 1451POPC   GL121133  42.341  12.724   9.184
 1451POPC   GL221134  42.134  13.028   9.165
 1451POPC   C1A21135  42.368  12.656   8.735
 1451POPC   D2A21136  42.688  12.702   8.417
 1451POPC   C3A21137  42.497  12.618   8.026
 1451POPC   C4A21138  42.094  12.632   7.795
 1451POPC   C1B21139  42.212  13.149   8.736
 1451POPC   C2B21140  42.299  13.018   8.288
 1451POPC   C3B21141  42.289  13.086   7.806
 1451POPC   C4B21142  42.073  12.983   7.394
 1452POPC   NC321143  11.491  38.883   9.597
 1452POPC   PO421144  11.179  38.307   9.440
 1452POPC   GL121145  11.162  38.495   9.042
 1452POPC   GL221146  11.290  38.813   9.147
 1452POPC   C1A21147  11.068  38.295   8.675
 1452POPC   D2A21148  10.967  38.112   8.280
 1452POPC   C3A21149  10.957  38.356   7.894
 1452POPC   C4A21150  11.279  38.266   7.589
 1452POPC   C1B21151  11.557  38.729   8.801
 1452POPC   C2B21152  11.366  38.617   8.431
 1452POPC   C3B21153  11.421  38.370   8.092
 1452POPC   C4B21154  11.712  38.490   7.786
 1453POPC   NC321155  16.430  13.692   9.481
 1453POPC   PO421156  15.763  13.485   9.473
 1453POPC   GL121157  16.042  13.619   9.131
 1453POPC   GL221158  16.185  13.971   9.096
 1453POPC   C1A21159  15.998  13.534   8.704
 1453POPC   D2A21160  16.010  13.637   8.293
 1453POPC   C3A21161  16.074  13.261   8.113
 1453POPC   C4A21162  16.061  13.345   7.717
 1453POPC   C1B21163  15.780  13.968   8.857
 1453POPC   C2B21164  15.692  14.046   8.426
 1453POPC   C3B21165  15.609  13.870   8.025
 1453POPC   C4B21166  15.935  13.845   7.740
 1454POPC   NC321167  30.627   9.556   9.564
 1454POPC   PO421168  30.912  10.106   9.508
 1454POPC   GL121169  30.514   9.962   9.270
 1454POPC   GL221170  30.381  10.218   9.046
 1454POPC   C1A21171  30.436   9.721   8.888
 1454POPC   D2A21172  30.703   9.598   8.557
 1454POPC   C3A21173  30.583   9.824   8.178
 1454POPC   C4A21174  30.628   9.641   7.765
 1454POPC   C1B21175  30.776  10.114   8.828
 1454POPC   C2B21176  31.018  10.000   8.466
 1454POPC   C3B21177  31.012  10.071   8.014
 1454POPC   C4B21178  30.658  10.140   7.743
 1455POPC   NC321179  20.885  36.134   9.524
 1455POPC   PO421180  20.236  36.183   9.625
 1455POPC   GL121181  20.443  35.921   9.303
 1455POPC   GL221182  20.555  36.241   9.155
 1455POPC   C1A21183  20.486  35.843   8.850
 1455POPC   D2A21184  20.569  35.987   8.444
 1455POPC   C3A21185  20.689  35.707   8.131
 1455POPC   C4A21186  20.660  35.860   7.733
 1455POPC   C1B21187  20.812  36.282   8.796
 1455POPC   C2B21188  20.791  36.450   8.369
 1455POPC   C3B21189  20.673  36.304   7.955
 1455POPC   C4B21190  20.727  36.308   7.485
 1456POPC   NC321191  40.372  30.321   9.694
 1456POPC   PO421192  40.329  30.958   9.512
 1456POPC   GL121193  40.230  30.896   9.086
 1456POPC   GL221194  40.200  30.536   9.102
 1456POPC   C1A21195  40.074  30.958   8.648
 1456POPC   D2A21196  40.139  30.990   8.168
 1456POPC   C3A21197  39.740  30.979   7.949
 1456POPC   C4A21198  39.657  30.617   7.711
 1456POPC   C1B21199  40.243  30.259   8.717
 1456POPC   C2B21200  40.036  30.034   8.354
 1456POPC   C3B21201  39.903  30.250   7.978
 1456POPC   C4B21202  40.234  30.543   7.852
 1457POPC   NC321203  44.541   5.019   9.550
 1457POPC   PO421204   0.014   5.412   9.435
 1457POPC   GL121205  44.866   5.079   9.137
 1457POPC   GL221206  44.481   5.023   9.056
 1457POPC   C1A21207  44.927   5.114   8.695
 1457POPC   D2A21208  44.707   5.436   8.473
 1457POPC   C3A21209  44.785   5.404   8.019
 1457POPC   C4A21210  44.614   5.332   7.623
 1457POPC   C1B21211  44.432   5.040   8.629
 1457POPC   C2B21212  44.485   5.043   8.218
 1457POPC   C3B21213  44.367   4.926   7.825
 1457POPC   C4B21214  44.556   4.792   7.445
 1458POPC   NC321215  33.619  37.260   9.627
 1458POPC   PO421216  34.250  37.223   9.558
 1458POPC   GL121217  33.954  37.042   9.185
 1458POPC   GL221218  33.591  37.067   9.175
 1458POPC   C1A21219  33.704  36.832   8.744
 1458POPC   D2A21220  33.641  36.735   8.259
 1458POPC   C3A21221  33.926  36.938   7.955
 1458POPC   C4A21222  34.082  36.860   7.542
 1458POPC   C1B21223  33.763  37.324   8.820
 1458POPC   C2B21224  33.670  37.237   8.396
 1458POPC   C3B21225  33.499  37.214   8.008
 1458POPC   C4B21226  33.639  37.322   7.624
 1459POPC   NC321227  27.841  12.566   9.550
 1459POPC   PO421228  27.897  13.142   9.314
 1459POPC   GL121229  27.710  12.826   9.106
 1459POPC   GL221230  28.013  12.819   8.927
 1459POPC   C1A21231  27.558  12.533   8.776
 1459POPC   D2A21232  27.632  12.302   8.377
 1459POPC   C3A21233  27.516  12.481   7.987
 1459POPC   C4A21234  27.445  12.810   7.686
 1459POPC   C1B21235  27.722  13.031   8.631
 1459POPC   C2B21236  27.630  12.931   8.218
 1459POPC   C3B21237  27.899  12.829   7.872
 1459POPC   C4B21238  27.855  13.056   7.444
 1460POPC   NC321239  16.857   5.236   9.471
 1460POPC   PO421240  16.951   4.609   9.641
 1460POPC   GL121241  16.656   4.807   9.248
 1460POPC   GL221242  16.415   5.146   9.191
 1460POPC   C1A21243  16.685   4.901   8.771
 1460POPC   D2A21244  16.965   4.892   8.383
 1460POPC   C3A21245  16.783   4.790   7.972
 1460POPC   C4A21246  16.852   4.939   7.538
 1460POPC   C1B21247  16.242   5.149   8.729
 1460POPC   C2B21248  16.399   5.015   8.275
 1460POPC   C3B21249  16.431   5.135   7.786
 1460POPC   C4B21250  16.573   5.339   7.357
 1461POPC   NC321251   6.304  18.694   9.546
 1461POPC   PO421252   6.934  19.066   9.515
 1461POPC   GL121253   6.662  18.998   9.176
 1461POPC   GL221254   6.610  18.660   9.127
 1461POPC   C1A21255   6.589  19.151   8.762
 1461POPC   D2A21256   6.556  18.930   8.339
 1461POPC   C3A21257   6.521  18.991   7.891
 1461POPC   C4A21258   6.396  19.301   7.606
 1461POPC   C1B21259   6.917  18.752   8.757
 1461POPC   C2B21260   6.906  18.538   8.347
 1461POPC   C3B21261   6.823  18.569   7.883
 1461POPC   C4B21262   7.004  18.794   7.527
 1462POPC   NC321263  16.778   6.985   9.649
 1462POPC   PO421264  16.870   6.311   9.551
 1462POPC   GL121265  16.685   6.585   9.272
 1462POPC   GL221266  16.956   6.806   9.199
 1462POPC   C1A21267  16.442   6.725   8.914
 1462POPC   D2A21268  16.513   6.973   8.533
 1462POPC   C3A21269  16.567   6.800   8.127
 1462POPC   C4A21270  16.504   6.626   7.725
 1462POPC   C1B21271  16.944   6.727   8.798
 1462POPC   C2B21272  17.014   6.893   8.402
 1462POPC   C3B21273  17.064   6.774   8.007
 1462POPC   C4B21274  16.945   6.837   7.592
 1463POPC   NC321275  25.737  38.970   9.460
 1463POPC   PO421276  26.219  38.537   9.582
 1463POPC   GL121277  26.202  38.480   9.160
 1463POPC   GL221278  25.854  38.333   9.105
 1463POPC   C1A21279  26.420  38.776   8.863
 1463POPC   D2A21280  26.468  38.862   8.426
 1463POPC   C3A21281  26.157  38.742   8.152
 1463POPC   C4A21282  26.002  38.539   7.780
 1463POPC   C1B21283  25.948  38.313   8.650
 1463POPC   C2B21284  25.919  38.289   8.207
 1463POPC   C3B21285  25.766  38.109   7.845
 1463POPC   C4B21286  25.712  38.268   7.430
 1464POPC   NC321287   5.152  18.052   9.707
 1464POPC   PO421288   4.895  18.632   9.800
 1464POPC   GL121289   4.979  18.332   9.344
 1464POPC   GL221290   5.317  18.212   9.232
 1464POPC   C1A21291   4.994  18.310   8.844
 1464POPC   D2A21292   5.167  18.229   8.438
 1464POPC   C3A21293   5.085  18.430   8.063
 1464POPC   C4A21294   4.855  18.397   7.656
 1464POPC   C1B21295   5.356  17.954   8.833
 1464POPC   C2B21296   5.569  17.954   8.380
 1464POPC   C3B21297   5.430  18.012   7.935
 1464POPC   C4B21298   5.420  17.896   7.461
 1465POPC   NC321299  33.239   6.426   9.553
 1465POPC   PO421300  32.637   6.749   9.515
 1465POPC   GL121301  32.942   6.743   9.226
 1465POPC   GL221302  32.773   7.001   9.091
 1465POPC   C1A21303  33.038   6.523   8.848
 1465POPC   D2A21304  33.191   6.677   8.435
 1465POPC   C3A21305  33.333   6.506   8.044
 1465POPC   C4A21306  33.174   6.628   7.662
 1465POPC   C1B21307  32.773   7.140   8.744
 1465POPC   C2B21308  32.734   6.928   8.403
 1465POPC   C3B21309  32.562   6.940   8.031
 1465POPC   C4B21310  32.685   7.092   7.628
 1466POPC   NC321311   6.019   5.041   9.461
 1466POPC   PO421312   5.391   4.705   9.518
 1466POPC   GL121313   5.603   4.921   9.143
 1466POPC   GL221314   5.712   5.292   9.129
 1466POPC   C1A21315   5.762   4.927   8.711
 1466POPC   D2A21316   5.647   5.021   8.293
 1466POPC   C3A21317   5.886   4.923   7.916
 1466POPC   C4A21318   5.793   5.101   7.508
 1466POPC   C1B21319   5.995   5.414   8.801
 1466POPC   C2B21320   6.073   5.272   8.389
 1466POPC   C3B21321   6.216   5.341   7.989
 1466POPC   C4B21322   6.320   5.545   7.607
 1467POPC   NC321323  16.163  25.816   9.487
 1467POPC   PO421324  15.619  26.188   9.722
 1467POPC   GL121325  15.765  26.099   9.231
 1467POPC   GL221326  15.893  25.757   9.083
 1467POPC   C1A21327  15.865  26.099   8.732
 1467POPC   D2A21328  15.792  25.849   8.353
 1467POPC   C3A21329  15.803  26.072   7.945
 1467POPC   C4A21330  15.992  26.218   7.526
 1467POPC   C1B21331  16.257  25.759   8.743
 1467POPC   C2B21332  16.331  25.885   8.302
 1467POPC   C3B21333  16.219  25.824   7.829
 1467POPC   C4B21334  16.220  25.798   7.332
 1468POPC   NC321335  25.254  19.511   9.545
 1468POPC   PO421336  24.753  19.875   9.415
 1468POPC   GL121337  25.149  19.717   9.098
 1468POPC   GL221338  25.557  19.610   9.162
 1468POPC   C1A21339  25.231  19.683   8.646
 1468POPC   D2A21340  24.976  19.673   8.256
 1468POPC   C3A21341  25.093  20.007   8.005
 1468POPC   C4A21342  25.272  20.262   7.737
 1468POPC   C1B21343  25.674  19.916   8.874
 1468POPC   C2B21344  25.680  19.849   8.443
 1468POPC   C3B21345  25.685  19.513   8.140
 1468POPC   C4B21346  25.315  19.543   7.861
 1469POPC   NC321347  15.405  30.465   9.483
 1469POPC   PO421348  14.922  30.892   9.470
 1469POPC   GL121349  15.097  30.750   9.112
 1469POPC   GL221350  15.047  30.401   9.096
 1469POPC   C1A21351  15.204  30.712   8.672
 1469POPC   D2A21352  15.448  30.962   8.402
 1469POPC   C3A21353  15.356  30.887   8.012
 1469POPC   C4A21354  15.473  30.603   7.719
 1469POPC   C1B21355  14.743  30.477   8.781
 1469POPC   C2B21356  14.771  30.641   8.330
 1469POPC   C3B21357  15.012  30.517   7.951
 1469POPC   C4B21358  14.951  30.501   7.492
 1470POPC   NC321359  17.007   4.180   9.460
 1470POPC   PO421360  17.705   4.269   9.570
 1470POPC   GL121361  17.582   4.324   9.172
 1470POPC   GL221362  17.877   4.433   9.099
 1470POPC   C1A21363  17.532   4.213   8.747
 1470POPC   D2A21364  17.302   4.228   8.375
 1470POPC   C3A21365  17.365   4.591   8.132
 1470POPC   C4A21366  17.610   4.581   7.768
 1470POPC   C1B21367  17.936   4.550   8.701
 1470POPC   C2B21368  17.804   4.318   8.314
 1470POPC   C3B21369  18.002   4.267   7.926
 1470POPC   C4B21370  17.935   4.167   7.496
 1471POPC   NC321371  34.810   6.721   9.362
 1471POPC   PO421372  34.394   6.226   9.564
 1471POPC   GL121373  34.636   6.294   9.153
 1471POPC   GL221374  34.408   6.594   9.095
 1471POPC   C1A21375  34.965   6.457   8.789
 1471POPC   D2A21376  35.030   6.304   8.359
 1471POPC   C3A21377  34.945   6.568   7.992
 1471POPC   C4A21378  34.735   6.703   7.592
 1471POPC   C1B21379  34.487   6.470   8.700
 1471POPC   C2B21380  34.618   6.609   8.365
 1471POPC   C3B21381  34.399   6.525   8.032
 1471POPC   C4B21382  34.191   6.673   7.692
 1472POPC   NC321383  17.125  10.935   9.428
 1472POPC   PO421384  17.530  11.511   9.506
 1472POPC   GL121385  17.316  11.364   9.195
 1472POPC   GL221386  17.550  11.099   9.158
 1472POPC   C1A21387  17.213  11.229   8.783
 1472POPC   D2A21388  17.313  11.448   8.422
 1472POPC   C3A21389  17.113  11.328   8.097
 1472POPC   C4A21390  17.228  11.045   7.824
 1472POPC   C1B21391  17.701  11.386   8.847
 1472POPC   C2B21392  17.738  11.169   8.468
 1472POPC   C3B21393  17.732  11.401   8.096
 1472POPC   C4B21394  17.464  11.515   7.791
 1473POPC   NC321395  11.341  11.604   9.563
 1473POPC   PO421396  11.146  12.242   9.479
 1473POPC   GL121397  11.447  12.071   9.167
 1473POPC   GL221398  11.485  11.736   9.112
 1473POPC   C1A21399  11.507  12.216   8.780
 1473POPC   D2A21400  11.237  12.192   8.438
 1473POPC   C3A21401  11.455  12.138   8.072
 1473POPC   C4A21402  11.209  12.292   7.749
 1473POPC   C1B21403  11.120  11.843   8.849
 1473POPC   C2B21404  11.124  11.681   8.455
 1473POPC   C3B21405  11.076  11.834   8.055
 1473POPC   C4B21406  11.291  11.757   7.711
 1474POPC   NC321407  33.559  27.037   9.479
 1474POPC   PO421408  32.899  26.930   9.651
 1474POPC   GL121409  32.874  26.920   9.182
 1474POPC   GL221410  32.708  27.241   9.123
 1474POPC   C1A21411  32.945  26.640   8.796
 1474POPC   D2A21412  33.185  26.567   8.405
 1474POPC   C3A21413  33.047  26.688   8.009
 1474POPC   C4A21414  32.841  26.527   7.647
 1474POPC   C1B21415  33.008  27.145   8.726
 1474POPC   C2B21416  33.095  27.162   8.254
 1474POPC   C3B21417  33.404  27.098   7.932
 1474POPC   C4B21418  33.290  26.826   7.589
 1475POPC   NC321419  34.103  22.632   9.442
 1475POPC   PO421420  34.660  22.967   9.643
 1475POPC   GL121421  34.590  22.998   9.230
 1475POPC   GL221422  34.261  23.118   9.306
 1475POPC   C1A21423  34.693  23.012   8.787
 1475POPC   D2A21424  34.530  22.834   8.395
 1475POPC   C3A21425  34.657  23.002   7.988
 1475POPC   C4A21426  34.558  22.680   7.704
 1475POPC   C1B21427  34.210  23.192   8.871
 1475POPC   C2B21428  34.081  23.102   8.459
 1475POPC   C3B21429  34.209  23.263   8.073
 1475POPC   C4B21430  34.112  22.971   7.754
 1476POPC   NC321431  36.397  42.287   9.732
 1476POPC   PO421432  35.847  42.371   9.310
 1476POPC   GL121433  36.102  42.273   9.014
 1476POPC   GL221434  36.391  42.081   9.191
 1476POPC   C1A21435  36.149  42.509   8.628
 1476POPC   D2A21436  35.871  42.488   8.269
 1476POPC   C3A21437  36.084  42.459   7.934
 1476POPC   C4A21438  36.198  42.450   7.531
 1476POPC   C1B21439  36.384  41.995   8.735
 1476POPC   C2B21440  36.352  42.133   8.316
 1476POPC   C3B21441  36.407  42.068   7.896
 1476POPC   C4B21442  36.126  41.826   7.665
 1477POPC   NC321443  15.428  10.573   9.528
 1477POPC   PO421444  14.743  10.350   9.672
 1477POPC   GL121445  15.099  10.295   9.242
 1477POPC   GL221446  15.128  10.669   9.124
 1477POPC   C1A21447  15.183  10.322   8.758
 1477POPC   D2A21448  15.182  10.637   8.429
 1477POPC   C3A21449  14.945  10.607   8.055
 1477POPC   C4A21450  14.946  10.440   7.676
 1477POPC   C1B21451  15.512  10.741   8.867
 1477POPC   C2B21452  15.687  10.577   8.474
 1477POPC   C3B21453  15.513  10.437   8.079
 1477POPC   C4B21454  15.395  10.674   7.759
 1478POPC   NC321455   8.767  44.921   9.606
 1478POPC   PO421456   9.271  44.475   9.500
 1478POPC   GL121457   8.923  44.386   9.258
 1478POPC   GL221458   8.794  44.673   9.148
 1478POPC   C1A21459   8.924  44.184   8.868
 1478POPC   D2A21460   9.001  44.180   8.447
 1478POPC   C3A21461   9.015  44.516   8.176
 1478POPC   C4A21462   9.167  44.580   7.788
 1478POPC   C1B21463   9.012  44.681   8.735
 1478POPC   C2B21464   9.014  44.968   8.393
 1478POPC   C3B21465   8.884   0.007   7.972
 1478POPC   C4B21466   9.091   0.017   7.545
 1479POPC   NC321467  24.718  32.159   9.564
 1479POPC   PO421468  24.108  32.003   9.559
 1479POPC   GL121469  24.353  32.198   9.205
 1479POPC   GL221470  24.590  32.511   9.208
 1479POPC   C1A21471  24.469  32.117   8.790
 1479POPC   D2A21472  24.382  31.929   8.360
 1479POPC   C3A21473  24.471  32.153   7.951
 1479POPC   C4A21474  24.516  32.358   7.539
 1479POPC   C1B21475  24.787  32.519   8.806
 1479POPC   C2B21476  24.567  32.438   8.404
 1479POPC   C3B21477  24.658  32.614   8.035
 1479POPC   C4B21478  24.867  32.705   7.694
 1480POPC   NC321479  28.449  12.657   9.343
 1480POPC   PO421480  28.244  13.096   9.714
 1480POPC   GL121481  28.368  13.109   9.188
 1480POPC   GL221482  28.602  13.281   9.044
 1480POPC   C1A21483  28.512  12.882   8.755
 1480POPC   D2A21484  28.636  13.113   8.390
 1480POPC   C3A21485  28.506  12.874   7.981
 1480POPC   C4A21486  28.314  12.827   7.541
 1480POPC   C1B21487  28.220  13.277   8.735
 1480POPC   C2B21488  28.133  13.106   8.302
 1480POPC   C3B21489  28.179  13.225   7.838
 1480POPC   C4B21490  28.585  13.250   7.596
 1481POPC   NC321491  14.303   1.658   9.376
 1481POPC   PO421492  14.471   2.263   9.537
 1481POPC   GL121493  14.583   2.117   9.153
 1481POPC   GL221494  14.263   2.068   9.023
 1481POPC   C1A21495  14.749   2.259   8.743
 1481POPC   D2A21496  14.636   2.197   8.301
 1481POPC   C3A21497  14.832   2.374   7.952
 1481POPC   C4A21498  14.655   2.357   7.519
 1481POPC   C1B21499  14.396   1.909   8.643
 1481POPC   C2B21500  14.449   1.711   8.236
 1481POPC   C3B21501  14.474   1.964   7.872
 1481POPC   C4B21502  14.444   1.851   7.443
 1482POPC   NC321503  28.511  31.247   9.615
 1482POPC   PO421504  27.925  31.162   9.535
 1482POPC   GL121505  28.147  31.431   9.218
 1482POPC   GL221506  28.526  31.413   9.146
 1482POPC   C1A21507  28.213  31.442   8.758
 1482POPC   D2A21508  28.337  31.275   8.365
 1482POPC   C3A21509  28.220  31.425   7.990
 1482POPC   C4A21510  28.309  31.499   7.591
 1482POPC   C1B21511  28.703  31.651   8.813
 1482POPC   C2B21512  28.810  31.485   8.433
 1482POPC   C3B21513  28.723  31.441   8.005
 1482POPC   C4B21514  28.990  31.208   7.781
 1483POPC   NC321515   4.438  27.402   9.606
 1483POPC   PO421516   3.933  27.844   9.614
 1483POPC   GL121517   4.123  27.619   9.214
 1483POPC   GL221518   4.443  27.752   9.258
 1483POPC   C1A21519   4.239  27.479   8.737
 1483POPC   D2A21520   4.073  27.254   8.342
 1483POPC   C3A21521   4.133  27.390   7.906
 1483POPC   C4A21522   4.517  27.394   7.660
 1483POPC   C1B21523   4.595  27.806   8.873
 1483POPC   C2B21524   4.682  27.697   8.459
 1483POPC   C3B21525   4.530  27.704   8.068
 1483POPC   C4B21526   4.728  27.864   7.714
 1484POPC   NC321527  16.740  28.362  10.080
 1484POPC   PO421528  16.690  28.516   9.450
 1484POPC   GL121529  16.790  28.314   9.123
 1484POPC   GL221530  16.507  28.145   9.015
 1484POPC   C1A21531  16.862  28.473   8.780
 1484POPC   D2A21532  16.766  28.684   8.438
 1484POPC   C3A21533  16.735  28.458   8.110
 1484POPC   C4A21534  16.994  28.376   7.783
 1484POPC   C1B21535  16.507  28.157   8.595
 1484POPC   C2B21536  16.298  28.230   8.252
 1484POPC   C3B21537  16.419  28.128   7.875
 1484POPC   C4B21538  16.325  28.209   7.480
 1485POPC   NC321539   0.509   6.934   9.526
 1485POPC   PO421540   0.268   7.546   9.480
 1485POPC   GL121541   0.651   7.416   9.262
 1485POPC   GL221542   0.461   7.195   9.086
 1485POPC   C1A21543   0.774   7.492   8.829
 1485POPC   D2A21544   0.582   7.272   8.470
 1485POPC   C3A21545   0.513   7.461   8.060
 1485POPC   C4A21546   0.119   7.539   7.826
 1485POPC   C1B21547   0.159   7.107   8.758
 1485POPC   C2B21548   0.196   6.975   8.316
 1485POPC   C3B21549   0.046   7.027   7.908
 1485POPC   C4B21550   0.059   7.103   7.439
 1486POPC   NC321551  13.573  38.119   9.567
 1486POPC   PO421552  12.900  38.253   9.599
 1486POPC   GL121553  13.267  38.420   9.273
 1486POPC   GL221554  13.539  38.188   9.070
 1486POPC   C1A21555  13.350  38.575   8.822
 1486POPC   D2A21556  13.474  38.262   8.486
 1486POPC   C3A21557  13.349  38.313   8.030
 1486POPC   C4A21558  13.479  38.698   7.801
 1486POPC   C1B21559  13.855  38.440   8.804
 1486POPC   C2B21560  13.837  38.714   8.415
 1486POPC   C3B21561  13.944  38.898   7.983
 1486POPC   C4B21562  13.941  38.751   7.546
 1487POPC   NC321563  41.433  25.430   9.525
 1487POPC   PO421564  41.630  24.821   9.518
 1487POPC   GL121565  41.644  25.045   9.081
 1487POPC   GL221566  41.440  25.327   9.038
 1487POPC   C1A21567  41.696  25.202   8.628
 1487POPC   D2A21568  41.487  25.049   8.247
 1487POPC   C3A21569  41.714  25.110   7.903
 1487POPC   C4A21570  41.886  25.463   8.092
 1487POPC   C1B21571  41.217  25.489   8.693
 1487POPC   C2B21572  41.418  25.590   8.307
 1487POPC   C3B21573  41.389  25.488   7.883
 1487POPC   C4B21574  41.365  25.264   7.474
 1488POPC   NC321575  35.208  44.393   9.558
 1488POPC   PO421576  35.711  44.781   9.528
 1488POPC   GL121577  35.536  44.547   9.156
 1488POPC   GL221578  35.162  44.651   9.115
 1488POPC   C1A21579  35.477  44.549   8.689
 1488POPC   D2A21580  35.192  44.665   8.385
 1488POPC   C3A21581  35.290  44.751   7.979
 1488POPC   C4A21582  35.531  44.801   7.632
 1488POPC   C1B21583  35.083  44.261   8.910
 1488POPC   C2B21584  35.084  44.178   8.478
 1488POPC   C3B21585  35.025  44.313   8.046
 1488POPC   C4B21586  35.268  44.363   7.660
 1489POPC   NC321587  21.767  24.242   9.569
 1489POPC   PO421588  21.124  24.343   9.464
 1489POPC   GL121589  21.350  24.548   9.151
 1489POPC   GL221590  21.386  24.211   9.036
 1489POPC   C1A21591  21.354  24.647   8.700
 1489POPC   D2A21592  21.496  24.827   8.309
 1489POPC   C3A21593  21.295  24.586   8.035
 1489POPC   C4A21594  21.362  24.382   7.722
 1489POPC   C1B21595  21.743  24.344   8.863
 1489POPC   C2B21596  21.787  24.439   8.459
 1489POPC   C3B21597  21.811  24.512   8.034
 1489POPC   C4B21598  21.855  24.300   7.672
 1490POPC   NC321599  12.234  16.454   9.666
 1490POPC   PO421600  11.886  16.952   9.442
 1490POPC   GL121601  11.939  16.536   9.213
 1490POPC   GL221602  12.318  16.464   9.124
 1490POPC   C1A21603  11.948  16.508   8.757
 1490POPC   D2A21604  12.238  16.566   8.426
 1490POPC   C3A21605  11.937  16.657   8.120
 1490POPC   C4A21606  11.931  16.586   7.712
 1490POPC   C1B21607  12.282  16.883   8.861
 1490POPC   C2B21608  12.216  17.078   8.437
 1490POPC   C3B21609  12.331  16.938   8.017
 1490POPC   C4B21610  12.671  17.015   7.795
 1491POPC   NC321611   0.917  26.437   9.631
 1491POPC   PO421612   1.332  27.009   9.499
 1491POPC   GL121613   1.061  26.761   9.249
 1491POPC   GL221614   1.047  27.060   9.077
 1491POPC   C1A21615   1.020  26.596   8.816
 1491POPC   D2A21616   1.153  26.700   8.396
 1491POPC   C3A21617   0.922  26.524   8.032
 1491POPC   C4A21618   1.002  26.727   7.656
 1491POPC   C1B21619   1.341  27.111   8.768
 1491POPC   C2B21620   1.327  27.277   8.361
 1491POPC   C3B21621   1.221  27.070   7.983
 1491POPC   C4B21622   1.336  27.085   7.534
 1492POPC   NC321623  37.663  21.273   9.573
 1492POPC   PO421624  38.246  21.648   9.504
 1492POPC   GL121625  37.917  21.686   9.153
 1492POPC   GL221626  37.598  21.431   9.114
 1492POPC   C1A21627  37.674  21.732   8.739
 1492POPC   D2A21628  37.551  21.479   8.392
 1492POPC   C3A21629  37.707  21.695   8.025
 1492POPC   C4A21630  37.833  21.586   7.591
 1492POPC   C1B21631  37.487  21.114   8.786
 1492POPC   C2B21632  37.690  20.952   8.400
 1492POPC   C3B21633  37.845  21.186   8.078
 1492POPC   C4B21634  37.495  21.272   7.832
 1493POPC   NC321635  22.872  20.430   9.505
 1493POPC   PO421636  23.363  20.860   9.520
 1493POPC   GL121637  23.136  20.731   9.152
 1493POPC   GL221638  23.125  20.381   9.069
 1493POPC   C1A21639  22.770  20.692   8.878
 1493POPC   D2A21640  22.742  20.810   8.458
 1493POPC   C3A21641  22.529  20.539   8.171
 1493POPC   C4A21642  22.705  20.585   7.794
 1493POPC   C1B21643  23.197  20.501   8.632
 1493POPC   C2B21644  23.058  20.495   8.203
 1493POPC   C3B21645  23.231  20.586   7.838
 1493POPC   C4B21646  23.505  20.286   7.687
 1494POPC   NC321647  27.862  34.155   9.408
 1494POPC   PO421648  28.455  33.805   9.557
 1494POPC   GL121649  28.361  33.958   9.191
 1494POPC   GL221650  28.744  33.948   9.154
 1494POPC   C1A21651  28.178  33.815   8.808
 1494POPC   D2A21652  28.349  33.607   8.460
 1494POPC   C3A21653  28.296  33.841   8.117
 1494POPC   C4A21654  28.169  33.719   7.721
 1494POPC   C1B21655  28.743  33.708   8.776
 1494POPC   C2B21656  28.840  33.469   8.372
 1494POPC   C3B21657  28.608  33.447   7.967
 1494POPC   C4B21658  28.649  33.833   7.727
 1495POPC   NC321659   6.323   7.817   9.488
 1495POPC   PO421660   5.865   8.293   9.457
 1495POPC   GL121661   5.826   8.307   9.090
 1495POPC   GL221662   5.882   7.964   9.000
 1495POPC   C1A21663   6.014   8.415   8.727
 1495POPC   D2A21664   5.846   8.532   8.343
 1495POPC   C3A21665   5.811   8.195   8.066
 1495POPC   C4A21666   5.850   8.514   7.790
 1495POPC   C1B21667   6.245   7.923   8.717
 1495POPC   C2B21668   6.268   7.934   8.247
 1495POPC   C3B21669   6.394   7.915   7.801
 1495POPC   C4B21670   6.023   8.092   7.575
 1496POPC   NC321671   0.078  27.680   9.302
 1496POPC   PO421672  44.591  27.769   9.750
 1496POPC   GL121673  44.542  27.800   9.287
 1496POPC   GL221674  44.555  27.448   9.246
 1496POPC   C1A21675  44.635  27.886   8.852
 1496POPC   D2A21676  44.900  27.778   8.532
 1496POPC   C3A21677  44.556  27.730   8.291
 1496POPC   C4A21678  44.461  27.688   7.894
 1496POPC   C1B21679  44.740  27.361   8.833
 1496POPC   C2B21680  44.732  27.250   8.402
 1496POPC   C3B21681  44.930  27.475   8.083
 1496POPC   C4B21682  44.828  27.373   7.708
 1497POPC   NC321683  29.421  13.193   9.571
 1497POPC   PO421684  28.844  12.904   9.415
 1497POPC   GL121685  29.120  13.054   9.149
 1497POPC   GL221686  29.270  12.762   9.018
 1497POPC   C1A21687  29.019  13.210   8.757
 1497POPC   D2A21688  29.191  13.143   8.372
 1497POPC   C3A21689  28.955  13.197   8.003
 1497POPC   C4A21690  29.207  13.215   7.680
 1497POPC   C1B21691  28.989  12.697   8.683
 1497POPC   C2B21692  28.922  12.716   8.238
 1497POPC   C3B21693  29.229  12.741   7.944
 1497POPC   C4B21694  29.239  12.515   7.571
 1498POPC   NC321695  38.031  17.435   9.444
 1498POPC   PO421696  38.638  17.768   9.494
 1498POPC   GL121697  38.479  17.535   9.161
 1498POPC   GL221698  38.205  17.752   9.073
 1498POPC   C1A21699  38.607  17.320   8.779
 1498POPC   D2A21700  38.743  17.472   8.378
 1498POPC   C3A21701  38.458  17.351   8.050
 1498POPC   C4A21702  38.642  17.099   7.737
 1498POPC   C1B21703  38.374  17.753   8.655
 1498POPC   C2B21704  38.433  17.860   8.223
 1498POPC   C3B21705  38.451  17.839   7.781
 1498POPC   C4B21706  38.254  17.858   7.353
 1499POPC   NC321707   6.813  17.834   9.571
 1499POPC   PO421708   6.782  17.197   9.521
 1499POPC   GL121709   6.636  17.310   9.127
 1499POPC   GL221710   6.286  17.289   9.178
 1499POPC   C1A21711   6.746  17.288   8.682
 1499POPC   D2A21712   6.923  17.496   8.290
 1499POPC   C3A21713   6.916  17.263   7.894
 1499POPC   C4A21714   6.628  17.421   7.518
 1499POPC   C1B21715   6.249  17.504   8.789
 1499POPC   C2B21716   6.387  17.494   8.366
 1499POPC   C3B21717   6.490  17.667   7.972
 1499POPC   C4B21718   6.219  17.873   7.659
 1500POPC   NC321719  28.793   8.457   9.758
 1500POPC   PO421720  28.546   7.997   9.308
 1500POPC   GL121721  28.303   8.211   9.019
 1500POPC   GL221722  28.565   8.224   8.821
 1500POPC   C1A21723  28.130   8.059   8.648
 1500POPC   D2A21724  28.229   8.310   8.344
 1500POPC   C3A21725  28.130   8.114   7.965
 1500POPC   C4A21726  28.183   7.954   7.515
 1500POPC   C1B21727  28.577   8.623   8.637
 1500POPC   C2B21728  28.504   8.736   8.255
 1500POPC   C3B21729  28.529   8.439   7.948
 1500POPC   C4B21730  28.318   8.421   7.552
 1501POPC   NC321731  18.694  22.587   9.547
 1501POPC   PO421732  19.098  23.156   9.476
 1501POPC   GL121733  19.033  22.819   9.200
 1501POPC   GL221734  18.705  22.943   9.188
 1501POPC   C1A21735  19.093  22.704   8.764
 1501POPC   D2A21736  19.336  22.833   8.364
 1501POPC   C3A21737  19.231  22.727   7.943
 1501POPC   C4A21738  19.087  22.915   7.541
 1501POPC   C1B21739  18.638  22.964   8.787
 1501POPC   C2B21740  18.806  22.917   8.389
 1501POPC   C3B21741  18.739  22.904   7.967
 1501POPC   C4B21742  18.645  23.156   7.634
 1502POPC   NC321743   2.721  27.634   9.436
 1502POPC   PO421744   2.339  28.160   9.534
 1502POPC   GL121745   2.575  27.988   9.094
 1502POPC   GL221746   2.976  27.972   9.069
 1502POPC   C1A21747   2.737  27.744   8.689
 1502POPC   D2A21748   2.949  27.481   8.355
 1502POPC   C3A21749   2.726  27.547   7.983
 1502POPC   C4A21750   2.610  27.989   7.864
 1502POPC   C1B21751   3.224  27.912   8.655
 1502POPC   C2B21752   3.114  27.995   8.231
 1502POPC   C3B21753   3.152  27.773   7.854
 1502POPC   C4B21754   3.220  27.298   7.865
 1503POPC   NC321755   7.861  24.081   9.609
 1503POPC   PO421756   8.316  23.503   9.745
 1503POPC   GL121757   8.209  23.618   9.258
 1503POPC   GL221758   7.886  23.771   9.209
 1503POPC   C1A21759   8.354  23.781   8.850
 1503POPC   D2A21760   8.391  23.923   8.428
 1503POPC   C3A21761   8.349  23.621   8.091
 1503POPC   C4A21762   8.284  23.629   7.671
 1503POPC   C1B21763   7.831  23.765   8.775
 1503POPC   C2B21764   7.888  23.686   8.323
 1503POPC   C3B21765   7.818  23.730   7.867
 1503POPC   C4B21766   7.776  24.001   7.540
 1504POPC   NC321767  21.326   3.948   9.754
 1504POPC   PO421768  21.635   3.414   9.390
 1504POPC   GL121769  21.370   3.338   9.072
 1504POPC   GL221770  21.025   3.255   9.177
 1504POPC   C1A21771  21.410   3.542   8.668
 1504POPC   D2A21772  21.442   3.488   8.276
 1504POPC   C3A21773  21.702   3.632   7.992
 1504POPC   C4A21774  21.572   3.553   7.634
 1504POPC   C1B21775  21.062   3.128   8.745
 1504POPC   C2B21776  21.136   3.084   8.335
 1504POPC   C3B21777  21.084   3.368   7.962
 1504POPC   C4B21778  21.085   3.210   7.609
 1505POPC   NC321779   9.409  28.190   9.898
 1505POPC   PO421780   8.742  28.340   9.599
 1505POPC   GL121781   8.832  28.405   9.140
 1505POPC   GL221782   9.188  28.425   9.104
 1505POPC   C1A21783   8.641  28.483   8.675
 1505POPC   D2A21784   8.662  28.623   8.237
 1505POPC   C3A21785   8.959  28.470   7.924
 1505POPC   C4A21786   8.890  28.502   7.480
 1505POPC   C1B21787   9.014  28.133   8.757
 1505POPC   C2B21788   9.027  28.157   8.323
 1505POPC   C3B21789   8.915  27.930   7.961
 1505POPC   C4B21790   9.024  28.012   7.563
 1506POPC   NC321791  33.852   7.784   9.375
 1506POPC   PO421792  33.421   8.280   9.367
 1506POPC   GL121793  33.776   8.217   9.105
 1506POPC   GL221794  33.640   7.886   8.946
 1506POPC   C1A21795  34.095   8.438   8.834
 1506POPC   D2A21796  34.363   8.387   8.448
 1506POPC   C3A21797  34.191   8.372   8.022
 1506POPC   C4A21798  34.192   7.963   7.773
 1506POPC   C1B21799  33.939   7.997   8.659
 1506POPC   C2B21800  34.077   7.945   8.274
 1506POPC   C3B21801  33.752   8.059   7.991
 1506POPC   C4B21802  33.401   8.173   7.729
 1507POPC   NC321803  29.272  43.865   9.441
 1507POPC   PO421804  28.621  43.509   9.493
 1507POPC   GL121805  28.948  43.628   9.154
 1507POPC   GL221806  29.003  44.016   9.050
 1507POPC   C1A21807  29.134  43.577   8.715
 1507POPC   D2A21808  28.995  43.768   8.305
 1507POPC   C3A21809  29.331  43.866   7.974
 1507POPC   C4A21810  29.279  43.756   7.513
 1507POPC   C1B21811  29.284  44.230   8.797
 1507POPC   C2B21812  29.314  44.182   8.383
 1507POPC   C3B21813  29.366  44.400   8.009
 1507POPC   C4B21814  29.385  44.230   7.610
 1508POPC   NC321815  38.354  40.075   9.810
 1508POPC   PO421816  38.391  39.408   9.508
 1508POPC   GL121817  38.284  39.138   9.121
 1508POPC   GL221818  38.354  38.767   9.015
 1508POPC   C1A21819  38.479  39.142   8.688
 1508POPC   D2A21820  38.736  39.406   8.398
 1508POPC   C3A21821  38.479  39.433   8.027
 1508POPC   C4A21822  38.324  39.251   7.658
 1508POPC   C1B21823  38.816  38.782   8.846
 1508POPC   C2B21824  38.927  38.918   8.400
 1508POPC   C3B21825  38.903  39.118   7.956
 1508POPC   C4B21826  38.828  39.394   7.576
 1509POPC   NC321827  12.101   6.456   9.363
 1509POPC   PO421828  12.421   7.041   9.405
 1509POPC   GL121829  12.094   6.872   9.058
 1509POPC   GL221830  11.788   6.622   8.979
 1509POPC   C1A21831  11.947   7.000   8.623
 1509POPC   D2A21832  11.713   7.187   8.284
 1509POPC   C3A21833  11.628   6.925   7.983
 1509POPC   C4A21834  11.929   6.785   7.747
 1509POPC   C1B21835  12.016   6.481   8.669
 1509POPC   C2B21836  12.021   6.624   8.237
 1509POPC   C3B21837  12.034   6.320   7.897
 1509POPC   C4B21838  11.723   6.190   7.554
 1510POPC   NC321839  33.049   7.934   9.373
 1510POPC   PO421840  32.575   8.392   9.602
 1510POPC   GL121841  32.831   8.399   9.178
 1510POPC   GL221842  32.827   8.060   8.945
 1510POPC   C1A21843  32.981   8.502   8.730
 1510POPC   D2A21844  32.849   8.147   8.428
 1510POPC   C3A21845  32.910   8.238   8.002
 1510POPC   C4A21846  32.953   8.648   7.840
 1510POPC   C1B21847  33.251   8.089   8.738
 1510POPC   C2B21848  33.361   8.134   8.311
 1510POPC   C3B21849  33.239   7.794   8.033
 1510POPC   C4B21850  33.282   7.679   7.601
 1511POPC   NC321851  10.368  11.416   9.423
 1511POPC   PO421852  10.984  11.268   9.638
 1511POPC   GL121853  10.841  11.322   9.195
 1511POPC   GL221854  10.762  11.701   9.217
 1511POPC   C1A21855  10.584  11.186   8.799
 1511POPC   D2A21856  10.187  11.326   8.549
 1511POPC   C3A21857  10.202  11.339   8.083
 1511POPC   C4A21858  10.556  11.183   7.819
 1511POPC   C1B21859  10.575  11.689   8.806
 1511POPC   C2B21860  10.656  11.485   8.399
 1511POPC   C3B21861  10.640  11.624   8.017
 1511POPC   C4B21862  10.809  11.626   7.603
 1512POPC   NC321863  12.816  38.767   9.489
 1512POPC   PO421864  12.495  38.149   9.279
 1512POPC   GL121865  12.805  38.361   9.089
 1512POPC   GL221866  13.053  38.138   8.874
 1512POPC   C1A21867  12.848  38.575   8.745
 1512POPC   D2A21868  12.984  38.425   8.381
 1512POPC   C3A21869  12.745  38.635   8.066
 1512POPC   C4A21870  13.003  38.863   7.808
 1512POPC   C1B21871  12.644  38.109   8.649
 1512POPC   C2B21872  12.555  38.187   8.260
 1512POPC   C3B21873  12.813  38.155   7.942
 1512POPC   C4B21874  12.692  37.973   7.581
 1513POPC   NC321875  26.748  31.752   9.504
 1513POPC   PO421876  27.091  31.215   9.709
 1513POPC   GL121877  26.903  31.189   9.250
 1513POPC   GL221878  26.744  31.428   9.128
 1513POPC   C1A21879  26.915  31.128   8.771
 1513POPC   D2A21880  26.868  31.347   8.398
 1513POPC   C3A21881  26.890  31.221   7.960
 1513POPC   C4A21882  27.174  31.356   7.635
 1513POPC   C1B21883  26.819  31.723   8.804
 1513POPC   C2B21884  26.862  31.842   8.412
 1513POPC   C3B21885  27.001  31.716   8.027
 1513POPC   C4B21886  27.066  31.871   7.654
 1514POPC   NC321887   5.945  30.119   9.520
 1514POPC   PO421888   5.745  29.423   9.540
 1514POPC   GL121889   5.581  29.759   9.198
 1514POPC   GL221890   5.682  30.130   9.102
 1514POPC   C1A21891   5.646  29.850   8.707
 1514POPC   D2A21892   5.807  29.666   8.338
 1514POPC   C3A21893   5.666  29.810   7.973
 1514POPC   C4A21894   5.361  29.994   7.779
 1514POPC   C1B21895   5.966  30.238   8.772
 1514POPC   C2B21896   5.840  30.181   8.353
 1514POPC   C3B21897   5.801  30.316   7.950
 1514POPC   C4B21898   6.059  30.088   7.752
 1515POPC   NC321899   9.120  12.471   9.958
 1515POPC   PO421900   8.603  12.756   9.562
 1515POPC   GL121901   8.703  12.719   9.121
 1515POPC   GL221902   9.041  12.888   9.039
 1515POPC   C1A21903   8.844  12.580   8.705
 1515POPC   D2A21904   8.590  12.685   8.390
 1515POPC   C3A21905   8.822  12.635   8.014
 1515POPC   C4A21906   8.875  12.502   7.587
 1515POPC   C1B21907   8.918  13.071   8.629
 1515POPC   C2B21908   9.171  12.825   8.345
 1515POPC   C3B21909   9.335  12.682   7.962
 1515POPC   C4B21910   9.074  12.994   7.732
 1516POPC   NC321911  24.682  20.329   9.488
 1516POPC   PO421912  24.323  20.881   9.436
 1516POPC   GL121913  24.410  20.620   9.138
 1516POPC   GL221914  24.774  20.730   9.151
 1516POPC   C1A21915  24.179  20.538   8.754
 1516POPC   D2A21916  24.313  20.387   8.347
 1516POPC   C3A21917  24.288  20.639   7.987
 1516POPC   C4A21918  24.540  20.725   7.622
 1516POPC   C1B21919  24.689  20.623   8.715
 1516POPC   C2B21920  24.620  20.802   8.327
 1516POPC   C3B21921  24.804  20.510   8.018
 1516POPC   C4B21922  24.741  20.227   7.683
 1517POPC   NC321923   8.766  39.664   9.582
 1517POPC   PO421924   9.028  40.330   9.425
 1517POPC   GL121925   8.970  39.925   9.204
 1517POPC   GL221926   8.620  39.731   9.116
 1517POPC   C1A21927   9.136  39.893   8.833
 1517POPC   D2A21928   9.078  40.231   8.546
 1517POPC   C3A21929   9.005  40.135   8.121
 1517POPC   C4A21930   9.146  40.191   7.725
 1517POPC   C1B21931   8.631  39.976   8.781
 1517POPC   C2B21932   8.800  39.786   8.461
 1517POPC   C3B21933   8.883  39.622   8.122
 1517POPC   C4B21934   8.822  39.792   7.727
 1518POPC   NC321935  42.306   9.382   9.545
 1518POPC   PO421936  42.537  10.003   9.673
 1518POPC   GL121937  42.571   9.805   9.241
 1518POPC   GL221938  42.315   9.589   9.072
 1518POPC   C1A21939  42.611   9.900   8.795
 1518POPC   D2A21940  42.364   9.595   8.544
 1518POPC   C3A21941  42.388   9.682   8.115
 1518POPC   C4A21942  42.675   9.972   7.884
 1518POPC   C1B21943  42.066   9.932   8.856
 1518POPC   C2B21944  41.776  10.089   8.521
 1518POPC   C3B21945  41.792   9.993   8.092
 1518POPC   C4B21946  42.117   9.999   7.824
 1519POPC   NC321947  30.937  44.481   9.376
 1519POPC   PO421948  31.589  44.722   9.592
 1519POPC   GL121949  31.479  44.738   9.150
 1519POPC   GL221950  31.334  44.425   9.058
 1519POPC   C1A21951  31.321  44.902   8.739
 1519POPC   D2A21952  31.194  44.876   8.300
 1519POPC   C3A21953  31.514  44.753   7.986
 1519POPC   C4A21954  31.644  44.747   7.536
 1519POPC   C1B21955  31.092  44.440   8.667
 1519POPC   C2B21956  31.188  44.358   8.229
 1519POPC   C3B21957  31.153  44.461   7.796
 1519POPC   C4B21958  31.195  44.498   7.345
 1520POPC   NC321959  40.332  29.620   9.420
 1520POPC   PO421960  39.958  30.322   9.497
 1520POPC   GL121961  40.068  30.027   9.193
 1520POPC   GL221962  40.394  30.041   9.138
 1520POPC   C1A21963  39.923  29.842   8.816
 1520POPC   D2A21964  39.672  29.645   8.476
 1520POPC   C3A21965  39.707  29.773   8.060
 1520POPC   C4A21966  39.989  29.787   7.746
 1520POPC   C1B21967  40.418  29.746   8.790
 1520POPC   C2B21968  40.257  29.552   8.421
 1520POPC   C3B21969  40.417  29.663   8.041
 1520POPC   C4B21970  40.377  30.066   7.944
 1521POPC   NC321971  34.108  26.835   9.550
 1521POPC   PO421972  33.423  26.616   9.583
 1521POPC   GL121973  33.684  26.575   9.225
 1521POPC   GL221974  33.877  26.871   9.113
 1521POPC   C1A21975  33.531  26.661   8.798
 1521POPC   D2A21976  33.517  26.939   8.444
 1521POPC   C3A21977  33.601  26.658   8.089
 1521POPC   C4A21978  33.813  26.760   7.734
 1521POPC   C1B21979  34.081  27.153   8.862
 1521POPC   C2B21980  34.015  27.326   8.495
 1521POPC   C3B21981  33.887  27.127   8.131
 1521POPC   C4B21982  34.064  27.192   7.775
 1522POPC   NC321983   3.614  35.455   9.538
 1522POPC   PO421984   3.194  34.997   9.743
 1522POPC   GL121985   3.470  35.034   9.264
 1522POPC   GL221986   3.745  35.240   9.098
 1522POPC   C1A21987   3.357  35.191   8.781
 1522POPC   D2A21988   3.449  35.360   8.350
 1522POPC   C3A21989   3.267  35.238   7.947
 1522POPC   C4A21990   3.145  35.093   7.519
 1522POPC   C1B21991   4.005  35.155   8.751
 1522POPC   C2B21992   3.943  35.167   8.307
 1522POPC   C3B21993   3.777  35.296   7.903
 1522POPC   C4B21994   3.654  35.107   7.592
 1523POPC   NC321995   1.004  44.986   9.448
 1523POPC   PO421996   1.428  44.495   9.516
 1523POPC   GL121997   1.205  44.608   9.170
 1523POPC   GL221998   1.451  44.846   9.091
 1523POPC   C1A21999   0.990  44.455   8.816
 1523POPC   D2A22000   1.277  44.383   8.512
 1523POPC   C3A22001   1.123  44.352   8.098
 1523POPC   C4A22002   1.363  44.514   7.759
 1523POPC   C1B22003   1.151  44.941   8.761
 1523POPC   C2B22004   1.054  44.817   8.339
 1523POPC   C3B22005   1.199  44.968   7.924
 1523POPC   C4B22006   1.122  44.995   7.450
 1524POPC   NC322007  28.048  39.909   9.635
 1524POPC   PO422008  28.690  40.051   9.493
 1524POPC   GL122009  28.531  39.865   9.147
 1524POPC   GL222010  28.200  39.991   9.143
 1524POPC   C1A22011  28.510  40.020   8.736
 1524POPC   D2A22012  28.471  40.380   8.479
 1524POPC   C3A22013  28.735  40.363   8.131
 1524POPC   C4A22014  28.650  40.098   7.762
 1524POPC   C1B22015  27.934  39.989   8.786
 1524POPC   C2B22016  28.116  39.905   8.426
 1524POPC   C3B22017  28.259  40.067   8.098
 1524POPC   C4B22018  28.023  40.014   7.767
 1525POPC   NC322019  19.548  30.172   9.416
 1525POPC   PO422020  20.083  29.757   9.327
 1525POPC   GL122021  19.763  29.854   9.074
 1525POPC   GL222022  19.945  30.200   9.057
 1525POPC   C1A22023  19.720  29.577   8.738
 1525POPC   D2A22024  19.987  29.536   8.402
 1525POPC   C3A22025  19.844  29.725   8.065
 1525POPC   C4A22026  20.027  29.623   7.698
 1525POPC   C1B22027  19.775  30.137   8.638
 1525POPC   C2B22028  19.818  30.297   8.230
 1525POPC   C3B22029  20.029  30.158   7.861
 1525POPC   C4B22030  20.228  30.051   7.512
 1526POPC   NC322031  31.126   5.068   9.576
 1526POPC   PO422032  30.410   5.221   9.562
 1526POPC   GL122033  30.662   5.040   9.238
 1526POPC   GL222034  30.539   4.756   9.107
 1526POPC   C1A22035  30.697   5.131   8.782
 1526POPC   D2A22036  30.840   5.010   8.360
 1526POPC   C3A22037  30.710   5.218   7.964
 1526POPC   C4A22038  30.869   5.553   7.705
 1526POPC   C1B22039  30.319   4.774   8.734
 1526POPC   C2B22040  30.430   4.686   8.331
 1526POPC   C3B22041  30.282   4.689   7.922
 1526POPC   C4B22042  30.443   4.984   7.589
 1527POPC   NC322043   5.920  19.528   9.511
 1527POPC   PO422044   5.442  19.804   9.338
 1527POPC   GL122045   5.827  19.776   9.075
 1527POPC   GL222046   5.933  19.397   9.006
 1527POPC   C1A22047   5.946  19.865   8.648
 1527POPC   D2A22048   6.120  19.746   8.233
 1527POPC   C3A22049   5.925  19.983   7.913
 1527POPC   C4A22050   6.036  20.243   7.533
 1527POPC   C1B22051   5.542  19.507   8.761
 1527POPC   C2B22052   5.474  19.677   8.351
 1527POPC   C3B22053   5.664  19.486   8.025
 1527POPC   C4B22054   5.929  19.467   7.701
 1528POPC   NC322055  29.407   2.047   9.663
 1528POPC   PO422056  28.930   1.616   9.555
 1528POPC   GL122057  28.995   1.866   9.213
 1528POPC   GL222058  29.155   2.211   9.217
 1528POPC   C1A22059  29.064   1.659   8.825
 1528POPC   D2A22060  29.088   1.854   8.442
 1528POPC   C3A22061  29.113   1.660   8.077
 1528POPC   C4A22062  29.029   2.022   7.814
 1528POPC   C1B22063  29.208   2.428   8.795
 1528POPC   C2B22064  29.020   2.372   8.368
 1528POPC   C3B22065  29.236   2.462   8.002
 1528POPC   C4B22066  29.681   2.487   7.963
 1529POPC   NC322067   0.069  10.396   9.428
 1529POPC   PO422068  44.370  10.473   9.501
 1529POPC   GL122069  44.593  10.442   9.150
 1529POPC   GL222070  44.785  10.751   9.187
 1529POPC   C1A22071  44.539  10.250   8.755
 1529POPC   D2A22072  44.361  10.360   8.424
 1529POPC   C3A22073  44.477  10.328   8.055
 1529POPC   C4A22074  44.779  10.425   7.801
 1529POPC   C1B22075  44.812  10.670   8.735
 1529POPC   C2B22076  44.881  10.497   8.342
 1529POPC   C3B22077   0.180  10.614   8.024
 1529POPC   C4B22078   0.230  10.603   7.569
 1530POPC   NC322079  32.651   5.391   9.372
 1530POPC   PO422080  32.976   6.029   9.480
 1530POPC   GL122081  33.124   5.963   9.108
 1530POPC   GL222082  33.045   5.626   9.058
 1530POPC   C1A22083  32.942   6.009   8.725
 1530POPC   D2A22084  33.146   6.155   8.383
 1530POPC   C3A22085  33.003   5.984   8.024
 1530POPC   C4A22086  33.234   6.013   7.672
 1530POPC   C1B22087  33.174   5.379   8.731
 1530POPC   C2B22088  33.393   5.545   8.391
 1530POPC   C3B22089  33.425   5.476   7.979
 1530POPC   C4B22090  33.059   5.520   7.764
 1531POPC   NC322091   0.997  28.011   9.516
 1531POPC   PO422092   1.454  28.487   9.433
 1531POPC   GL122093   1.251  28.362   9.094
 1531POPC   GL222094   1.299  28.030   9.068
 1531POPC   C1A22095   1.105  28.455   8.700
 1531POPC   D2A22096   1.173  28.199   8.362
 1531POPC   C3A22097   1.033  28.431   8.029
 1531POPC   C4A22098   1.054  28.430   7.610
 1531POPC   C1B22099   0.916  27.970   8.824
 1531POPC   C2B22100   0.827  27.815   8.409
 1531POPC   C3B22101   0.818  27.985   7.988
 1531POPC   C4B22102   1.006  27.917   7.606
 1532POPC   NC322103  27.656   4.333   9.702
 1532POPC   PO422104  27.683   5.073   9.532
 1532POPC   GL122105  27.701   5.234   9.102
 1532POPC   GL222106  27.440   4.992   9.067
 1532POPC   C1A22107  27.539   5.258   8.635
 1532POPC   D2A22108  27.265   5.172   8.248
 1532POPC   C3A22109  27.496   5.033   7.896
 1532POPC   C4A22110  27.864   5.272   7.751
 1532POPC   C1B22111  27.737   4.794   8.785
 1532POPC   C2B22112  27.602   4.774   8.360
 1532POPC   C3B22113  27.797   4.621   7.992
 1532POPC   C4B22114  27.843   4.724   7.567
 1533POPC   NC322115  33.628   4.249   9.667
 1533POPC   PO422116  33.150   4.749   9.588
 1533POPC   GL122117  33.544   4.590   9.303
 1533POPC   GL222118  33.804   4.243   9.197
 1533POPC   C1A22119  33.598   4.523   8.867
 1533POPC   D2A22120  33.760   4.310   8.520
 1533POPC   C3A22121  33.698   4.582   8.209
 1533POPC   C4A22122  33.597   4.596   7.790
 1533POPC   C1B22123  34.142   4.374   8.867
 1533POPC   C2B22124  34.246   4.422   8.417
 1533POPC   C3B22125  34.045   4.181   8.088
 1533POPC   C4B22126  34.109   4.175   7.636
 1534POPC   NC322127  12.695   9.420   9.455
 1534POPC   PO422128  12.988   8.818   9.785
 1534POPC   GL122129  12.909   8.935   9.312
 1534POPC   GL222130  13.034   9.243   9.114
 1534POPC   C1A22131  12.752   8.801   8.893
 1534POPC   D2A22132  12.799   8.626   8.474
 1534POPC   C3A22133  12.622   8.870   8.141
 1534POPC   C4A22134  12.889   9.016   7.814
 1534POPC   C1B22135  13.164   9.105   8.705
 1534POPC   C2B22136  13.135   9.142   8.259
 1534POPC   C3B22137  13.279   9.316   7.892
 1534POPC   C4B22138  13.273   9.090   7.469
 1535POPC   NC322139   0.446  18.828   9.611
 1535POPC   PO422140   0.407  19.485   9.333
 1535POPC   GL122141   0.207  19.212   9.041
 1535POPC   GL222142   0.180  18.836   9.145
 1535POPC   C1A22143   0.490  19.219   8.673
 1535POPC   D2A22144   0.729  19.017   8.344
 1535POPC   C3A22145   0.678  19.305   7.989
 1535POPC   C4A22146   0.772  19.590   7.630
 1535POPC   C1B22147   0.401  18.711   8.767
 1535POPC   C2B22148   0.255  18.645   8.341
 1535POPC   C3B22149   0.331  18.864   7.948
 1535POPC   C4B22150   0.652  18.947   7.644
 1536POPC   NC322151   2.255  26.248   9.401
 1536POPC   PO422152   1.988  25.554   9.438
 1536POPC   GL122153   1.873  25.806   9.086
 1536POPC   GL222154   1.829  26.178   9.109
 1536POPC   C1A22155   1.941  25.849   8.671
 1536POPC   D2A22156   2.137  26.045   8.361
 1536POPC   C3A22157   2.038  25.905   7.992
 1536POPC   C4A22158   2.112  26.074   7.605
 1536POPC   C1B22159   2.117  26.332   8.786
 1536POPC   C2B22160   2.018  26.540   8.444
 1536POPC   C3B22161   1.937  26.406   8.039
 1536POPC   C4B22162   2.088  26.589   7.719
 1537POPC   NC322163  28.458  44.325   9.431
 1537POPC   PO422164  28.294  44.972   9.444
 1537POPC   GL122165  28.417  44.715   9.102
 1537POPC   GL222166  28.677  44.444   8.985
 1537POPC   C1A22167  28.193  44.531   8.787
 1537POPC   D2A22168  28.347  44.371   8.405
 1537POPC   C3A22169  28.161  44.528   8.039
 1537POPC   C4A22170  28.008  44.802   7.745
 1537POPC   C1B22171  28.622  44.769   8.638
 1537POPC   C2B22172  28.588  44.770   8.195
 1537POPC   C3B22173  28.525  44.768   7.745
 1537POPC   C4B22174  28.717  44.819   7.303
 1538POPC   NC322175  16.397  20.319   9.533
 1538POPC   PO422176  16.230  20.914   9.589
 1538POPC   GL122177  16.433  20.709   9.159
 1538POPC   GL222178  16.492  20.387   9.052
 1538POPC   C1A22179  16.724  20.831   8.817
 1538POPC   D2A22180  16.993  20.728   8.465
 1538POPC   C3A22181  16.774  20.865   8.085
 1538POPC   C4A22182  16.788  20.766   7.669
 1538POPC   C1B22183  16.695  20.346   8.679
 1538POPC   C2B22184  16.568  20.417   8.279
 1538POPC   C3B22185  16.722  20.321   7.886
 1538POPC   C4B22186  16.554  20.341   7.466
 1539POPC   NC322187  27.386  38.912   9.607
 1539POPC   PO422188  27.906  39.459   9.677
 1539POPC   GL122189  27.776  39.259   9.280
 1539POPC   GL222190  27.477  39.184   9.176
 1539POPC   C1A22191  27.867  39.169   8.842
 1539POPC   D2A22192  27.756  39.018   8.449
 1539POPC   C3A22193  27.999  39.013   8.059
 1539POPC   C4A22194  27.884  39.199   7.679
 1539POPC   C1B22195  27.334  39.169   8.774
 1539POPC   C2B22196  27.335  39.313   8.377
 1539POPC   C3B22197  27.498  39.177   8.003
 1539POPC   C4B22198  27.334  39.288   7.593
 1540POPC   NC322199  38.119  32.606   9.533
 1540POPC   PO422200  38.395  33.246   9.532
 1540POPC   GL122201  38.474  33.222   9.124
 1540POPC   GL222202  38.723  33.020   9.126
 1540POPC   C1A22203  38.439  33.182   8.696
 1540POPC   D2A22204  38.580  33.262   8.295
 1540POPC   C3A22205  38.264  33.095   7.991
 1540POPC   C4A22206  38.283  32.872   7.572
 1540POPC   C1B22207  38.930  33.329   8.821
 1540POPC   C2B22208  39.057  33.452   8.406
 1540POPC   C3B22209  38.958  33.394   7.960
 1540POPC   C4B22210  38.718  33.058   7.765
 1541POPC   NC322211  24.149  44.916   9.731
 1541POPC   PO422212  23.590  44.628   9.441
 1541POPC   GL122213  23.650  44.692   9.018
 1541POPC   GL222214  23.907  44.883   8.946
 1541POPC   C1A22215  23.579  44.718   8.586
 1541POPC   D2A22216  23.716  44.508   8.243
 1541POPC   C3A22217  23.498  44.665   7.902
 1541POPC   C4A22218  23.506  44.496   7.511
 1541POPC   C1B22219  24.082  44.635   8.616
 1541POPC   C2B22220  24.146  44.810   8.214
 1541POPC   C3B22221  23.986  44.726   7.834
 1541POPC   C4B22222  23.993  44.611   7.431
 1542POPC   NC322223  31.354  12.065   9.436
 1542POPC   PO422224  31.468  11.315   9.403
 1542POPC   GL122225  31.770  11.402   9.088
 1542POPC   GL222226  31.616  11.718   9.131
 1542POPC   C1A22227  31.762  11.211   8.675
 1542POPC   D2A22228  31.562  10.819   8.473
 1542POPC   C3A22229  31.367  10.863   8.040
 1542POPC   C4A22230  31.585  10.999   7.658
 1542POPC   C1B22231  31.331  11.550   8.801
 1542POPC   C2B22232  31.339  11.304   8.418
 1542POPC   C3B22233  31.614  11.298   8.093
 1542POPC   C4B22234  31.323  11.413   7.775
 1543POPC   NC322235  20.284  22.265   9.541
 1543POPC   PO422236  20.703  21.870   9.349
 1543POPC   GL122237  20.691  22.211   9.098
 1543POPC   GL222238  20.388  22.376   9.060
 1543POPC   C1A22239  20.600  22.068   8.688
 1543POPC   D2A22240  20.355  21.874   8.385
 1543POPC   C3A22241  20.525  22.088   8.040
 1543POPC   C4A22242  20.846  22.053   7.719
 1543POPC   C1B22243  20.441  22.557   8.658
 1543POPC   C2B22244  20.156  22.448   8.334
 1543POPC   C3B22245  20.172  22.544   7.931
 1543POPC   C4B22246  20.545  22.473   7.713
 1544POPC   NC322247   1.615  17.852   9.583
 1544POPC   PO422248   1.425  17.228   9.558
 1544POPC   GL122249   1.352  17.465   9.161
 1544POPC   GL222250   1.370  17.844   9.126
 1544POPC   C1A22251   1.263  17.376   8.729
 1544POPC   D2A22252   0.978  17.250   8.370
 1544POPC   C3A22253   1.071  17.316   7.915
 1544POPC   C4A22254   0.974  17.181   7.477
 1544POPC   C1B22255   1.161  17.866   8.731
 1544POPC   C2B22256   1.294  17.683   8.320
 1544POPC   C3B22257   1.303  17.800   7.895
 1544POPC   C4B22258   0.995  17.987   7.664
 1545POPC   NC322259   9.713   6.972   9.390
 1545POPC   PO422260  10.009   6.555   9.872
 1545POPC   GL122261  10.076   6.597   9.363
 1545POPC   GL222262   9.867   6.363   9.184
 1545POPC   C1A22263  10.003   6.721   8.853
 1545POPC   D2A22264   9.666   6.728   8.502
 1545POPC   C3A22265   9.734   6.833   8.057
 1545POPC   C4A22266  10.142   6.774   7.851
 1545POPC   C1B22267   9.619   6.321   8.806
 1545POPC   C2B22268   9.696   6.244   8.357
 1545POPC   C3B22269   9.776   6.343   7.887
 1545POPC   C4B22270   9.510   6.344   7.513
 1546POPC   NC322271  25.693  35.092   9.580
 1546POPC   PO422272  26.206  35.542   9.569
 1546POPC   GL122273  25.928  35.405   9.208
 1546POPC   GL222274  25.960  35.020   9.158
 1546POPC   C1A22275  25.954  35.357   8.734
 1546POPC   D2A22276  26.227  35.507   8.394
 1546POPC   C3A22277  26.117  35.508   7.919
 1546POPC   C4A22278  25.799  35.494   7.544
 1546POPC   C1B22279  26.354  35.095   8.950
 1546POPC   C2B22280  26.340  34.998   8.513
 1546POPC   C3B22281  26.009  35.056   8.228
 1546POPC   C4B22282  25.990  35.022   7.797
 1547POPC   NC322283  11.674  32.837   9.537
 1547POPC   PO422284  11.099  33.114   9.574
 1547POPC   GL122285  11.304  32.963   9.213
 1547POPC   GL222286  11.526  33.238   9.233
 1547POPC   C1A22287  11.135  32.853   8.829
 1547POPC   D2A22288  11.005  33.131   8.522
 1547POPC   C3A22289  11.022  32.943   8.138
 1547POPC   C4A22290  11.194  33.200   7.850
 1547POPC   C1B22291  11.473  33.234   8.781
 1547POPC   C2B22292  11.462  32.943   8.409
 1547POPC   C3B22293  11.577  32.872   7.976
 1547POPC   C4B22294  11.784  32.732   7.616
 1548POPC   NC322295  21.964  29.513   9.569
 1548POPC   PO422296  21.658  30.152   9.570
 1548POPC   GL122297  22.024  29.933   9.263
 1548POPC   GL222298  22.178  29.576   9.132
 1548POPC   C1A22299  22.227  30.010   8.851
 1548POPC   D2A22300  22.057  30.006   8.439
 1548POPC   C3A22301  22.240  30.066   8.047
 1548POPC   C4A22302  21.960  29.873   7.821
 1548POPC   C1B22303  22.055  29.538   8.725
 1548POPC   C2B22304  22.329  29.559   8.403
 1548POPC   C3B22305  22.334  29.551   7.991
 1548POPC   C4B22306  22.421  29.741   7.605
 1549POPC   NC322307   3.119  29.314   9.676
 1549POPC   PO422308   2.616  28.949   9.695
 1549POPC   GL122309   2.804  29.056   9.296
 1549POPC   GL222310   2.542  29.281   9.195
 1549POPC   C1A22311   2.965  29.173   8.871
 1549POPC   D2A22312   2.752  29.088   8.470
 1549POPC   C3A22313   2.805  29.164   8.039
 1549POPC   C4A22314   2.918  28.816   7.736
 1549POPC   C1B22315   2.485  29.410   8.761
 1549POPC   C2B22316   2.444  29.615   8.319
 1549POPC   C3B22317   2.428  29.529   7.855
 1549POPC   C4B22318   2.543  29.149   7.597
 1550POPC   NC322319  14.238  10.414   9.657
 1550POPC   PO422320  14.655  10.476   9.168
 1550POPC   GL122321  14.324  10.649   8.950
 1550POPC   GL222322  14.054  10.636   9.211
 1550POPC   C1A22323  14.410  10.553   8.515
 1550POPC   D2A22324  14.741  10.244   8.379
 1550POPC   C3A22325  14.620  10.163   7.959
 1550POPC   C4A22326  14.451  10.540   7.734
 1550POPC   C1B22327  13.867  10.807   8.814
 1550POPC   C2B22328  13.953  10.783   8.389
 1550POPC   C3B22329  14.075  10.458   8.092
 1550POPC   C4B22330  13.935  10.532   7.679
 1551POPC   NC322331  17.721   8.332   9.475
 1551POPC   PO422332  17.105   8.034   9.552
 1551POPC   GL122333  17.322   8.140   9.209
 1551POPC   GL222334  17.351   8.481   9.156
 1551POPC   C1A22335  17.433   8.112   8.780
 1551POPC   D2A22336  17.676   8.240   8.441
 1551POPC   C3A22337  17.471   8.252   8.059
 1551POPC   C4A22338  17.571   8.084   7.651
 1551POPC   C1B22339  17.227   8.704   8.799
 1551POPC   C2B22340  17.332   8.670   8.370
 1551POPC   C3B22341  17.248   8.722   7.927
 1551POPC   C4B22342  17.367   8.532   7.503
 1552POPC   NC322343  33.293  23.213   9.369
 1552POPC   PO422344  32.883  22.638   9.470
 1552POPC   GL122345  32.981  22.873   9.103
 1552POPC   GL222346  33.153  23.173   8.890
 1552POPC   C1A22347  32.956  22.738   8.716
 1552POPC   D2A22348  33.063  22.979   8.388
 1552POPC   C3A22349  32.947  22.772   8.045
 1552POPC   C4A22350  33.126  22.703   7.697
 1552POPC   C1B22351  32.698  23.189   8.753
 1552POPC   C2B22352  32.540  23.335   8.345
 1552POPC   C3B22353  32.768  23.256   7.971
 1552POPC   C4B22354  32.665  23.201   7.533
 1553POPC   NC322355   5.844  10.298   9.863
 1553POPC   PO422356   5.720  10.784   9.412
 1553POPC   GL122357   5.854  10.823   9.031
 1553POPC   GL222358   5.618  10.669   8.898
 1553POPC   C1A22359   6.059  10.826   8.662
 1553POPC   D2A22360   6.154  10.576   8.316
 1553POPC   C3A22361   5.826  10.728   8.109
 1553POPC   C4A22362   5.802  10.961   7.750
 1553POPC   C1B22363   5.886  10.353   8.705
 1553POPC   C2B22364   5.745  10.197   8.364
 1553POPC   C3B22365   5.896  10.193   7.982
 1553POPC   C4B22366   5.663  10.468   7.711
 1554POPC   NC322367  36.512  32.495   9.674
 1554POPC   PO422368  36.054  32.169   9.369
 1554POPC   GL122369  36.291  32.114   9.021
 1554POPC   GL222370  36.370  31.791   9.112
 1554POPC   C1A22371  36.224  32.196   8.554
 1554POPC   D2A22372  35.933  32.078   8.184
 1554POPC   C3A22373  35.917  32.330   7.791
 1554POPC   C4A22374  35.613  32.617   7.613
 1554POPC   C1B22375  36.576  31.804   8.744
 1554POPC   C2B22376  36.692  32.101   8.419
 1554POPC   C3B22377  36.425  32.213   8.048
 1554POPC   C4B22378  36.329  32.089   7.617
 1555POPC   NC322379  29.344  18.418   9.427
 1555POPC   PO422380  28.854  17.933   9.480
 1555POPC   GL122381  28.888  18.244   9.151
 1555POPC   GL222382  29.225  18.186   9.005
 1555POPC   C1A22383  28.955  18.614   8.856
 1555POPC   D2A22384  29.182  18.612   8.455
 1555POPC   C3A22385  28.976  18.547   8.011
 1555POPC   C4A22386  28.974  18.451   7.547
 1555POPC   C1B22387  29.016  18.151   8.630
 1555POPC   C2B22388  29.114  18.107   8.216
 1555POPC   C3B22389  28.919  18.022   7.835
 1555POPC   C4B22390  28.880  17.696   7.571
 1556POPC   NC322391  41.244   1.047   9.429
 1556POPC   PO422392  41.899   1.346   9.449
 1556POPC   GL122393  41.659   1.234   9.131
 1556POPC   GL222394  41.417   1.512   9.174
 1556POPC   C1A22395  41.418   1.223   8.752
 1556POPC   D2A22396  41.256   1.117   8.378
 1556POPC   C3A22397  41.443   1.348   8.066
 1556POPC   C4A22398  41.472   1.230   7.649
 1556POPC   C1B22399  41.687   1.647   8.810
 1556POPC   C2B22400  41.504   1.670   8.446
 1556POPC   C3B22401  41.644   1.842   8.107
 1556POPC   C4B22402  41.755   1.637   7.751
 1557POPC   NC322403  15.203  32.582   9.633
 1557POPC   PO422404  14.892  33.196   9.699
 1557POPC   GL122405  15.028  33.095   9.253
 1557POPC   GL222406  15.259  32.820   9.173
 1557POPC   C1A22407  15.131  33.190   8.799
 1557POPC   D2A22408  15.187  32.981   8.376
 1557POPC   C3A22409  15.059  33.215   7.976
 1557POPC   C4A22410  14.738  33.319   7.642
 1557POPC   C1B22411  15.403  32.565   8.810
 1557POPC   C2B22412  15.543  32.608   8.350
 1557POPC   C3B22413  15.381  32.607   7.897
 1557POPC   C4B22414  15.536  32.834   7.495
 1558POPC   NC322415  30.615  40.388   9.610
 1558POPC   PO422416  30.263  39.800   9.398
 1558POPC   GL122417  30.516  40.144   9.153
 1558POPC   GL222418  30.791  40.344   9.125
 1558POPC   C1A22419  30.529  40.276   8.717
 1558POPC   D2A22420  30.627  39.986   8.386
 1558POPC   C3A22421  30.535  39.991   7.942
 1558POPC   C4A22422  30.882  39.903   7.675
 1558POPC   C1B22423  31.034  40.143   8.831
 1558POPC   C2B22424  31.111  40.130   8.394
 1558POPC   C3B22425  30.929  40.309   8.013
 1558POPC   C4B22426  31.060  40.365   7.576
 1559POPC   NC322427  16.045  22.495   9.574
 1559POPC   PO422428  16.011  21.861   9.367
 1559POPC   GL122429  16.060  22.241   9.113
 1559POPC   GL222430  15.769  22.482   9.132
 1559POPC   C1A22431  16.202  22.202   8.678
 1559POPC   D2A22432  16.035  21.885   8.391
 1559POPC   C3A22433  16.028  22.062   7.987
 1559POPC   C4A22434  16.189  22.472   7.885
 1559POPC   C1B22435  15.692  22.229   8.754
 1559POPC   C2B22436  15.858  22.377   8.354
 1559POPC   C3B22437  15.682  22.451   7.978
 1559POPC   C4B22438  15.500  22.030   7.877
 1560POPC   NC322439  43.217  13.994   9.603
 1560POPC   PO422440  43.233  13.363   9.350
 1560POPC   GL122441  43.116  13.710   9.125
 1560POPC   GL222442  42.811  13.876   9.211
 1560POPC   C1A22443  43.124  13.590   8.715
 1560POPC   D2A22444  43.396  13.610   8.409
 1560POPC   C3A22445  43.246  13.400   8.070
 1560POPC   C4A22446  42.917  13.576   7.834
 1560POPC   C1B22447  42.833  14.000   8.774
 1560POPC   C2B22448  42.808  13.761   8.364
 1560POPC   C3B22449  42.737  14.016   8.037
 1560POPC   C4B22450  42.833  14.068   7.602
 1561POPC   NC322451  38.651  39.744   9.352
 1561POPC   PO422452  38.122  40.123   9.416
 1561POPC   GL122453  38.266  39.983   9.075
 1561POPC   GL222454  38.179  39.648   9.081
 1561POPC   C1A22455  38.496  40.167   8.736
 1561POPC   D2A22456  38.441  40.363   8.335
 1561POPC   C3A22457  38.627  40.194   7.980
 1561POPC   C4A22458  38.557  40.205   7.537
 1561POPC   C1B22459  38.410  39.649   8.714
 1561POPC   C2B22460  38.420  39.849   8.331
 1561POPC   C3B22461  38.224  39.899   7.950
 1561POPC   C4B22462  38.433  39.742   7.614
 1562POPC   NC322463  23.136   8.860   9.395
 1562POPC   PO422464  22.587   9.245   9.473
 1562POPC   GL122465  22.711   9.051   9.100
 1562POPC   GL222466  23.045   9.124   8.965
 1562POPC   C1A22467  22.628   9.103   8.657
 1562POPC   D2A22468  22.736   8.841   8.317
 1562POPC   C3A22469  23.028   9.071   8.089
 1562POPC   C4A22470  23.094   9.011   7.672
 1562POPC   C1B22471  22.975   8.701   8.763
 1562POPC   C2B22472  23.179   8.509   8.394
 1562POPC   C3B22473  23.264   8.623   7.954
 1562POPC   C4B22474  23.332   8.562   7.464
 1563POPC   NC322475  34.742  20.136   9.520
 1563POPC   PO422476  34.311  19.583   9.549
 1563POPC   GL122477  34.646  19.606   9.212
 1563POPC   GL222478  34.751  19.933   9.076
 1563POPC   C1A22479  34.763  19.445   8.793
 1563POPC   D2A22480  34.474  19.420   8.431
 1563POPC   C3A22481  34.619  19.551   8.028
 1563POPC   C4A22482  34.672  19.735   7.618
 1563POPC   C1B22483  34.774  20.187   8.733
 1563POPC   C2B22484  34.699  19.962   8.384
 1563POPC   C3B22485  34.624  20.076   7.992
 1563POPC   C4B22486  34.708  20.290   7.611
 1564POPC   NC322487  44.098  37.787   9.530
 1564POPC   PO422488  43.467  37.844   9.657
 1564POPC   GL122489  43.677  37.929   9.239
 1564POPC   GL222490  43.920  37.651   9.072
 1564POPC   C1A22491  43.771  38.048   8.800
 1564POPC   D2A22492  43.966  37.761   8.489
 1564POPC   C3A22493  43.797  37.638   8.132
 1564POPC   C4A22494  43.809  37.655   7.723
 1564POPC   C1B22495  44.041  37.325   8.749
 1564POPC   C2B22496  43.791  37.148   8.384
 1564POPC   C3B22497  43.591  37.193   7.973
 1564POPC   C4B22498  43.641  37.227   7.510
 1565POPC   NC322499  32.078  27.336   9.476
 1565POPC   PO422500  32.598  27.736   9.501
 1565POPC   GL122501  32.367  27.683   9.114
 1565POPC   GL222502  31.988  27.679   9.118
 1565POPC   C1A22503  32.443  27.706   8.664
 1565POPC   D2A22504  32.607  27.344   8.449
 1565POPC   C3A22505  32.553  27.309   8.012
 1565POPC   C4A22506  32.389  27.658   7.730
 1565POPC   C1B22507  32.058  27.373   8.752
 1565POPC   C2B22508  32.078  27.463   8.283
 1565POPC   C3B22509  31.829  27.407   7.886
 1565POPC   C4B22510  31.809  27.320   7.407
 1566POPC   NC322511  11.312  36.549   9.556
 1566POPC   PO422512  11.379  35.852   9.540
 1566POPC   GL122513  11.171  36.143   9.250
 1566POPC   GL222514  11.066  35.838   9.090
 1566POPC   C1A22515  11.119  36.342   8.821
 1566POPC   D2A22516  11.091  36.622   8.445
 1566POPC   C3A22517  11.027  36.456   8.031
 1566POPC   C4A22518  11.209  36.099   7.774
 1566POPC   C1B22519  11.145  35.864   8.621
 1566POPC   C2B22520  11.303  36.119   8.293
 1566POPC   C3B22521  11.640  35.975   7.992
 1566POPC   C4B22522  11.505  35.642   7.668
 1567POPC   NC322523   9.501  25.688   9.483
 1567POPC   PO422524   9.545  26.292   9.644
 1567POPC   GL122525   9.506  26.216   9.216
 1567POPC   GL222526   9.691  25.950   9.100
 1567POPC   C1A22527   9.495  26.305   8.787
 1567POPC   D2A22528   9.474  26.102   8.400
 1567POPC   C3A22529   9.348  26.297   8.034
 1567POPC   C4A22530   9.540  26.204   7.664
 1567POPC   C1B22531   9.842  25.874   8.690
 1567POPC   C2B22532   9.818  25.744   8.255
 1567POPC   C3B22533   9.936  25.921   7.874
 1567POPC   C4B22534  10.307  25.967   7.634
 1568POPC   NC322535  21.027   4.789   9.509
 1568POPC   PO422536  21.709   5.017   9.503
 1568POPC   GL122537  21.459   4.852   9.214
 1568POPC   GL222538  21.261   5.137   9.142
 1568POPC   C1A22539  21.539   4.845   8.786
 1568POPC   D2A22540  21.624   5.072   8.401
 1568POPC   C3A22541  21.550   4.898   7.966
 1568POPC   C4A22542  21.407   4.969   7.538
 1568POPC   C1B22543  21.445   5.425   8.814
 1568POPC   C2B22544  21.638   5.590   8.413
 1568POPC   C3B22545  21.479   5.406   8.030
 1568POPC   C4B22546  21.136   5.308   7.809
 1569POPC   NC322547  24.823   7.146   9.858
 1569POPC   PO422548  25.204   7.605   9.405
 1569POPC   GL122549  25.349   7.551   9.054
 1569POPC   GL222550  25.264   7.215   8.976
 1569POPC   C1A22551  25.181   7.640   8.689
 1569POPC   D2A22552  25.206   7.438   8.351
 1569POPC   C3A22553  25.291   7.697   8.044
 1569POPC   C4A22554  25.134   7.521   7.685
 1569POPC   C1B22555  25.453   7.081   8.600
 1569POPC   C2B22556  25.406   7.025   8.129
 1569POPC   C3B22557  25.226   7.021   7.718
 1569POPC   C4B22558  25.407   7.171   7.330
 1570POPC   NC322559   8.765  27.118   9.564
 1570POPC   PO422560   9.367  26.878   9.610
 1570POPC   GL122561   9.118  26.909   9.263
 1570POPC   GL222562   9.401  26.922   9.076
 1570POPC   C1A22563   8.953  26.688   8.922
 1570POPC   D2A22564   8.981  26.489   8.581
 1570POPC   C3A22565   8.956  26.722   8.205
 1570POPC   C4A22566   9.027  26.644   7.769
 1570POPC   C1B22567   9.167  27.120   8.767
 1570POPC   C2B22568   9.277  27.206   8.363
 1570POPC   C3B22569   9.131  27.162   7.962
 1570POPC   C4B22570   9.170  27.090   7.539
 1571POPC   NC322571  38.558   5.365   9.496
 1571POPC   PO422572  38.139   4.942   9.219
 1571POPC   GL122573  38.577   4.930   9.074
 1571POPC   GL222574  38.667   5.250   9.015
 1571POPC   C1A22575  38.818   4.877   8.706
 1571POPC   D2A22576  38.819   5.076   8.328
 1571POPC   C3A22577  38.611   4.823   8.037
 1571POPC   C4A22578  38.262   4.892   7.781
 1571POPC   C1B22579  38.388   5.189   8.642
 1571POPC   C2B22580  38.393   5.432   8.258
 1571POPC   C3B22581  38.552   5.308   7.877
 1571POPC   C4B22582  38.812   5.352   7.524
 1572POPC   NC322583  32.308  28.885   9.479
 1572POPC   PO422584  31.727  29.324   9.471
 1572POPC   GL122585  31.968  29.162   9.150
 1572POPC   GL222586  31.988  28.842   9.094
 1572POPC   C1A22587  32.143  29.232   8.761
 1572POPC   D2A22588  32.173  29.434   8.378
 1572POPC   C3A22589  32.340  29.234   8.026
 1572POPC   C4A22590  32.646  29.418   7.745
 1572POPC   C1B22591  32.113  28.716   8.722
 1572POPC   C2B22592  32.041  28.921   8.346
 1572POPC   C3B22593  31.981  28.831   7.932
 1572POPC   C4B22594  32.146  28.867   7.510
 1573POPC   NC322595  41.399  21.358   9.684
 1573POPC   PO422596  40.760  21.351   9.578
 1573POPC   GL122597  40.844  21.402   9.169
 1573POPC   GL222598  41.184  21.478   9.218
 1573POPC   C1A22599  40.676  21.303   8.776
 1573POPC   D2A22600  40.375  21.235   8.468
 1573POPC   C3A22601  40.554  21.321   8.090
 1573POPC   C4A22602  40.483  21.350   7.672
 1573POPC   C1B22603  41.193  21.258   8.814
 1573POPC   C2B22604  41.027  21.376   8.390
 1573POPC   C3B22605  41.050  21.256   7.959
 1573POPC   C4B22606  40.982  21.433   7.523
 1574POPC   NC322607  36.636   3.961   9.959
 1574POPC   PO422608  36.886   3.471   9.567
 1574POPC   GL122609  36.993   3.358   9.178
 1574POPC   GL222610  37.208   3.631   9.177
 1574POPC   C1A22611  37.088   3.351   8.738
 1574POPC   D2A22612  36.749   3.423   8.458
 1574POPC   C3A22613  36.858   3.480   8.034
 1574POPC   C4A22614  36.704   3.495   7.597
 1574POPC   C1B22615  37.131   3.862   8.837
 1574POPC   C2B22616  37.214   3.791   8.428
 1574POPC   C3B22617  37.272   4.052   8.076
 1574POPC   C4B22618  37.034   3.895   7.763
 1575POPC   NC322619  13.799  42.582   9.478
 1575POPC   PO422620  13.693  41.914   9.316
 1575POPC   GL122621  13.564  42.292   9.130
 1575POPC   GL222622  13.258  42.166   9.085
 1575POPC   C1A22623  13.671  42.575   8.770
 1575POPC   D2A22624  14.025  42.467   8.472
 1575POPC   C3A22625  14.121  42.653   8.069
 1575POPC   C4A22626  13.851  42.722   7.726
 1575POPC   C1B22627  13.473  42.100   8.666
 1575POPC   C2B22628  13.545  42.384   8.309
 1575POPC   C3B22629  13.655  42.254   7.929
 1575POPC   C4B22630  13.426  41.978   7.643
 1576POPC   NC322631   2.286  37.628   9.404
 1576POPC   PO422632   1.633  37.480   9.460
 1576POPC   GL122633   1.825  37.706   9.155
 1576POPC   GL222634   1.732  38.049   9.106
 1576POPC   C1A22635   1.851  37.581   8.752
 1576POPC   D2A22636   1.648  37.622   8.388
 1576POPC   C3A22637   1.901  37.465   8.058
 1576POPC   C4A22638   1.716  37.549   7.682
 1576POPC   C1B22639   2.074  38.034   8.779
 1576POPC   C2B22640   2.124  37.846   8.384
 1576POPC   C3B22641   1.962  37.979   8.021
 1576POPC   C4B22642   2.233  38.243   7.797
 1577POPC   NC322643   5.468  33.556   9.264
 1577POPC   PO422644   5.954  33.935   9.506
 1577POPC   GL122645   5.855  33.889   9.131
 1577POPC   GL222646   5.562  34.075   9.164
 1577POPC   C1A22647   5.828  33.825   8.727
 1577POPC   D2A22648   5.731  33.871   8.333
 1577POPC   C3A22649   5.920  33.570   8.108
 1577POPC   C4A22650   6.157  33.584   7.746
 1577POPC   C1B22651   5.684  34.310   8.792
 1577POPC   C2B22652   5.439  34.279   8.411
 1577POPC   C3B22653   5.489  34.127   7.967
 1577POPC   C4B22654   5.715  33.860   7.737
 1578POPC   NC322655  37.316  41.969   9.529
 1578POPC   PO422656  37.756  42.429   9.573
 1578POPC   GL122657  37.712  42.225   9.203
 1578POPC   GL222658  37.384  42.345   9.187
 1578POPC   C1A22659  37.812  42.260   8.763
 1578POPC   D2A22660  37.834  42.055   8.360
 1578POPC   C3A22661  37.913  42.274   8.027
 1578POPC   C4A22662  37.771  42.081   7.706
 1578POPC   C1B22663  37.297  42.123   8.839
 1578POPC   C2B22664  37.364  42.264   8.457
 1578POPC   C3B22665  37.391  42.149   8.055
 1578POPC   C4B22666  37.375  42.407   7.715
 1579POPC   NC322667  26.459   7.666   9.573
 1579POPC   PO422668  27.035   7.370   9.577
 1579POPC   GL122669  26.826   7.474   9.187
 1579POPC   GL222670  26.506   7.500   9.111
 1579POPC   C1A22671  26.986   7.436   8.764
 1579POPC   D2A22672  27.095   7.676   8.419
 1579POPC   C3A22673  26.938   7.489   8.056
 1579POPC   C4A22674  27.027   7.595   7.654
 1579POPC   C1B22675  26.553   7.150   8.883
 1579POPC   C2B22676  26.639   7.005   8.519
 1579POPC   C3B22677  26.632   7.049   8.101
 1579POPC   C4B22678  26.498   6.821   7.771
 1580POPC   NC322679  25.381  31.911   9.360
 1580POPC   PO422680  25.013  32.506   9.508
 1580POPC   GL122681  25.195  32.358   9.181
 1580POPC   GL222682  24.947  32.108   9.097
 1580POPC   C1A22683  25.307  32.365   8.751
 1580POPC   D2A22684  25.058  32.316   8.393
 1580POPC   C3A22685  25.216  32.456   8.034
 1580POPC   C4A22686  25.562  32.283   7.808
 1580POPC   C1B22687  25.013  31.865   8.718
 1580POPC   C2B22688  25.306  31.851   8.361
 1580POPC   C3B22689  25.222  31.931   7.946
 1580POPC   C4B22690  24.930  32.165   7.735
 1581POPC   NC322691  11.890  18.135   9.589
 1581POPC   PO422692  12.571  18.068   9.326
 1581POPC   GL122693  12.252  18.343   9.182
 1581POPC   GL222694  12.001  18.160   9.115
 1581POPC   C1A22695  11.879  18.572   8.899
 1581POPC   D2A22696  11.948  18.462   8.497
 1581POPC   C3A22697  11.947  18.672   8.090
 1581POPC   C4A22698  11.879  18.524   7.673
 1581POPC   C1B22699  12.137  17.980   8.772
 1581POPC   C2B22700  12.242  18.084   8.335
 1581POPC   C3B22701  12.148  17.950   7.931
 1581POPC   C4B22702  12.161  18.122   7.533
 1582POPC   NC322703  16.128  10.257   9.720
 1582POPC   PO422704  16.735  10.655   9.543
 1582POPC   GL122705  16.665  10.470   9.171
 1582POPC   GL222706  16.389  10.272   9.261
 1582POPC   C1A22707  16.860  10.357   8.797
 1582POPC   D2A22708  17.088  10.216   8.445
 1582POPC   C3A22709  16.881  10.421   8.098
 1582POPC   C4A22710  16.934  10.619   7.697
 1582POPC   C1B22711  16.427  10.078   8.866
 1582POPC   C2B22712  16.596  10.067   8.462
 1582POPC   C3B22713  16.434  10.133   8.076
 1582POPC   C4B22714  16.452  10.455   7.786
 1583POPC   NC322715  29.884   5.341   9.531
 1583POPC   PO422716  29.651   4.688   9.491
 1583POPC   GL122717  29.767   4.981   9.160
 1583POPC   GL222718  30.122   5.061   9.170
 1583POPC   C1A22719  29.840   4.932   8.722
 1583POPC   D2A22720  29.950   4.827   8.333
 1583POPC   C3A22721  29.713   4.939   7.994
 1583POPC   C4A22722  29.938   4.895   7.601
 1583POPC   C1B22723  30.188   5.277   8.803
 1583POPC   C2B22724  30.362   5.203   8.379
 1583POPC   C3B22725  30.159   5.190   7.974
 1583POPC   C4B22726  29.770   5.379   7.734
 1584POPC   NC322727   1.001  34.692   9.440
 1584POPC   PO422728   1.437  34.183   9.257
 1584POPC   GL122729   1.353  34.567   9.089
 1584POPC   GL222730   1.031  34.440   9.003
 1584POPC   C1A22731   1.373  34.889   8.772
 1584POPC   D2A22732   1.099  34.939   8.435
 1584POPC   C3A22733   1.201  34.667   8.130
 1584POPC   C4A22734   1.196  34.714   7.733
 1584POPC   C1B22735   1.242  34.431   8.598
 1584POPC   C2B22736   1.409  34.198   8.242
 1584POPC   C3B22737   1.214  34.218   7.818
 1584POPC   C4B22738   1.366  34.160   7.397
 1585POPC   NC322739  42.143  18.749   9.401
 1585POPC   PO422740  42.217  19.407   9.661
 1585POPC   GL122741  42.371  19.210   9.275
 1585POPC   GL222742  42.028  19.226   9.179
 1585POPC   C1A22743  42.550  19.162   8.834
 1585POPC   D2A22744  42.477  18.962   8.404
 1585POPC   C3A22745  42.496  19.265   8.013
 1585POPC   C4A22746  42.593  19.392   7.587
 1585POPC   C1B22747  42.046  18.997   8.801
 1585POPC   C2B22748  41.957  19.078   8.407
 1585POPC   C3B22749  42.098  18.960   8.038
 1585POPC   C4B22750  41.927  18.932   7.663
 1586POPC   NC322751   8.003  39.294   9.439
 1586POPC   PO422752   8.592  38.835   9.582
 1586POPC   GL122753   8.306  38.941   9.207
 1586POPC   GL222754   8.285  39.296   9.031
 1586POPC   C1A22755   8.030  38.866   8.837
 1586POPC   D2A22756   8.192  39.078   8.488
 1586POPC   C3A22757   8.136  39.094   8.036
 1586POPC   C4A22758   8.235  38.802   7.688
 1586POPC   C1B22759   8.413  39.520   8.675
 1586POPC   C2B22760   8.252  39.554   8.273
 1586POPC   C3B22761   8.438  39.495   7.897
 1586POPC   C4B22762   8.412  39.298   7.510
 1587POPC   NC322763   8.501  21.753   9.308
 1587POPC   PO422764   8.105  22.234   9.503
 1587POPC   GL122765   8.322  22.383   9.116
 1587POPC   GL222766   8.274  22.099   9.013
 1587POPC   C1A22767   8.177  22.425   8.657
 1587POPC   D2A22768   8.171  22.133   8.296
 1587POPC   C3A22769   8.062  22.356   7.932
 1587POPC   C4A22770   8.483  22.437   7.800
 1587POPC   C1B22771   8.306  21.831   8.702
 1587POPC   C2B22772   8.600  21.776   8.418
 1587POPC   C3B22773   8.429  21.708   8.032
 1587POPC   C4B22774   8.278  21.964   7.718
 1588POPC   NC322775  30.246  30.756   9.544
 1588POPC   PO422776  29.584  30.662   9.474
 1588POPC   GL122777  29.889  30.760   9.160
 1588POPC   GL222778  30.127  31.028   9.144
 1588POPC   C1A22779  30.047  30.621   8.782
 1588POPC   D2A22780  29.844  30.437   8.426
 1588POPC   C3A22781  30.066  30.434   8.051
 1588POPC   C4A22782  29.908  30.354   7.657
 1588POPC   C1B22783  29.883  31.120   8.776
 1588POPC   C2B22784  29.790  30.962   8.371
 1588POPC   C3B22785  29.970  30.933   7.955
 1588POPC   C4B22786  30.151  30.779   7.529
 1589POPC   NC322787  16.229   7.923   9.490
 1589POPC   PO422788  16.284   8.494   9.214
 1589POPC   GL122789  15.951   8.212   9.095
 1589POPC   GL222790  16.110   8.220   8.770
 1589POPC   C1A22791  15.658   7.982   8.801
 1589POPC   D2A22792  15.728   7.871   8.361
 1589POPC   C3A22793  15.873   8.122   8.028
 1589POPC   C4A22794  15.611   8.083   7.702
 1589POPC   C1B22795  15.733   8.444   8.610
 1589POPC   C2B22796  15.466   8.319   8.257
 1589POPC   C3B22797  15.544   8.536   7.905
 1589POPC   C4B22798  15.884   8.548   7.661
 1590POPC   NC322799  37.380  25.498   9.253
 1590POPC   PO422800  36.929  25.079   9.610
 1590POPC   GL122801  36.907  25.264   9.187
 1590POPC   GL222802  36.692  25.542   9.070
 1590POPC   C1A22803  36.794  25.106   8.780
 1590POPC   D2A22804  36.951  25.021   8.388
 1590POPC   C3A22805  36.800  25.166   8.020
 1590POPC   C4A22806  37.054  25.325   7.699
 1590POPC   C1B22807  37.006  25.571   8.727
 1590POPC   C2B22808  37.144  25.536   8.302
 1590POPC   C3B22809  37.060  25.793   7.939
 1590POPC   C4B22810  36.655  25.662   7.800
 1591POPC   NC322811   5.509  41.253   9.639
 1591POPC   PO422812   6.089  40.938   9.547
 1591POPC   GL122813   5.790  40.616   9.280
 1591POPC   GL222814   5.890  40.754   8.982
 1591POPC   C1A22815   5.535  40.438   8.861
 1591POPC   D2A22816   5.702  40.608   8.502
 1591POPC   C3A22817   5.582  40.493   8.101
 1591POPC   C4A22818   5.853  40.556   7.799
 1591POPC   C1B22819   6.096  40.930   8.658
 1591POPC   C2B22820   6.115  40.909   8.243
 1591POPC   C3B22821   6.178  40.936   7.820
 1591POPC   C4B22822   5.775  41.016   7.599
 1592POPC   NC322823  12.378  41.743   9.613
 1592POPC   PO422824  11.898  41.371   9.449
 1592POPC   GL122825  11.991  41.339   9.040
 1592POPC   GL222826  12.294  41.456   9.095
 1592POPC   C1A22827  11.947  41.397   8.585
 1592POPC   D2A22828  12.313  41.538   8.414
 1592POPC   C3A22829  12.309  41.761   8.044
 1592POPC   C4A22830  12.153  41.895   7.680
 1592POPC   C1B22831  12.370  41.159   8.779
 1592POPC   C2B22832  12.266  40.991   8.397
 1592POPC   C3B22833  12.009  41.204   8.092
 1592POPC   C4B22834  12.157  41.385   7.706
 1593POPC   NC322835  39.923   0.717   9.449
 1593POPC   PO422836  40.444   0.242   9.474
 1593POPC   GL122837  40.219   0.438   9.119
 1593POPC   GL222838  39.848   0.363   9.062
 1593POPC   C1A22839  40.286   0.685   8.735
 1593POPC   D2A22840  40.380   0.597   8.290
 1593POPC   C3A22841  40.123   0.320   8.059
 1593POPC   C4A22842  40.023   0.313   7.636
 1593POPC   C1B22843  39.582   0.618   8.766
 1593POPC   C2B22844  39.658   0.762   8.306
 1593POPC   C3B22845  39.624   0.514   7.892
 1593POPC   C4B22846  39.543   0.146   7.564
 1594POPC   NC322847  43.315  18.796   9.495
 1594POPC   PO422848  44.001  19.004   9.683
 1594POPC   GL122849  44.002  18.939   9.241
 1594POPC   GL222850  44.251  19.188   9.193
 1594POPC   C1A22851  43.830  18.787   8.807
 1594POPC   D2A22852  43.828  18.959   8.356
 1594POPC   C3A22853  43.793  18.831   7.877
 1594POPC   C4A22854  43.664  18.748   7.444
 1594POPC   C1B22855  43.983  19.306   8.843
 1594POPC   C2B22856  43.994  19.448   8.399
 1594POPC   C3B22857  44.028  19.272   7.986
 1594POPC   C4B22858  44.327  19.295   7.668
 1595POPC   NC322859  27.235  20.417   9.261
 1595POPC   PO422860  27.790  20.811   9.266
 1595POPC   GL122861  27.690  20.651   8.926
 1595POPC   GL222862  28.063  20.680   8.835
 1595POPC   C1A22863  27.390  20.862   8.637
 1595POPC   D2A22864  27.344  20.840   8.204
 1595POPC   C3A22865  27.624  20.647   7.963
 1595POPC   C4A22866  27.282  20.417   7.771
 1595POPC   C1B22867  27.841  20.618   8.459
 1595POPC   C2B22868  27.487  20.382   8.441
 1595POPC   C3B22869  27.491  20.061   8.166
 1595POPC   C4B22870  27.711  20.168   7.820
 1596POPC   NC322871   5.632  34.280   9.614
 1596POPC   PO422872   5.918  34.934   9.494
 1596POPC   GL122873   5.759  34.656   9.196
 1596POPC   GL222874   5.983  34.374   9.226
 1596POPC   C1A22875   5.607  34.839   8.791
 1596POPC   D2A22876   5.456  34.805   8.375
 1596POPC   C3A22877   5.747  34.540   8.140
 1596POPC   C4A22878   5.730  34.559   7.747
 1596POPC   C1B22879   6.201  34.204   8.857
 1596POPC   C2B22880   6.070  34.250   8.437
 1596POPC   C3B22881   6.070  34.107   8.019
 1596POPC   C4B22882   6.059  34.213   7.586
 1597POPC   NC322883   8.249   3.967   9.603
 1597POPC   PO422884   8.449   4.625   9.541
 1597POPC   GL122885   8.319   4.387   9.204
 1597POPC   GL222886   7.987   4.285   9.279
 1597POPC   C1A22887   8.416   4.221   8.792
 1597POPC   D2A22888   8.249   3.953   8.456
 1597POPC   C3A22889   8.349   4.126   8.044
 1597POPC   C4A22890   8.477   4.499   7.801
 1597POPC   C1B22891   7.914   4.163   8.855
 1597POPC   C2B22892   7.862   4.275   8.432
 1597POPC   C3B22893   7.799   4.149   8.020
 1597POPC   C4B22894   8.028   4.274   7.653
 1598POPC   NC322895  14.794  42.497   9.442
 1598POPC   PO422896  14.157  42.208   9.622
 1598POPC   GL122897  14.321  42.435   9.257
 1598POPC   GL222898  14.065  42.422   9.038
 1598POPC   C1A22899  14.521  42.685   8.887
 1598POPC   D2A22900  14.479  42.724   8.460
 1598POPC   C3A22901  14.660  42.616   8.085
 1598POPC   C4A22902  14.491  42.430   7.765
 1598POPC   C1B22903  14.359  42.221   8.762
 1598POPC   C2B22904  14.440  42.181   8.318
 1598POPC   C3B22905  14.167  42.147   7.985
 1598POPC   C4B22906  14.166  42.062   7.581
 1599POPC   NC322907  19.296   7.700   9.468
 1599POPC   PO422908  19.106   7.060   9.513
 1599POPC   GL122909  18.911   7.238   9.150
 1599POPC   GL222910  18.888   7.621   9.143
 1599POPC   C1A22911  18.810   7.181   8.714
 1599POPC   D2A22912  18.849   7.476   8.381
 1599POPC   C3A22913  18.949   7.276   8.009
 1599POPC   C4A22914  19.159   7.350   7.603
 1599POPC   C1B22915  19.167   7.570   8.783
 1599POPC   C2B22916  19.345   7.574   8.350
 1599POPC   C3B22917  19.230   7.725   7.915
 1599POPC   C4B22918  19.415   7.735   7.445
 1600POPC   NC322919  16.521  44.281   9.595
 1600POPC   PO422920  16.931  44.866   9.542
 1600POPC   GL122921  16.863  44.708   9.183
 1600POPC   GL222922  16.972  44.388   9.239
 1600POPC   C1A22923  16.622  44.828   8.836
 1600POPC   D2A22924  16.557  44.970   8.428
 1600POPC   C3A22925  16.750  44.698   8.107
 1600POPC   C4A22926  16.535  44.533   7.751
 1600POPC   C1B22927  16.667  44.308   8.910
 1600POPC   C2B22928  16.780  44.335   8.485
 1600POPC   C3B22929  16.940  44.181   8.107
 1600POPC   C4B22930  17.017  44.421   7.733
 1601POPC   NC322931  38.889  36.469   9.481
 1601POPC   PO422932  38.766  35.787   9.548
 1601POPC   GL122933  38.737  36.061   9.179
 1601POPC   GL222934  38.359  36.184   9.144
 1601POPC   C1A22935  38.685  36.256   8.763
 1601POPC   D2A22936  38.484  36.111   8.386
 1601POPC   C3A22937  38.709  36.129   7.973
 1601POPC   C4A22938  38.579  36.087   7.547
 1601POPC   C1B22939  38.237  36.494   8.771
 1601POPC   C2B22940  38.138  36.481   8.342
 1601POPC   C3B22941  38.223  36.280   7.936
 1601POPC   C4B22942  38.310  36.519   7.553
 1602POPC   NC322943  18.829  16.928   9.654
 1602POPC   PO422944  19.368  17.245   9.504
 1602POPC   GL122945  19.169  16.855   9.262
 1602POPC   GL222946  18.828  16.861   9.123
 1602POPC   C1A22947  19.156  16.586   8.859
 1602POPC   D2A22948  19.021  16.730   8.427
 1602POPC   C3A22949  19.203  16.667   7.987
 1602POPC   C4A22950  19.195  16.882   7.596
 1602POPC   C1B22951  18.648  16.577   8.827
 1602POPC   C2B22952  18.499  16.594   8.422
 1602POPC   C3B22953  18.694  16.653   8.021
 1602POPC   C4B22954  18.880  16.499   7.614
 1603POPC   NC322955  29.495  17.431   9.486
 1603POPC   PO422956  30.187  17.422   9.519
 1603POPC   GL122957  30.019  17.435   9.121
 1603POPC   GL222958  29.984  17.765   8.952
 1603POPC   C1A22959  30.244  17.381   8.726
 1603POPC   D2A22960  30.288  17.505   8.301
 1603POPC   C3A22961  30.041  17.233   8.003
 1603POPC   C4A22962  29.734  17.360   7.700
 1603POPC   C1B22963  29.740  17.496   8.693
 1603POPC   C2B22964  29.638  17.466   8.275
 1603POPC   C3B22965  29.541  17.849   8.083
 1603POPC   C4B22966  29.591  17.847   7.655
 1604POPC   NC322967  30.495  36.972   9.662
 1604POPC   PO422968  30.895  36.472   9.530
 1604POPC   GL122969  30.591  36.692   9.187
 1604POPC   GL222970  30.487  37.056   9.163
 1604POPC   C1A22971  30.699  36.719   8.739
 1604POPC   D2A22972  30.932  36.495   8.398
 1604POPC   C3A22973  30.891  36.717   8.026
 1604POPC   C4A22974  30.578  36.818   7.794
 1604POPC   C1B22975  30.677  37.242   8.774
 1604POPC   C2B22976  30.736  37.088   8.345
 1604POPC   C3B22977  30.904  37.218   7.937
 1604POPC   C4B22978  30.570  37.296   7.610
 1605POPC   NC322979  18.742   5.775   9.367
 1605POPC   PO422980  19.384   5.949   9.641
 1605POPC   GL122981  19.258   5.955   9.184
 1605POPC   GL222982  19.148   5.614   9.010
 1605POPC   C1A22983  19.109   6.023   8.739
 1605POPC   D2A22984  19.039   5.778   8.354
 1605POPC   C3A22985  18.976   5.991   7.990
 1605POPC   C4A22986  19.241   6.062   7.679
 1605POPC   C1B22987  18.745   5.584   8.735
 1605POPC   C2B22988  18.534   5.631   8.310
 1605POPC   C3B22989  18.700   5.573   7.872
 1605POPC   C4B22990  18.957   5.661   7.456
 1606POPC   NC322991   1.750  28.058   9.321
 1606POPC   PO422992   2.033  28.587   9.702
 1606POPC   GL122993   2.026  28.494   9.261
 1606POPC   GL222994   1.755  28.493   9.027
 1606POPC   C1A22995   2.246  28.383   8.883
 1606POPC   D2A22996   2.118  28.184   8.526
 1606POPC   C3A22997   2.241  28.308   8.122
 1606POPC   C4A22998   2.057  28.203   7.749
 1606POPC   C1B22999   1.614  28.332   8.640
 1606POPC   C2B23000   1.695  28.203   8.215
 1606POPC   C3B23001   1.481  28.238   7.835
 1606POPC   C4B23002   1.567  28.391   7.412
 1607POPC   NC323003  44.792  25.548   9.534
 1607POPC   PO423004  44.224  25.341   9.691
 1607POPC   GL123005  44.466  25.189   9.288
 1607POPC   GL223006  44.841  25.131   9.236
 1607POPC   C1A23007  44.499  25.108   8.831
 1607POPC   D2A23008  44.412  25.379   8.455
 1607POPC   C3A23009  44.627  25.415   8.018
 1607POPC   C4A23010  44.733  25.141   7.636
 1607POPC   C1B23011   0.046  25.118   8.833
 1607POPC   C2B23012  44.884  25.145   8.410
 1607POPC   C3B23013   0.144  25.210   8.051
 1607POPC   C4B23014   0.101  25.470   7.710
 1608POPC   NC323015  25.603  43.008   9.517
 1608POPC   PO423016  25.007  43.425   9.542
 1608POPC   GL123017  25.153  43.140   9.224
 1608POPC   GL223018  25.449  43.300   9.142
 1608POPC   C1A23019  25.281  42.941   8.815
 1608POPC   D2A23020  25.206  43.137   8.427
 1608POPC   C3A23021  25.149  42.900   8.069
 1608POPC   C4A23022  25.137  43.137   7.649
 1608POPC   C1B23023  25.676  43.281   8.773
 1608POPC   C2B23024  25.648  43.389   8.376
 1608POPC   C3B23025  25.482  43.271   7.998
 1608POPC   C4B23026  25.657  43.187   7.600
 1609POPC   NC323027  21.499  16.955   9.661
 1609POPC   PO423028  20.861  16.735   9.793
 1609POPC   GL123029  21.113  16.753   9.346
 1609POPC   GL223030  20.905  16.650   9.077
 1609POPC   C1A23031  21.350  16.723   8.874
 1609POPC   D2A23032  21.377  16.841   8.395
 1609POPC   C3A23033  21.523  16.663   7.960
 1609POPC   C4A23034  21.929  16.543   7.751
 1609POPC   C1B23035  20.895  16.843   8.650
 1609POPC   C2B23036  20.942  17.012   8.211
 1609POPC   C3B23037  21.030  16.930   7.779
 1609POPC   C4B23038  20.966  17.016   7.310
 1610POPC   NC323039   5.261  15.706   9.550
 1610POPC   PO423040   4.689  16.001   9.766
 1610POPC   GL123041   4.931  16.107   9.290
 1610POPC   GL223042   5.116  15.859   9.097
 1610POPC   C1A23043   5.240  16.293   8.881
 1610POPC   D2A23044   5.250  16.372   8.419
 1610POPC   C3A23045   4.977  16.271   8.053
 1610POPC   C4A23046   5.105  16.073   7.675
 1610POPC   C1B23047   5.312  15.854   8.675
 1610POPC   C2B23048   5.198  15.821   8.259
 1610POPC   C3B23049   5.308  15.672   7.883
 1610POPC   C4B23050   5.302  15.632   7.436
 1611POPC   NC323051  39.927  40.622   9.618
 1611POPC   PO423052  39.977  41.200   9.325
 1611POPC   GL123053  39.844  40.820   9.149
 1611POPC   GL223054  40.157  40.620   9.135
 1611POPC   C1A23055  39.768  40.716   8.735
 1611POPC   D2A23056  40.073  40.677   8.394
 1611POPC   C3A23057  40.011  40.994   8.113
 1611POPC   C4A23058  39.630  40.932   7.897
 1611POPC   C1B23059  40.367  40.893   8.796
 1611POPC   C2B23060  40.514  40.932   8.332
 1611POPC   C3B23061  40.506  40.590   8.012
 1611POPC   C4B23062  40.113  40.618   7.782
 1612POPC   NC323063  21.042  27.455   9.532
 1612POPC   PO423064  21.735  27.565   9.621
 1612POPC   GL123065  21.486  27.422   9.271
 1612POPC   GL223066  21.339  27.700   9.085
 1612POPC   C1A23067  21.511  27.323   8.818
 1612POPC   D2A23068  21.652  27.641   8.525
 1612POPC   C3A23069  21.643  27.497   8.103
 1612POPC   C4A23070  21.472  27.685   7.751
 1612POPC   C1B23071  21.138  27.649   8.646
 1612POPC   C2B23072  21.232  27.798   8.223
 1612POPC   C3B23073  21.053  27.920   7.833
 1612POPC   C4B23074  20.992  27.475   7.778
 1613POPC   NC323075  44.134   9.009   9.573
 1613POPC   PO423076  43.405   9.244   9.428
 1613POPC   GL123077  43.680   9.128   9.099
 1613POPC   GL223078  43.977   8.931   9.115
 1613POPC   C1A23079  43.822   9.090   8.670
 1613POPC   D2A23080  43.725   8.868   8.304
 1613POPC   C3A23081  44.021   9.085   8.076
 1613POPC   C4A23082  44.090   9.200   7.666
 1613POPC   C1B23083  44.184   8.664   8.829
 1613POPC   C2B23084  44.161   8.606   8.396
 1613POPC   C3B23085  44.324   8.697   7.983
 1613POPC   C4B23086  44.376   8.775   7.564
 1614POPC   NC323087  43.934  25.009   9.586
 1614POPC   PO423088  43.567  25.666   9.577
 1614POPC   GL123089  43.643  25.392   9.227
 1614POPC   GL223090  43.531  25.031   9.198
 1614POPC   C1A23091  43.569  25.345   8.787
 1614POPC   D2A23092  43.685  25.574   8.450
 1614POPC   C3A23093  43.567  25.428   8.073
 1614POPC   C4A23094  43.768  25.383   7.710
 1614POPC   C1B23095  43.928  25.013   8.924
 1614POPC   C2B23096  43.987  25.058   8.459
 1614POPC   C3B23097  44.098  25.298   8.071
 1614POPC   C4B23098  44.240  25.209   7.617
 1615POPC   NC323099  36.655  41.659   9.529
 1615POPC   PO423100  37.210  41.527   9.433
 1615POPC   GL123101  36.991  41.730   9.150
 1615POPC   GL223102  36.710  41.481   9.062
 1615POPC   C1A23103  36.871  41.848   8.769
 1615POPC   D2A23104  36.672  41.661   8.446
 1615POPC   C3A23105  36.798  41.749   8.032
 1615POPC   C4A23106  36.926  41.482   7.711
 1615POPC   C1B23107  36.947  41.261   8.738
 1615POPC   C2B23108  37.202  41.264   8.362
 1615POPC   C3B23109  37.169  41.104   7.958
 1615POPC   C4B23110  37.013  41.027   7.540
 1616POPC   NC323111  31.472  12.348   9.985
 1616POPC   PO423112  31.031  12.418   9.418
 1616POPC   GL123113  31.199  12.379   9.002
 1616POPC   GL223114  31.272  12.053   8.936
 1616POPC   C1A23115  31.341  12.360   8.543
 1616POPC   D2A23116  31.712  12.212   8.271
 1616POPC   C3A23117  31.494  12.257   7.892
 1616POPC   C4A23118  31.068  12.409   7.813
 1616POPC   C1B23119  31.675  12.038   8.758
 1616POPC   C2B23120  31.697  11.705   8.453
 1616POPC   C3B23121  31.462  11.784   8.089
 1616POPC   C4B23122  31.625  11.813   7.668
 1617POPC   NC323123  44.838   7.369   9.379
 1617POPC   PO423124  44.360   7.837   9.515
 1617POPC   GL123125  44.449   7.586   9.129
 1617POPC   GL223126  44.212   7.741   8.962
 1617POPC   C1A23127  44.647   7.322   8.760
 1617POPC   D2A23128  44.923   7.426   8.395
 1617POPC   C3A23129  44.668   7.333   8.033
 1617POPC   C4A23130  44.590   7.180   7.615
 1617POPC   C1B23131  44.565   7.810   8.680
 1617POPC   C2B23132  44.566   7.787   8.244
 1617POPC   C3B23133  44.560   7.779   7.807
 1617POPC   C4B23134  44.321   7.587   7.518
 1618POPC   NC323135   6.327  34.998   9.670
 1618POPC   PO423136   6.793  35.432   9.581
 1618POPC   GL123137   6.856  35.289   9.203
 1618POPC   GL223138   6.532  35.167   9.204
 1618POPC   C1A23139   6.966  35.186   8.791
 1618POPC   D2A23140   6.810  35.351   8.422
 1618POPC   C3A23141   6.962  35.168   8.083
 1618POPC   C4A23142   6.788  35.286   7.749
 1618POPC   C1B23143   6.416  35.343   8.819
 1618POPC   C2B23144   6.282  35.284   8.414
 1618POPC   C3B23145   6.419  35.517   8.057
 1618POPC   C4B23146   6.283  35.368   7.678
 1619POPC   NC323147  36.724  29.621   9.308
 1619POPC   PO423148  36.981  29.102   9.693
 1619POPC   GL123149  36.997  29.173   9.246
 1619POPC   GL223150  36.662  29.152   9.103
 1619POPC   C1A23151  37.078  29.194   8.791
 1619POPC   D2A23152  37.218  29.079   8.388
 1619POPC   C3A23153  36.927  29.077   8.065
 1619POPC   C4A23154  36.941  29.205   7.634
 1619POPC   C1B23155  36.577  28.841   8.754
 1619POPC   C2B23156  36.644  28.716   8.311
 1619POPC   C3B23157  36.481  28.882   7.914
 1619POPC   C4B23158  36.605  28.862   7.498
 1620POPC   NC323159   1.080  35.540   9.461
 1620POPC   PO423160   1.455  34.877   9.490
 1620POPC   GL123161   1.249  35.132   9.186
 1620POPC   GL223162   1.454  35.400   9.122
 1620POPC   C1A23163   1.143  35.339   8.756
 1620POPC   D2A23164   1.424  35.339   8.384
 1620POPC   C3A23165   1.260  35.160   7.984
 1620POPC   C4A23166   1.424  35.115   7.541
 1620POPC   C1B23167   1.543  35.680   8.759
 1620POPC   C2B23168   1.399  35.860   8.380
 1620POPC   C3B23169   1.351  35.689   7.962
 1620POPC   C4B23170   0.947  35.519   7.822
 1621POPC   NC323171  36.587  27.040   9.357
 1621POPC   PO423172  37.096  27.449   9.622
 1621POPC   GL123173  36.873  27.555   9.248
 1621POPC   GL223174  36.536  27.700   9.213
 1621POPC   C1A23175  37.016  27.605   8.843
 1621POPC   D2A23176  37.104  27.477   8.446
 1621POPC   C3A23177  37.014  27.752   8.130
 1621POPC   C4A23178  36.919  27.701   7.673
 1621POPC   C1B23179  36.532  27.442   8.838
 1621POPC   C2B23180  36.600  27.587   8.441
 1621POPC   C3B23181  36.546  27.566   8.019
 1621POPC   C4B23182  36.390  27.881   7.745
 1622POPC   NC323183  39.712   9.301   9.536
 1622POPC   PO423184  39.798  10.040   9.497
 1622POPC   GL123185  40.001   9.935   9.088
 1622POPC   GL223186  40.351  10.044   9.008
 1622POPC   C1A23187  40.054   9.668   8.736
 1622POPC   D2A23188  40.261   9.541   8.358
 1622POPC   C3A23189  40.207   9.610   7.922
 1622POPC   C4A23190  39.883   9.599   7.653
 1622POPC   C1B23191  40.251  10.113   8.596
 1622POPC   C2B23192  40.281  10.038   8.167
 1622POPC   C3B23193  39.992  10.093   7.856
 1622POPC   C4B23194  39.739  10.042   7.483
 1623POPC   NC323195   1.749  25.127   9.481
 1623POPC   PO423196   2.283  24.846   9.488
 1623POPC   GL123197   2.118  25.118   9.115
 1623POPC   GL223198   1.783  25.056   8.969
 1623POPC   C1A23199   2.114  25.359   8.733
 1623POPC   D2A23200   1.985  25.488   8.297
 1623POPC   C3A23201   2.162  25.230   7.961
 1623POPC   C4A23202   2.349  24.888   7.684
 1623POPC   C1B23203   1.607  25.421   8.702
 1623POPC   C2B23204   1.475  25.274   8.306
 1623POPC   C3B23205   1.661  25.134   7.944
 1623POPC   C4B23206   1.769  25.536   7.792
 1624POPC   NC323207  36.971   1.394   9.581
 1624POPC   PO423208  36.995   0.715   9.376
 1624POPC   GL123209  37.095   1.119   9.150
 1624POPC   GL223210  37.066   1.514   9.116
 1624POPC   C1A23211  36.987   1.166   8.731
 1624POPC   D2A23212  36.666   1.023   8.521
 1624POPC   C3A23213  36.752   1.214   8.132
 1624POPC   C4A23214  36.604   1.090   7.746
 1624POPC   C1B23215  37.187   1.667   8.752
 1624POPC   C2B23216  37.271   1.472   8.358
 1624POPC   C3B23217  37.101   1.568   7.968
 1624POPC   C4B23218  36.774   1.571   7.683
 1625POPC   NC323219  11.062   9.174   9.438
 1625POPC   PO423220  11.493   8.572   9.426
 1625POPC   GL123221  11.200   8.695   9.131
 1625POPC   GL223222  11.398   9.010   9.103
 1625POPC   C1A23223  11.093   8.537   8.711
 1625POPC   D2A23224  11.314   8.648   8.300
 1625POPC   C3A23225  11.178   8.846   7.935
 1625POPC   C4A23226  10.954   8.875   7.574
 1625POPC   C1B23227  11.491   8.887   8.704
 1625POPC   C2B23228  11.611   9.143   8.368
 1625POPC   C3B23229  11.455   9.268   7.972
 1625POPC   C4B23230  11.392   9.108   7.535
 1626POPC   NC323231  28.884   6.655   9.542
 1626POPC   PO423232  29.355   7.198   9.428
 1626POPC   GL123233  29.380   6.917   9.064
 1626POPC   GL223234  29.218   6.588   9.138
 1626POPC   C1A23235  29.393   6.952   8.595
 1626POPC   D2A23236  29.287   7.223   8.236
 1626POPC   C3A23237  29.086   6.999   7.909
 1626POPC   C4A23238  29.352   6.670   7.791
 1626POPC   C1B23239  28.979   6.651   8.750
 1626POPC   C2B23240  29.027   6.634   8.299
 1626POPC   C3B23241  28.855   6.510   7.899
 1626POPC   C4B23242  28.896   6.683   7.483
 1627POPC   NC323243  29.019  35.928   9.590
 1627POPC   PO423244  29.290  36.571   9.568
 1627POPC   GL123245  29.107  36.319   9.251
 1627POPC   GL223246  29.414  36.126   9.217
 1627POPC   C1A23247  28.822  36.370   8.888
 1627POPC   D2A23248  28.758  36.479   8.442
 1627POPC   C3A23249  28.892  36.164   8.118
 1627POPC   C4A23250  28.813  36.125   7.653
 1627POPC   C1B23251  29.278  36.131   8.784
 1627POPC   C2B23252  29.475  35.995   8.416
 1627POPC   C3B23253  29.499  35.776   8.024
 1627POPC   C4B23254  29.308  36.076   7.802
 1628POPC   NC323255  31.743  28.061   9.429
 1628POPC   PO423256  31.248  28.467   9.593
 1628POPC   GL123257  31.317  28.408   9.155
 1628POPC   GL223258  31.630  28.481   9.101
 1628POPC   C1A23259  31.351  28.454   8.695
 1628POPC   D2A23260  31.468  28.201   8.378
 1628POPC   C3A23261  31.257  28.368   8.056
 1628POPC   C4A23262  31.299  28.396   7.592
 1628POPC   C1B23263  31.835  28.290   8.755
 1628POPC   C2B23264  31.971  28.376   8.324
 1628POPC   C3B23265  31.746  28.332   7.927
 1628POPC   C4B23266  31.765  28.565   7.542
 1629POPC   NC323267  35.127   4.301   9.460
 1629POPC   PO423268  35.775   4.027   9.652
 1629POPC   GL123269  35.560   4.061   9.243
 1629POPC   GL223270  35.829   4.136   9.062
 1629POPC   C1A23271  35.366   4.221   8.830
 1629POPC   D2A23272  35.211   4.497   8.497
 1629POPC   C3A23273  35.059   4.167   8.219
 1629POPC   C4A23274  35.036   4.063   7.781
 1629POPC   C1B23275  35.826   4.007   8.680
 1629POPC   C2B23276  35.603   4.193   8.355
 1629POPC   C3B23277  35.715   4.166   7.975
 1629POPC   C4B23278  35.545   4.121   7.628
 1630POPC   NC323279  19.539  41.866   9.462
 1630POPC   PO423280  20.172  41.532   9.580
 1630POPC   GL123281  20.000  41.532   9.156
 1630POPC   GL223282  19.627  41.595   8.998
 1630POPC   C1A23283  20.030  41.338   8.748
 1630POPC   D2A23284  19.766  41.329   8.367
 1630POPC   C3A23285  20.005  41.518   8.028
 1630POPC   C4A23286  20.123  41.797   7.685
 1630POPC   C1B23287  19.325  41.327   8.689
 1630POPC   C2B23288  19.229  41.283   8.230
 1630POPC   C3B23289  19.481  41.429   7.916
 1630POPC   C4B23290  19.779  41.324   7.625
 1631POPC   NC323291  19.809  43.332   9.528
 1631POPC   PO423292  19.807  42.723   9.789
 1631POPC   GL123293  19.851  42.816   9.258
 1631POPC   GL223294  19.922  43.132   9.066
 1631POPC   C1A23295  19.701  42.715   8.849
 1631POPC   D2A23296  19.535  42.773   8.446
 1631POPC   C3A23297  19.750  43.012   8.113
 1631POPC   C4A23298  20.049  43.043   7.739
 1631POPC   C1B23299  19.627  43.249   8.738
 1631POPC   C2B23300  19.677  43.463   8.336
 1631POPC   C3B23301  19.860  43.478   7.910
 1631POPC   C4B23302  19.888  43.492   7.437
 1632POPC   NC323303  43.374   3.816   9.455
 1632POPC   PO423304  44.031   3.687   9.381
 1632POPC   GL123305  43.712   3.556   9.129
 1632POPC   GL223306  43.559   3.231   9.286
 1632POPC   C1A23307  43.841   3.729   8.715
 1632POPC   D2A23308  44.069   3.649   8.304
 1632POPC   C3A23309  43.969   3.638   7.864
 1632POPC   C4A23310  44.176   3.491   7.486
 1632POPC   C1B23311  43.625   3.181   8.818
 1632POPC   C2B23312  43.690   3.339   8.413
 1632POPC   C3B23313  43.714   3.196   7.995
 1632POPC   C4B23314  43.625   3.262   7.547
 1633POPC   NC323315  17.427  19.256   9.812
 1633POPC   PO423316  17.464  19.796   9.455
 1633POPC   GL123317  17.395  19.942   9.066
 1633POPC   GL223318  17.749  20.078   9.121
 1633POPC   C1A23319  17.317  19.706   8.654
 1633POPC   D2A23320  17.601  19.517   8.326
 1633POPC   C3A23321  17.509  19.678   7.908
 1633POPC   C4A23322  17.155  19.642   7.620
 1633POPC   C1B23323  17.781  19.881   8.723
 1633POPC   C2B23324  17.600  20.039   8.330
 1633POPC   C3B23325  17.735  20.144   7.912
 1633POPC   C4B23326  17.865  19.854   7.570
 1634POPC   NC323327   3.522  36.926   9.588
 1634POPC   PO423328   4.147  36.680   9.526
 1634POPC   GL123329   3.832  36.770   9.172
 1634POPC   GL223330   3.626  37.104   9.123
 1634POPC   C1A23331   3.534  36.741   8.781
 1634POPC   D2A23332   3.220  36.804   8.439
 1634POPC   C3A23333   3.431  36.723   8.054
 1634POPC   C4A23334   3.706  36.904   7.764
 1634POPC   C1B23335   3.256  37.226   8.826
 1634POPC   C2B23336   3.095  37.304   8.351
 1634POPC   C3B23337   3.257  37.176   7.895
 1634POPC   C4B23338   3.299  36.976   7.472
 1635POPC   NC323339  22.514  22.710   9.482
 1635POPC   PO423340  21.890  22.894   9.664
 1635POPC   GL123341  21.943  22.971   9.202
 1635POPC   GL223342  22.249  22.851   9.088
 1635POPC   C1A23343  21.947  23.008   8.729
 1635POPC   D2A23344  22.138  22.953   8.317
 1635POPC   C3A23345  21.833  22.808   8.036
 1635POPC   C4A23346  21.814  22.977   7.635
 1635POPC   C1B23347  22.481  22.852   8.723
 1635POPC   C2B23348  22.684  22.761   8.357
 1635POPC   C3B23349  22.612  22.941   7.962
 1635POPC   C4B23350  22.269  22.813   7.773
 1636POPC   NC323351   1.713  15.329   9.489
 1636POPC   PO423352   1.068  15.095   9.544
 1636POPC   GL123353   1.070  15.180   9.133
 1636POPC   GL223354   1.053  15.524   9.160
 1636POPC   C1A23355   0.980  15.203   8.671
 1636POPC   D2A23356   0.981  15.368   8.235
 1636POPC   C3A23357   1.168  15.068   7.918
 1636POPC   C4A23358   1.456  15.114   7.552
 1636POPC   C1B23359   1.266  15.620   8.784
 1636POPC   C2B23360   1.536  15.503   8.456
 1636POPC   C3B23361   1.465  15.525   8.041
 1636POPC   C4B23362   1.164  15.566   7.769
 1637POPC   NC323363   7.965  17.138   9.470
 1637POPC   PO423364   7.988  17.873   9.553
 1637POPC   GL123365   7.941  17.604   9.188
 1637POPC   GL223366   8.225  17.421   9.127
 1637POPC   C1A23367   8.086  17.687   8.745
 1637POPC   D2A23368   8.417  17.670   8.466
 1637POPC   C3A23369   8.288  17.763   8.077
 1637POPC   C4A23370   7.911  17.646   7.907
 1637POPC   C1B23371   8.010  17.189   8.784
 1637POPC   C2B23372   7.965  17.369   8.349
 1637POPC   C3B23373   7.882  17.144   7.967
 1637POPC   C4B23374   7.828  17.136   7.534
 1638POPC   NC323375  30.907  20.333   9.449
 1638POPC   PO423376  30.500  20.854   9.791
 1638POPC   GL123377  30.493  20.670   9.287
 1638POPC   GL223378  30.440  20.329   9.197
 1638POPC   C1A23379  30.656  20.737   8.805
 1638POPC   D2A23380  30.945  20.786   8.407
 1638POPC   C3A23381  30.624  20.809   8.052
 1638POPC   C4A23382  30.782  20.714   7.662
 1638POPC   C1B23383  30.455  20.255   8.779
 1638POPC   C2B23384  30.613  20.414   8.410
 1638POPC   C3B23385  30.841  20.351   8.056
 1638POPC   C4B23386  30.507  20.302   7.819
 1639POPC   NC323387  33.485  26.096   9.424
 1639POPC   PO423388  34.093  26.379   9.547
 1639POPC   GL123389  33.944  26.125   9.188
 1639POPC   GL223390  34.002  25.764   9.163
 1639POPC   C1A23391  33.744  26.041   8.790
 1639POPC   D2A23392  33.714  26.272   8.422
 1639POPC   C3A23393  33.654  26.050   8.029
 1639POPC   C4A23394  33.818  26.250   7.645
 1639POPC   C1B23395  34.015  25.607   8.739
 1639POPC   C2B23396  34.028  25.815   8.358
 1639POPC   C3B23397  34.051  25.701   7.948
 1639POPC   C4B23398  33.791  25.752   7.598
 1640POPC   NC323399   5.919  27.837   9.742
 1640POPC   PO423400   5.600  27.453   9.341
 1640POPC   GL123401   5.850  27.647   9.080
 1640POPC   GL223402   6.147  27.670   9.286
 1640POPC   C1A23403   5.855  27.538   8.636
 1640POPC   D2A23404   5.671  27.288   8.302
 1640POPC   C3A23405   5.588  27.559   7.974
 1640POPC   C4A23406   5.797  27.899   7.828
 1640POPC   C1B23407   6.326  27.547   8.895
 1640POPC   C2B23408   6.335  27.682   8.470
 1640POPC   C3B23409   6.083  27.526   8.150
 1640POPC   C4B23410   6.095  27.459   7.716
 1641POPC   NC323411  41.553  17.981   9.407
 1641POPC   PO423412  41.728  17.340   9.548
 1641POPC   GL123413  41.561  17.483   9.193
 1641POPC   GL223414  41.234  17.460   9.309
 1641POPC   C1A23415  41.667  17.667   8.787
 1641POPC   D2A23416  41.565  17.484   8.389
 1641POPC   C3A23417  41.711  17.648   8.025
 1641POPC   C4A23418  41.740  17.439   7.628
 1641POPC   C1B23419  41.183  17.475   8.842
 1641POPC   C2B23420  41.043  17.510   8.416
 1641POPC   C3B23421  41.003  17.305   8.021
 1641POPC   C4B23422  41.260  17.546   7.713
 1642POPC   NC323423  12.058  44.124   9.463
 1642POPC   PO423424  12.181  43.518   9.423
 1642POPC   GL123425  12.156  43.751   9.071
 1642POPC   GL223426  12.319  44.057   9.033
 1642POPC   C1A23427  11.911  43.936   8.743
 1642POPC   D2A23428  12.036  44.154   8.385
 1642POPC   C3A23429  12.333  43.935   8.135
 1642POPC   C4A23430  12.222  43.808   7.741
 1642POPC   C1B23431  12.349  44.399   8.758
 1642POPC   C2B23432  12.541  44.374   8.433
 1642POPC   C3B23433  12.432  44.433   8.067
 1642POPC   C4B23434  12.575  44.241   7.719
 1643POPC   NC323435  12.650  17.658   9.514
 1643POPC   PO423436  13.147  17.265   9.478
 1643POPC   GL123437  12.900  17.330   9.089
 1643POPC   GL223438  12.756  17.670   9.031
 1643POPC   C1A23439  12.938  17.427   8.632
 1643POPC   D2A23440  13.143  17.623   8.287
 1643POPC   C3A23441  12.919  17.484   7.929
 1643POPC   C4A23442  13.032  17.282   7.581
 1643POPC   C1B23443  12.607  17.832   8.652
 1643POPC   C2B23444  12.639  17.777   8.245
 1643POPC   C3B23445  12.653  17.937   7.850
 1643POPC   C4B23446  12.437  17.693   7.573
 1644POPC   NC323447  36.761   4.786   9.526
 1644POPC   PO423448  37.120   5.327   9.693
 1644POPC   GL123449  37.025   5.216   9.240
 1644POPC   GL223450  36.741   5.494   9.167
 1644POPC   C1A23451  37.003   4.900   8.829
 1644POPC   D2A23452  37.206   4.831   8.434
 1644POPC   C3A23453  36.919   4.827   8.083
 1644POPC   C4A23454  36.855   4.948   7.644
 1644POPC   C1B23455  36.867   5.367   8.781
 1644POPC   C2B23456  36.874   5.224   8.421
 1644POPC   C3B23457  36.986   5.322   8.043
 1644POPC   C4B23458  36.734   5.447   7.747
 1645POPC   NC323459  19.465  31.884   9.521
 1645POPC   PO423460  20.102  31.429   9.394
 1645POPC   GL123461  19.983  31.703   9.096
 1645POPC   GL223462  19.622  31.736   9.055
 1645POPC   C1A23463  20.013  31.686   8.673
 1645POPC   D2A23464  19.854  31.347   8.396
 1645POPC   C3A23465  19.953  31.466   7.992
 1645POPC   C4A23466  19.739  31.204   7.782
 1645POPC   C1B23467  19.508  31.612   8.640
 1645POPC   C2B23468  19.695  31.828   8.283
 1645POPC   C3B23469  19.636  31.839   7.884
 1645POPC   C4B23470  19.647  31.650   7.547
 1646POPC   NC323471   4.940  10.669   9.642
 1646POPC   PO423472   5.430  10.173   9.621
 1646POPC   GL123473   5.294  10.483   9.289
 1646POPC   GL223474   5.023  10.297   9.256
 1646POPC   C1A23475   5.119  10.652   8.879
 1646POPC   D2A23476   5.112  10.873   8.454
 1646POPC   C3A23477   5.299  10.619   8.098
 1646POPC   C4A23478   5.137  10.440   7.712
 1646POPC   C1B23479   4.865  10.169   8.853
 1646POPC   C2B23480   4.704  10.294   8.452
 1646POPC   C3B23481   4.776  10.540   8.103
 1646POPC   C4B23482   4.641  10.524   7.648
 1647POPC   NC323483  41.001  30.020   9.889
 1647POPC   PO423484  40.953  29.461   9.564
 1647POPC   GL123485  40.839  29.744   9.157
 1647POPC   GL223486  41.084  30.043   9.167
 1647POPC   C1A23487  40.769  30.137   8.810
 1647POPC   D2A23488  40.908  30.363   8.431
 1647POPC   C3A23489  40.838  30.012   8.169
 1647POPC   C4A23490  40.825  29.919   7.755
 1647POPC   C1B23491  41.134  29.748   8.757
 1647POPC   C2B23492  41.263  29.534   8.364
 1647POPC   C3B23493  41.227  29.661   7.940
 1647POPC   C4B23494  41.161  29.635   7.487
 1648POPC   NC323495  36.253  21.542   9.587
 1648POPC   PO423496  35.860  21.066   9.529
 1648POPC   GL123497  36.084  21.140   9.135
 1648POPC   GL223498  36.251  21.471   9.093
 1648POPC   C1A23499  35.895  21.291   8.723
 1648POPC   D2A23500  35.876  21.121   8.292
 1648POPC   C3A23501  35.933  21.368   7.929
 1648POPC   C4A23502  36.330  21.258   7.793
 1648POPC   C1B23503  36.411  21.251   8.740
 1648POPC   C2B23504  36.291  21.427   8.337
 1648POPC   C3B23505  36.431  21.724   8.049
 1648POPC   C4B23506  36.607  21.663   7.654
 1649POPC   NC323507  11.576   4.086   9.533
 1649POPC   PO423508  10.950   4.410   9.585
 1649POPC   GL123509  11.190   4.278   9.185
 1649POPC   GL223510  11.338   4.555   9.009
 1649POPC   C1A23511  11.026   4.309   8.703
 1649POPC   D2A23512  11.239   4.445   8.344
 1649POPC   C3A23513  11.028   4.556   7.982
 1649POPC   C4A23514  11.040   4.435   7.576
 1649POPC   C1B23515  11.552   4.257   8.728
 1649POPC   C2B23516  11.760   4.341   8.349
 1649POPC   C3B23517  11.564   4.294   7.952
 1649POPC   C4B23518  11.697   3.914   7.749
 1650POPC   NC323519  36.073  31.771   9.598
 1650POPC   PO423520  36.424  31.241   9.392
 1650POPC   GL123521  36.077  31.377   9.160
 1650POPC   GL223522  35.870  31.700   9.142
 1650POPC   C1A23523  36.213  31.419   8.769
 1650POPC   D2A23524  35.958  31.301   8.455
 1650POPC   C3A23525  36.120  31.250   8.093
 1650POPC   C4A23526  35.970  31.242   7.680
 1650POPC   C1B23527  35.933  31.813   8.686
 1650POPC   C2B23528  36.267  31.714   8.345
 1650POPC   C3B23529  36.206  31.711   7.921
 1650POPC   C4B23530  35.858  31.831   7.644
 1651POPC   NC323531   2.286   0.195   9.727
 1651POPC   PO423532   2.983   0.258   9.589
 1651POPC   GL123533   2.771   0.276   9.221
 1651POPC   GL223534   2.827   0.583   9.071
 1651POPC   C1A23535   2.775   0.126   8.823
 1651POPC   D2A23536   2.885   0.248   8.392
 1651POPC   C3A23537   2.659   0.232   8.030
 1651POPC   C4A23538   2.735   0.346   7.624
 1651POPC   C1B23539   2.490   0.530   8.743
 1651POPC   C2B23540   2.462   0.603   8.305
 1651POPC   C3B23541   2.437   0.668   7.855
 1651POPC   C4B23542   2.516   1.026   7.569
 1652POPC   NC323543  17.974  41.529   9.738
 1652POPC   PO423544  17.337  41.765   9.823
 1652POPC   GL123545  17.321  41.660   9.373
 1652POPC   GL223546  17.539  41.910   9.314
 1652POPC   C1A23547  17.243  41.613   8.890
 1652POPC   D2A23548  17.571  41.412   8.635
 1652POPC   C3A23549  17.559  41.302   8.180
 1652POPC   C4A23550  17.504  41.394   7.740
 1652POPC   C1B23551  17.686  41.844   8.918
 1652POPC   C2B23552  17.464  41.899   8.490
 1652POPC   C3B23553  17.373  41.782   8.071
 1652POPC   C4B23554  17.661  41.873   7.749
 1653POPC   NC323555  24.956   7.207   9.373
 1653POPC   PO423556  24.460   7.556   9.698
 1653POPC   GL123557  24.432   7.438   9.258
 1653POPC   GL223558  24.731   7.526   9.090
 1653POPC   C1A23559  24.254   7.646   8.889
 1653POPC   D2A23560  24.356   7.581   8.491
 1653POPC   C3A23561  24.316   7.847   8.157
 1653POPC   C4A23562  24.228   7.729   7.754
 1653POPC   C1B23563  24.806   7.295   8.733
 1653POPC   C2B23564  24.695   7.230   8.358
 1653POPC   C3B23565  24.867   7.240   8.004
 1653POPC   C4B23566  24.612   7.417   7.707
 1654POPC   NC323567  44.448  43.637   9.745
 1654POPC   PO423568  44.695  44.255   9.537
 1654POPC   GL123569  44.601  43.983   9.155
 1654POPC   GL223570  44.844  43.703   8.983
 1654POPC   C1A23571  44.780  44.151   8.782
 1654POPC   D2A23572  44.582  44.317   8.457
 1654POPC   C3A23573  44.661  44.039   8.178
 1654POPC   C4A23574  44.790  44.006   7.766
 1654POPC   C1B23575  44.474  43.664   8.720
 1654POPC   C2B23576  44.512  43.546   8.301
 1654POPC   C3B23577  44.888  43.581   8.077
 1654POPC   C4B23578  44.904  43.504   7.666
 1655POPC   NC323579  31.547   0.160   9.466
 1655POPC   PO423580  30.989  44.929   9.307
 1655POPC   GL123581  31.148   0.309   9.054
 1655POPC   GL223582  31.197   0.716   9.066
 1655POPC   C1A23583  31.398   0.418   8.678
 1655POPC   D2A23584  31.283   0.563   8.263
 1655POPC   C3A23585  31.315   0.238   7.913
 1655POPC   C4A23586  31.174  44.944   7.601
 1655POPC   C1B23587  31.556   0.898   8.775
 1655POPC   C2B23588  31.827   0.732   8.403
 1655POPC   C3B23589  31.696   0.666   7.958
 1655POPC   C4B23590  31.266   0.722   7.775
 1656POPC   NC323591  26.901  44.816   9.523
 1656POPC   PO423592  26.310  44.361   9.515
 1656POPC   GL123593  26.620  44.508   9.223
 1656POPC   GL223594  26.918  44.340   9.182
 1656POPC   C1A23595  26.684  44.634   8.802
 1656POPC   D2A23596  26.773  44.430   8.384
 1656POPC   C3A23597  26.725  44.664   7.980
 1656POPC   C4A23598  26.492  44.642   7.588
 1656POPC   C1B23599  27.141  44.366   8.792
 1656POPC   C2B23600  27.286  44.521   8.381
 1656POPC   C3B23601  27.130  44.339   7.984
 1656POPC   C4B23602  26.997  44.485   7.561
 1657POPC   NC323603  31.888   5.896   9.520
 1657POPC   PO423604  31.460   5.393   9.506
 1657POPC   GL123605  31.692   5.635   9.125
 1657POPC   GL223606  31.690   6.023   9.065
 1657POPC   C1A23607  31.602   5.647   8.646
 1657POPC   D2A23608  31.220   5.653   8.343
 1657POPC   C3A23609  31.333   5.722   7.903
 1657POPC   C4A23610  31.776   5.709   7.774
 1657POPC   C1B23611  31.308   6.050   8.781
 1657POPC   C2B23612  31.381   6.154   8.348
 1657POPC   C3B23613  31.616   6.152   7.970
 1657POPC   C4B23614  31.293   6.260   7.730
 1658POPC   NC323615  38.576  21.795   9.790
 1658POPC   PO423616  38.814  21.473   9.282
 1658POPC   GL123617  38.405  21.492   9.041
 1658POPC   GL223618  38.117  21.229   9.108
 1658POPC   C1A23619  38.466  21.388   8.621
 1658POPC   D2A23620  38.712  21.140   8.325
 1658POPC   C3A23621  38.685  21.391   7.952
 1658POPC   C4A23622  38.665  21.555   7.547
 1658POPC   C1B23623  37.961  21.314   8.713
 1658POPC   C2B23624  38.068  21.607   8.374
 1658POPC   C3B23625  38.202  21.534   7.934
 1658POPC   C4B23626  38.233  21.274   7.523
 1659POPC   NC323627   7.818  12.781   9.550
 1659POPC   PO423628   7.189  12.758   9.594
 1659POPC   GL123629   7.200  12.736   9.141
 1659POPC   GL223630   7.564  12.749   9.110
 1659POPC   C1A23631   7.133  12.695   8.689
 1659POPC   D2A23632   7.163  12.989   8.305
 1659POPC   C3A23633   7.151  12.920   7.827
 1659POPC   C4A23634   7.264  13.145   7.418
 1659POPC   C1B23635   7.624  12.460   8.768
 1659POPC   C2B23636   7.471  12.540   8.340
 1659POPC   C3B23637   7.617  12.777   7.966
 1659POPC   C4B23638   7.581  12.767   7.501
 1660POPC   NC323639  39.089  42.889   9.497
 1660POPC   PO423640  39.138  42.201   9.517
 1660POPC   GL123641  39.196  42.352   9.115
 1660POPC   GL223642  38.933  42.566   9.060
 1660POPC   C1A23643  39.400  42.452   8.696
 1660POPC   D2A23644  39.708  42.518   8.371
 1660POPC   C3A23645  39.533  42.286   8.050
 1660POPC   C4A23646  39.226  42.404   7.771
 1660POPC   C1B23647  38.942  42.186   8.726
 1660POPC   C2B23648  39.061  42.142   8.262
 1660POPC   C3B23649  39.049  41.944   7.827
 1660POPC   C4B23650  39.134  41.913   7.348
 1661POPC   NC323651  27.159   5.003   9.512
 1661POPC   PO423652  26.424   4.771   9.552
 1661POPC   GL123653  26.626   5.020   9.220
 1661POPC   GL223654  26.933   4.883   9.086
 1661POPC   C1A23655  26.656   5.301   8.844
 1661POPC   D2A23656  26.841   5.513   8.465
 1661POPC   C3A23657  26.845   5.416   8.005
 1661POPC   C4A23658  27.098   5.305   7.651
 1661POPC   C1B23659  27.050   5.008   8.684
 1661POPC   C2B23660  26.812   4.951   8.292
 1661POPC   C3B23661  26.984   4.866   7.878
 1661POPC   C4B23662  27.008   4.864   7.408
 1662POPC   NC323663   6.336  13.572   9.480
 1662POPC   PO423664   7.015  13.731   9.443
 1662POPC   GL123665   6.725  13.683   9.144
 1662POPC   GL223666   6.482  13.384   9.033
 1662POPC   C1A23667   6.873  13.747   8.743
 1662POPC   D2A23668   6.931  13.976   8.388
 1662POPC   C3A23669   6.803  13.762   8.045
 1662POPC   C4A23670   6.798  13.925   7.653
 1662POPC   C1B23671   6.353  13.779   8.832
 1662POPC   C2B23672   6.450  13.797   8.422
 1662POPC   C3B23673   6.330  13.542   8.082
 1662POPC   C4B23674   6.454  13.518   7.655
 1663POPC   NC323675   6.574  38.619   9.565
 1663POPC   PO423676   6.879  38.217   9.129
 1663POPC   GL123677   6.775  38.577   8.918
 1663POPC   GL223678   6.477  38.729   9.076
 1663POPC   C1A23679   6.729  38.463   8.487
 1663POPC   D2A23680   6.406  38.177   8.321
 1663POPC   C3A23681   6.500  38.302   7.923
 1663POPC   C4A23682   6.937  38.405   7.880
 1663POPC   C1B23683   6.286  38.556   8.710
 1663POPC   C2B23684   6.297  38.679   8.287
 1663POPC   C3B23685   6.577  38.812   7.959
 1663POPC   C4B23686   6.473  38.697   7.544
 1664POPC   NC323687   0.970  17.089   9.571
 1664POPC   PO423688   1.356  16.612   9.776
 1664POPC   GL123689   1.319  16.757   9.340
 1664POPC   GL223690   1.387  16.470   9.174
 1664POPC   C1A23691   1.158  16.898   8.909
 1664POPC   D2A23692   1.391  16.957   8.489
 1664POPC   C3A23693   1.217  16.865   8.118
 1664POPC   C4A23694   1.005  16.748   7.767
 1664POPC   C1B23695   1.534  16.570   8.777
 1664POPC   C2B23696   1.536  16.474   8.331
 1664POPC   C3B23697   1.429  16.480   7.880
 1664POPC   C4B23698   1.375  16.444   7.417
 1665POPC   NC323699  23.627   9.574   9.595
 1665POPC   PO423700  23.512   9.027   9.176
 1665POPC   GL123701  23.424   9.484   9.100
 1665POPC   GL223702  23.537   9.867   9.109
 1665POPC   C1A23703  23.427   9.612   8.678
 1665POPC   D2A23704  23.568   9.882   8.368
 1665POPC   C3A23705  23.617   9.626   8.027
 1665POPC   C4A23706  23.799   9.687   7.650
 1665POPC   C1B23707  23.882   9.947   8.767
 1665POPC   C2B23708  23.980  10.202   8.399
 1665POPC   C3B23709  23.829  10.130   7.988
 1665POPC   C4B23710  23.985  10.154   7.584
 1666POPC   NC323711  36.963  44.200   9.938
 1666POPC   PO423712  36.805  43.581   9.604
 1666POPC   GL123713  36.993  43.648   9.191
 1666POPC   GL223714  37.041  44.004   9.051
 1666POPC   C1A23715  36.841  43.621   8.780
 1666POPC   D2A23716  36.710  43.915   8.479
 1666POPC   C3A23717  36.812  43.697   8.100
 1666POPC   C4A23718  36.620  43.704   7.728
 1666POPC   C1B23719  37.200  44.026   8.631
 1666POPC   C2B23720  37.087  44.135   8.197
 1666POPC   C3B23721  36.919  44.121   7.775
 1666POPC   C4B23722  37.105  44.075   7.342
 1667POPC   NC323723   5.213   0.154   9.464
 1667POPC   PO423724   5.047  44.487   9.530
 1667POPC   GL123725   5.165  44.646   9.156
 1667POPC   GL223726   4.883  44.851   9.215
 1667POPC   C1A23727   5.190  44.440   8.734
 1667POPC   D2A23728   5.226  44.380   8.268
 1667POPC   C3A23729   5.143  44.747   7.997
 1667POPC   C4A23730   5.246  44.819   7.548
 1667POPC   C1B23731   4.767  44.801   8.822
 1667POPC   C2B23732   4.785  44.609   8.454
 1667POPC   C3B23733   4.712  44.490   8.080
 1667POPC   C4B23734   4.642  44.830   7.835
 1668POPC   NC323735   6.218  39.611   9.839
 1668POPC   PO423736   6.627  39.101   9.522
 1668POPC   GL123737   6.555  39.252   9.133
 1668POPC   GL223738   6.556  39.616   9.165
 1668POPC   C1A23739   6.645  39.075   8.739
 1668POPC   D2A23740   6.459  39.153   8.363
 1668POPC   C3A23741   6.774  39.277   8.108
 1668POPC   C4A23742   6.885  39.154   7.700
 1668POPC   C1B23743   6.366  39.541   8.737
 1668POPC   C2B23744   6.435  39.665   8.292
 1668POPC   C3B23745   6.273  39.410   7.956
 1668POPC   C4B23746   6.378  39.233   7.554
 1669POPC   NC323747  20.370  10.124   9.308
 1669POPC   PO423748  20.819  10.605   9.512
 1669POPC   GL123749  20.616  10.568   9.147
 1669POPC   GL223750  20.258  10.648   9.143
 1669POPC   C1A23751  20.784  10.466   8.779
 1669POPC   D2A23752  20.763  10.275   8.428
 1669POPC   C3A23753  20.980  10.502   8.133
 1669POPC   C4A23754  20.814  10.549   7.732
 1669POPC   C1B23755  20.286  10.451   8.734
 1669POPC   C2B23756  20.261  10.175   8.385
 1669POPC   C3B23757  20.448  10.314   8.031
 1669POPC   C4B23758  20.355  10.142   7.677
 1670POPC   NC323759  44.483  12.817   9.542
 1670POPC   PO423760   0.021  13.153   9.385
 1670POPC   GL123761  44.828  12.819   9.165
 1670POPC   GL223762  44.510  13.039   9.090
 1670POPC   C1A23763  44.685  12.714   8.752
 1670POPC   D2A23764  44.443  12.957   8.447
 1670POPC   C3A23765  44.403  12.782   8.038
 1670POPC   C4A23766  44.693  12.557   7.799
 1670POPC   C1B23767  44.756  13.252   8.768
 1670POPC   C2B23768  44.929  13.162   8.356
 1670POPC   C3B23769  44.834  13.087   7.916
 1670POPC   C4B23770  45.000  13.215   7.518
 1671POPC   NC323771  11.118   8.258   9.425
 1671POPC   PO423772  11.528   7.778   9.246
 1671POPC   GL123773  11.395   8.121   8.994
 1671POPC   GL223774  11.056   7.985   9.018
 1671POPC   C1A23775  11.431   8.201   8.534
 1671POPC   D2A23776  11.044   8.202   8.271
 1671POPC   C3A23777  11.089   8.347   7.857
 1671POPC   C4A23778  11.513   8.453   7.866
 1671POPC   C1B23779  11.064   7.824   8.645
 1671POPC   C2B23780  10.993   7.684   8.254
 1671POPC   C3B23781  10.922   7.868   7.873
 1671POPC   C4B23782  11.054   7.990   7.421
 1672POPC   NC323783  13.247  31.096   9.482
 1672POPC   PO423784  13.962  31.168   9.418
 1672POPC   GL123785  13.703  30.767   9.277
 1672POPC   GL223786  13.411  30.845   9.081
 1672POPC   C1A23787  13.717  30.461   8.899
 1672POPC   D2A23788  13.796  30.577   8.462
 1672POPC   C3A23789  13.420  30.627   8.186
 1672POPC   C4A23790  13.562  30.562   7.771
 1672POPC   C1B23791  13.737  30.972   8.798
 1672POPC   C2B23792  13.715  31.084   8.374
 1672POPC   C3B23793  13.655  31.035   7.943
 1672POPC   C4B23794  13.308  30.997   7.665
 1673POPC   NC323795  36.496  18.054   9.421
 1673POPC   PO423796  37.032  18.467   9.488
 1673POPC   GL123797  36.999  18.457   9.094
 1673POPC   GL223798  36.641  18.436   9.051
 1673POPC   C1A23799  37.188  18.485   8.702
 1673POPC   D2A23800  37.039  18.475   8.290
 1673POPC   C3A23801  37.222  18.175   8.005
 1673POPC   C4A23802  37.031  18.063   7.598
 1673POPC   C1B23803  36.786  18.127   8.769
 1673POPC   C2B23804  36.954  17.953   8.416
 1673POPC   C3B23805  36.717  18.101   8.110
 1673POPC   C4B23806  36.546  18.074   7.740
 1674POPC   NC323807  23.303  19.705   9.457
 1674POPC   PO423808  22.697  20.010   9.463
 1674POPC   GL123809  22.939  19.874   9.145
 1674POPC   GL223810  22.872  19.517   9.201
 1674POPC   C1A23811  23.042  20.014   8.747
 1674POPC   D2A23812  22.743  20.239   8.519
 1674POPC   C3A23813  22.761  20.058   8.124
 1674POPC   C4A23814  23.056  20.103   7.829
 1674POPC   C1B23815  22.864  19.537   8.754
 1674POPC   C2B23816  23.111  19.652   8.382
 1674POPC   C3B23817  22.981  19.567   7.982
 1674POPC   C4B23818  22.820  19.721   7.616
 1675POPC   NC323819   1.462  32.843   9.817
 1675POPC   PO423820   1.045  33.310   9.547
 1675POPC   GL123821   1.150  33.100   9.127
 1675POPC   GL223822   1.384  32.817   9.095
 1675POPC   C1A23823   0.939  32.810   8.823
 1675POPC   D2A23824   1.014  32.619   8.428
 1675POPC   C3A23825   1.060  32.855   8.074
 1675POPC   C4A23826   0.835  32.956   7.690
 1675POPC   C1B23827   1.383  33.002   8.637
 1675POPC   C2B23828   1.208  33.291   8.294
 1675POPC   C3B23829   1.204  33.269   7.834
 1675POPC   C4B23830   1.222  33.140   7.389
 1676POPC   NC323831  39.811  13.612   9.518
 1676POPC   PO423832  39.186  13.372   9.808
 1676POPC   GL123833  39.311  13.521   9.363
 1676POPC   GL223834  39.033  13.564   9.168
 1676POPC   C1A23835  39.475  13.519   8.895
 1676POPC   D2A23836  39.320  13.538   8.454
 1676POPC   C3A23837  39.448  13.725   8.094
 1676POPC   C4A23838  39.517  13.547   7.704
 1676POPC   C1B23839  38.975  13.761   8.742
 1676POPC   C2B23840  38.875  13.729   8.296
 1676POPC   C3B23841  38.983  13.569   7.882
 1676POPC   C4B23842  38.804  13.242   7.638
 1677POPC   NC323843  32.608  21.509   9.431
 1677POPC   PO423844  33.133  21.109   9.566
 1677POPC   GL123845  33.062  21.360   9.207
 1677POPC   GL223846  32.821  21.132   9.137
 1677POPC   C1A23847  33.054  21.534   8.777
 1677POPC   D2A23848  32.926  21.352   8.368
 1677POPC   C3A23849  33.041  21.500   7.996
 1677POPC   C4A23850  33.259  21.836   7.806
 1677POPC   C1B23851  33.032  21.027   8.791
 1677POPC   C2B23852  32.955  20.851   8.436
 1677POPC   C3B23853  33.212  20.880   8.110
 1677POPC   C4B23854  33.076  21.013   7.734
 1678POPC   NC323855  10.621  19.573   9.506
 1678POPC   PO423856  10.202  20.055   9.414
 1678POPC   GL123857  10.497  20.199   9.115
 1678POPC   GL223858  10.714  19.917   9.138
 1678POPC   C1A23859  10.377  20.248   8.673
 1678POPC   D2A23860  10.579  20.135   8.294
 1678POPC   C3A23861  10.464  19.836   8.007
 1678POPC   C4A23862  10.476  20.090   7.686
 1678POPC   C1B23863  10.822  19.974   8.719
 1678POPC   C2B23864  10.817  19.675   8.374
 1678POPC   C3B23865  10.829  19.480   7.964
 1678POPC   C4B23866  10.650  19.611   7.539
 1679POPC   NC323867   4.787   7.499   9.432
 1679POPC   PO423868   5.434   7.672   9.504
 1679POPC   GL123869   5.221   7.427   9.162
 1679POPC   GL223870   5.013   7.671   8.980
 1679POPC   C1A23871   5.076   7.211   8.766
 1679POPC   D2A23872   5.055   6.961   8.380
 1679POPC   C3A23873   4.982   7.156   7.981
 1679POPC   C4A23874   4.755   7.092   7.614
 1679POPC   C1B23875   5.440   7.635   8.740
 1679POPC   C2B23876   5.653   7.718   8.329
 1679POPC   C3B23877   5.430   7.722   7.905
 1679POPC   C4B23878   4.987   7.643   7.836
 1680POPC   NC323879  31.378   7.654   9.657
 1680POPC   PO423880  31.935   7.248   9.460
 1680POPC   GL123881  31.615   7.390   9.170
 1680POPC   GL223882  31.235   7.462   9.164
 1680POPC   C1A23883  31.494   7.327   8.737
 1680POPC   D2A23884  31.407   7.577   8.375
 1680POPC   C3A23885  31.150   7.359   8.093
 1680POPC   C4A23886  31.375   7.362   7.720
 1680POPC   C1B23887  31.075   7.722   8.764
 1680POPC   C2B23888  30.964   7.820   8.277
 1680POPC   C3B23889  31.269   7.820   7.900
 1680POPC   C4B23890  31.219   7.816   7.395
 1681POPC   NC323891  31.903  38.541   9.511
 1681POPC   PO423892  32.528  38.340   9.360
 1681POPC   GL123893  32.200  38.520   9.105
 1681POPC   GL223894  31.948  38.823   9.098
 1681POPC   C1A23895  32.255  38.344   8.725
 1681POPC   D2A23896  32.550  38.405   8.462
 1681POPC   C3A23897  32.349  38.484   8.100
 1681POPC   C4A23898  32.514  38.642   7.764
 1681POPC   C1B23899  32.211  38.879   8.755
 1681POPC   C2B23900  32.081  38.783   8.395
 1681POPC   C3B23901  32.059  38.939   8.007
 1681POPC   C4B23902  32.014  38.698   7.678
 1682POPC   NC323903   3.836  42.624   9.530
 1682POPC   PO423904   3.494  42.178   9.855
 1682POPC   GL123905   3.543  42.064   9.319
 1682POPC   GL223906   3.552  42.392   9.165
 1682POPC   C1A23907   3.485  42.076   8.785
 1682POPC   D2A23908   3.642  42.307   8.381
 1682POPC   C3A23909   3.633  42.196   7.917
 1682POPC   C4A23910   3.490  42.371   7.501
 1682POPC   C1B23911   3.871  42.428   8.854
 1682POPC   C2B23912   4.071  42.567   8.482
 1682POPC   C3B23913   3.988  42.655   8.064
 1682POPC   C4B23914   3.978  42.468   7.626
 1683POPC   NC323915  43.701  35.891   9.330
 1683POPC   PO423916  43.613  36.570   9.466
 1683POPC   GL123917  43.740  36.382   9.106
 1683POPC   GL223918  44.099  36.381   9.122
 1683POPC   C1A23919  43.727  36.132   8.742
 1683POPC   D2A23920  43.929  36.199   8.402
 1683POPC   C3A23921  43.698  36.188   8.056
 1683POPC   C4A23922  43.908  36.176   7.707
 1683POPC   C1B23923  44.220  36.013   8.852
 1683POPC   C2B23924  44.231  35.800   8.449
 1683POPC   C3B23925  44.307  36.048   8.048
 1683POPC   C4B23926  44.403  36.179   7.626
 1684POPC   NC323927  39.810  36.725   9.420
 1684POPC   PO423928  39.169  36.932   9.621
 1684POPC   GL123929  39.338  37.088   9.209
 1684POPC   GL223930  39.395  36.748   9.147
 1684POPC   C1A23931  39.303  37.001   8.714
 1684POPC   D2A23932  39.108  36.769   8.379
 1684POPC   C3A23933  39.221  36.915   7.975
 1684POPC   C4A23934  39.179  37.231   7.656
 1684POPC   C1B23935  39.625  36.615   8.795
 1684POPC   C2B23936  39.509  36.446   8.420
 1684POPC   C3B23937  39.611  36.611   8.071
 1684POPC   C4B23938  39.654  36.800   7.685
 1685POPC   NC323939  17.184   5.940   9.486
 1685POPC   PO423940  16.573   5.620   9.541
 1685POPC   GL123941  16.801   5.671   9.206
 1685POPC   GL223942  16.741   5.999   9.159
 1685POPC   C1A23943  16.752   5.429   8.833
 1685POPC   D2A23944  16.588   5.468   8.432
 1685POPC   C3A23945  16.798   5.323   8.081
 1685POPC   C4A23946  16.623   5.610   7.786
 1685POPC   C1B23947  16.706   6.276   8.828
 1685POPC   C2B23948  16.774   6.428   8.424
 1685POPC   C3B23949  16.831   6.316   8.024
 1685POPC   C4B23950  16.610   6.109   7.753
 1686POPC   NC323951  40.117  11.615   9.500
 1686POPC   PO423952  39.858  10.982   9.541
 1686POPC   GL123953  40.006  11.090   9.112
 1686POPC   GL223954  40.073  11.447   9.038
 1686POPC   C1A23955  40.067  11.126   8.643
 1686POPC   D2A23956  40.117  10.918   8.255
 1686POPC   C3A23957  40.326  11.041   7.862
 1686POPC   C4A23958  40.069  10.997   7.464
 1686POPC   C1B23959  40.430  11.479   8.749
 1686POPC   C2B23960  40.426  11.342   8.307
 1686POPC   C3B23961  40.216  11.526   7.958
 1686POPC   C4B23962  40.406  11.852   7.705
 1687POPC   NC323963  34.899   2.496   9.511
 1687POPC   PO423964  34.409   3.053   9.431
 1687POPC   GL123965  34.579   2.745   9.169
 1687POPC   GL223966  34.906   2.870   9.178
 1687POPC   C1A23967  34.507   2.705   8.722
 1687POPC   D2A23968  34.462   3.071   8.401
 1687POPC   C3A23969  34.378   2.929   7.977
 1687POPC   C4A23970  34.455   2.532   7.717
 1687POPC   C1B23971  34.820   3.098   8.814
 1687POPC   C2B23972  34.945   2.912   8.447
 1687POPC   C3B23973  34.889   3.052   8.073
 1687POPC   C4B23974  34.836   2.909   7.693
 1688POPC   NC323975  30.453   3.784   9.659
 1688POPC   PO423976  31.077   3.888   9.617
 1688POPC   GL123977  30.811   3.715   9.259
 1688POPC   GL223978  30.591   3.904   9.067
 1688POPC   C1A23979  30.844   3.562   8.789
 1688POPC   D2A23980  30.958   3.641   8.344
 1688POPC   C3A23981  30.719   3.473   7.989
 1688POPC   C4A23982  30.388   3.769   7.915
 1688POPC   C1B23983  30.968   4.057   8.765
 1688POPC   C2B23984  31.211   4.096   8.356
 1688POPC   C3B23985  31.030   4.002   7.964
 1688POPC   C4B23986  30.918   3.761   7.585
 1689POPC   NC323987  42.159  29.511   9.576
 1689POPC   PO423988  42.566  28.921   9.535
 1689POPC   GL123989  42.407  29.173   9.196
 1689POPC   GL223990  42.085  29.164   9.177
 1689POPC   C1A23991  42.498  29.128   8.776
 1689POPC   D2A23992  42.501  28.806   8.465
 1689POPC   C3A23993  42.608  29.003   8.114
 1689POPC   C4A23994  42.447  29.061   7.716
 1689POPC   C1B23995  42.043  29.380   8.797
 1689POPC   C2B23996  42.184  29.282   8.382
 1689POPC   C3B23997  42.115  29.454   7.972
 1689POPC   C4B23998  42.485  29.561   7.734
 1690POPC   NC323999  36.428  14.535   9.296
 1690POPC   PO424000  36.004  14.166   9.674
 1690POPC   GL124001  35.940  14.333   9.163
 1690POPC   GL224002  35.963  14.667   9.052
 1690POPC   C1A24003  36.042  14.310   8.696
 1690POPC   D2A24004  36.139  14.041   8.341
 1690POPC   C3A24005  36.112  14.199   7.922
 1690POPC   C4A24006  36.098  14.166   7.457
 1690POPC   C1B24007  36.250  14.770   8.689
 1690POPC   C2B24008  36.262  14.603   8.258
 1690POPC   C3B24009  36.156  14.757   7.831
 1690POPC   C4B24010  36.463  14.886   7.489
 1691POPC   NC324011  17.174  25.298   9.379
 1691POPC   PO424012  17.849  25.432   9.584
 1691POPC   GL124013  17.633  25.351   9.172
 1691POPC   GL224014  17.499  24.975   9.129
 1691POPC   C1A24015  17.468  25.319   8.728
 1691POPC   D2A24016  17.181  25.406   8.371
 1691POPC   C3A24017  17.432  25.413   7.985
 1691POPC   C4A24018  17.655  25.353   7.583
 1691POPC   C1B24019  17.230  24.855   8.774
 1691POPC   C2B24020  17.025  24.910   8.373
 1691POPC   C3B24021  16.985  25.099   7.995
 1691POPC   C4B24022  17.266  25.035   7.676
 1692POPC   NC324023   0.619  31.286   9.645
 1692POPC   PO424024   1.268  31.423   9.616
 1692POPC   GL124025   1.273  31.460   9.198
 1692POPC   GL224026   0.943  31.322   9.199
 1692POPC   C1A24027   1.348  31.278   8.806
 1692POPC   D2A24028   1.187  31.435   8.426
 1692POPC   C3A24029   1.290  31.319   8.033
 1692POPC   C4A24030   1.595  31.561   7.815
 1692POPC   C1B24031   0.924  31.591   8.841
 1692POPC   C2B24032   0.708  31.572   8.422
 1692POPC   C3B24033   0.805  31.510   8.009
 1692POPC   C4B24034   1.034  31.622   7.630
 1693POPC   NC324035  42.031  25.020   9.417
 1693POPC   PO424036  42.646  25.285   9.501
 1693POPC   GL124037  42.411  25.421   9.139
 1693POPC   GL224038  42.051  25.391   9.027
 1693POPC   C1A24039  42.589  25.582   8.791
 1693POPC   D2A24040  42.659  25.299   8.443
 1693POPC   C3A24041  42.622  25.469   8.039
 1693POPC   C4A24042  42.657  25.283   7.609
 1693POPC   C1B24043  42.229  25.192   8.723
 1693POPC   C2B24044  42.137  25.083   8.344
 1693POPC   C3B24045  42.393  24.982   8.011
 1693POPC   C4B24046  42.192  25.241   7.758
 1694POPC   NC324047  36.004   1.247   9.481
 1694POPC   PO424048  36.674   1.012   9.747
 1694POPC   GL124049  36.430   0.971   9.315
 1694POPC   GL224050  36.640   0.882   9.037
 1694POPC   C1A24051  36.189   1.046   8.878
 1694POPC   D2A24052  36.248   1.325   8.507
 1694POPC   C3A24053  36.279   1.035   8.175
 1694POPC   C4A24054  35.979   0.977   7.915
 1694POPC   C1B24055  36.587   1.357   8.962
 1694POPC   C2B24056  36.707   1.584   8.569
 1694POPC   C3B24057  36.583   1.694   8.148
 1694POPC   C4B24058  36.293   1.472   7.853
 1695POPC   NC324059  31.838   6.792   9.462
 1695POPC   PO424060  31.167   6.859   9.462
 1695POPC   GL124061  31.424   6.707   9.113
 1695POPC   GL224062  31.725   6.915   9.005
 1695POPC   C1A24063  31.572   6.484   8.739
 1695POPC   D2A24064  31.772   6.520   8.309
 1695POPC   C3A24065  31.484   6.639   8.021
 1695POPC   C4A24066  31.410   6.740   7.606
 1695POPC   C1B24067  31.792   6.936   8.605
 1695POPC   C2B24068  31.577   7.083   8.251
 1695POPC   C3B24069  31.739   7.027   7.832
 1695POPC   C4B24070  31.808   6.973   7.342
 1696POPC   NC324071  29.164  35.038   9.550
 1696POPC   PO424072  29.422  35.675   9.602
 1696POPC   GL124073  29.136  35.492   9.275
 1696POPC   GL224074  29.049  35.785   9.106
 1696POPC   C1A24075  29.119  35.189   8.894
 1696POPC   D2A24076  29.273  35.249   8.444
 1696POPC   C3A24077  29.044  35.181   8.054
 1696POPC   C4A24078  29.082  34.952   7.688
 1696POPC   C1B24079  29.274  35.645   8.751
 1696POPC   C2B24080  29.072  35.696   8.346
 1696POPC   C3B24081  28.950  35.681   7.928
 1696POPC   C4B24082  29.088  35.731   7.511
 1697POPC   NC324083   3.041   4.957   9.579
 1697POPC   PO424084   3.627   5.167   9.557
 1697POPC   GL124085   3.654   5.252   9.090
 1697POPC   GL224086   3.696   5.612   8.951
 1697POPC   C1A24087   3.632   5.171   8.643
 1697POPC   D2A24088   3.642   5.264   8.231
 1697POPC   C3A24089   3.447   4.962   7.996
 1697POPC   C4A24090   3.593   4.747   7.587
 1697POPC   C1B24091   3.256   5.441   8.834
 1697POPC   C2B24092   3.152   5.242   8.415
 1697POPC   C3B24093   3.190   5.415   7.986
 1697POPC   C4B24094   3.268   5.191   7.563
 1698POPC   NC324095  20.841  22.199   9.642
 1698POPC   PO424096  21.438  22.478   9.533
 1698POPC   GL124097  21.169  22.417   9.199
 1698POPC   GL224098  21.182  22.067   9.226
 1698POPC   C1A24099  21.248  22.424   8.735
 1698POPC   D2A24100  21.626  22.492   8.446
 1698POPC   C3A24101  21.513  22.385   8.043
 1698POPC   C4A24102  21.070  22.419   7.976
 1698POPC   C1B24103  21.514  22.016   8.884
 1698POPC   C2B24104  21.400  22.002   8.434
 1698POPC   C3B24105  21.277  21.905   8.017
 1698POPC   C4B24106  21.146  21.658   7.679
 1699POPC   NC324107  42.309  39.377   9.758
 1699POPC   PO424108  42.187  38.841   9.331
 1699POPC   GL124109  42.346  39.115   9.082
 1699POPC   GL224110  42.055  39.206   8.915
 1699POPC   C1A24111  42.535  39.193   8.716
 1699POPC   D2A24112  42.509  39.363   8.340
 1699POPC   C3A24113  42.366  39.076   8.063
 1699POPC   C4A24114  42.549  38.962   7.678
 1699POPC   C1B24115  42.175  39.585   8.672
 1699POPC   C2B24116  42.239  39.847   8.348
 1699POPC   C3B24117  42.131  39.586   8.035
 1699POPC   C4B24118  42.250  39.386   7.688
 1700POPC   NC324119  39.121   1.303   9.358
 1700POPC   PO424120  39.792   1.225   9.461
 1700POPC   GL124121  39.538   1.109   9.090
 1700POPC   GL224122  39.235   0.873   9.132
 1700POPC   C1A24123  39.370   1.078   8.655
 1700POPC   D2A24124  39.144   1.314   8.300
 1700POPC   C3A24125  39.335   1.342   7.881
 1700POPC   C4A24126  39.615   1.008   7.723
 1700POPC   C1B24127  38.898   1.079   8.810
 1700POPC   C2B24128  38.739   1.011   8.391
 1700POPC   C3B24129  38.727   1.108   7.947
 1700POPC   C4B24130  38.862   1.373   7.605
 1701POPC   NC324131  11.788  42.259   9.484
 1701POPC   PO424132  12.505  42.164   9.494
 1701POPC   GL124133  12.204  42.162   9.176
 1701POPC   GL224134  12.012  41.861   9.251
 1701POPC   C1A24135  12.112  42.361   8.763
 1701POPC   D2A24136  12.201  42.368   8.314
 1701POPC   C3A24137  12.018  42.641   8.006
 1701POPC   C4A24138  12.386  42.782   7.818
 1701POPC   C1B24139  12.094  41.829   8.814
 1701POPC   C2B24140  11.970  41.927   8.407
 1701POPC   C3B24141  11.758  42.181   8.091
 1701POPC   C4B24142  11.726  42.138   7.663
 1702POPC   NC324143  32.282  20.121   9.740
 1702POPC   PO424144  31.710  20.359   9.504
 1702POPC   GL124145  32.005  20.553   9.221
 1702POPC   GL224146  31.948  20.914   9.102
 1702POPC   C1A24147  32.050  20.534   8.767
 1702POPC   D2A24148  31.885  20.631   8.345
 1702POPC   C3A24149  32.163  20.728   8.023
 1702POPC   C4A24150  32.362  20.500   7.703
 1702POPC   C1B24151  32.092  21.033   8.675
 1702POPC   C2B24152  31.986  21.183   8.280
 1702POPC   C3B24153  32.055  21.185   7.824
 1702POPC   C4B24154  32.021  20.840   7.526
 1703POPC   NC324155  38.819  17.316   9.545
 1703POPC   PO424156  39.376  17.579   9.636
 1703POPC   GL124157  39.200  17.553   9.255
 1703POPC   GL224158  39.548  17.576   9.122
 1703POPC   C1A24159  39.107  17.444   8.831
 1703POPC   D2A24160  39.153  17.175   8.505
 1703POPC   C3A24161  39.143  17.247   8.073
 1703POPC   C4A24162  38.900  17.545   7.866
 1703POPC   C1B24163  39.534  17.698   8.692
 1703POPC   C2B24164  39.244  17.681   8.345
 1703POPC   C3B24165  39.353  17.810   7.935
 1703POPC   C4B24166  39.778  17.853   7.786
 1704POPC   NC324167  37.788  14.754   9.661
 1704POPC   PO424168  37.809  14.196   9.554
 1704POPC   GL124169  37.836  14.434   9.155
 1704POPC   GL224170  37.818  14.822   9.161
 1704POPC   C1A24171  37.741  14.262   8.720
 1704POPC   D2A24172  37.895  14.361   8.302
 1704POPC   C3A24173  37.671  14.212   7.941
 1704POPC   C4A24174  37.401  13.916   7.708
 1704POPC   C1B24175  37.716  14.760   8.756
 1704POPC   C2B24176  37.772  14.889   8.377
 1704POPC   C3B24177  37.779  14.765   7.980
 1704POPC   C4B24178  37.723  14.562   7.587
 1705POPC   NC324179  30.716  39.739   9.394
 1705POPC   PO424180  30.300  39.141   9.425
 1705POPC   GL124181  30.493  39.371   9.109
 1705POPC   GL224182  30.814  39.194   8.962
 1705POPC   C1A24183  30.593  39.613   8.751
 1705POPC   D2A24184  30.756  39.375   8.425
 1705POPC   C3A24185  30.777  39.547   8.031
 1705POPC   C4A24186  30.857  39.385   7.611
 1705POPC   C1B24187  30.464  39.012   8.719
 1705POPC   C2B24188  30.342  39.104   8.287
 1705POPC   C3B24189  30.601  39.072   7.932
 1705POPC   C4B24190  30.544  39.021   7.477
 1706POPC   NC324191  34.630   8.221   9.542
 1706POPC   PO424192  34.938   8.837   9.552
 1706POPC   GL124193  34.871   8.492   9.178
 1706POPC   GL224194  34.531   8.307   9.064
 1706POPC   C1A24195  34.889   8.363   8.728
 1706POPC   D2A24196  34.824   8.634   8.389
 1706POPC   C3A24197  34.711   8.464   7.980
 1706POPC   C4A24198  34.469   8.341   7.591
 1706POPC   C1B24199  34.446   7.979   8.771
 1706POPC   C2B24200  34.582   7.901   8.345
 1706POPC   C3B24201  34.677   7.969   7.923
 1706POPC   C4B24202  34.585   7.801   7.504
 1707POPC   NC324203  40.265  38.267   9.405
 1707POPC   PO424204  39.620  38.690   9.502
 1707POPC   GL124205  39.849  38.500   9.208
 1707POPC   GL224206  40.162  38.666   9.119
 1707POPC   C1A24207  39.833  38.278   8.838
 1707POPC   D2A24208  39.651  38.407   8.462
 1707POPC   C3A24209  39.720  38.264   8.004
 1707POPC   C4A24210  39.826  38.369   7.558
 1707POPC   C1B24211  40.283  38.516   8.708
 1707POPC   C2B24212  40.135  38.372   8.302
 1707POPC   C3B24213  40.220  38.522   7.888
 1707POPC   C4B24214  40.611  38.390   7.740
 1708POPC   NC324215   7.239  10.084   9.957
 1708POPC   PO424216   7.107  10.669   9.631
 1708POPC   GL124217   7.231  10.717   9.208
 1708POPC   GL224218   7.303  10.350   9.202
 1708POPC   C1A24219   7.460  10.698   8.825
 1708POPC   D2A24220   7.680  10.549   8.482
 1708POPC   C3A24221   7.428  10.629   8.130
 1708POPC   C4A24222   7.245  10.772   7.771
 1708POPC   C1B24223   7.570  10.196   8.854
 1708POPC   C2B24224   7.662  10.030   8.436
 1708POPC   C3B24225   7.643  10.191   8.016
 1708POPC   C4B24226   7.324  10.113   7.701
 1709POPC   NC324227  24.012  31.110   9.895
 1709POPC   PO424228  23.729  31.513   9.508
 1709POPC   GL124229  23.560  31.257   9.206
 1709POPC   GL224230  23.871  31.158   9.092
 1709POPC   C1A24231  23.489  31.208   8.759
 1709POPC   D2A24232  23.610  31.513   8.473
 1709POPC   C3A24233  23.581  31.685   8.114
 1709POPC   C4A24234  23.640  31.606   7.742
 1709POPC   C1B24235  23.935  31.518   8.858
 1709POPC   C2B24236  24.115  31.498   8.486
 1709POPC   C3B24237  24.075  31.545   8.088
 1709POPC   C4B24238  24.058  31.880   7.840
 1710POPC   NC324239  19.746  41.982  10.125
 1710POPC   PO424240  19.777  42.282   9.477
 1710POPC   GL124241  20.004  42.316   9.134
 1710POPC   GL224242  20.177  42.010   9.188
 1710POPC   C1A24243  20.038  42.334   8.704
 1710POPC   D2A24244  19.838  42.140   8.378
 1710POPC   C3A24245  19.776  42.493   8.107
 1710POPC   C4A24246  19.693  42.699   7.715
 1710POPC   C1B24247  20.096  41.848   8.768
 1710POPC   C2B24248  20.315  41.955   8.372
 1710POPC   C3B24249  20.176  42.181   8.014
 1710POPC   C4B24250  19.878  42.239   7.692
 1711POPC   NC324251  26.548   0.443   9.550
 1711POPC   PO424252  25.921   0.791   9.443
 1711POPC   GL124253  26.036   0.481   9.149
 1711POPC   GL224254  26.338   0.349   9.110
 1711POPC   C1A24255  25.903   0.301   8.775
 1711POPC   D2A24256  25.670   0.281   8.408
 1711POPC   C3A24257  25.907   0.164   8.066
 1711POPC   C4A24258  25.829   0.361   7.686
 1711POPC   C1B24259  26.373   0.516   8.731
 1711POPC   C2B24260  26.369   0.315   8.338
 1711POPC   C3B24261  26.274   0.502   7.944
 1711POPC   C4B24262  26.285   0.437   7.498
 1712POPC   NC324263  35.245  29.715   9.559
 1712POPC   PO424264  35.838  29.869   9.584
 1712POPC   GL124265  35.574  29.786   9.199
 1712POPC   GL224266  35.306  30.067   9.179
 1712POPC   C1A24267  35.319  29.745   8.812
 1712POPC   D2A24268  35.382  30.097   8.506
 1712POPC   C3A24269  35.377  29.916   8.084
 1712POPC   C4A24270  35.541  29.863   7.678
 1712POPC   C1B24271  34.939  30.108   8.849
 1712POPC   C2B24272  34.906  29.980   8.414
 1712POPC   C3B24273  34.945  30.149   7.996
 1712POPC   C4B24274  35.026  29.929   7.623
 1713POPC   NC324275  41.967  28.724   9.419
 1713POPC   PO424276  41.730  29.416   9.443
 1713POPC   GL124277  41.603  29.340   9.074
 1713POPC   GL224278  41.589  28.989   9.119
 1713POPC   C1A24279  41.524  29.255   8.695
 1713POPC   D2A24280  41.716  29.073   8.384
 1713POPC   C3A24281  41.608  29.284   8.057
 1713POPC   C4A24282  41.636  29.463   7.688
 1713POPC   C1B24283  41.583  28.731   8.752
 1713POPC   C2B24284  41.481  28.619   8.324
 1713POPC   C3B24285  41.451  28.815   7.935
 1713POPC   C4B24286  41.204  29.181   7.770
 1714POPC   NC324287  22.902  31.876   9.722
 1714POPC   PO424288  22.761  31.272   9.442
 1714POPC   GL124289  23.071  31.447   9.111
 1714POPC   GL224290  23.304  31.733   9.222
 1714POPC   C1A24291  23.100  31.504   8.634
 1714POPC   D2A24292  23.237  31.222   8.279
 1714POPC   C3A24293  23.209  31.311   7.828
 1714POPC   C4A24294  22.841  31.448   7.559
 1714POPC   C1B24295  23.419  31.889   8.775
 1714POPC   C2B24296  23.204  31.925   8.329
 1714POPC   C3B24297  23.172  31.832   7.826
 1714POPC   C4B24298  23.282  31.617   7.398
 1715POPC   NC324299  25.916   4.524   9.625
 1715POPC   PO424300  26.219   3.913   9.601
 1715POPC   GL124301  25.994   4.074   9.268
 1715POPC   GL224302  26.104   4.385   9.181
 1715POPC   C1A24303  25.902   4.076   8.802
 1715POPC   D2A24304  26.083   4.233   8.383
 1715POPC   C3A24305  25.893   4.034   8.027
 1715POPC   C4A24306  25.545   3.861   7.782
 1715POPC   C1B24307  26.026   4.570   8.778
 1715POPC   C2B24308  25.976   4.754   8.359
 1715POPC   C3B24309  26.003   4.552   7.943
 1715POPC   C4B24310  25.997   4.648   7.494
 1716POPC   NC324311  33.497  33.083   9.440
 1716POPC   PO424312  32.796  32.973   9.472
 1716POPC   GL124313  32.874  32.787   9.065
 1716POPC   GL224314  33.211  32.715   9.040
 1716POPC   C1A24315  32.600  32.739   8.728
 1716POPC   D2A24316  32.595  32.864   8.314
 1716POPC   C3A24317  32.922  33.103   8.161
 1716POPC   C4A24318  32.893  32.907   7.790
 1716POPC   C1B24319  33.094  32.779   8.577
 1716POPC   C2B24320  33.149  32.643   8.137
 1716POPC   C3B24321  33.399  32.930   7.876
 1716POPC   C4B24322  33.433  33.379   7.772
 1717POPC   NC324323   4.080  33.734   9.517
 1717POPC   PO424324   4.722  33.495   9.381
 1717POPC   GL124325   4.394  33.692   9.122
 1717POPC   GL224326   4.322  34.062   9.182
 1717POPC   C1A24327   4.254  33.605   8.697
 1717POPC   D2A24328   4.051  33.603   8.277
 1717POPC   C3A24329   4.303  33.813   7.965
 1717POPC   C4A24330   4.543  33.557   7.694
 1717POPC   C1B24331   4.184  34.109   8.766
 1717POPC   C2B24332   4.074  34.118   8.332
 1717POPC   C3B24333   4.028  34.266   7.907
 1717POPC   C4B24334   4.309  34.220   7.563
 1718POPC   NC324335   7.009  39.378   9.385
 1718POPC   PO424336   7.630  39.013   9.377
 1718POPC   GL124337   7.488  39.332   9.101
 1718POPC   GL224338   7.654  39.632   9.136
 1718POPC   C1A24339   7.449  39.259   8.658
 1718POPC   D2A24340   7.646  39.094   8.294
 1718POPC   C3A24341   7.308  38.987   7.980
 1718POPC   C4A24342   7.395  39.003   7.542
 1718POPC   C1B24343   7.384  39.750   8.758
 1718POPC   C2B24344   7.106  39.633   8.380
 1718POPC   C3B24345   7.220  39.514   7.950
 1718POPC   C4B24346   7.635  39.385   7.865
 1719POPC   NC324347  10.717  10.789   9.502
 1719POPC   PO424348  11.391  10.551   9.684
 1719POPC   GL124349  11.316  10.434   9.241
 1719POPC   GL224350  11.554  10.623   9.167
 1719POPC   C1A24351  11.255  10.450   8.788
 1719POPC   D2A24352  11.020  10.571   8.442
 1719POPC   C3A24353  11.229  10.466   8.079
 1719POPC   C4A24354  11.205  10.666   7.695
 1719POPC   C1B24355  11.529  10.903   8.866
 1719POPC   C2B24356  11.466  10.816   8.457
 1719POPC   C3B24357  11.526  10.907   8.050
 1719POPC   C4B24358  11.706  10.778   7.667
 1720POPC   NC324359  10.758  41.114   9.533
 1720POPC   PO424360  10.261  40.652   9.641
 1720POPC   GL124361  10.460  40.594   9.241
 1720POPC   GL224362  10.288  40.889   9.166
 1720POPC   C1A24363  10.707  40.600   8.830
 1720POPC   D2A24364  10.858  40.419   8.403
 1720POPC   C3A24365  10.686  40.586   8.014
 1720POPC   C4A24366  10.651  41.021   7.812
 1720POPC   C1B24367  10.185  40.634   8.810
 1720POPC   C2B24368  10.372  40.674   8.408
 1720POPC   C3B24369  10.208  40.795   7.965
 1720POPC   C4B24370  10.427  40.637   7.566
 1721POPC   NC324371  23.574   4.046   9.629
 1721POPC   PO424372  24.063   4.503   9.516
 1721POPC   GL124373  23.825   4.275   9.167
 1721POPC   GL224374  23.552   4.018   9.138
 1721POPC   C1A24375  23.603   4.405   8.806
 1721POPC   D2A24376  23.493   4.695   8.527
 1721POPC   C3A24377  23.664   4.509   8.205
 1721POPC   C4A24378  23.736   4.553   7.801
 1721POPC   C1B24379  23.764   3.929   8.749
 1721POPC   C2B24380  23.553   4.019   8.395
 1721POPC   C3B24381  23.683   4.048   7.996
 1721POPC   C4B24382  24.022   3.942   7.767
 1722POPC   NC324383  34.534  23.352   9.873
 1722POPC   PO424384  34.517  23.930   9.429
 1722POPC   GL124385  34.705  23.780   9.091
 1722POPC   GL224386  34.909  24.040   9.025
 1722POPC   C1A24387  34.480  23.627   8.725
 1722POPC   D2A24388  34.592  23.343   8.406
 1722POPC   C3A24389  34.683  23.542   8.027
 1722POPC   C4A24390  34.407  23.822   7.813
 1722POPC   C1B24391  34.824  23.991   8.576
 1722POPC   C2B24392  34.793  24.055   8.120
 1722POPC   C3B24393  34.917  24.040   7.681
 1722POPC   C4B24394  34.852  24.283   7.294
 1723POPC   NC324395  10.196  41.870   9.573
 1723POPC   PO424396  10.846  41.606   9.412
 1723POPC   GL124397  10.534  41.368   9.128
 1723POPC   GL224398  10.166  41.389   9.183
 1723POPC   C1A24399  10.479  41.111   8.739
 1723POPC   D2A24400  10.355  41.183   8.302
 1723POPC   C3A24401  10.586  41.482   8.026
 1723POPC   C4A24402  10.729  41.489   7.563
 1723POPC   C1B24403  10.158  41.568   8.768
 1723POPC   C2B24404  10.201  41.708   8.355
 1723POPC   C3B24405  10.226  41.826   7.927
 1723POPC   C4B24406  10.219  41.491   7.622
 1724POPC   NC324407  10.646  37.160   9.761
 1724POPC   PO424408  10.732  36.627   9.258
 1724POPC   GL124409  10.340  36.803   9.029
 1724POPC   GL224410  10.332  37.142   8.867
 1724POPC   C1A24411  10.275  36.742   8.562
 1724POPC   D2A24412  10.581  36.641   8.230
 1724POPC   C3A24413  10.444  36.606   7.789
 1724POPC   C4A24414  10.203  36.749   7.404
 1724POPC   C1B24415  10.715  36.986   8.651
 1724POPC   C2B24416  10.904  37.079   8.300
 1724POPC   C3B24417  10.787  37.015   7.902
 1724POPC   C4B24418  10.381  37.133   7.703
 1725POPC   NC324419  34.100  28.817   9.553
 1725POPC   PO424420  33.699  28.403   9.695
 1725POPC   GL124421  33.592  28.378   9.260
 1725POPC   GL224422  33.922  28.491   9.144
 1725POPC   C1A24423  33.553  28.331   8.804
 1725POPC   D2A24424  33.432  28.441   8.380
 1725POPC   C3A24425  33.630  28.555   8.024
 1725POPC   C4A24426  33.757  28.382   7.630
 1725POPC   C1B24427  34.055  28.280   8.739
 1725POPC   C2B24428  33.994  28.360   8.309
 1725POPC   C3B24429  34.135  28.241   7.923
 1725POPC   C4B24430  34.002  27.926   7.660
 1726POPC   NC324431  16.948  10.227   9.510
 1726POPC   PO424432  17.489  10.649   9.396
 1726POPC   GL124433  17.238  10.461   9.112
 1726POPC   GL224434  17.261  10.079   9.125
 1726POPC   C1A24435  17.303  10.623   8.700
 1726POPC   D2A24436  17.258  10.752   8.277
 1726POPC   C3A24437  17.593  10.750   8.004
 1726POPC   C4A24438  17.430  10.633   7.599
 1726POPC   C1B24439  17.548  10.099   8.767
 1726POPC   C2B24440  17.596  10.329   8.376
 1726POPC   C3B24441  17.377  10.289   8.002
 1726POPC   C4B24442  17.681  10.158   7.732
 1727POPC   NC324443  19.246  13.148   9.255
 1727POPC   PO424444  19.372  13.782   9.576
 1727POPC   GL124445  19.190  13.683   9.176
 1727POPC   GL224446  18.872  13.458   9.129
 1727POPC   C1A24447  19.415  13.592   8.794
 1727POPC   D2A24448  19.287  13.690   8.410
 1727POPC   C3A24449  19.218  13.356   8.141
 1727POPC   C4A24450  19.319  13.525   7.764
 1727POPC   C1B24451  18.871  13.584   8.711
 1727POPC   C2B24452  18.718  13.420   8.299
 1727POPC   C3B24453  18.812  13.588   7.880
 1727POPC   C4B24454  18.687  13.980   7.678
 1728POPC   NC324455  41.190   5.646   9.769
 1728POPC   PO424456  41.751   6.060   9.612
 1728POPC   GL124457  41.625   5.936   9.162
 1728POPC   GL224458  41.717   5.587   9.008
 1728POPC   C1A24459  41.484   5.962   8.756
 1728POPC   D2A24460  41.631   6.101   8.368
 1728POPC   C3A24461  41.508   5.888   8.000
 1728POPC   C4A24462  41.833   5.988   7.717
 1728POPC   C1B24463  41.486   5.438   8.658
 1728POPC   C2B24464  41.690   5.394   8.272
 1728POPC   C3B24465  41.745   5.448   7.834
 1728POPC   C4B24466  41.446   5.567   7.503
 1729POPC   NC324467   5.705   0.598   9.658
 1729POPC   PO424468   5.166   0.592   9.359
 1729POPC   GL124469   5.217   0.464   8.973
 1729POPC   GL224470   5.243   0.114   8.950
 1729POPC   C1A24471   5.303   0.476   8.577
 1729POPC   D2A24472   5.333   0.327   8.196
 1729POPC   C3A24473   5.055   0.619   8.061
 1729POPC   C4A24474   5.200   0.923   7.837
 1729POPC   C1B24475   5.163  44.962   8.533
 1729POPC   C2B24476   4.866   0.113   8.213
 1729POPC   C3B24477   4.978   0.209   7.762
 1729POPC   C4B24478   4.920   0.243   7.279
 1730POPC   NC324479  38.083  25.690   9.430
 1730POPC   PO424480  38.411  26.320   9.653
 1730POPC   GL124481  38.424  26.192   9.227
 1730POPC   GL224482  38.326  25.883   9.028
 1730POPC   C1A24483  38.692  26.270   8.874
 1730POPC   D2A24484  38.817  26.135   8.443
 1730POPC   C3A24485  38.536  26.192   8.078
 1730POPC   C4A24486  38.600  26.227   7.631
 1730POPC   C1B24487  38.339  25.971   8.573
 1730POPC   C2B24488  38.054  25.973   8.205
 1730POPC   C3B24489  38.065  26.105   7.759
 1730POPC   C4B24490  38.242  25.917   7.383
 1731POPC   NC324491  15.812  39.199   9.934
 1731POPC   PO424492  16.118  39.563   9.503
 1731POPC   GL124493  16.028  39.473   9.118
 1731POPC   GL224494  15.978  39.143   9.189
 1731POPC   C1A24495  16.180  39.390   8.711
 1731POPC   D2A24496  16.115  39.579   8.323
 1731POPC   C3A24497  16.011  39.350   7.956
 1731POPC   C4A24498  15.745  39.395   7.605
 1731POPC   C1B24499  16.123  38.903   8.831
 1731POPC   C2B24500  16.037  39.009   8.392
 1731POPC   C3B24501  15.884  38.826   8.019
 1731POPC   C4B24502  16.017  38.959   7.595
 1732POPC   NC324503  14.147  18.265   9.618
 1732POPC   PO424504  14.723  18.465   9.567
 1732POPC   GL124505  14.445  18.365   9.196
 1732POPC   GL224506  14.136  18.141   9.137
 1732POPC   C1A24507  14.248  18.538   8.836
 1732POPC   D2A24508  14.314  18.620   8.423
 1732POPC   C3A24509  14.287  18.357   8.056
 1732POPC   C4A24510  14.505  18.228   7.724
 1732POPC   C1B24511  14.381  18.019   8.792
 1732POPC   C2B24512  14.484  18.006   8.367
 1732POPC   C3B24513  14.297  17.847   7.990
 1732POPC   C4B24514  14.516  17.674   7.670
 1733POPC   NC324515  44.722   9.470   9.274
 1733POPC   PO424516  44.557   8.817   9.550
 1733POPC   GL124517  44.499   8.975   9.169
 1733POPC   GL224518  44.848   8.887   9.121
 1733POPC   C1A24519  44.353   9.170   8.787
 1733POPC   D2A24520  44.611   9.363   8.472
 1733POPC   C3A24521  44.533   9.184   8.077
 1733POPC   C4A24522  44.740   9.121   7.706
 1733POPC   C1B24523  44.733   8.654   8.815
 1733POPC   C2B24524  44.622   8.812   8.441
 1733POPC   C3B24525  44.812   8.729   8.070
 1733POPC   C4B24526  44.812   8.561   7.703
 1734POPC   NC324527  18.110   1.295   9.838
 1734POPC   PO424528  17.440   1.103   9.574
 1734POPC   GL124529  17.512   1.378   9.182
 1734POPC   GL224530  17.536   1.079   9.015
 1734POPC   C1A24531  17.658   1.491   8.719
 1734POPC   D2A24532  17.681   1.821   8.400
 1734POPC   C3A24533  17.601   1.670   7.996
 1734POPC   C4A24534  17.525   1.576   7.557
 1734POPC   C1B24535  17.398   1.051   8.602
 1734POPC   C2B24536  17.608   1.233   8.272
 1734POPC   C3B24537  17.571   1.157   7.876
 1734POPC   C4B24538  17.247   0.904   7.705
 1735POPC   NC324539  10.345  34.005   9.598
 1735POPC   PO424540  10.965  33.824   9.369
 1735POPC   GL124541  10.581  33.804   9.099
 1735POPC   GL224542  10.247  33.992   9.102
 1735POPC   C1A24543  10.511  33.893   8.648
 1735POPC   D2A24544  10.724  33.736   8.292
 1735POPC   C3A24545  10.447  33.701   7.968
 1735POPC   C4A24546  10.507  33.968   7.636
 1735POPC   C1B24547   9.981  33.990   8.728
 1735POPC   C2B24548  10.011  33.954   8.275
 1735POPC   C3B24549  10.042  34.015   7.816
 1735POPC   C4B24550  10.063  33.968   7.314
 1736POPC   NC324551  27.201  42.152   9.691
 1736POPC   PO424552  26.900  42.716   9.886
 1736POPC   GL124553  26.913  42.504   9.426
 1736POPC   GL224554  27.260  42.457   9.280
 1736POPC   C1A24555  26.877  42.429   8.936
 1736POPC   D2A24556  26.880  42.519   8.493
 1736POPC   C3A24557  26.623  42.412   8.161
 1736POPC   C4A24558  26.774  42.514   7.762
 1736POPC   C1B24559  27.203  42.062   9.020
 1736POPC   C2B24560  27.121  42.053   8.548
 1736POPC   C3B24561  27.078  42.155   8.098
 1736POPC   C4B24562  26.921  42.024   7.690
 1737POPC   NC324563  44.402  34.571   9.379
 1737POPC   PO424564  43.732  34.770   9.415
 1737POPC   GL124565  43.669  34.545   9.042
 1737POPC   GL224566  43.998  34.458   9.082
 1737POPC   C1A24567  43.718  34.473   8.637
 1737POPC   D2A24568  44.053  34.730   8.475
 1737POPC   C3A24569  44.038  34.742   8.031
 1737POPC   C4A24570  43.902  34.374   7.808
 1737POPC   C1B24571  44.165  34.244   8.715
 1737POPC   C2B24572  44.374  34.150   8.296
 1737POPC   C3B24573  44.398  34.394   7.906
 1737POPC   C4B24574  44.287  34.382   7.458
 1738POPC   NC324575  42.487  20.694   9.845
 1738POPC   PO424576  42.182  20.097   9.809
 1738POPC   GL124577  42.604  20.355   9.484
 1738POPC   GL224578  42.559  20.754   9.345
 1738POPC   C1A24579  42.715  20.451   8.985
 1738POPC   D2A24580  42.514  20.555   8.590
 1738POPC   C3A24581  42.575  20.309   8.201
 1738POPC   C4A24582  42.396  20.317   7.790
 1738POPC   C1B24583  42.393  21.017   8.970
 1738POPC   C2B24584  42.296  21.030   8.514
 1738POPC   C3B24585  42.374  20.801   8.108
 1738POPC   C4B24586  42.144  20.860   7.700
 1739POPC   NC324587  42.647   5.385   9.847
 1739POPC   PO424588  42.923   4.960   9.444
 1739POPC   GL124589  43.237   5.136   9.243
 1739POPC   GL224590  43.501   4.884   9.320
 1739POPC   C1A24591  43.176   5.348   8.862
 1739POPC   D2A24592  42.894   5.221   8.535
 1739POPC   C3A24593  42.876   5.424   8.153
 1739POPC   C4A24594  42.929   5.330   7.725
 1739POPC   C1B24595  43.560   4.994   8.881
 1739POPC   C2B24596  43.433   5.097   8.484
 1739POPC   C3B24597  43.307   5.169   8.090
 1739POPC   C4B24598  43.374   5.039   7.697
 1740POPC   NC324599  15.395   3.055   9.430
 1740POPC   PO424600  15.153   2.431   9.630
 1740POPC   GL124601  15.163   2.611   9.220
 1740POPC   GL224602  15.072   2.284   9.132
 1740POPC   C1A24603  15.103   2.809   8.801
 1740POPC   D2A24604  15.073   3.061   8.409
 1740POPC   C3A24605  15.199   2.936   7.992
 1740POPC   C4A24606  14.971   2.771   7.633
 1740POPC   C1B24607  15.281   2.305   8.734
 1740POPC   C2B24608  15.231   2.475   8.322
 1740POPC   C3B24609  15.454   2.510   7.946
 1740POPC   C4B24610  15.619   2.559   7.541
 1741POPC   NC324611   7.135  24.197   9.373
 1741POPC   PO424612   7.697  24.534   9.522
 1741POPC   GL124613   7.572  24.518   9.110
 1741POPC   GL224614   7.554  24.169   9.024
 1741POPC   C1A24615   7.598  24.596   8.673
 1741POPC   D2A24616   7.392  24.544   8.294
 1741POPC   C3A24617   7.651  24.714   7.990
 1741POPC   C4A24618   7.881  24.448   7.771
 1741POPC   C1B24619   7.183  24.297   8.739
 1741POPC   C2B24620   7.067  24.103   8.335
 1741POPC   C3B24621   7.074  24.299   7.944
 1741POPC   C4B24622   7.164  24.732   7.856
 1742POPC   NC324623  34.652  12.601   9.565
 1742POPC   PO424624  34.247  13.064   9.568
 1742POPC   GL124625  34.284  13.095   9.144
 1742POPC   GL224626  34.390  12.768   9.157
 1742POPC   C1A24627  34.368  13.246   8.712
 1742POPC   D2A24628  34.606  13.537   8.449
 1742POPC   C3A24629  34.627  13.356   8.018
 1742POPC   C4A24630  34.450  13.000   7.780
 1742POPC   C1B24631  34.248  12.721   8.750
 1742POPC   C2B24632  34.388  12.796   8.347
 1742POPC   C3B24633  34.330  12.560   8.008
 1742POPC   C4B24634  34.186  12.581   7.587
 1743POPC   NC324635  33.152  19.899   9.448
 1743POPC   PO424636  32.807  19.269   9.297
 1743POPC   GL124637  33.018  19.572   9.050
 1743POPC   GL224638  33.388  19.675   9.063
 1743POPC   C1A24639  33.070  19.681   8.640
 1743POPC   D2A24640  32.814  20.013   8.474
 1743POPC   C3A24641  32.583  19.983   8.107
 1743POPC   C4A24642  32.754  20.161   7.761
 1743POPC   C1B24643  33.364  20.066   8.826
 1743POPC   C2B24644  33.354  20.072   8.427
 1743POPC   C3B24645  33.209  19.799   8.136
 1743POPC   C4B24646  33.209  19.876   7.721
 1744POPC   NC324647  31.183  40.729   9.545
 1744POPC   PO424648  31.789  40.990   9.520
 1744POPC   GL124649  31.543  40.893   9.188
 1744POPC   GL224650  31.489  41.248   9.125
 1744POPC   C1A24651  31.256  40.835   8.843
 1744POPC   D2A24652  31.161  41.113   8.473
 1744POPC   C3A24653  31.323  40.981   8.025
 1744POPC   C4A24654  31.302  40.925   7.548
 1744POPC   C1B24655  31.694  41.083   8.738
 1744POPC   C2B24656  31.588  40.802   8.437
 1744POPC   C3B24657  31.759  40.564   8.136
 1744POPC   C4B24658  31.425  40.497   7.880
 1745POPC   NC324659  12.725  28.574   9.582
 1745POPC   PO424660  13.179  28.083   9.581
 1745POPC   GL124661  13.016  28.338   9.219
 1745POPC   GL224662  13.112  28.691   9.266
 1745POPC   C1A24663  12.720  28.398   8.844
 1745POPC   D2A24664  12.630  28.436   8.379
 1745POPC   C3A24665  12.710  28.279   7.929
 1745POPC   C4A24666  12.535  28.495   7.578
 1745POPC   C1B24667  13.159  28.670   8.853
 1745POPC   C2B24668  13.113  28.574   8.445
 1745POPC   C3B24669  13.208  28.377   8.095
 1745POPC   C4B24670  13.175  28.619   7.784
 1746POPC   NC324671  33.590  32.105   9.540
 1746POPC   PO424672  33.762  32.723   9.401
 1746POPC   GL124673  33.566  32.350   9.090
 1746POPC   GL224674  33.446  31.956   9.089
 1746POPC   C1A24675  33.619  32.338   8.637
 1746POPC   D2A24676  33.898  32.399   8.244
 1746POPC   C3A24677  33.955  32.162   7.840
 1746POPC   C4A24678  34.172  32.375   7.473
 1746POPC   C1B24679  33.719  31.835   8.733
 1746POPC   C2B24680  33.724  31.927   8.294
 1746POPC   C3B24681  33.600  31.784   7.913
 1746POPC   C4B24682  33.713  31.825   7.486
 1747POPC   NC324683  29.768  39.809   9.653
 1747POPC   PO424684  30.149  40.327   9.496
 1747POPC   GL124685  30.037  40.139   9.050
 1747POPC   GL224686  29.797  39.894   9.066
 1747POPC   C1A24687  30.144  39.962   8.655
 1747POPC   D2A24688  30.179  40.199   8.259
 1747POPC   C3A24689  30.039  40.037   7.854
 1747POPC   C4A24690  29.922  39.792   7.497
 1747POPC   C1B24691  29.733  39.675   8.659
 1747POPC   C2B24692  29.804  39.818   8.253
 1747POPC   C3B24693  29.545  39.935   7.908
 1747POPC   C4B24694  29.428  39.706   7.577
 1748POPC   NC324695  22.318  24.800   9.412
 1748POPC   PO424696  21.685  24.735   9.688
 1748POPC   GL124697  21.858  24.696   9.216
 1748POPC   GL224698  21.932  25.053   9.148
 1748POPC   C1A24699  22.182  24.586   8.803
 1748POPC   D2A24700  22.301  24.386   8.376
 1748POPC   C3A24701  22.303  24.568   7.932
 1748POPC   C4A24702  22.332  24.355   7.503
 1748POPC   C1B24703  21.801  24.914   8.731
 1748POPC   C2B24704  22.071  24.855   8.354
 1748POPC   C3B24705  21.977  25.013   7.971
 1748POPC   C4B24706  21.587  24.916   7.777
 1749POPC   NC324707  25.372  40.691   9.525
 1749POPC   PO424708  24.910  41.092   9.544
 1749POPC   GL124709  25.177  41.028   9.217
 1749POPC   GL224710  25.478  41.182   9.373
 1749POPC   C1A24711  25.292  40.752   8.864
 1749POPC   D2A24712  25.187  40.958   8.494
 1749POPC   C3A24713  25.116  40.724   8.158
 1749POPC   C4A24714  25.341  40.612   7.819
 1749POPC   C1B24715  25.581  41.145   8.942
 1749POPC   C2B24716  25.673  41.091   8.503
 1749POPC   C3B24717  25.523  41.024   8.074
 1749POPC   C4B24718  25.703  40.989   7.662
 1750POPC   NC324719   9.209  40.746   9.214
 1750POPC   PO424720   8.698  41.128   9.515
 1750POPC   GL124721   8.772  40.963   9.104
 1750POPC   GL224722   8.702  40.655   9.214
 1750POPC   C1A24723   8.974  41.042   8.694
 1750POPC   D2A24724   9.254  40.820   8.409
 1750POPC   C3A24725   9.143  40.980   8.001
 1750POPC   C4A24726   9.051  40.721   7.664
 1750POPC   C1B24727   8.707  40.482   8.830
 1750POPC   C2B24728   8.600  40.407   8.425
 1750POPC   C3B24729   8.750  40.592   8.085
 1750POPC   C4B24730   8.681  40.390   7.733
 1751POPC   NC324731  17.436  20.286   9.477
 1751POPC   PO424732  16.915  20.786   9.457
 1751POPC   GL124733  17.301  20.779   9.132
 1751POPC   GL224734  17.473  20.490   9.034
 1751POPC   C1A24735  17.482  20.817   8.675
 1751POPC   D2A24736  17.469  20.540   8.335
 1751POPC   C3A24737  17.218  20.616   7.991
 1751POPC   C4A24738  17.288  20.556   7.565
 1751POPC   C1B24739  17.779  20.387   8.714
 1751POPC   C2B24740  17.992  20.595   8.377
 1751POPC   C3B24741  17.800  20.682   7.963
 1751POPC   C4B24742  17.806  20.495   7.544
 1752POPC   NC324743  36.426   3.618   9.577
 1752POPC   PO424744  35.963   3.168   9.806
 1752POPC   GL124745  36.089   3.308   9.339
 1752POPC   GL224746  36.462   3.323   9.184
 1752POPC   C1A24747  36.087   3.679   9.003
 1752POPC   D2A24748  36.247   3.691   8.550
 1752POPC   C3A24749  36.003   3.824   8.217
 1752POPC   C4A24750  35.894   3.710   7.804
 1752POPC   C1B24751  36.279   3.251   8.820
 1752POPC   C2B24752  36.288   3.204   8.386
 1752POPC   C3B24753  36.319   3.463   8.033
 1752POPC   C4B24754  36.182   3.283   7.660
 1753POPC   NC324755  32.723  20.899   9.583
 1753POPC   PO424756  32.699  20.223   9.574
 1753POPC   GL124757  32.779  20.541   9.217
 1753POPC   GL224758  32.463  20.762   9.176
 1753POPC   C1A24759  33.181  20.574   8.967
 1753POPC   D2A24760  33.367  20.573   8.550
 1753POPC   C3A24761  33.061  20.403   8.210
 1753POPC   C4A24762  33.188  20.424   7.801
 1753POPC   C1B24763  32.545  20.767   8.754
 1753POPC   C2B24764  32.536  20.558   8.345
 1753POPC   C3B24765  32.726  20.720   7.972
 1753POPC   C4B24766  32.815  20.624   7.526
 1754POPC   NC324767  44.200  14.609   9.814
 1754POPC   PO424768  43.669  14.252   9.490
 1754POPC   GL124769  43.698  14.387   9.057
 1754POPC   GL224770  43.653  14.715   9.042
 1754POPC   C1A24771  44.019  14.540   8.739
 1754POPC   D2A24772  44.343  14.345   8.503
 1754POPC   C3A24773  44.096  14.343   8.147
 1754POPC   C4A24774  44.060  14.361   7.736
 1754POPC   C1B24775  43.464  14.654   8.680
 1754POPC   C2B24776  43.693  14.632   8.315
 1754POPC   C3B24777  43.566  14.723   7.917
 1754POPC   C4B24778  43.537  14.363   7.732
 1755POPC   NC324779  14.868   2.028   9.603
 1755POPC   PO424780  15.501   1.685   9.625
 1755POPC   GL124781  15.389   1.854   9.238
 1755POPC   GL224782  15.067   1.778   9.223
 1755POPC   C1A24783  15.317   1.760   8.778
 1755POPC   D2A24784  15.382   1.677   8.328
 1755POPC   C3A24785  15.298   2.018   8.044
 1755POPC   C4A24786  15.601   2.071   7.709
 1755POPC   C1B24787  14.818   1.743   8.886
 1755POPC   C2B24788  14.893   1.765   8.466
 1755POPC   C3B24789  14.927   1.620   8.037
 1755POPC   C4B24790  14.932   1.886   7.682
 1756POPC   NC324791  15.603  34.263   9.615
 1756POPC   PO424792  15.807  33.582   9.584
 1756POPC   GL124793  16.004  33.615   9.196
 1756POPC   GL224794  15.767  33.857   9.120
 1756POPC   C1A24795  15.994  33.436   8.775
 1756POPC   D2A24796  16.197  33.384   8.374
 1756POPC   C3A24797  15.912  33.488   8.056
 1756POPC   C4A24798  15.832  33.803   7.771
 1756POPC   C1B24799  15.759  34.034   8.707
 1756POPC   C2B24800  15.711  33.963   8.254
 1756POPC   C3B24801  15.697  34.270   7.911
 1756POPC   C4B24802  15.787  34.232   7.462
 1757POPC   NC324803  33.568  31.138   9.437
 1757POPC   PO424804  33.854  31.728   9.442
 1757POPC   GL124805  33.763  31.469   9.118
 1757POPC   GL224806  33.966  31.151   9.085
 1757POPC   C1A24807  33.607  31.334   8.744
 1757POPC   D2A24808  33.464  31.487   8.366
 1757POPC   C3A24809  33.698  31.295   8.021
 1757POPC   C4A24810  33.541  31.364   7.630
 1757POPC   C1B24811  34.120  31.448   8.767
 1757POPC   C2B24812  33.992  31.509   8.372
 1757POPC   C3B24813  34.096  31.657   7.963
 1757POPC   C4B24814  34.028  31.446   7.576
 1758POPC   NC324815  20.760  26.497   9.509
 1758POPC   PO424816  20.383  27.096   9.628
 1758POPC   GL124817  20.401  26.791   9.258
 1758POPC   GL224818  20.733  26.858   9.130
 1758POPC   C1A24819  20.355  26.729   8.789
 1758POPC   D2A24820  20.602  26.817   8.418
 1758POPC   C3A24821  20.427  26.837   8.003
 1758POPC   C4A24822  20.462  26.762   7.554
 1758POPC   C1B24823  20.833  26.543   8.824
 1758POPC   C2B24824  20.985  26.480   8.406
 1758POPC   C3B24825  20.817  26.503   7.993
 1758POPC   C4B24826  20.927  26.507   7.551
 1759POPC   NC324827  29.731  36.474   9.433
 1759POPC   PO424828  30.107  35.925   9.430
 1759POPC   GL124829  29.970  36.150   9.132
 1759POPC   GL224830  30.253  36.111   8.959
 1759POPC   C1A24831  29.770  36.304   8.785
 1759POPC   D2A24832  29.916  36.226   8.396
 1759POPC   C3A24833  29.681  36.345   8.056
 1759POPC   C4A24834  29.800  36.170   7.692
 1759POPC   C1B24835  30.267  36.462   8.692
 1759POPC   C2B24836  30.424  36.619   8.290
 1759POPC   C3B24837  30.158  36.547   7.908
 1759POPC   C4B24838  30.191  36.472   7.450
 1760POPC   NC324839  14.525   6.266   9.563
 1760POPC   PO424840  14.563   6.966   9.503
 1760POPC   GL124841  14.283   6.743   9.184
 1760POPC   GL224842  14.314   6.383   9.095
 1760POPC   C1A24843  14.307   6.735   8.718
 1760POPC   D2A24844  14.461   6.906   8.314
 1760POPC   C3A24845  14.389   6.705   7.888
 1760POPC   C4A24846  14.046   6.405   7.842
 1760POPC   C1B24847  14.500   6.251   8.724
 1760POPC   C2B24848  14.396   6.379   8.330
 1760POPC   C3B24849  14.491   6.211   7.977
 1760POPC   C4B24850  14.782   6.374   7.775
 1761POPC   NC324851   1.653  41.211   9.768
 1761POPC   PO424852   1.996  41.755   9.492
 1761POPC   GL124853   1.965  41.380   9.236
 1761POPC   GL224854   1.703  41.561   9.074
 1761POPC   C1A24855   1.929  41.219   8.788
 1761POPC   D2A24856   1.972  41.469   8.424
 1761POPC   C3A24857   1.902  41.267   8.077
 1761POPC   C4A24858   1.903  41.165   7.688
 1761POPC   C1B24859   2.110  41.722   8.843
 1761POPC   C2B24860   2.351  41.907   8.507
 1761POPC   C3B24861   2.103  41.898   8.164
 1761POPC   C4B24862   1.990  41.705   7.791
 1762POPC   NC324863  40.032  12.605   9.560
 1762POPC   PO424864  39.970  13.198   9.357
 1762POPC   GL124865  40.077  12.832   9.090
 1762POPC   GL224866  40.297  12.487   9.123
 1762POPC   C1A24867  40.004  12.912   8.635
 1762POPC   D2A24868  40.024  13.214   8.316
 1762POPC   C3A24869  39.722  13.232   8.050
 1762POPC   C4A24870  39.784  12.920   7.738
 1762POPC   C1B24871  40.460  12.748   8.778
 1762POPC   C2B24872  40.456  12.934   8.397
 1762POPC   C3B24873  40.222  12.815   8.046
 1762POPC   C4B24874  40.317  12.779   7.631
 1763POPC   NC324875  14.947  24.436   9.582
 1763POPC   PO424876  15.506  24.141   9.558
 1763POPC   GL124877  15.311  24.293   9.193
 1763POPC   GL224878  15.453  24.580   9.177
 1763POPC   C1A24879  15.236  24.360   8.739
 1763POPC   D2A24880  15.417  24.281   8.351
 1763POPC   C3A24881  15.229  24.240   7.931
 1763POPC   C4A24882  14.898  24.457   7.766
 1763POPC   C1B24883  15.154  24.815   8.934
 1763POPC   C2B24884  15.201  24.936   8.500
 1763POPC   C3B24885  15.224  24.735   8.120
 1763POPC   C4B24886  15.244  24.847   7.708
 1764POPC   NC324887  25.287   2.129   9.469
 1764POPC   PO424888  24.757   1.680   9.448
 1764POPC   GL124889  24.978   1.904   9.122
 1764POPC   GL224890  25.344   1.809   9.072
 1764POPC   C1A24891  25.125   2.214   8.806
 1764POPC   D2A24892  25.306   2.028   8.444
 1764POPC   C3A24893  25.049   2.013   8.073
 1764POPC   C4A24894  24.988   1.995   7.617
 1764POPC   C1B24895  25.634   2.126   8.896
 1764POPC   C2B24896  25.752   2.331   8.521
 1764POPC   C3B24897  25.690   2.137   8.126
 1764POPC   C4B24898  25.475   1.962   7.764
 1765POPC   NC324899  21.270  25.918   9.682
 1765POPC   PO424900  21.849  26.241   9.483
 1765POPC   GL124901  21.442  26.297   9.250
 1765POPC   GL224902  21.261  25.987   9.179
 1765POPC   C1A24903  21.317  26.340   8.804
 1765POPC   D2A24904  21.398  26.183   8.386
 1765POPC   C3A24905  21.326  26.391   7.988
 1765POPC   C4A24906  21.415  26.264   7.584
 1765POPC   C1B24907  21.282  25.732   8.820
 1765POPC   C2B24908  21.239  25.699   8.383
 1765POPC   C3B24909  21.337  25.852   7.962
 1765POPC   C4B24910  21.196  25.822   7.504
 1766POPC   NC324911  29.953  21.002   9.496
 1766POPC   PO424912  29.642  20.410   9.695
 1766POPC   GL124913  29.681  20.632   9.274
 1766POPC   GL224914  29.986  20.530   9.270
 1766POPC   C1A24915  29.567  20.717   8.813
 1766POPC   D2A24916  29.799  20.792   8.403
 1766POPC   C3A24917  29.614  20.723   7.988
 1766POPC   C4A24918  29.801  20.848   7.611
 1766POPC   C1B24919  30.077  20.595   8.828
 1766POPC   C2B24920  30.094  20.377   8.402
 1766POPC   C3B24921  30.111  20.584   7.981
 1766POPC   C4B24922  30.104  20.429   7.522
 1767POPC   NC324923  13.819  14.245   9.528
 1767POPC   PO424924  13.397  14.813   9.508
 1767POPC   GL124925  13.584  14.550   9.157
 1767POPC   GL224926  13.469  14.195   9.132
 1767POPC   C1A24927  13.787  14.464   8.718
 1767POPC   D2A24928  13.821  14.237   8.289
 1767POPC   C3A24929  13.882  14.557   7.949
 1767POPC   C4A24930  13.813  14.619   7.513
 1767POPC   C1B24931  13.598  13.987   8.745
 1767POPC   C2B24932  13.426  13.904   8.351
 1767POPC   C3B24933  13.430  14.013   7.914
 1767POPC   C4B24934  13.594  14.154   7.511
 1768POPC   NC324935  37.113  37.340   9.374
 1768POPC   PO424936  36.904  36.633   9.420
 1768POPC   GL124937  37.186  36.757   9.074
 1768POPC   GL224938  37.008  37.024   9.007
 1768POPC   C1A24939  37.124  36.766   8.586
 1768POPC   D2A24940  36.768  36.523   8.403
 1768POPC   C3A24941  36.727  36.460   7.960
 1768POPC   C4A24942  37.006  36.558   7.614
 1768POPC   C1B24943  36.722  37.099   8.689
 1768POPC   C2B24944  36.669  37.016   8.292
 1768POPC   C3B24945  37.002  36.882   8.069
 1768POPC   C4B24946  36.904  37.045   7.731
 1769POPC   NC324947  25.795  40.494   9.938
 1769POPC   PO424948  26.329  40.272   9.558
 1769POPC   GL124949  26.288  40.154   9.142
 1769POPC   GL224950  25.953  40.259   9.028
 1769POPC   C1A24951  26.375  40.275   8.731
 1769POPC   D2A24952  26.068  40.415   8.455
 1769POPC   C3A24953  25.915  40.088   8.196
 1769POPC   C4A24954  26.003  40.058   7.773
 1769POPC   C1B24955  25.957  39.966   8.701
 1769POPC   C2B24956  26.146  39.673   8.431
 1769POPC   C3B24957  26.260  39.653   7.989
 1769POPC   C4B24958  26.406  39.804   7.597
 1770POPC   NC324959  16.479   4.344   9.454
 1770POPC   PO424960  17.078   4.504   9.135
 1770POPC   GL124961  16.815   4.117   9.001
 1770POPC   GL224962  17.084   3.854   9.063
 1770POPC   C1A24963  16.489   4.174   8.684
 1770POPC   D2A24964  16.536   4.522   8.390
 1770POPC   C3A24965  16.423   4.377   7.986
 1770POPC   C4A24966  16.585   4.440   7.588
 1770POPC   C1B24967  17.040   3.841   8.603
 1770POPC   C2B24968  16.830   4.091   8.268
 1770POPC   C3B24969  16.872   4.066   7.805
 1770POPC   C4B24970  17.078   3.961   7.388
 1771POPC   NC324971  16.970  34.675   9.663
 1771POPC   PO424972  16.526  34.200   9.515
 1771POPC   GL124973  16.788  34.374   9.209
 1771POPC   GL224974  16.992  34.159   9.073
 1771POPC   C1A24975  16.802  34.623   8.830
 1771POPC   D2A24976  16.799  34.757   8.427
 1771POPC   C3A24977  16.761  34.617   8.013
 1771POPC   C4A24978  16.411  34.797   7.792
 1771POPC   C1B24979  16.792  34.124   8.686
 1771POPC   C2B24980  16.695  34.156   8.264
 1771POPC   C3B24981  16.675  34.147   7.843
 1771POPC   C4B24982  16.979  34.334   7.606
 1772POPC   NC324983  40.484  32.505   9.466
 1772POPC   PO424984  40.733  31.872   9.547
 1772POPC   GL124985  40.564  32.070   9.168
 1772POPC   GL224986  40.847  32.282   9.118
 1772POPC   C1A24987  40.463  32.334   8.769
 1772POPC   D2A24988  40.665  32.500   8.371
 1772POPC   C3A24989  40.825  32.177   8.122
 1772POPC   C4A24990  40.678  32.067   7.730
 1772POPC   C1B24991  41.043  32.330   8.706
 1772POPC   C2B24992  41.296  32.318   8.322
 1772POPC   C3B24993  41.168  32.516   7.952
 1772POPC   C4B24994  40.766  32.567   7.781
 1773POPC   NC324995  27.216  10.245   9.362
 1773POPC   PO424996  27.651  10.789   9.511
 1773POPC   GL124997  27.645  10.476   9.176
 1773POPC   GL224998  27.347  10.662   9.103
 1773POPC   C1A24999  27.786  10.211   8.803
 1773POPC   D2A25000  27.649  10.210   8.333
 1773POPC   C3A25001  27.642  10.517   7.966
 1773POPC   C4A25002  27.810  10.670   7.560
 1773POPC   C1B25003  27.339  10.440   8.722
 1773POPC   C2B25004  27.334  10.653   8.354
 1773POPC   C3B25005  27.276  10.867   7.998
 1773POPC   C4B25006  27.292  10.660   7.600
 1774POPC   NC325007  40.499  16.545   9.482
 1774POPC   PO425008  40.900  17.081   9.552
 1774POPC   GL125009  40.916  16.799   9.200
 1774POPC   GL225010  41.188  16.989   9.061
 1774POPC   C1A25011  40.704  16.552   8.836
 1774POPC   D2A25012  40.538  16.742   8.454
 1774POPC   C3A25013  40.405  16.606   8.068
 1774POPC   C4A25014  40.621  16.733   7.712
 1774POPC   C1B25015  41.223  16.595   8.819
 1774POPC   C2B25016  41.027  16.464   8.438
 1774POPC   C3B25017  40.944  16.751   8.113
 1774POPC   C4B25018  41.108  16.616   7.732
 1775POPC   NC325019  29.638   4.161   9.478
 1775POPC   PO425020  28.940   4.043   9.409
 1775POPC   GL125021  29.176   4.391   9.222
 1775POPC   GL225022  29.346   4.152   9.036
 1775POPC   C1A25023  29.101   4.528   8.784
 1775POPC   D2A25024  28.996   4.309   8.376
 1775POPC   C3A25025  29.196   4.425   7.981
 1775POPC   C4A25026  29.116   4.668   7.624
 1775POPC   C1B25027  29.030   3.920   8.766
 1775POPC   C2B25028  28.961   3.771   8.330
 1775POPC   C3B25029  28.938   3.985   7.929
 1775POPC   C4B25030  29.033   4.174   7.499
 1776POPC   NC325031  41.342  39.792   9.380
 1776POPC   PO425032  41.935  39.660   9.692
 1776POPC   GL125033  41.870  39.976   9.261
 1776POPC   GL225034  41.556  40.205   9.185
 1776POPC   C1A25035  41.821  39.923   8.785
 1776POPC   D2A25036  41.720  39.729   8.380
 1776POPC   C3A25037  41.823  39.988   8.016
 1776POPC   C4A25038  41.920  39.773   7.611
 1776POPC   C1B25039  41.367  40.107   8.800
 1776POPC   C2B25040  41.427  40.166   8.375
 1776POPC   C3B25041  41.330  40.105   7.936
 1776POPC   C4B25042  41.456  39.701   7.821
 1777POPC   NC325043  13.823  20.740   9.669
 1777POPC   PO425044  13.349  20.481   9.291
 1777POPC   GL125045  13.647  20.683   9.168
 1777POPC   GL225046  13.865  20.473   8.988
 1777POPC   C1A25047  13.592  20.821   8.750
 1777POPC   D2A25048  13.691  20.672   8.328
 1777POPC   C3A25049  13.418  20.966   8.143
 1777POPC   C4A25050  13.361  21.078   7.733
 1777POPC   C1B25051  14.068  20.431   8.609
 1777POPC   C2B25052  14.040  20.307   8.196
 1777POPC   C3B25053  13.947  20.486   7.847
 1777POPC   C4B25054  13.539  20.586   7.807
 1778POPC   NC325055   1.442  18.721   9.513
 1778POPC   PO425056   0.868  19.053   9.665
 1778POPC   GL125057   1.127  19.053   9.254
 1778POPC   GL225058   1.191  19.401   9.152
 1778POPC   C1A25059   1.371  18.856   8.863
 1778POPC   D2A25060   1.218  18.680   8.467
 1778POPC   C3A25061   1.093  18.832   8.022
 1778POPC   C4A25062   1.337  18.794   7.603
 1778POPC   C1B25063   1.019  19.194   8.770
 1778POPC   C2B25064   1.285  19.182   8.412
 1778POPC   C3B25065   1.391  19.228   8.001
 1778POPC   C4B25066   1.092  19.216   7.670
 1779POPC   NC325067   2.432  40.745   9.348
 1779POPC   PO425068   1.710  40.798   9.536
 1779POPC   GL125069   1.967  40.845   9.144
 1779POPC   GL225070   2.045  40.502   9.090
 1779POPC   C1A25071   2.249  40.822   8.724
 1779POPC   D2A25072   2.283  40.993   8.293
 1779POPC   C3A25073   2.046  40.761   7.969
 1779POPC   C4A25074   2.130  40.713   7.507
 1779POPC   C1B25075   1.777  40.601   8.734
 1779POPC   C2B25076   1.657  40.751   8.331
 1779POPC   C3B25077   1.578  40.555   7.940
 1779POPC   C4B25078   1.651  40.735   7.584
 1780POPC   NC325079  21.213  18.574   9.340
 1780POPC   PO425080  21.691  18.127   9.383
 1780POPC   GL125081  21.472  18.226   8.994
 1780POPC   GL225082  21.471  18.579   8.909
 1780POPC   C1A25083  21.357  18.239   8.540
 1780POPC   D2A25084  20.993  18.159   8.304
 1780POPC   C3A25085  21.195  18.001   7.937
 1780POPC   C4A25086  21.615  18.162   7.805
 1780POPC   C1B25087  21.025  18.572   8.723
 1780POPC   C2B25088  20.993  18.683   8.307
 1780POPC   C3B25089  21.330  18.510   8.072
 1780POPC   C4B25090  21.481  18.658   7.686
 1781POPC   NC325091   8.739  15.861   9.814
 1781POPC   PO425092   8.215  16.153   9.320
 1781POPC   GL125093   8.055  15.934   9.102
 1781POPC   GL225094   7.783  16.147   9.045
 1781POPC   C1A25095   8.276  15.749   8.752
 1781POPC   D2A25096   8.372  15.989   8.371
 1781POPC   C3A25097   8.253  15.805   7.984
 1781POPC   C4A25098   8.326  15.931   7.579
 1781POPC   C1B25099   7.976  16.158   8.667
 1781POPC   C2B25100   7.975  16.396   8.353
 1781POPC   C3B25101   7.916  16.194   8.021
 1781POPC   C4B25102   7.979  16.304   7.637
 1782POPC   NC325103  39.477  21.252   9.532
 1782POPC   PO425104  39.053  21.765   9.706
 1782POPC   GL125105  39.258  21.703   9.247
 1782POPC   GL225106  39.529  21.585   9.155
 1782POPC   C1A25107  39.209  21.509   8.784
 1782POPC   D2A25108  38.947  21.603   8.436
 1782POPC   C3A25109  39.149  21.378   8.131
 1782POPC   C4A25110  39.132  21.388   7.682
 1782POPC   C1B25111  39.707  21.672   8.799
 1782POPC   C2B25112  39.596  21.557   8.374
 1782POPC   C3B25113  39.550  21.579   7.909
 1782POPC   C4B25114  39.630  21.183   7.660
 1783POPC   NC325115  35.582  43.509   9.411
 1783POPC   PO425116  35.048  43.955   9.523
 1783POPC   GL125117  35.255  43.838   9.189
 1783POPC   GL225118  35.530  44.030   9.332
 1783POPC   C1A25119  35.312  43.667   8.772
 1783POPC   D2A25120  35.202  43.705   8.336
 1783POPC   C3A25121  35.403  43.702   7.946
 1783POPC   C4A25122  35.220  43.865   7.594
 1783POPC   C1B25123  35.566  44.098   8.897
 1783POPC   C2B25124  35.591  44.057   8.466
 1783POPC   C3B25125  35.546  44.227   8.070
 1783POPC   C4B25126  35.681  44.074   7.675
 1784POPC   NC325127   4.878   9.087   9.464
 1784POPC   PO425128   5.359   8.647   9.584
 1784POPC   GL125129   5.423   8.612   9.161
 1784POPC   GL225130   5.388   8.975   9.142
 1784POPC   C1A25131   5.156   8.647   8.800
 1784POPC   D2A25132   4.888   8.840   8.507
 1784POPC   C3A25133   4.958   8.752   8.100
 1784POPC   C4A25134   5.216   8.940   7.825
 1784POPC   C1B25135   5.470   9.301   8.817
 1784POPC   C2B25136   5.315   9.408   8.387
 1784POPC   C3B25137   5.352   9.398   7.943
 1784POPC   C4B25138   5.096   9.317   7.530
 1785POPC   NC325139  43.847  32.999   9.577
 1785POPC   PO425140  44.256  33.383   9.290
 1785POPC   GL125141  43.856  33.243   9.078
 1785POPC   GL225142  43.690  32.909   9.109
 1785POPC   C1A25143  43.478  33.280   8.848
 1785POPC   D2A25144  43.414  33.227   8.456
 1785POPC   C3A25145  43.699  33.132   8.161
 1785POPC   C4A25146  43.639  33.270   7.747
 1785POPC   C1B25147  43.786  32.899   8.680
 1785POPC   C2B25148  43.903  32.577   8.411
 1785POPC   C3B25149  44.079  32.630   8.052
 1785POPC   C4B25150  44.064  32.986   7.802
 1786POPC   NC325151   9.474  29.706   9.533
 1786POPC   PO425152  10.105  29.976   9.439
 1786POPC   GL125153   9.955  29.742   9.099
 1786POPC   GL225154   9.636  29.870   9.084
 1786POPC   C1A25155   9.898  29.908   8.655
 1786POPC   D2A25156  10.241  29.952   8.388
 1786POPC   C3A25157  10.229  30.251   8.050
 1786POPC   C4A25158   9.957  30.290   7.701
 1786POPC   C1B25159   9.506  30.257   8.875
 1786POPC   C2B25160   9.501  30.337   8.453
 1786POPC   C3B25161   9.739  30.081   8.158
 1786POPC   C4B25162   9.714  29.744   7.879
 1787POPC   NC325163  20.763   6.469   9.551
 1787POPC   PO425164  20.440   7.070   9.385
 1787POPC   GL125165  20.716   6.820   9.177
 1787POPC   GL225166  20.460   6.524   9.126
 1787POPC   C1A25167  20.836   6.656   8.825
 1787POPC   D2A25168  20.526   6.580   8.544
 1787POPC   C3A25169  20.670   6.513   8.167
 1787POPC   C4A25170  20.795   6.525   7.764
 1787POPC   C1B25171  20.204   6.830   8.843
 1787POPC   C2B25172  20.211   7.007   8.426
 1787POPC   C3B25173  20.389   6.908   8.033
 1787POPC   C4B25174  20.388   6.849   7.577
 1788POPC   NC325175   4.726  43.095   9.555
 1788POPC   PO425176   4.033  43.103   9.611
 1788POPC   GL125177   4.316  43.112   9.248
 1788POPC   GL225178   4.592  43.291   9.113
 1788POPC   C1A25179   4.260  43.047   8.811
 1788POPC   D2A25180   3.957  43.071   8.499
 1788POPC   C3A25181   4.120  43.253   8.131
 1788POPC   C4A25182   4.116  43.033   7.738
 1788POPC   C1B25183   4.783  43.196   8.735
 1788POPC   C2B25184   4.560  43.119   8.382
 1788POPC   C3B25185   4.585  43.119   7.951
 1788POPC   C4B25186   4.709  43.287   7.558
 1789POPC   NC325187  19.974  38.574   9.600
 1789POPC   PO425188  19.495  38.979   9.354
 1789POPC   GL125189  19.798  38.717   9.147
 1789POPC   GL225190  19.782  38.336   9.181
 1789POPC   C1A25191  19.989  38.596   8.770
 1789POPC   D2A25192  19.808  38.772   8.384
 1789POPC   C3A25193  20.004  38.650   8.003
 1789POPC   C4A25194  19.813  38.498   7.634
 1789POPC   C1B25195  19.803  38.114   8.799
 1789POPC   C2B25196  19.938  38.265   8.377
 1789POPC   C3B25197  19.973  38.123   7.959
 1789POPC   C4B25198  20.124  38.086   7.500
 1790POPC   NC325199  17.915  22.642   9.503
 1790POPC   PO425200  17.481  23.244   9.656
 1790POPC   GL125201  17.566  22.991   9.269
 1790POPC   GL225202  17.778  23.237   9.187
 1790POPC   C1A25203  17.634  22.815   8.811
 1790POPC   D2A25204  17.784  22.890   8.348
 1790POPC   C3A25205  17.580  22.941   7.924
 1790POPC   C4A25206  17.684  22.742   7.484
 1790POPC   C1B25207  17.702  23.318   8.759
 1790POPC   C2B25208  17.895  23.393   8.387
 1790POPC   C3B25209  17.761  23.453   7.955
 1790POPC   C4B25210  17.755  23.236   7.536
 1791POPC   NC325211   0.908  27.230   9.550
 1791POPC   PO425212   1.410  27.790   9.524
 1791POPC   GL125213   1.356  27.515   9.182
 1791POPC   GL225214   1.017  27.581   9.185
 1791POPC   C1A25215   1.315  27.637   8.747
 1791POPC   D2A25216   1.553  27.753   8.397
 1791POPC   C3A25217   1.283  27.785   8.076
 1791POPC   C4A25218   1.289  27.530   7.762
 1791POPC   C1B25219   0.856  27.441   8.793
 1791POPC   C2B25220   0.804  27.287   8.403
 1791POPC   C3B25221   0.823  27.476   8.015
 1791POPC   C4B25222   0.849  27.316   7.627
 1792POPC   NC325223  37.184  14.865   9.542
 1792POPC   PO425224  36.870  15.419   9.549
 1792POPC   GL125225  36.829  15.292   9.174
 1792POPC   GL225226  36.646  15.007   9.255
 1792POPC   C1A25227  36.946  15.425   8.759
 1792POPC   D2A25228  37.050  15.451   8.357
 1792POPC   C3A25229  36.888  15.274   8.025
 1792POPC   C4A25230  37.187  15.417   7.714
 1792POPC   C1B25231  36.715  14.981   8.807
 1792POPC   C2B25232  36.635  14.980   8.383
 1792POPC   C3B25233  36.654  14.824   7.966
 1792POPC   C4B25234  36.974  14.888   7.671
 1793POPC   NC325235  32.971  11.774   9.400
 1793POPC   PO425236  32.772  12.434   9.485
 1793POPC   GL125237  32.914  12.222   9.143
 1793POPC   GL225238  32.596  12.090   9.085
 1793POPC   C1A25239  33.047  12.085   8.726
 1793POPC   D2A25240  33.034  12.319   8.339
 1793POPC   C3A25241  32.981  12.132   7.952
 1793POPC   C4A25242  33.062  11.817   7.658
 1793POPC   C1B25243  32.573  11.854   8.739
 1793POPC   C2B25244  32.700  11.901   8.336
 1793POPC   C3B25245  32.641  11.726   7.948
 1793POPC   C4B25246  32.539  12.060   7.708
 1794POPC   NC325247  40.797  24.236   9.500
 1794POPC   PO425248  40.567  24.741   9.252
 1794POPC   GL125249  40.728  24.374   9.030
 1794POPC   GL225250  40.432  24.147   9.112
 1794POPC   C1A25251  40.832  24.365   8.613
 1794POPC   D2A25252  40.728  24.744   8.400
 1794POPC   C3A25253  40.859  24.673   8.006
 1794POPC   C4A25254  41.054  24.374   7.758
 1794POPC   C1B25255  40.326  24.355   8.722
 1794POPC   C2B25256  40.350  24.389   8.299
 1794POPC   C3B25257  40.241  24.162   7.956
 1794POPC   C4B25258  40.537  24.355   7.743
 1795POPC   NC325259  14.043  32.297   9.651
 1795POPC   PO425260  14.720  32.474   9.575
 1795POPC   GL125261  14.526  32.234   9.217
 1795POPC   GL225262  14.198  32.274   9.176
 1795POPC   C1A25263  14.455  32.399   8.767
 1795POPC   D2A25264  14.616  32.218   8.391
 1795POPC   C3A25265  14.466  32.419   8.022
 1795POPC   C4A25266  14.462  32.355   7.602
 1795POPC   C1B25267  14.012  32.114   8.763
 1795POPC   C2B25268  14.102  32.270   8.348
 1795POPC   C3B25269  14.049  32.085   7.916
 1795POPC   C4B25270  13.996  32.259   7.482
 1796POPC   NC325271   5.698  16.504   9.495
 1796POPC   PO425272   5.856  17.168   9.541
 1796POPC   GL125273   5.876  16.877   9.179
 1796POPC   GL225274   5.997  16.532   9.081
 1796POPC   C1A25275   5.624  16.697   8.810
 1796POPC   D2A25276   5.737  16.540   8.400
 1796POPC   C3A25277   6.112  16.722   8.218
 1796POPC   C4A25278   6.070  16.778   7.801
 1796POPC   C1B25279   6.184  16.504   8.684
 1796POPC   C2B25280   6.156  16.211   8.324
 1796POPC   C3B25281   5.945  16.317   7.957
 1796POPC   C4B25282   5.500  16.310   7.933
 1797POPC   NC325283  38.385   7.012   9.546
 1797POPC   PO425284  37.848   6.508   9.538
 1797POPC   GL125285  38.185   6.558   9.273
 1797POPC   GL225286  38.502   6.396   9.261
 1797POPC   C1A25287  38.167   6.580   8.846
 1797POPC   D2A25288  38.380   6.850   8.555
 1797POPC   C3A25289  38.297   6.754   8.138
 1797POPC   C4A25290  38.490   6.733   7.762
 1797POPC   C1B25291  38.695   6.590   8.888
 1797POPC   C2B25292  38.862   6.405   8.519
 1797POPC   C3B25293  38.780   6.416   8.081
 1797POPC   C4B25294  38.663   6.234   7.666
 1798POPC   NC325295  23.519  25.755   9.359
 1798POPC   PO425296  23.685  26.319   9.582
 1798POPC   GL125297  23.719  26.183   9.147
 1798POPC   GL225298  23.912  25.868   9.072
 1798POPC   C1A25299  23.536  26.094   8.738
 1798POPC   D2A25300  23.691  25.922   8.352
 1798POPC   C3A25301  23.507  26.083   7.997
 1798POPC   C4A25302  23.789  26.166   7.702
 1798POPC   C1B25303  24.030  25.981   8.714
 1798POPC   C2B25304  24.211  25.786   8.374
 1798POPC   C3B25305  24.057  25.854   7.993
 1798POPC   C4B25306  24.228  25.839   7.610
 1799POPC   NC325307  35.966  29.462   9.732
 1799POPC   PO425308  35.724  28.885   9.564
 1799POPC   GL125309  35.997  29.026   9.224
 1799POPC   GL225310  36.084  29.407   9.225
 1799POPC   C1A25311  35.858  28.940   8.799
 1799POPC   D2A25312  35.838  29.169   8.414
 1799POPC   C3A25313  36.132  29.220   8.091
 1799POPC   C4A25314  36.108  29.143   7.641
 1799POPC   C1B25315  36.262  29.261   8.806
 1799POPC   C2B25316  36.535  29.244   8.402
 1799POPC   C3B25317  36.569  29.415   7.945
 1799POPC   C4B25318  36.506  29.406   7.496
 1800POPC   NC325319  15.736  32.119   9.586
 1800POPC   PO425320  16.446  32.090   9.599
 1800POPC   GL125321  16.131  32.154   9.228
 1800POPC   GL225322  15.783  32.288   9.106
 1800POPC   C1A25323  16.016  31.909   8.846
 1800POPC   D2A25324  16.207  31.988   8.430
 1800POPC   C3A25325  15.966  32.130   8.091
 1800POPC   C4A25326  16.046  31.997   7.699
 1800POPC   C1B25327  16.050  32.419   8.762
 1800POPC   C2B25328  16.060  32.585   8.353
 1800POPC   C3B25329  15.898  32.623   7.940
 1800POPC   C4B25330  15.784  32.411   7.567
 1801POPC   NC325331  24.936  35.401   9.688
 1801POPC   PO425332  25.501  35.582   9.491
 1801POPC   GL125333  25.321  35.411   9.125
 1801POPC   GL225334  24.971  35.317   9.170
 1801POPC   C1A25335  25.148  35.649   8.746
 1801POPC   D2A25336  24.852  35.610   8.397
 1801POPC   C3A25337  25.041  35.471   8.006
 1801POPC   C4A25338  25.480  35.607   7.917
 1801POPC   C1B25339  25.050  35.142   8.726
 1801POPC   C2B25340  25.208  35.055   8.269
 1801POPC   C3B25341  25.111  34.886   7.822
 1801POPC   C4B25342  25.075  34.971   7.318
 1802POPC   NC325343  19.131  26.380   9.466
 1802POPC   PO425344  18.873  27.003   9.391
 1802POPC   GL125345  19.114  26.801   9.118
 1802POPC   GL225346  18.840  26.552   9.081
 1802POPC   C1A25347  19.168  26.964   8.688
 1802POPC   D2A25348  18.893  27.213   8.415
 1802POPC   C3A25349  18.954  27.186   7.959
 1802POPC   C4A25350  18.879  26.966   7.561
 1802POPC   C1B25351  19.108  26.469   8.734
 1802POPC   C2B25352  19.305  26.591   8.334
 1802POPC   C3B25353  19.099  26.696   7.953
 1802POPC   C4B25354  18.745  26.474   7.734
 1803POPC   NC325355  23.672   6.179   9.350
 1803POPC   PO425356  23.381   5.525   9.320
 1803POPC   GL125357  23.545   5.809   9.029
 1803POPC   GL225358  23.278   6.074   9.005
 1803POPC   C1A25359  23.888   5.740   8.749
 1803POPC   D2A25360  24.040   5.593   8.370
 1803POPC   C3A25361  24.003   5.884   8.081
 1803POPC   C4A25362  23.842   5.914   7.708
 1803POPC   C1B25363  23.192   5.713   8.696
 1803POPC   C2B25364  23.416   5.414   8.431
 1803POPC   C3B25365  23.580   5.496   8.024
 1803POPC   C4B25366  23.379   5.780   7.811
 1804POPC   NC325367  18.923  19.539   9.260
 1804POPC   PO425368  19.208  18.978   9.506
 1804POPC   GL125369  19.056  19.027   9.075
 1804POPC   GL225370  18.857  19.289   8.830
 1804POPC   C1A25371  19.170  18.893   8.665
 1804POPC   D2A25372  19.029  19.127   8.357
 1804POPC   C3A25373  19.109  19.028   7.966
 1804POPC   C4A25374  19.092  18.963   7.521
 1804POPC   C1B25375  19.276  19.389   8.762
 1804POPC   C2B25376  19.513  19.289   8.440
 1804POPC   C3B25377  19.386  19.462   8.055
 1804POPC   C4B25378  19.209  19.436   7.683
 1805POPC   NC325379  21.985  18.488   9.500
 1805POPC   PO425380  22.084  17.927   9.927
 1805POPC   GL125381  22.215  18.056   9.433
 1805POPC   GL225382  22.456  18.321   9.304
 1805POPC   C1A25383  22.128  18.175   8.951
 1805POPC   D2A25384  21.851  18.141   8.620
 1805POPC   C3A25385  21.944  18.218   8.192
 1805POPC   C4A25386  22.121  18.066   7.826
 1805POPC   C1B25387  22.562  18.378   8.818
 1805POPC   C2B25388  22.334  18.426   8.431
 1805POPC   C3B25389  22.278  18.550   7.969
 1805POPC   C4B25390  22.253  18.398   7.481
 1806POPC   NC325391  16.169  19.554   9.475
 1806POPC   PO425392  15.553  19.764   9.234
 1806POPC   GL125393  15.851  19.961   9.014
 1806POPC   GL225394  16.171  19.990   9.157
 1806POPC   C1A25395  15.963  19.661   8.689
 1806POPC   D2A25396  15.724  19.399   8.402
 1806POPC   C3A25397  15.823  19.653   8.076
 1806POPC   C4A25398  15.809  20.060   7.861
 1806POPC   C1B25399  16.259  20.080   8.710
 1806POPC   C2B25400  16.157  20.060   8.253
 1806POPC   C3B25401  16.320  19.994   7.823
 1806POPC   C4B25402  16.307  19.902   7.344
 1807POPC   NC325403  35.253  21.548   9.599
 1807POPC   PO425404  35.341  20.805   9.534
 1807POPC   GL125405  35.206  21.157   9.201
 1807POPC   GL225406  35.054  21.554   9.131
 1807POPC   C1A25407  35.354  21.332   8.799
 1807POPC   D2A25408  35.482  21.424   8.400
 1807POPC   C3A25409  35.387  21.087   8.136
 1807POPC   C4A25410  35.505  21.126   7.725
 1807POPC   C1B25411  34.892  21.605   8.691
 1807POPC   C2B25412  34.985  21.487   8.252
 1807POPC   C3B25413  35.309  21.555   7.919
 1807POPC   C4B25414  35.182  21.502   7.433
 1808POPC   NC325415  26.965   8.526   9.509
 1808POPC   PO425416  26.398   8.139   9.584
 1808POPC   GL125417  26.660   7.995   9.230
 1808POPC   GL225418  26.863   8.247   9.101
 1808POPC   C1A25419  26.693   7.858   8.800
 1808POPC   D2A25420  26.744   8.072   8.420
 1808POPC   C3A25421  26.579   7.923   8.044
 1808POPC   C4A25422  26.735   8.003   7.634
 1808POPC   C1B25423  26.946   8.494   8.724
 1808POPC   C2B25424  26.905   8.565   8.278
 1808POPC   C3B25425  26.883   8.462   7.845
 1808POPC   C4B25426  26.987   8.353   7.396
 1809POPC   NC325427  17.418  28.945   9.634
 1809POPC   PO425428  17.876  29.315   9.511
 1809POPC   GL125429  17.734  29.058   9.191
 1809POPC   GL225430  17.455  29.173   9.147
 1809POPC   C1A25431  17.715  28.844   8.807
 1809POPC   D2A25432  17.559  28.957   8.393
 1809POPC   C3A25433  17.795  28.898   8.020
 1809POPC   C4A25434  17.610  29.087   7.664
 1809POPC   C1B25435  17.228  29.044   8.781
 1809POPC   C2B25436  17.061  29.090   8.358
 1809POPC   C3B25437  17.165  29.002   7.933
 1809POPC   C4B25438  17.178  28.859   7.486
 1810POPC   NC325439  30.768  39.041   9.441
 1810POPC   PO425440  30.870  38.323   9.500
 1810POPC   GL125441  30.957  38.498   9.116
 1810POPC   GL225442  30.809  38.194   9.013
 1810POPC   C1A25443  30.829  38.660   8.704
 1810POPC   D2A25444  30.572  38.657   8.343
 1810POPC   C3A25445  30.613  38.566   7.914
 1810POPC   C4A25446  30.290  38.597   7.572
 1810POPC   C1B25447  31.106  38.243   8.698
 1810POPC   C2B25448  31.038  38.394   8.265
 1810POPC   C3B25449  30.960  38.155   7.860
 1810POPC   C4B25450  30.931  38.081   7.397
 1811POPC   NC325451   6.817   4.611   9.399
 1811POPC   PO425452   6.278   4.310   9.755
 1811POPC   GL125453   6.438   4.274   9.253
 1811POPC   GL225454   6.538   4.594   9.008
 1811POPC   C1A25455   6.744   4.153   8.903
 1811POPC   D2A25456   6.859   4.086   8.481
 1811POPC   C3A25457   6.575   4.268   8.220
 1811POPC   C4A25458   6.562   4.092   7.822
 1811POPC   C1B25459   6.695   4.622   8.612
 1811POPC   C2B25460   6.917   4.665   8.257
 1811POPC   C3B25461   6.829   4.530   7.837
 1811POPC   C4B25462   6.474   4.497   7.558
 1812POPC   NC325463  12.158  31.500   9.660
 1812POPC   PO425464  12.011  30.894   9.596
 1812POPC   GL125465  11.920  31.228   9.286
 1812POPC   GL225466  12.247  31.172   9.231
 1812POPC   C1A25467  12.038  31.465   8.881
 1812POPC   D2A25468  12.258  31.623   8.497
 1812POPC   C3A25469  12.083  31.516   8.080
 1812POPC   C4A25470  11.903  31.797   7.759
 1812POPC   C1B25471  12.347  31.043   8.857
 1812POPC   C2B25472  12.207  31.130   8.468
 1812POPC   C3B25473  12.448  31.149   8.115
 1812POPC   C4B25474  12.344  31.242   7.685
 1813POPC   NC325475  42.142  16.337   9.388
 1813POPC   PO425476  42.534  16.926   9.542
 1813POPC   GL125477  42.431  16.689   9.173
 1813POPC   GL225478  42.190  16.886   8.993
 1813POPC   C1A25479  42.361  16.505   8.734
 1813POPC   D2A25480  42.248  16.805   8.416
 1813POPC   C3A25481  42.101  16.673   8.020
 1813POPC   C4A25482  42.237  16.367   7.701
 1813POPC   C1B25483  42.610  16.953   8.769
 1813POPC   C2B25484  42.749  16.867   8.341
 1813POPC   C3B25485  42.484  17.030   8.004
 1813POPC   C4B25486  42.439  16.823   7.611
 1814POPC   NC325487   9.024  19.376   9.484
 1814POPC   PO425488   9.223  20.106   9.502
 1814POPC   GL125489   9.189  19.821   9.209
 1814POPC   GL225490   8.840  19.814   9.198
 1814POPC   C1A25491   9.199  19.611   8.829
 1814POPC   D2A25492   9.143  19.450   8.432
 1814POPC   C3A25493   9.140  19.742   8.111
 1814POPC   C4A25494   8.990  19.724   7.680
 1814POPC   C1B25495   8.630  19.974   8.843
 1814POPC   C2B25496   8.797  19.984   8.436
 1814POPC   C3B25497   8.656  19.914   8.029
 1814POPC   C4B25498   8.628  20.088   7.601
 1815POPC   NC325499  17.946  13.857   9.562
 1815POPC   PO425500  18.582  13.680   9.470
 1815POPC   GL125501  18.271  13.671   9.114
 1815POPC   GL225502  17.884  13.795   9.080
 1815POPC   C1A25503  18.373  13.420   8.737
 1815POPC   D2A25504  18.166  13.338   8.350
 1815POPC   C3A25505  18.252  13.668   8.101
 1815POPC   C4A25506  18.315  13.653   7.701
 1815POPC   C1B25507  17.921  13.662   8.673
 1815POPC   C2B25508  17.744  13.658   8.255
 1815POPC   C3B25509  17.818  13.563   7.815
 1815POPC   C4B25510  17.931  13.706   7.380
 1816POPC   NC325511  16.479   8.703   9.567
 1816POPC   PO425512  17.042   9.029   9.589
 1816POPC   GL125513  16.985   9.082   9.175
 1816POPC   GL225514  16.660   9.028   9.192
 1816POPC   C1A25515  16.943   9.250   8.757
 1816POPC   D2A25516  17.105   9.143   8.348
 1816POPC   C3A25517  17.025   9.400   7.951
 1816POPC   C4A25518  16.806   9.315   7.555
 1816POPC   C1B25519  16.711   8.786   8.811
 1816POPC   C2B25520  16.628   8.820   8.397
 1816POPC   C3B25521  16.667   9.049   8.040
 1816POPC   C4B25522  16.784   8.803   7.698
 1817POPC   NC325523   3.405  14.053   9.423
 1817POPC   PO425524   3.606  14.777   9.517
 1817POPC   GL125525   3.618  14.478   9.167
 1817POPC   GL225526   3.345  14.284   8.988
 1817POPC   C1A25527   3.785  14.344   8.769
 1817POPC   D2A25528   3.694  14.442   8.332
 1817POPC   C3A25529   3.831  14.241   7.938
 1817POPC   C4A25530   3.571  14.282   7.583
 1817POPC   C1B25531   3.402  13.982   8.621
 1817POPC   C2B25532   3.467  13.950   8.152
 1817POPC   C3B25533   3.203  13.988   7.776
 1817POPC   C4B25534   3.321  13.944   7.320
 1818POPC   NC325535  16.887  12.565   9.510
 1818POPC   PO425536  16.556  13.232   9.398
 1818POPC   GL125537  16.738  12.917   9.123
 1818POPC   GL225538  17.091  12.835   9.113
 1818POPC   C1A25539  16.817  12.758   8.692
 1818POPC   D2A25540  16.656  12.588   8.357
 1818POPC   C3A25541  16.610  12.912   8.074
 1818POPC   C4A25542  16.528  13.247   7.845
 1818POPC   C1B25543  17.093  13.158   8.778
 1818POPC   C2B25544  17.073  13.036   8.304
 1818POPC   C3B25545  17.036  13.050   7.820
 1818POPC   C4B25546  17.193  13.088   7.356
 1819POPC   NC325547  21.795  22.452   9.808
 1819POPC   PO425548  22.392  22.197   9.588
 1819POPC   GL125549  22.264  22.328   9.198
 1819POPC   GL225550  21.962  22.476   9.332
 1819POPC   C1A25551  22.064  22.071   8.872
 1819POPC   D2A25552  21.907  22.021   8.453
 1819POPC   C3A25553  22.181  21.892   8.120
 1819POPC   C4A25554  22.349  22.094   7.727
 1819POPC   C1B25555  21.830  22.538   8.920
 1819POPC   C2B25556  22.121  22.503   8.567
 1819POPC   C3B25557  22.150  22.417   8.116
 1819POPC   C4B25558  21.921  22.416   7.707
 1820POPC   NC325559  31.085  16.037   9.261
 1820POPC   PO425560  31.464  15.691   9.574
 1820POPC   GL125561  31.523  15.817   9.059
 1820POPC   GL225562  31.444  16.168   8.941
 1820POPC   C1A25563  31.665  15.876   8.604
 1820POPC   D2A25564  31.480  16.263   8.414
 1820POPC   C3A25565  31.319  16.232   8.020
 1820POPC   C4A25566  31.416  15.836   7.907
 1820POPC   C1B25567  31.149  15.973   8.662
 1820POPC   C2B25568  31.161  15.827   8.335
 1820POPC   C3B25569  30.912  15.825   7.997
 1820POPC   C4B25570  31.028  15.823   7.589
 1821POPC   NC325571  27.041  43.135   9.782
 1821POPC   PO425572  26.730  43.343   9.191
 1821POPC   GL125573  27.058  43.245   8.959
 1821POPC   GL225574  27.022  42.906   9.109
 1821POPC   C1A25575  27.163  43.409   8.534
 1821POPC   D2A25576  26.814  43.443   8.259
 1821POPC   C3A25577  26.910  43.355   7.851
 1821POPC   C4A25578  26.661  43.157   7.556
 1821POPC   C1B25579  26.660  42.863   8.796
 1821POPC   C2B25580  26.547  42.989   8.407
 1821POPC   C3B25581  26.551  42.917   7.994
 1821POPC   C4B25582  26.287  42.627   7.752
 1822POPC   NC325583  37.426  34.208   9.450
 1822POPC   PO425584  37.932  33.832   9.582
 1822POPC   GL125585  37.908  33.650   9.182
 1822POPC   GL225586  37.804  33.978   9.068
 1822POPC   C1A25587  37.715  33.415   8.844
 1822POPC   D2A25588  37.557  33.597   8.461
 1822POPC   C3A25589  37.729  33.442   8.076
 1822POPC   C4A25590  37.705  33.600   7.667
 1822POPC   C1B25591  37.617  34.268   8.764
 1822POPC   C2B25592  37.461  34.199   8.352
 1822POPC   C3B25593  37.499  33.926   8.017
 1822POPC   C4B25594  37.594  34.093   7.631
 1823POPC   NC325595  25.878  35.878   9.535
 1823POPC   PO425596  26.518  36.325   9.454
 1823POPC   GL125597  26.086  36.250   9.233
 1823POPC   GL225598  25.836  35.984   9.058
 1823POPC   C1A25599  25.942  36.435   8.861
 1823POPC   D2A25600  26.162  36.494   8.494
 1823POPC   C3A25601  25.921  36.391   8.119
 1823POPC   C4A25602  26.088  36.448   7.722
 1823POPC   C1B25603  25.922  35.884   8.636
 1823POPC   C2B25604  25.890  35.870   8.190
 1823POPC   C3B25605  25.925  35.959   7.748
 1823POPC   C4B25606  26.191  35.875   7.376
 1824POPC   NC325607   9.920  42.606   9.540
 1824POPC   PO425608   9.484  42.152   9.452
 1824POPC   GL125609   9.739  42.326   9.150
 1824POPC   GL225610  10.072  42.188   9.149
 1824POPC   C1A25611   9.792  42.408   8.725
 1824POPC   D2A25612   9.571  42.215   8.396
 1824POPC   C3A25613   9.452  42.446   8.035
 1824POPC   C4A25614   9.458  42.258   7.634
 1824POPC   C1B25615  10.225  42.126   8.709
 1824POPC   C2B25616  10.071  42.201   8.283
 1824POPC   C3B25617   9.902  42.246   7.864
 1824POPC   C4B25618   9.946  42.141   7.417
 1825POPC   NC325619   2.763  44.829   9.456
 1825POPC   PO425620   2.158  44.724   9.773
 1825POPC   GL125621   2.376  44.456   9.325
 1825POPC   GL225622   2.737  44.384   9.236
 1825POPC   C1A25623   2.528  44.639   8.845
 1825POPC   D2A25624   2.822  44.752   8.505
 1825POPC   C3A25625   2.659  44.734   8.122
 1825POPC   C4A25626   2.814  44.838   7.735
 1825POPC   C1B25627   3.027  44.408   8.870
 1825POPC   C2B25628   2.975  44.290   8.473
 1825POPC   C3B25629   2.867  44.276   8.072
 1825POPC   C4B25630   3.011  44.377   7.704
 1826POPC   NC325631  36.360  42.589   9.308
 1826POPC   PO425632  36.813  42.097   9.553
 1826POPC   GL125633  36.876  42.232   9.142
 1826POPC   GL225634  36.880  42.563   9.176
 1826POPC   C1A25635  36.742  42.339   8.724
 1826POPC   D2A25636  36.858  42.154   8.356
 1826POPC   C3A25637  36.893  42.270   7.953
 1826POPC   C4A25638  37.079  41.974   7.655
 1826POPC   C1B25639  37.140  42.638   8.830
 1826POPC   C2B25640  37.016  42.648   8.418
 1826POPC   C3B25641  37.104  42.726   8.023
 1826POPC   C4B25642  36.964  42.732   7.600
 1827POPC   NC325643  30.478  13.871   9.467
 1827POPC   PO425644  30.945  13.414   9.426
 1827POPC   GL125645  30.816  13.616   9.091
 1827POPC   GL225646  30.487  13.485   9.130
 1827POPC   C1A25647  30.920  13.448   8.684
 1827POPC   D2A25648  31.132  13.496   8.284
 1827POPC   C3A25649  30.866  13.534   7.940
 1827POPC   C4A25650  30.727  13.937   7.727
 1827POPC   C1B25651  30.396  13.566   8.738
 1827POPC   C2B25652  30.522  13.475   8.334
 1827POPC   C3B25653  30.400  13.751   8.041
 1827POPC   C4B25654  30.185  13.785   7.686
 1828POPC   NC325655  23.951  34.008   9.795
 1828POPC   PO425656  23.539  34.504   9.465
 1828POPC   GL125657  23.487  34.303   9.098
 1828POPC   GL225658  23.339  34.633   8.990
 1828POPC   C1A25659  23.739  34.373   8.737
 1828POPC   D2A25660  23.910  34.593   8.402
 1828POPC   C3A25661  23.780  34.421   8.045
 1828POPC   C4A25662  23.940  34.285   7.653
 1828POPC   C1B25663  23.593  34.876   8.759
 1828POPC   C2B25664  23.538  34.945   8.358
 1828POPC   C3B25665  23.657  34.911   7.951
 1828POPC   C4B25666  23.385  34.891   7.616
 1829POPC   NC325667  41.408  11.772   9.249
 1829POPC   PO425668  41.932  12.000   9.494
 1829POPC   GL125669  41.685  12.201   9.127
 1829POPC   GL225670  41.336  12.352   9.165
 1829POPC   C1A25671  41.541  12.040   8.697
 1829POPC   D2A25672  41.678  11.961   8.311
 1829POPC   C3A25673  41.386  11.943   7.997
 1829POPC   C4A25674  41.493  11.868   7.605
 1829POPC   C1B25675  41.425  12.518   8.777
 1829POPC   C2B25676  41.627  12.468   8.400
 1829POPC   C3B25677  41.474  12.435   8.003
 1829POPC   C4B25678  41.258  12.330   7.654
 1830POPC   NC325679  17.653  27.482   9.512
 1830POPC   PO425680  17.039  27.944   9.577
 1830POPC   GL125681  17.317  27.738   9.231
 1830POPC   GL225682  17.700  27.786   9.095
 1830POPC   C1A25683  17.339  27.497   8.847
 1830POPC   D2A25684  17.179  27.643   8.438
 1830POPC   C3A25685  17.443  27.688   8.105
 1830POPC   C4A25686  17.791  27.838   7.848
 1830POPC   C1B25687  17.873  27.382   8.880
 1830POPC   C2B25688  17.830  27.192   8.466
 1830POPC   C3B25689  17.893  27.378   8.078
 1830POPC   C4B25690  17.571  27.326   7.797
 1831POPC   NC325691  12.629  43.569   9.516
 1831POPC   PO425692  12.948  44.079   9.735
 1831POPC   GL125693  12.784  44.010   9.272
 1831POPC   GL225694  12.703  43.746   9.010
 1831POPC   C1A25695  12.845  44.216   8.858
 1831POPC   D2A25696  13.061  44.039   8.520
 1831POPC   C3A25697  12.850  44.068   8.135
 1831POPC   C4A25698  12.978  43.910   7.748
 1831POPC   C1B25699  12.944  43.554   8.669
 1831POPC   C2B25700  13.117  43.607   8.251
 1831POPC   C3B25701  13.202  43.418   7.884
 1831POPC   C4B25702  12.960  43.422   7.506
 1832POPC   NC325703  42.789  22.925   9.560
 1832POPC   PO425704  43.426  23.185   9.451
 1832POPC   GL125705  43.219  23.035   9.078
 1832POPC   GL225706  42.894  23.099   9.096
 1832POPC   C1A25707  43.067  22.721   8.748
 1832POPC   D2A25708  42.835  22.793   8.331
 1832POPC   C3A25709  42.881  22.689   7.912
 1832POPC   C4A25710  43.269  22.676   7.692
 1832POPC   C1B25711  43.005  23.213   8.648
 1832POPC   C2B25712  42.891  23.384   8.260
 1832POPC   C3B25713  42.755  23.220   7.900
 1832POPC   C4B25714  43.095  23.289   7.672
 1833POPC   NC325715  30.183  40.976   9.563
 1833POPC   PO425716  30.796  40.787   9.776
 1833POPC   GL125717  30.697  40.802   9.315
 1833POPC   GL225718  30.371  40.664   9.197
 1833POPC   C1A25719  30.734  40.780   8.860
 1833POPC   D2A25720  30.928  40.575   8.541
 1833POPC   C3A25721  30.886  40.772   8.198
 1833POPC   C4A25722  30.896  40.792   7.794
 1833POPC   C1B25723  30.218  40.766   8.786
 1833POPC   C2B25724  30.404  40.645   8.405
 1833POPC   C3B25725  30.463  40.567   7.996
 1833POPC   C4B25726  30.441  40.995   7.886
 1834POPC   NC325727  15.027  27.264   9.471
 1834POPC   PO425728  14.741  27.890   9.691
 1834POPC   GL125729  14.877  27.808   9.251
 1834POPC   GL225730  15.029  27.535   9.046
 1834POPC   C1A25731  14.795  27.979   8.834
 1834POPC   D2A25732  14.944  28.142   8.436
 1834POPC   C3A25733  14.953  27.831   8.125
 1834POPC   C4A25734  15.099  27.688   7.749
 1834POPC   C1B25735  15.133  27.660   8.633
 1834POPC   C2B25736  15.408  27.876   8.391
 1834POPC   C3B25737  15.512  27.763   8.008
 1834POPC   C4B25738  15.538  27.357   7.825
 1835POPC   NC325739  35.442  18.777   9.756
 1835POPC   PO425740  35.318  18.148   9.473
 1835POPC   GL125741  35.193  18.205   9.089
 1835POPC   GL225742  35.402  17.917   9.032
 1835POPC   C1A25743  35.013  18.346   8.674
 1835POPC   D2A25744  35.189  18.634   8.348
 1835POPC   C3A25745  35.248  18.448   7.914
 1835POPC   C4A25746  35.040  18.358   7.541
 1835POPC   C1B25747  35.495  18.226   8.679
 1835POPC   C2B25748  35.366  18.140   8.293
 1835POPC   C3B25749  35.588  18.011   7.942
 1835POPC   C4B25750  35.576  18.165   7.531
 1836POPC   NC325751  22.669  25.486   9.547
 1836POPC   PO425752  23.119  24.915   9.584
 1836POPC   GL125753  23.009  25.146   9.245
 1836POPC   GL225754  22.925  25.435   9.082
 1836POPC   C1A25755  23.131  25.077   8.813
 1836POPC   D2A25756  22.936  25.280   8.475
 1836POPC   C3A25757  23.071  25.209   8.054
 1836POPC   C4A25758  22.814  25.292   7.704
 1836POPC   C1B25759  22.635  25.655   8.854
 1836POPC   C2B25760  22.705  25.774   8.466
 1836POPC   C3B25761  22.692  25.571   8.118
 1836POPC   C4B25762  22.350  25.460   7.907
 1837POPC   NC325763  10.792  21.279   9.416
 1837POPC   PO425764  10.103  21.050   9.377
 1837POPC   GL125765  10.389  21.239   9.120
 1837POPC   GL225766  10.137  21.309   8.923
 1837POPC   C1A25767  10.583  21.468   8.762
 1837POPC   D2A25768  10.789  21.537   8.380
 1837POPC   C3A25769  10.673  21.403   7.939
 1837POPC   C4A25770  10.760  21.124   7.535
 1837POPC   C1B25771  10.071  21.641   8.632
 1837POPC   C2B25772   9.927  21.550   8.227
 1837POPC   C3B25773  10.178  21.431   7.882
 1837POPC   C4B25774  10.335  21.389   7.480
 1838POPC   NC325775  25.584  23.394   9.577
 1838POPC   PO425776  25.400  22.746   9.640
 1838POPC   GL125777  25.303  22.760   9.224
 1838POPC   GL225778  25.281  23.143   9.245
 1838POPC   C1A25779  25.423  22.710   8.819
 1838POPC   D2A25780  25.603  22.554   8.465
 1838POPC   C3A25781  25.363  22.668   8.132
 1838POPC   C4A25782  25.348  22.782   7.718
 1838POPC   C1B25783  25.407  23.229   8.845
 1838POPC   C2B25784  25.457  23.063   8.456
 1838POPC   C3B25785  25.480  23.150   8.038
 1838POPC   C4B25786  25.513  23.231   7.595
 1839POPC   NC325787  42.037  40.922   9.418
 1839POPC   PO425788  42.550  40.427   9.511
 1839POPC   GL125789  42.323  40.584   9.160
 1839POPC   GL225790  42.426  40.931   9.077
 1839POPC   C1A25791  42.110  40.710   8.754
 1839POPC   D2A25792  42.310  40.894   8.363
 1839POPC   C3A25793  42.051  40.828   7.980
 1839POPC   C4A25794  42.050  40.495   7.680
 1839POPC   C1B25795  42.624  40.673   8.734
 1839POPC   C2B25796  42.784  40.684   8.300
 1839POPC   C3B25797  42.517  40.663   7.937
 1839POPC   C4B25798  42.372  40.930   7.589
 1840POPC   NC325799   4.700  16.518   9.561
 1840POPC   PO425800   5.338  16.831   9.555
 1840POPC   GL125801   4.968  16.920   9.285
 1840POPC   GL225802   4.977  16.606   9.143
 1840POPC   C1A25803   4.929  17.003   8.823
 1840POPC   D2A25804   5.269  16.908   8.516
 1840POPC   C3A25805   5.287  16.777   8.084
 1840POPC   C4A25806   5.570  16.946   7.801
 1840POPC   C1B25807   4.826  16.519   8.701
 1840POPC   C2B25808   4.839  16.708   8.311
 1840POPC   C3B25809   4.780  16.724   7.862
 1840POPC   C4B25810   4.786  16.424   7.527
 1841POPC   NC325811  29.399  11.513   9.490
 1841POPC   PO425812  28.704  11.351   9.462
 1841POPC   GL125813  29.023  11.330   9.113
 1841POPC   GL225814  29.374  11.216   9.080
 1841POPC   C1A25815  29.087  11.276   8.663
 1841POPC   D2A25816  28.788  11.218   8.372
 1841POPC   C3A25817  28.948  11.281   7.964
 1841POPC   C4A25818  28.802  11.079   7.617
 1841POPC   C1B25819  29.602  11.045   8.745
 1841POPC   C2B25820  29.545  11.155   8.350
 1841POPC   C3B25821  29.518  11.016   7.935
 1841POPC   C4B25822  29.399  11.270   7.615
 1842POPC   NC325823  15.726  17.968   9.607
 1842POPC   PO425824  16.262  18.438   9.653
 1842POPC   GL125825  16.126  18.343   9.231
 1842POPC   GL225826  15.801  18.384   9.117
 1842POPC   C1A25827  16.163  18.251   8.762
 1842POPC   D2A25828  16.325  18.468   8.394
 1842POPC   C3A25829  16.161  18.276   8.055
 1842POPC   C4A25830  16.106  18.059   7.710
 1842POPC   C1B25831  15.685  18.078   8.799
 1842POPC   C2B25832  15.820  18.031   8.386
 1842POPC   C3B25833  15.667  18.065   7.986
 1842POPC   C4B25834  15.387  18.348   7.767
 1843POPC   NC325835  31.523  42.173   9.495
 1843POPC   PO425836  31.778  42.845   9.499
 1843POPC   GL125837  31.811  42.491   9.182
 1843POPC   GL225838  31.470  42.453   9.057
 1843POPC   C1A25839  31.798  42.170   8.802
 1843POPC   D2A25840  31.624  42.128   8.381
 1843POPC   C3A25841  31.444  42.429   8.085
 1843POPC   C4A25842  31.731  42.405   7.775
 1843POPC   C1B25843  31.271  42.110   8.814
 1843POPC   C2B25844  31.080  42.106   8.404
 1843POPC   C3B25845  31.245  41.970   8.019
 1843POPC   C4B25846  31.316  42.015   7.589
 1844POPC   NC325847  41.916  43.446   9.328
 1844POPC   PO425848  41.658  42.947   9.758
 1844POPC   GL125849  41.604  43.038   9.309
 1844POPC   GL225850  41.306  42.950   9.233
 1844POPC   C1A25851  41.612  43.065   8.826
 1844POPC   D2A25852  41.739  42.992   8.361
 1844POPC   C3A25853  41.737  43.153   7.976
 1844POPC   C4A25854  41.669  43.457   7.680
 1844POPC   C1B25855  41.158  42.818   8.831
 1844POPC   C2B25856  41.252  42.954   8.445
 1844POPC   C3B25857  41.185  42.802   8.070
 1844POPC   C4B25858  41.352  42.924   7.688
 1845POPC   NC325859  24.465  29.790   9.561
 1845POPC   PO425860  24.249  30.436   9.582
 1845POPC   GL125861  24.319  30.104   9.198
 1845POPC   GL225862  24.666  29.913   9.116
 1845POPC   C1A25863  24.355  30.037   8.740
 1845POPC   D2A25864  24.190  29.840   8.378
 1845POPC   C3A25865  24.271  29.996   8.003
 1845POPC   C4A25866  24.436  30.301   7.840
 1845POPC   C1B25867  24.851  29.845   8.672
 1845POPC   C2B25868  24.719  29.996   8.243
 1845POPC   C3B25869  24.676  29.741   7.853
 1845POPC   C4B25870  24.678  29.551   7.445
 1846POPC   NC325871   3.380  20.138   9.464
 1846POPC   PO425872   3.697  19.583   9.421
 1846POPC   GL125873   3.507  19.781   9.079
 1846POPC   GL225874   3.744  20.053   9.091
 1846POPC   C1A25875   3.565  19.909   8.629
 1846POPC   D2A25876   3.716  19.698   8.247
 1846POPC   C3A25877   3.482  19.803   7.840
 1846POPC   C4A25878   3.169  20.103   7.626
 1846POPC   C1B25879   3.935  20.272   8.755
 1846POPC   C2B25880   3.953  20.400   8.331
 1846POPC   C3B25881   3.924  20.110   8.008
 1846POPC   C4B25882   4.043  19.656   7.867
 1847POPC   NC325883  10.551   3.135   9.332
 1847POPC   PO425884  10.875   3.748   9.410
 1847POPC   GL125885  10.475   3.622   9.229
 1847POPC   GL225886  10.352   3.864   9.112
 1847POPC   C1A25887  10.280   3.463   8.805
 1847POPC   D2A25888  10.229   3.276   8.396
 1847POPC   C3A25889  10.566   3.332   8.099
 1847POPC   C4A25890  10.388   3.366   7.688
 1847POPC   C1B25891  10.702   3.771   8.785
 1847POPC   C2B25892  10.712   3.866   8.345
 1847POPC   C3B25893  10.410   3.795   8.015
 1847POPC   C4B25894  10.255   3.864   7.624
 1848POPC   NC325895   9.000  38.758   9.830
 1848POPC   PO425896   9.190  39.451   9.600
 1848POPC   GL125897   9.027  39.402   9.176
 1848POPC   GL225898   8.745  39.219   9.245
 1848POPC   C1A25899   9.112  39.395   8.719
 1848POPC   D2A25900   9.398  39.284   8.396
 1848POPC   C3A25901   9.180  39.188   8.043
 1848POPC   C4A25902   8.885  39.287   7.741
 1848POPC   C1B25903   8.692  39.105   8.791
 1848POPC   C2B25904   8.656  39.214   8.327
 1848POPC   C3B25905   8.635  38.940   7.966
 1848POPC   C4B25906   8.700  38.889   7.488
 1849POPC   NC325907  29.327  44.681   9.707
 1849POPC   PO425908  28.928  44.202   9.518
 1849POPC   GL125909  29.140  44.516   9.223
 1849POPC   GL225910  29.383  44.817   9.217
 1849POPC   C1A25911  29.101  44.719   8.816
 1849POPC   D2A25912  29.065  44.641   8.403
 1849POPC   C3A25913  29.041  44.859   8.031
 1849POPC   C4A25914  28.986  44.575   7.716
 1849POPC   C1B25915  29.431   0.100   8.811
 1849POPC   C2B25916  29.365   0.092   8.350
 1849POPC   C3B25917  29.499   0.001   7.879
 1849POPC   C4B25918  29.461  44.711   7.508
 1850POPC   NC325919  29.876  35.543   9.553
 1850POPC   PO425920  29.674  34.898   9.480
 1850POPC   GL125921  29.587  35.262   9.207
 1850POPC   GL225922  29.617  35.658   9.138
 1850POPC   C1A25923  29.656  35.299   8.787
 1850POPC   D2A25924  29.784  35.110   8.431
 1850POPC   C3A25925  29.796  35.274   8.028
 1850POPC   C4A25926  30.224  35.290   7.874
 1850POPC   C1B25927  29.828  35.793   8.788
 1850POPC   C2B25928  29.842  35.643   8.399
 1850POPC   C3B25929  30.032  35.750   8.049
 1850POPC   C4B25930  29.892  35.649   7.670
 1851POPC   NC325931  10.391   0.943   9.706
 1851POPC   PO425932  10.337   1.541   9.508
 1851POPC   GL125933  10.408   1.217   9.193
 1851POPC   GL225934  10.701   1.014   9.247
 1851POPC   C1A25935  10.568   1.338   8.787
 1851POPC   D2A25936  10.663   1.652   8.462
 1851POPC   C3A25937  10.498   1.498   8.083
 1851POPC   C4A25938  10.715   1.272   7.805
 1851POPC   C1B25939  10.549   0.823   8.825
 1851POPC   C2B25940  10.561   0.986   8.366
 1851POPC   C3B25941  10.549   0.815   7.929
 1851POPC   C4B25942  10.460   0.907   7.453
 1852POPC   NC325943  22.998   4.804   9.612
 1852POPC   PO425944  22.570   5.350   9.536
 1852POPC   GL125945  22.839   5.152   9.254
 1852POPC   GL225946  22.731   4.832   9.187
 1852POPC   C1A25947  23.012   5.220   8.852
 1852POPC   D2A25948  22.844   5.231   8.439
 1852POPC   C3A25949  23.111   5.156   8.087
 1852POPC   C4A25950  22.915   5.095   7.667
 1852POPC   C1B25951  23.011   4.703   8.845
 1852POPC   C2B25952  22.995   4.692   8.381
 1852POPC   C3B25953  23.015   4.683   7.930
 1852POPC   C4B25954  23.103   4.615   7.502
 1853POPC   NC325955   7.644  43.598   9.366
 1853POPC   PO425956   7.342  43.090   9.786
 1853POPC   GL125957   7.326  43.194   9.266
 1853POPC   GL225958   7.028  43.285   9.064
 1853POPC   C1A25959   7.475  43.066   8.836
 1853POPC   D2A25960   7.680  43.138   8.419
 1853POPC   C3A25961   7.609  42.824   8.075
 1853POPC   C4A25962   7.399  42.883   7.691
 1853POPC   C1B25963   7.308  43.557   8.784
 1853POPC   C2B25964   7.407  43.614   8.339
 1853POPC   C3B25965   7.367  43.308   7.988
 1853POPC   C4B25966   7.170  43.319   7.560
 1854POPC   NC325967  15.872  28.612   9.593
 1854POPC   PO425968  16.105  28.035   9.610
 1854POPC   GL125969  16.068  28.308   9.217
 1854POPC   GL225970  16.247  28.637   9.208
 1854POPC   C1A25971  15.835  28.565   8.873
 1854POPC   D2A25972  15.765  28.719   8.426
 1854POPC   C3A25973  15.808  28.357   8.151
 1854POPC   C4A25974  15.882  28.249   7.726
 1854POPC   C1B25975  16.350  28.604   8.769
 1854POPC   C2B25976  16.266  28.733   8.328
 1854POPC   C3B25977  16.276  28.615   7.865
 1854POPC   C4B25978  16.276  28.691   7.392
 1855POPC   NC325979  18.432  20.360   9.416
 1855POPC   PO425980  17.812  20.565   9.445
 1855POPC   GL125981  17.900  20.766   9.039
 1855POPC   GL225982  18.188  20.552   8.963
 1855POPC   C1A25983  18.095  21.018   8.732
 1855POPC   D2A25984  18.421  20.936   8.465
 1855POPC   C3A25985  18.243  20.968   8.081
 1855POPC   C4A25986  18.303  20.577   7.913
 1855POPC   C1B25987  18.570  20.372   8.775
 1855POPC   C2B25988  18.820  20.404   8.418
 1855POPC   C3B25989  18.760  20.294   7.998
 1855POPC   C4B25990  18.710  20.167   7.551
 1856POPC   NC325991   0.599   5.372   9.886
 1856POPC   PO425992   0.481   5.874   9.484
 1856POPC   GL125993   0.451   5.890   9.087
 1856POPC   GL225994   0.434   6.224   9.071
 1856POPC   C1A25995   0.443   5.638   8.729
 1856POPC   D2A25996   0.447   5.402   8.384
 1856POPC   C3A25997   0.654   5.573   8.029
 1856POPC   C4A25998   0.529   5.681   7.637
 1856POPC   C1B25999   0.339   6.143   8.666
 1856POPC   C2B26000   0.500   5.963   8.325
 1856POPC   C3B26001   0.502   6.092   7.966
 1856POPC   C4B26002   0.385   6.168   7.592
 1857POPC   NC326003  27.312  14.045   9.445
 1857POPC   PO426004  27.312  14.779   9.430
 1857POPC   GL126005  27.535  14.577   9.099
 1857POPC   GL226006  27.722  14.283   9.187
 1857POPC   C1A26007  27.857  14.518   8.759
 1857POPC   D2A26008  27.710  14.468   8.356
 1857POPC   C3A26009  27.951  14.391   7.997
 1857POPC   C4A26010  27.805  14.292   7.593
 1857POPC   C1B26011  27.473  14.174   8.800
 1857POPC   C2B26012  27.406  14.043   8.378
 1857POPC   C3B26013  27.478  14.165   7.947
 1857POPC   C4B26014  27.274  14.183   7.499
 1858POPC   NC326015  34.560  26.349   9.529
 1858POPC   PO426016  34.494  27.054   9.598
 1858POPC   GL126017  34.424  26.890   9.156
 1858POPC   GL226018  34.315  26.545   9.133
 1858POPC   C1A26019  34.434  26.770   8.703
 1858POPC   D2A26020  34.794  26.791   8.472
 1858POPC   C3A26021  34.866  26.895   8.037
 1858POPC   C4A26022  34.913  27.120   7.628
 1858POPC   C1B26023  34.017  26.486   8.824
 1858POPC   C2B26024  33.978  26.738   8.469
 1858POPC   C3B26025  34.180  26.703   8.079
 1858POPC   C4B26026  34.446  26.842   7.770
 1859POPC   NC326027  14.458  13.901   9.446
 1859POPC   PO426028  14.321  13.276   9.338
 1859POPC   GL126029  14.242  13.643   9.055
 1859POPC   GL226030  14.001  13.923   9.165
 1859POPC   C1A26031  14.489  13.698   8.684
 1859POPC   D2A26032  14.721  13.788   8.309
 1859POPC   C3A26033  14.576  13.476   8.165
 1859POPC   C4A26034  14.472  13.314   7.842
 1859POPC   C1B26035  14.098  14.057   8.745
 1859POPC   C2B26036  14.322  14.076   8.389
 1859POPC   C3B26037  14.312  13.909   7.996
 1859POPC   C4B26038  14.037  14.110   7.730
 1860POPC   NC326039  38.482  21.189   9.451
 1860POPC   PO426040  38.459  20.425   9.514
 1860POPC   GL126041  38.286  20.383   9.117
 1860POPC   GL226042  38.227  20.727   9.181
 1860POPC   C1A26043  38.520  20.342   8.765
 1860POPC   D2A26044  38.612  20.608   8.434
 1860POPC   C3A26045  38.431  20.405   8.116
 1860POPC   C4A26046  38.525  20.371   7.707
 1860POPC   C1B26047  38.385  20.895   8.802
 1860POPC   C2B26048  38.215  20.987   8.406
 1860POPC   C3B26049  38.328  21.030   8.000
 1860POPC   C4B26050  38.310  20.802   7.678
 1861POPC   NC326051  32.100  37.235   9.534
 1861POPC   PO426052  32.350  36.637   9.757
 1861POPC   GL126053  32.191  36.794   9.299
 1861POPC   GL226054  32.419  36.876   9.036
 1861POPC   C1A26055  31.989  37.011   8.883
 1861POPC   D2A26056  32.190  36.906   8.527
 1861POPC   C3A26057  32.044  37.026   8.155
 1861POPC   C4A26058  32.218  36.953   7.758
 1861POPC   C1B26059  32.622  36.685   8.713
 1861POPC   C2B26060  32.854  36.639   8.367
 1861POPC   C3B26061  32.675  36.783   7.984
 1861POPC   C4B26062  32.587  36.648   7.596
 1862POPC   NC326063   5.335   3.561   9.716
 1862POPC   PO426064   6.026   3.676   9.551
 1862POPC   GL126065   5.921   3.667   9.168
 1862POPC   GL226066   5.592   3.789   9.243
 1862POPC   C1A26067   6.118   3.515   8.789
 1862POPC   D2A26068   6.265   3.357   8.404
 1862POPC   C3A26069   6.030   3.407   8.035
 1862POPC   C4A26070   5.769   3.525   7.685
 1862POPC   C1B26071   5.658   3.850   8.785
 1862POPC   C2B26072   5.868   3.734   8.399
 1862POPC   C3B26073   5.857   3.920   7.988
 1862POPC   C4B26074   5.583   3.991   7.660
 1863POPC   NC326075  44.900  39.670   9.404
 1863POPC   PO426076   0.555  39.862   9.497
 1863POPC   GL126077   0.479  39.961   9.112
 1863POPC   GL226078   0.125  39.964   9.051
 1863POPC   C1A26079   0.631  39.903   8.729
 1863POPC   D2A26080   0.521  40.041   8.359
 1863POPC   C3A26081   0.762  39.998   8.013
 1863POPC   C4A26082   0.622  39.996   7.580
 1863POPC   C1B26083   0.252  40.255   8.756
 1863POPC   C2B26084   0.189  40.453   8.368
 1863POPC   C3B26085   0.280  40.256   7.966
 1863POPC   C4B26086   0.080  39.965   7.722
 1864POPC   NC326087  29.575   1.401   9.469
 1864POPC   PO426088  29.867   1.957   9.620
 1864POPC   GL126089  29.729   2.099   9.235
 1864POPC   GL226090  29.509   1.836   9.206
 1864POPC   C1A26091  29.892   2.148   8.824
 1864POPC   D2A26092  29.895   1.921   8.480
 1864POPC   C3A26093  29.999   2.080   8.133
 1864POPC   C4A26094  29.884   2.045   7.734
 1864POPC   C1B26095  29.426   1.994   8.805
 1864POPC   C2B26096  29.516   2.241   8.437
 1864POPC   C3B26097  29.488   2.022   8.089
 1864POPC   C4B26098  29.487   1.757   7.772
 1865POPC   NC326099  30.591   0.151   9.396
 1865POPC   PO426100  30.863   0.744   9.480
 1865POPC   GL126101  30.700   0.585   9.122
 1865POPC   GL226102  30.387   0.519   9.104
 1865POPC   C1A26103  30.789   0.633   8.711
 1865POPC   D2A26104  30.931   0.273   8.541
 1865POPC   C3A26105  30.879   0.248   8.148
 1865POPC   C4A26106  30.837   0.317   7.720
 1865POPC   C1B26107  30.442   0.223   8.759
 1865POPC   C2B26108  30.424   0.068   8.334
 1865POPC   C3B26109  30.428   0.400   8.028
 1865POPC   C4B26110  30.338   0.545   7.636
 1866POPC   NC326111   5.267  11.580   9.541
 1866POPC   PO426112   4.871  11.115   9.636
 1866POPC   GL126113   5.143  11.005   9.275
 1866POPC   GL226114   4.867  11.064   9.049
 1866POPC   C1A26115   5.347  11.128   8.864
 1866POPC   D2A26116   5.406  11.388   8.449
 1866POPC   C3A26117   5.420  11.126   8.068
 1866POPC   C4A26118   5.322  10.899   7.660
 1866POPC   C1B26119   4.934  11.402   8.727
 1866POPC   C2B26120   4.928  11.414   8.279
 1866POPC   C3B26121   5.095  11.490   7.867
 1866POPC   C4B26122   5.091  11.283   7.461
 1867POPC   NC326123  25.210   4.601   9.539
 1867POPC   PO426124  25.647   4.150   9.657
 1867POPC   GL126125  25.538   4.322   9.257
 1867POPC   GL226126  25.167   4.267   9.174
 1867POPC   C1A26127  25.509   4.458   8.833
 1867POPC   D2A26128  25.583   4.417   8.403
 1867POPC   C3A26129  25.320   4.158   8.149
 1867POPC   C4A26130  25.545   4.356   7.826
 1867POPC   C1B26131  25.003   4.542   8.910
 1867POPC   C2B26132  25.047   4.525   8.488
 1867POPC   C3B26133  25.119   4.627   8.085
 1867POPC   C4B26134  25.062   4.391   7.736
 1868POPC   NC326135  16.439  43.431   9.920
 1868POPC   PO426136  16.832  43.010   9.648
 1868POPC   GL126137  16.681  43.057   9.209
 1868POPC   GL226138  16.988  43.014   9.113
 1868POPC   C1A26139  16.568  42.867   8.780
 1868POPC   D2A26140  16.331  43.026   8.405
 1868POPC   C3A26141  16.473  42.977   7.998
 1868POPC   C4A26142  16.875  43.143   7.874
 1868POPC   C1B26143  17.033  43.116   8.706
 1868POPC   C2B26144  16.893  42.869   8.344
 1868POPC   C3B26145  16.866  42.637   7.956
 1868POPC   C4B26146  16.701  42.769   7.544
 1869POPC   NC326147  32.249  40.935   9.491
 1869POPC   PO426148  32.568  40.371   9.417
 1869POPC   GL126149  32.327  40.610   9.109
 1869POPC   GL226150  31.971  40.600   9.178
 1869POPC   C1A26151  32.449  40.684   8.707
 1869POPC   D2A26152  32.508  40.473   8.326
 1869POPC   C3A26153  32.255  40.534   7.979
 1869POPC   C4A26154  32.264  40.925   7.838
 1869POPC   C1B26155  31.961  40.591   8.718
 1869POPC   C2B26156  32.097  40.888   8.373
 1869POPC   C3B26157  31.840  41.069   8.060
 1869POPC   C4B26158  31.781  40.830   7.690
 1870POPC   NC326159   8.620  41.553   9.647
 1870POPC   PO426160   9.211  41.192   9.397
 1870POPC   GL126161   8.938  41.485   9.194
 1870POPC   GL226162   8.669  41.751   9.168
 1870POPC   C1A26163   9.018  41.556   8.787
 1870POPC   D2A26164   8.762  41.561   8.428
 1870POPC   C3A26165   8.943  41.504   8.031
 1870POPC   C4A26166   8.771  41.290   7.683
 1870POPC   C1B26167   8.732  41.982   8.803
 1870POPC   C2B26168   8.632  42.079   8.423
 1870POPC   C3B26169   8.788  42.023   8.047
 1870POPC   C4B26170   8.729  41.822   7.686
 1871POPC   NC326171   9.604   6.249   9.616
 1871POPC   PO426172   9.951   5.595   9.508
 1871POPC   GL126173   9.714   5.854   9.277
 1871POPC   GL226174   9.981   5.867   9.078
 1871POPC   C1A26175   9.475   5.843   8.906
 1871POPC   D2A26176   9.492   5.782   8.465
 1871POPC   C3A26177   9.373   5.995   8.066
 1871POPC   C4A26178   9.549   5.871   7.669
 1871POPC   C1B26179   9.915   5.589   8.763
 1871POPC   C2B26180  10.003   5.812   8.414
 1871POPC   C3B26181   9.897   5.874   8.043
 1871POPC   C4B26182  10.077   5.952   7.690
 1872POPC   NC326183  37.656  27.226   9.600
 1872POPC   PO426184  37.471  26.587   9.865
 1872POPC   GL126185  37.353  26.760   9.372
 1872POPC   GL226186  37.558  26.971   9.176
 1872POPC   C1A26187  37.301  26.735   8.846
 1872POPC   D2A26188  37.574  26.847   8.500
 1872POPC   C3A26189  37.403  26.933   8.107
 1872POPC   C4A26190  37.598  27.022   7.746
 1872POPC   C1B26191  37.898  27.040   8.901
 1872POPC   C2B26192  38.100  26.925   8.545
 1872POPC   C3B26193  37.947  27.022   8.134
 1872POPC   C4B26194  38.112  27.151   7.729
 1873POPC   NC326195  22.635   9.686   9.657
 1873POPC   PO426196  23.315   9.922   9.576
 1873POPC   GL126197  23.012   9.740   9.280
 1873POPC   GL226198  22.707   9.915   9.196
 1873POPC   C1A26199  22.897   9.595   8.858
 1873POPC   D2A26200  22.895   9.482   8.436
 1873POPC   C3A26201  23.110   9.734   8.175
 1873POPC   C4A26202  23.169   9.696   7.746
 1873POPC   C1B26203  22.670  10.186   8.840
 1873POPC   C2B26204  22.725  10.008   8.454
 1873POPC   C3B26205  22.695  10.017   8.036
 1873POPC   C4B26206  22.633   9.652   7.760
 1874POPC   NC326207  41.461  32.647   9.307
 1874POPC   PO426208  41.799  33.248   9.486
 1874POPC   GL126209  41.506  33.166   9.164
 1874POPC   GL226210  41.118  33.232   9.226
 1874POPC   C1A26211  41.678  32.992   8.772
 1874POPC   D2A26212  41.654  32.794   8.386
 1874POPC   C3A26213  41.740  33.090   8.105
 1874POPC   C4A26214  41.757  32.962   7.698
 1874POPC   C1B26215  41.173  33.021   8.808
 1874POPC   C2B26216  41.280  33.129   8.365
 1874POPC   C3B26217  41.275  33.018   7.910
 1874POPC   C4B26218  41.214  33.085   7.466
 1875POPC   NC326219   4.250  20.578   9.684
 1875POPC   PO426220   4.826  20.391   9.645
 1875POPC   GL126221   4.591  20.539   9.238
 1875POPC   GL226222   4.238  20.482   9.153
 1875POPC   C1A26223   4.582  20.423   8.779
 1875POPC   D2A26224   4.421  20.623   8.401
 1875POPC   C3A26225   4.328  20.506   7.979
 1875POPC   C4A26226   4.434  20.707   7.584
 1875POPC   C1B26227   4.116  20.753   8.770
 1875POPC   C2B26228   3.986  20.896   8.306
 1875POPC   C3B26229   4.012  20.912   7.836
 1875POPC   C4B26230   3.727  20.916   7.431
 1876POPC   NC326231  18.530  37.311   9.299
 1876POPC   PO426232  18.017  37.698   9.548
 1876POPC   GL126233  18.180  37.898   9.158
 1876POPC   GL226234  18.535  37.799   9.129
 1876POPC   C1A26235  18.266  37.865   8.689
 1876POPC   D2A26236  18.076  37.530   8.415
 1876POPC   C3A26237  17.951  37.624   7.982
 1876POPC   C4A26238  18.206  37.853   7.710
 1876POPC   C1B26239  18.772  37.940   8.776
 1876POPC   C2B26240  18.642  37.951   8.360
 1876POPC   C3B26241  18.489  37.663   8.104
 1876POPC   C4B26242  18.646  37.588   7.708
 1877POPC   NC326243  32.816  17.215   9.399
 1877POPC   PO426244  33.243  17.642   9.554
 1877POPC   GL126245  33.058  17.609   9.193
 1877POPC   GL226246  32.767  17.703   9.165
 1877POPC   C1A26247  33.075  17.484   8.785
 1877POPC   D2A26248  33.036  17.657   8.389
 1877POPC   C3A26249  32.843  17.497   8.033
 1877POPC   C4A26250  33.057  17.582   7.667
 1877POPC   C1B26251  32.718  17.877   8.734
 1877POPC   C2B26252  32.582  17.900   8.277
 1877POPC   C3B26253  32.845  18.026   7.901
 1877POPC   C4B26254  32.959  17.996   7.401
 1878POPC   NC326255  31.924  33.417   9.949
 1878POPC   PO426256  32.350  33.816   9.602
 1878POPC   GL126257  32.176  33.660   9.215
 1878POPC   GL226258  32.072  33.323   9.349
 1878POPC   C1A26259  32.261  33.739   8.743
 1878POPC   D2A26260  32.503  33.899   8.366
 1878POPC   C3A26261  32.340  33.915   7.939
 1878POPC   C4A26262  32.308  33.650   7.575
 1878POPC   C1B26263  32.081  33.283   8.884
 1878POPC   C2B26264  31.958  33.431   8.455
 1878POPC   C3B26265  32.047  33.508   8.006
 1878POPC   C4B26266  31.821  33.513   7.608
 1879POPC   NC326267  17.920  10.805   9.433
 1879POPC   PO426268  18.567  10.907   9.353
 1879POPC   GL126269  18.281  11.191   9.138
 1879POPC   GL226270  18.029  11.000   8.948
 1879POPC   C1A26271  18.232  11.424   8.733
 1879POPC   D2A26272  18.215  11.223   8.323
 1879POPC   C3A26273  18.229  11.463   7.960
 1879POPC   C4A26274  18.496  11.723   7.725
 1879POPC   C1B26275  18.432  10.931   8.711
 1879POPC   C2B26276  18.581  10.827   8.293
 1879POPC   C3B26277  18.319  10.923   7.927
 1879POPC   C4B26278  17.945  11.052   7.789
 1880POPC   NC326279  39.780   5.832   9.434
 1880POPC   PO426280  40.523   5.707   9.352
 1880POPC   GL126281  40.211   5.857   9.125
 1880POPC   GL226282  39.957   5.611   9.000
 1880POPC   C1A26283  40.291   5.938   8.715
 1880POPC   D2A26284  40.203   6.226   8.399
 1880POPC   C3A26285  40.245   5.913   8.094
 1880POPC   C4A26286  40.152   5.898   7.683
 1880POPC   C1B26287  39.812   6.059   8.834
 1880POPC   C2B26288  39.697   6.200   8.445
 1880POPC   C3B26289  39.729   6.047   8.050
 1880POPC   C4B26290  39.643   6.017   7.604
 1881POPC   NC326291  17.557  24.530   9.496
 1881POPC   PO426292  17.026  24.131   9.585
 1881POPC   GL126293  17.220  24.442   9.132
 1881POPC   GL226294  17.629  24.478   9.011
 1881POPC   C1A26295  17.297  24.356   8.673
 1881POPC   D2A26296  17.586  24.451   8.320
 1881POPC   C3A26297  17.394  24.529   7.907
 1881POPC   C4A26298  17.354  24.309   7.468
 1881POPC   C1B26299  17.736  24.825   8.696
 1881POPC   C2B26300  17.532  24.984   8.306
 1881POPC   C3B26301  17.720  24.956   7.898
 1881POPC   C4B26302  17.640  24.721   7.501
 1882POPC   NC326303  38.301   3.095   9.544
 1882POPC   PO426304  38.624   2.556   9.790
 1882POPC   GL126305  38.374   2.631   9.337
 1882POPC   GL226306  38.161   2.351   9.273
 1882POPC   C1A26307  38.432   2.908   8.896
 1882POPC   D2A26308  38.583   2.860   8.423
 1882POPC   C3A26309  38.525   2.969   7.952
 1882POPC   C4A26310  38.189   3.093   7.644
 1882POPC   C1B26311  38.388   2.375   8.862
 1882POPC   C2B26312  38.538   2.354   8.423
 1882POPC   C3B26313  38.314   2.490   8.044
 1882POPC   C4B26314  38.330   2.612   7.601
 1883POPC   NC326315   2.389  25.285   9.509
 1883POPC   PO426316   3.050  25.471   9.631
 1883POPC   GL126317   2.834  25.405   9.265
 1883POPC   GL226318   2.656  25.709   9.304
 1883POPC   C1A26319   2.637  25.318   8.853
 1883POPC   D2A26320   2.803  25.341   8.408
 1883POPC   C3A26321   2.687  25.257   7.950
 1883POPC   C4A26322   2.913  25.023   7.662
 1883POPC   C1B26323   2.393  25.774   8.947
 1883POPC   C2B26324   2.437  25.679   8.529
 1883POPC   C3B26325   2.473  25.680   8.124
 1883POPC   C4B26326   2.369  25.615   7.706
 1884POPC   NC326327  21.062  40.875   9.359
 1884POPC   PO426328  21.189  40.242   9.582
 1884POPC   GL126329  20.910  40.421   9.176
 1884POPC   GL226330  20.605  40.702   9.181
 1884POPC   C1A26331  20.879  40.720   8.767
 1884POPC   D2A26332  20.740  41.027   8.425
 1884POPC   C3A26333  20.820  40.860   8.004
 1884POPC   C4A26334  20.529  40.580   7.825
 1884POPC   C1B26335  20.387  40.953   8.820
 1884POPC   C2B26336  20.187  40.972   8.372
 1884POPC   C3B26337  20.377  41.102   7.939
 1884POPC   C4B26338  20.322  40.882   7.480
 1885POPC   NC326339  32.759   0.197   9.333
 1885POPC   PO426340  33.226   0.791   9.473
 1885POPC   GL126341  33.136   0.509   9.160
 1885POPC   GL226342  32.804   0.636   9.070
 1885POPC   C1A26343  33.120   0.489   8.715
 1885POPC   D2A26344  33.288   0.315   8.354
 1885POPC   C3A26345  33.166   0.508   8.060
 1885POPC   C4A26346  33.050   0.504   7.683
 1885POPC   C1B26347  32.643   0.327   8.734
 1885POPC   C2B26348  32.786   0.204   8.347
 1885POPC   C3B26349  32.894   0.074   7.960
 1885POPC   C4B26350  32.922   0.042   7.544
 1886POPC   NC326351  32.105  32.544   9.859
 1886POPC   PO426352  32.422  32.088   9.535
 1886POPC   GL126353  32.290  32.307   9.200
 1886POPC   GL226354  31.961  32.390   9.272
 1886POPC   C1A26355  32.465  32.263   8.802
 1886POPC   D2A26356  32.508  31.980   8.458
 1886POPC   C3A26357  32.412  32.253   8.098
 1886POPC   C4A26358  32.340  32.089   7.743
 1886POPC   C1B26359  31.941  32.190   8.864
 1886POPC   C2B26360  32.063  32.286   8.464
 1886POPC   C3B26361  31.901  32.234   8.064
 1886POPC   C4B26362  31.955  32.429   7.703
 1887POPC   NC326363  14.153  43.437   9.510
 1887POPC   PO426364  14.610  42.949   9.480
 1887POPC   GL126365  14.427  43.165   9.161
 1887POPC   GL226366  14.159  42.936   9.153
 1887POPC   C1A26367  14.451  43.283   8.739
 1887POPC   D2A26368  14.406  43.600   8.412
 1887POPC   C3A26369  14.173  43.509   8.031
 1887POPC   C4A26370  14.292  43.374   7.641
 1887POPC   C1B26371  14.063  42.924   8.728
 1887POPC   C2B26372  14.176  43.103   8.327
 1887POPC   C3B26373  14.503  43.098   8.013
 1887POPC   C4B26374  14.441  42.894   7.612
 1888POPC   NC326375   3.461  29.557   9.262
 1888POPC   PO426376   3.292  28.948   9.468
 1888POPC   GL126377   3.517  29.088   9.110
 1888POPC   GL226378   3.841  29.036   9.154
 1888POPC   C1A26379   3.471  29.237   8.684
 1888POPC   D2A26380   3.252  28.948   8.432
 1888POPC   C3A26381   3.304  29.039   8.011
 1888POPC   C4A26382   3.509  29.381   7.815
 1888POPC   C1B26383   3.834  28.880   8.723
 1888POPC   C2B26384   3.790  29.042   8.291
 1888POPC   C3B26385   3.774  28.906   7.868
 1888POPC   C4B26386   3.825  29.068   7.449
 1889POPC   NC326387  24.634  37.161   9.423
 1889POPC   PO426388  24.223  36.730   9.346
 1889POPC   GL126389  24.515  36.519   9.053
 1889POPC   GL226390  24.768  36.787   9.071
 1889POPC   C1A26391  24.694  36.560   8.621
 1889POPC   D2A26392  24.657  36.840   8.286
 1889POPC   C3A26393  24.452  36.767   7.896
 1889POPC   C4A26394  24.355  36.928   7.487
 1889POPC   C1B26395  24.913  37.067   8.728
 1889POPC   C2B26396  25.029  37.202   8.311
 1889POPC   C3B26397  24.940  37.032   7.893
 1889POPC   C4B26398  25.032  37.159   7.466
 1890POPC   NC326399  14.902  43.315   9.487
 1890POPC   PO426400  15.261  42.722   9.471
 1890POPC   GL126401  15.007  42.889   9.156
 1890POPC   GL226402  15.154  43.226   9.054
 1890POPC   C1A26403  15.019  42.833   8.731
 1890POPC   D2A26404  15.312  43.077   8.500
 1890POPC   C3A26405  15.247  42.997   8.071
 1890POPC   C4A26406  14.948  42.870   7.735
 1890POPC   C1B26407  15.191  43.548   8.724
 1890POPC   C2B26408  15.466  43.551   8.373
 1890POPC   C3B26409  15.511  43.425   7.959
 1890POPC   C4B26410  15.144  43.355   7.720
 1891POPC   NC326411  12.603   1.400   9.511
 1891POPC   PO426412  13.071   0.894   9.673
 1891POPC   GL126413  12.838   1.044   9.246
 1891POPC   GL226414  12.830   1.395   9.041
 1891POPC   C1A26415  12.626   1.009   8.808
 1891POPC   D2A26416  12.944   1.186   8.560
 1891POPC   C3A26417  12.951   1.181   8.151
 1891POPC   C4A26418  12.720   1.157   7.758
 1891POPC   C1B26419  13.024   1.674   8.706
 1891POPC   C2B26420  13.113   1.665   8.284
 1891POPC   C3B26421  12.942   1.613   7.871
 1891POPC   C4B26422  12.858   1.616   7.391
 1892POPC   NC326423   2.491  30.912   9.372
 1892POPC   PO426424   2.749  30.316   9.441
 1892POPC   GL126425   2.844  30.578   9.130
 1892POPC   GL226426   3.189  30.550   9.085
 1892POPC   C1A26427   2.844  30.821   8.749
 1892POPC   D2A26428   2.860  31.040   8.355
 1892POPC   C3A26429   2.472  30.998   8.133
 1892POPC   C4A26430   2.632  30.862   7.787
 1892POPC   C1B26431   3.028  30.326   8.715
 1892POPC   C2B26432   2.935  30.507   8.341
 1892POPC   C3B26433   3.088  30.696   7.996
 1892POPC   C4B26434   2.893  30.455   7.705
 1893POPC   NC326435  41.735  38.877   9.471
 1893POPC   PO426436  41.686  39.508   9.240
 1893POPC   GL126437  41.556  39.127   9.034
 1893POPC   GL226438  41.264  38.921   9.113
 1893POPC   C1A26439  41.643  39.221   8.620
 1893POPC   D2A26440  41.987  39.222   8.382
 1893POPC   C3A26441  41.708  39.284   8.070
 1893POPC   C4A26442  41.761  39.294   7.689
 1893POPC   C1B26443  41.293  38.812   8.705
 1893POPC   C2B26444  41.185  38.710   8.308
 1893POPC   C3B26445  41.346  38.894   7.946
 1893POPC   C4B26446  41.250  39.260   7.726
 1894POPC   NC326447   0.911  24.869   9.334
 1894POPC   PO426448   1.008  25.554   9.337
 1894POPC   GL126449   0.987  25.283   9.071
 1894POPC   GL226450   1.327  25.231   9.090
 1894POPC   C1A26451   0.988  25.395   8.695
 1894POPC   D2A26452   1.142  25.648   8.472
 1894POPC   C3A26453   1.024  25.474   8.140
 1894POPC   C4A26454   1.263  25.411   7.830
 1894POPC   C1B26455   1.301  25.012   8.731
 1894POPC   C2B26456   1.039  25.005   8.370
 1894POPC   C3B26457   1.167  24.914   7.941
 1894POPC   C4B26458   1.430  24.857   7.568
 1895POPC   NC326459   2.475  29.916   9.453
 1895POPC   PO426460   3.129  29.767   9.501
 1895POPC   GL126461   2.879  29.708   9.115
 1895POPC   GL226462   2.742  30.049   9.023
 1895POPC   C1A26463   2.865  29.753   8.644
 1895POPC   D2A26464   2.663  30.077   8.388
 1895POPC   C3A26465   2.672  29.981   7.980
 1895POPC   C4A26466   3.025  29.661   7.947
 1895POPC   C1B26467   2.521  30.393   8.761
 1895POPC   C2B26468   2.411  30.510   8.286
 1895POPC   C3B26469   2.378  30.428   7.804
 1895POPC   C4B26470   2.506  30.138   7.416
 1896POPC   NC326471   5.811   8.734   9.533
 1896POPC   PO426472   5.958   9.407   9.390
 1896POPC   GL126473   5.905   9.003   9.119
 1896POPC   GL226474   6.163   8.718   9.161
 1896POPC   C1A26475   5.687   8.825   8.742
 1896POPC   D2A26476   5.444   8.895   8.333
 1896POPC   C3A26477   5.710   8.987   7.947
 1896POPC   C4A26478   5.606   9.209   7.549
 1896POPC   C1B26479   6.243   8.883   8.751
 1896POPC   C2B26480   6.308   9.076   8.371
 1896POPC   C3B26481   6.256   8.908   7.998
 1896POPC   C4B26482   6.222   8.778   7.604
 1897POPC   NC326483  30.620  43.555   9.434
 1897POPC   PO426484  30.736  43.052   9.861
 1897POPC   GL126485  30.806  42.991   9.370
 1897POPC   GL226486  30.488  43.072   9.214
 1897POPC   C1A26487  30.837  42.926   8.870
 1897POPC   D2A26488  30.642  43.027   8.444
 1897POPC   C3A26489  30.806  42.881   8.056
 1897POPC   C4A26490  30.699  42.936   7.647
 1897POPC   C1B26491  30.482  43.332   8.821
 1897POPC   C2B26492  30.294  43.418   8.391
 1897POPC   C3B26493  30.412  43.267   7.944
 1897POPC   C4B26494  30.444  43.314   7.451
 1898POPC   NC326495  43.218  39.221   9.373
 1898POPC   PO426496  42.602  39.435   9.395
 1898POPC   GL126497  42.939  39.490   9.054
 1898POPC   GL226498  43.356  39.524   9.011
 1898POPC   C1A26499  43.012  39.353   8.668
 1898POPC   D2A26500  43.061  39.450   8.286
 1898POPC   C3A26501  42.876  39.212   7.997
 1898POPC   C4A26502  43.065  39.095   7.636
 1898POPC   C1B26503  43.447  39.109   8.790
 1898POPC   C2B26504  43.277  39.003   8.414
 1898POPC   C3B26505  43.399  39.174   8.017
 1898POPC   C4B26506  43.716  39.005   7.795
 1899POPC   NC326507   3.813  19.144   9.502
 1899POPC   PO426508   3.131  18.954   9.506
 1899POPC   GL126509   3.223  19.088   9.100
 1899POPC   GL226510   3.559  19.237   9.062
 1899POPC   C1A26511   3.334  18.909   8.712
 1899POPC   D2A26512   3.546  18.784   8.341
 1899POPC   C3A26513   3.369  18.856   7.938
 1899POPC   C4A26514   3.741  18.808   7.690
 1899POPC   C1B26515   3.557  19.376   8.645
 1899POPC   C2B26516   3.418  19.279   8.228
 1899POPC   C3B26517   3.631  19.304   7.817
 1899POPC   C4B26518   3.492  19.379   7.399
 1900POPC   NC326519  21.204   1.482   9.557
 1900POPC   PO426520  21.464   0.852   9.585
 1900POPC   GL126521  21.464   1.128   9.229
 1900POPC   GL226522  21.133   1.244   9.118
 1900POPC   C1A26523  21.556   1.226   8.812
 1900POPC   D2A26524  21.760   1.137   8.449
 1900POPC   C3A26525  21.560   1.234   8.101
 1900POPC   C4A26526  21.465   1.265   7.676
 1900POPC   C1B26527  21.111   1.468   8.709
 1900POPC   C2B26528  21.118   1.562   8.258
 1900POPC   C3B26529  21.011   1.729   7.857
 1900POPC   C4B26530  21.054   1.460   7.466
 1901POPC   NC326531  44.436  19.170   9.750
 1901POPC   PO426532  44.964  18.811   9.618
 1901POPC   GL126533  44.750  19.070   9.327
 1901POPC   GL226534  44.525  18.781   9.316
 1901POPC   C1A26535  44.694  19.063   8.880
 1901POPC   D2A26536  44.360  19.109   8.544
 1901POPC   C3A26537  44.543  19.217   8.134
 1901POPC   C4A26538  44.864  19.071   7.843
 1901POPC   C1B26539  44.335  18.705   8.912
 1901POPC   C2B26540  44.208  18.606   8.486
 1901POPC   C3B26541  44.251  18.794   8.108
 1901POPC   C4B26542  44.420  18.809   7.722
 1902POPC   NC326543  28.121  22.298   9.959
 1902POPC   PO426544  28.532  21.880   9.582
 1902POPC   GL126545  28.211  22.024   9.255
 1902POPC   GL226546  28.472  22.113   9.062
 1902POPC   C1A26547  28.075  22.112   8.772
 1902POPC   D2A26548  28.323  22.307   8.437
 1902POPC   C3A26549  28.356  22.260   7.990
 1902POPC   C4A26550  27.995  22.139   7.740
 1902POPC   C1B26551  28.663  22.004   8.679
 1902POPC   C2B26552  28.484  21.833   8.300
 1902POPC   C3B26553  28.513  21.639   7.892
 1902POPC   C4B26554  28.454  21.959   7.580
 1903POPC   NC326555   5.523  44.617   9.589
 1903POPC   PO426556   6.008   0.027   9.349
 1903POPC   GL126557   5.954  44.584   9.205
 1903POPC   GL226558   5.627  44.415   9.119
 1903POPC   C1A26559   6.048  44.476   8.781
 1903POPC   D2A26560   6.307  44.660   8.480
 1903POPC   C3A26561   6.090  44.555   8.134
 1903POPC   C4A26562   6.104  44.784   7.795
 1903POPC   C1B26563   5.600  44.750   8.805
 1903POPC   C2B26564   5.596  44.728   8.339
 1903POPC   C3B26565   5.612  44.622   7.896
 1903POPC   C4B26566   5.404  44.244   7.712
 1904POPC   NC326567   7.560  10.587   9.581
 1904POPC   PO426568   8.268  10.619   9.492
 1904POPC   GL126569   8.105  10.553   9.125
 1904POPC   GL226570   7.814  10.711   9.168
 1904POPC   C1A26571   8.369  10.572   8.774
 1904POPC   D2A26572   8.576  10.551   8.390
 1904POPC   C3A26573   8.376  10.604   8.043
 1904POPC   C4A26574   8.149  10.464   7.693
 1904POPC   C1B26575   7.963  10.951   8.826
 1904POPC   C2B26576   8.110  10.843   8.426
 1904POPC   C3B26577   7.901  10.783   8.060
 1904POPC   C4B26578   8.104  10.970   7.766
 1905POPC   NC326579  30.282  44.269   9.468
 1905POPC   PO426580  29.767  44.607   9.853
 1905POPC   GL126581  29.857  44.650   9.364
 1905POPC   GL226582  30.123  44.836   9.189
 1905POPC   C1A26583  29.735  44.671   8.889
 1905POPC   D2A26584  29.568  44.621   8.460
 1905POPC   C3A26585  29.809  44.640   8.050
 1905POPC   C4A26586  29.876  44.431   7.660
 1905POPC   C1B26587  30.226  44.730   8.734
 1905POPC   C2B26588  30.211  44.514   8.350
 1905POPC   C3B26589  30.309  44.674   7.942
 1905POPC   C4B26590  30.424   0.019   7.688
 1906POPC   NC326591  39.564  25.332   9.784
 1906POPC   PO426592  40.213  25.519   9.547
 1906POPC   GL126593  40.184  25.575   9.109
 1906POPC   GL226594  39.832  25.519   8.990
 1906POPC   C1A26595  40.202  25.363   8.708
 1906POPC   D2A26596  39.962  25.297   8.331
 1906POPC   C3A26597  40.008  25.461   7.932
 1906POPC   C4A26598  40.037  25.171   7.578
 1906POPC   C1B26599  39.677  25.181   8.741
 1906POPC   C2B26600  39.660  24.904   8.393
 1906POPC   C3B26601  39.697  25.037   7.969
 1906POPC   C4B26602  39.601  24.899   7.577
 1907POPC   NC326603  16.508  29.049   9.442
 1907POPC   PO426604  17.056  28.706   9.792
 1907POPC   GL126605  17.016  28.865   9.281
 1907POPC   GL226606  16.964  29.233   9.216
 1907POPC   C1A26607  16.733  28.961   8.859
 1907POPC   D2A26608  16.589  29.207   8.485
 1907POPC   C3A26609  16.603  29.012   8.069
 1907POPC   C4A26610  16.732  28.793   7.725
 1907POPC   C1B26611  16.906  29.465   8.811
 1907POPC   C2B26612  16.954  29.637   8.415
 1907POPC   C3B26613  16.807  29.479   8.042
 1907POPC   C4B26614  16.364  29.466   7.972
 1908POPC   NC326615  14.819  22.176   9.470
 1908POPC   PO426616  15.579  22.367   9.606
 1908POPC   GL126617  15.356  22.178   9.219
 1908POPC   GL226618  15.074  21.958   9.111
 1908POPC   C1A26619  15.196  22.376   8.824
 1908POPC   D2A26620  15.358  22.454   8.406
 1908POPC   C3A26621  15.160  22.415   8.025
 1908POPC   C4A26622  14.896  22.425   7.702
 1908POPC   C1B26623  14.968  21.947   8.697
 1908POPC   C2B26624  15.149  21.990   8.277
 1908POPC   C3B26625  15.008  21.927   7.834
 1908POPC   C4B26626  14.900  21.648   7.412
 1909POPC   NC326627  34.024  22.089   9.939
 1909POPC   PO426628  33.636  22.594   9.595
 1909POPC   GL126629  33.792  22.359   9.174
 1909POPC   GL226630  33.929  22.618   8.931
 1909POPC   C1A26631  34.096  22.132   8.830
 1909POPC   D2A26632  33.993  21.926   8.390
 1909POPC   C3A26633  34.093  22.001   7.919
 1909POPC   C4A26634  33.895  22.058   7.468
 1909POPC   C1B26635  33.624  22.307   8.700
 1909POPC   C2B26636  33.472  22.015   8.365
 1909POPC   C3B26637  33.614  22.161   7.971
 1909POPC   C4B26638  33.437  22.292   7.598
 1910POPC   NC326639  27.138  34.836   9.524
 1910POPC   PO426640  26.779  34.316   9.687
 1910POPC   GL126641  26.918  34.284   9.239
 1910POPC   GL226642  26.984  34.618   9.103
 1910POPC   C1A26643  26.741  34.289   8.806
 1910POPC   D2A26644  26.535  34.457   8.428
 1910POPC   C3A26645  26.612  34.245   8.023
 1910POPC   C4A26646  26.698  34.401   7.622
 1910POPC   C1B26647  26.755  34.794   8.782
 1910POPC   C2B26648  26.814  34.901   8.370
 1910POPC   C3B26649  26.775  34.726   8.014
 1910POPC   C4B26650  26.969  34.820   7.665
 1911POPC   NC326651  39.760  15.824   9.786
 1911POPC   PO426652  40.164  16.227   9.433
 1911POPC   GL126653  40.073  15.989   9.094
 1911POPC   GL226654  39.783  15.814   9.205
 1911POPC   C1A26655  40.275  16.004   8.719
 1911POPC   D2A26656  40.068  15.841   8.385
 1911POPC   C3A26657  40.173  16.018   8.018
 1911POPC   C4A26658  40.267  15.822   7.677
 1911POPC   C1B26659  39.664  15.895   8.787
 1911POPC   C2B26660  39.578  16.027   8.388
 1911POPC   C3B26661  39.662  15.836   7.983
 1911POPC   C4B26662  39.802  16.030   7.603
 1912POPC   NC326663  33.843  43.652   9.471
 1912POPC   PO426664  33.470  44.202   9.349
 1912POPC   GL126665  33.845  44.092   9.168
 1912POPC   GL226666  33.970  43.766   8.997
 1912POPC   C1A26667  33.804  44.203   8.763
 1912POPC   D2A26668  33.777  44.012   8.381
 1912POPC   C3A26669  33.898  44.192   8.012
 1912POPC   C4A26670  33.574  44.246   7.703
 1912POPC   C1B26671  33.612  43.654   8.736
 1912POPC   C2B26672  33.626  43.533   8.300
 1912POPC   C3B26673  33.853  43.681   7.948
 1912POPC   C4B26674  33.681  43.765   7.549
 1913POPC   NC326675   9.193  43.275   9.555
 1913POPC   PO426676   8.723  42.801   9.460
 1913POPC   GL126677   8.929  43.071   9.135
 1913POPC   GL226678   9.307  43.017   9.151
 1913POPC   C1A26679   8.888  43.245   8.667
 1913POPC   D2A26680   8.792  43.015   8.257
 1913POPC   C3A26681   8.826  43.063   7.789
 1913POPC   C4A26682   8.752  42.904   7.349
 1913POPC   C1B26683   9.271  42.885   8.762
 1913POPC   C2B26684   9.276  42.793   8.364
 1913POPC   C3B26685   9.266  42.949   7.984
 1913POPC   C4B26686   9.409  43.245   7.713
 1914POPC   NC326687  28.981  14.024   9.593
 1914POPC   PO426688  29.209  14.651   9.425
 1914POPC   GL126689  29.120  14.407   9.093
 1914POPC   GL226690  29.205  14.056   9.158
 1914POPC   C1A26691  29.050  14.559   8.697
 1914POPC   D2A26692  29.313  14.610   8.348
 1914POPC   C3A26693  29.018  14.526   8.029
 1914POPC   C4A26694  29.075  14.244   7.717
 1914POPC   C1B26695  29.454  14.026   8.834
 1914POPC   C2B26696  29.223  14.113   8.463
 1914POPC   C3B26697  29.394  14.114   8.063
 1914POPC   C4B26698  29.383  13.856   7.668
 1915POPC   NC326699  37.998  19.093   9.479
 1915POPC   PO426700  37.407  19.317   9.680
 1915POPC   GL126701  37.548  19.206   9.271
 1915POPC   GL226702  37.576  19.494   9.096
 1915POPC   C1A26703  37.683  18.958   8.905
 1915POPC   D2A26704  37.805  18.983   8.442
 1915POPC   C3A26705  37.570  19.187   8.074
 1915POPC   C4A26706  37.728  19.077   7.607
 1915POPC   C1B26707  37.929  19.385   8.799
 1915POPC   C2B26708  38.091  19.422   8.403
 1915POPC   C3B26709  38.069  19.273   7.982
 1915POPC   C4B26710  38.141  19.560   7.624
 1916POPC   NC326711  16.862  26.150   9.517
 1916POPC   PO426712  16.256  26.199   9.241
 1916POPC   GL126713  16.586  25.932   9.103
 1916POPC   GL226714  16.960  25.829   9.116
 1916POPC   C1A26715  16.723  25.999   8.683
 1916POPC   D2A26716  16.872  25.831   8.320
 1916POPC   C3A26717  16.670  26.003   7.952
 1916POPC   C4A26718  16.499  26.152   7.569
 1916POPC   C1B26719  17.196  26.119   8.836
 1916POPC   C2B26720  17.117  26.298   8.411
 1916POPC   C3B26721  17.159  26.135   7.979
 1916POPC   C4B26722  16.993  26.013   7.569
 1917POPC   NC326723  13.155  31.909   9.789
 1917POPC   PO426724  12.625  32.135   9.435
 1917POPC   GL126725  12.892  32.336   9.151
 1917POPC   GL226726  13.228  32.267   9.317
 1917POPC   C1A26727  12.800  32.274   8.697
 1917POPC   D2A26728  12.645  31.943   8.438
 1917POPC   C3A26729  12.674  32.003   8.010
 1917POPC   C4A26730  12.785  32.172   7.589
 1917POPC   C1B26731  13.297  32.229   8.853
 1917POPC   C2B26732  13.233  32.403   8.440
 1917POPC   C3B26733  13.016  32.402   8.018
 1917POPC   C4B26734  13.194  32.467   7.580
 1918POPC   NC326735  42.141   2.822   9.415
 1918POPC   PO426736  42.773   2.678   9.543
 1918POPC   GL126737  42.548   2.660   9.126
 1918POPC   GL226738  42.193   2.604   8.956
 1918POPC   C1A26739  42.565   2.785   8.675
 1918POPC   D2A26740  42.209   2.607   8.424
 1918POPC   C3A26741  42.284   2.491   7.993
 1918POPC   C4A26742  42.413   2.742   7.616
 1918POPC   C1B26743  42.089   2.981   8.766
 1918POPC   C2B26744  42.245   3.148   8.420
 1918POPC   C3B26745  42.445   2.994   8.067
 1918POPC   C4B26746  42.192   3.174   7.707
 1919POPC   NC326747  22.439  44.635   9.431
 1919POPC   PO426748  21.890  44.948   9.534
 1919POPC   GL126749  21.977  44.671   9.188
 1919POPC   GL226750  21.964  44.293   9.261
 1919POPC   C1A26751  22.250  44.797   8.824
 1919POPC   D2A26752  22.239   0.085   8.492
 1919POPC   C3A26753  22.131  44.866   8.122
 1919POPC   C4A26754  21.911   0.046   7.758
 1919POPC   C1B26755  22.021  44.338   8.808
 1919POPC   C2B26756  22.266  44.351   8.436
 1919POPC   C3B26757  22.101  44.307   8.048
 1919POPC   C4B26758  22.012  44.547   7.706
 1920POPC   NC326759  32.662  23.983   9.466
 1920POPC   PO426760  31.976  23.918   9.615
 1920POPC   GL126761  32.187  23.986   9.232
 1920POPC   GL226762  32.226  23.649   9.128
 1920POPC   C1A26763  32.400  24.003   8.808
 1920POPC   D2A26764  32.520  23.850   8.393
 1920POPC   C3A26765  32.351  24.040   8.051
 1920POPC   C4A26766  32.165  23.866   7.664
 1920POPC   C1B26767  32.161  23.527   8.668
 1920POPC   C2B26768  32.087  23.578   8.209
 1920POPC   C3B26769  32.249  23.371   7.819
 1920POPC   C4B26770  32.271  23.474   7.343
 1921POPC   NC326771   7.997  35.884   9.557
 1921POPC   PO426772   8.170  36.564   9.576
 1921POPC   GL126773   8.130  36.364   9.171
 1921POPC   GL226774   8.484  36.376   9.076
 1921POPC   C1A26775   7.885  36.287   8.776
 1921POPC   D2A26776   8.036  36.231   8.351
 1921POPC   C3A26777   7.808  36.303   7.991
 1921POPC   C4A26778   7.920  36.031   7.678
 1921POPC   C1B26779   8.420  36.181   8.689
 1921POPC   C2B26780   8.550  36.118   8.257
 1921POPC   C3B26781   8.366  35.880   7.911
 1921POPC   C4B26782   8.389  35.953   7.453
 1922POPC   NC326783  42.077  36.036   9.488
 1922POPC   PO426784  42.707  36.405   9.529
 1922POPC   GL126785  42.424  36.320   9.189
 1922POPC   GL226786  42.460  35.963   9.173
 1922POPC   C1A26787  42.150  36.192   8.817
 1922POPC   D2A26788  42.327  36.100   8.402
 1922POPC   C3A26789  42.188  36.051   7.968
 1922POPC   C4A26790  42.245  36.330   7.604
 1922POPC   C1B26791  42.486  35.793   8.794
 1922POPC   C2B26792  42.768  35.822   8.467
 1922POPC   C3B26793  42.597  35.770   8.093
 1922POPC   C4B26794  42.740  35.742   7.711
 1923POPC   NC326795  19.831  13.636   9.628
 1923POPC   PO426796  19.702  13.158   9.235
 1923POPC   GL126797  19.868  13.512   9.111
 1923POPC   GL226798  19.697  13.831   9.169
 1923POPC   C1A26799  19.978  13.464   8.704
 1923POPC   D2A26800  19.693  13.255   8.430
 1923POPC   C3A26801  19.707  13.527   8.103
 1923POPC   C4A26802  19.809  13.473   7.704
 1923POPC   C1B26803  19.800  13.953   8.756
 1923POPC   C2B26804  20.012  13.868   8.365
 1923POPC   C3B26805  19.968  14.027   7.948
 1923POPC   C4B26806  20.110  13.849   7.571
 1924POPC   NC326807  36.702  30.940   9.624
 1924POPC   PO426808  37.337  30.722   9.512
 1924POPC   GL126809  37.214  30.627   9.106
 1924POPC   GL226810  36.877  30.585   9.237
 1924POPC   C1A26811  37.068  30.466   8.718
 1924POPC   D2A26812  36.978  30.808   8.434
 1924POPC   C3A26813  36.825  30.791   8.023
 1924POPC   C4A26814  36.989  31.068   7.721
 1924POPC   C1B26815  36.696  30.792   8.876
 1924POPC   C2B26816  36.499  30.598   8.492
 1924POPC   C3B26817  36.397  30.305   8.139
 1924POPC   C4B26818  36.581  30.434   7.742
 1925POPC   NC326819   5.148  44.012   9.551
 1925POPC   PO426820   4.631  43.578   9.536
 1925POPC   GL126821   4.951  43.654   9.194
 1925POPC   GL226822   5.331  43.624   9.262
 1925POPC   C1A26823   4.867  43.763   8.760
 1925POPC   D2A26824   4.790  44.100   8.457
 1925POPC   C3A26825   4.943  44.019   8.041
 1925POPC   C4A26826   4.939  43.723   7.743
 1925POPC   C1B26827   5.352  43.919   8.892
 1925POPC   C2B26828   5.270  43.859   8.432
 1925POPC   C3B26829   5.438  43.710   8.027
 1925POPC   C4B26830   5.421  43.716   7.579
 1926POPC   NC326831   6.929  26.223   9.537
 1926POPC   PO426832   6.434  25.709   9.492
 1926POPC   GL126833   6.513  26.063   9.207
 1926POPC   GL226834   6.844  26.048   9.075
 1926POPC   C1A26835   6.462  26.103   8.751
 1926POPC   D2A26836   6.656  25.818   8.436
 1926POPC   C3A26837   6.404  25.750   8.076
 1926POPC   C4A26838   6.289  26.022   7.721
 1926POPC   C1B26839   6.930  26.318   8.734
 1926POPC   C2B26840   6.708  26.326   8.340
 1926POPC   C3B26841   6.795  26.094   7.967
 1926POPC   C4B26842   6.968  25.732   7.812
 1927POPC   NC326843  18.606   0.940   9.508
 1927POPC   PO426844  19.261   1.183   9.336
 1927POPC   GL126845  18.875   1.192   9.113
 1927POPC   GL226846  18.797   1.551   9.168
 1927POPC   C1A26847  18.882   1.003   8.686
 1927POPC   D2A26848  18.891   1.164   8.275
 1927POPC   C3A26849  18.980   0.970   7.899
 1927POPC   C4A26850  18.956   1.082   7.464
 1927POPC   C1B26851  19.102   1.525   8.790
 1927POPC   C2B26852  19.061   1.636   8.351
 1927POPC   C3B26853  19.126   1.464   7.903
 1927POPC   C4B26854  19.255   1.485   7.450
 1928POPC   NC326855   8.053   6.772   9.516
 1928POPC   PO426856   8.356   6.131   9.530
 1928POPC   GL126857   8.213   6.439   9.172
 1928POPC   GL226858   7.884   6.610   9.051
 1928POPC   C1A26859   8.340   6.771   8.873
 1928POPC   D2A26860   8.263   6.912   8.479
 1928POPC   C3A26861   8.196   6.570   8.216
 1928POPC   C4A26862   8.270   6.775   7.864
 1928POPC   C1B26863   7.832   6.971   8.744
 1928POPC   C2B26864   7.815   7.070   8.259
 1928POPC   C3B26865   7.797   7.015   7.783
 1928POPC   C4B26866   8.044   6.789   7.417
 1929POPC   NC326867  19.339  12.702   9.664
 1929POPC   PO426868  18.822  12.972   9.374
 1929POPC   GL126869  19.003  12.698   9.134
 1929POPC   GL226870  19.368  12.636   9.166
 1929POPC   C1A26871  19.028  12.566   8.754
 1929POPC   D2A26872  18.863  12.599   8.360
 1929POPC   C3A26873  18.881  12.952   8.064
 1929POPC   C4A26874  18.884  12.680   7.706
 1929POPC   C1B26875  19.487  12.790   8.754
 1929POPC   C2B26876  19.280  12.894   8.407
 1929POPC   C3B26877  19.322  12.734   8.017
 1929POPC   C4B26878  19.498  13.059   7.814
 1930POPC   NC326879   7.128  44.143   9.483
 1930POPC   PO426880   7.529  44.775   9.657
 1930POPC   GL126881   7.322  44.784   9.292
 1930POPC   GL226882   7.633  44.871   9.099
 1930POPC   C1A26883   7.283  44.577   8.863
 1930POPC   D2A26884   7.564  44.664   8.498
 1930POPC   C3A26885   7.445  44.514   8.088
 1930POPC   C4A26886   7.566  44.812   7.785
 1930POPC   C1B26887   7.239   0.073   8.904
 1930POPC   C2B26888   7.201   0.131   8.503
 1930POPC   C3B26889   7.212   0.027   8.090
 1930POPC   C4B26890   6.917  44.850   7.809
 1931POPC   NC326891  33.220  41.241   9.509
 1931POPC   PO426892  32.989  41.845   9.353
 1931POPC   GL126893  32.965  41.530   9.089
 1931POPC   GL226894  33.316  41.515   9.079
 1931POPC   C1A26895  32.843  41.548   8.668
 1931POPC   D2A26896  32.997  41.313   8.322
 1931POPC   C3A26897  32.920  41.518   7.947
 1931POPC   C4A26898  33.027  41.939   7.917
 1931POPC   C1B26899  33.302  41.199   8.767
 1931POPC   C2B26900  33.523  41.142   8.388
 1931POPC   C3B26901  33.375  41.223   7.979
 1931POPC   C4B26902  33.401  41.614   7.749
 1932POPC   NC326903  26.346   6.812   9.493
 1932POPC   PO426904  25.735   6.412   9.479
 1932POPC   GL126905  26.046   6.556   9.160
 1932POPC   GL226906  26.109   6.915   9.081
 1932POPC   C1A26907  26.240   6.509   8.760
 1932POPC   D2A26908  26.346   6.637   8.325
 1932POPC   C3A26909  26.268   6.404   7.950
 1932POPC   C4A26910  26.065   6.599   7.577
 1932POPC   C1B26911  26.113   6.997   8.680
 1932POPC   C2B26912  25.893   6.957   8.359
 1932POPC   C3B26913  26.094   6.989   8.014
 1932POPC   C4B26914  26.149   7.173   7.623
 1933POPC   NC326915   7.144   7.841   9.516
 1933POPC   PO426916   7.656   7.381   9.380
 1933POPC   GL126917   7.265   7.496   9.160
 1933POPC   GL226918   7.036   7.215   9.064
 1933POPC   C1A26919   7.330   7.703   8.775
 1933POPC   D2A26920   7.654   7.549   8.469
 1933POPC   C3A26921   7.519   7.454   8.044
 1933POPC   C4A26922   7.644   7.498   7.632
 1933POPC   C1B26923   7.313   7.046   8.797
 1933POPC   C2B26924   7.306   7.147   8.399
 1933POPC   C3B26925   7.051   7.210   8.057
 1933POPC   C4B26926   7.238   7.176   7.652
 1934POPC   NC326927   0.840  13.888   9.602
 1934POPC   PO426928   0.260  13.703   9.493
 1934POPC   GL126929   0.364  13.653   9.091
 1934POPC   GL226930   0.688  13.800   9.113
 1934POPC   C1A26931   0.273  13.405   8.759
 1934POPC   D2A26932   0.461  13.164   8.457
 1934POPC   C3A26933   0.348  13.422   8.150
 1934POPC   C4A26934   0.079  13.622   7.839
 1934POPC   C1B26935   0.798  13.552   8.751
 1934POPC   C2B26936   0.861  13.548   8.306
 1934POPC   C3B26937   0.754  13.625   7.908
 1934POPC   C4B26938   0.471  13.327   7.683
 1935POPC   NC326939  43.759  16.080   9.533
 1935POPC   PO426940  44.293  15.738   9.218
 1935POPC   GL126941  43.931  15.927   9.075
 1935POPC   GL226942  44.003  16.260   9.106
 1935POPC   C1A26943  43.775  16.010   8.679
 1935POPC   D2A26944  44.055  15.973   8.307
 1935POPC   C3A26945  43.813  15.710   8.031
 1935POPC   C4A26946  43.798  15.728   7.560
 1935POPC   C1B26947  43.868  16.500   8.758
 1935POPC   C2B26948  43.756  16.401   8.295
 1935POPC   C3B26949  43.828  16.170   7.856
 1935POPC   C4B26950  44.080  16.135   7.408
 1936POPC   NC326951  41.504  23.629   9.399
 1936POPC   PO426952  42.017  23.929   9.752
 1936POPC   GL126953  41.839  24.028   9.221
 1936POPC   GL226954  41.511  24.024   9.078
 1936POPC   C1A26955  41.753  23.744   8.769
 1936POPC   D2A26956  41.604  23.936   8.409
 1936POPC   C3A26957  41.642  23.729   8.075
 1936POPC   C4A26958  41.834  23.702   7.727
 1936POPC   C1B26959  41.225  23.987   8.736
 1936POPC   C2B26960  41.021  23.731   8.409
 1936POPC   C3B26961  41.139  23.646   7.988
 1936POPC   C4B26962  41.365  23.971   7.738
 1937POPC   NC326963  12.972  19.436   9.444
 1937POPC   PO426964  12.638  19.971   9.442
 1937POPC   GL126965  13.011  19.886   9.190
 1937POPC   GL226966  12.842  20.079   8.964
 1937POPC   C1A26967  13.187  19.813   8.739
 1937POPC   D2A26968  12.967  20.099   8.428
 1937POPC   C3A26969  13.083  19.987   8.018
 1937POPC   C4A26970  13.220  19.612   7.816
 1937POPC   C1B26971  12.693  19.662   8.847
 1937POPC   C2B26972  12.662  19.586   8.427
 1937POPC   C3B26973  12.590  19.810   8.069
 1937POPC   C4B26974  12.753  19.752   7.666
 1938POPC   NC326975  15.887   1.416   9.562
 1938POPC   PO426976  15.410   0.910   9.600
 1938POPC   GL126977  15.582   1.103   9.247
 1938POPC   GL226978  15.923   1.022   9.224
 1938POPC   C1A26979  15.642   1.281   8.838
 1938POPC   D2A26980  15.846   1.450   8.452
 1938POPC   C3A26981  15.799   1.153   8.083
 1938POPC   C4A26982  15.685   1.205   7.648
 1938POPC   C1B26983  16.154   1.210   8.877
 1938POPC   C2B26984  16.316   1.205   8.466
 1938POPC   C3B26985  16.375   0.998   8.084
 1938POPC   C4B26986  16.202   1.076   7.722
 1939POPC   NC326987  10.155  21.512   9.478
 1939POPC   PO426988   9.477  21.489   9.592
 1939POPC   GL126989   9.718  21.462   9.202
 1939POPC   GL226990   9.933  21.760   9.110
 1939POPC   C1A26991   9.654  21.350   8.753
 1939POPC   D2A26992   9.369  21.121   8.450
 1939POPC   C3A26993   9.569  21.065   8.040
 1939POPC   C4A26994   9.931  20.982   7.794
 1939POPC   C1B26995   9.586  21.868   8.886
 1939POPC   C2B26996   9.523  21.777   8.465
 1939POPC   C3B26997   9.548  21.895   8.030
 1939POPC   C4B26998   9.705  21.553   7.757
 1940POPC   NC326999  39.839  30.831   9.455
 1940POPC   PO427000  39.151  30.697   9.506
 1940POPC   GL127001  38.997  30.672   9.112
 1940POPC   GL227002  38.816  30.398   9.065
 1940POPC   C1A27003  39.039  30.850   8.703
 1940POPC   D2A27004  38.882  30.699   8.299
 1940POPC   C3A27005  39.240  30.638   8.020
 1940POPC   C4A27006  39.287  30.964   7.692
 1940POPC   C1B27007  39.028  30.332   8.687
 1940POPC   C2B27008  38.956  30.187   8.280
 1940POPC   C3B27009  38.840  30.331   7.896
 1940POPC   C4B27010  38.807  30.743   7.772
 1941POPC   NC327011  28.867  20.212   9.487
 1941POPC   PO427012  28.220  20.221   9.622
 1941POPC   GL127013  28.345  19.919   9.285
 1941POPC   GL227014  28.680  19.886   9.112
 1941POPC   C1A27015  28.215  19.762   8.886
 1941POPC   D2A27016  28.459  19.903   8.532
 1941POPC   C3A27017  28.428  19.830   8.101
 1941POPC   C4A27018  28.512  19.882   7.683
 1941POPC   C1B27019  28.649  19.510   8.828
 1941POPC   C2B27020  28.560  19.400   8.371
 1941POPC   C3B27021  28.622  19.383   7.886
 1941POPC   C4B27022  28.809  19.520   7.465
 1942POPC   NC327023   1.674  19.664   9.418
 1942POPC   PO427024   2.336  19.541   9.656
 1942POPC   GL127025   2.215  19.552   9.159
 1942POPC   GL227026   1.894  19.417   9.025
 1942POPC   C1A27027   2.082  19.745   8.699
 1942POPC   D2A27028   2.047  19.679   8.234
 1942POPC   C3A27029   2.074  19.956   7.909
 1942POPC   C4A27030   2.315  19.904   7.539
 1942POPC   C1B27031   1.540  19.501   8.747
 1942POPC   C2B27032   1.525  19.643   8.316
 1942POPC   C3B27033   1.675  19.637   7.890
 1942POPC   C4B27034   1.792  19.839   7.498
 1943POPC   NC327035  43.811  19.421   9.543
 1943POPC   PO427036  43.809  20.149   9.626
 1943POPC   GL127037  43.907  19.848   9.209
 1943POPC   GL227038  44.148  19.682   9.208
 1943POPC   C1A27039  43.763  19.760   8.724
 1943POPC   D2A27040  43.584  19.803   8.315
 1943POPC   C3A27041  43.690  20.146   8.078
 1943POPC   C4A27042  43.714  20.002   7.690
 1943POPC   C1B27043  44.251  19.760   8.764
 1943POPC   C2B27044  44.082  20.014   8.404
 1943POPC   C3B27045  44.037  19.776   7.997
 1943POPC   C4B27046  44.120  19.722   7.516
 1944POPC   NC327047   6.206  29.381   9.434
 1944POPC   PO427048   6.836  29.219   9.510
 1944POPC   GL127049   6.841  29.078   9.106
 1944POPC   GL227050   6.498  29.099   9.097
 1944POPC   C1A27051   6.813  29.189   8.668
 1944POPC   D2A27052   7.011  29.066   8.282
 1944POPC   C3A27053   6.724  29.039   7.929
 1944POPC   C4A27054   6.595  29.426   7.754
 1944POPC   C1B27055   6.286  29.151   8.713
 1944POPC   C2B27056   6.387  29.286   8.277
 1944POPC   C3B27057   6.200  29.139   7.884
 1944POPC   C4B27058   6.303  29.209   7.399
 1945POPC   NC327059  30.366   1.799   9.597
 1945POPC   PO427060  30.893   1.544   9.218
 1945POPC   GL127061  30.614   1.902   9.118
 1945POPC   GL227062  30.257   2.007   9.154
 1945POPC   C1A27063  30.520   2.135   8.739
 1945POPC   D2A27064  30.477   2.236   8.318
 1945POPC   C3A27065  30.890   2.229   8.112
 1945POPC   C4A27066  31.034   2.142   7.706
 1945POPC   C1B27067  30.218   1.734   8.799
 1945POPC   C2B27068  30.330   1.693   8.314
 1945POPC   C3B27069  30.419   1.930   7.887
 1945POPC   C4B27070  30.261   1.889   7.430
 1946POPC   NC327071  28.071   8.042   9.420
 1946POPC   PO427072  27.384   8.307   9.568
 1946POPC   GL127073  27.471   8.047   9.237
 1946POPC   GL227074  27.179   7.836   9.203
 1946POPC   C1A27075  27.689   8.153   8.886
 1946POPC   D2A27076  27.730   8.352   8.492
 1946POPC   C3A27077  27.641   8.267   8.061
 1946POPC   C4A27078  27.804   8.309   7.643
 1946POPC   C1B27079  27.192   8.033   8.787
 1946POPC   C2B27080  27.240   8.196   8.388
 1946POPC   C3B27081  27.092   8.038   8.010
 1946POPC   C4B27082  27.348   8.044   7.652
 1947POPC   NC327083  15.453  22.825   9.559
 1947POPC   PO427084  14.842  22.629   9.353
 1947POPC   GL127085  15.175  22.871   9.118
 1947POPC   GL227086  15.435  23.144   9.174
 1947POPC   C1A27087  15.248  22.870   8.686
 1947POPC   D2A27088  14.959  22.802   8.322
 1947POPC   C3A27089  15.040  22.877   7.871
 1947POPC   C4A27090  15.083  22.853   7.405
 1947POPC   C1B27091  15.353  23.362   8.779
 1947POPC   C2B27092  15.215  23.255   8.364
 1947POPC   C3B27093  15.059  23.356   7.975
 1947POPC   C4B27094  15.288  23.279   7.626
 1948POPC   NC327095  35.081  10.636   9.669
 1948POPC   PO427096  35.434  10.192   9.539
 1948POPC   GL127097  35.267  10.229   9.128
 1948POPC   GL227098  35.027  10.379   9.219
 1948POPC   C1A27099  35.270  10.397   8.688
 1948POPC   D2A27100  35.246  10.577   8.254
 1948POPC   C3A27101  35.347  10.326   7.889
 1948POPC   C4A27102  35.649  10.380   7.534
 1948POPC   C1B27103  34.871  10.624   8.900
 1948POPC   C2B27104  34.733  10.594   8.497
 1948POPC   C3B27105  34.789  10.829   8.162
 1948POPC   C4B27106  34.921  10.601   7.842
 1949POPC   NC327107  38.057   0.623   9.967
 1949POPC   PO427108  37.860   0.451   9.384
 1949POPC   GL127109  37.525   0.412   9.094
 1949POPC   GL227110  37.667   0.111   9.041
 1949POPC   C1A27111  37.509   0.357   8.631
 1949POPC   D2A27112  37.270   0.396   8.273
 1949POPC   C3A27113  37.450   0.639   7.936
 1949POPC   C4A27114  37.856   0.714   7.774
 1949POPC   C1B27115  37.581  44.839   8.756
 1949POPC   C2B27116  37.560  44.925   8.346
 1949POPC   C3B27117  37.438   0.041   7.953
 1949POPC   C4B27118  37.707   0.239   7.696
 1950POPC   NC327119  31.042  26.207   9.486
 1950POPC   PO427120  31.668  25.926   9.470
 1950POPC   GL127121  31.405  26.040   9.131
 1950POPC   GL227122  31.191  25.761   9.191
 1950POPC   C1A27123  31.387  26.191   8.692
 1950POPC   D2A27124  31.773  26.262   8.396
 1950POPC   C3A27125  31.693  26.121   7.954
 1950POPC   C4A27126  31.271  26.186   7.796
 1950POPC   C1B27127  31.257  25.684   8.756
 1950POPC   C2B27128  31.217  25.848   8.336
 1950POPC   C3B27129  31.356  25.716   7.942
 1950POPC   C4B27130  31.533  25.629   7.553
 1951POPC   NC327131  42.456  41.808   9.539
 1951POPC   PO427132  41.991  41.405   9.356
 1951POPC   GL127133  42.405  41.435   9.166
 1951POPC   GL227134  42.552  41.742   9.055
 1951POPC   C1A27135  42.464  41.328   8.739
 1951POPC   D2A27136  42.441  41.534   8.342
 1951POPC   C3A27137  42.240  41.309   8.005
 1951POPC   C4A27138  42.476  41.423   7.652
 1951POPC   C1B27139  42.236  41.850   8.791
 1951POPC   C2B27140  42.112  41.926   8.370
 1951POPC   C3B27141  42.174  41.816   7.937
 1951POPC   C4B27142  41.846  41.797   7.638
 1952POPC   NC327143  10.099  37.481   9.585
 1952POPC   PO427144   9.432  37.481   9.428
 1952POPC   GL127145   9.744  37.740   9.193
 1952POPC   GL227146   9.996  37.480   9.097
 1952POPC   C1A27147   9.636  38.041   8.816
 1952POPC   D2A27148   9.505  38.216   8.390
 1952POPC   C3A27149   9.604  37.935   8.032
 1952POPC   C4A27150   9.553  37.979   7.595
 1952POPC   C1B27151   9.734  37.524   8.741
 1952POPC   C2B27152   9.897  37.611   8.352
 1952POPC   C3B27153  10.025  37.407   8.002
 1952POPC   C4B27154   9.637  37.425   7.783
 1953POPC   NC327155  42.240   4.516   9.641
 1953POPC   PO427156  42.243   3.833   9.753
 1953POPC   GL127157  42.248   4.171   9.273
 1953POPC   GL227158  42.185   4.525   9.130
 1953POPC   C1A27159  42.520   4.226   8.863
 1953POPC   D2A27160  42.827   4.311   8.525
 1953POPC   C3A27161  42.678   4.275   8.092
 1953POPC   C4A27162  42.423   4.284   7.711
 1953POPC   C1B27163  42.025   4.284   8.785
 1953POPC   C2B27164  42.218   4.346   8.401
 1953POPC   C3B27165  42.089   4.500   8.019
 1953POPC   C4B27166  41.838   4.307   7.728
 1954POPC   NC327167   7.034  23.535   9.476
 1954POPC   PO427168   6.426  23.891   9.590
 1954POPC   GL127169   6.371  23.762   9.124
 1954POPC   GL227170   6.566  23.499   9.037
 1954POPC   C1A27171   6.364  23.904   8.694
 1954POPC   D2A27172   6.597  23.896   8.306
 1954POPC   C3A27173   6.431  23.588   8.047
 1954POPC   C4A27174   6.302  23.712   7.658
 1954POPC   C1B27175   6.808  23.629   8.683
 1954POPC   C2B27176   6.973  23.487   8.345
 1954POPC   C3B27177   6.940  23.561   7.962
 1954POPC   C4B27178   6.766  23.890   7.756
 1955POPC   NC327179  35.918  27.076   9.526
 1955POPC   PO427180  36.502  26.756   9.714
 1955POPC   GL127181  36.332  26.666   9.199
 1955POPC   GL227182  36.093  26.898   9.033
 1955POPC   C1A27183  36.462  26.721   8.756
 1955POPC   D2A27184  36.184  26.785   8.436
 1955POPC   C3A27185  36.171  26.498   8.107
 1955POPC   C4A27186  36.233  26.896   7.911
 1955POPC   C1B27187  35.785  26.691   8.731
 1955POPC   C2B27188  35.691  26.537   8.334
 1955POPC   C3B27189  35.734  26.734   7.921
 1955POPC   C4B27190  35.926  26.861   7.504
 1956POPC   NC327191  31.639  20.849   9.502
 1956POPC   PO427192  31.001  20.805   9.320
 1956POPC   GL127193  31.178  20.593   8.963
 1956POPC   GL227194  31.526  20.549   9.048
 1956POPC   C1A27195  31.356  20.386   8.575
 1956POPC   D2A27196  31.657  20.153   8.281
 1956POPC   C3A27197  31.658  20.430   7.912
 1956POPC   C4A27198  31.241  20.603   7.838
 1956POPC   C1B27199  31.596  20.841   8.703
 1956POPC   C2B27200  31.479  21.004   8.296
 1956POPC   C3B27201  31.609  20.961   7.861
 1956POPC   C4B27202  31.644  21.159   7.421
 1957POPC   NC327203   1.676  13.884   9.560
 1957POPC   PO427204   2.234  13.495   9.701
 1957POPC   GL127205   2.119  13.450   9.271
 1957POPC   GL227206   1.851  13.645   9.132
 1957POPC   C1A27207   2.196  13.411   8.826
 1957POPC   D2A27208   2.214  13.591   8.414
 1957POPC   C3A27209   2.195  13.614   7.957
 1957POPC   C4A27210   2.094  14.017   7.994
 1957POPC   C1B27211   1.738  13.652   8.683
 1957POPC   C2B27212   1.735  13.669   8.214
 1957POPC   C3B27213   1.679  13.710   7.780
 1957POPC   C4B27214   1.588  13.884   7.338
 1958POPC   NC327215  11.996   7.174   9.490
 1958POPC   PO427216  11.625   7.642   9.767
 1958POPC   GL127217  12.015   7.669   9.366
 1958POPC   GL227218  12.339   7.515   9.266
 1958POPC   C1A27219  12.116   7.749   8.892
 1958POPC   D2A27220  12.053   7.521   8.487
 1958POPC   C3A27221  11.919   7.667   8.093
 1958POPC   C4A27222  12.219   7.694   7.783
 1958POPC   C1B27223  12.323   7.272   8.841
 1958POPC   C2B27224  12.448   7.214   8.425
 1958POPC   C3B27225  12.207   7.094   8.104
 1958POPC   C4B27226  12.361   7.160   7.729
 1959POPC   NC327227  41.840   5.627   9.496
 1959POPC   PO427228  42.497   5.865   9.442
 1959POPC   GL127229  42.154   5.870   9.154
 1959POPC   GL227230  42.212   5.520   9.147
 1959POPC   C1A27231  41.996   5.881   8.697
 1959POPC   D2A27232  42.010   5.799   8.219
 1959POPC   C3A27233  42.307   6.048   7.973
 1959POPC   C4A27234  42.340   6.030   7.538
 1959POPC   C1B27235  42.447   5.635   8.768
 1959POPC   C2B27236  42.501   5.709   8.321
 1959POPC   C3B27237  42.511   5.613   7.836
 1959POPC   C4B27238  42.547   5.592   7.375
 1960POPC   NC327239  38.992  28.477   9.584
 1960POPC   PO427240  38.342  28.278   9.525
 1960POPC   GL127241  38.392  28.296   9.139
 1960POPC   GL227242  38.678  28.092   9.143
 1960POPC   C1A27243  38.255  28.494   8.744
 1960POPC   D2A27244  38.097  28.260   8.372
 1960POPC   C3A27245  38.220  28.421   7.939
 1960POPC   C4A27246  38.408  28.235   7.547
 1960POPC   C1B27247  38.735  28.340   8.771
 1960POPC   C2B27248  38.586  28.397   8.350
 1960POPC   C3B27249  38.684  28.184   7.974
 1960POPC   C4B27250  38.961  28.085   7.613
 1961POPC   NC327251  34.803  20.868   9.431
 1961POPC   PO427252  34.117  21.107   9.386
 1961POPC   GL127253  34.415  20.816   9.121
 1961POPC   GL227254  34.529  20.456   9.167
 1961POPC   C1A27255  34.684  20.704   8.747
 1961POPC   D2A27256  34.923  20.561   8.382
 1961POPC   C3A27257  34.693  20.604   8.015
 1961POPC   C4A27258  34.287  20.771   7.864
 1961POPC   C1B27259  34.297  20.331   8.808
 1961POPC   C2B27260  34.403  20.395   8.396
 1961POPC   C3B27261  34.175  20.309   8.038
 1961POPC   C4B27262  33.940  20.428   7.708
 1962POPC   NC327263   7.590  42.714   9.607
 1962POPC   PO427264   7.278  42.112   9.459
 1962POPC   GL127265   7.193  42.387   9.163
 1962POPC   GL227266   7.127  42.721   9.306
 1962POPC   C1A27267   7.473  42.532   8.873
 1962POPC   D2A27268   7.566  42.448   8.454
 1962POPC   C3A27269   7.420  42.142   8.158
 1962POPC   C4A27270   7.488  42.322   7.747
 1962POPC   C1B27271   7.026  42.807   8.859
 1962POPC   C2B27272   7.178  42.862   8.414
 1962POPC   C3B27273   7.132  42.589   8.039
 1962POPC   C4B27274   7.052  42.543   7.587
 1963POPC   NC327275  19.134  38.826   9.594
 1963POPC   PO427276  19.019  39.406   9.654
 1963POPC   GL127277  19.066  39.286   9.212
 1963POPC   GL227278  19.030  38.943   9.086
 1963POPC   C1A27279  18.985  39.418   8.798
 1963POPC   D2A27280  18.965  39.200   8.392
 1963POPC   C3A27281  18.825  39.454   8.050
 1963POPC   C4A27282  18.896  39.305   7.638
 1963POPC   C1B27283  19.342  39.047   8.753
 1963POPC   C2B27284  19.485  39.230   8.393
 1963POPC   C3B27285  19.305  39.265   7.978
 1963POPC   C4B27286  19.401  39.088   7.587
 1964POPC   NC327287  18.728  31.647   9.361
 1964POPC   PO427288  19.389  31.404   9.347
 1964POPC   GL127289  19.095  31.559   9.013
 1964POPC   GL227290  18.762  31.367   8.962
 1964POPC   C1A27291  19.019  31.482   8.562
 1964POPC   D2A27292  19.268  31.204   8.319
 1964POPC   C3A27293  19.355  31.439   7.997
 1964POPC   C4A27294  19.156  31.681   7.691
 1964POPC   C1B27295  18.608  31.764   8.749
 1964POPC   C2B27296  18.692  31.862   8.361
 1964POPC   C3B27297  18.803  31.594   8.042
 1964POPC   C4B27298  18.643  31.544   7.640
 1965POPC   NC327299  44.923  43.757   9.468
 1965POPC   PO427300   0.618  43.942   9.480
 1965POPC   GL127301   0.314  43.870   9.175
 1965POPC   GL227302   0.096  44.152   9.196
 1965POPC   C1A27303   0.265  43.891   8.748
 1965POPC   D2A27304   0.517  43.646   8.488
 1965POPC   C3A27305   0.657  43.870   8.135
 1965POPC   C4A27306   0.797  43.814   7.736
 1965POPC   C1B27307   0.259  44.411   8.873
 1965POPC   C2B27308   0.132  44.440   8.451
 1965POPC   C3B27309   0.172  44.129   8.126
 1965POPC   C4B27310   0.302  44.036   7.712
 1966POPC   NC327311  20.489  23.132   9.564
 1966POPC   PO427312  20.539  22.522   9.820
 1966POPC   GL127313  20.675  22.666   9.371
 1966POPC   GL227314  20.422  22.872   9.143
 1966POPC   C1A27315  20.855  22.713   8.931
 1966POPC   D2A27316  20.777  22.963   8.556
 1966POPC   C3A27317  20.684  22.723   8.166
 1966POPC   C4A27318  20.852  22.868   7.761
 1966POPC   C1B27319  20.328  23.114   8.766
 1966POPC   C2B27320  20.257  22.966   8.333
 1966POPC   C3B27321  20.350  23.031   7.879
 1966POPC   C4B27322  20.222  23.003   7.450
 1967POPC   NC327323  37.892  26.418   9.735
 1967POPC   PO427324  37.582  25.841   9.494
 1967POPC   GL127325  37.830  26.084   9.185
 1967POPC   GL227326  37.640  26.363   9.259
 1967POPC   C1A27327  37.845  26.045   8.710
 1967POPC   D2A27328  37.552  25.862   8.385
 1967POPC   C3A27329  37.572  25.990   7.938
 1967POPC   C4A27330  37.472  25.867   7.492
 1967POPC   C1B27331  37.742  26.526   8.857
 1967POPC   C2B27332  37.912  26.460   8.410
 1967POPC   C3B27333  37.821  26.543   7.987
 1967POPC   C4B27334  37.642  26.388   7.610
 1968POPC   NC327335  23.269  28.694   9.513
 1968POPC   PO427336  23.125  29.448   9.511
 1968POPC   GL127337  23.111  29.308   9.125
 1968POPC   GL227338  22.973  29.008   9.172
 1968POPC   C1A27339  22.989  29.331   8.720
 1968POPC   D2A27340  22.852  29.533   8.363
 1968POPC   C3A27341  22.965  29.310   8.023
 1968POPC   C4A27342  22.721  29.321   7.665
 1968POPC   C1B27343  22.815  28.847   8.807
 1968POPC   C2B27344  22.971  28.665   8.420
 1968POPC   C3B27345  22.843  28.797   8.012
 1968POPC   C4B27346  22.760  28.811   7.562
 1969POPC   NC327347  22.582   6.572   9.521
 1969POPC   PO427348  23.293   6.521   9.318
 1969POPC   GL127349  22.920   6.738   9.123
 1969POPC   GL227350  22.647   6.480   9.043
 1969POPC   C1A27351  22.977   6.924   8.724
 1969POPC   D2A27352  23.309   6.765   8.424
 1969POPC   C3A27353  23.255   6.841   8.001
 1969POPC   C4A27354  22.892   7.053   7.849
 1969POPC   C1B27355  22.617   6.583   8.649
 1969POPC   C2B27356  22.790   6.739   8.269
 1969POPC   C3B27357  22.756   6.527   7.886
 1969POPC   C4B27358  22.566   6.113   7.757
 1970POPC   NC327359  22.676  32.529   9.303
 1970POPC   PO427360  22.769  33.180   9.532
 1970POPC   GL127361  23.115  33.131   9.238
 1970POPC   GL227362  23.232  32.797   9.232
 1970POPC   C1A27363  23.161  33.332   8.838
 1970POPC   D2A27364  22.931  33.359   8.412
 1970POPC   C3A27365  23.128  33.317   7.983
 1970POPC   C4A27366  23.160  33.213   7.530
 1970POPC   C1B27367  23.083  32.796   8.817
 1970POPC   C2B27368  23.239  32.748   8.399
 1970POPC   C3B27369  22.983  32.843   8.072
 1970POPC   C4B27370  22.895  32.714   7.683
 1971POPC   NC327371  32.864  13.510   9.589
 1971POPC   PO427372  33.107  14.092   9.378
 1971POPC   GL127373  32.997  13.689   9.126
 1971POPC   GL227374  32.780  13.342   9.113
 1971POPC   C1A27375  33.178  13.591   8.755
 1971POPC   D2A27376  33.038  13.796   8.414
 1971POPC   C3A27377  33.272  13.721   8.093
 1971POPC   C4A27378  33.086  13.628   7.749
 1971POPC   C1B27379  32.660  13.524   8.686
 1971POPC   C2B27380  32.631  13.514   8.205
 1971POPC   C3B27381  32.626  13.459   7.766
 1971POPC   C4B27382  32.750  13.523   7.326
 1972POPC   NC327383  11.468  30.978  10.161
 1972POPC   PO427384  11.195  30.679   9.571
 1972POPC   GL127385  11.095  30.555   9.183
 1972POPC   GL227386  11.362  30.378   9.176
 1972POPC   C1A27387  11.055  30.647   8.746
 1972POPC   D2A27388  11.355  30.667   8.417
 1972POPC   C3A27389  11.206  30.615   8.006
 1972POPC   C4A27390  11.288  30.693   7.577
 1972POPC   C1B27391  11.555  30.547   8.872
 1972POPC   C2B27392  11.734  30.350   8.572
 1972POPC   C3B27393  11.637  30.306   8.148
 1972POPC   C4B27394  11.715  30.533   7.831
 1973POPC   NC327395  43.584   9.658   9.352
 1973POPC   PO427396  44.262   9.501   9.423
 1973POPC   GL127397  44.011   9.530   9.083
 1973POPC   GL227398  43.957   9.898   9.065
 1973POPC   C1A27399  43.745   9.606   8.712
 1973POPC   D2A27400  43.572   9.865   8.390
 1973POPC   C3A27401  43.706   9.689   8.031
 1973POPC   C4A27402  43.878   9.669   7.661
 1973POPC   C1B27403  43.945  10.120   8.672
 1973POPC   C2B27404  44.046  10.017   8.246
 1973POPC   C3B27405  44.056  10.119   7.822
 1973POPC   C4B27406  44.145   9.997   7.354
 1974POPC   NC327407  21.744   4.515   9.532
 1974POPC   PO427408  22.448   4.610   9.557
 1974POPC   GL127409  22.183   4.448   9.239
 1974POPC   GL227410  21.984   4.757   9.141
 1974POPC   C1A27411  22.203   4.176   8.872
 1974POPC   D2A27412  22.183   4.312   8.435
 1974POPC   C3A27413  22.077   4.152   8.040
 1974POPC   C4A27414  22.433   4.010   7.859
 1974POPC   C1B27415  22.064   4.718   8.706
 1974POPC   C2B27416  21.982   4.736   8.243
 1974POPC   C3B27417  21.988   4.659   7.808
 1974POPC   C4B27418  21.745   4.606   7.413
 1975POPC   NC327419   2.043   6.249   9.580
 1975POPC   PO427420   1.879   6.890   9.580
 1975POPC   GL127421   1.787   6.676   9.220
 1975POPC   GL227422   2.092   6.532   9.148
 1975POPC   C1A27423   1.814   6.788   8.791
 1975POPC   D2A27424   1.795   6.589   8.408
 1975POPC   C3A27425   1.772   6.832   8.057
 1975POPC   C4A27426   1.947   6.575   7.809
 1975POPC   C1B27427   2.395   6.316   8.882
 1975POPC   C2B27428   2.395   6.210   8.466
 1975POPC   C3B27429   2.304   6.288   8.052
 1975POPC   C4B27430   2.258   6.175   7.605
 1976POPC   NC327431  41.330  29.649   9.375
 1976POPC   PO427432  41.680  30.148   9.567
 1976POPC   GL127433  41.608  30.070   9.141
 1976POPC   GL227434  41.597  30.401   8.973
 1976POPC   C1A27435  41.639  29.787   8.774
 1976POPC   D2A27436  41.775  29.602   8.415
 1976POPC   C3A27437  41.705  29.802   8.070
 1976POPC   C4A27438  41.632  29.961   7.674
 1976POPC   C1B27439  41.324  30.217   8.725
 1976POPC   C2B27440  41.327  30.028   8.351
 1976POPC   C3B27441  41.268  30.164   7.958
 1976POPC   C4B27442  41.210  30.179   7.528
 1977POPC   NC327443  14.885  16.185   9.674
 1977POPC   PO427444  15.496  15.878   9.568
 1977POPC   GL127445  15.205  15.962   9.250
 1977POPC   GL227446  15.004  15.651   9.194
 1977POPC   C1A27447  15.258  16.058   8.806
 1977POPC   D2A27448  15.479  15.874   8.460
 1977POPC   C3A27449  15.410  15.966   8.046
 1977POPC   C4A27450  15.328  15.943   7.631
 1977POPC   C1B27451  14.844  15.767   8.754
 1977POPC   C2B27452  14.967  15.899   8.331
 1977POPC   C3B27453  15.004  15.645   7.943
 1977POPC   C4B27454  14.938  15.600   7.513
 1978POPC   NC327455   8.457  43.217   9.431
 1978POPC   PO427456   7.777  43.125   9.460
 1978POPC   GL127457   8.039  43.169   9.138
 1978POPC   GL227458   7.871  43.382   8.956
 1978POPC   C1A27459   8.192  42.938   8.764
 1978POPC   D2A27460   7.998  42.712   8.431
 1978POPC   C3A27461   8.124  42.807   8.044
 1978POPC   C4A27462   8.401  42.789   7.710
 1978POPC   C1B27463   8.291  43.460   8.791
 1978POPC   C2B27464   8.449  43.431   8.381
 1978POPC   C3B27465   8.386  43.253   7.997
 1978POPC   C4B27466   8.079  43.197   7.707
 1979POPC   NC327467  26.562   4.252   9.568
 1979POPC   PO427468  27.212   4.514   9.526
 1979POPC   GL127469  26.935   4.358   9.182
 1979POPC   GL227470  26.601   4.503   9.135
 1979POPC   C1A27471  26.995   4.110   8.784
 1979POPC   D2A27472  26.946   3.820   8.416
 1979POPC   C3A27473  26.966   4.097   8.059
 1979POPC   C4A27474  26.890   4.354   7.686
 1979POPC   C1B27475  26.720   4.584   8.717
 1979POPC   C2B27476  26.636   4.454   8.279
 1979POPC   C3B27477  26.523   4.662   7.892
 1979POPC   C4B27478  26.497   4.635   7.429
 1980POPC   NC327479  20.367  18.055   9.463
 1980POPC   PO427480  21.002  18.157   9.261
 1980POPC   GL127481  20.612  18.250   9.041
 1980POPC   GL227482  20.439  18.530   9.230
 1980POPC   C1A27483  20.546  18.266   8.594
 1980POPC   D2A27484  20.451  18.097   8.171
 1980POPC   C3A27485  20.766  18.260   7.855
 1980POPC   C4A27486  20.953  18.677   7.757
 1980POPC   C1B27487  20.395  18.735   8.825
 1980POPC   C2B27488  20.208  18.623   8.461
 1980POPC   C3B27489  20.506  18.605   8.141
 1980POPC   C4B27490  20.451  18.619   7.714
 1981POPC   NC327491  27.209   6.326   9.360
 1981POPC   PO427492  27.099   5.564   9.472
 1981POPC   GL127493  26.825   5.717   9.112
 1981POPC   GL227494  26.832   6.093   9.074
 1981POPC   C1A27495  26.446   5.828   8.868
 1981POPC   D2A27496  26.388   6.083   8.496
 1981POPC   C3A27497  26.633   5.914   8.158
 1981POPC   C4A27498  26.635   6.012   7.743
 1981POPC   C1B27499  26.911   6.015   8.629
 1981POPC   C2B27500  27.100   6.140   8.220
 1981POPC   C3B27501  27.121   5.907   7.820
 1981POPC   C4B27502  26.961   5.742   7.424
 1982POPC   NC327503  44.074  42.447   9.835
 1982POPC   PO427504  43.596  42.186   9.456
 1982POPC   GL127505  43.734  42.001   9.113
 1982POPC   GL227506  44.071  42.188   9.084
 1982POPC   C1A27507  43.692  42.182   8.728
 1982POPC   D2A27508  43.609  42.534   8.488
 1982POPC   C3A27509  43.674  42.336   8.093
 1982POPC   C4A27510  43.501  42.348   7.705
 1982POPC   C1B27511  44.136  42.473   8.747
 1982POPC   C2B27512  44.087  42.576   8.329
 1982POPC   C3B27513  44.159  42.456   7.921
 1982POPC   C4B27514  44.248  42.648   7.521
 1983POPC   NC327515   7.598  40.928   9.557
 1983POPC   PO427516   7.822  40.390   9.490
 1983POPC   GL127517   7.485  40.587   9.210
 1983POPC   GL227518   7.145  40.569   9.074
 1983POPC   C1A27519   7.533  40.816   8.834
 1983POPC   D2A27520   7.469  40.648   8.425
 1983POPC   C3A27521   7.721  40.831   8.111
 1983POPC   C4A27522   7.643  40.996   7.715
 1983POPC   C1B27523   7.054  40.890   8.710
 1983POPC   C2B27524   7.171  41.032   8.283
 1983POPC   C3B27525   7.207  40.813   7.884
 1983POPC   C4B27526   7.115  40.820   7.433
 1984POPC   NC327527  30.018  17.951   9.409
 1984POPC   PO427528  29.774  18.616   9.460
 1984POPC   GL127529  29.997  18.402   9.150
 1984POPC   GL227530  29.739  18.228   9.062
 1984POPC   C1A27531  30.120  18.261   8.719
 1984POPC   D2A27532  30.035  17.977   8.387
 1984POPC   C3A27533  29.911  18.210   8.022
 1984POPC   C4A27534  30.060  18.138   7.661
 1984POPC   C1B27535  29.613  18.010   8.713
 1984POPC   C2B27536  29.580  18.267   8.419
 1984POPC   C3B27537  29.475  18.457   8.078
 1984POPC   C4B27538  29.382  18.277   7.758
 1985POPC   NC327539  44.972  19.600   9.358
 1985POPC   PO427540   0.619  19.966   9.552
 1985POPC   GL127541   0.462  20.018   9.143
 1985POPC   GL227542   0.111  20.011   9.089
 1985POPC   C1A27543   0.458  19.804   8.740
 1985POPC   D2A27544   0.336  19.630   8.353
 1985POPC   C3A27545   0.583  19.827   8.055
 1985POPC   C4A27546   0.515  20.033   7.678
 1985POPC   C1B27547  44.946  19.951   8.674
 1985POPC   C2B27548  44.817  20.049   8.247
 1985POPC   C3B27549   0.067  19.865   7.883
 1985POPC   C4B27550   0.076  19.886   7.403
 1986POPC   NC327551   6.814  42.134   9.454
 1986POPC   PO427552   6.650  42.780   9.510
 1986POPC   GL127553   6.687  42.489   9.098
 1986POPC   GL227554   6.436  42.205   9.050
 1986POPC   C1A27555   6.876  42.090   8.814
 1986POPC   D2A27556   6.645  41.850   8.457
 1986POPC   C3A27557   6.554  42.068   8.041
 1986POPC   C4A27558   6.771  42.141   7.607
 1986POPC   C1B27559   6.538  42.409   8.603
 1986POPC   C2B27560   6.635  42.702   8.251
 1986POPC   C3B27561   6.579  42.551   7.829
 1986POPC   C4B27562   6.596  42.633   7.377
 1987POPC   NC327563  43.158  36.467   9.633
 1987POPC   PO427564  43.276  35.799   9.464
 1987POPC   GL127565  43.266  36.181   9.218
 1987POPC   GL227566  42.940  36.131   9.156
 1987POPC   C1A27567  43.246  36.308   8.776
 1987POPC   D2A27568  43.321  36.071   8.398
 1987POPC   C3A27569  43.171  36.179   7.992
 1987POPC   C4A27570  43.161  36.012   7.581
 1987POPC   C1B27571  42.734  36.237   8.775
 1987POPC   C2B27572  42.789  36.325   8.315
 1987POPC   C3B27573  42.671  36.224   7.871
 1987POPC   C4B27574  42.708  36.147   7.403
 1988POPC   NC327575  26.418  37.408   9.610
 1988POPC   PO427576  25.897  37.006   9.384
 1988POPC   GL127577  26.029  36.964   9.006
 1988POPC   GL227578  26.310  37.226   9.038
 1988POPC   C1A27579  25.826  36.872   8.605
 1988POPC   D2A27580  26.040  36.884   8.185
 1988POPC   C3A27581  25.836  36.883   7.811
 1988POPC   C4A27582  25.838  36.787   7.403
 1988POPC   C1B27583  26.337  37.030   8.617
 1988POPC   C2B27584  26.547  36.783   8.290
 1988POPC   C3B27585  26.465  36.768   7.866
 1988POPC   C4B27586  26.329  36.830   7.451
 1989POPC   NC327587  32.169   8.528   9.410
 1989POPC   PO427588  32.426   9.150   9.478
 1989POPC   GL127589  32.231   8.967   9.133
 1989POPC   GL227590  31.918   9.121   9.038
 1989POPC   C1A27591  32.154   8.812   8.716
 1989POPC   D2A27592  31.990   8.830   8.322
 1989POPC   C3A27593  32.249   8.839   8.003
 1989POPC   C4A27594  32.526   8.857   7.696
 1989POPC   C1B27595  31.920   9.333   8.659
 1989POPC   C2B27596  31.916   9.345   8.211
 1989POPC   C3B27597  31.806   9.051   7.859
 1989POPC   C4B27598  31.714   9.082   7.397
 1990POPC   NC327599   7.641   0.970   9.795
 1990POPC   PO427600   7.026   1.163   9.647
 1990POPC   GL127601   7.364   1.201   9.325
 1990POPC   GL227602   7.450   0.880   9.192
 1990POPC   C1A27603   7.340   1.243   8.851
 1990POPC   D2A27604   7.109   1.040   8.515
 1990POPC   C3A27605   7.266   1.133   8.098
 1990POPC   C4A27606   7.369   1.466   7.794
 1990POPC   C1B27607   7.635   0.823   8.782
 1990POPC   C2B27608   7.640   1.030   8.448
 1990POPC   C3B27609   7.727   0.884   8.065
 1990POPC   C4B27610   7.577   1.001   7.705
 1991POPC   NC327611  18.521   8.042   9.485
 1991POPC   PO427612  17.879   7.906   9.444
 1991POPC   GL127613  18.131   8.177   9.142
 1991POPC   GL227614  18.515   8.242   9.039
 1991POPC   C1A27615  18.144   8.040   8.708
 1991POPC   D2A27616  18.201   8.285   8.351
 1991POPC   C3A27617  17.991   8.213   8.005
 1991POPC   C4A27618  18.347   8.068   7.849
 1991POPC   C1B27619  18.319   8.524   8.776
 1991POPC   C2B27620  18.406   8.788   8.464
 1991POPC   C3B27621  18.267   8.722   8.090
 1991POPC   C4B27622  18.368   8.559   7.752
 1992POPC   NC327623  18.190  32.538   9.415
 1992POPC   PO427624  18.566  32.043   9.540
 1992POPC   GL127625  18.356  31.981   9.159
 1992POPC   GL227626  17.996  32.054   9.230
 1992POPC   C1A27627  18.331  32.302   8.817
 1992POPC   D2A27628  18.438  32.586   8.490
 1992POPC   C3A27629  18.122  32.525   8.162
 1992POPC   C4A27630  18.115  32.299   7.769
 1992POPC   C1B27631  17.979  31.945   8.798
 1992POPC   C2B27632  18.203  32.029   8.388
 1992POPC   C3B27633  18.340  31.889   7.985
 1992POPC   C4B27634  18.184  31.782   7.589
 1993POPC   NC327635  16.977  41.498   9.707
 1993POPC   PO427636  16.346  41.440   9.536
 1993POPC   GL127637  16.583  41.658   9.222
 1993POPC   GL227638  16.857  41.481   9.204
 1993POPC   C1A27639  16.741  41.750   8.779
 1993POPC   D2A27640  16.940  41.816   8.374
 1993POPC   C3A27641  16.684  41.738   8.005
 1993POPC   C4A27642  16.712  41.874   7.590
 1993POPC   C1B27643  16.874  41.246   8.820
 1993POPC   C2B27644  17.108  41.333   8.439
 1993POPC   C3B27645  17.042  41.322   7.995
 1993POPC   C4B27646  16.690  41.095   7.796
 1994POPC   NC327647  44.759  15.155   9.621
 1994POPC   PO427648  44.287  15.635   9.731
 1994POPC   GL127649  44.388  15.256   9.303
 1994POPC   GL227650  44.745  15.175   9.129
 1994POPC   C1A27651  44.365  15.143   8.813
 1994POPC   D2A27652  44.638  15.136   8.446
 1994POPC   C3A27653  44.500  15.089   8.026
 1994POPC   C4A27654  44.502  15.159   7.584
 1994POPC   C1B27655   0.082  15.171   8.834
 1994POPC   C2B27656   0.149  15.362   8.449
 1994POPC   C3B27657   0.002  15.209   8.092
 1994POPC   C4B27658  44.895  14.865   7.831
 1995POPC   NC327659  14.763  21.179   9.527
 1995POPC   PO427660  13.997  21.188   9.586
 1995POPC   GL127661  14.254  21.447   9.282
 1995POPC   GL227662  14.564  21.407   9.143
 1995POPC   C1A27663  14.193  21.454   8.819
 1995POPC   D2A27664  14.385  21.356   8.431
 1995POPC   C3A27665  14.181  21.489   8.074
 1995POPC   C4A27666  14.215  21.351   7.659
 1995POPC   C1B27667  14.808  21.471   8.792
 1995POPC   C2B27668  14.894  21.204   8.477
 1995POPC   C3B27669  14.777  21.230   8.081
 1995POPC   C4B27670  14.712  21.195   7.645
 1996POPC   NC327671  21.970  10.422   9.531
 1996POPC   PO427672  22.539  10.153   9.604
 1996POPC   GL127673  22.320  10.267   9.202
 1996POPC   GL227674  22.243  10.630   9.133
 1996POPC   C1A27675  22.074  10.297   8.804
 1996POPC   D2A27676  22.262  10.401   8.425
 1996POPC   C3A27677  22.099  10.265   8.038
 1996POPC   C4A27678  22.320  10.077   7.695
 1996POPC   C1B27679  22.091  10.825   8.751
 1996POPC   C2B27680  22.161  10.901   8.315
 1996POPC   C3B27681  22.392  10.696   7.991
 1996POPC   C4B27682  22.248  10.574   7.589
 1997POPC   NC327683  29.638   0.979  10.104
 1997POPC   PO427684  29.925   1.091   9.489
 1997POPC   GL127685  29.991   1.253   9.089
 1997POPC   GL227686  29.975   1.596   9.215
 1997POPC   C1A27687  30.054   1.278   8.620
 1997POPC   D2A27688  29.906   1.089   8.257
 1997POPC   C3A27689  30.150   1.088   7.880
 1997POPC   C4A27690  30.027   0.918   7.489
 1997POPC   C1B27691  29.692   1.568   8.830
 1997POPC   C2B27692  29.534   1.586   8.423
 1997POPC   C3B27693  29.835   1.579   8.098
 1997POPC   C4B27694  29.918   1.498   7.687
 1998POPC   NC327695  39.773  10.515   9.507
 1998POPC   PO427696  40.395  10.369   9.414
 1998POPC   GL127697  40.125  10.560   9.107
 1998POPC   GL227698  39.820  10.432   9.006
 1998POPC   C1A27699  40.163  10.612   8.664
 1998POPC   D2A27700  39.959  10.411   8.293
 1998POPC   C3A27701  40.055  10.598   7.867
 1998POPC   C4A27702  40.080  10.434   7.454
 1998POPC   C1B27703  39.679  10.761   8.661
 1998POPC   C2B27704  39.606  10.744   8.188
 1998POPC   C3B27705  39.574  10.402   7.849
 1998POPC   C4B27706  39.573  10.505   7.393
 1999POPC   NC327707   8.464  42.229   9.578
 1999POPC   PO427708   7.860  42.330   9.644
 1999POPC   GL127709   8.056  42.344   9.233
 1999POPC   GL227710   8.330  42.143   9.107
 1999POPC   C1A27711   7.966  42.349   8.796
 1999POPC   D2A27712   8.155  42.220   8.440
 1999POPC   C3A27713   7.917  42.256   8.125
 1999POPC   C4A27714   7.998  42.395   7.772
 1999POPC   C1B27715   8.477  42.453   8.826
 1999POPC   C2B27716   8.516  42.596   8.405
 1999POPC   C3B27717   8.433  42.389   8.029
 1999POPC   C4B27718   8.638  42.338   7.633
 2000POPC   NC327719  37.959  33.374   9.607
 2000POPC   PO427720  37.604  32.749   9.550
 2000POPC   GL127721  37.630  33.027   9.231
 2000POPC   GL227722  37.981  33.093   9.174
 2000POPC   C1A27723  37.467  32.939   8.842
 2000POPC   D2A27724  37.630  33.061   8.450
 2000POPC   C3A27725  37.517  32.811   8.136
 2000POPC   C4A27726  37.424  32.914   7.769
 2000POPC   C1B27727  37.986  32.904   8.769
 2000POPC   C2B27728  38.028  32.695   8.340
 2000POPC   C3B27729  37.938  32.690   7.894
 2000POPC   C4B27730  37.848  32.670   7.423
 2001POPC   NC327731   3.188  42.320   9.546
 2001POPC   PO427732   2.591  42.548   9.577
 2001POPC   GL127733   2.622  42.406   9.153
 2001POPC   GL227734   2.959  42.272   9.106
 2001POPC   C1A27735   2.543  42.365   8.703
 2001POPC   D2A27736   2.746  42.284   8.303
 2001POPC   C3A27737   2.533  42.432   7.936
 2001POPC   C4A27738   2.125  42.242   7.812
 2001POPC   C1B27739   3.190  42.477   8.779
 2001POPC   C2B27740   3.190  42.563   8.352
 2001POPC   C3B27741   3.216  42.477   7.933
 2001POPC   C4B27742   2.969  42.317   7.589
 2002POPC   NC327743  19.429  17.709   9.482
 2002POPC   PO427744  18.819  17.692   9.429
 2002POPC   GL127745  19.089  17.516   9.099
 2002POPC   GL227746  19.444  17.423   9.041
 2002POPC   C1A27747  19.128  17.579   8.652
 2002POPC   D2A27748  18.893  17.413   8.261
 2002POPC   C3A27749  19.083  17.621   7.904
 2002POPC   C4A27750  19.048  17.604   7.455
 2002POPC   C1B27751  19.191  17.106   8.808
 2002POPC   C2B27752  19.323  17.184   8.396
 2002POPC   C3B27753  19.300  17.173   7.993
 2002POPC   C4B27754  19.433  17.307   7.615
 2003POPC   NC327755  18.649  27.753   9.525
 2003POPC   PO427756  18.017  27.846   9.506
 2003POPC   GL127757  18.215  27.553   9.257
 2003POPC   GL227758  18.369  27.841   9.122
 2003POPC   C1A27759  18.399  27.398   8.873
 2003POPC   D2A27760  18.267  27.436   8.456
 2003POPC   C3A27761  18.532  27.432   8.113
 2003POPC   C4A27762  18.532  27.330   7.674
 2003POPC   C1B27763  18.225  27.884   8.762
 2003POPC   C2B27764  18.458  27.909   8.415
 2003POPC   C3B27765  18.238  27.843   8.077
 2003POPC   C4B27766  18.339  27.806   7.680
 2004POPC   NC327767  23.304  35.739   9.472
 2004POPC   PO427768  23.873  35.987   9.651
 2004POPC   GL127769  23.625  36.136   9.249
 2004POPC   GL227770  23.511  35.889   9.031
 2004POPC   C1A27771  23.606  36.322   8.776
 2004POPC   D2A27772  23.806  36.283   8.352
 2004POPC   C3A27773  23.627  36.192   7.941
 2004POPC   C4A27774  23.431  36.382   7.588
 2004POPC   C1B27775  23.772  35.841   8.691
 2004POPC   C2B27776  23.911  35.775   8.294
 2004POPC   C3B27777  23.938  35.755   7.867
 2004POPC   C4B27778  23.826  35.653   7.440
 2005POPC   NC327779   6.474   3.915   9.630
 2005POPC   PO427780   6.752   3.291   9.602
 2005POPC   GL127781   6.753   3.599   9.315
 2005POPC   GL227782   7.042   3.532   9.134
 2005POPC   C1A27783   6.585   3.681   8.924
 2005POPC   D2A27784   6.380   3.913   8.604
 2005POPC   C3A27785   6.336   3.796   8.158
 2005POPC   C4A27786   6.238   3.736   7.694
 2005POPC   C1B27787   7.015   3.421   8.736
 2005POPC   C2B27788   6.734   3.586   8.425
 2005POPC   C3B27789   6.815   3.679   8.006
 2005POPC   C4B27790   6.903   3.464   7.634
 2006POPC   NC327791  21.274  10.706   9.510
 2006POPC   PO427792  21.591  10.101   9.593
 2006POPC   GL127793  21.512  10.313   9.214
 2006POPC   GL227794  21.170  10.414   9.125
 2006POPC   C1A27795  21.592  10.528   8.828
 2006POPC   D2A27796  21.648  10.768   8.467
 2006POPC   C3A27797  21.535  10.552   8.100
 2006POPC   C4A27798  21.758  10.468   7.714
 2006POPC   C1B27799  21.145  10.807   8.877
 2006POPC   C2B27800  21.046  10.941   8.452
 2006POPC   C3B27801  20.930  10.982   8.010
 2006POPC   C4B27802  21.269  10.796   7.742
 2007POPC   NC327803   7.946  35.101   9.287
 2007POPC   PO427804   8.545  35.147   9.560
 2007POPC   GL127805   8.406  35.346   9.188
 2007POPC   GL227806   8.149  35.579   9.180
 2007POPC   C1A27807   8.277  35.310   8.757
 2007POPC   D2A27808   7.917  35.296   8.476
 2007POPC   C3A27809   8.105  35.249   8.076
 2007POPC   C4A27810   8.159  34.978   7.727
 2007POPC   C1B27811   8.089  35.798   8.813
 2007POPC   C2B27812   8.221  35.732   8.403
 2007POPC   C3B27813   7.905  35.736   8.112
 2007POPC   C4B27814   7.793  35.524   7.742
 2008POPC   NC327815  35.387  24.836   9.699
 2008POPC   PO427816  35.589  24.252   9.470
 2008POPC   GL127817  35.279  24.405   9.165
 2008POPC   GL227818  35.269  24.781   9.186
 2008POPC   C1A27819  35.278  24.220   8.734
 2008POPC   D2A27820  35.415  24.395   8.353
 2008POPC   C3A27821  35.251  24.267   7.987
 2008POPC   C4A27822  35.251  24.460   7.572
 2008POPC   C1B27823  35.288  24.735   8.753
 2008POPC   C2B27824  35.049  24.731   8.392
 2008POPC   C3B27825  35.210  24.801   7.982
 2008POPC   C4B27826  35.021  24.933   7.609
 2009POPC   NC327827  36.083  30.258   9.607
 2009POPC   PO427828  36.401  29.614   9.658
 2009POPC   GL127829  36.287  29.884   9.281
 2009POPC   GL227830  36.000  30.061   9.149
 2009POPC   C1A27831  36.294  29.795   8.823
 2009POPC   D2A27832  36.132  29.601   8.461
 2009POPC   C3A27833  36.237  29.773   8.096
 2009POPC   C4A27834  36.104  29.667   7.702
 2009POPC   C1B27835  35.801  29.973   8.789
 2009POPC   C2B27836  35.910  30.078   8.396
 2009POPC   C3B27837  35.858  30.088   7.986
 2009POPC   C4B27838  36.156  30.180   7.690
 2010POPC   NC327839   3.298  25.143   9.853
 2010POPC   PO427840   3.812  25.429   9.528
 2010POPC   GL127841   3.712  25.333   9.131
 2010POPC   GL227842   3.365  25.443   9.217
 2010POPC   C1A27843   3.818  25.511   8.724
 2010POPC   D2A27844   3.981  25.346   8.309
 2010POPC   C3A27845   3.705  25.440   7.948
 2010POPC   C4A27846   3.453  25.123   7.741
 2010POPC   C1B27847   3.321  25.325   8.801
 2010POPC   C2B27848   3.443  25.355   8.395
 2010POPC   C3B27849   3.181  25.371   8.071
 2010POPC   C4B27850   3.122  25.511   7.677
 2011POPC   NC327851   3.279  37.741   9.367
 2011POPC   PO427852   3.795  37.392   9.655
 2011POPC   GL127853   3.810  37.584   9.236
 2011POPC   GL227854   3.842  37.922   9.101
 2011POPC   C1A27855   3.787  37.461   8.797
 2011POPC   D2A27856   3.597  37.228   8.464
 2011POPC   C3A27857   3.531  37.500   8.137
 2011POPC   C4A27858   3.692  37.565   7.759
 2011POPC   C1B27859   3.525  37.898   8.770
 2011POPC   C2B27860   3.751  37.852   8.404
 2011POPC   C3B27861   3.741  38.019   7.993
 2011POPC   C4B27862   3.437  38.251   7.778
 2012POPC   NC327863  20.744  28.314   9.471
 2012POPC   PO427864  20.033  28.069   9.537
 2012POPC   GL127865  20.353  28.122   9.189
 2012POPC   GL227866  20.115  28.288   9.005
 2012POPC   C1A27867  20.598  28.259   8.782
 2012POPC   D2A27868  20.634  28.543   8.390
 2012POPC   C3A27869  20.756  28.341   7.991
 2012POPC   C4A27870  21.124  28.418   7.763
 2012POPC   C1B27871  20.142  28.038   8.695
 2012POPC   C2B27872  20.335  28.144   8.332
 2012POPC   C3B27873  20.245  28.371   7.960
 2012POPC   C4B27874  20.270  28.214   7.533
 2013POPC   NC327875  16.741  14.350   9.742
 2013POPC   PO427876  17.339  14.581   9.659
 2013POPC   GL127877  17.064  14.489   9.274
 2013POPC   GL227878  16.710  14.585   9.276
 2013POPC   C1A27879  17.020  14.211   8.902
 2013POPC   D2A27880  16.740  14.066   8.551
 2013POPC   C3A27881  16.884  14.057   8.122
 2013POPC   C4A27882  16.730  14.325   7.799
 2013POPC   C1B27883  16.520  14.390   8.916
 2013POPC   C2B27884  16.434  14.507   8.472
 2013POPC   C3B27885  16.627  14.741   8.129
 2013POPC   C4B27886  16.868  14.821   7.752
 2014POPC   NC327887  21.208  43.725   9.821
 2014POPC   PO427888  21.605  44.229   9.643
 2014POPC   GL127889  21.495  44.028   9.261
 2014POPC   GL227890  21.454  43.680   9.339
 2014POPC   C1A27891  21.223  43.941   8.907
 2014POPC   D2A27892  21.331  43.864   8.470
 2014POPC   C3A27893  21.185  44.105   8.135
 2014POPC   C4A27894  21.282  43.990   7.724
 2014POPC   C1B27895  21.529  43.504   8.924
 2014POPC   C2B27896  21.636  43.445   8.467
 2014POPC   C3B27897  21.407  43.517   8.052
 2014POPC   C4B27898  21.614  43.601   7.657
 2015POPC   NC327899  21.905  43.834   9.581
 2015POPC   PO427900  22.494  44.177   9.413
 2015POPC   GL127901  22.294  43.842   9.156
 2015POPC   GL227902  21.933  43.796   9.096
 2015POPC   C1A27903  22.292  43.897   8.713
 2015POPC   D2A27904  22.445  43.863   8.290
 2015POPC   C3A27905  22.250  43.850   7.879
 2015POPC   C4A27906  22.481  43.691   7.512
 2015POPC   C1B27907  21.750  43.924   8.756
 2015POPC   C2B27908  21.916  43.881   8.375
 2015POPC   C3B27909  21.727  43.917   8.035
 2015POPC   C4B27910  21.827  44.069   7.663
 2016POPC   NC327911  39.639  43.340   9.557
 2016POPC   PO427912  39.464  42.743   9.264
 2016POPC   GL127913  39.266  42.966   8.997
 2016POPC   GL227914  39.092  43.244   9.124
 2016POPC   C1A27915  39.198  42.916   8.580
 2016POPC   D2A27916  39.213  42.657   8.232
 2016POPC   C3A27917  39.249  42.896   7.865
 2016POPC   C4A27918  39.007  42.878   7.483
 2016POPC   C1B27919  39.241  43.419   8.744
 2016POPC   C2B27920  39.350  43.336   8.316
 2016POPC   C3B27921  39.124  43.370   7.955
 2016POPC   C4B27922  39.293  43.301   7.551
 2017POPC   NC327923  20.538  29.214   9.521
 2017POPC   PO427924  20.475  28.640   9.255
 2017POPC   GL127925  20.590  29.049   9.028
 2017POPC   GL227926  20.906  29.194   9.157
 2017POPC   C1A27927  20.613  29.304   8.631
 2017POPC   D2A27928  20.481  29.534   8.245
 2017POPC   C3A27929  20.225  29.239   8.004
 2017POPC   C4A27930  20.453  28.841   7.942
 2017POPC   C1B27931  21.051  29.459   8.835
 2017POPC   C2B27932  21.052  29.455   8.375
 2017POPC   C3B27933  20.841  29.205   8.024
 2017POPC   C4B27934  20.936  28.909   7.683
 2018POPC   NC327935  37.240   7.388   9.571
 2018POPC   PO427936  37.951   7.236   9.593
 2018POPC   GL127937  37.813   7.398   9.124
 2018POPC   GL227938  37.495   7.407   9.132
 2018POPC   C1A27939  37.740   7.480   8.664
 2018POPC   D2A27940  37.906   7.664   8.318
 2018POPC   C3A27941  37.808   7.542   7.918
 2018POPC   C4A27942  37.650   7.623   7.512
 2018POPC   C1B27943  37.387   7.148   8.812
 2018POPC   C2B27944  37.491   7.023   8.422
 2018POPC   C3B27945  37.463   7.173   8.025
 2018POPC   C4B27946  37.456   6.939   7.666
 2019POPC   NC327947   3.418  24.340  10.048
 2019POPC   PO427948   3.846  24.446   9.572
 2019POPC   GL127949   3.892  24.525   9.099
 2019POPC   GL227950   3.961  24.870   9.035
 2019POPC   C1A27951   3.745  24.523   8.621
 2019POPC   D2A27952   3.769  24.360   8.186
 2019POPC   C3A27953   3.407  24.214   7.913
 2019POPC   C4A27954   3.370  23.860   7.598
 2019POPC   C1B27955   3.756  25.021   8.649
 2019POPC   C2B27956   3.638  24.926   8.189
 2019POPC   C3B27957   3.655  24.677   7.792
 2019POPC   C4B27958   3.320  24.771   7.409
 2020POPC   NC327959  37.833   1.667   9.580
 2020POPC   PO427960  37.730   2.347   9.682
 2020POPC   GL127961  37.680   2.105   9.286
 2020POPC   GL227962  37.450   1.824   9.295
 2020POPC   C1A27963  37.870   2.211   8.871
 2020POPC   D2A27964  38.053   2.199   8.469
 2020POPC   C3A27965  37.816   2.324   8.134
 2020POPC   C4A27966  37.681   2.195   7.736
 2020POPC   C1B27967  37.662   1.755   8.887
 2020POPC   C2B27968  37.585   1.969   8.502
 2020POPC   C3B27969  37.473   1.914   8.110
 2020POPC   C4B27970  37.563   1.683   7.779
 2021POPC   NC327971  17.104  35.112   9.262
 2021POPC   PO427972  17.438  34.604   9.585
 2021POPC   GL127973  17.521  34.568   9.172
 2021POPC   GL227974  17.214  34.635   9.102
 2021POPC   C1A27975  17.596  34.854   8.812
 2021POPC   D2A27976  17.622  35.139   8.439
 2021POPC   C3A27977  17.736  34.900   8.083
 2021POPC   C4A27978  18.097  34.875   7.805
 2021POPC   C1B27979  17.265  34.409   8.711
 2021POPC   C2B27980  17.177  34.389   8.267
 2021POPC   C3B27981  17.397  34.509   7.872
 2021POPC   C4B27982  17.421  34.440   7.404
 2022POPC   NC327983  15.050   6.916   9.475
 2022POPC   PO427984  15.001   6.249   9.536
 2022POPC   GL127985  15.115   6.491   9.202
 2022POPC   GL227986  14.772   6.595   9.203
 2022POPC   C1A27987  15.332   6.557   8.804
 2022POPC   D2A27988  15.383   6.250   8.476
 2022POPC   C3A27989  15.313   6.464   8.106
 2022POPC   C4A27990  15.200   6.640   7.713
 2022POPC   C1B27991  14.814   6.670   8.802
 2022POPC   C2B27992  14.901   6.494   8.423
 2022POPC   C3B27993  14.888   6.759   8.084
 2022POPC   C4B27994  14.724   7.107   7.876
 2023POPC   NC327995   4.733  28.745   9.172
 2023POPC   PO427996   5.163  29.055   9.566
 2023POPC   GL127997   5.030  29.213   9.160
 2023POPC   GL227998   4.756  29.313   9.059
 2023POPC   C1A27999   5.106  29.082   8.695
 2023POPC   D2A28000   5.369  29.057   8.291
 2023POPC   C3A28001   5.217  29.279   7.924
 2023POPC   C4A28002   5.042  29.156   7.537
 2023POPC   C1B28003   4.849  29.542   8.670
 2023POPC   C2B28004   4.847  29.290   8.299
 2023POPC   C3B28005   4.685  29.158   7.909
 2023POPC   C4B28006   4.594  29.366   7.534
 2024POPC   NC328007   0.843  25.448   9.755
 2024POPC   PO428008   0.211  25.271   9.547
 2024POPC   GL128009   0.425  25.053   9.204
 2024POPC   GL228010   0.472  25.392   9.100
 2024POPC   C1A28011   0.614  25.032   8.768
 2024POPC   D2A28012   0.584  25.274   8.384
 2024POPC   C3A28013   0.700  25.113   8.002
 2024POPC   C4A28014   0.492  25.104   7.668
 2024POPC   C1B28015   0.555  25.637   8.749
 2024POPC   C2B28016   0.659  25.785   8.355
 2024POPC   C3B28017   0.537  25.614   7.978
 2024POPC   C4B28018   0.797  25.554   7.663
 2025POPC   NC328019  15.530   2.146   9.728
 2025POPC   PO428020  16.141   2.318   9.516
 2025POPC   GL128021  15.919   1.940   9.353
 2025POPC   GL228022  16.152   2.056   9.080
 2025POPC   C1A28023  15.805   1.744   8.942
 2025POPC   D2A28024  15.714   2.017   8.587
 2025POPC   C3A28025  15.815   1.942   8.162
 2025POPC   C4A28026  15.904   1.604   7.911
 2025POPC   C1B28027  16.246   1.968   8.671
 2025POPC   C2B28028  16.251   2.190   8.285
 2025POPC   C3B28029  16.425   2.261   7.894
 2025POPC   C4B28030  16.176   1.973   7.681
 2026POPC   NC328031  17.401   4.704   9.444
 2026POPC   PO428032  17.318   5.424   9.444
 2026POPC   GL128033  17.503   5.185   9.140
 2026POPC   GL228034  17.651   4.885   9.041
 2026POPC   C1A28035  17.280   5.171   8.768
 2026POPC   D2A28036  17.452   5.191   8.386
 2026POPC   C3A28037  17.305   5.364   8.052
 2026POPC   C4A28038  17.269   5.001   7.829
 2026POPC   C1B28039  17.837   5.060   8.685
 2026POPC   C2B28040  17.815   4.836   8.290
 2026POPC   C3B28041  18.013   4.835   7.914
 2026POPC   C4B28042  17.751   5.021   7.596
 2027POPC   NC328043  10.346  40.203   9.570
 2027POPC   PO428044  10.992  39.985   9.498
 2027POPC   GL128045  10.651  40.086   9.177
 2027POPC   GL228046  10.363  39.855   9.136
 2027POPC   C1A28047  10.587  40.109   8.739
 2027POPC   D2A28048  10.428  39.851   8.422
 2027POPC   C3A28049  10.663  39.943   8.088
 2027POPC   C4A28050  10.483  40.170   7.757
 2027POPC   C1B28051  10.105  39.639   8.799
 2027POPC   C2B28052   9.948  39.674   8.342
 2027POPC   C3B28053  10.149  39.822   7.945
 2027POPC   C4B28054  10.128  39.744   7.475
 2028POPC   NC328055  24.894  21.940   9.490
 2028POPC   PO428056  25.534  22.129   9.410
 2028POPC   GL128057  25.246  22.234   9.097
 2028POPC   GL228058  24.904  22.343   9.167
 2028POPC   C1A28059  25.118  21.948   8.780
 2028POPC   D2A28060  25.296  21.791   8.363
 2028POPC   C3A28061  25.257  21.983   7.965
 2028POPC   C4A28062  25.500  22.311   7.788
 2028POPC   C1B28063  24.944  22.550   8.819
 2028POPC   C2B28064  25.120  22.365   8.460
 2028POPC   C3B28065  24.945  22.413   8.044
 2028POPC   C4B28066  24.853  22.198   7.680
 2029POPC   NC328067  32.356  40.042   9.655
 2029POPC   PO428068  31.880  39.671   9.454
 2029POPC   GL128069  32.177  39.773   9.116
 2029POPC   GL228070  32.260  40.107   9.096
 2029POPC   C1A28071  32.302  39.809   8.672
 2029POPC   D2A28072  32.143  40.145   8.430
 2029POPC   C3A28073  32.123  40.031   7.996
 2029POPC   C4A28074  31.843  40.241   7.717
 2029POPC   C1B28075  32.604  40.199   8.771
 2029POPC   C2B28076  32.679  40.003   8.329
 2029POPC   C3B28077  32.656  40.195   7.906
 2029POPC   C4B28078  32.382  40.211   7.546
 2030POPC   NC328079   1.466  25.643   9.370
 2030POPC   PO428080   0.940  25.940   9.692
 2030POPC   GL128081   1.024  26.108   9.224
 2030POPC   GL228082   1.313  26.267   9.112
 2030POPC   C1A28083   0.921  26.043   8.757
 2030POPC   D2A28084   1.095  26.139   8.327
 2030POPC   C3A28085   1.057  25.924   7.927
 2030POPC   C4A28086   1.235  25.786   7.498
 2030POPC   C1B28087   1.448  25.970   8.742
 2030POPC   C2B28088   1.580  25.827   8.276
 2030POPC   C3B28089   1.577  26.024   7.837
 2030POPC   C4B28090   1.698  26.349   7.484
 2031POPC   NC328091  30.916  35.422   9.408
 2031POPC   PO428092  30.524  35.023   9.538
 2031POPC   GL128093  30.358  35.161   9.133
 2031POPC   GL228094  30.103  35.440   9.108
 2031POPC   C1A28095  30.627  35.172   8.772
 2031POPC   D2A28096  30.955  34.997   8.529
 2031POPC   C3A28097  30.767  34.972   8.121
 2031POPC   C4A28098  30.940  35.148   7.756
 2031POPC   C1B28099  30.158  35.362   8.673
 2031POPC   C2B28100  30.444  35.420   8.329
 2031POPC   C3B28101  30.554  35.666   7.942
 2031POPC   C4B28102  30.359  35.597   7.482
 2032POPC   NC328103  22.375  21.720   9.502
 2032POPC   PO428104  21.830  21.372   9.647
 2032POPC   GL128105  22.009  21.322   9.238
 2032POPC   GL228106  22.396  21.343   9.132
 2032POPC   C1A28107  21.939  21.529   8.841
 2032POPC   D2A28108  22.210  21.479   8.500
 2032POPC   C3A28109  22.147  21.377   8.087
 2032POPC   C4A28110  22.155  21.598   7.693
 2032POPC   C1B28111  22.639  21.276   8.712
 2032POPC   C2B28112  22.642  21.265   8.224
 2032POPC   C3B28113  22.546  21.262   7.760
 2032POPC   C4B28114  22.369  21.179   7.364
 2033POPC   NC328115  42.483  36.811   9.462
 2033POPC   PO428116  42.135  37.285   9.555
 2033POPC   GL128117  42.114  37.144   9.170
 2033POPC   GL228118  42.441  37.218   9.125
 2033POPC   C1A28119  42.177  36.887   8.803
 2033POPC   D2A28120  42.417  36.580   8.581
 2033POPC   C3A28121  42.335  36.536   8.125
 2033POPC   C4A28122  42.286  36.833   7.776
 2033POPC   C1B28123  42.620  37.237   8.723
 2033POPC   C2B28124  42.815  37.388   8.337
 2033POPC   C3B28125  42.595  37.239   7.965
 2033POPC   C4B28126  42.701  37.079   7.577
 2034POPC   NC328127  40.895  38.967   9.476
 2034POPC   PO428128  40.927  39.612   9.502
 2034POPC   GL128129  40.668  39.350   9.206
 2034POPC   GL228130  40.453  39.098   9.258
 2034POPC   C1A28131  40.873  39.159   8.845
 2034POPC   D2A28132  41.151  39.262   8.502
 2034POPC   C3A28133  40.940  39.270   8.128
 2034POPC   C4A28134  40.726  39.269   7.727
 2034POPC   C1B28135  40.378  39.012   8.829
 2034POPC   C2B28136  40.371  39.119   8.403
 2034POPC   C3B28137  40.300  39.103   7.959
 2034POPC   C4B28138  40.295  39.574   7.865
 2035POPC   NC328139  34.157  41.837   9.557
 2035POPC   PO428140  33.668  41.361   9.527
 2035POPC   GL128141  33.770  41.271   9.111
 2035POPC   GL228142  34.088  41.056   9.117
 2035POPC   C1A28143  33.691  41.539   8.702
 2035POPC   D2A28144  33.569  41.643   8.255
 2035POPC   C3A28145  33.893  41.665   7.919
 2035POPC   C4A28146  33.803  41.839   7.499
 2035POPC   C1B28147  34.107  41.249   8.737
 2035POPC   C2B28148  34.013  41.336   8.328
 2035POPC   C3B28149  33.878  41.136   7.977
 2035POPC   C4B28150  33.782  41.294   7.555
 2036POPC   NC328151  36.386  19.039   9.553
 2036POPC   PO428152  35.753  19.045   9.557
 2036POPC   GL128153  36.047  19.059   9.155
 2036POPC   GL228154  36.281  18.780   9.137
 2036POPC   C1A28155  36.354  19.205   8.803
 2036POPC   D2A28156  36.400  19.455   8.397
 2036POPC   C3A28157  36.188  19.337   8.011
 2036POPC   C4A28158  36.265  19.127   7.629
 2036POPC   C1B28159  36.145  18.729   8.734
 2036POPC   C2B28160  36.202  18.944   8.360
 2036POPC   C3B28161  36.027  18.848   7.976
 2036POPC   C4B28162  35.822  18.467   7.866
 2037POPC   NC328163   4.790  21.538   9.573
 2037POPC   PO428164   4.364  21.001   9.531
 2037POPC   GL128165   4.446  21.276   9.232
 2037POPC   GL228166   4.765  21.174   9.184
 2037POPC   C1A28167   4.275  21.318   8.813
 2037POPC   D2A28168   4.172  21.367   8.385
 2037POPC   C3A28169   4.491  21.502   8.118
 2037POPC   C4A28170   4.378  21.409   7.736
 2037POPC   C1B28171   4.591  20.933   8.875
 2037POPC   C2B28172   4.611  21.090   8.439
 2037POPC   C3B28173   4.513  20.996   8.003
 2037POPC   C4B28174   4.723  21.114   7.557
 2038POPC   NC328175  17.474   1.977   9.496
 2038POPC   PO428176  18.020   1.574   9.473
 2038POPC   GL128177  17.808   1.806   9.134
 2038POPC   GL228178  17.831   2.160   9.164
 2038POPC   C1A28179  17.443   1.891   8.880
 2038POPC   D2A28180  17.173   1.986   8.602
 2038POPC   C3A28181  17.225   2.005   8.165
 2038POPC   C4A28182  17.389   2.070   7.750
 2038POPC   C1B28183  17.936   2.142   8.743
 2038POPC   C2B28184  18.037   2.278   8.341
 2038POPC   C3B28185  17.838   2.213   7.975
 2038POPC   C4B28186  17.867   1.945   7.630
 2039POPC   NC328187   8.512  37.655   9.527
 2039POPC   PO428188   7.867  37.498   9.586
 2039POPC   GL128189   7.980  37.761   9.210
 2039POPC   GL228190   8.281  37.999   9.217
 2039POPC   C1A28191   8.205  37.703   8.808
 2039POPC   D2A28192   8.343  37.475   8.426
 2039POPC   C3A28193   8.233  37.661   8.049
 2039POPC   C4A28194   8.124  37.516   7.647
 2039POPC   C1B28195   8.538  38.109   8.815
 2039POPC   C2B28196   8.423  38.024   8.404
 2039POPC   C3B28197   8.604  38.002   8.001
 2039POPC   C4B28198   8.289  38.025   7.684
 2040POPC   NC328199   1.708  31.513   9.473
 2040POPC   PO428200   2.203  31.112   9.702
 2040POPC   GL128201   2.136  31.571   9.239
 2040POPC   GL228202   1.839  31.472   8.992
 2040POPC   C1A28203   2.260  31.665   8.806
 2040POPC   D2A28204   2.168  31.854   8.407
 2040POPC   C3A28205   2.091  31.590   8.036
 2040POPC   C4A28206   2.331  31.346   7.750
 2040POPC   C1B28207   1.681  31.616   8.609
 2040POPC   C2B28208   1.673  31.855   8.243
 2040POPC   C3B28209   1.867  32.029   7.873
 2040POPC   C4B28210   1.809  31.875   7.438
 2041POPC   NC328211  13.091  11.776   9.563
 2041POPC   PO428212  12.857  12.382   9.454
 2041POPC   GL128213  12.733  12.259   9.052
 2041POPC   GL228214  12.814  11.941   9.159
 2041POPC   C1A28215  12.719  12.180   8.590
 2041POPC   D2A28216  12.989  11.996   8.333
 2041POPC   C3A28217  12.946  12.226   8.017
 2041POPC   C4A28218  12.699  12.190   7.681
 2041POPC   C1B28219  12.836  11.732   8.808
 2041POPC   C2B28220  12.643  11.624   8.447
 2041POPC   C3B28221  12.789  11.585   8.041
 2041POPC   C4B28222  13.107  11.790   7.818
 2042POPC   NC328223  38.558  26.796   9.604
 2042POPC   PO428224  37.868  26.821   9.527
 2042POPC   GL128225  38.106  26.591   9.234
 2042POPC   GL228226  38.438  26.724   9.128
 2042POPC   C1A28227  38.212  26.410   8.823
 2042POPC   D2A28228  38.435  26.480   8.477
 2042POPC   C3A28229  38.353  26.718   8.149
 2042POPC   C4A28230  38.278  26.595   7.762
 2042POPC   C1B28231  38.685  26.810   8.768
 2042POPC   C2B28232  38.923  26.632   8.426
 2042POPC   C3B28233  38.831  26.615   7.988
 2042POPC   C4B28234  38.657  26.998   7.817
 2043POPC   NC328235  19.699  14.620   9.503
 2043POPC   PO428236  20.219  14.212   9.489
 2043POPC   GL128237  19.925  14.303   9.164
 2043POPC   GL228238  20.044  14.629   9.105
 2043POPC   C1A28239  19.666  14.468   8.813
 2043POPC   D2A28240  19.867  14.370   8.423
 2043POPC   C3A28241  19.653  14.462   8.021
 2043POPC   C4A28242  19.623  14.281   7.620
 2043POPC   C1B28243  19.994  14.898   8.761
 2043POPC   C2B28244  19.956  14.868   8.312
 2043POPC   C3B28245  20.148  14.541   8.035
 2043POPC   C4B28246  20.051  14.545   7.618
 2044POPC   NC328247  37.161  31.929   9.798
 2044POPC   PO428248  36.955  31.343   9.690
 2044POPC   GL128249  36.946  31.247   9.244
 2044POPC   GL228250  37.073  31.554   9.128
 2044POPC   C1A28251  36.749  31.312   8.807
 2044POPC   D2A28252  36.524  31.127   8.458
 2044POPC   C3A28253  36.655  31.285   8.088
 2044POPC   C4A28254  36.479  31.189   7.724
 2044POPC   C1B28255  37.271  31.398   8.709
 2044POPC   C2B28256  37.174  31.256   8.251
 2044POPC   C3B28257  37.155  31.511   7.861
 2044POPC   C4B28258  37.281  31.370   7.420
 2045POPC   NC328259  32.509   6.262   9.435
 2045POPC   PO428260  32.185   5.588   9.344
 2045POPC   GL128261  32.242   5.949   9.134
 2045POPC   GL228262  32.603   5.865   9.132
 2045POPC   C1A28263  32.403   6.115   8.747
 2045POPC   D2A28264  32.558   5.935   8.368
 2045POPC   C3A28265  32.266   5.952   8.030
 2045POPC   C4A28266  32.566   6.099   7.746
 2045POPC   C1B28267  32.622   5.584   8.754
 2045POPC   C2B28268  32.499   5.400   8.350
 2045POPC   C3B28269  32.628   5.606   7.971
 2045POPC   C4B28270  32.590   5.638   7.499
 2046POPC   NC328271   6.980  40.218   9.441
 2046POPC   PO428272   6.351  39.973   9.551
 2046POPC   GL128273   6.526  40.140   9.148
 2046POPC   GL228274   6.870  40.034   8.986
 2046POPC   C1A28275   6.445  40.046   8.700
 2046POPC   D2A28276   6.667  40.143   8.323
 2046POPC   C3A28277   6.534  40.046   7.953
 2046POPC   C4A28278   6.286  39.840   7.691
 2046POPC   C1B28279   6.830  40.419   8.712
 2046POPC   C2B28280   6.997  40.518   8.268
 2046POPC   C3B28281   6.847  40.453   7.817
 2046POPC   C4B28282   7.108  40.330   7.478
 2047POPC   NC328283  13.498   1.633   9.482
 2047POPC   PO428284  13.474   2.302   9.463
 2047POPC   GL128285  13.782   2.167   9.170
 2047POPC   GL228286  13.840   1.769   9.121
 2047POPC   C1A28287  13.760   2.090   8.742
 2047POPC   D2A28288  13.510   1.988   8.386
 2047POPC   C3A28289  13.665   2.208   8.015
 2047POPC   C4A28290  13.572   2.101   7.583
 2047POPC   C1B28291  13.986   1.627   8.705
 2047POPC   C2B28292  14.002   1.912   8.311
 2047POPC   C3B28293  13.981   1.844   7.875
 2047POPC   C4B28294  13.841   1.503   7.688
 2048POPC   NC328295   8.550   5.028   9.754
 2048POPC   PO428296   8.982   5.357   9.432
 2048POPC   GL128297   8.986   5.171   9.093
 2048POPC   GL228298   9.248   5.002   9.133
 2048POPC   C1A28299   8.785   5.184   8.730
 2048POPC   D2A28300   8.807   5.185   8.321
 2048POPC   C3A28301   8.589   4.951   8.010
 2048POPC   C4A28302   8.703   5.353   7.823
 2048POPC   C1B28303   9.146   4.789   8.763
 2048POPC   C2B28304   8.981   4.710   8.364
 2048POPC   C3B28305   9.092   4.926   7.975
 2048POPC   C4B28306   9.278   5.287   7.806
 2049POPC   NC328307  21.456  13.257   9.436
 2049POPC   PO428308  21.646  13.945   9.420
 2049POPC   GL128309  21.231  13.749   9.184
 2049POPC   GL228310  21.226  13.384   9.015
 2049POPC   C1A28311  20.989  13.711   8.742
 2049POPC   D2A28312  21.189  13.371   8.467
 2049POPC   C3A28313  21.264  13.480   8.040
 2049POPC   C4A28314  21.038  13.764   7.824
 2049POPC   C1B28315  21.635  13.520   8.819
 2049POPC   C2B28316  21.906  13.455   8.434
 2049POPC   C3B28317  21.771  13.458   8.015
 2049POPC   C4B28318  21.726  13.374   7.570
 2050POPC   NC328319  13.894  31.637   9.492
 2050POPC   PO428320  13.251  31.575   9.478
 2050POPC   GL128321  13.513  31.390   9.153
 2050POPC   GL228322  13.824  31.438   9.017
 2050POPC   C1A28323  13.404  31.333   8.726
 2050POPC   D2A28324  13.443  31.525   8.357
 2050POPC   C3A28325  13.298  31.390   7.990
 2050POPC   C4A28326  13.457  31.485   7.604
 2050POPC   C1B28327  14.001  31.550   8.627
 2050POPC   C2B28328  13.961  31.486   8.168
 2050POPC   C3B28329  13.971  31.360   7.726
 2050POPC   C4B28330  13.781  31.219   7.328
 2051POPC   NC328331  19.264   9.454   9.423
 2051POPC   PO428332  18.971  10.081   9.515
 2051POPC   GL128333  19.052   9.866   9.178
 2051POPC   GL228334  18.804   9.599   9.194
 2051POPC   C1A28335  19.170   9.959   8.775
 2051POPC   D2A28336  18.953  10.041   8.408
 2051POPC   C3A28337  19.186   9.956   8.061
 2051POPC   C4A28338  19.064   9.941   7.655
 2051POPC   C1B28339  19.027   9.468   8.809
 2051POPC   C2B28340  19.102   9.539   8.378
 2051POPC   C3B28341  18.864   9.564   7.993
 2051POPC   C4B28342  18.778   9.477   7.585
 2052POPC   NC328343   4.655  42.375   9.477
 2052POPC   PO428344   4.013  42.182   9.460
 2052POPC   GL128345   4.277  42.256   9.156
 2052POPC   GL228346   4.305  42.608   9.100
 2052POPC   C1A28347   4.309  42.176   8.758
 2052POPC   D2A28348   4.411  42.182   8.360
 2052POPC   C3A28349   4.124  42.167   8.057
 2052POPC   C4A28350   4.268  42.057   7.667
 2052POPC   C1B28351   4.533  42.639   8.672
 2052POPC   C2B28352   4.546  42.643   8.209
 2052POPC   C3B28353   4.432  42.615   7.789
 2052POPC   C4B28354   4.476  42.881   7.396
 2053POPC   NC328355  40.474  35.083   9.612
 2053POPC   PO428356  40.834  35.570   9.681
 2053POPC   GL128357  40.834  35.486   9.227
 2053POPC   GL228358  40.596  35.257   9.151
 2053POPC   C1A28359  41.020  35.418   8.815
 2053POPC   D2A28360  40.916  35.142   8.478
 2053POPC   C3A28361  40.931  35.262   8.043
 2053POPC   C4A28362  40.822  35.278   7.608
 2053POPC   C1B28363  40.483  35.267   8.719
 2053POPC   C2B28364  40.459  34.924   8.382
 2053POPC   C3B28365  40.464  35.028   7.941
 2053POPC   C4B28366  40.455  35.497   7.907
 2054POPC   NC328367  30.549  10.403   9.527
 2054POPC   PO428368  30.992  10.873   9.533
 2054POPC   GL128369  30.757  10.699   9.155
 2054POPC   GL228370  30.323  10.695   9.199
 2054POPC   C1A28371  30.930  10.600   8.698
 2054POPC   D2A28372  30.731  10.427   8.296
 2054POPC   C3A28373  30.906  10.570   7.870
 2054POPC   C4A28374  30.838  10.599   7.404
 2054POPC   C1B28375  30.435  10.654   8.776
 2054POPC   C2B28376  30.553  10.913   8.427
 2054POPC   C3B28377  30.446  10.786   8.018
 2054POPC   C4B28378  30.568  10.966   7.631
 2055POPC   NC328379  28.211   2.877   9.478
 2055POPC   PO428380  28.779   3.161   9.301
 2055POPC   GL128381  28.499   3.041   9.039
 2055POPC   GL228382  28.399   2.730   9.031
 2055POPC   C1A28383  28.475   3.062   8.625
 2055POPC   D2A28384  28.337   2.777   8.375
 2055POPC   C3A28385  28.578   2.597   8.097
 2055POPC   C4A28386  28.475   2.843   7.774
 2055POPC   C1B28387  28.334   2.394   8.728
 2055POPC   C2B28388  28.211   2.269   8.346
 2055POPC   C3B28389  28.179   2.319   7.921
 2055POPC   C4B28390  28.399   2.398   7.548
 2056POPC   NC328391  40.562  18.093   9.475
 2056POPC   PO428392  40.710  18.722   9.641
 2056POPC   GL128393  40.819  18.421   9.213
 2056POPC   GL228394  41.147  18.332   9.081
 2056POPC   C1A28395  40.703  18.199   8.815
 2056POPC   D2A28396  40.873  18.143   8.378
 2056POPC   C3A28397  40.603  18.229   7.988
 2056POPC   C4A28398  40.696  18.121   7.552
 2056POPC   C1B28399  41.101  18.514   8.719
 2056POPC   C2B28400  41.310  18.470   8.353
 2056POPC   C3B28401  41.090  18.419   7.971
 2056POPC   C4B28402  41.078  18.455   7.533
 2057POPC   NC328403  18.152  36.011   9.795
 2057POPC   PO428404  18.149  35.304   9.649
 2057POPC   GL128405  18.220  35.588   9.270
 2057POPC   GL228406  18.029  35.885   9.310
 2057POPC   C1A28407  18.297  35.540   8.819
 2057POPC   D2A28408  18.404  35.568   8.365
 2057POPC   C3A28409  18.296  35.263   8.070
 2057POPC   C4A28410  18.593  35.166   7.723
 2057POPC   C1B28411  17.863  35.805   8.892
 2057POPC   C2B28412  17.866  35.609   8.473
 2057POPC   C3B28413  17.988  35.705   8.053
 2057POPC   C4B28414  18.246  35.526   7.643
 2058POPC   NC328415  25.364  17.826   9.554
 2058POPC   PO428416  25.582  18.366   9.774
 2058POPC   GL128417  25.389  18.303   9.303
 2058POPC   GL228418  25.074  18.453   9.245
 2058POPC   C1A28419  25.536  18.361   8.854
 2058POPC   D2A28420  25.411  18.412   8.417
 2058POPC   C3A28421  25.370  18.175   8.024
 2058POPC   C4A28422  25.365  18.305   7.577
 2058POPC   C1B28423  25.019  18.440   8.777
 2058POPC   C2B28424  24.912  18.331   8.333
 2058POPC   C3B28425  24.878  18.180   7.917
 2058POPC   C4B28426  25.099  17.860   7.672
 2059POPC   NC328427  16.097  31.224   9.536
 2059POPC   PO428428  15.627  31.600   9.424
 2059POPC   GL128429  15.934  31.426   9.096
 2059POPC   GL228430  16.318  31.249   9.089
 2059POPC   C1A28431  15.735  31.470   8.703
 2059POPC   D2A28432  15.733  31.787   8.403
 2059POPC   C3A28433  15.773  31.635   7.972
 2059POPC   C4A28434  15.916  31.552   7.530
 2059POPC   C1B28435  16.171  31.216   8.692
 2059POPC   C2B28436  16.127  31.443   8.332
 2059POPC   C3B28437  16.162  31.309   7.924
 2059POPC   C4B28438  16.368  31.322   7.546
 2060POPC   NC328439  18.145   6.156   9.350
 2060POPC   PO428440  18.312   5.529   9.413
 2060POPC   GL128441  18.095   5.719   9.102
 2060POPC   GL228442  18.392   5.869   8.990
 2060POPC   C1A28443  17.996   5.912   8.693
 2060POPC   D2A28444  18.211   6.032   8.344
 2060POPC   C3A28445  18.136   5.817   7.973
 2060POPC   C4A28446  18.018   6.202   7.747
 2060POPC   C1B28447  18.609   6.084   8.669
 2060POPC   C2B28448  18.677   6.277   8.292
 2060POPC   C3B28449  18.498   6.165   7.921
 2060POPC   C4B28450  18.441   5.928   7.544
 2061POPC   NC328451  43.227   2.827   9.501
 2061POPC   PO428452  43.119   2.196   9.318
 2061POPC   GL128453  43.067   2.558   9.064
 2061POPC   GL228454  42.989   2.937   9.067
 2061POPC   C1A28455  43.394   2.730   8.815
 2061POPC   D2A28456  43.474   2.878   8.395
 2061POPC   C3A28457  43.049   2.863   8.205
 2061POPC   C4A28458  42.862   2.835   7.799
 2061POPC   C1B28459  43.123   3.146   8.680
 2061POPC   C2B28460  43.198   3.346   8.288
 2061POPC   C3B28461  43.206   3.207   7.847
 2061POPC   C4B28462  43.119   3.198   7.373
 2062POPC   NC328463  38.821  40.710   9.481
 2062POPC   PO428464  38.114  40.879   9.663
 2062POPC   GL128465  38.365  40.821   9.240
 2062POPC   GL228466  38.436  40.468   9.174
 2062POPC   C1A28467  38.678  40.784   8.833
 2062POPC   D2A28468  38.531  40.851   8.408
 2062POPC   C3A28469  38.663  40.711   7.999
 2062POPC   C4A28470  38.713  40.670   7.562
 2062POPC   C1B28471  38.204  40.608   8.776
 2062POPC   C2B28472  38.015  40.906   8.448
 2062POPC   C3B28473  38.184  40.925   8.017
 2062POPC   C4B28474  38.237  40.542   7.766
 2063POPC   NC328475   7.362  13.439   9.499
 2063POPC   PO428476   7.457  14.081   9.549
 2063POPC   GL128477   7.471  13.826   9.185
 2063POPC   GL228478   7.796  13.677   9.229
 2063POPC   C1A28479   7.383  13.568   8.806
 2063POPC   D2A28480   7.243  13.530   8.384
 2063POPC   C3A28481   7.398  13.349   8.011
 2063POPC   C4A28482   7.108  13.507   7.726
 2063POPC   C1B28483   7.807  13.851   8.799
 2063POPC   C2B28484   7.778  13.646   8.401
 2063POPC   C3B28485   7.754  13.718   7.975
 2063POPC   C4B28486   7.571  13.646   7.569
 2064POPC   NC328487  27.800  23.808   9.503
 2064POPC   PO428488  27.262  23.386   9.612
 2064POPC   GL128489  27.401  23.614   9.266
 2064POPC   GL228490  27.695  23.456   9.159
 2064POPC   C1A28491  27.366  23.723   8.852
 2064POPC   D2A28492  27.221  23.564   8.492
 2064POPC   C3A28493  27.352  23.721   8.111
 2064POPC   C4A28494  27.406  23.379   7.854
 2064POPC   C1B28495  27.856  23.745   8.817
 2064POPC   C2B28496  27.736  23.958   8.425
 2064POPC   C3B28497  27.869  23.840   7.993
 2064POPC   C4B28498  27.838  23.524   7.651
 2065POPC   NC328499  32.686  26.550   9.477
 2065POPC   PO428500  31.973  26.877   9.525
 2065POPC   GL128501  32.185  26.943   9.142
 2065POPC   GL228502  32.382  26.654   9.078
 2065POPC   C1A28503  32.042  26.852   8.718
 2065POPC   D2A28504  32.220  26.976   8.334
 2065POPC   C3A28505  32.009  26.932   7.944
 2065POPC   C4A28506  32.234  27.169   7.647
 2065POPC   C1B28507  32.534  26.935   8.758
 2065POPC   C2B28508  32.709  26.840   8.363
 2065POPC   C3B28509  32.518  26.784   7.955
 2065POPC   C4B28510  32.373  26.659   7.538
 2066POPC   NC328511  13.930  21.730   9.578
 2066POPC   PO428512  14.241  22.379   9.599
 2066POPC   GL128513  14.299  22.186   9.192
 2066POPC   GL228514  14.534  21.909   9.118
 2066POPC   C1A28515  14.516  22.316   8.803
 2066POPC   D2A28516  14.782  22.325   8.416
 2066POPC   C3A28517  14.560  22.192   8.049
 2066POPC   C4A28518  14.137  22.362   7.936
 2066POPC   C1B28519  14.479  21.833   8.653
 2066POPC   C2B28520  14.731  21.704   8.282
 2066POPC   C3B28521  14.602  21.656   7.851
 2066POPC   C4B28522  14.267  21.881   7.744
 2067POPC   NC328523  12.288  22.452   9.476
 2067POPC   PO428524  12.114  21.836   9.575
 2067POPC   GL128525  11.984  22.071   9.241
 2067POPC   GL228526  12.350  22.049   9.150
 2067POPC   C1A28527  11.865  22.092   8.817
 2067POPC   D2A28528  11.963  22.353   8.466
 2067POPC   C3A28529  11.949  22.101   8.148
 2067POPC   C4A28530  11.869  21.999   7.791
 2067POPC   C1B28531  12.409  22.189   8.732
 2067POPC   C2B28532  12.443  22.131   8.279
 2067POPC   C3B28533  12.356  22.108   7.813
 2067POPC   C4B28534  12.424  21.991   7.330
 2068POPC   NC328535  41.784  24.377   9.578
 2068POPC   PO428536  41.176  23.972   9.448
 2068POPC   GL128537  41.264  24.431   9.218
 2068POPC   GL228538  41.647  24.519   9.109
 2068POPC   C1A28539  41.315  24.500   8.742
 2068POPC   D2A28540  41.264  24.331   8.300
 2068POPC   C3A28541  41.426  24.618   7.983
 2068POPC   C4A28542  41.572  24.722   7.575
 2068POPC   C1B28543  41.848  24.260   8.776
 2068POPC   C2B28544  41.999  24.259   8.363
 2068POPC   C3B28545  41.791  24.210   7.975
 2068POPC   C4B28546  41.829  24.274   7.549
 2069POPC   NC328547  13.521  18.518   9.718
 2069POPC   PO428548  13.815  17.929   9.623
 2069POPC   GL128549  13.618  18.084   9.220
 2069POPC   GL228550  13.462  18.415   9.215
 2069POPC   C1A28551  13.778  18.312   8.828
 2069POPC   D2A28552  13.999  18.206   8.466
 2069POPC   C3A28553  13.792  18.366   8.104
 2069POPC   C4A28554  13.551  18.185   7.826
 2069POPC   C1B28555  13.283  18.379   8.795
 2069POPC   C2B28556  13.369  18.463   8.363
 2069POPC   C3B28557  13.317  18.614   7.919
 2069POPC   C4B28558  13.390  18.490   7.451
 2070POPC   NC328559  25.117   8.077   9.331
 2070POPC   PO428560  25.593   8.593   9.553
 2070POPC   GL128561  25.658   8.364   9.151
 2070POPC   GL228562  25.672   7.980   9.239
 2070POPC   C1A28563  25.425   8.453   8.734
 2070POPC   D2A28564  25.145   8.134   8.526
 2070POPC   C3A28565  25.053   8.179   8.108
 2070POPC   C4A28566  25.063   8.458   7.763
 2070POPC   C1B28567  25.557   7.967   8.807
 2070POPC   C2B28568  25.640   7.994   8.348
 2070POPC   C3B28569  25.550   8.166   7.928
 2070POPC   C4B28570  25.231   8.007   7.635
 2071POPC   NC328571  10.940  30.356   9.805
 2071POPC   PO428572  10.395  30.747   9.508
 2071POPC   GL128573  10.640  30.781   9.172
 2071POPC   GL228574  10.608  31.117   9.105
 2071POPC   C1A28575  10.551  30.771   8.740
 2071POPC   D2A28576  10.359  30.994   8.415
 2071POPC   C3A28577  10.485  30.892   8.025
 2071POPC   C4A28578  10.396  30.602   7.703
 2071POPC   C1B28579  10.761  31.226   8.694
 2071POPC   C2B28580  10.929  31.005   8.364
 2071POPC   C3B28581  11.019  31.106   7.956
 2071POPC   C4B28582  10.827  30.887   7.656
 2072POPC   NC328583  23.181  43.303   9.537
 2072POPC   PO428584  22.781  42.897   9.487
 2072POPC   GL128585  23.006  43.041   9.131
 2072POPC   GL228586  22.976  43.430   9.089
 2072POPC   C1A28587  22.806  43.040   8.741
 2072POPC   D2A28588  22.525  42.843   8.438
 2072POPC   C3A28589  22.794  42.902   8.107
 2072POPC   C4A28590  22.974  42.847   7.720
 2072POPC   C1B28591  22.633  43.518   8.809
 2072POPC   C2B28592  22.558  43.359   8.396
 2072POPC   C3B28593  22.621  43.457   7.971
 2072POPC   C4B28594  22.667  43.221   7.586
 2073POPC   NC328595  30.696   2.898   9.492
 2073POPC   PO428596  30.451   2.261   9.548
 2073POPC   GL128597  30.623   2.480   9.119
 2073POPC   GL228598  30.478   2.824   9.044
 2073POPC   C1A28599  30.680   2.613   8.632
 2073POPC   D2A28600  30.369   2.852   8.367
 2073POPC   C3A28601  30.511   2.949   7.965
 2073POPC   C4A28602  30.715   2.583   7.775
 2073POPC   C1B28603  30.790   3.064   8.838
 2073POPC   C2B28604  30.777   3.154   8.419
 2073POPC   C3B28605  30.993   2.945   8.097
 2073POPC   C4B28606  30.970   3.032   7.671
 2074POPC   NC328607   2.300  18.217   9.538
 2074POPC   PO428608   1.860  18.664   9.723
 2074POPC   GL128609   1.882  18.452   9.306
 2074POPC   GL228610   1.843  18.120   9.209
 2074POPC   C1A28611   1.926  18.491   8.841
 2074POPC   D2A28612   1.789  18.614   8.390
 2074POPC   C3A28613   1.954  18.402   7.992
 2074POPC   C4A28614   2.234  18.473   7.668
 2074POPC   C1B28615   2.107  18.001   8.858
 2074POPC   C2B28616   2.021  18.143   8.443
 2074POPC   C3B28617   1.705  18.004   8.137
 2074POPC   C4B28618   1.803  17.970   7.701
 2075POPC   NC328619  26.076   8.956   9.666
 2075POPC   PO428620  25.847   9.569   9.623
 2075POPC   GL128621  25.933   9.255   9.253
 2075POPC   GL228622  25.893   8.853   9.219
 2075POPC   C1A28623  26.144   9.179   8.861
 2075POPC   D2A28624  26.327   9.356   8.454
 2075POPC   C3A28625  26.167   9.176   8.055
 2075POPC   C4A28626  25.796   9.117   7.794
 2075POPC   C1B28627  26.036   8.641   8.865
 2075POPC   C2B28628  26.059   8.852   8.473
 2075POPC   C3B28629  25.895   8.722   8.111
 2075POPC   C4B28630  26.030   8.630   7.699
 2076POPC   NC328631  41.588   0.128   9.538
 2076POPC   PO428632  41.245   0.640   9.228
 2076POPC   GL128633  41.501   0.348   9.084
 2076POPC   GL228634  41.791   0.512   9.129
 2076POPC   C1A28635  41.625   0.329   8.677
 2076POPC   D2A28636  41.409   0.533   8.329
 2076POPC   C3A28637  41.586   0.368   7.954
 2076POPC   C4A28638  41.390   0.008   7.861
 2076POPC   C1B28639  41.755   0.842   8.777
 2076POPC   C2B28640  41.783   1.076   8.380
 2076POPC   C3B28641  41.618   0.880   8.008
 2076POPC   C4B28642  41.698   0.744   7.597
 2077POPC   NC328643  39.789  25.699   9.448
 2077POPC   PO428644  40.222  26.222   9.426
 2077POPC   GL128645  39.966  26.047   9.118
 2077POPC   GL228646  39.588  25.978   9.089
 2077POPC   C1A28647  39.954  25.913   8.720
 2077POPC   D2A28648  40.135  25.762   8.376
 2077POPC   C3A28649  40.136  25.977   8.018
 2077POPC   C4A28650  39.798  25.922   7.781
 2077POPC   C1B28651  39.653  26.343   8.849
 2077POPC   C2B28652  39.819  26.310   8.439
 2077POPC   C3B28653  39.828  26.416   8.073
 2077POPC   C4B28654  39.625  26.385   7.726
 2078POPC   NC328655  17.933  21.027   9.465
 2078POPC   PO428656  18.467  21.478   9.446
 2078POPC   GL128657  18.209  21.310   9.146
 2078POPC   GL228658  18.400  20.989   9.133
 2078POPC   C1A28659  18.078  21.554   8.791
 2078POPC   D2A28660  17.854  21.619   8.385
 2078POPC   C3A28661  18.116  21.664   8.041
 2078POPC   C4A28662  18.150  21.411   7.724
 2078POPC   C1B28663  18.578  21.291   8.801
 2078POPC   C2B28664  18.400  21.444   8.410
 2078POPC   C3B28665  18.575  21.346   8.028
 2078POPC   C4B28666  18.557  21.123   7.660
 2079POPC   NC328667  13.447  10.520   9.579
 2079POPC   PO428668  13.904  11.008   9.560
 2079POPC   GL128669  13.584  10.890   9.249
 2079POPC   GL228670  13.566  10.507   9.090
 2079POPC   C1A28671  13.379  10.927   8.864
 2079POPC   D2A28672  13.425  10.662   8.495
 2079POPC   C3A28673  13.577  10.670   8.043
 2079POPC   C4A28674  13.633  10.916   7.649
 2079POPC   C1B28675  13.426  10.217   8.742
 2079POPC   C2B28676  13.405  10.185   8.284
 2079POPC   C3B28677  13.702  10.149   7.914
 2079POPC   C4B28678  13.721  10.164   7.419
 2080POPC   NC328679  13.849  13.227   9.420
 2080POPC   PO428680  13.574  13.838   9.503
 2080POPC   GL128681  13.480  13.656   9.102
 2080POPC   GL228682  13.751  13.492   9.005
 2080POPC   C1A28683  13.370  13.495   8.685
 2080POPC   D2A28684  13.549  13.403   8.265
 2080POPC   C3A28685  13.824  13.715   8.079
 2080POPC   C4A28686  13.707  13.688   7.656
 2080POPC   C1B28687  13.924  13.576   8.605
 2080POPC   C2B28688  14.069  13.294   8.268
 2080POPC   C3B28689  13.965  13.280   7.828
 2080POPC   C4B28690  13.873  13.305   7.376
 2081POPC   NC328691   8.505  25.533   9.457
 2081POPC   PO428692   7.811  25.215   9.489
 2081POPC   GL128693   8.070  25.375   9.206
 2081POPC   GL228694   8.273  25.094   9.225
 2081POPC   C1A28695   8.094  25.389   8.771
 2081POPC   D2A28696   8.285  25.526   8.399
 2081POPC   C3A28697   8.151  25.286   8.064
 2081POPC   C4A28698   7.927  25.123   7.725
 2081POPC   C1B28699   8.448  25.034   8.795
 2081POPC   C2B28700   8.536  25.054   8.337
 2081POPC   C3B28701   8.585  25.071   7.870
 2081POPC   C4B28702   8.361  25.374   7.568
 2082POPC   NC328703   0.185  20.100   9.585
 2082POPC   PO428704   0.613  20.625   9.725
 2082POPC   GL128705   0.542  20.534   9.254
 2082POPC   GL228706   0.189  20.513   9.180
 2082POPC   C1A28707   0.674  20.682   8.787
 2082POPC   D2A28708   0.464  20.686   8.350
 2082POPC   C3A28709   0.623  20.862   7.928
 2082POPC   C4A28710   0.661  20.956   7.474
 2082POPC   C1B28711   0.328  20.322   8.752
 2082POPC   C2B28712   0.292  20.165   8.332
 2082POPC   C3B28713   0.203  20.376   7.952
 2082POPC   C4B28714   0.238  20.684   7.624
 2083POPC   NC328715  18.027  18.661   9.196
 2083POPC   PO428716  17.777  19.206   9.512
 2083POPC   GL128717  18.053  19.179   9.126
 2083POPC   GL228718  18.431  19.274   9.138
 2083POPC   C1A28719  18.199  19.084   8.690
 2083POPC   D2A28720  18.528  19.252   8.436
 2083POPC   C3A28721  18.337  19.299   8.081
 2083POPC   C4A28722  18.200  19.028   7.764
 2083POPC   C1B28723  18.598  18.866   8.921
 2083POPC   C2B28724  18.676  18.773   8.491
 2083POPC   C3B28725  18.635  18.886   8.036
 2083POPC   C4B28726  18.622  18.789   7.578
 2084POPC   NC328727  23.384  34.978   9.418
 2084POPC   PO428728  23.718  35.536   9.348
 2084POPC   GL128729  23.606  35.339   9.020
 2084POPC   GL228730  23.279  35.442   9.054
 2084POPC   C1A28731  23.853  35.316   8.633
 2084POPC   D2A28732  24.093  35.068   8.342
 2084POPC   C3A28733  24.049  35.258   7.957
 2084POPC   C4A28734  23.888  35.163   7.553
 2084POPC   C1B28735  23.354  35.552   8.646
 2084POPC   C2B28736  23.522  35.431   8.257
 2084POPC   C3B28737  23.540  35.409   7.846
 2084POPC   C4B28738  23.359  35.717   7.620
 2085POPC   NC328739  27.236  33.165   9.445
 2085POPC   PO428740  26.554  32.994   9.523
 2085POPC   GL128741  26.775  33.057   9.188
 2085POPC   GL228742  26.790  33.402   9.305
 2085POPC   C1A28743  26.935  32.776   8.866
 2085POPC   D2A28744  27.091  32.657   8.455
 2085POPC   C3A28745  26.811  32.715   8.140
 2085POPC   C4A28746  26.807  32.779   7.716
 2085POPC   C1B28747  26.946  33.390   8.854
 2085POPC   C2B28748  26.931  33.143   8.485
 2085POPC   C3B28749  27.003  33.209   8.070
 2085POPC   C4B28750  26.710  33.262   7.793
 2086POPC   NC328751  12.309  33.426   9.526
 2086POPC   PO428752  12.128  32.842   9.533
 2086POPC   GL128753  11.937  32.931   9.107
 2086POPC   GL228754  12.027  33.266   9.076
 2086POPC   C1A28755  11.904  32.985   8.642
 2086POPC   D2A28756  12.033  32.776   8.262
 2086POPC   C3A28757  12.170  32.928   7.882
 2086POPC   C4A28758  12.120  33.082   7.438
 2086POPC   C1B28759  12.358  33.162   8.755
 2086POPC   C2B28760  12.313  33.231   8.289
 2086POPC   C3B28761  12.478  33.330   7.855
 2086POPC   C4B28762  12.714  33.199   7.472
 2087POPC   NC328763  32.313  14.891   9.557
 2087POPC   PO428764  31.675  15.087   9.536
 2087POPC   GL128765  31.971  15.132   9.190
 2087POPC   GL228766  32.265  15.348   9.199
 2087POPC   C1A28767  32.068  15.124   8.742
 2087POPC   D2A28768  31.937  15.338   8.351
 2087POPC   C3A28769  32.168  15.288   7.942
 2087POPC   C4A28770  32.034  14.903   7.752
 2087POPC   C1B28771  32.485  15.411   8.817
 2087POPC   C2B28772  32.464  15.291   8.394
 2087POPC   C3B28773  32.680  15.494   8.078
 2087POPC   C4B28774  32.690  15.482   7.651
 2088POPC   NC328775  43.400   1.832   9.364
 2088POPC   PO428776  42.687   1.686   9.454
 2088POPC   GL128777  42.741   1.816   9.038
 2088POPC   GL228778  43.080   1.865   8.937
 2088POPC   C1A28779  42.715   1.851   8.565
 2088POPC   D2A28780  42.990   1.960   8.239
 2088POPC   C3A28781  43.146   1.634   7.988
 2088POPC   C4A28782  42.955   1.874   7.666
 2088POPC   C1B28783  43.129   2.218   8.669
 2088POPC   C2B28784  43.263   2.411   8.318
 2088POPC   C3B28785  43.270   2.381   7.884
 2088POPC   C4B28786  43.126   2.298   7.476
 2089POPC   NC328787  13.530  17.106   9.277
 2089POPC   PO428788  13.499  16.493   9.496
 2089POPC   GL128789  13.710  16.658   9.116
 2089POPC   GL228790  14.056  16.824   9.150
 2089POPC   C1A28791  13.589  16.772   8.688
 2089POPC   D2A28792  13.623  16.498   8.341
 2089POPC   C3A28793  13.583  16.571   7.912
 2089POPC   C4A28794  13.627  16.418   7.484
 2089POPC   C1B28795  13.962  17.122   8.799
 2089POPC   C2B28796  13.963  16.980   8.391
 2089POPC   C3B28797  13.826  17.020   7.976
 2089POPC   C4B28798  13.909  16.817   7.602
 2090POPC   NC328799  26.292  12.481   9.647
 2090POPC   PO428800  25.803  11.946   9.672
 2090POPC   GL128801  25.930  11.918   9.253
 2090POPC   GL228802  26.301  12.038   9.280
 2090POPC   C1A28803  25.769  11.964   8.813
 2090POPC   D2A28804  26.016  11.957   8.438
 2090POPC   C3A28805  25.821  11.913   8.034
 2090POPC   C4A28806  25.928  12.067   7.666
 2090POPC   C1B28807  26.100  12.315   8.965
 2090POPC   C2B28808  26.048  12.457   8.535
 2090POPC   C3B28809  26.092  12.363   8.091
 2090POPC   C4B28810  26.041  12.561   7.687
 2091POPC   NC328811  29.662   0.713   9.494
 2091POPC   PO428812  29.266   0.138   9.608
 2091POPC   GL128813  29.130   0.260   9.193
 2091POPC   GL228814  29.350   0.478   9.172
 2091POPC   C1A28815  28.967   0.390   8.797
 2091POPC   D2A28816  28.798   0.228   8.405
 2091POPC   C3A28817  29.015   0.493   8.122
 2091POPC   C4A28818  28.889   0.713   7.756
 2091POPC   C1B28819  29.406   0.694   8.814
 2091POPC   C2B28820  29.558   0.735   8.397
 2091POPC   C3B28821  29.531   0.475   8.064
 2091POPC   C4B28822  29.333   0.472   7.690
 2092POPC   NC328823  12.769   5.359   9.266
 2092POPC   PO428824  13.237   4.970   9.572
 2092POPC   GL128825  13.134   4.887   9.134
 2092POPC   GL228826  12.765   4.867   9.119
 2092POPC   C1A28827  13.008   5.020   8.699
 2092POPC   D2A28828  12.594   5.208   8.584
 2092POPC   C3A28829  12.597   5.323   8.142
 2092POPC   C4A28830  12.967   5.413   7.856
 2092POPC   C1B28831  12.527   4.630   8.797
 2092POPC   C2B28832  12.663   4.739   8.394
 2092POPC   C3B28833  12.891   4.927   8.055
 2092POPC   C4B28834  12.653   5.062   7.677
 2093POPC   NC328835  30.744  33.343   9.366
 2093POPC   PO428836  30.909  32.666   9.549
 2093POPC   GL128837  30.817  32.805   9.172
 2093POPC   GL228838  30.490  32.932   9.202
 2093POPC   C1A28839  30.712  32.825   8.742
 2093POPC   D2A28840  30.590  33.062   8.394
 2093POPC   C3A28841  30.782  32.874   8.086
 2093POPC   C4A28842  31.006  32.855   7.726
 2093POPC   C1B28843  30.373  33.240   8.832
 2093POPC   C2B28844  30.267  33.449   8.458
 2093POPC   C3B28845  30.329  33.311   8.029
 2093POPC   C4B28846  30.537  33.081   7.686
 2094POPC   NC328847  17.148  39.892   9.505
 2094POPC   PO428848  17.657  40.327   9.383
 2094POPC   GL128849  17.842  40.125   9.025
 2094POPC   GL228850  17.646  39.789   8.998
 2094POPC   C1A28851  17.811  40.097   8.619
 2094POPC   D2A28852  17.507  40.036   8.356
 2094POPC   C3A28853  17.694  40.215   8.060
 2094POPC   C4A28854  18.066  40.079   7.902
 2094POPC   C1B28855  17.257  39.733   8.715
 2094POPC   C2B28856  17.171  39.636   8.266
 2094POPC   C3B28857  17.307  39.876   7.885
 2094POPC   C4B28858  17.258  39.881   7.393
 2095POPC   NC328859  19.304  20.271   9.391
 2095POPC   PO428860  18.772  20.677   9.415
 2095POPC   GL128861  19.137  20.708   9.184
 2095POPC   GL228862  19.026  20.417   8.990
 2095POPC   C1A28863  19.360  20.802   8.818
 2095POPC   D2A28864  19.468  20.835   8.396
 2095POPC   C3A28865  19.205  20.601   8.118
 2095POPC   C4A28866  19.175  20.401   7.709
 2095POPC   C1B28867  18.844  20.809   8.780
 2095POPC   C2B28868  18.953  20.964   8.404
 2095POPC   C3B28869  18.738  20.824   8.059
 2095POPC   C4B28870  18.746  20.664   7.650
 2096POPC   NC328871   7.157   0.106   9.657
 2096POPC   PO428872   7.634   0.573   9.553
 2096POPC   GL128873   7.535   0.366   9.207
 2096POPC   GL228874   7.183   0.435   9.250
 2096POPC   C1A28875   7.675   0.308   8.776
 2096POPC   D2A28876   7.843   0.513   8.409
 2096POPC   C3A28877   7.757   0.307   8.024
 2096POPC   C4A28878   7.829   0.539   7.668
 2096POPC   C1B28879   7.198   0.571   8.794
 2096POPC   C2B28880   7.349   0.614   8.367
 2096POPC   C3B28881   7.315   0.605   7.933
 2096POPC   C4B28882   7.363   0.279   7.646
 2097POPC   NC328883  10.409   2.602   9.568
 2097POPC   PO428884  10.895   2.977   9.606
 2097POPC   GL128885  10.748   2.634   9.201
 2097POPC   GL228886  10.419   2.379   9.119
 2097POPC   C1A28887  10.741   2.578   8.727
 2097POPC   D2A28888  10.710   2.958   8.453
 2097POPC   C3A28889  10.641   2.844   8.018
 2097POPC   C4A28890  10.897   2.594   7.723
 2097POPC   C1B28891  10.227   2.452   8.747
 2097POPC   C2B28892  10.301   2.655   8.367
 2097POPC   C3B28893  10.349   2.439   7.960
 2097POPC   C4B28894  10.219   2.448   7.520
 2098POPC   NC328895  30.504  42.564   9.368
 2098POPC   PO428896  31.115  42.430   9.417
 2098POPC   GL128897  30.875  42.323   9.073
 2098POPC   GL228898  30.542  42.175   9.092
 2098POPC   C1A28899  30.734  42.426   8.678
 2098POPC   D2A28900  30.494  42.532   8.348
 2098POPC   C3A28901  30.717  42.375   8.022
 2098POPC   C4A28902  31.042  42.482   7.731
 2098POPC   C1B28903  30.323  42.107   8.711
 2098POPC   C2B28904  30.375  42.026   8.278
 2098POPC   C3B28905  30.294  41.849   7.857
 2098POPC   C4B28906  30.384  42.007   7.430
 2099POPC   NC328907  44.219   3.285   9.521
 2099POPC   PO428908  43.721   2.748   9.525
 2099POPC   GL128909  43.812   2.803   9.119
 2099POPC   GL228910  44.045   3.066   9.103
 2099POPC   C1A28911  43.938   2.759   8.706
 2099POPC   D2A28912  44.024   2.950   8.345
 2099POPC   C3A28913  44.107   2.711   7.996
 2099POPC   C4A28914  43.713   2.727   7.797
 2099POPC   C1B28915  44.128   3.296   8.723
 2099POPC   C2B28916  44.414   3.264   8.361
 2099POPC   C3B28917  44.231   3.199   7.939
 2099POPC   C4B28918  44.079   3.010   7.568
 2100POPC   NC328919  15.283  26.453   9.918
 2100POPC   PO428920  15.112  25.897   9.508
 2100POPC   GL128921  15.315  25.917   9.125
 2100POPC   GL228922  15.414  25.614   9.022
 2100POPC   C1A28923  15.393  26.240   8.760
 2100POPC   D2A28924  15.563  26.360   8.331
 2100POPC   C3A28925  15.315  26.230   7.936
 2100POPC   C4A28926  15.498  26.156   7.523
 2100POPC   C1B28927  15.157  25.801   8.680
 2100POPC   C2B28928  15.264  25.879   8.284
 2100POPC   C3B28929  15.130  25.702   7.902
 2100POPC   C4B28930  14.780  25.730   7.580
 2101POPC   NC328931  28.811  10.103   9.352
 2101POPC   PO428932  29.304   9.725   9.647
 2101POPC   GL128933  29.382   9.731   9.186
 2101POPC   GL228934  29.067   9.812   9.005
 2101POPC   C1A28935  29.482   9.810   8.716
 2101POPC   D2A28936  29.207   9.851   8.344
 2101POPC   C3A28937  29.323   9.799   7.897
 2101POPC   C4A28938  29.079   9.881   7.489
 2101POPC   C1B28939  28.760   9.544   8.751
 2101POPC   C2B28940  28.549   9.623   8.359
 2101POPC   C3B28941  28.801   9.739   7.999
 2101POPC   C4B28942  28.969   9.439   7.726
 2102POPC   NC328943  36.636  17.205   9.651
 2102POPC   PO428944  37.185  17.665   9.455
 2102POPC   GL128945  36.912  17.346   9.251
 2102POPC   GL228946  36.617  17.522   9.226
 2102POPC   C1A28947  36.956  17.147   8.862
 2102POPC   D2A28948  37.067  17.354   8.489
 2102POPC   C3A28949  37.009  17.237   8.076
 2102POPC   C4A28950  37.106  17.508   7.700
 2102POPC   C1B28951  36.780  17.622   8.819
 2102POPC   C2B28952  36.596  17.579   8.393
 2102POPC   C3B28953  36.681  17.621   7.952
 2102POPC   C4B28954  36.646  17.277   7.664
 2103POPC   NC328955   9.462  40.138   9.464
 2103POPC   PO428956  10.034  39.738   9.505
 2103POPC   GL128957   9.837  39.942   9.136
 2103POPC   GL228958  10.033  40.256   9.140
 2103POPC   C1A28959   9.573  40.192   8.807
 2103POPC   D2A28960   9.548  40.330   8.354
 2103POPC   C3A28961   9.675  40.038   8.034
 2103POPC   C4A28962   9.680  40.005   7.587
 2103POPC   C1B28963  10.069  40.140   8.689
 2103POPC   C2B28964  10.112  40.252   8.247
 2103POPC   C3B28965  10.017  40.347   7.810
 2103POPC   C4B28966  10.131  40.252   7.376
 2104POPC   NC328967   5.075   5.004   9.679
 2104POPC   PO428968   5.094   5.660   9.510
 2104POPC   GL128969   5.210   5.285   9.239
 2104POPC   GL228970   5.069   4.939   9.176
 2104POPC   C1A28971   5.345   5.240   8.794
 2104POPC   D2A28972   5.172   5.151   8.391
 2104POPC   C3A28973   5.142   5.423   8.036
 2104POPC   C4A28974   4.896   5.369   7.680
 2104POPC   C1B28975   4.860   5.056   8.804
 2104POPC   C2B28976   4.668   5.152   8.387
 2104POPC   C3B28977   4.839   4.976   8.007
 2104POPC   C4B28978   4.652   4.839   7.614
 2105POPC   NC328979   6.367  23.406   9.511
 2105POPC   PO428980   6.023  22.756   9.669
 2105POPC   GL128981   6.116  22.889   9.231
 2105POPC   GL228982   6.040  22.576   9.163
 2105POPC   C1A28983   5.941  22.940   8.778
 2105POPC   D2A28984   5.806  23.131   8.360
 2105POPC   C3A28985   5.706  22.935   7.962
 2105POPC   C4A28986   5.672  23.147   7.505
 2105POPC   C1B28987   6.000  22.423   8.745
 2105POPC   C2B28988   6.007  22.637   8.353
 2105POPC   C3B28989   6.195  22.964   8.083
 2105POPC   C4B28990   6.116  22.923   7.645
 2106POPC   NC328991  15.626  39.572   9.413
 2106POPC   PO428992  15.140  39.354   9.828
 2106POPC   GL128993  15.204  39.219   9.364
 2106POPC   GL228994  15.481  39.018   9.314
 2106POPC   C1A28995  15.127  39.074   8.910
 2106POPC   D2A28996  15.055  39.183   8.445
 2106POPC   C3A28997  15.214  39.283   8.004
 2106POPC   C4A28998  14.934  39.018   7.680
 2106POPC   C1B28999  15.602  38.843   8.921
 2106POPC   C2B29000  15.528  38.833   8.499
 2106POPC   C3B29001  15.304  38.803   8.119
 2106POPC   C4B29002  15.479  38.943   7.724
 2107POPC   NC329003   8.763  22.595   9.539
 2107POPC   PO429004   8.911  21.885   9.506
 2107POPC   GL129005   9.078  22.007   9.146
 2107POPC   GL229006   8.852  22.294   9.096
 2107POPC   C1A29007   9.108  22.002   8.717
 2107POPC   D2A29008   9.132  22.063   8.300
 2107POPC   C3A29009   8.916  21.837   8.028
 2107POPC   C4A29010   8.760  21.880   7.618
 2107POPC   C1B29011   8.655  22.234   8.690
 2107POPC   C2B29012   8.671  22.283   8.247
 2107POPC   C3B29013   8.977  22.328   7.891
 2107POPC   C4B29014   8.922  22.341   7.447
 2108POPC   NC329015  25.893   1.249   9.500
 2108POPC   PO429016  26.437   1.666   9.486
 2108POPC   GL129017  26.364   1.263   9.188
 2108POPC   GL229018  26.004   1.220   9.023
 2108POPC   C1A29019  26.366   1.044   8.751
 2108POPC   D2A29020  26.039   1.226   8.490
 2108POPC   C3A29021  26.093   1.203   8.049
 2108POPC   C4A29022  26.229   1.530   7.743
 2108POPC   C1B29023  25.914   0.833   8.790
 2108POPC   C2B29024  26.018   0.695   8.413
 2108POPC   C3B29025  25.811   0.679   8.085
 2108POPC   C4B29026  25.833   0.855   7.739
 2109POPC   NC329027  14.642  30.507   9.498
 2109POPC   PO429028  14.094  30.583   9.937
 2109POPC   GL129029  14.200  30.720   9.417
 2109POPC   GL229030  14.511  30.913   9.188
 2109POPC   C1A29031  14.155  30.707   8.931
 2109POPC   D2A29032  14.303  30.568   8.531
 2109POPC   C3A29033  14.307  30.792   8.133
 2109POPC   C4A29034  14.538  30.603   7.807
 2109POPC   C1B29035  14.760  30.989   8.780
 2109POPC   C2B29036  14.923  31.128   8.354
 2109POPC   C3B29037  14.844  31.007   7.918
 2109POPC   C4B29038  14.711  30.954   7.469
 2110POPC   NC329039  13.678   9.605   9.484
 2110POPC   PO429040  13.810  10.243   9.650
 2110POPC   GL129041  13.788  10.046   9.210
 2110POPC   GL229042  13.456   9.920   9.137
 2110POPC   C1A29043  13.832   9.784   8.792
 2110POPC   D2A29044  13.774   9.854   8.374
 2110POPC   C3A29045  13.759   9.600   8.051
 2110POPC   C4A29046  13.831   9.733   7.649
 2110POPC   C1B29047  13.324   9.666   8.753
 2110POPC   C2B29048  13.244   9.672   8.290
 2110POPC   C3B29049  13.341   9.806   7.855
 2110POPC   C4B29050  13.391   9.570   7.463
 2111POPC   NC329051  29.417   6.073   9.331
 2111POPC   PO429052  29.902   5.797   9.689
 2111POPC   GL129053  29.989   5.749   9.223
 2111POPC   GL229054  29.676   5.715   9.085
 2111POPC   C1A29055  30.021   5.804   8.740
 2111POPC   D2A29056  29.880   6.152   8.462
 2111POPC   C3A29057  30.175   6.180   8.135
 2111POPC   C4A29058  30.242   6.159   7.676
 2111POPC   C1B29059  29.674   5.408   8.777
 2111POPC   C2B29060  29.879   5.330   8.394
 2111POPC   C3B29061  30.094   5.647   8.205
 2111POPC   C4B29062  29.867   5.865   7.900
 2112POPC   NC329063  11.952  20.780   9.439
 2112POPC   PO429064  12.523  20.472   9.661
 2112POPC   GL129065  12.274  20.475   9.230
 2112POPC   GL229066  12.483  20.393   9.113
 2112POPC   C1A29067  11.963  20.408   8.848
 2112POPC   D2A29068  11.899  20.679   8.462
 2112POPC   C3A29069  11.777  20.512   8.045
 2112POPC   C4A29070  11.718  20.693   7.628
 2112POPC   C1B29071  12.354  20.719   8.786
 2112POPC   C2B29072  12.347  20.398   8.470
 2112POPC   C3B29073  12.228  20.258   8.085
 2112POPC   C4B29074  12.201  20.505   7.736
 2113POPC   NC329075  10.750  22.118   9.536
 2113POPC   PO429076  11.468  22.160   9.540
 2113POPC   GL129077  11.446  22.201   9.146
 2113POPC   GL229078  11.081  22.262   9.158
 2113POPC   C1A29079  11.342  22.011   8.774
 2113POPC   D2A29080  11.512  22.099   8.397
 2113POPC   C3A29081  11.389  21.941   8.030
 2113POPC   C4A29082  11.419  22.180   7.701
 2113POPC   C1B29083  10.968  22.361   8.749
 2113POPC   C2B29084  10.975  22.042   8.402
 2113POPC   C3B29085  10.892  21.850   8.012
 2113POPC   C4B29086  10.985  21.955   7.619
 2114POPC   NC329087  13.879  30.328   9.587
 2114POPC   PO429088  13.325  29.917   9.550
 2114POPC   GL129089  13.479  30.060   9.152
 2114POPC   GL229090  13.329  30.356   9.196
 2114POPC   C1A29091  13.752  29.917   8.793
 2114POPC   D2A29092  13.661  29.533   8.538
 2114POPC   C3A29093  13.735  29.469   8.095
 2114POPC   C4A29094  13.981  29.692   7.773
 2114POPC   C1B29095  13.202  30.437   8.784
 2114POPC   C2B29096  13.463  30.209   8.501
 2114POPC   C3B29097  13.676  29.975   8.212
 2114POPC   C4B29098  13.645  30.065   7.787
 2115POPC   NC329099  43.151   8.851   9.488
 2115POPC   PO429100  42.745   8.233   9.321
 2115POPC   GL129101  42.869   8.669   9.075
 2115POPC   GL229102  43.231   8.836   9.002
 2115POPC   C1A29103  42.864   8.885   8.686
 2115POPC   D2A29104  43.192   8.885   8.371
 2115POPC   C3A29105  43.069   9.077   8.005
 2115POPC   C4A29106  43.071   8.933   7.553
 2115POPC   C1B29107  43.310   9.212   8.757
 2115POPC   C2B29108  43.479   9.335   8.357
 2115POPC   C3B29109  43.554   9.207   7.924
 2115POPC   C4B29110  43.543   9.174   7.498
 2116POPC   NC329111  39.294  22.788   9.393
 2116POPC   PO429112  38.794  23.151   9.576
 2116POPC   GL129113  38.793  22.940   9.150
 2116POPC   GL229114  39.029  22.677   8.964
 2116POPC   C1A29115  38.882  23.088   8.720
 2116POPC   D2A29116  39.089  22.900   8.349
 2116POPC   C3A29117  39.048  23.084   7.955
 2116POPC   C4A29118  39.358  23.293   7.711
 2116POPC   C1B29119  39.397  22.895   8.775
 2116POPC   C2B29120  39.656  22.846   8.414
 2116POPC   C3B29121  39.533  22.904   7.997
 2116POPC   C4B29122  39.261  22.651   7.758
 2117POPC   NC329123   5.725  28.709   9.292
 2117POPC   PO429124   5.578  28.154   9.695
 2117POPC   GL129125   5.920  28.141   9.273
 2117POPC   GL229126   5.914  28.425   8.941
 2117POPC   C1A29127   6.106  27.998   8.841
 2117POPC   D2A29128   6.224  28.321   8.532
 2117POPC   C3A29129   6.033  28.240   8.155
 2117POPC   C4A29130   6.274  27.932   7.953
 2117POPC   C1B29131   5.676  28.178   8.591
 2117POPC   C2B29132   5.482  28.083   8.179
 2117POPC   C3B29133   5.501  28.336   7.789
 2117POPC   C4B29134   5.574  28.518   7.402
 2118POPC   NC329135   0.237  30.252   9.781
 2118POPC   PO429136   0.058  29.599   9.667
 2118POPC   GL129137   0.227  29.751   9.227
 2118POPC   GL229138   0.589  29.752   9.078
 2118POPC   C1A29139   0.220  29.753   8.750
 2118POPC   D2A29140   0.139  29.972   8.374
 2118POPC   C3A29141   0.312  29.713   8.083
 2118POPC   C4A29142   0.264  29.630   7.658
 2118POPC   C1B29143   0.635  30.082   8.749
 2118POPC   C2B29144   0.659  30.080   8.285
 2118POPC   C3B29145   0.644  29.981   7.828
 2118POPC   C4B29146   0.754  29.574   7.716
 2119POPC   NC329147   1.797   8.749   9.632
 2119POPC   PO429148   1.751   9.388   9.538
 2119POPC   GL129149   1.949   9.049   9.218
 2119POPC   GL229150   1.840   8.699   9.141
 2119POPC   C1A29151   2.120   8.949   8.761
 2119POPC   D2A29152   1.881   9.117   8.394
 2119POPC   C3A29153   1.980   9.098   7.984
 2119POPC   C4A29154   2.346   9.040   7.742
 2119POPC   C1B29155   1.824   8.517   8.740
 2119POPC   C2B29156   1.980   8.613   8.350
 2119POPC   C3B29157   2.078   8.605   7.910
 2119POPC   C4B29158   1.768   8.762   7.630
 2120POPC   NC329159  19.462   5.540   9.426
 2120POPC   PO429160  19.726   4.964   9.600
 2120POPC   GL129161  19.811   4.946   9.169
 2120POPC   GL229162  20.090   4.755   9.088
 2120POPC   C1A29163  19.698   5.151   8.775
 2120POPC   D2A29164  19.692   4.964   8.402
 2120POPC   C3A29165  19.740   5.189   8.085
 2120POPC   C4A29166  19.692   5.021   7.724
 2120POPC   C1B29167  20.129   4.915   8.695
 2120POPC   C2B29168  20.162   4.776   8.290
 2120POPC   C3B29169  20.180   4.980   7.890
 2120POPC   C4B29170  20.101   4.889   7.439
 2121POPC   NC329171  28.207  39.010   9.420
 2121POPC   PO429172  27.991  38.390   9.531
 2121POPC   GL129173  28.218  38.534   9.182
 2121POPC   GL229174  28.542  38.693   9.180
 2121POPC   C1A29175  28.058  38.689   8.811
 2121POPC   D2A29176  28.099  38.629   8.381
 2121POPC   C3A29177  28.180  38.227   8.184
 2121POPC   C4A29178  28.282  38.226   7.762
 2121POPC   C1B29179  28.563  38.547   8.750
 2121POPC   C2B29180  28.635  38.441   8.316
 2121POPC   C3B29181  28.426  38.657   7.968
 2121POPC   C4B29182  28.602  38.730   7.560
 2122POPC   NC329183  38.168  34.866   9.299
 2122POPC   PO429184  37.581  34.770   9.573
 2122POPC   GL129185  37.782  34.565   9.181
 2122POPC   GL229186  38.082  34.350   9.278
 2122POPC   C1A29187  37.799  34.753   8.738
 2122POPC   D2A29188  37.529  34.720   8.333
 2122POPC   C3A29189  37.521  34.820   7.872
 2122POPC   C4A29190  37.601  34.573   7.454
 2122POPC   C1B29191  38.144  34.315   8.821
 2122POPC   C2B29192  37.968  34.427   8.400
 2122POPC   C3B29193  37.791  34.386   7.995
 2122POPC   C4B29194  38.035  34.378   7.610
 2123POPC   NC329195  10.576   4.102   9.537
 2123POPC   PO429196  10.106   4.607   9.478
 2123POPC   GL129197  10.399   4.425   9.158
 2123POPC   GL229198  10.704   4.206   9.071
 2123POPC   C1A29199  10.605   4.607   8.800
 2123POPC   D2A29200  10.696   4.638   8.366
 2123POPC   C3A29201  10.389   4.683   8.019
 2123POPC   C4A29202  10.555   4.572   7.597
 2123POPC   C1B29203  10.386   4.157   8.708
 2123POPC   C2B29204  10.334   4.252   8.286
 2123POPC   C3B29205  10.637   4.235   7.962
 2123POPC   C4B29206  10.695   4.074   7.549
 2124POPC   NC329207  19.001  10.994   9.452
 2124POPC   PO429208  19.298  11.584   9.436
 2124POPC   GL129209  19.182  11.368   9.065
 2124POPC   GL229210  18.820  11.246   9.032
 2124POPC   C1A29211  19.118  11.410   8.623
 2124POPC   D2A29212  18.699  11.314   8.460
 2124POPC   C3A29213  18.713  11.258   8.027
 2124POPC   C4A29214  19.114  11.413   7.937
 2124POPC   C1B29215  18.960  10.933   8.713
 2124POPC   C2B29216  19.145  11.022   8.289
 2124POPC   C3B29217  19.198  10.859   7.883
 2124POPC   C4B29218  19.228  10.931   7.430
 2125POPC   NC329219  31.674  18.725   9.583
 2125POPC   PO429220  31.486  19.391   9.563
 2125POPC   GL129221  31.395  19.101   9.220
 2125POPC   GL229222  31.050  18.978   9.179
 2125POPC   C1A29223  31.630  18.978   8.848
 2125POPC   D2A29224  31.519  19.127   8.424
 2125POPC   C3A29225  31.843  19.213   8.107
 2125POPC   C4A29226  31.683  19.270   7.720
 2125POPC   C1B29227  31.112  18.953   8.728
 2125POPC   C2B29228  31.024  18.999   8.298
 2125POPC   C3B29229  31.224  19.207   7.954
 2125POPC   C4B29230  31.270  19.093   7.499
 2126POPC   NC329231  34.894  22.455   9.607
 2126POPC   PO429232  34.269  22.164   9.550
 2126POPC   GL129233  34.585  22.199   9.226
 2126POPC   GL229234  34.445  22.507   9.086
 2126POPC   C1A29235  34.628  22.112   8.769
 2126POPC   D2A29236  34.449  22.191   8.341
 2126POPC   C3A29237  34.595  22.010   7.939
 2126POPC   C4A29238  34.814  21.671   7.795
 2126POPC   C1B29239  34.862  22.552   8.932
 2126POPC   C2B29240  34.901  22.471   8.492
 2126POPC   C3B29241  34.924  22.544   8.066
 2126POPC   C4B29242  34.910  22.318   7.671
 2127POPC   NC329243  19.682  19.345   9.417
 2127POPC   PO429244  19.987  18.777   9.312
 2127POPC   GL129245  19.929  19.078   9.051
 2127POPC   GL229246  19.574  19.058   9.011
 2127POPC   C1A29247  19.956  19.067   8.637
 2127POPC   D2A29248  19.837  18.924   8.266
 2127POPC   C3A29249  19.867  19.310   8.073
 2127POPC   C4A29250  19.927  19.326   7.677
 2127POPC   C1B29251  19.633  18.677   8.776
 2127POPC   C2B29252  19.513  18.518   8.401
 2127POPC   C3B29253  19.475  18.669   8.004
 2127POPC   C4B29254  19.555  19.011   7.736
 2128POPC   NC329255  43.602  28.686   9.530
 2128POPC   PO429256  43.931  28.109   9.585
 2128POPC   GL129257  44.007  28.232   9.168
 2128POPC   GL229258  43.852  28.571   9.080
 2128POPC   C1A29259  43.989  27.986   8.780
 2128POPC   D2A29260  44.191  28.064   8.391
 2128POPC   C3A29261  44.036  27.993   7.990
 2128POPC   C4A29262  43.706  28.090   7.684
 2128POPC   C1B29263  43.817  28.787   8.651
 2128POPC   C2B29264  43.774  28.748   8.203
 2128POPC   C3B29265  43.913  28.495   7.938
 2128POPC   C4B29266  44.278  28.445   7.806
 2129POPC   NC329267  25.704  18.657   9.445
 2129POPC   PO429268  25.114  19.067   9.497
 2129POPC   GL129269  25.280  19.170   9.120
 2129POPC   GL229270  25.377  18.827   9.051
 2129POPC   C1A29271  25.513  19.257   8.730
 2129POPC   D2A29272  25.292  19.271   8.327
 2129POPC   C3A29273  25.422  19.058   7.918
 2129POPC   C4A29274  25.646  19.157   7.531
 2129POPC   C1B29275  25.122  18.924   8.682
 2129POPC   C2B29276  25.091  18.808   8.265
 2129POPC   C3B29277  25.101  18.632   7.879
 2129POPC   C4B29278  24.841  18.478   7.507
 2130POPC   NC329279  30.884  43.576   9.866
 2130POPC   PO429280  30.596  44.206   9.821
 2130POPC   GL129281  30.663  44.030   9.281
 2130POPC   GL229282  30.899  44.112   9.016
 2130POPC   C1A29283  30.486  43.857   8.846
 2130POPC   D2A29284  30.283  43.959   8.447
 2130POPC   C3A29285  30.514  43.781   8.088
 2130POPC   C4A29286  30.322  43.745   7.709
 2130POPC   C1B29287  30.964  43.684   8.849
 2130POPC   C2B29288  30.810  43.532   8.469
 2130POPC   C3B29289  30.887  43.394   8.072
 2130POPC   C4B29290  30.849  43.543   7.669
 2131POPC   NC329291  27.123  30.803   9.456
 2131POPC   PO429292  27.684  30.410   9.676
 2131POPC   GL129293  27.607  30.472   9.254
 2131POPC   GL229294  27.668  30.825   9.186
 2131POPC   C1A29295  27.712  30.314   8.868
 2131POPC   D2A29296  27.919  30.341   8.486
 2131POPC   C3A29297  27.747  30.593   8.175
 2131POPC   C4A29298  27.694  30.333   7.812
 2131POPC   C1B29299  27.623  30.854   8.715
 2131POPC   C2B29300  27.328  31.061   8.429
 2131POPC   C3B29301  27.373  31.028   7.984
 2131POPC   C4B29302  27.649  30.828   7.688
 2132POPC   NC329303  15.435  15.412   9.672
 2132POPC   PO429304  14.847  15.122   9.481
 2132POPC   GL129305  15.265  15.193   9.211
 2132POPC   GL229306  15.530  15.491   9.186
 2132POPC   C1A29307  15.172  15.052   8.783
 2132POPC   D2A29308  14.801  14.993   8.521
 2132POPC   C3A29309  14.926  15.034   8.106
 2132POPC   C4A29310  15.091  15.177   7.753
 2132POPC   C1B29311  15.312  15.536   8.797
 2132POPC   C2B29312  15.222  15.434   8.354
 2132POPC   C3B29313  15.472  15.442   7.943
 2132POPC   C4B29314  15.421  15.462   7.468
 2133POPC   NC329315   7.805  44.402   9.751
 2133POPC   PO429316   8.319  44.771   9.580
 2133POPC   GL129317   8.260  44.789   9.156
 2133POPC   GL229318   8.296  44.418   9.140
 2133POPC   C1A29319   8.058  44.756   8.764
 2133POPC   D2A29320   8.094  44.457   8.442
 2133POPC   C3A29321   7.961  44.511   8.034
 2133POPC   C4A29322   8.066  44.788   7.718
 2133POPC   C1B29323   8.517  44.498   8.769
 2133POPC   C2B29324   8.568  44.689   8.387
 2133POPC   C3B29325   8.491  44.573   7.983
 2133POPC   C4B29326   8.587  44.778   7.609
 2134POPC   NC329327  14.949  44.039   9.572
 2134POPC   PO429328  15.370  43.560   9.510
 2134POPC   GL129329  15.279  43.881   9.217
 2134POPC   GL229330  14.958  43.723   9.164
 2134POPC   C1A29331  15.171  44.063   8.838
 2134POPC   D2A29332  15.353  44.057   8.441
 2134POPC   C3A29333  15.176  44.119   8.063
 2134POPC   C4A29334  15.203  43.856   7.732
 2134POPC   C1B29335  14.713  43.755   8.815
 2134POPC   C2B29336  14.856  43.891   8.441
 2134POPC   C3B29337  14.993  43.631   8.139
 2134POPC   C4B29338  14.709  43.628   7.795
 2135POPC   NC329339  40.763   1.685   9.515
 2135POPC   PO429340  41.281   2.128   9.534
 2135POPC   GL129341  40.988   2.169   9.187
 2135POPC   GL229342  40.704   2.361   9.308
 2135POPC   C1A29343  40.715   1.945   8.854
 2135POPC   D2A29344  40.501   2.053   8.459
 2135POPC   C3A29345  40.577   1.786   8.132
 2135POPC   C4A29346  40.735   1.781   7.736
 2135POPC   C1B29347  40.629   2.454   8.875
 2135POPC   C2B29348  40.814   2.457   8.471
 2135POPC   C3B29349  40.806   2.250   8.073
 2135POPC   C4B29350  40.443   2.209   7.802
 2136POPC   NC329351  18.046  25.786   9.339
 2136POPC   PO429352  18.507  26.312   9.435
 2136POPC   GL129353  18.377  26.113   9.094
 2136POPC   GL229354  18.480  25.805   9.072
 2136POPC   C1A29355  18.119  26.068   8.745
 2136POPC   D2A29356  18.031  26.187   8.340
 2136POPC   C3A29357  18.187  25.986   8.017
 2136POPC   C4A29358  18.119  25.749   7.675
 2136POPC   C1B29359  18.463  25.592   8.751
 2136POPC   C2B29360  18.264  25.640   8.395
 2136POPC   C3B29361  18.450  25.551   8.026
 2136POPC   C4B29362  18.601  25.470   7.648
 2137POPC   NC329363  40.303   9.893   9.492
 2137POPC   PO429364  41.024   9.915   9.607
 2137POPC   GL129365  40.787   9.838   9.232
 2137POPC   GL229366  40.568   9.538   9.222
 2137POPC   C1A29367  40.877   9.944   8.810
 2137POPC   D2A29368  40.680   9.877   8.425
 2137POPC   C3A29369  40.793   9.924   8.004
 2137POPC   C4A29370  41.095   9.702   7.730
 2137POPC   C1B29371  40.569   9.512   8.773
 2137POPC   C2B29372  40.724   9.341   8.358
 2137POPC   C3B29373  40.683   9.427   7.908
 2137POPC   C4B29374  40.458   9.424   7.467
 2138POPC   NC329375  28.726  43.864   9.754
 2138POPC   PO429376  28.109  44.068   9.608
 2138POPC   GL129377  28.224  43.844   9.227
 2138POPC   GL229378  28.524  43.895   9.175
 2138POPC   C1A29379  28.204  44.004   8.770
 2138POPC   D2A29380  28.398  43.867   8.359
 2138POPC   C3A29381  28.437  44.067   7.968
 2138POPC   C4A29382  28.425  43.834   7.584
 2138POPC   C1B29383  28.671  43.800   8.766
 2138POPC   C2B29384  28.809  44.182   8.551
 2138POPC   C3B29385  28.866  44.277   8.121
 2138POPC   C4B29386  28.913  44.051   7.742
 2139POPC   NC329387   1.587  36.984   9.464
 2139POPC   PO429388   2.287  37.089   9.487
 2139POPC   GL129389   2.031  36.909   9.148
 2139POPC   GL229390   1.851  37.183   9.071
 2139POPC   C1A29391   1.893  36.659   8.765
 2139POPC   D2A29392   1.853  36.818   8.338
 2139POPC   C3A29393   1.980  36.548   8.007
 2139POPC   C4A29394   1.977  36.708   7.590
 2139POPC   C1B29395   2.099  37.128   8.696
 2139POPC   C2B29396   2.294  37.223   8.343
 2139POPC   C3B29397   2.192  37.026   7.985
 2139POPC   C4B29398   2.114  37.209   7.607
 2140POPC   NC329399  16.581  21.112   9.389
 2140POPC   PO429400  16.924  21.581   9.664
 2140POPC   GL129401  16.810  21.529   9.245
 2140POPC   GL229402  16.458  21.624   9.226
 2140POPC   C1A29403  16.712  21.408   8.818
 2140POPC   D2A29404  16.765  21.204   8.468
 2140POPC   C3A29405  16.830  21.411   8.117
 2140POPC   C4A29406  16.736  21.279   7.713
 2140POPC   C1B29407  16.325  21.717   8.800
 2140POPC   C2B29408  16.524  21.735   8.409
 2140POPC   C3B29409  16.418  21.696   7.977
 2140POPC   C4B29410  16.498  22.080   7.776
 2141POPC   NC329411  10.255   8.601   9.547
 2141POPC   PO429412  10.551   9.280   9.404
 2141POPC   GL129413  10.714   8.929   9.145
 2141POPC   GL229414  10.440   8.700   9.071
 2141POPC   C1A29415  10.986   9.028   8.778
 2141POPC   D2A29416  11.084   9.154   8.345
 2141POPC   C3A29417  10.722   9.036   8.054
 2141POPC   C4A29418  10.544   8.707   7.786
 2141POPC   C1B29419  10.144   8.542   8.739
 2141POPC   C2B29420  10.224   8.600   8.284
 2141POPC   C3B29421  10.105   8.480   7.880
 2141POPC   C4B29422  10.264   8.458   7.428
 2142POPC   NC329423   6.795  32.899   9.534
 2142POPC   PO429424   6.237  32.654   9.537
 2142POPC   GL129425   6.455  32.995   9.163
 2142POPC   GL229426   6.834  33.147   9.108
 2142POPC   C1A29427   6.495  33.143   8.714
 2142POPC   D2A29428   6.619  32.915   8.339
 2142POPC   C3A29429   6.638  33.054   7.946
 2142POPC   C4A29430   6.648  32.743   7.687
 2142POPC   C1B29431   6.972  33.381   8.751
 2142POPC   C2B29432   6.933  33.297   8.315
 2142POPC   C3B29433   7.122  33.359   7.930
 2142POPC   C4B29434   7.005  33.097   7.579
 2143POPC   NC329435  20.976   8.201   9.399
 2143POPC   PO429436  20.299   8.244   9.666
 2143POPC   GL129437  20.456   7.983   9.285
 2143POPC   GL229438  20.487   8.285   9.170
 2143POPC   C1A29439  20.676   7.954   8.846
 2143POPC   D2A29440  20.838   8.229   8.472
 2143POPC   C3A29441  20.915   8.260   7.988
 2143POPC   C4A29442  20.651   8.161   7.613
 2143POPC   C1B29443  20.517   8.455   8.794
 2143POPC   C2B29444  20.239   8.487   8.483
 2143POPC   C3B29445  20.179   8.628   8.095
 2143POPC   C4B29446  20.447   8.613   7.730
 2144POPC   NC329447  41.748  38.270   9.692
 2144POPC   PO429448  41.243  38.664   9.543
 2144POPC   GL129449  41.415  38.378   9.252
 2144POPC   GL229450  41.659  38.560   9.081
 2144POPC   C1A29451  41.276  38.324   8.817
 2144POPC   D2A29452  41.291  38.174   8.391
 2144POPC   C3A29453  41.517  38.382   8.094
 2144POPC   C4A29454  41.463  38.479   7.664
 2144POPC   C1B29455  41.806  38.761   8.714
 2144POPC   C2B29456  41.731  38.800   8.281
 2144POPC   C3B29457  41.862  38.737   7.839
 2144POPC   C4B29458  41.868  38.532   7.362
 2145POPC   NC329459  31.191  17.030   9.219
 2145POPC   PO429460  31.322  16.456   9.583
 2145POPC   GL129461  31.467  16.601   9.191
 2145POPC   GL229462  31.101  16.535   9.123
 2145POPC   C1A29463  31.611  16.650   8.722
 2145POPC   D2A29464  31.810  16.603   8.262
 2145POPC   C3A29465  31.518  16.753   7.919
 2145POPC   C4A29466  31.583  16.922   7.463
 2145POPC   C1B29467  31.108  16.507   8.701
 2145POPC   C2B29468  31.174  16.687   8.297
 2145POPC   C3B29469  30.982  16.600   7.897
 2145POPC   C4B29470  31.227  16.556   7.538
 2146POPC   NC329471  23.358  44.242   9.479
 2146POPC   PO429472  24.026  44.111   9.421
 2146POPC   GL129473  23.749  44.211   9.140
 2146POPC   GL229474  23.502  43.960   9.084
 2146POPC   C1A29475  23.756  44.242   8.707
 2146POPC   D2A29476  24.001  44.055   8.364
 2146POPC   C3A29477  24.176  44.296   8.044
 2146POPC   C4A29478  23.822  44.236   7.780
 2146POPC   C1B29479  23.316  43.750   8.756
 2146POPC   C2B29480  23.405  43.616   8.299
 2146POPC   C3B29481  23.477  43.634   7.832
 2146POPC   C4B29482  23.387  43.551   7.353
 2147POPC   NC329483  43.425  32.112   9.387
 2147POPC   PO429484  44.112  32.072   9.391
 2147POPC   GL129485  43.886  32.100   9.064
 2147POPC   GL229486  43.925  32.460   9.070
 2147POPC   C1A29487  44.001  32.134   8.643
 2147POPC   D2A29488  44.177  31.974   8.251
 2147POPC   C3A29489  43.934  32.039   7.904
 2147POPC   C4A29490  43.500  31.953   7.806
 2147POPC   C1B29491  43.583  32.441   8.814
 2147POPC   C2B29492  43.512  32.222   8.439
 2147POPC   C3B29493  43.580  32.400   8.022
 2147POPC   C4B29494  43.590  32.775   7.828
 2148POPC   NC329495   8.167  27.224   9.324
 2148POPC   PO429496   8.620  26.680   9.480
 2148POPC   GL129497   8.539  26.920   9.130
 2148POPC   GL229498   8.217  26.761   9.078
 2148POPC   C1A29499   8.525  26.856   8.681
 2148POPC   D2A29500   8.248  26.875   8.327
 2148POPC   C3A29501   8.481  26.827   7.976
 2148POPC   C4A29502   8.678  27.047   7.671
 2148POPC   C1B29503   7.934  26.870   8.749
 2148POPC   C2B29504   7.721  26.924   8.325
 2148POPC   C3B29505   7.933  26.887   7.906
 2148POPC   C4B29506   7.824  26.523   7.606
 2149POPC   NC329507  16.166  38.242   9.493
 2149POPC   PO429508  15.870  38.861   9.611
 2149POPC   GL129509  15.968  38.624   9.233
 2149POPC   GL229510  15.721  38.402   9.119
 2149POPC   C1A29511  16.128  38.383   8.850
 2149POPC   D2A29512  15.979  38.505   8.458
 2149POPC   C3A29513  15.978  38.262   8.085
 2149POPC   C4A29514  16.161  38.481   7.747
 2149POPC   C1B29515  15.590  38.275   8.726
 2149POPC   C2B29516  15.518  38.370   8.282
 2149POPC   C3B29517  15.566  38.443   7.844
 2149POPC   C4B29518  15.737  38.561   7.449
 2150POPC   NC329519  17.418  44.713   9.506
 2150POPC   PO429520  17.937  44.369   9.228
 2150POPC   GL129521  17.477  44.344   9.141
 2150POPC   GL229522  17.358  44.707   9.000
 2150POPC   C1A29523  17.252  44.259   8.774
 2150POPC   D2A29524  17.532  44.480   8.489
 2150POPC   C3A29525  17.353  44.484   8.115
 2150POPC   C4A29526  17.527  44.387   7.735
 2150POPC   C1B29527  17.751  44.901   8.779
 2150POPC   C2B29528  17.913  44.960   8.331
 2150POPC   C3B29529  17.699  44.814   7.950
 2150POPC   C4B29530  17.271  44.873   7.767
 2151POPC   NC329531  21.521  44.733   9.726
 2151POPC   PO429532  20.807  44.822   9.537
 2151POPC   GL129533  21.165  44.827   9.239
 2151POPC   GL229534  21.452  44.568   9.233
 2151POPC   C1A29535  21.266  44.894   8.802
 2151POPC   D2A29536  21.585  44.815   8.472
 2151POPC   C3A29537  21.402  44.861   8.070
 2151POPC   C4A29538  21.095  44.565   7.893
 2151POPC   C1B29539  21.466  44.389   8.799
 2151POPC   C2B29540  21.623  44.306   8.374
 2151POPC   C3B29541  21.570  44.404   7.924
 2151POPC   C4B29542  21.456  44.380   7.454
 2152POPC   NC329543  41.277  40.667   9.432
 2152POPC   PO429544  41.892  40.462   9.457
 2152POPC   GL129545  41.687  40.701   9.123
 2152POPC   GL229546  41.360  40.918   8.998
 2152POPC   C1A29547  41.603  40.553   8.749
 2152POPC   D2A29548  41.448  40.666   8.404
 2152POPC   C3A29549  41.679  40.498   8.090
 2152POPC   C4A29550  41.556  40.559   7.712
 2152POPC   C1B29551  41.731  41.076   8.796
 2152POPC   C2B29552  41.815  41.005   8.396
 2152POPC   C3B29553  41.576  41.007   8.026
 2152POPC   C4B29554  41.723  41.339   7.806
 2153POPC   NC329555  19.589  18.682   9.506
 2153POPC   PO429556  20.225  18.437   9.718
 2153POPC   GL129557  19.961  18.288   9.309
 2153POPC   GL229558  19.719  18.083   9.222
 2153POPC   C1A29559  20.021  18.322   8.841
 2153POPC   D2A29560  19.906  18.164   8.431
 2153POPC   C3A29561  20.023  18.393   8.039
 2153POPC   C4A29562  19.937  18.665   7.699
 2153POPC   C1B29563  19.506  18.161   8.833
 2153POPC   C2B29564  19.383  18.024   8.436
 2153POPC   C3B29565  19.576  18.126   8.045
 2153POPC   C4B29566  19.541  18.317   7.659
 2154POPC   NC329567  22.718  40.728   9.879
 2154POPC   PO429568  22.118  40.581   9.651
 2154POPC   GL129569  22.068  40.663   9.144
 2154POPC   GL229570  22.216  41.015   9.043
 2154POPC   C1A29571  21.974  40.693   8.676
 2154POPC   D2A29572  22.173  40.765   8.223
 2154POPC   C3A29573  22.081  40.627   7.786
 2154POPC   C4A29574  21.878  40.273   7.548
 2154POPC   C1B29575  22.265  41.112   8.602
 2154POPC   C2B29576  22.228  41.270   8.209
 2154POPC   C3B29577  22.349  41.095   7.805
 2154POPC   C4B29578  22.500  40.838   7.446
 2155POPC   NC329579  12.940  31.840   9.271
 2155POPC   PO429580  12.600  31.313   9.560
 2155POPC   GL129581  12.659  31.439   9.096
 2155POPC   GL229582  13.011  31.404   9.027
 2155POPC   C1A29583  12.690  31.343   8.628
 2155POPC   D2A29584  12.887  31.494   8.269
 2155POPC   C3A29585  12.786  31.436   7.868
 2155POPC   C4A29586  12.571  31.696   7.626
 2155POPC   C1B29587  13.082  31.743   8.669
 2155POPC   C2B29588  13.146  31.936   8.254
 2155POPC   C3B29589  13.111  31.828   7.814
 2155POPC   C4B29590  13.001  31.532   7.419
 2156POPC   NC329591  35.395  28.772   9.261
 2156POPC   PO429592  35.129  29.272   9.647
 2156POPC   GL129593  35.216  29.320   9.212
 2156POPC   GL229594  35.558  29.276   9.233
 2156POPC   C1A29595  35.308  29.181   8.774
 2156POPC   D2A29596  35.367  28.977   8.380
 2156POPC   C3A29597  35.263  29.340   8.166
 2156POPC   C4A29598  35.210  29.470   7.772
 2156POPC   C1B29599  35.751  29.454   8.842
 2156POPC   C2B29600  35.631  29.637   8.431
 2156POPC   C3B29601  35.731  29.534   8.032
 2156POPC   C4B29602  35.668  29.102   7.926
 2157POPC   NC329603  19.340  23.901   9.410
 2157POPC   PO429604  19.817  23.481   9.490
 2157POPC   GL129605  19.846  23.632   9.106
 2157POPC   GL229606  19.773  23.971   9.154
 2157POPC   C1A29607  19.948  23.649   8.675
 2157POPC   D2A29608  19.851  23.870   8.318
 2157POPC   C3A29609  19.721  23.567   8.025
 2157POPC   C4A29610  19.457  23.621   7.659
 2157POPC   C1B29611  19.730  24.142   8.772
 2157POPC   C2B29612  20.022  24.327   8.509
 2157POPC   C3B29613  20.187  24.240   8.106
 2157POPC   C4B29614  19.947  23.987   7.799
 2158POPC   NC329615  35.775  25.492   9.476
 2158POPC   PO429616  35.221  25.222   9.521
 2158POPC   GL129617  35.188  25.305   9.123
 2158POPC   GL229618  34.933  25.103   8.918
 2158POPC   C1A29619  35.414  25.228   8.766
 2158POPC   D2A29620  35.293  25.173   8.362
 2158POPC   C3A29621  35.642  25.081   8.150
 2158POPC   C4A29622  35.787  25.220   7.791
 2158POPC   C1B29623  34.978  25.520   8.726
 2158POPC   C2B29624  35.056  25.650   8.302
 2158POPC   C3B29625  35.293  25.521   7.925
 2158POPC   C4B29626  35.316  25.334   7.520
 2159POPC   NC329627   2.148   5.402   9.511
 2159POPC   PO429628   1.757   5.901   9.499
 2159POPC   GL129629   1.799   6.117   9.136
 2159POPC   GL229630   2.151   5.984   9.159
 2159POPC   C1A29631   1.931   6.180   8.716
 2159POPC   D2A29632   1.942   5.915   8.351
 2159POPC   C3A29633   1.849   6.087   7.939
 2159POPC   C4A29634   1.828   5.794   7.586
 2159POPC   C1B29635   2.307   5.801   8.786
 2159POPC   C2B29636   2.414   5.707   8.356
 2159POPC   C3B29637   2.229   5.756   7.930
 2159POPC   C4B29638   2.356   5.682   7.463
 2160POPC   NC329639  15.681  14.712   9.638
 2160POPC   PO429640  16.341  14.533   9.629
 2160POPC   GL129641  16.092  14.574   9.224
 2160POPC   GL229642  15.723  14.540   9.163
 2160POPC   C1A29643  16.027  14.407   8.787
 2160POPC   D2A29644  16.199  14.052   8.566
 2160POPC   C3A29645  16.126  14.130   8.147
 2160POPC   C4A29646  16.219  14.274   7.740
 2160POPC   C1B29647  15.548  14.621   8.743
 2160POPC   C2B29648  15.655  14.530   8.308
 2160POPC   C3B29649  15.727  14.363   7.909
 2160POPC   C4B29650  15.725  14.398   7.472
 2161POPC   NC329651  15.437  11.535   9.388
 2161POPC   PO429652  16.062  11.381   9.682
 2161POPC   GL129653  15.976  11.237   9.269
 2161POPC   GL229654  16.296  11.396   9.173
 2161POPC   C1A29655  15.738  11.264   8.845
 2161POPC   D2A29656  15.892  11.468   8.461
 2161POPC   C3A29657  15.692  11.461   8.039
 2161POPC   C4A29658  15.763  11.019   7.876
 2161POPC   C1B29659  16.263  11.127   8.813
 2161POPC   C2B29660  16.381  11.208   8.373
 2161POPC   C3B29661  16.191  11.394   8.017
 2161POPC   C4B29662  16.258  11.306   7.616
 2162POPC   NC329663   5.574  30.942   9.388
 2162POPC   PO429664   6.260  30.808   9.469
 2162POPC   GL129665   6.124  30.543   9.162
 2162POPC   GL229666   5.796  30.631   9.056
 2162POPC   C1A29667   6.138  30.763   8.732
 2162POPC   D2A29668   5.935  30.667   8.379
 2162POPC   C3A29669   5.984  30.846   8.000
 2162POPC   C4A29670   5.766  30.734   7.649
 2162POPC   C1B29671   5.630  30.930   8.713
 2162POPC   C2B29672   5.264  30.969   8.428
 2162POPC   C3B29673   5.394  31.008   7.979
 2162POPC   C4B29674   5.360  31.039   7.519
 2163POPC   NC329675  42.037  11.519   9.469
 2163POPC   PO429676  42.403  11.017   9.724
 2163POPC   GL129677  42.483  11.165   9.216
 2163POPC   GL229678  42.234  11.356   9.043
 2163POPC   C1A29679  42.397  10.999   8.739
 2163POPC   D2A29680  42.594  11.077   8.360
 2163POPC   C3A29681  42.461  10.949   7.943
 2163POPC   C4A29682  42.147  11.074   7.644
 2163POPC   C1B29683  42.602  11.502   8.817
 2163POPC   C2B29684  42.640  11.614   8.403
 2163POPC   C3B29685  42.459  11.459   8.038
 2163POPC   C4B29686  42.482  11.707   7.680
 2164POPC   NC329687   6.193   0.365   9.593
 2164POPC   PO429688   5.594   0.143   9.716
 2164POPC   GL129689   5.633   0.330   9.238
 2164POPC   GL229690   5.953   0.524   9.178
 2164POPC   C1A29691   5.724   0.258   8.782
 2164POPC   D2A29692   5.963   0.052   8.445
 2164POPC   C3A29693   5.789   0.109   8.044
 2164POPC   C4A29694   6.041   0.297   7.764
 2164POPC   C1B29695   5.649   0.750   8.927
 2164POPC   C2B29696   5.748   0.729   8.504
 2164POPC   C3B29697   5.633   0.829   8.105
 2164POPC   C4B29698   5.794   0.741   7.720
 2165POPC   NC329699  27.853  16.673   9.471
 2165POPC   PO429700  27.312  16.344   9.654
 2165POPC   GL129701  27.407  16.566   9.173
 2165POPC   GL229702  27.430  16.906   9.119
 2165POPC   C1A29703  27.560  16.754   8.674
 2165POPC   D2A29704  27.457  17.032   8.276
 2165POPC   C3A29705  27.486  16.910   7.802
 2165POPC   C4A29706  27.388  16.553   7.555
 2165POPC   C1B29707  27.832  17.112   8.978
 2165POPC   C2B29708  27.961  17.070   8.566
 2165POPC   C3B29709  27.959  16.901   8.178
 2165POPC   C4B29710  27.958  17.085   7.786
 2166POPC   NC329711  25.551   7.280   9.463
 2166POPC   PO429712  26.199   7.260   9.493
 2166POPC   GL129713  25.995   7.468   9.136
 2166POPC   GL229714  25.772   7.273   8.972
 2166POPC   C1A29715  26.201   7.499   8.720
 2166POPC   D2A29716  26.553   7.510   8.433
 2166POPC   C3A29717  26.345   7.452   8.040
 2166POPC   C4A29718  26.373   7.626   7.660
 2166POPC   C1B29719  25.700   7.523   8.611
 2166POPC   C2B29720  25.739   7.433   8.185
 2166POPC   C3B29721  25.644   7.430   7.736
 2166POPC   C4B29722  25.834   7.454   7.316
 2167POPC   NC329723  25.763  20.291   9.756
 2167POPC   PO429724  25.257  20.712   9.628
 2167POPC   GL129725  25.334  20.788   9.193
 2167POPC   GL229726  25.184  21.093   9.172
 2167POPC   C1A29727  25.398  20.566   8.799
 2167POPC   D2A29728  25.640  20.651   8.408
 2167POPC   C3A29729  25.406  20.654   8.028
 2167POPC   C4A29730  25.115  20.724   7.642
 2167POPC   C1B29731  25.039  20.994   8.784
 2167POPC   C2B29732  25.103  20.760   8.424
 2167POPC   C3B29733  24.999  20.981   8.045
 2167POPC   C4B29734  24.827  21.141   7.674
 2168POPC   NC329735  14.499  15.495   9.331
 2168POPC   PO429736  14.250  15.088   9.793
 2168POPC   GL129737  14.292  15.018   9.304
 2168POPC   GL229738  14.153  15.290   9.006
 2168POPC   C1A29739  14.123  14.804   8.923
 2168POPC   D2A29740  14.114  15.047   8.526
 2168POPC   C3A29741  14.410  14.976   8.165
 2168POPC   C4A29742  14.203  14.979   7.775
 2168POPC   C1B29743  14.485  15.388   8.686
 2168POPC   C2B29744  14.664  15.463   8.280
 2168POPC   C3B29745  14.599  15.332   7.839
 2168POPC   C4B29746  14.520  15.344   7.372
 2169POPC   NC329747  44.318  16.908   9.545
 2169POPC   PO429748  44.883  16.455   9.591
 2169POPC   GL129749  44.656  16.650   9.292
 2169POPC   GL229750  44.424  16.421   9.325
 2169POPC   C1A29751  44.695  16.918   8.917
 2169POPC   D2A29752  44.731  16.708   8.539
 2169POPC   C3A29753  44.776  16.780   8.133
 2169POPC   C4A29754  44.589  16.774   7.749
 2169POPC   C1B29755  44.412  16.461   8.868
 2169POPC   C2B29756  44.255  16.567   8.456
 2169POPC   C3B29757  44.311  16.420   8.070
 2169POPC   C4B29758  44.128  16.535   7.736
 2170POPC   NC329759   7.994   4.972   9.401
 2170POPC   PO429760   8.371   5.459   9.764
 2170POPC   GL129761   8.402   5.312   9.293
 2170POPC   GL229762   8.527   4.974   9.186
 2170POPC   C1A29763   8.284   5.258   8.835
 2170POPC   D2A29764   8.315   5.038   8.448
 2170POPC   C3A29765   8.255   5.313   8.108
 2170POPC   C4A29766   8.083   5.360   7.705
 2170POPC   C1B29767   8.614   4.710   8.791
 2170POPC   C2B29768   8.476   4.538   8.375
 2170POPC   C3B29769   8.109   4.624   8.131
 2170POPC   C4B29770   8.102   4.839   7.746
 2171POPC   NC329771  25.210  24.966   9.506
 2171POPC   PO429772  25.510  25.628   9.460
 2171POPC   GL129773  25.368  25.393   9.134
 2171POPC   GL229774  25.073  25.214   9.035
 2171POPC   C1A29775  25.435  25.428   8.702
 2171POPC   D2A29776  25.175  25.347   8.351
 2171POPC   C3A29777  25.374  25.370   8.006
 2171POPC   C4A29778  25.166  25.499   7.686
 2171POPC   C1B29779  25.135  24.969   8.666
 2171POPC   C2B29780  24.896  24.870   8.307
 2171POPC   C3B29781  25.031  25.003   7.939
 2171POPC   C4B29782  25.360  24.941   7.689
 2172POPC   NC329783  23.857  13.952   9.491
 2172POPC   PO429784  23.615  13.258   9.525
 2172POPC   GL129785  23.714  13.543   9.214
 2172POPC   GL229786  24.095  13.557   9.248
 2172POPC   C1A29787  23.694  13.565   8.770
 2172POPC   D2A29788  23.475  13.592   8.388
 2172POPC   C3A29789  23.695  13.617   8.006
 2172POPC   C4A29790  23.765  13.327   7.710
 2172POPC   C1B29791  24.213  13.580   8.807
 2172POPC   C2B29792  24.071  13.471   8.374
 2172POPC   C3B29793  24.210  13.557   7.947
 2172POPC   C4B29794  24.042  13.924   7.786
 2173POPC   NC329795  40.722   0.549   9.719
 2173POPC   PO429796  40.845   1.228   9.556
 2173POPC   GL129797  40.708   1.161   9.174
 2173POPC   GL229798  40.518   1.459   9.123
 2173POPC   C1A29799  40.909   1.272   8.781
 2173POPC   D2A29800  40.984   1.575   8.457
 2173POPC   C3A29801  40.920   1.369   8.043
 2173POPC   C4A29802  41.108   0.974   7.902
 2173POPC   C1B29803  40.399   1.235   8.761
 2173POPC   C2B29804  40.531   1.348   8.401
 2173POPC   C3B29805  40.368   1.331   8.024
 2173POPC   C4B29806  40.539   1.321   7.683
 2174POPC   NC329807  28.934  17.508   9.373
 2174POPC   PO429808  29.531  17.893   9.374
 2174POPC   GL129809  29.329  17.668   9.021
 2174POPC   GL229810  28.957  17.761   8.953
 2174POPC   C1A29811  29.244  17.677   8.560
 2174POPC   D2A29812  28.826  17.728   8.403
 2174POPC   C3A29813  28.861  17.475   8.064
 2174POPC   C4A29814  29.256  17.475   7.862
 2174POPC   C1B29815  28.835  17.363   8.773
 2174POPC   C2B29816  28.911  17.089   8.442
 2174POPC   C3B29817  29.070  17.002   8.040
 2174POPC   C4B29818  28.942  16.788   7.687
 2175POPC   NC329819  40.070   8.702   9.391
 2175POPC   PO429820  40.185   9.400   9.542
 2175POPC   GL129821  39.974   9.324   9.106
 2175POPC   GL229822  39.754   8.997   9.107
 2175POPC   C1A29823  39.858   9.189   8.659
 2175POPC   D2A29824  40.022   8.831   8.421
 2175POPC   C3A29825  40.259   9.073   8.119
 2175POPC   C4A29826  40.102   9.146   7.724
 2175POPC   C1B29827  39.706   8.582   8.865
 2175POPC   C2B29828  39.607   8.411   8.456
 2175POPC   C3B29829  39.813   8.490   8.051
 2175POPC   C4B29830  39.703   8.844   7.734
 2176POPC   NC329831  29.030  23.357   9.482
 2176POPC   PO429832  28.962  24.030   9.485
 2176POPC   GL129833  29.203  23.779   9.219
 2176POPC   GL229834  29.503  23.568   9.219
 2176POPC   C1A29835  29.122  23.735   8.821
 2176POPC   D2A29836  29.315  23.830   8.485
 2176POPC   C3A29837  29.114  24.009   8.144
 2176POPC   C4A29838  29.082  23.935   7.725
 2176POPC   C1B29839  29.484  23.321   8.839
 2176POPC   C2B29840  29.195  23.314   8.503
 2176POPC   C3B29841  29.291  23.293   8.094
 2176POPC   C4B29842  29.677  23.254   7.895
 2177POPC   NC329843  29.455   5.887   9.833
 2177POPC   PO429844  28.970   6.150   9.454
 2177POPC   GL129845  29.073   5.840   9.080
 2177POPC   GL229846  29.033   6.149   8.927
 2177POPC   C1A29847  29.396   5.892   8.701
 2177POPC   D2A29848  29.594   5.736   8.361
 2177POPC   C3A29849  29.391   5.567   8.024
 2177POPC   C4A29850  29.429   5.799   7.654
 2177POPC   C1B29851  28.883   5.854   8.609
 2177POPC   C2B29852  29.081   5.910   8.243
 2177POPC   C3B29853  29.004   6.010   7.841
 2177POPC   C4B29854  29.175   6.260   7.561
 2178POPC   NC329855   8.362  13.443   9.529
 2178POPC   PO429856   8.520  13.987   9.219
 2178POPC   GL129857   8.271  13.719   9.010
 2178POPC   GL229858   8.215  13.395   9.056
 2178POPC   C1A29859   8.251  13.605   8.603
 2178POPC   D2A29860   8.522  13.529   8.292
 2178POPC   C3A29861   8.282  13.575   7.914
 2178POPC   C4A29862   8.067  13.737   7.565
 2178POPC   C1B29863   7.843  13.326   8.823
 2178POPC   C2B29864   7.683  13.140   8.436
 2178POPC   C3B29865   7.904  13.225   8.068
 2178POPC   C4B29866   7.798  13.210   7.665
 2179POPC   NC329867   4.531  17.540   9.524
 2179POPC   PO429868   3.871  17.449   9.505
 2179POPC   GL129869   4.163  17.473   9.147
 2179POPC   GL229870   4.334  17.156   9.109
 2179POPC   C1A29871   4.140  17.663   8.721
 2179POPC   D2A29872   4.342  17.968   8.429
 2179POPC   C3A29873   4.391  17.828   8.008
 2179POPC   C4A29874   4.026  17.841   7.755
 2179POPC   C1B29875   4.574  17.394   8.816
 2179POPC   C2B29876   4.501  17.473   8.384
 2179POPC   C3B29877   4.366  17.314   7.989
 2179POPC   C4B29878   4.626  17.201   7.697
 2180POPC   NC329879  32.727   4.925   9.732
 2180POPC   PO429880  33.138   5.295   9.411
 2180POPC   GL129881  33.114   4.982   9.142
 2180POPC   GL229882  32.776   4.853   9.210
 2180POPC   C1A29883  33.254   4.862   8.764
 2180POPC   D2A29884  33.480   5.033   8.415
 2180POPC   C3A29885  33.307   4.934   8.030
 2180POPC   C4A29886  33.382   5.101   7.632
 2180POPC   C1B29887  32.746   5.061   8.798
 2180POPC   C2B29888  32.916   4.947   8.402
 2180POPC   C3B29889  32.841   5.129   8.036
 2180POPC   C4B29890  32.661   5.159   7.667
 2181POPC   NC329891  15.970   5.288   9.585
 2181POPC   PO429892  16.184   4.706   9.474
 2181POPC   GL129893  15.946   4.916   9.161
 2181POPC   GL229894  15.860   5.276   9.105
 2181POPC   C1A29895  15.744   4.924   8.764
 2181POPC   D2A29896  15.864   4.845   8.379
 2181POPC   C3A29897  15.948   5.066   8.047
 2181POPC   C4A29898  15.766   5.042   7.687
 2181POPC   C1B29899  15.934   5.587   8.801
 2181POPC   C2B29900  16.080   5.642   8.413
 2181POPC   C3B29901  15.847   5.573   8.086
 2181POPC   C4B29902  16.038   5.465   7.741
 2182POPC   NC329903   4.967  23.618   9.559
 2182POPC   PO429904   4.333  23.701   9.329
 2182POPC   GL129905   4.783  23.783   9.094
 2182POPC   GL229906   5.157  23.878   9.126
 2182POPC   C1A29907   5.034  23.592   8.726
 2182POPC   D2A29908   5.042  23.789   8.324
 2182POPC   C3A29909   4.975  23.635   7.927
 2182POPC   C4A29910   5.204  23.643   7.572
 2182POPC   C1B29911   5.079  24.110   8.741
 2182POPC   C2B29912   4.782  24.215   8.418
 2182POPC   C3B29913   4.954  24.186   7.988
 2182POPC   C4B29914   4.974  24.113   7.512
 2183POPC   NC329915   8.531  17.649   9.513
 2183POPC   PO429916   9.060  17.220   9.741
 2183POPC   GL129917   8.862  17.338   9.245
 2183POPC   GL229918   9.102  17.514   8.989
 2183POPC   C1A29919   8.647  17.420   8.840
 2183POPC   D2A29920   8.933  17.479   8.475
 2183POPC   C3A29921   8.818  17.779   8.154
 2183POPC   C4A29922   8.656  17.645   7.748
 2183POPC   C1B29923   9.395  17.279   8.704
 2183POPC   C2B29924   9.281  17.139   8.283
 2183POPC   C3B29925   9.003  17.287   7.953
 2183POPC   C4B29926   9.111  17.514   7.566
 2184POPC   NC329927   7.378  21.110   9.831
 2184POPC   PO429928   7.093  21.575   9.365
 2184POPC   GL129929   7.392  21.370   9.108
 2184POPC   GL229930   7.545  21.085   9.286
 2184POPC   C1A29931   7.387  21.458   8.644
 2184POPC   D2A29932   7.453  21.531   8.200
 2184POPC   C3A29933   7.147  21.411   7.910
 2184POPC   C4A29934   7.018  21.802   7.865
 2184POPC   C1B29935   7.676  21.017   8.882
 2184POPC   C2B29936   7.611  20.990   8.476
 2184POPC   C3B29937   7.801  21.182   8.170
 2184POPC   C4B29938   7.626  21.236   7.752
 2185POPC   NC329939  10.405  44.430   9.410
 2185POPC   PO429940  10.793   0.050   9.445
 2185POPC   GL129941  10.581  44.826   9.144
 2185POPC   GL229942  10.832  44.561   9.072
 2185POPC   C1A29943  10.401  44.670   8.737
 2185POPC   D2A29944  10.140  44.597   8.355
 2185POPC   C3A29945  10.289  44.832   8.014
 2185POPC   C4A29946  10.422  44.666   7.566
 2185POPC   C1B29947  10.859  44.927   8.745
 2185POPC   C2B29948  10.691  44.879   8.319
 2185POPC   C3B29949  10.703  44.525   7.997
 2185POPC   C4B29950  10.898  44.478   7.592
 2186POPC   NC329951   5.531  17.346   9.828
 2186POPC   PO429952   4.974  17.629   9.642
 2186POPC   GL129953   5.123  17.724   9.266
 2186POPC   GL229954   4.830  17.877   9.167
 2186POPC   C1A29955   5.087  17.517   8.861
 2186POPC   D2A29956   5.000  17.367   8.454
 2186POPC   C3A29957   5.231  17.557   8.115
 2186POPC   C4A29958   5.096  17.473   7.688
 2186POPC   C1B29959   4.745  17.882   8.729
 2186POPC   C2B29960   4.837  17.860   8.305
 2186POPC   C3B29961   4.917  17.935   7.893
 2186POPC   C4B29962   4.891  17.883   7.473
 2187POPC   NC329963  41.421  36.729   9.464
 2187POPC   PO429964  41.406  37.305   9.108
 2187POPC   GL129965  41.344  36.869   8.987
 2187POPC   GL229966  41.037  36.661   9.091
 2187POPC   C1A29967  41.667  36.658   8.763
 2187POPC   D2A29968  41.928  36.489   8.453
 2187POPC   C3A29969  41.855  36.712   8.069
 2187POPC   C4A29970  41.588  37.060   7.916
 2187POPC   C1B29971  41.164  36.483   8.674
 2187POPC   C2B29972  41.389  36.557   8.289
 2187POPC   C3B29973  41.409  36.576   7.828
 2187POPC   C4B29974  41.357  36.601   7.369
 2188POPC   NC329975   6.050  14.297   9.212
 2188POPC   PO429976   5.869  13.739   9.535
 2188POPC   GL129977   5.938  13.535   9.133
 2188POPC   GL229978   5.870  13.867   8.978
 2188POPC   C1A29979   5.970  13.474   8.668
 2188POPC   D2A29980   5.951  13.837   8.371
 2188POPC   C3A29981   5.863  13.775   7.945
 2188POPC   C4A29982   5.949  13.379   7.761
 2188POPC   C1B29983   5.543  13.780   8.664
 2188POPC   C2B29984   5.313  13.787   8.288
 2188POPC   C3B29985   5.364  13.904   7.876
 2188POPC   C4B29986   5.526  13.697   7.530
 2189POPC   NC329987  12.219  19.221   9.530
 2189POPC   PO429988  12.112  18.558   9.641
 2189POPC   GL129989  12.123  18.825   9.249
 2189POPC   GL229990  11.847  19.090   9.190
 2189POPC   C1A29991  12.306  18.850   8.818
 2189POPC   D2A29992  12.124  19.019   8.427
 2189POPC   C3A29993  12.353  19.023   8.012
 2189POPC   C4A29994  12.316  19.405   7.736
 2189POPC   C1B29995  11.941  19.412   8.870
 2189POPC   C2B29996  11.814  19.501   8.432
 2189POPC   C3B29997  11.888  19.290   8.038
 2189POPC   C4B29998  11.949  19.024   7.695
 2190POPC   NC329999  27.803  18.926   9.585
 2190POPC   PO430000  27.566  19.544   9.715
 2190POPC   GL130001  27.646  19.345   9.195
 2190POPC   GL230002  27.664  18.986   9.117
 2190POPC   C1A30003  27.503  19.180   8.701
 2190POPC   D2A30004  27.296  19.029   8.296
 2190POPC   C3A30005  27.503  18.863   7.909
 2190POPC   C4A30006  27.518  19.068   7.511
 2190POPC   C1B30007  27.810  18.718   8.768
 2190POPC   C2B30008  27.798  18.844   8.349
 2190POPC   C3B30009  27.998  18.683   7.977
 2190POPC   C4B30010  27.847  18.633   7.547
 2191POPC   NC330011  11.744  28.296   9.408
 2191POPC   PO430012  12.265  28.678   9.480
 2191POPC   GL130013  12.045  28.529   9.071
 2191POPC   GL230014  11.674  28.688   9.056
 2191POPC   C1A30015  11.994  28.203   8.708
 2191POPC   D2A30016  11.769  27.956   8.358
 2191POPC   C3A30017  11.907  28.054   7.934
 2191POPC   C4A30018  12.291  28.048   7.669
 2191POPC   C1B30019  11.802  28.683   8.658
 2191POPC   C2B30020  12.141  28.580   8.396
 2191POPC   C3B30021  12.233  28.476   8.003
 2191POPC   C4B30022  11.942  28.495   7.690
 2192POPC   NC330023   9.947  15.584   9.375
 2192POPC   PO430024   9.686  14.996   9.641
 2192POPC   GL130025   9.720  15.134   9.242
 2192POPC   GL230026  10.000  14.961   9.153
 2192POPC   C1A30027   9.716  15.282   8.822
 2192POPC   D2A30028   9.583  15.156   8.442
 2192POPC   C3A30029   9.862  15.264   8.110
 2192POPC   C4A30030   9.817  15.163   7.678
 2192POPC   C1B30031   9.907  14.738   8.793
 2192POPC   C2B30032  10.037  14.686   8.361
 2192POPC   C3B30033  10.137  14.860   7.943
 2192POPC   C4B30034  10.237  14.962   7.488
 2193POPC   NC330035  17.896  11.804   9.468
 2193POPC   PO430036  17.428  12.260   9.516
 2193POPC   GL130037  17.339  12.158   9.115
 2193POPC   GL230038  17.536  11.847   9.101
 2193POPC   C1A30039  17.507  12.173   8.687
 2193POPC   D2A30040  17.674  11.840   8.411
 2193POPC   C3A30041  17.701  11.955   7.968
 2193POPC   C4A30042  17.602  11.928   7.520
 2193POPC   C1B30043  17.195  11.746   8.834
 2193POPC   C2B30044  17.131  11.912   8.455
 2193POPC   C3B30045  17.185  11.860   8.050
 2193POPC   C4B30046  17.289  12.215   7.796
 2194POPC   NC330047  29.255   7.576   9.660
 2194POPC   PO430048  28.747   7.123   9.506
 2194POPC   GL130049  28.976   7.283   9.119
 2194POPC   GL230050  29.152   7.605   9.164
 2194POPC   C1A30051  29.054   7.336   8.697
 2194POPC   D2A30052  28.823   7.104   8.394
 2194POPC   C3A30053  28.745   7.373   8.078
 2194POPC   C4A30054  29.074   7.531   7.880
 2194POPC   C1B30055  29.414   7.704   8.807
 2194POPC   C2B30056  29.295   7.730   8.355
 2194POPC   C3B30057  29.558   7.610   7.984
 2194POPC   C4B30058  29.533   7.249   7.762
 2195POPC   NC330059   5.040  20.002   9.476
 2195POPC   PO430060   5.160  19.282   9.548
 2195POPC   GL130061   5.033  19.623   9.122
 2195POPC   GL230062   4.876  20.021   9.007
 2195POPC   C1A30063   5.085  19.722   8.687
 2195POPC   D2A30064   4.775  19.876   8.397
 2195POPC   C3A30065   4.898  19.807   7.987
 2195POPC   C4A30066   5.306  19.767   7.774
 2195POPC   C1B30067   5.063  20.235   8.636
 2195POPC   C2B30068   5.212  20.127   8.235
 2195POPC   C3B30069   5.118  20.240   7.821
 2195POPC   C4B30070   5.531  20.233   7.708
 2196POPC   NC330071   9.263  30.454   9.475
 2196POPC   PO430072   8.719  30.839   9.491
 2196POPC   GL130073   8.945  30.819   9.116
 2196POPC   GL230074   8.873  31.153   9.038
 2196POPC   C1A30075   9.082  30.694   8.697
 2196POPC   D2A30076   8.987  30.401   8.362
 2196POPC   C3A30077   9.034  30.507   7.950
 2196POPC   C4A30078   9.245  30.868   7.739
 2196POPC   C1B30079   8.594  31.098   8.696
 2196POPC   C2B30080   8.689  30.862   8.350
 2196POPC   C3B30081   8.799  30.963   7.955
 2196POPC   C4B30082   8.763  30.707   7.558
 2197POPC   NC330083  21.989  19.194   9.454
 2197POPC   PO430084  22.434  18.778   9.535
 2197POPC   GL130085  22.420  19.032   9.172
 2197POPC   GL230086  22.289  18.741   9.030
 2197POPC   C1A30087  22.302  19.188   8.751
 2197POPC   D2A30088  22.197  18.936   8.375
 2197POPC   C3A30089  22.117  19.164   7.997
 2197POPC   C4A30090  22.244  19.246   7.565
 2197POPC   C1B30091  21.932  18.773   8.807
 2197POPC   C2B30092  21.742  18.613   8.453
 2197POPC   C3B30093  21.813  18.740   8.045
 2197POPC   C4B30094  21.991  18.809   7.624
 2198POPC   NC330095  25.216   6.339   9.507
 2198POPC   PO430096  25.245   7.040   9.695
 2198POPC   GL130097  25.274   6.808   9.291
 2198POPC   GL230098  25.600   6.839   9.198
 2198POPC   C1A30099  25.177   6.686   8.842
 2198POPC   D2A30100  25.017   6.866   8.448
 2198POPC   C3A30101  24.961   6.706   8.034
 2198POPC   C4A30102  25.271   6.477   7.817
 2198POPC   C1B30103  25.706   6.689   8.798
 2198POPC   C2B30104  25.512   6.603   8.401
 2198POPC   C3B30105  25.724   6.618   8.003
 2198POPC   C4B30106  25.708   6.928   7.699
 2199POPC   NC330107  24.909  40.145   9.633
 2199POPC   PO430108  25.561  40.272   9.604
 2199POPC   GL130109  25.451  40.333   9.161
 2199POPC   GL230110  25.093  40.316   9.093
 2199POPC   C1A30111  25.515  40.242   8.722
 2199POPC   D2A30112  25.396  40.030   8.315
 2199POPC   C3A30113  25.500  40.127   7.884
 2199POPC   C4A30114  25.591  39.919   7.479
 2199POPC   C1B30115  25.006  40.191   8.640
 2199POPC   C2B30116  24.941  40.248   8.191
 2199POPC   C3B30117  25.009  39.984   7.858
 2199POPC   C4B30118  25.211  39.576   7.881
 2200POPC   NC330119  39.583  32.541   9.409
 2200POPC   PO430120  40.136  32.190   9.454
 2200POPC   GL130121  39.911  32.147   9.144
 2200POPC   GL230122  39.758  31.835   9.211
 2200POPC   C1A30123  39.901  32.376   8.765
 2200POPC   D2A30124  40.040  32.459   8.347
 2200POPC   C3A30125  40.305  32.236   8.102
 2200POPC   C4A30126  40.187  32.194   7.697
 2200POPC   C1B30127  39.642  31.924   8.784
 2200POPC   C2B30128  39.903  31.900   8.437
 2200POPC   C3B30129  39.828  32.037   8.041
 2200POPC   C4B30130  39.854  31.809   7.702
 2201POPC   NC330131   2.364  31.544   9.656
 2201POPC   PO430132   2.999  31.474   9.462
 2201POPC   GL130133   2.650  31.410   9.193
 2201POPC   GL230134   2.620  31.749   9.168
 2201POPC   C1A30135   2.656  31.337   8.734
 2201POPC   D2A30136   2.555  31.484   8.296
 2201POPC   C3A30137   2.797  31.326   7.911
 2201POPC   C4A30138   2.745  31.605   7.522
 2201POPC   C1B30139   2.972  31.733   8.852
 2201POPC   C2B30140   3.049  31.578   8.434
 2201POPC   C3B30141   2.929  31.773   8.046
 2201POPC   C4B30142   3.156  31.851   7.677
 2202POPC   NC330143  19.464  39.430   9.511
 2202POPC   PO430144  19.944  39.038   9.750
 2202POPC   GL130145  19.899  39.254   9.249
 2202POPC   GL230146  19.608  39.417   9.038
 2202POPC   C1A30147  19.874  39.087   8.786
 2202POPC   D2A30148  20.000  39.263   8.357
 2202POPC   C3A30149  19.796  39.126   7.992
 2202POPC   C4A30150  19.922  38.989   7.595
 2202POPC   C1B30151  19.999  39.566   8.789
 2202POPC   C2B30152  20.254  39.705   8.423
 2202POPC   C3B30153  20.249  39.625   7.986
 2202POPC   C4B30154  19.896  39.525   7.705
 2203POPC   NC330155   3.695   5.609   9.451
 2203POPC   PO430156   3.278   6.100   9.654
 2203POPC   GL130157   3.500   6.066   9.236
 2203POPC   GL230158   3.882   6.058   9.245
 2203POPC   C1A30159   3.345   5.962   8.802
 2203POPC   D2A30160   3.510   5.688   8.476
 2203POPC   C3A30161   3.595   5.763   8.060
 2203POPC   C4A30162   3.609   5.547   7.688
 2203POPC   C1B30163   3.789   6.210   8.822
 2203POPC   C2B30164   3.643   6.201   8.417
 2203POPC   C3B30165   3.785   6.225   8.017
 2203POPC   C4B30166   3.593   6.125   7.586
 2204POPC   NC330167  36.014  40.118   9.564
 2204POPC   PO430168  36.622  39.921   9.452
 2204POPC   GL130169  36.254  39.867   9.204
 2204POPC   GL230170  36.372  40.191   9.083
 2204POPC   C1A30171  35.972  40.003   8.850
 2204POPC   D2A30172  36.130  40.147   8.453
 2204POPC   C3A30173  35.855  40.049   8.114
 2204POPC   C4A30174  35.935  39.951   7.702
 2204POPC   C1B30175  36.466  39.842   8.753
 2204POPC   C2B30176  36.531  39.791   8.321
 2204POPC   C3B30177  36.368  39.879   7.940
 2204POPC   C4B30178  36.361  39.762   7.496
 2205POPC   NC330179  38.951  33.352   9.486
 2205POPC   PO430180  39.553  33.001   9.418
 2205POPC   GL130181  39.294  33.095   9.099
 2205POPC   GL230182  39.165  32.792   9.078
 2205POPC   C1A30183  39.339  33.033   8.649
 2205POPC   D2A30184  39.506  33.233   8.295
 2205POPC   C3A30185  39.437  33.194   7.841
 2205POPC   C4A30186  39.536  33.331   7.416
 2205POPC   C1B30187  38.894  32.830   8.693
 2205POPC   C2B30188  39.017  32.942   8.248
 2205POPC   C3B30189  39.141  32.776   7.843
 2205POPC   C4B30190  39.045  32.795   7.420
 2206POPC   NC330191  44.433  17.620   9.665
 2206POPC   PO430192  44.816  17.106   9.593
 2206POPC   GL130193  44.809  17.477   9.243
 2206POPC   GL230194  44.515  17.735   9.174
 2206POPC   C1A30195  44.895  17.578   8.784
 2206POPC   D2A30196  44.835  17.229   8.480
 2206POPC   C3A30197  44.663  17.277   8.044
 2206POPC   C4A30198  44.771  17.557   7.716
 2206POPC   C1B30199  44.419  17.440   8.847
 2206POPC   C2B30200  44.488  17.612   8.407
 2206POPC   C3B30201  44.313  17.674   7.968
 2206POPC   C4B30202  44.335  17.649   7.484
 2207POPC   NC330203  23.135   3.251   9.482
 2207POPC   PO430204  22.585   3.674   9.563
 2207POPC   GL130205  22.863   3.771   9.243
 2207POPC   GL230206  22.870   3.440   9.105
 2207POPC   C1A30207  22.759   3.874   8.837
 2207POPC   D2A30208  22.461   3.868   8.499
 2207POPC   C3A30209  22.705   3.709   8.163
 2207POPC   C4A30210  22.770   3.665   7.734
 2207POPC   C1B30211  23.186   3.233   8.834
 2207POPC   C2B30212  23.035   3.428   8.453
 2207POPC   C3B30213  23.031   3.313   8.040
 2207POPC   C4B30214  23.263   3.383   7.691
 2208POPC   NC330215  32.085   0.994   9.596
 2208POPC   PO430216  32.395   0.313   9.600
 2208POPC   GL130217  32.317   0.467   9.179
 2208POPC   GL230218  32.364   0.852   9.191
 2208POPC   C1A30219  32.133   0.308   8.769
 2208POPC   D2A30220  32.306   0.415   8.355
 2208POPC   C3A30221  32.196   0.225   7.987
 2208POPC   C4A30222  31.800   0.164   7.881
 2208POPC   C1B30223  32.406   0.772   8.747
 2208POPC   C2B30224  32.303   0.936   8.331
 2208POPC   C3B30225  32.277   0.749   7.928
 2208POPC   C4B30226  32.641   0.522   7.969
 2209POPC   NC330227  20.407  14.637   9.485
 2209POPC   PO430228  20.871  14.260   9.605
 2209POPC   GL130229  20.690  14.256   9.182
 2209POPC   GL230230  20.778  14.573   9.141
 2209POPC   C1A30231  20.799  14.226   8.734
 2209POPC   D2A30232  20.599  14.419   8.309
 2209POPC   C3A30233  20.809  14.219   7.913
 2209POPC   C4A30234  20.943  14.093   7.447
 2209POPC   C1B30235  20.465  14.598   8.811
 2209POPC   C2B30236  20.429  14.894   8.504
 2209POPC   C3B30237  20.440  14.946   8.105
 2209POPC   C4B30238  20.594  14.674   7.831
 2210POPC   NC330239  27.706  37.222   9.648
 2210POPC   PO430240  27.460  36.661   9.462
 2210POPC   GL130241  27.752  36.567   9.150
 2210POPC   GL230242  27.867  36.919   9.203
 2210POPC   C1A30243  27.758  36.468   8.716
 2210POPC   D2A30244  27.573  36.668   8.385
 2210POPC   C3A30245  27.583  36.581   7.957
 2210POPC   C4A30246  27.600  36.820   7.549
 2210POPC   C1B30247  27.577  36.959   8.832
 2210POPC   C2B30248  27.474  37.173   8.420
 2210POPC   C3B30249  27.551  37.099   7.977
 2210POPC   C4B30250  27.979  37.141   7.774
 2211POPC   NC330251  13.262   7.372   9.616
 2211POPC   PO430252  13.933   7.627   9.547
 2211POPC   GL130253  13.679   7.445   9.236
 2211POPC   GL230254  13.383   7.599   9.175
 2211POPC   C1A30255  13.710   7.477   8.794
 2211POPC   D2A30256  13.824   7.640   8.399
 2211POPC   C3A30257  13.713   7.330   8.107
 2211POPC   C4A30258  13.541   7.298   7.714
 2211POPC   C1B30259  13.190   7.515   8.824
 2211POPC   C2B30260  13.329   7.307   8.479
 2211POPC   C3B30261  13.191   7.314   8.075
 2211POPC   C4B30262  13.125   7.653   7.815
 2212POPC   NC330263  42.492  37.597   9.530
 2212POPC   PO430264  41.933  37.890   9.505
 2212POPC   GL130265  42.136  37.667   9.161
 2212POPC   GL230266  42.470  37.720   9.049
 2212POPC   C1A30267  42.151  37.456   8.759
 2212POPC   D2A30268  42.381  37.626   8.402
 2212POPC   C3A30269  42.195  37.546   8.011
 2212POPC   C4A30270  41.903  37.706   7.776
 2212POPC   C1B30271  42.257  37.962   8.769
 2212POPC   C2B30272  42.421  38.159   8.427
 2212POPC   C3B30273  42.457  38.003   8.032
 2212POPC   C4B30274  42.318  37.953   7.639
 2213POPC   NC330275  40.897  26.808   9.572
 2213POPC   PO430276  40.436  27.030   9.173
 2213POPC   GL130277  40.905  26.999   9.067
 2213POPC   GL230278  41.117  26.695   9.130
 2213POPC   C1A30279  40.958  26.956   8.619
 2213POPC   D2A30280  40.638  26.784   8.316
 2213POPC   C3A30281  40.677  26.879   7.871
 2213POPC   C4A30282  40.386  26.835   7.483
 2213POPC   C1B30283  40.917  26.471   8.829
 2213POPC   C2B30284  41.035  26.477   8.423
 2213POPC   C3B30285  40.987  26.433   8.004
 2213POPC   C4B30286  41.131  26.699   7.689
 2214POPC   NC330287  18.628   2.564   9.444
 2214POPC   PO430288  18.283   3.150   9.416
 2214POPC   GL130289  18.320   2.816   9.078
 2214POPC   GL230290  18.663   2.936   9.101
 2214POPC   C1A30291  17.993   2.670   8.732
 2214POPC   D2A30292  17.782   2.745   8.297
 2214POPC   C3A30293  18.094   2.699   7.961
 2214POPC   C4A30294  18.500   2.661   7.730
 2214POPC   C1B30295  18.521   3.126   8.731
 2214POPC   C2B30296  18.514   2.952   8.319
 2214POPC   C3B30297  18.472   3.131   7.946
 2214POPC   C4B30298  18.639   3.110   7.522
 2215POPC   NC330299  26.873   1.432   9.573
 2215POPC   PO430300  26.902   0.785   9.575
 2215POPC   GL130301  26.856   1.069   9.173
 2215POPC   GL230302  27.132   1.278   9.104
 2215POPC   C1A30303  26.806   1.249   8.714
 2215POPC   D2A30304  26.527   1.359   8.338
 2215POPC   C3A30305  26.614   1.234   7.919
 2215POPC   C4A30306  26.768   1.062   7.517
 2215POPC   C1B30307  27.161   1.585   8.743
 2215POPC   C2B30308  27.014   1.551   8.327
 2215POPC   C3B30309  27.092   1.434   7.910
 2215POPC   C4B30310  27.290   1.600   7.550
 2216POPC   NC330311  41.571  31.266   9.785
 2216POPC   PO430312  41.531  31.860   9.448
 2216POPC   GL130313  41.643  31.653   9.090
 2216POPC   GL230314  41.724  31.350   9.257
 2216POPC   C1A30315  41.355  31.482   8.730
 2216POPC   D2A30316  41.273  31.359   8.306
 2216POPC   C3A30317  41.412  31.462   7.911
 2216POPC   C4A30318  41.285  31.398   7.493
 2216POPC   C1B30319  41.818  31.275   8.805
 2216POPC   C2B30320  41.772  31.429   8.430
 2216POPC   C3B30321  41.727  31.137   8.135
 2216POPC   C4B30322  41.847  31.173   7.737
 2217POPC   NC330323  37.915  22.090   9.536
 2217POPC   PO430324  37.391  21.700   9.585
 2217POPC   GL130325  37.499  21.953   9.199
 2217POPC   GL230326  37.216  21.818   9.092
 2217POPC   C1A30327  37.856  22.160   8.910
 2217POPC   D2A30328  37.824  22.151   8.471
 2217POPC   C3A30329  37.935  22.448   8.170
 2217POPC   C4A30330  37.991  22.150   7.878
 2217POPC   C1B30331  37.162  21.712   8.692
 2217POPC   C2B30332  37.355  21.957   8.377
 2217POPC   C3B30333  37.489  22.167   8.039
 2217POPC   C4B30334  37.473  21.964   7.671
 2218POPC   NC330335  42.150  39.542   9.293
 2218POPC   PO430336  42.505  39.811   9.796
 2218POPC   GL130337  42.455  39.965   9.281
 2218POPC   GL230338  42.498  39.765   9.024
 2218POPC   C1A30339  42.234  40.180   8.879
 2218POPC   D2A30340  41.969  40.298   8.487
 2218POPC   C3A30341  42.186  40.330   8.128
 2218POPC   C4A30342  42.303  40.043   7.807
 2218POPC   C1B30343  42.666  39.725   8.670
 2218POPC   C2B30344  42.767  39.836   8.311
 2218POPC   C3B30345  42.632  39.670   7.959
 2218POPC   C4B30346  42.724  39.474   7.592
 2219POPC   NC330347  19.574   7.027   9.409
 2219POPC   PO430348  19.571   6.408   9.431
 2219POPC   GL130349  19.642   6.606   9.069
 2219POPC   GL230350  19.950   6.473   9.093
 2219POPC   C1A30351  19.731   6.747   8.657
 2219POPC   D2A30352  19.607   6.717   8.253
 2219POPC   C3A30353  19.882   6.897   7.940
 2219POPC   C4A30354  19.701   6.616   7.679
 2219POPC   C1B30355  20.097   6.339   8.702
 2219POPC   C2B30356  20.101   6.517   8.272
 2219POPC   C3B30357  20.180   6.458   7.841
 2219POPC   C4B30358  20.084   6.457   7.371
 2220POPC   NC330359  27.941   6.835   9.410
 2220POPC   PO430360  28.435   6.459   9.630
 2220POPC   GL130361  28.286   6.392   9.217
 2220POPC   GL230362  27.940   6.353   9.244
 2220POPC   C1A30363  28.301   6.620   8.839
 2220POPC   D2A30364  28.491   6.730   8.459
 2220POPC   C3A30365  28.376   6.624   8.052
 2220POPC   C4A30366  28.510   6.887   7.723
 2220POPC   C1B30367  27.941   6.227   8.820
 2220POPC   C2B30368  28.142   6.300   8.420
 2220POPC   C3B30369  28.023   6.270   7.976
 2220POPC   C4B30370  28.287   6.319   7.610
 2221POPC   NC330371   8.768  31.975   9.668
 2221POPC   PO430372   9.266  32.404   9.500
 2221POPC   GL130373   9.056  32.154   9.202
 2221POPC   GL230374   8.681  32.244   9.235
 2221POPC   C1A30375   9.227  32.129   8.787
 2221POPC   D2A30376   9.153  32.297   8.388
 2221POPC   C3A30377   8.972  32.027   8.090
 2221POPC   C4A30378   9.090  32.056   7.671
 2221POPC   C1B30379   8.764  32.378   8.816
 2221POPC   C2B30380   8.653  32.467   8.407
 2221POPC   C3B30381   8.867  32.549   8.022
 2221POPC   C4B30382   8.722  32.402   7.634
 2222POPC   NC330383  27.891  36.513   9.641
 2222POPC   PO430384  28.578  36.122   9.540
 2222POPC   GL130385  28.561  35.988   9.132
 2222POPC   GL230386  28.249  36.101   9.135
 2222POPC   C1A30387  28.389  35.892   8.702
 2222POPC   D2A30388  28.584  35.815   8.350
 2222POPC   C3A30389  28.445  35.914   7.960
 2222POPC   C4A30390  28.547  35.680   7.605
 2222POPC   C1B30391  28.282  36.371   8.740
 2222POPC   C2B30392  28.294  36.297   8.294
 2222POPC   C3B30393  28.496  36.424   7.909
 2222POPC   C4B30394  28.390  36.356   7.467
 2223POPC   NC330395  18.060  21.717   9.453
 2223POPC   PO430396  18.412  22.215   9.560
 2223POPC   GL130397  18.282  22.235   9.195
 2223POPC   GL230398  18.409  22.523   9.098
 2223POPC   C1A30399  18.110  22.107   8.831
 2223POPC   D2A30400  18.249  21.936   8.476
 2223POPC   C3A30401  18.151  22.167   8.157
 2223POPC   C4A30402  18.149  22.088   7.749
 2223POPC   C1B30403  18.585  22.459   8.696
 2223POPC   C2B30404  18.422  22.573   8.293
 2223POPC   C3B30405  18.450  22.499   7.860
 2223POPC   C4B30406  18.865  22.424   7.755
 2224POPC   NC330407  23.499   8.401   9.477
 2224POPC   PO430408  24.101   8.193   9.592
 2224POPC   GL130409  23.960   8.106   9.199
 2224POPC   GL230410  23.625   7.945   9.235
 2224POPC   C1A30411  23.803   8.184   8.798
 2224POPC   D2A30412  23.942   8.147   8.365
 2224POPC   C3A30413  23.650   8.286   8.027
 2224POPC   C4A30414  23.757   8.617   7.734
 2224POPC   C1B30415  23.465   7.792   8.815
 2224POPC   C2B30416  23.518   7.704   8.365
 2224POPC   C3B30417  23.787   7.785   8.028
 2224POPC   C4B30418  23.778   7.923   7.597
 2225POPC   NC330419  13.650  23.392   9.524
 2225POPC   PO430420  13.396  22.776   9.586
 2225POPC   GL130421  13.685  22.889   9.241
 2225POPC   GL230422  13.581  23.162   9.064
 2225POPC   C1A30423  13.894  22.848   8.807
 2225POPC   D2A30424  13.804  22.630   8.391
 2225POPC   C3A30425  13.735  22.787   7.963
 2225POPC   C4A30426  13.503  22.673   7.588
 2225POPC   C1B30427  13.412  23.000   8.656
 2225POPC   C2B30428  13.488  23.149   8.230
 2225POPC   C3B30429  13.360  23.262   7.799
 2225POPC   C4B30430  13.438  23.492   7.375
 2226POPC   NC330431  31.352  36.540   9.383
 2226POPC   PO430432  31.579  37.197   9.453
 2226POPC   GL130433  31.578  36.895   9.110
 2226POPC   GL230434  31.784  36.566   9.117
 2226POPC   C1A30435  31.551  36.784   8.666
 2226POPC   D2A30436  31.308  36.878   8.285
 2226POPC   C3A30437  31.517  37.215   8.066
 2226POPC   C4A30438  31.853  37.298   7.766
 2226POPC   C1B30439  31.986  36.497   8.746
 2226POPC   C2B30440  31.873  36.559   8.306
 2226POPC   C3B30441  31.670  36.713   7.940
 2226POPC   C4B30442  31.288  36.484   7.836
 2227POPC   NC330443  23.920  42.747   9.426
 2227POPC   PO430444  23.490  42.193   9.454
 2227POPC   GL130445  23.705  42.363   9.116
 2227POPC   GL230446  24.034  42.282   9.194
 2227POPC   C1A30447  23.668  42.371   8.677
 2227POPC   D2A30448  23.452  42.494   8.297
 2227POPC   C3A30449  23.650  42.321   7.902
 2227POPC   C4A30450  23.975  42.079   7.621
 2227POPC   C1B30451  24.180  42.425   8.787
 2227POPC   C2B30452  24.035  42.421   8.321
 2227POPC   C3B30453  23.861  42.765   8.111
 2227POPC   C4B30454  23.760  42.793   7.683
 2228POPC   NC330455  24.751  34.757   9.574
 2228POPC   PO430456  24.312  34.266   9.643
 2228POPC   GL130457  24.432  34.464   9.216
 2228POPC   GL230458  24.524  34.841   9.130
 2228POPC   C1A30459  24.253  34.531   8.794
 2228POPC   D2A30460  24.442  34.457   8.389
 2228POPC   C3A30461  24.302  34.270   8.007
 2228POPC   C4A30462  24.515  34.211   7.612
 2228POPC   C1B30463  24.728  34.751   8.747
 2228POPC   C2B30464  24.913  34.657   8.339
 2228POPC   C3B30465  24.733  34.550   7.956
 2228POPC   C4B30466  24.667  34.710   7.564
 2229POPC   NC330467   6.460  22.649   9.765
 2229POPC   PO430468   6.830  23.109   9.581
 2229POPC   GL130469   6.610  23.026   9.238
 2229POPC   GL230470   6.613  22.714   9.260
 2229POPC   C1A30471   6.428  23.064   8.829
 2229POPC   D2A30472   6.518  23.269   8.455
 2229POPC   C3A30473   6.667  23.120   8.084
 2229POPC   C4A30474   6.570  23.260   7.645
 2229POPC   C1B30475   6.474  22.564   8.864
 2229POPC   C2B30476   6.512  22.709   8.441
 2229POPC   C3B30477   6.412  22.520   8.045
 2229POPC   C4B30478   6.581  22.755   7.717
 2230POPC   NC330479  32.877  14.499   9.437
 2230POPC   PO430480  33.584  14.582   9.540
 2230POPC   GL130481  33.257  14.715   9.171
 2230POPC   GL230482  33.295  14.421   9.057
 2230POPC   C1A30483  32.983  14.619   8.734
 2230POPC   D2A30484  32.934  14.336   8.367
 2230POPC   C3A30485  32.896  14.473   7.975
 2230POPC   C4A30486  33.066  14.431   7.597
 2230POPC   C1B30487  33.293  14.112   8.745
 2230POPC   C2B30488  33.395  14.168   8.342
 2230POPC   C3B30489  33.394  14.244   7.929
 2230POPC   C4B30490  33.422  13.970   7.560
 2231POPC   NC330491  21.421  15.145   9.416
 2231POPC   PO430492  21.346  15.700   9.751
 2231POPC   GL130493  21.355  15.586   9.186
 2231POPC   GL230494  21.538  15.859   9.057
 2231POPC   C1A30495  21.361  15.173   8.798
 2231POPC   D2A30496  21.344  14.904   8.409
 2231POPC   C3A30497  21.345  15.094   8.051
 2231POPC   C4A30498  21.334  15.204   7.649
 2231POPC   C1B30499  21.585  15.608   8.701
 2231POPC   C2B30500  21.701  15.319   8.382
 2231POPC   C3B30501  21.753  15.364   7.955
 2231POPC   C4B30502  21.534  15.681   7.734
 2232POPC   NC330503  39.878  22.922   9.466
 2232POPC   PO430504  40.423  23.179   9.506
 2232POPC   GL130505  40.302  22.943   9.119
 2232POPC   GL230506  39.924  22.969   8.970
 2232POPC   C1A30507  40.350  23.132   8.729
 2232POPC   D2A30508  40.117  23.088   8.368
 2232POPC   C3A30509  40.267  23.181   7.960
 2232POPC   C4A30510  39.890  23.236   7.768
 2232POPC   C1B30511  40.068  22.658   8.695
 2232POPC   C2B30512  40.033  22.459   8.316
 2232POPC   C3B30513  40.005  22.733   7.987
 2232POPC   C4B30514  40.018  22.703   7.548
 2233POPC   NC330515  35.481  19.462   9.521
 2233POPC   PO430516  35.257  18.795   9.332
 2233POPC   GL130517  35.205  19.189   9.145
 2233POPC   GL230518  35.547  19.175   9.110
 2233POPC   C1A30519  35.319  19.369   8.719
 2233POPC   D2A30520  35.371  19.173   8.346
 2233POPC   C3A30521  35.173  19.240   7.936
 2233POPC   C4A30522  35.127  18.985   7.567
 2233POPC   C1B30523  35.669  18.952   8.745
 2233POPC   C2B30524  35.710  18.701   8.375
 2233POPC   C3B30525  35.517  18.847   8.002
 2233POPC   C4B30526  35.617  19.072   7.705
 2234POPC   NC330527  20.803  43.401   9.448
 2234POPC   PO430528  20.230  43.080   9.471
 2234POPC   GL130529  20.483  43.098   9.148
 2234POPC   GL230530  20.808  42.911   9.246
 2234POPC   C1A30531  20.372  43.293   8.748
 2234POPC   D2A30532  20.164  43.279   8.320
 2234POPC   C3A30533  20.423  43.309   7.935
 2234POPC   C4A30534  20.363  43.369   7.471
 2234POPC   C1B30535  20.735  42.822   8.804
 2234POPC   C2B30536  20.573  42.961   8.411
 2234POPC   C3B30537  20.744  42.925   8.024
 2234POPC   C4B30538  20.771  42.611   7.772
 2235POPC   NC330539  38.893  43.821   9.498
 2235POPC   PO430540  38.286  44.090   9.631
 2235POPC   GL130541  38.377  44.089   9.228
 2235POPC   GL230542  38.025  44.162   9.170
 2235POPC   C1A30543  38.604  43.898   8.865
 2235POPC   D2A30544  38.537  43.703   8.453
 2235POPC   C3A30545  38.689  43.646   8.046
 2235POPC   C4A30546  38.507  43.924   7.759
 2235POPC   C1B30547  38.175  44.338   8.848
 2235POPC   C2B30548  38.231  44.110   8.532
 2235POPC   C3B30549  38.217  44.134   8.126
 2235POPC   C4B30550  37.950  44.116   7.736
 2236POPC   NC330551  32.766  31.728   9.536
 2236POPC   PO430552  33.124  31.054   9.557
 2236POPC   GL130553  33.112  31.345   9.220
 2236POPC   GL230554  32.753  31.324   9.189
 2236POPC   C1A30555  33.096  31.359   8.765
 2236POPC   D2A30556  32.915  31.538   8.383
 2236POPC   C3A30557  33.106  31.658   8.006
 2236POPC   C4A30558  33.052  31.348   7.710
 2236POPC   C1B30559  32.582  31.426   8.774
 2236POPC   C2B30560  32.421  31.450   8.357
 2236POPC   C3B30561  32.519  31.563   7.910
 2236POPC   C4B30562  32.594  31.387   7.489
 2237POPC   NC330563  27.476  15.875   9.587
 2237POPC   PO430564  28.085  16.260   9.442
 2237POPC   GL130565  27.812  16.254   9.091
 2237POPC   GL230566  27.520  16.045   9.116
 2237POPC   C1A30567  27.680  16.269   8.654
 2237POPC   D2A30568  27.650  16.466   8.236
 2237POPC   C3A30569  27.697  16.150   7.921
 2237POPC   C4A30570  27.571  15.863   7.576
 2237POPC   C1B30571  27.464  15.817   8.734
 2237POPC   C2B30572  27.339  15.899   8.281
 2237POPC   C3B30573  27.269  15.623   7.903
 2237POPC   C4B30574  27.288  15.453   7.440
 2238POPC   NC330575  24.060   3.202   9.859
 2238POPC   PO430576  23.644   3.595   9.507
 2238POPC   GL130577  23.938   3.664   9.139
 2238POPC   GL230578  23.642   3.494   9.011
 2238POPC   C1A30579  24.048   3.505   8.685
 2238POPC   D2A30580  23.965   3.690   8.261
 2238POPC   C3A30581  23.995   3.447   7.858
 2238POPC   C4A30582  23.954   3.555   7.402
 2238POPC   C1B30583  23.310   3.710   8.815
 2238POPC   C2B30584  23.529   3.510   8.493
 2238POPC   C3B30585  23.505   3.566   8.091
 2238POPC   C4B30586  23.199   3.817   7.936
 2239POPC   NC330587  20.287  39.279   9.583
 2239POPC   PO430588  20.425  38.630   9.474
 2239POPC   GL130589  20.326  39.002   9.135
 2239POPC   GL230590  20.402  39.420   9.110
 2239POPC   C1A30591  20.375  39.162   8.689
 2239POPC   D2A30592  20.542  39.285   8.289
 2239POPC   C3A30593  20.308  39.115   7.944
 2239POPC   C4A30594  20.512  39.334   7.648
 2239POPC   C1B30595  20.642  39.618   8.730
 2239POPC   C2B30596  20.954  39.628   8.358
 2239POPC   C3B30597  21.047  39.418   7.942
 2239POPC   C4B30598  20.997  39.271   7.492
 2240POPC   NC330599   6.520  24.393   9.485
 2240POPC   PO430600   6.835  23.880   9.246
 2240POPC   GL130601   6.658  24.196   9.018
 2240POPC   GL230602   6.294  24.272   9.030
 2240POPC   C1A30603   6.663  24.373   8.615
 2240POPC   D2A30604   6.660  24.820   8.477
 2240POPC   C3A30605   6.705  24.742   8.066
 2240POPC   C4A30606   6.582  24.355   7.862
 2240POPC   C1B30607   6.282  24.667   8.785
 2240POPC   C2B30608   6.164  24.817   8.333
 2240POPC   C3B30609   6.232  24.730   7.863
 2240POPC   C4B30610   6.399  24.619   7.445
 2241POPC   NC330611  13.483  43.656   9.321
 2241POPC   PO430612  13.816  43.088   9.489
 2241POPC   GL130613  13.750  43.254   9.085
 2241POPC   GL230614  13.943  43.544   9.052
 2241POPC   C1A30615  13.571  43.103   8.685
 2241POPC   D2A30616  13.718  42.869   8.321
 2241POPC   C3A30617  13.415  42.809   7.999
 2241POPC   C4A30618  13.179  42.967   7.660
 2241POPC   C1B30619  13.956  43.438   8.637
 2241POPC   C2B30620  13.707  43.385   8.244
 2241POPC   C3B30621  13.749  43.296   7.796
 2241POPC   C4B30622  13.893  43.575   7.449
 2242POPC   NC330623  29.222   4.911   9.444
 2242POPC   PO430624  29.469   5.556   9.508
 2242POPC   GL130625  29.376   5.310   9.175
 2242POPC   GL230626  29.043   5.315   9.149
 2242POPC   C1A30627  29.354   4.986   8.832
 2242POPC   D2A30628  29.435   5.089   8.426
 2242POPC   C3A30629  29.194   4.917   8.133
 2242POPC   C4A30630  29.279   5.127   7.777
 2242POPC   C1B30631  29.158   5.442   8.729
 2242POPC   C2B30632  29.000   5.391   8.327
 2242POPC   C3B30633  28.777   5.565   8.011
 2242POPC   C4B30634  28.970   5.516   7.684
 2243POPC   NC330635   7.418  24.922   9.437
 2243POPC   PO430636   7.176  25.547   9.505
 2243POPC   GL130637   7.325  25.306   9.117
 2243POPC   GL230638   7.652  25.145   9.012
 2243POPC   C1A30639   7.227  24.958   8.793
 2243POPC   D2A30640   7.126  24.963   8.362
 2243POPC   C3A30641   7.432  25.155   8.165
 2243POPC   C4A30642   7.426  25.155   7.757
 2243POPC   C1B30643   7.619  25.561   8.797
 2243POPC   C2B30644   7.528  25.668   8.374
 2243POPC   C3B30645   7.680  25.569   7.973
 2243POPC   C4B30646   7.446  25.637   7.628
 2244POPC   NC330647   4.664  32.402   9.798
 2244POPC   PO430648   4.051  32.452   9.592
 2244POPC   GL130649   4.292  32.308   9.223
 2244POPC   GL230650   3.956  32.322   9.091
 2244POPC   C1A30651   4.262  32.034   8.839
 2244POPC   D2A30652   4.347  32.195   8.456
 2244POPC   C3A30653   4.230  32.104   8.075
 2244POPC   C4A30654   4.456  32.304   7.747
 2244POPC   C1B30655   3.839  32.430   8.675
 2244POPC   C2B30656   3.999  32.530   8.271
 2244POPC   C3B30657   3.962  32.454   7.796
 2244POPC   C4B30658   4.164  32.487   7.358
 2245POPC   NC330659  21.271  19.424   9.432
 2245POPC   PO430660  21.679  18.847   9.424
 2245POPC   GL130661  21.476  19.057   9.135
 2245POPC   GL230662  21.659  19.354   9.107
 2245POPC   C1A30663  21.326  19.055   8.732
 2245POPC   D2A30664  21.495  19.037   8.338
 2245POPC   C3A30665  21.246  19.019   7.989
 2245POPC   C4A30666  21.251  19.076   7.556
 2245POPC   C1B30667  21.797  19.272   8.713
 2245POPC   C2B30668  21.754  19.504   8.340
 2245POPC   C3B30669  21.623  19.358   7.961
 2245POPC   C4B30670  21.738  19.291   7.585
 2246POPC   NC330671  37.179  22.147   9.568
 2246POPC   PO430672  36.621  21.819   9.403
 2246POPC   GL130673  36.827  22.141   9.116
 2246POPC   GL230674  37.153  22.348   9.113
 2246POPC   C1A30675  36.894  22.165   8.677
 2246POPC   D2A30676  37.032  22.354   8.301
 2246POPC   C3A30677  36.761  22.487   7.962
 2246POPC   C4A30678  36.452  22.207   7.772
 2246POPC   C1B30679  37.393  22.299   8.758
 2246POPC   C2B30680  37.488  22.552   8.401
 2246POPC   C3B30681  37.304  22.631   7.977
 2246POPC   C4B30682  37.216  22.383   7.610
 2247POPC   NC330683  42.182   6.237   9.605
 2247POPC   PO430684  42.762   6.557   9.566
 2247POPC   GL130685  42.451   6.571   9.207
 2247POPC   GL230686  42.309   6.903   9.136
 2247POPC   C1A30687  42.124   6.352   8.950
 2247POPC   D2A30688  41.934   6.471   8.541
 2247POPC   C3A30689  42.222   6.500   8.187
 2247POPC   C4A30690  42.111   6.476   7.752
 2247POPC   C1B30691  42.263   6.793   8.744
 2247POPC   C2B30692  42.472   6.889   8.400
 2247POPC   C3B30693  42.603   6.817   8.004
 2247POPC   C4B30694  42.381   6.893   7.664
 2248POPC   NC330695  10.851  38.650   9.415
 2248POPC   PO430696  10.225  38.188   9.527
 2248POPC   GL130697  10.382  38.415   9.205
 2248POPC   GL230698  10.702  38.244   9.115
 2248POPC   C1A30699  10.237  38.361   8.796
 2248POPC   D2A30700  10.510  38.197   8.485
 2248POPC   C3A30701  10.459  38.349   8.058
 2248POPC   C4A30702  10.347  38.195   7.644
 2248POPC   C1B30703  10.687  38.596   8.795
 2248POPC   C2B30704  10.816  38.608   8.363
 2248POPC   C3B30705  10.674  38.823   8.007
 2248POPC   C4B30706  10.611  38.631   7.609
 2249POPC   NC330707  20.873   5.768   9.643
 2249POPC   PO430708  20.368   6.124   9.618
 2249POPC   GL130709  20.668   6.017   9.262
 2249POPC   GL230710  20.908   6.255   9.120
 2249POPC   C1A30711  20.656   5.652   8.956
 2249POPC   D2A30712  20.837   5.506   8.545
 2249POPC   C3A30713  20.609   5.644   8.173
 2249POPC   C4A30714  20.780   5.650   7.749
 2249POPC   C1B30715  20.587   6.148   8.790
 2249POPC   C2B30716  20.418   6.100   8.366
 2249POPC   C3B30717  20.584   6.084   7.937
 2249POPC   C4B30718  20.384   6.096   7.558
 2250POPC   NC330719  32.035   4.095   9.362
 2250POPC   PO430720  32.411   4.634   9.544
 2250POPC   GL130721  32.314   4.463   9.160
 2250POPC   GL230722  32.507   4.193   9.135
 2250POPC   C1A30723  32.050   4.363   8.757
 2250POPC   D2A30724  32.211   4.395   8.329
 2250POPC   C3A30725  32.041   4.483   7.912
 2250POPC   C4A30726  32.175   4.446   7.495
 2250POPC   C1B30727  32.426   4.041   8.716
 2250POPC   C2B30728  32.459   3.928   8.298
 2250POPC   C3B30729  32.403   4.133   7.909
 2250POPC   C4B30730  32.421   4.027   7.456
 2251POPC   NC330731  38.022   7.684   9.475
 2251POPC   PO430732  38.627   7.428   9.478
 2251POPC   GL130733  38.311   7.342   9.179
 2251POPC   GL230734  38.314   7.011   9.059
 2251POPC   C1A30735  38.251   7.434   8.767
 2251POPC   D2A30736  38.494   7.757   8.556
 2251POPC   C3A30737  38.409   7.648   8.142
 2251POPC   C4A30738  38.561   7.786   7.766
 2251POPC   C1B30739  38.701   7.132   8.871
 2251POPC   C2B30740  38.647   7.284   8.466
 2251POPC   C3B30741  38.672   7.093   8.093
 2251POPC   C4B30742  38.483   7.263   7.795
 2252POPC   NC330743  21.300  33.515   9.496
 2252POPC   PO430744  21.250  34.202   9.410
 2252POPC   GL130745  21.352  34.061   9.002
 2252POPC   GL230746  21.546  33.798   9.142
 2252POPC   C1A30747  21.268  33.815   8.586
 2252POPC   D2A30748  21.044  33.559   8.228
 2252POPC   C3A30749  21.172  33.700   7.850
 2252POPC   C4A30750  21.332  34.118   7.813
 2252POPC   C1B30751  21.777  33.836   8.788
 2252POPC   C2B30752  21.847  33.567   8.471
 2252POPC   C3B30753  21.625  33.673   8.139
 2252POPC   C4B30754  21.752  33.633   7.742
 2253POPC   NC330755  43.301   7.051   9.390
 2253POPC   PO430756  42.755   7.449   9.436
 2253POPC   GL130757  43.034   7.367   9.086
 2253POPC   GL230758  42.930   7.579   8.853
 2253POPC   C1A30759  43.088   7.092   8.719
 2253POPC   D2A30760  43.003   6.874   8.328
 2253POPC   C3A30761  43.050   7.103   7.948
 2253POPC   C4A30762  43.348   7.379   7.744
 2253POPC   C1B30763  43.334   7.550   8.689
 2253POPC   C2B30764  43.389   7.472   8.265
 2253POPC   C3B30765  42.996   7.592   8.058
 2253POPC   C4B30766  42.974   7.741   7.657
 2254POPC   NC330767  36.649  23.074   9.474
 2254POPC   PO430768  36.867  22.491   9.551
 2254POPC   GL130769  36.778  22.694   9.138
 2254POPC   GL230770  37.007  22.998   9.115
 2254POPC   C1A30771  37.020  22.673   8.723
 2254POPC   D2A30772  37.189  22.967   8.408
 2254POPC   C3A30773  36.935  22.997   8.039
 2254POPC   C4A30774  36.996  22.828   7.616
 2254POPC   C1B30775  36.745  23.114   8.758
 2254POPC   C2B30776  36.508  23.290   8.406
 2254POPC   C3B30777  36.660  23.444   8.029
 2254POPC   C4B30778  36.803  23.301   7.642
 2255POPC   NC330779  28.177  14.149   9.454
 2255POPC   PO430780  28.187  14.800   9.514
 2255POPC   GL130781  28.492  14.645   9.212
 2255POPC   GL230782  28.648  14.304   9.271
 2255POPC   C1A30783  28.469  14.552   8.780
 2255POPC   D2A30784  28.254  14.442   8.404
 2255POPC   C3A30785  28.501  14.508   8.015
 2255POPC   C4A30786  28.283  14.437   7.622
 2255POPC   C1B30787  28.759  14.135   8.863
 2255POPC   C2B30788  28.642  14.082   8.429
 2255POPC   C3B30789  28.402  14.027   8.051
 2255POPC   C4B30790  28.614  14.069   7.636
 2256POPC   NC330791   8.773   7.800   9.547
 2256POPC   PO430792   9.073   8.389   9.446
 2256POPC   GL130793   8.866   8.126   9.146
 2256POPC   GL230794   9.091   8.319   8.941
 2256POPC   C1A30795   8.866   7.909   8.728
 2256POPC   D2A30796   9.046   7.906   8.291
 2256POPC   C3A30797   8.777   7.951   7.946
 2256POPC   C4A30798   8.802   7.899   7.500
 2256POPC   C1B30799   9.234   8.314   8.564
 2256POPC   C2B30800   8.989   8.414   8.250
 2256POPC   C3B30801   9.097   8.314   7.859
 2256POPC   C4B30802   8.822   8.408   7.547
 2257POPC   NC330803  23.153  42.567   9.488
 2257POPC   PO430804  22.653  42.081   9.385
 2257POPC   GL130805  22.858  42.464   9.102
 2257POPC   GL230806  23.244  42.579   9.001
 2257POPC   C1A30807  22.893  42.543   8.653
 2257POPC   D2A30808  22.966  42.261   8.368
 2257POPC   C3A30809  23.031  42.429   7.991
 2257POPC   C4A30810  22.769  42.371   7.640
 2257POPC   C1B30811  23.230  42.152   8.825
 2257POPC   C2B30812  23.401  41.979   8.435
 2257POPC   C3B30813  23.187  41.939   8.038
 2257POPC   C4B30814  23.218  42.114   7.631
 2258POPC   NC330815  27.691  24.624   9.424
 2258POPC   PO430816  27.386  24.044   9.614
 2258POPC   GL130817  27.430  24.138   9.184
 2258POPC   GL230818  27.804  24.156   9.132
 2258POPC   C1A30819  27.463  24.377   8.789
 2258POPC   D2A30820  27.326  24.519   8.369
 2258POPC   C3A30821  27.453  24.227   8.073
 2258POPC   C4A30822  27.355  24.413   7.686
 2258POPC   C1B30823  28.017  24.262   8.747
 2258POPC   C2B30824  27.837  24.487   8.394
 2258POPC   C3B30825  27.739  24.629   7.992
 2258POPC   C4B30826  27.869  24.299   7.745
 2259POPC   NC330827   0.626  29.541   9.533
 2259POPC   PO430828   0.229  29.037   9.502
 2259POPC   GL130829   0.400  29.251   9.149
 2259POPC   GL230830   0.773  29.263   9.109
 2259POPC   C1A30831   0.263  29.218   8.730
 2259POPC   D2A30832   0.063  29.329   8.348
 2259POPC   C3A30833   0.382  29.215   8.043
 2259POPC   C4A30834   0.407  29.138   7.640
 2259POPC   C1B30835   0.699  28.904   8.810
 2259POPC   C2B30836   0.822  28.786   8.378
 2259POPC   C3B30837   0.660  28.767   7.945
 2259POPC   C4B30838   0.838  28.892   7.561
 2260POPC   NC330839  28.850  10.010   9.848
 2260POPC   PO430840  29.150  10.432   9.447
 2260POPC   GL130841  29.080  10.467   9.063
 2260POPC   GL230842  29.370  10.702   9.041
 2260POPC   C1A30843  28.956  10.270   8.689
 2260POPC   D2A30844  29.136  10.364   8.303
 2260POPC   C3A30845  29.027  10.208   7.908
 2260POPC   C4A30846  28.974  10.375   7.467
 2260POPC   C1B30847  29.169  10.767   8.659
 2260POPC   C2B30848  29.140  10.872   8.247
 2260POPC   C3B30849  29.038  10.724   7.875
 2260POPC   C4B30850  29.293  10.766   7.521
 2261POPC   NC330851  19.410   3.174   9.568
 2261POPC   PO430852  19.062   3.735   9.505
 2261POPC   GL130853  18.970   3.668   9.112
 2261POPC   GL230854  19.039   3.287   9.113
 2261POPC   C1A30855  18.762   3.585   8.738
 2261POPC   D2A30856  18.883   3.307   8.401
 2261POPC   C3A30857  18.839   3.468   8.011
 2261POPC   C4A30858  18.876   3.848   7.851
 2261POPC   C1B30859  19.256   3.410   8.754
 2261POPC   C2B30860  19.402   3.439   8.334
 2261POPC   C3B30861  19.330   3.341   7.908
 2261POPC   C4B30862  19.080   3.312   7.550
 2262POPC   NC330863  12.502  13.778   9.333
 2262POPC   PO430864  11.847  13.755   9.518
 2262POPC   GL130865  11.900  13.789   9.127
 2262POPC   GL230866  12.137  13.518   9.078
 2262POPC   C1A30867  12.078  13.906   8.765
 2262POPC   D2A30868  12.125  13.692   8.406
 2262POPC   C3A30869  12.051  13.886   8.056
 2262POPC   C4A30870  11.729  13.811   7.740
 2262POPC   C1B30871  12.009  13.195   8.806
 2262POPC   C2B30872  12.027  13.172   8.385
 2262POPC   C3B30873  12.022  13.382   7.979
 2262POPC   C4B30874  12.181  13.595   7.669
 2263POPC   NC330875  23.104  23.073   9.477
 2263POPC   PO430876  22.502  23.181   9.411
 2263POPC   GL130877  22.779  23.072   9.070
 2263POPC   GL230878  22.846  22.713   9.088
 2263POPC   C1A30879  22.946  23.187   8.636
 2263POPC   D2A30880  23.072  23.059   8.191
 2263POPC   C3A30881  22.952  23.310   7.810
 2263POPC   C4A30882  22.568  23.341   7.540
 2263POPC   C1B30883  23.111  22.711   8.734
 2263POPC   C2B30884  23.143  22.541   8.313
 2263POPC   C3B30885  23.012  22.625   7.882
 2263POPC   C4B30886  23.158  22.747   7.476
 2264POPC   NC330887  26.101  30.991   9.464
 2264POPC   PO430888  26.178  30.392   9.633
 2264POPC   GL130889  26.260  30.607   9.151
 2264POPC   GL230890  26.430  31.000   9.098
 2264POPC   C1A30891  26.006  30.686   8.743
 2264POPC   D2A30892  25.919  30.902   8.338
 2264POPC   C3A30893  25.742  30.681   7.999
 2264POPC   C4A30894  25.890  30.615   7.574
 2264POPC   C1B30895  26.468  30.880   8.705
 2264POPC   C2B30896  26.357  30.645   8.357
 2264POPC   C3B30897  26.248  30.693   7.951
 2264POPC   C4B30898  26.434  30.368   7.753
 2265POPC   NC330899  43.332  41.824   9.571
 2265POPC   PO430900  42.797  41.455   9.537
 2265POPC   GL130901  42.980  41.469   9.147
 2265POPC   GL230902  43.320  41.590   9.118
 2265POPC   C1A30903  42.904  41.617   8.725
 2265POPC   D2A30904  43.026  41.755   8.326
 2265POPC   C3A30905  42.883  41.602   7.933
 2265POPC   C4A30906  43.103  41.303   7.651
 2265POPC   C1B30907  43.568  41.671   8.755
 2265POPC   C2B30908  43.536  41.852   8.364
 2265POPC   C3B30909  43.444  41.648   7.988
 2265POPC   C4B30910  43.628  41.876   7.705
 2266POPC   NC330911   9.427   5.479   9.509
 2266POPC   PO430912   9.363   4.789   9.577
 2266POPC   GL130913   9.720   4.907   9.287
 2266POPC   GL230914   9.749   5.271   9.153
 2266POPC   C1A30915   9.700   4.863   8.831
 2266POPC   D2A30916   9.535   4.743   8.429
 2266POPC   C3A30917   9.618   4.937   8.028
 2266POPC   C4A30918   9.880   4.839   7.689
 2266POPC   C1B30919   9.418   5.338   8.815
 2266POPC   C2B30920   9.341   5.230   8.389
 2266POPC   C3B30921   9.639   5.439   8.128
 2266POPC   C4B30922   9.774   5.375   7.737
 2267POPC   NC330923  41.134  41.336   9.532
 2267POPC   PO430924  40.614  41.751   9.619
 2267POPC   GL130925  40.735  41.567   9.244
 2267POPC   GL230926  40.597  41.854   9.090
 2267POPC   C1A30927  40.600  41.401   8.843
 2267POPC   D2A30928  40.803  41.411   8.448
 2267POPC   C3A30929  40.597  41.426   8.094
 2267POPC   C4A30930  40.796  41.515   7.728
 2267POPC   C1B30931  40.951  41.887   8.812
 2267POPC   C2B30932  41.206  41.726   8.480
 2267POPC   C3B30933  40.986  41.802   8.117
 2267POPC   C4B30934  40.832  42.050   7.786
 2268POPC   NC330935  15.685  35.888   9.337
 2268POPC   PO430936  15.792  36.477   9.658
 2268POPC   GL130937  15.993  36.311   9.255
 2268POPC   GL230938  16.239  36.011   9.265
 2268POPC   C1A30939  15.801  36.219   8.818
 2268POPC   D2A30940  15.903  35.935   8.455
 2268POPC   C3A30941  15.678  36.033   8.049
 2268POPC   C4A30942  15.804  36.180   7.635
 2268POPC   C1B30943  16.292  36.126   8.820
 2268POPC   C2B30944  16.384  36.142   8.412
 2268POPC   C3B30945  16.174  36.124   8.055
 2268POPC   C4B30946  16.224  35.900   7.724
 2269POPC   NC330947   4.557  18.615   9.478
 2269POPC   PO430948   4.342  17.950   9.413
 2269POPC   GL130949   4.343  18.009   9.027
 2269POPC   GL230950   4.530  18.306   9.074
 2269POPC   C1A30951   4.076  18.232   8.773
 2269POPC   D2A30952   4.072  18.513   8.429
 2269POPC   C3A30953   4.079  18.255   8.081
 2269POPC   C4A30954   3.979  18.345   7.683
 2269POPC   C1B30955   4.496  18.554   8.741
 2269POPC   C2B30956   4.684  18.385   8.431
 2269POPC   C3B30957   4.587  18.292   8.071
 2269POPC   C4B30958   4.398  18.581   7.826
 2270POPC   NC330959  17.215  42.176   9.652
 2270POPC   PO430960  17.629  42.647   9.491
 2270POPC   GL130961  17.376  42.401   9.206
 2270POPC   GL230962  17.039  42.514   9.268
 2270POPC   C1A30963  17.556  42.350   8.789
 2270POPC   D2A30964  17.768  42.438   8.397
 2270POPC   C3A30965  17.534  42.283   8.089
 2270POPC   C4A30966  17.423  42.386   7.699
 2270POPC   C1B30967  17.082  42.616   8.820
 2270POPC   C2B30968  17.374  42.757   8.503
 2270POPC   C3B30969  17.359  42.819   8.055
 2270POPC   C4B30970  17.213  42.839   7.635
 2271POPC   NC330971  27.781  18.079   9.466
 2271POPC   PO430972  27.531  18.551   9.823
 2271POPC   GL130973  27.446  18.578   9.324
 2271POPC   GL230974  27.404  18.242   9.151
 2271POPC   C1A30975  27.319  18.643   8.853
 2271POPC   D2A30976  27.368  18.347   8.518
 2271POPC   C3A30977  27.600  18.409   8.145
 2271POPC   C4A30978  27.452  18.331   7.730
 2271POPC   C1B30979  27.527  17.957   8.811
 2271POPC   C2B30980  27.728  17.976   8.397
 2271POPC   C3B30981  27.586  17.919   7.986
 2271POPC   C4B30982  27.635  17.785   7.536
 2272POPC   NC330983  19.859  36.453   9.580
 2272POPC   PO430984  19.674  37.147   9.552
 2272POPC   GL130985  19.887  37.020   9.208
 2272POPC   GL230986  20.079  36.716   9.215
 2272POPC   C1A30987  20.116  37.135   8.869
 2272POPC   D2A30988  20.003  37.216   8.469
 2272POPC   C3A30989  19.758  37.049   8.156
 2272POPC   C4A30990  20.012  36.989   7.769
 2272POPC   C1B30991  19.908  36.679   8.805
 2272POPC   C2B30992  20.001  36.664   8.383
 2272POPC   C3B30993  20.029  36.512   7.968
 2272POPC   C4B30994  19.896  36.508   7.550
 2273POPC   NC330995   3.054  18.489   9.489
 2273POPC   PO430996   2.679  17.853   9.583
 2273POPC   GL130997   2.703  18.172   9.251
 2273POPC   GL230998   2.981  18.172   9.098
 2273POPC   C1A30999   2.550  18.330   8.860
 2273POPC   D2A31000   2.708  18.270   8.457
 2273POPC   C3A31001   2.447  18.253   8.095
 2273POPC   C4A31002   2.554  18.089   7.694
 2273POPC   C1B31003   3.115  18.415   8.761
 2273POPC   C2B31004   3.179  18.411   8.313
 2273POPC   C3B31005   2.921  18.425   7.926
 2273POPC   C4B31006   2.902  18.351   7.444
 2274POPC   NC331007  11.948  37.318   9.559
 2274POPC   PO431008  11.717  36.770   9.355
 2274POPC   GL131009  11.812  37.149   9.102
 2274POPC   GL231010  12.201  37.216   9.112
 2274POPC   C1A31011  11.910  37.061   8.709
 2274POPC   D2A31012  12.036  36.744   8.420
 2274POPC   C3A31013  11.942  36.885   8.004
 2274POPC   C4A31014  11.951  36.769   7.571
 2274POPC   C1B31015  12.478  37.105   8.714
 2274POPC   C2B31016  12.541  36.885   8.275
 2274POPC   C3B31017  12.402  36.717   7.837
 2274POPC   C4B31018  12.443  36.875   7.386
 2275POPC   NC331019   8.143  11.097   9.469
 2275POPC   PO431020   7.989  11.794   9.546
 2275POPC   GL131021   7.933  11.538   9.209
 2275POPC   GL231022   8.270  11.411   9.078
 2275POPC   C1A31023   7.840  11.453   8.795
 2275POPC   D2A31024   8.143  11.358   8.490
 2275POPC   C3A31025   7.950  11.341   8.105
 2275POPC   C4A31026   8.074  11.488   7.699
 2275POPC   C1B31027   8.491  11.094   8.791
 2275POPC   C2B31028   8.593  11.074   8.348
 2275POPC   C3B31029   8.446  11.281   7.981
 2275POPC   C4B31030   8.455  11.195   7.504
 2276POPC   NC331031  19.971  16.180   9.496
 2276POPC   PO431032  19.454  15.750   9.463
 2276POPC   GL131033  19.830  15.804   9.156
 2276POPC   GL231034  19.804  16.149   9.029
 2276POPC   C1A31035  19.991  15.844   8.697
 2276POPC   D2A31036  19.767  15.958   8.325
 2276POPC   C3A31037  19.985  15.806   7.976
 2276POPC   C4A31038  20.173  16.026   7.632
 2276POPC   C1B31039  19.527  16.271   8.709
 2276POPC   C2B31040  19.383  16.339   8.319
 2276POPC   C3B31041  19.644  16.375   7.959
 2276POPC   C4B31042  19.677  16.081   7.691
 2277POPC   NC331043  42.811  35.775   9.521
 2277POPC   PO431044  43.103  35.117   9.652
 2277POPC   GL131045  42.999  35.351   9.279
 2277POPC   GL231046  42.832  35.092   9.124
 2277POPC   C1A31047  42.980  35.629   8.896
 2277POPC   D2A31048  43.264  35.579   8.536
 2277POPC   C3A31049  43.117  35.663   8.100
 2277POPC   C4A31050  43.155  35.486   7.682
 2277POPC   C1B31051  43.068  35.143   8.795
 2277POPC   C2B31052  43.061  35.134   8.391
 2277POPC   C3B31053  43.291  35.169   8.057
 2277POPC   C4B31054  43.120  34.985   7.723
 2278POPC   NC331055  24.989  42.274   9.413
 2278POPC   PO431056  24.380  42.651   9.456
 2278POPC   GL131057  24.627  42.525   9.144
 2278POPC   GL231058  24.529  42.183   9.206
 2278POPC   C1A31059  24.819  42.606   8.748
 2278POPC   D2A31060  24.537  42.475   8.420
 2278POPC   C3A31061  24.431  42.680   8.063
 2278POPC   C4A31062  24.163  42.500   7.796
 2278POPC   C1B31063  24.635  42.116   8.790
 2278POPC   C2B31064  24.667  41.969   8.365
 2278POPC   C3B31065  24.400  42.091   8.044
 2278POPC   C4B31066  24.687  42.306   7.831
 2279POPC   NC331067  10.317  36.512   9.471
 2279POPC   PO431068  10.898  36.327   9.717
 2279POPC   GL131069  10.661  36.131   9.288
 2279POPC   GL231070  10.343  36.031   9.202
 2279POPC   C1A31071  10.697  36.032   8.833
 2279POPC   D2A31072  10.784  36.202   8.445
 2279POPC   C3A31073  10.828  35.945   8.111
 2279POPC   C4A31074  10.708  36.151   7.740
 2279POPC   C1B31075  10.293  36.309   8.860
 2279POPC   C2B31076  10.268  36.249   8.445
 2279POPC   C3B31077  10.322  36.068   8.080
 2279POPC   C4B31078  10.207  36.140   7.690
 2280POPC   NC331079  32.801   1.009   9.454
 2280POPC   PO431080  33.112   1.595   9.465
 2280POPC   GL131081  33.095   1.335   9.136
 2280POPC   GL231082  32.754   1.416   9.113
 2280POPC   C1A31083  32.993   1.056   8.791
 2280POPC   D2A31084  33.144   0.882   8.410
 2280POPC   C3A31085  32.922   0.951   8.035
 2280POPC   C4A31086  33.280   0.978   7.771
 2280POPC   C1B31087  32.910   1.579   8.721
 2280POPC   C2B31088  33.161   1.389   8.371
 2280POPC   C3B31089  33.059   1.422   7.924
 2280POPC   C4B31090  32.780   1.456   7.582
 2281POPC   NC331091  13.018   0.233  10.077
 2281POPC   PO431092  12.461   0.258   9.681
 2281POPC   GL131093  12.631   0.285   9.220
 2281POPC   GL231094  12.619   0.603   9.125
 2281POPC   C1A31095  12.968   0.271   8.880
 2281POPC   D2A31096  12.908   0.170   8.444
 2281POPC   C3A31097  13.145   0.196   8.072
 2281POPC   C4A31098  13.213   0.448   7.704
 2281POPC   C1B31099  12.564   0.516   8.669
 2281POPC   C2B31100  12.685   0.734   8.278
 2281POPC   C3B31101  12.745   0.646   7.842
 2281POPC   C4B31102  12.845   0.791   7.412
 2282POPC   NC331103  41.688  30.581   9.427
 2282POPC   PO431104  41.320  31.071   9.433
 2282POPC   GL131105  41.535  30.918   9.049
 2282POPC   GL231106  41.912  30.881   9.096
 2282POPC   C1A31107  41.558  30.893   8.582
 2282POPC   D2A31108  41.442  30.536   8.321
 2282POPC   C3A31109  41.208  30.656   7.975
 2282POPC   C4A31110  41.415  30.945   7.738
 2282POPC   C1B31111  41.974  30.637   8.736
 2282POPC   C2B31112  42.042  30.786   8.342
 2282POPC   C3B31113  41.948  30.711   7.920
 2282POPC   C4B31114  41.610  30.477   7.721
 2283POPC   NC331115  27.880  42.773   9.376
 2283POPC   PO431116  27.694  42.187   9.601
 2283POPC   GL131117  27.705  42.107   9.174
 2283POPC   GL231118  27.707  42.418   9.056
 2283POPC   C1A31119  27.604  41.933   8.739
 2283POPC   D2A31120  27.577  42.059   8.297
 2283POPC   C3A31121  27.882  42.186   7.974
 2283POPC   C4A31122  27.721  42.218   7.544
 2283POPC   C1B31123  27.412  42.435   8.742
 2283POPC   C2B31124  27.358  42.527   8.334
 2283POPC   C3B31125  27.484  42.493   7.966
 2283POPC   C4B31126  27.258  42.402   7.664
 2284POPC   NC331127  42.117  44.161   9.656
 2284POPC   PO431128  41.621  44.654   9.524
 2284POPC   GL131129  41.663  44.862   9.108
 2284POPC   GL231130  41.941   0.053   8.994
 2284POPC   C1A31131  41.505  44.836   8.719
 2284POPC   D2A31132  41.610  44.946   8.325
 2284POPC   C3A31133  41.510  44.575   8.127
 2284POPC   C4A31134  41.466  44.530   7.701
 2284POPC   C1B31135  42.001  44.690   8.735
 2284POPC   C2B31136  42.025  44.598   8.315
 2284POPC   C3B31137  41.929  44.773   7.927
 2284POPC   C4B31138  41.953  44.480   7.621
 2285POPC   NC331139  40.829  23.395   9.550
 2285POPC   PO431140  40.471  23.919   9.601
 2285POPC   GL131141  40.735  23.774   9.241
 2285POPC   GL231142  40.608  23.454   9.101
 2285POPC   C1A31143  40.746  23.875   8.823
 2285POPC   D2A31144  40.556  23.965   8.446
 2285POPC   C3A31145  40.797  24.099   8.111
 2285POPC   C4A31146  40.832  23.921   7.688
 2285POPC   C1B31147  40.821  23.361   8.720
 2285POPC   C2B31148  40.916  23.200   8.310
 2285POPC   C3B31149  40.769  23.288   7.912
 2285POPC   C4B31150  40.892  23.444   7.495
 2286POPC   NC331151  18.728  14.856   9.525
 2286POPC   PO431152  18.713  15.531   9.586
 2286POPC   GL131153  19.007  15.432   9.222
 2286POPC   GL231154  19.067  15.067   9.154
 2286POPC   C1A31155  19.110  15.390   8.766
 2286POPC   D2A31156  19.158  15.190   8.365
 2286POPC   C3A31157  18.997  15.493   8.095
 2286POPC   C4A31158  18.873  15.567   7.685
 2286POPC   C1B31159  19.140  14.712   8.842
 2286POPC   C2B31160  18.977  14.584   8.455
 2286POPC   C3B31161  18.777  14.809   8.130
 2286POPC   C4B31162  18.871  15.064   7.791
 2287POPC   NC331163  39.789  36.558   9.907
 2287POPC   PO431164  40.157  37.018   9.563
 2287POPC   GL131165  40.109  37.063   9.164
 2287POPC   GL231166  39.889  37.367   9.225
 2287POPC   C1A31167  40.101  36.763   8.796
 2287POPC   D2A31168  40.011  36.556   8.389
 2287POPC   C3A31169  40.075  36.789   7.995
 2287POPC   C4A31170  40.311  36.645   7.655
 2287POPC   C1B31171  39.760  37.180   8.840
 2287POPC   C2B31172  39.755  36.984   8.445
 2287POPC   C3B31173  39.673  37.130   8.071
 2287POPC   C4B31174  39.684  37.365   7.714
 2288POPC   NC331175  37.785   0.891   9.290
 2288POPC   PO431176  37.462   1.389   9.585
 2288POPC   GL131177  37.562   1.349   9.182
 2288POPC   GL231178  37.896   1.383   9.160
 2288POPC   C1A31179  37.472   1.227   8.785
 2288POPC   D2A31180  37.570   0.857   8.558
 2288POPC   C3A31181  37.757   0.988   8.201
 2288POPC   C4A31182  37.526   1.181   7.885
 2288POPC   C1B31183  37.947   1.354   8.724
 2288POPC   C2B31184  37.801   1.505   8.320
 2288POPC   C3B31185  37.995   1.374   7.926
 2288POPC   C4B31186  37.958   1.141   7.553
 2289POPC   NC331187  22.642  31.708   9.278
 2289POPC   PO431188  23.038  32.232   9.432
 2289POPC   GL131189  23.090  32.186   9.051
 2289POPC   GL231190  22.929  31.897   8.898
 2289POPC   C1A31191  23.081  32.311   8.648
 2289POPC   D2A31192  22.831  32.386   8.304
 2289POPC   C3A31193  23.127  32.340   7.999
 2289POPC   C4A31194  23.197  32.306   7.583
 2289POPC   C1B31195  22.694  31.830   8.511
 2289POPC   C2B31196  22.748  31.927   8.089
 2289POPC   C3B31197  22.676  32.248   7.783
 2289POPC   C4B31198  22.790  31.971   7.493
 2290POPC   NC331199  25.110  41.505   9.594
 2290POPC   PO431200  25.703  41.787   9.513
 2290POPC   GL131201  25.389  41.615   9.132
 2290POPC   GL231202  25.022  41.502   9.115
 2290POPC   C1A31203  25.266  41.470   8.694
 2290POPC   D2A31204  25.335  41.450   8.295
 2290POPC   C3A31205  25.025  41.653   8.071
 2290POPC   C4A31206  25.225  41.617   7.748
 2290POPC   C1B31207  24.858  41.185   8.840
 2290POPC   C2B31208  24.824  41.299   8.402
 2290POPC   C3B31209  24.894  41.165   7.985
 2290POPC   C4B31210  24.787  41.398   7.598
 2291POPC   NC331211  28.867   1.221   9.826
 2291POPC   PO431212  28.335   1.403   9.433
 2291POPC   GL131213  28.365   1.429   9.032
 2291POPC   GL231214  28.580   1.674   8.981
 2291POPC   C1A31215  28.354   1.116   8.737
 2291POPC   D2A31216  28.197   1.314   8.362
 2291POPC   C3A31217  28.359   1.180   8.033
 2291POPC   C4A31218  28.444   0.994   7.732
 2291POPC   C1B31219  28.664   1.467   8.565
 2291POPC   C2B31220  28.625   1.585   8.131
 2291POPC   C3B31221  28.784   1.585   7.677
 2291POPC   C4B31222  28.679   1.592   7.224
 2292POPC   NC331223   9.366   8.066   9.265
 2292POPC   PO431224   9.978   8.142   9.527
 2292POPC   GL131225   9.805   8.334   9.161
 2292POPC   GL231226   9.528   8.537   9.230
 2292POPC   C1A31227   9.727   8.174   8.747
 2292POPC   D2A31228   9.569   7.957   8.394
 2292POPC   C3A31229   9.636   8.220   8.065
 2292POPC   C4A31230   9.561   8.233   7.670
 2292POPC   C1B31231   9.530   8.647   8.823
 2292POPC   C2B31232   9.719   8.572   8.414
 2292POPC   C3B31233   9.666   8.727   7.955
 2292POPC   C4B31234   9.774   8.640   7.502
 2293POPC   NC331235  15.929  36.909   9.761
 2293POPC   PO431236  16.482  37.155   9.543
 2293POPC   GL131237  16.143  37.100   9.249
 2293POPC   GL231238  15.873  36.849   9.241
 2293POPC   C1A31239  16.071  37.167   8.821
 2293POPC   D2A31240  16.060  36.992   8.425
 2293POPC   C3A31241  16.278  37.198   8.098
 2293POPC   C4A31242  16.089  37.373   7.743
 2293POPC   C1B31243  16.085  36.644   8.863
 2293POPC   C2B31244  15.980  36.469   8.426
 2293POPC   C3B31245  15.855  36.518   8.006
 2293POPC   C4B31246  15.616  36.660   7.713
 2294POPC   NC331247  39.330  18.834   9.610
 2294POPC   PO431248  38.825  19.159   9.477
 2294POPC   GL131249  39.054  18.913   9.203
 2294POPC   GL231250  39.316  19.189   9.176
 2294POPC   C1A31251  39.330  18.771   8.871
 2294POPC   D2A31252  39.467  18.836   8.451
 2294POPC   C3A31253  39.268  18.929   8.058
 2294POPC   C4A31254  39.506  19.135   7.754
 2294POPC   C1B31255  39.034  19.196   8.796
 2294POPC   C2B31256  39.157  19.296   8.404
 2294POPC   C3B31257  39.196  19.455   8.033
 2294POPC   C4B31258  39.020  19.355   7.674
 2295POPC   NC331259  38.813  29.382   9.501
 2295POPC   PO431260  38.110  29.362   9.479
 2295POPC   GL131261  38.346  29.153   9.181
 2295POPC   GL231262  38.277  28.792   9.207
 2295POPC   C1A31263  38.492  29.316   8.772
 2295POPC   D2A31264  38.315  29.282   8.343
 2295POPC   C3A31265  38.529  29.475   8.004
 2295POPC   C4A31266  38.567  29.247   7.652
 2295POPC   C1B31267  38.635  28.822   8.912
 2295POPC   C2B31268  38.652  28.895   8.459
 2295POPC   C3B31269  38.542  28.872   8.009
 2295POPC   C4B31270  38.468  28.760   7.553
 2296POPC   NC331271  18.660  23.377   9.502
 2296POPC   PO431272  18.897  24.067   9.477
 2296POPC   GL131273  18.971  23.658   9.169
 2296POPC   GL231274  19.334  23.451   9.143
 2296POPC   C1A31275  19.190  23.751   8.771
 2296POPC   D2A31276  19.367  23.982   8.463
 2296POPC   C3A31277  19.275  23.785   8.111
 2296POPC   C4A31278  19.054  23.885   7.778
 2296POPC   C1B31279  19.079  23.246   8.789
 2296POPC   C2B31280  19.096  23.342   8.327
 2296POPC   C3B31281  19.068  23.345   7.867
 2296POPC   C4B31282  18.968  23.517   7.443
 2297POPC   NC331283  14.229  27.726   9.535
 2297POPC   PO431284  14.607  27.236   9.261
 2297POPC   GL131285  14.532  27.517   8.964
 2297POPC   GL231286  14.391  27.775   9.055
 2297POPC   C1A31287  14.597  27.594   8.559
 2297POPC   D2A31288  14.354  27.484   8.217
 2297POPC   C3A31289  14.597  27.493   7.873
 2297POPC   C4A31290  14.624  27.848   7.687
 2297POPC   C1B31291  14.166  27.872   8.686
 2297POPC   C2B31292  13.991  28.044   8.332
 2297POPC   C3B31293  14.008  27.806   7.953
 2297POPC   C4B31294  13.702  27.633   7.648
 2298POPC   NC331295  25.018  27.593   9.390
 2298POPC   PO431296  25.632  27.412   9.655
 2298POPC   GL131297  25.459  27.405   9.229
 2298POPC   GL231298  25.457  27.786   9.211
 2298POPC   C1A31299  25.200  27.352   8.811
 2298POPC   D2A31300  25.110  27.592   8.408
 2298POPC   C3A31301  25.148  27.403   8.018
 2298POPC   C4A31302  25.429  27.404   7.623
 2298POPC   C1B31303  25.272  27.862   8.813
 2298POPC   C2B31304  25.346  28.066   8.438
 2298POPC   C3B31305  25.414  27.959   8.026
 2298POPC   C4B31306  25.136  27.811   7.737
 2299POPC   NC331307  43.666  12.245   9.616
 2299POPC   PO431308  44.005  11.700   9.657
 2299POPC   GL131309  43.972  11.985   9.265
 2299POPC   GL231310  43.640  11.961   9.188
 2299POPC   C1A31311  44.138  12.138   8.804
 2299POPC   D2A31312  44.249  12.199   8.329
 2299POPC   C3A31313  44.000  12.057   7.946
 2299POPC   C4A31314  44.053  12.048   7.453
 2299POPC   C1B31315  43.667  12.295   8.900
 2299POPC   C2B31316  43.738  12.222   8.452
 2299POPC   C3B31317  43.515  12.225   8.065
 2299POPC   C4B31318  43.655  12.310   7.651
 2300POPC   NC331319  41.065  28.341   9.388
 2300POPC   PO431320  40.599  28.550   9.774
 2300POPC   GL131321  40.572  28.299   9.294
 2300POPC   GL231322  40.725  27.973   9.163
 2300POPC   C1A31323  40.764  28.323   8.799
 2300POPC   D2A31324  40.689  28.665   8.481
 2300POPC   C3A31325  40.591  28.519   8.058
 2300POPC   C4A31326  40.690  28.449   7.617
 2300POPC   C1B31327  40.515  27.876   8.773
 2300POPC   C2B31328  40.569  28.088   8.359
 2300POPC   C3B31329  40.585  28.028   7.897
 2300POPC   C4B31330  40.489  28.011   7.437
 2301POPC   NC331331  28.431  11.758   9.534
 2301POPC   PO431332  28.699  12.296   9.263
 2301POPC   GL131333  28.331  12.121   9.120
 2301POPC   GL231334  28.468  11.804   9.036
 2301POPC   C1A31335  28.048  12.325   8.826
 2301POPC   D2A31336  28.029  12.618   8.456
 2301POPC   C3A31337  28.043  12.385   8.065
 2301POPC   C4A31338  28.261  12.340   7.668
 2301POPC   C1B31339  28.083  11.720   8.846
 2301POPC   C2B31340  28.057  11.956   8.454
 2301POPC   C3B31341  28.324  11.960   8.084
 2301POPC   C4B31342  28.141  11.827   7.729
 2302POPC   NC331343  37.659  35.633   9.689
 2302POPC   PO431344  37.767  36.207   9.446
 2302POPC   GL131345  37.914  35.874   9.178
 2302POPC   GL231346  37.621  35.642   9.186
 2302POPC   C1A31347  38.003  36.031   8.743
 2302POPC   D2A31348  37.698  36.355   8.551
 2302POPC   C3A31349  37.714  36.331   8.087
 2302POPC   C4A31350  37.830  36.434   7.647
 2302POPC   C1B31351  37.520  35.946   8.863
 2302POPC   C2B31352  37.540  35.876   8.443
 2302POPC   C3B31353  37.499  35.842   8.014
 2302POPC   C4B31354  37.836  35.911   7.741
 2303POPC   NC331355   2.750  34.900   9.555
 2303POPC   PO431356   3.029  34.214   9.452
 2303POPC   GL131357   2.824  34.416   9.149
 2303POPC   GL231358   2.890  34.738   9.098
 2303POPC   C1A31359   2.777  34.404   8.716
 2303POPC   D2A31360   2.607  34.609   8.345
 2303POPC   C3A31361   2.849  34.375   8.056
 2303POPC   C4A31362   3.078  34.268   7.701
 2303POPC   C1B31363   2.724  34.908   8.774
 2303POPC   C2B31364   2.983  34.991   8.446
 2303POPC   C3B31365   2.966  34.865   8.047
 2303POPC   C4B31366   2.800  34.755   7.675
 2304POPC   NC331367  33.379  30.676   9.702
 2304POPC   PO431368  34.000  31.001   9.626
 2304POPC   GL131369  33.888  30.681   9.291
 2304POPC   GL231370  33.594  30.779   9.064
 2304POPC   C1A31371  34.045  30.679   8.853
 2304POPC   D2A31372  33.925  30.992   8.528
 2304POPC   C3A31373  33.854  30.802   8.127
 2304POPC   C4A31374  34.164  30.595   7.852
 2304POPC   C1B31375  33.328  30.906   8.684
 2304POPC   C2B31376  33.320  31.005   8.242
 2304POPC   C3B31377  33.394  30.921   7.811
 2304POPC   C4B31378  33.426  30.944   7.345
 2305POPC   NC331379   2.984  32.982   9.560
 2305POPC   PO431380   2.258  32.822   9.424
 2305POPC   GL131381   2.630  32.736   9.155
 2305POPC   GL231382   2.965  32.892   9.069
 2305POPC   C1A31383   2.542  32.878   8.748
 2305POPC   D2A31384   2.536  33.089   8.384
 2305POPC   C3A31385   2.743  33.044   8.000
 2305POPC   C4A31386   2.521  32.852   7.692
 2305POPC   C1B31387   2.899  33.247   8.792
 2305POPC   C2B31388   3.021  33.326   8.383
 2305POPC   C3B31389   2.970  33.499   7.981
 2305POPC   C4B31390   3.011  33.375   7.570
 2306POPC   NC331391  33.860  40.925   9.546
 2306POPC   PO431392  33.546  40.368   9.531
 2306POPC   GL131393  33.602  40.640   9.206
 2306POPC   GL231394  33.944  40.546   9.199
 2306POPC   C1A31395  33.701  40.862   8.825
 2306POPC   D2A31396  33.674  40.664   8.450
 2306POPC   C3A31397  33.502  40.718   8.063
 2306POPC   C4A31398  33.593  40.847   7.674
 2306POPC   C1B31399  34.145  40.582   8.841
 2306POPC   C2B31400  34.183  40.805   8.485
 2306POPC   C3B31401  34.035  40.635   8.111
 2306POPC   C4B31402  34.137  40.724   7.745
 2307POPC   NC331403  43.783  21.575   9.720
 2307POPC   PO431404  44.180  21.035   9.578
 2307POPC   GL131405  44.031  21.324   9.313
 2307POPC   GL231406  43.693  21.214   9.362
 2307POPC   C1A31407  44.017  21.506   8.916
 2307POPC   D2A31408  43.787  21.520   8.566
 2307POPC   C3A31409  43.880  21.581   8.134
 2307POPC   C4A31410  43.857  21.821   7.736
 2307POPC   C1B31411  43.609  21.190   8.925
 2307POPC   C2B31412  43.639  21.027   8.514
 2307POPC   C3B31413  43.455  21.136   8.125
 2307POPC   C4B31414  43.608  21.359   7.762
 2308POPC   NC331415  21.337  17.832   9.361
 2308POPC   PO431416  21.218  17.338   9.777
 2308POPC   GL131417  21.340  17.315   9.270
 2308POPC   GL231418  21.127  17.550   9.007
 2308POPC   C1A31419  21.410  17.224   8.775
 2308POPC   D2A31420  21.305  17.392   8.342
 2308POPC   C3A31421  21.474  17.155   7.983
 2308POPC   C4A31422  21.437  17.030   7.525
 2308POPC   C1B31423  21.458  17.755   8.707
 2308POPC   C2B31424  21.646  17.807   8.270
 2308POPC   C3B31425  21.537  17.636   7.862
 2308POPC   C4B31426  21.099  17.468   7.867
 2309POPC   NC331427  11.466  19.041   9.568
 2309POPC   PO431428  11.084  19.585   9.451
 2309POPC   GL131429  11.222  19.186   9.159
 2309POPC   GL231430  11.423  18.809   9.106
 2309POPC   C1A31431  11.473  19.191   8.795
 2309POPC   D2A31432  11.264  19.169   8.438
 2309POPC   C3A31433  11.512  18.951   8.144
 2309POPC   C4A31434  11.435  18.972   7.708
 2309POPC   C1B31435  11.072  18.795   8.820
 2309POPC   C2B31436  10.984  18.750   8.398
 2309POPC   C3B31437  11.015  18.974   8.018
 2309POPC   C4B31438  10.933  18.753   7.664
 2310POPC   NC331439   2.172  13.019   9.643
 2310POPC   PO431440   1.565  12.761   9.589
 2310POPC   GL131441   1.762  13.055   9.264
 2310POPC   GL231442   2.097  12.958   9.128
 2310POPC   C1A31443   1.738  13.179   8.833
 2310POPC   D2A31444   1.896  13.205   8.410
 2310POPC   C3A31445   1.746  13.059   7.967
 2310POPC   C4A31446   1.986  12.866   7.587
 2310POPC   C1B31447   1.998  12.753   8.732
 2310POPC   C2B31448   2.042  12.710   8.272
 2310POPC   C3B31449   1.953  12.464   7.898
 2310POPC   C4B31450   2.121  12.219   7.543
 2311POPC   NC331451  42.873  40.112   9.683
 2311POPC   PO431452  43.455  39.749   9.488
 2311POPC   GL131453  43.250  39.997   9.151
 2311POPC   GL231454  42.948  39.972   9.198
 2311POPC   C1A31455  43.153  39.876   8.727
 2311POPC   D2A31456  43.417  39.809   8.373
 2311POPC   C3A31457  43.188  39.932   8.017
 2311POPC   C4A31458  43.147  39.595   7.802
 2311POPC   C1B31459  42.737  40.189   8.873
 2311POPC   C2B31460  42.553  40.256   8.455
 2311POPC   C3B31461  42.744  40.225   7.998
 2311POPC   C4B31462  42.782  39.983   7.604
 2312POPC   NC331463  26.106  18.408   9.727
 2312POPC   PO431464  25.752  17.962   9.375
 2312POPC   GL131465  25.954  18.292   9.173
 2312POPC   GL231466  26.211  18.548   9.226
 2312POPC   C1A31467  26.044  18.173   8.760
 2312POPC   D2A31468  26.176  18.034   8.357
 2312POPC   C3A31469  25.884  18.160   8.081
 2312POPC   C4A31470  25.874  18.204   7.665
 2312POPC   C1B31471  26.357  18.558   8.790
 2312POPC   C2B31472  26.078  18.554   8.402
 2312POPC   C3B31473  26.153  18.591   7.957
 2312POPC   C4B31474  26.377  18.551   7.583
 2313POPC   NC331475  11.172   0.839   9.458
 2313POPC   PO431476  11.334   1.470   9.528
 2313POPC   GL131477  11.290   1.276   9.187
 2313POPC   GL231478  10.975   1.440   9.092
 2313POPC   C1A31479  11.394   1.368   8.782
 2313POPC   D2A31480  11.408   1.200   8.365
 2313POPC   C3A31481  11.209   1.450   8.034
 2313POPC   C4A31482  11.186   1.288   7.611
 2313POPC   C1B31483  11.014   1.030   8.836
 2313POPC   C2B31484  11.049   0.824   8.448
 2313POPC   C3B31485  11.061   0.955   8.026
 2313POPC   C4B31486  10.950   0.838   7.610
 2314POPC   NC331487   7.820  16.153   9.550
 2314POPC   PO431488   7.320  15.712   9.539
 2314POPC   GL131489   7.311  15.913   9.173
 2314POPC   GL231490   7.577  15.693   9.105
 2314POPC   C1A31491   7.367  16.087   8.775
 2314POPC   D2A31492   7.571  16.061   8.395
 2314POPC   C3A31493   7.389  16.172   8.036
 2314POPC   C4A31494   7.323  15.929   7.689
 2314POPC   C1B31495   7.748  15.708   8.739
 2314POPC   C2B31496   7.937  15.655   8.367
 2314POPC   C3B31497   7.719  15.719   8.022
 2314POPC   C4B31498   7.813  15.851   7.654
 2315POPC   NC331499  35.564  40.827   9.178
 2315POPC   PO431500  35.048  40.729   9.647
 2315POPC   GL131501  35.043  40.726   9.169
 2315POPC   GL231502  35.136  41.057   8.933
 2315POPC   C1A31503  35.168  40.584   8.758
 2315POPC   D2A31504  35.271  40.730   8.381
 2315POPC   C3A31505  35.317  40.518   8.012
 2315POPC   C4A31506  35.211  40.786   7.698
 2315POPC   C1B31507  35.531  41.103   8.600
 2315POPC   C2B31508  35.743  40.817   8.257
 2315POPC   C3B31509  35.716  40.867   7.819
 2315POPC   C4B31510  35.646  40.916   7.350
 2316POPC   NC331511  17.683  17.874   9.386
 2316POPC   PO431512  17.362  17.269   9.568
 2316POPC   GL131513  17.362  17.407   9.154
 2316POPC   GL231514  17.709  17.447   9.091
 2316POPC   C1A31515  17.432  17.209   8.720
 2316POPC   D2A31516  17.514  17.401   8.308
 2316POPC   C3A31517  17.714  17.213   7.974
 2316POPC   C4A31518  17.589  17.378   7.604
 2316POPC   C1B31519  17.653  17.686   8.704
 2316POPC   C2B31520  17.370  17.889   8.389
 2316POPC   C3B31521  17.389  17.850   7.918
 2316POPC   C4B31522  17.269  17.809   7.438
 2317POPC   NC331523  40.251  31.742   9.489
 2317POPC   PO431524  39.702  31.295   9.503
 2317POPC   GL131525  40.027  31.386   9.178
 2317POPC   GL231526  40.221  31.711   9.005
 2317POPC   C1A31527  39.873  31.448   8.768
 2317POPC   D2A31528  39.721  31.260   8.415
 2317POPC   C3A31529  39.827  31.485   8.090
 2317POPC   C4A31530  40.068  31.339   7.778
 2317POPC   C1B31531  40.381  31.348   8.809
 2317POPC   C2B31532  40.242  31.424   8.403
 2317POPC   C3B31533  40.271  31.733   8.054
 2317POPC   C4B31534  40.355  31.709   7.616
 2318POPC   NC331535  43.837  33.621   9.417
 2318POPC   PO431536  44.213  34.167   9.548
 2318POPC   GL131537  44.113  33.959   9.146
 2318POPC   GL231538  43.749  34.025   9.046
 2318POPC   C1A31539  44.032  33.734   8.750
 2318POPC   D2A31540  43.937  33.384   8.521
 2318POPC   C3A31541  44.154  33.387   8.096
 2318POPC   C4A31542  44.109  33.472   7.628
 2318POPC   C1B31543  43.513  33.771   8.771
 2318POPC   C2B31544  43.538  33.712   8.345
 2318POPC   C3B31545  43.763  33.702   7.991
 2318POPC   C4B31546  43.813  33.903   7.614
 2319POPC   NC331547  31.703   2.517   9.622
 2319POPC   PO431548  31.166   2.956   9.468
 2319POPC   GL131549  31.113   2.756   9.096
 2319POPC   GL231550  31.443   2.615   9.134
 2319POPC   C1A31551  31.170   2.793   8.649
 2319POPC   D2A31552  31.416   2.740   8.312
 2319POPC   C3A31553  31.538   2.960   7.963
 2319POPC   C4A31554  31.941   2.810   7.823
 2319POPC   C1B31555  31.698   2.690   8.766
 2319POPC   C2B31556  31.767   2.392   8.433
 2319POPC   C3B31557  31.645   2.407   7.993
 2319POPC   C4B31558  31.251   2.573   7.840
 2320POPC   NC331559  27.406  35.677   9.409
 2320POPC   PO431560  27.674  36.113   9.841
 2320POPC   GL131561  27.489  36.167   9.427
 2320POPC   GL231562  27.775  36.020   9.282
 2320POPC   C1A31563  27.404  36.157   8.958
 2320POPC   D2A31564  27.287  35.942   8.557
 2320POPC   C3A31565  27.344  36.204   8.198
 2320POPC   C4A31566  27.436  36.040   7.793
 2320POPC   C1B31567  27.882  35.979   8.819
 2320POPC   C2B31568  27.815  36.076   8.363
 2320POPC   C3B31569  27.936  36.145   7.909
 2320POPC   C4B31570  27.742  36.347   7.518
 2321POPC   NC331571  24.038  30.756   9.323
 2321POPC   PO431572  23.447  30.556   9.572
 2321POPC   GL131573  23.588  30.550   9.182
 2321POPC   GL231574  23.397  30.789   9.059
 2321POPC   C1A31575  23.440  30.339   8.788
 2321POPC   D2A31576  23.400  30.445   8.356
 2321POPC   C3A31577  23.658  30.672   8.114
 2321POPC   C4A31578  23.585  30.817   7.709
 2321POPC   C1B31579  23.742  30.757   8.735
 2321POPC   C2B31580  23.884  31.038   8.434
 2321POPC   C3B31581  23.717  31.185   8.047
 2321POPC   C4B31582  24.024  31.187   7.716
 2322POPC   NC331583  16.460  16.517   9.447
 2322POPC   PO431584  15.809  16.821   9.462
 2322POPC   GL131585  15.984  16.713   9.081
 2322POPC   GL231586  16.328  16.833   9.080
 2322POPC   C1A31587  15.821  16.667   8.659
 2322POPC   D2A31588  15.566  16.904   8.364
 2322POPC   C3A31589  15.606  16.838   7.920
 2322POPC   C4A31590  15.646  16.526   7.565
 2322POPC   C1B31591  16.235  17.014   8.717
 2322POPC   C2B31592  16.218  16.776   8.370
 2322POPC   C3B31593  16.287  16.906   7.990
 2322POPC   C4B31594  16.064  16.808   7.632
 2323POPC   NC331595  14.588   0.386   9.315
 2323POPC   PO431596  14.406  44.702   9.527
 2323POPC   GL131597  14.525  44.610   9.132
 2323POPC   GL231598  14.237  44.428   8.938
 2323POPC   C1A31599  14.536  44.774   8.732
 2323POPC   D2A31600  14.197  44.730   8.437
 2323POPC   C3A31601  14.340  44.832   8.031
 2323POPC   C4A31602  14.624  44.720   7.670
 2323POPC   C1B31603  13.923  44.308   8.648
 2323POPC   C2B31604  13.968  44.338   8.180
 2323POPC   C3B31605  14.209  44.398   7.797
 2323POPC   C4B31606  14.253  44.459   7.354
 2324POPC   NC331607  10.477  31.992   9.529
 2324POPC   PO431608  10.430  31.322   9.546
 2324POPC   GL131609  10.589  31.595   9.242
 2324POPC   GL231610  10.922  31.514   9.320
 2324POPC   C1A31611  10.476  31.649   8.811
 2324POPC   D2A31612  10.687  31.685   8.426
 2324POPC   C3A31613  10.624  31.395   8.118
 2324POPC   C4A31614  10.452  31.508   7.727
 2324POPC   C1B31615  11.017  31.610   8.906
 2324POPC   C2B31616  11.179  31.539   8.504
 2324POPC   C3B31617  11.116  31.748   8.122
 2324POPC   C4B31618  10.885  31.764   7.776
 2325POPC   NC331619  22.677   0.838   9.361
 2325POPC   PO431620  23.171   1.326   9.585
 2325POPC   GL131621  22.961   1.226   9.152
 2325POPC   GL231622  22.687   1.431   9.031
 2325POPC   C1A31623  22.897   1.092   8.689
 2325POPC   D2A31624  23.093   1.123   8.265
 2325POPC   C3A31625  22.909   1.054   7.875
 2325POPC   C4A31626  22.687   0.828   7.583
 2325POPC   C1B31627  22.563   1.491   8.629
 2325POPC   C2B31628  22.622   1.347   8.227
 2325POPC   C3B31629  22.510   1.391   7.818
 2325POPC   C4B31630  22.695   1.328   7.447
 2326POPC   NC331631   6.704   5.580   9.616
 2326POPC   PO431632   6.554   6.278   9.560
 2326POPC   GL131633   6.687   5.954   9.190
 2326POPC   GL231634   6.531   5.595   9.153
 2326POPC   C1A31635   6.628   5.810   8.724
 2326POPC   D2A31636   6.492   5.595   8.380
 2326POPC   C3A31637   6.459   5.846   8.025
 2326POPC   C4A31638   6.621   6.112   7.701
 2326POPC   C1B31639   6.955   5.513   8.953
 2326POPC   C2B31640   7.037   5.529   8.511
 2326POPC   C3B31641   6.995   5.721   8.112
 2326POPC   C4B31642   6.823   5.645   7.700
 2327POPC   NC331643  23.832  20.856   9.513
 2327POPC   PO431644  23.352  20.241   9.516
 2327POPC   GL131645  23.597  20.501   9.219
 2327POPC   GL231646  23.929  20.433   9.181
 2327POPC   C1A31647  23.581  20.766   8.847
 2327POPC   D2A31648  23.650  21.020   8.476
 2327POPC   C3A31649  23.630  20.742   8.110
 2327POPC   C4A31650  23.835  20.691   7.710
 2327POPC   C1B31651  23.735  20.275   8.787
 2327POPC   C2B31652  23.793  20.329   8.373
 2327POPC   C3B31653  23.958  20.239   7.980
 2327POPC   C4B31654  24.183  20.331   7.602
 2328POPC   NC331655  38.442  16.657   9.791
 2328POPC   PO431656  37.958  17.113   9.770
 2328POPC   GL131657  38.142  16.882   9.359
 2328POPC   GL231658  38.363  16.574   9.236
 2328POPC   C1A31659  38.259  16.941   8.897
 2328POPC   D2A31660  38.262  17.051   8.447
 2328POPC   C3A31661  38.214  16.699   8.135
 2328POPC   C4A31662  38.400  16.655   7.713
 2328POPC   C1B31663  38.485  16.476   8.733
 2328POPC   C2B31664  38.639  16.439   8.241
 2328POPC   C3B31665  38.768  16.314   7.795
 2328POPC   C4B31666  38.601  16.344   7.333
 2329POPC   NC331667   3.903   8.864   9.458
 2329POPC   PO431668   4.460   8.997   9.319
 2329POPC   GL131669   4.298   8.628   9.098
 2329POPC   GL231670   3.920   8.611   9.022
 2329POPC   C1A31671   4.531   8.502   8.715
 2329POPC   D2A31672   4.452   8.653   8.287
 2329POPC   C3A31673   4.505   9.005   8.017
 2329POPC   C4A31674   4.697   8.979   7.619
 2329POPC   C1B31675   4.071   8.713   8.626
 2329POPC   C2B31676   3.983   8.818   8.209
 2329POPC   C3B31677   3.974   9.110   7.876
 2329POPC   C4B31678   3.736   9.137   7.521
 2330POPC   NC331679   0.128  11.373   9.634
 2330POPC   PO431680   0.317  10.788   9.427
 2330POPC   GL131681   0.441  11.190   9.175
 2330POPC   GL231682   0.216  11.471   9.157
 2330POPC   C1A31683   0.442  11.402   8.719
 2330POPC   D2A31684   0.174  11.560   8.366
 2330POPC   C3A31685   0.341  11.494   7.928
 2330POPC   C4A31686   0.721  11.464   7.667
 2330POPC   C1B31687   0.023  11.115   8.908
 2330POPC   C2B31688   0.151  10.980   8.512
 2330POPC   C3B31689   0.068  11.097   8.125
 2330POPC   C4B31690   0.138  11.077   7.710
 2331POPC   NC331691   8.676   5.698   9.492
 2331POPC   PO431692   9.289   5.918   9.596
 2331POPC   GL131693   9.085   6.034   9.194
 2331POPC   GL231694   8.993   5.696   9.068
 2331POPC   C1A31695   9.038   6.037   8.711
 2331POPC   D2A31696   9.033   5.610   8.557
 2331POPC   C3A31697   9.058   5.595   8.137
 2331POPC   C4A31698   9.049   5.755   7.724
 2331POPC   C1B31699   8.601   5.670   8.811
 2331POPC   C2B31700   8.564   5.650   8.345
 2331POPC   C3B31701   8.677   5.942   8.006
 2331POPC   C4B31702   8.736   6.130   7.561
 2332POPC   NC331703  34.038  38.926   9.627
 2332POPC   PO431704  33.425  39.117   9.461
 2332POPC   GL131705  33.620  39.083   9.068
 2332POPC   GL231706  33.868  39.316   9.119
 2332POPC   C1A31707  33.631  39.141   8.614
 2332POPC   D2A31708  33.627  39.011   8.172
 2332POPC   C3A31709  33.682  39.302   7.834
 2332POPC   C4A31710  33.382  39.488   7.575
 2332POPC   C1B31711  34.114  39.095   8.778
 2332POPC   C2B31712  34.102  39.163   8.317
 2332POPC   C3B31713  34.054  39.559   8.086
 2332POPC   C4B31714  34.271  39.662   7.721
 2333POPC   NC331715  31.747  39.220   9.536
 2333POPC   PO431716  31.081  39.442   9.402
 2333POPC   GL131717  31.333  39.192   9.140
 2333POPC   GL231718  31.651  39.331   9.062
 2333POPC   C1A31719  31.262  39.261   8.704
 2333POPC   D2A31720  31.104  39.007   8.386
 2333POPC   C3A31721  31.130  39.152   8.005
 2333POPC   C4A31722  31.040  38.906   7.671
 2333POPC   C1B31723  31.720  39.052   8.691
 2333POPC   C2B31724  31.687  39.239   8.255
 2333POPC   C3B31725  31.620  39.146   7.818
 2333POPC   C4B31726  31.701  38.985   7.401
 2334POPC   NC331727  26.338  10.847   9.638
 2334POPC   PO431728  25.894  10.279   9.550
 2334POPC   GL131729  26.021  10.573   9.230
 2334POPC   GL231730  26.022  10.321   9.020
 2334POPC   C1A31731  26.053  10.770   8.798
 2334POPC   D2A31732  25.978  10.982   8.373
 2334POPC   C3A31733  25.903  10.744   7.964
 2334POPC   C4A31734  25.920  10.804   7.468
 2334POPC   C1B31735  26.099  10.306   8.596
 2334POPC   C2B31736  26.044  10.311   8.171
 2334POPC   C3B31737  26.191  10.155   7.789
 2334POPC   C4B31738  26.112  10.261   7.368
 2335POPC   NC331739  43.952  15.494   9.420
 2335POPC   PO431740  43.986  14.816   9.455
 2335POPC   GL131741  43.938  15.118   9.073
 2335POPC   GL231742  43.787  15.433   8.949
 2335POPC   C1A31743  43.895  15.032   8.624
 2335POPC   D2A31744  44.177  14.833   8.324
 2335POPC   C3A31745  44.062  14.876   7.873
 2335POPC   C4A31746  43.861  14.730   7.477
 2335POPC   C1B31747  44.066  15.546   8.632
 2335POPC   C2B31748  44.140  15.360   8.256
 2335POPC   C3B31749  44.156  15.420   7.823
 2335POPC   C4B31750  43.999  15.235   7.456
 2336POPC   NC331751  41.007  20.950   9.364
 2336POPC   PO431752  40.676  20.361   9.466
 2336POPC   GL131753  40.603  20.641   9.140
 2336POPC   GL231754  40.932  20.628   8.959
 2336POPC   C1A31755  40.508  20.799   8.730
 2336POPC   D2A31756  40.781  20.922   8.387
 2336POPC   C3A31757  40.581  20.807   8.018
 2336POPC   C4A31758  40.586  20.520   7.687
 2336POPC   C1B31759  41.104  20.246   8.754
 2336POPC   C2B31760  41.141  20.187   8.317
 2336POPC   C3B31761  41.030  20.538   8.029
 2336POPC   C4B31762  41.051  20.246   7.681
 2337POPC   NC331763   0.427  21.056   9.750
 2337POPC   PO431764   0.083  21.078   9.151
 2337POPC   GL131765   0.291  21.163   8.829
 2337POPC   GL231766   0.308  21.508   8.964
 2337POPC   C1A31767   0.097  21.066   8.464
 2337POPC   D2A31768   0.111  20.943   8.055
 2337POPC   C3A31769   0.314  21.300   7.867
 2337POPC   C4A31770   0.395  21.590   7.551
 2337POPC   C1B31771   0.210  21.575   8.527
 2337POPC   C2B31772   0.345  21.768   8.149
 2337POPC   C3B31773   0.713  21.737   7.921
 2337POPC   C4B31774   0.827  21.325   7.848
 2338POPC   NC331775  18.839  41.932   9.731
 2338POPC   PO431776  19.200  41.503   9.344
 2338POPC   GL131777  18.837  41.587   9.149
 2338POPC   GL231778  18.927  41.957   9.184
 2338POPC   C1A31779  18.669  41.387   8.760
 2338POPC   D2A31780  18.811  41.540   8.376
 2338POPC   C3A31781  18.782  41.320   7.985
 2338POPC   C4A31782  19.060  41.328   7.635
 2338POPC   C1B31783  19.153  41.809   8.779
 2338POPC   C2B31784  19.323  41.760   8.368
 2338POPC   C3B31785  19.081  41.744   7.977
 2338POPC   C4B31786  19.133  41.846   7.561
 2339POPC   NC331787  17.257  42.907   9.535
 2339POPC   PO431788  17.701  43.436   9.499
 2339POPC   GL131789  17.462  43.227   9.169
 2339POPC   GL231790  17.487  42.874   9.047
 2339POPC   C1A31791  17.547  43.267   8.732
 2339POPC   D2A31792  17.353  43.258   8.347
 2339POPC   C3A31793  17.672  43.265   8.079
 2339POPC   C4A31794  17.626  43.161   7.677
 2339POPC   C1B31795  17.845  42.824   8.739
 2339POPC   C2B31796  17.995  42.927   8.303
 2339POPC   C3B31797  17.851  42.771   7.906
 2339POPC   C4B31798  17.769  42.705   7.437
 2340POPC   NC331799  17.810   5.429   9.475
 2340POPC   PO431800  17.590   6.155   9.599
 2340POPC   GL131801  17.629   5.836   9.249
 2340POPC   GL231802  17.441   5.954   9.026
 2340POPC   C1A31803  17.656   5.557   8.827
 2340POPC   D2A31804  17.431   5.712   8.435
 2340POPC   C3A31805  17.626   5.787   8.024
 2340POPC   C4A31806  17.580   6.003   7.610
 2340POPC   C1B31807  17.097   5.811   8.826
 2340POPC   C2B31808  16.906   5.919   8.464
 2340POPC   C3B31809  17.010   5.800   8.069
 2340POPC   C4B31810  17.082   5.941   7.677
 2341POPC   NC331811  16.263   2.774   9.467
 2341POPC   PO431812  15.830   3.268   9.601
 2341POPC   GL131813  15.827   2.860   9.244
 2341POPC   GL231814  16.106   2.829   8.984
 2341POPC   C1A31815  15.606   2.719   8.835
 2341POPC   D2A31816  15.542   2.886   8.409
 2341POPC   C3A31817  15.876   2.921   8.125
 2341POPC   C4A31818  15.959   2.956   7.714
 2341POPC   C1B31819  16.004   2.431   8.744
 2341POPC   C2B31820  15.798   2.440   8.324
 2341POPC   C3B31821  15.962   2.442   7.888
 2341POPC   C4B31822  16.111   2.567   7.440
 2342POPC   NC331823  12.254  29.868   9.411
 2342POPC   PO431824  11.609  30.078   9.507
 2342POPC   GL131825  11.789  29.928   9.168
 2342POPC   GL231826  11.961  30.237   9.110
 2342POPC   C1A31827  11.945  29.886   8.749
 2342POPC   D2A31828  12.067  30.053   8.333
 2342POPC   C3A31829  12.075  29.893   7.922
 2342POPC   C4A31830  11.786  30.029   7.647
 2342POPC   C1B31831  12.364  30.169   8.850
 2342POPC   C2B31832  12.509  30.242   8.459
 2342POPC   C3B31833  12.558  29.984   8.114
 2342POPC   C4B31834  12.500  30.099   7.695
 2343POPC   NC331835  16.493  39.667   9.813
 2343POPC   PO431836  16.689  40.143   9.554
 2343POPC   GL131837  16.534  39.791   9.304
 2343POPC   GL231838  16.811  39.749   9.144
 2343POPC   C1A31839  16.426  39.805   8.837
 2343POPC   D2A31840  16.752  39.885   8.487
 2343POPC   C3A31841  16.807  39.994   8.058
 2343POPC   C4A31842  16.809  39.827   7.638
 2343POPC   C1B31843  16.862  40.133   8.912
 2343POPC   C2B31844  17.106  40.269   8.572
 2343POPC   C3B31845  17.182  40.338   8.135
 2343POPC   C4B31846  17.069  40.277   7.716
 2344POPC   NC331847  12.079  14.166   9.629
 2344POPC   PO431848  11.535  14.472   9.533
 2344POPC   GL131849  11.860  14.312   9.190
 2344POPC   GL231850  12.260  14.191   9.136
 2344POPC   C1A31851  12.002  14.438   8.775
 2344POPC   D2A31852  12.219  14.272   8.439
 2344POPC   C3A31853  12.076  14.377   8.054
 2344POPC   C4A31854  11.801  14.470   7.727
 2344POPC   C1B31855  12.570  14.059   8.760
 2344POPC   C2B31856  12.601  14.004   8.281
 2344POPC   C3B31857  12.503  14.072   7.858
 2344POPC   C4B31858  12.142  14.110   7.580
 2345POPC   NC331859  19.553  23.092   9.465
 2345POPC   PO431860  20.035  22.626   9.418
 2345POPC   GL131861  19.713  22.743   9.152
 2345POPC   GL231862  19.928  23.072   9.096
 2345POPC   C1A31863  19.530  22.977   8.810
 2345POPC   D2A31864  19.797  23.173   8.492
 2345POPC   C3A31865  19.802  23.020   8.059
 2345POPC   C4A31866  19.524  23.124   7.714
 2345POPC   C1B31867  19.981  22.735   8.745
 2345POPC   C2B31868  19.673  22.468   8.555
 2345POPC   C3B31869  19.626  22.389   8.116
 2345POPC   C4B31870  19.698  22.625   7.736
 2346POPC   NC331871  27.720  41.727   9.640
 2346POPC   PO431872  27.595  41.100   9.649
 2346POPC   GL131873  27.485  41.319   9.259
 2346POPC   GL231874  27.567  41.624   9.170
 2346POPC   C1A31875  27.434  41.249   8.827
 2346POPC   D2A31876  27.621  41.397   8.440
 2346POPC   C3A31877  27.396  41.466   8.042
 2346POPC   C4A31878  27.416  41.872   7.800
 2346POPC   C1B31879  27.889  41.527   8.867
 2346POPC   C2B31880  28.015  41.742   8.475
 2346POPC   C3B31881  27.857  41.692   8.069
 2346POPC   C4B31882  27.933  41.766   7.673
 2347POPC   NC331883   1.255  40.911   9.435
 2347POPC   PO431884   0.773  40.494   9.711
 2347POPC   GL131885   0.847  40.678   9.249
 2347POPC   GL231886   1.244  40.580   9.064
 2347POPC   C1A31887   0.893  40.839   8.820
 2347POPC   D2A31888   1.177  40.642   8.528
 2347POPC   C3A31889   1.153  40.786   8.133
 2347POPC   C4A31890   1.161  40.709   7.673
 2347POPC   C1B31891   1.438  40.981   8.807
 2347POPC   C2B31892   1.460  41.229   8.390
 2347POPC   C3B31893   1.427  41.143   7.919
 2347POPC   C4B31894   1.435  41.179   7.459
 2348POPC   NC331895   4.963  14.188   9.618
 2348POPC   PO431896   5.486  14.561   9.602
 2348POPC   GL131897   5.199  14.449   9.242
 2348POPC   GL231898   5.146  14.104   9.130
 2348POPC   C1A31899   5.057  14.565   8.841
 2348POPC   D2A31900   5.234  14.569   8.449
 2348POPC   C3A31901   5.117  14.276   8.135
 2348POPC   C4A31902   5.202  14.414   7.720
 2348POPC   C1B31903   5.127  14.077   8.670
 2348POPC   C2B31904   4.821  13.888   8.404
 2348POPC   C3B31905   4.661  13.983   8.016
 2348POPC   C4B31906   4.925  14.003   7.644
 2349POPC   NC331907  42.557   6.989   9.565
 2349POPC   PO431908  42.168   7.548   9.501
 2349POPC   GL131909  42.353   7.547   9.138
 2349POPC   GL231910  42.124   7.344   8.963
 2349POPC   C1A31911  42.460   7.690   8.729
 2349POPC   D2A31912  42.245   7.642   8.370
 2349POPC   C3A31913  42.391   7.751   7.957
 2349POPC   C4A31914  42.118   7.492   7.689
 2349POPC   C1B31915  42.571   7.202   8.826
 2349POPC   C2B31916  42.710   7.333   8.424
 2349POPC   C3B31917  42.427   7.271   8.070
 2349POPC   C4B31918  42.643   7.333   7.712
 2350POPC   NC331919  14.958   0.757   9.672
 2350POPC   PO431920  15.262   0.100   9.571
 2350POPC   GL131921  15.268   0.315   9.156
 2350POPC   GL231922  14.995   0.501   9.014
 2350POPC   C1A31923  15.417   0.352   8.715
 2350POPC   D2A31924  15.283   0.182   8.311
 2350POPC   C3A31925  15.208   0.489   7.992
 2350POPC   C4A31926  15.472   0.742   7.727
 2350POPC   C1B31927  14.978   0.086   8.782
 2350POPC   C2B31928  14.884  44.889   8.390
 2350POPC   C3B31929  14.818   0.049   8.016
 2350POPC   C4B31930  14.927   0.188   7.647
 2351POPC   NC331931   9.055  12.669   9.482
 2351POPC   PO431932   8.781  12.071   9.591
 2351POPC   GL131933   8.861  11.971   9.144
 2351POPC   GL231934   8.922  12.274   9.104
 2351POPC   C1A31935   9.134  12.036   8.727
 2351POPC   D2A31936   9.286  12.285   8.398
 2351POPC   C3A31937   9.337  12.073   8.033
 2351POPC   C4A31938   9.309  12.266   7.640
 2351POPC   C1B31939   8.652  12.126   8.696
 2351POPC   C2B31940   8.791  12.214   8.298
 2351POPC   C3B31941   8.823  12.069   7.900
 2351POPC   C4B31942   8.591  11.716   7.753
 2352POPC   NC331943  35.931  30.978   9.453
 2352POPC   PO431944  36.370  30.615   9.744
 2352POPC   GL131945  36.336  30.726   9.258
 2352POPC   GL231946  36.035  30.562   9.094
 2352POPC   C1A31947  36.199  30.920   8.808
 2352POPC   D2A31948  36.024  30.800   8.390
 2352POPC   C3A31949  36.306  30.794   8.031
 2352POPC   C4A31950  36.200  30.768   7.597
 2352POPC   C1B31951  35.727  30.493   8.726
 2352POPC   C2B31952  35.620  30.492   8.271
 2352POPC   C3B31953  35.842  30.582   7.895
 2352POPC   C4B31954  35.811  30.461   7.434
 2353POPC   NC331955  25.416  34.432   9.411
 2353POPC   PO431956  25.165  34.999   9.595
 2353POPC   GL131957  25.085  34.811   9.157
 2353POPC   GL231958  24.957  34.473   9.131
 2353POPC   C1A31959  25.247  34.624   8.741
 2353POPC   D2A31960  25.420  34.438   8.351
 2353POPC   C3A31961  25.611  34.704   8.046
 2353POPC   C4A31962  25.628  34.532   7.651
 2353POPC   C1B31963  24.860  34.269   8.677
 2353POPC   C2B31964  24.985  34.164   8.243
 2353POPC   C3B31965  25.183  34.312   7.856
 2353POPC   C4B31966  25.121  34.499   7.463
 2354POPC   NC331967  30.343   5.682   9.620
 2354POPC   PO431968  30.574   6.200   9.439
 2354POPC   GL131969  30.494   5.926   9.109
 2354POPC   GL231970  30.462   5.537   9.138
 2354POPC   C1A31971  30.771   6.050   8.765
 2354POPC   D2A31972  30.648   6.122   8.360
 2354POPC   C3A31973  30.946   6.039   8.059
 2354POPC   C4A31974  30.766   6.206   7.708
 2354POPC   C1B31975  30.520   5.622   8.681
 2354POPC   C2B31976  30.694   5.619   8.284
 2354POPC   C3B31977  30.503   5.804   7.940
 2354POPC   C4B31978  30.247   5.586   7.674
 2355POPC   NC331979  40.712   9.009   9.487
 2355POPC   PO431980  40.292   8.888   9.036
 2355POPC   GL131981  40.718   9.084   9.003
 2355POPC   GL231982  41.001   8.821   9.115
 2355POPC   C1A31983  41.063   9.203   8.762
 2355POPC   D2A31984  41.091   8.987   8.410
 2355POPC   C3A31985  41.164   9.195   8.052
 2355POPC   C4A31986  41.089   9.221   7.661
 2355POPC   C1B31987  40.834   8.682   8.743
 2355POPC   C2B31988  40.598   8.828   8.428
 2355POPC   C3B31989  40.747   8.905   8.045
 2355POPC   C4B31990  40.574   8.984   7.703
 2356POPC   NC331991   1.743  27.232   9.419
 2356POPC   PO431992   2.098  26.660   9.453
 2356POPC   GL131993   1.930  26.714   9.076
 2356POPC   GL231994   1.567  26.753   9.120
 2356POPC   C1A31995   1.828  26.941   8.720
 2356POPC   D2A31996   1.647  26.867   8.324
 2356POPC   C3A31997   2.020  26.926   8.090
 2356POPC   C4A31998   2.019  27.120   7.712
 2356POPC   C1B31999   1.583  26.494   8.753
 2356POPC   C2B32000   1.557  26.327   8.373
 2356POPC   C3B32001   1.427  26.487   8.006
 2356POPC   C4B32002   1.621  26.783   7.798
 2357POPC   NC332003  19.366   2.307   9.409
 2357POPC   PO432004  19.013   2.926   9.517
 2357POPC   GL132005  19.147   2.770   9.149
 2357POPC   GL232006  18.963   2.490   9.043
 2357POPC   C1A32007  19.035   2.927   8.724
 2357POPC   D2A32008  19.213   2.947   8.292
 2357POPC   C3A32009  18.959   2.965   7.957
 2357POPC   C4A32010  18.999   2.760   7.598
 2357POPC   C1B32011  19.347   2.520   8.756
 2357POPC   C2B32012  19.503   2.531   8.337
 2357POPC   C3B32013  19.246   2.479   7.968
 2357POPC   C4B32014  18.888   2.277   7.745
 2358POPC   NC332015  34.510   9.102   9.574
 2358POPC   PO432016  34.212   8.434   9.497
 2358POPC   GL132017  34.427   8.774   9.206
 2358POPC   GL232018  34.415   9.164   9.098
 2358POPC   C1A32019  34.492   8.774   8.770
 2358POPC   D2A32020  34.342   8.904   8.363
 2358POPC   C3A32021  34.662   8.987   8.061
 2358POPC   C4A32022  34.656   8.876   7.668
 2358POPC   C1B32023  34.319   9.305   8.718
 2358POPC   C2B32024  34.614   9.338   8.423
 2358POPC   C3B32025  34.674   9.494   8.041
 2358POPC   C4B32026  34.445   9.376   7.722
 2359POPC   NC332027  18.826   4.163   9.487
 2359POPC   PO432028  19.481   4.362   9.567
 2359POPC   GL132029  19.257   4.150   9.217
 2359POPC   GL232030  19.129   4.465   9.127
 2359POPC   C1A32031  19.029   4.089   8.787
 2359POPC   D2A32032  19.044   4.329   8.372
 2359POPC   C3A32033  18.951   4.329   7.930
 2359POPC   C4A32034  19.241   4.323   7.582
 2359POPC   C1B32035  18.868   4.600   8.775
 2359POPC   C2B32036  18.710   4.745   8.359
 2359POPC   C3B32037  18.871   4.818   7.945
 2359POPC   C4B32038  18.808   4.632   7.521
 2360POPC   NC332039  42.870  32.787   9.562
 2360POPC   PO432040  43.454  33.247   9.498
 2360POPC   GL132041  43.200  32.999   9.212
 2360POPC   GL232042  42.898  33.145   9.161
 2360POPC   C1A32043  43.224  32.813   8.784
 2360POPC   D2A32044  43.400  32.725   8.374
 2360POPC   C3A32045  43.129  32.705   8.017
 2360POPC   C4A32046  43.104  32.821   7.612
 2360POPC   C1B32047  42.955  33.239   8.757
 2360POPC   C2B32048  42.964  33.058   8.336
 2360POPC   C3B32049  43.100  33.243   7.943
 2360POPC   C4B32050  42.865  33.502   7.648
 2361POPC   NC332051  41.343  16.166   9.445
 2361POPC   PO432052  41.793  15.740   9.520
 2361POPC   GL132053  41.592  15.832   9.142
 2361POPC   GL232054  41.761  16.132   9.115
 2361POPC   C1A32055  41.396  16.091   8.788
 2361POPC   D2A32056  41.528  16.277   8.420
 2361POPC   C3A32057  41.436  15.978   8.071
 2361POPC   C4A32058  41.609  15.779   7.655
 2361POPC   C1B32059  41.953  16.212   8.746
 2361POPC   C2B32060  42.095  16.248   8.318
 2361POPC   C3B32061  41.821  16.261   7.957
 2361POPC   C4B32062  41.771  16.262   7.513
 2362POPC   NC332063  41.001  35.096   9.504
 2362POPC   PO432064  40.485  34.635   9.743
 2362POPC   GL132065  40.669  34.714   9.295
 2362POPC   GL232066  40.891  34.438   9.119
 2362POPC   C1A32067  40.694  34.827   8.861
 2362POPC   D2A32068  40.891  34.614   8.552
 2362POPC   C3A32069  40.886  34.756   8.142
 2362POPC   C4A32070  40.988  34.513   7.844
 2362POPC   C1B32071  40.494  34.328   8.950
 2362POPC   C2B32072  40.295  34.458   8.578
 2362POPC   C3B32073  40.484  34.435   8.177
 2362POPC   C4B32074  40.485  34.505   7.757
 2363POPC   NC332075  20.456  30.085   9.308
 2363POPC   PO432076  20.851  29.563   9.515
 2363POPC   GL132077  20.607  29.615   9.117
 2363POPC   GL232078  20.828  29.890   9.015
 2363POPC   C1A32079  20.356  29.747   8.719
 2363POPC   D2A32080  20.237  30.001   8.329
 2363POPC   C3A32081  20.517  29.965   7.951
 2363POPC   C4A32082  20.552  29.578   7.715
 2363POPC   C1B32083  21.111  29.938   8.644
 2363POPC   C2B32084  21.002  29.977   8.220
 2363POPC   C3B32085  21.030  29.664   7.904
 2363POPC   C4B32086  21.087  29.625   7.464
 2364POPC   NC332087   0.760   4.514   9.668
 2364POPC   PO432088   0.299   4.093   9.826
 2364POPC   GL132089   0.167   4.223   9.378
 2364POPC   GL232090   0.475   4.404   9.240
 2364POPC   C1A32091   0.144   4.214   8.897
 2364POPC   D2A32092   0.325   4.040   8.503
 2364POPC   C3A32093   0.280   4.030   8.058
 2364POPC   C4A32094   0.285   4.348   7.741
 2364POPC   C1B32095   0.596   4.489   8.802
 2364POPC   C2B32096   0.657   4.403   8.355
 2364POPC   C3B32097   0.748   4.546   7.943
 2364POPC   C4B32098   0.825   4.327   7.504
 2365POPC   NC332099  28.523   6.026   9.497
 2365POPC   PO432100  28.098   5.556   9.420
 2365POPC   GL132101  28.198   5.870   9.118
 2365POPC   GL232102  28.562   5.786   9.047
 2365POPC   C1A32103  28.222   5.817   8.679
 2365POPC   D2A32104  28.443   5.730   8.337
 2365POPC   C3A32105  28.222   5.636   7.919
 2365POPC   C4A32106  28.152   5.592   7.425
 2365POPC   C1B32107  28.545   6.183   8.801
 2365POPC   C2B32108  28.664   6.254   8.361
 2365POPC   C3B32109  28.522   6.084   7.983
 2365POPC   C4B32110  28.568   5.838   7.595
 2366POPC   NC332111  44.541   0.971   9.521
 2366POPC   PO432112  44.995   1.509   9.368
 2366POPC   GL132113  44.703   1.325   9.111
 2366POPC   GL232114  44.745   0.961   9.047
 2366POPC   C1A32115  44.821   1.337   8.682
 2366POPC   D2A32116  44.781   1.550   8.299
 2366POPC   C3A32117  44.925   1.362   7.905
 2366POPC   C4A32118  44.895   0.993   7.625
 2366POPC   C1B32119  44.382   1.108   8.752
 2366POPC   C2B32120  44.406   1.085   8.267
 2366POPC   C3B32121  44.450   1.159   7.789
 2366POPC   C4B32122  44.435   0.991   7.321
 2367POPC   NC332123   2.213   7.223   9.580
 2367POPC   PO432124   1.550   7.500   9.456
 2367POPC   GL132125   1.712   7.247   9.113
 2367POPC   GL232126   2.045   7.106   9.129
 2367POPC   C1A32127   1.760   7.453   8.701
 2367POPC   D2A32128   1.984   7.601   8.291
 2367POPC   C3A32129   1.756   7.376   7.914
 2367POPC   C4A32130   1.695   7.336   7.448
 2367POPC   C1B32131   2.186   7.201   8.756
 2367POPC   C2B32132   2.039   7.114   8.370
 2367POPC   C3B32133   2.228   7.213   7.959
 2367POPC   C4B32134   2.057   7.038   7.652
 2368POPC   NC332135  14.857  44.803   9.660
 2368POPC   PO432136  15.330  44.327   9.604
 2368POPC   GL132137  15.033  44.419   9.212
 2368POPC   GL232138  15.078  44.783   9.194
 2368POPC   C1A32139  15.106  44.568   8.740
 2368POPC   D2A32140  15.291  44.552   8.327
 2368POPC   C3A32141  15.082  44.620   7.937
 2368POPC   C4A32142  15.125  44.325   7.575
 2368POPC   C1B32143  15.452  44.883   8.938
 2368POPC   C2B32144  15.614  44.858   8.555
 2368POPC   C3B32145  15.661  44.841   8.133
 2368POPC   C4B32146  15.419   0.053   7.817
 2369POPC   NC332147  17.798  30.517   9.496
 2369POPC   PO432148  17.516  29.905   9.544
 2369POPC   GL132149  17.682  29.991   9.181
 2369POPC   GL232150  17.704  29.633   9.105
 2369POPC   C1A32151  17.549  30.037   8.817
 2369POPC   D2A32152  17.432  29.961   8.416
 2369POPC   C3A32153  17.398  30.272   8.084
 2369POPC   C4A32154  17.359  30.185   7.612
 2369POPC   C1B32155  17.432  29.537   8.785
 2369POPC   C2B32156  17.417  29.447   8.407
 2369POPC   C3B32157  17.475  29.641   8.031
 2369POPC   C4B32158  17.317  29.584   7.646
 2370POPC   NC332159  14.946  28.965   9.722
 2370POPC   PO432160  15.214  29.562   9.578
 2370POPC   GL132161  15.073  29.313   9.253
 2370POPC   GL232162  15.320  29.077   9.188
 2370POPC   C1A32163  15.221  29.422   8.813
 2370POPC   D2A32164  15.053  29.359   8.396
 2370POPC   C3A32165  15.179  29.186   8.030
 2370POPC   C4A32166  15.239  29.073   7.610
 2370POPC   C1B32167  15.459  28.952   8.794
 2370POPC   C2B32168  15.226  28.870   8.445
 2370POPC   C3B32169  15.354  28.722   8.069
 2370POPC   C4B32170  15.343  28.575   7.648
 2371POPC   NC332171  43.664  11.484   9.405
 2371POPC   PO432172  43.155  11.006   9.578
 2371POPC   GL132173  42.995  11.037   9.193
 2371POPC   GL232174  42.970  11.394   9.167
 2371POPC   C1A32175  42.888  11.087   8.787
 2371POPC   D2A32176  43.072  11.329   8.458
 2371POPC   C3A32177  42.971  11.186   8.053
 2371POPC   C4A32178  42.783  11.318   7.684
 2371POPC   C1B32179  43.358  11.248   8.893
 2371POPC   C2B32180  43.597  11.399   8.525
 2371POPC   C3B32181  43.448  11.358   8.092
 2371POPC   C4B32182  43.282  11.399   7.695
 2372POPC   NC332183  20.775  11.726   9.510
 2372POPC   PO432184  20.677  12.458   9.660
 2372POPC   GL132185  20.607  12.220   9.257
 2372POPC   GL232186  20.871  12.310   9.038
 2372POPC   C1A32187  20.466  12.064   8.826
 2372POPC   D2A32188  20.281  12.036   8.396
 2372POPC   C3A32189  20.357  11.791   8.023
 2372POPC   C4A32190  20.455  12.075   7.673
 2372POPC   C1B32191  20.944  11.919   8.759
 2372POPC   C2B32192  20.767  11.857   8.346
 2372POPC   C3B32193  20.843  11.877   7.905
 2372POPC   C4B32194  21.115  11.740   7.643
 2373POPC   NC332195  17.691  12.638   9.636
 2373POPC   PO432196  17.167  12.913   9.623
 2373POPC   GL132197  17.523  13.006   9.320
 2373POPC   GL232198  17.578  12.629   9.151
 2373POPC   C1A32199  17.597  13.030   8.873
 2373POPC   D2A32200  17.401  12.723   8.590
 2373POPC   C3A32201  17.529  12.691   8.134
 2373POPC   C4A32202  17.527  12.909   7.747
 2373POPC   C1B32203  17.865  12.536   8.807
 2373POPC   C2B32204  17.927  12.315   8.392
 2373POPC   C3B32205  17.998  12.446   7.960
 2373POPC   C4B32206  17.734  12.435   7.627
 2374POPC   NC332207  14.974  40.366   9.336
 2374POPC   PO432208  15.308  40.959   9.486
 2374POPC   GL132209  15.083  40.886   9.131
 2374POPC   GL232210  15.291  40.639   9.038
 2374POPC   C1A32211  15.096  40.933   8.680
 2374POPC   D2A32212  14.931  40.873   8.287
 2374POPC   C3A32213  15.122  41.117   7.977
 2374POPC   C4A32214  15.209  40.980   7.581
 2374POPC   C1B32215  15.505  40.617   8.678
 2374POPC   C2B32216  15.466  40.821   8.283
 2374POPC   C3B32217  15.455  40.664   7.885
 2374POPC   C4B32218  15.616  40.621   7.484
 2375POPC   NC332219  19.939  24.812   9.451
 2375POPC   PO432220  19.586  24.237   9.585
 2375POPC   GL132221  19.639  24.475   9.209
 2375POPC   GL232222  19.971  24.510   9.010
 2375POPC   C1A32223  19.516  24.646   8.840
 2375POPC   D2A32224  19.442  24.506   8.446
 2375POPC   C3A32225  19.665  24.304   8.113
 2375POPC   C4A32226  19.870  24.505   7.743
 2375POPC   C1B32227  19.999  24.811   8.685
 2375POPC   C2B32228  19.922  24.750   8.224
 2375POPC   C3B32229  20.121  24.941   7.874
 2375POPC   C4B32230  20.162  24.950   7.421
 2376POPC   NC332231  11.113   0.312   9.675
 2376POPC   PO432232  11.621   0.792   9.583
 2376POPC   GL132233  11.569   0.627   9.188
 2376POPC   GL232234  11.305   0.367   9.170
 2376POPC   C1A32235  11.464   0.726   8.771
 2376POPC   D2A32236  11.336   0.376   8.511
 2376POPC   C3A32237  11.405   0.316   8.075
 2376POPC   C4A32238  11.394   0.637   7.790
 2376POPC   C1B32239  10.978   0.484   8.868
 2376POPC   C2B32240  10.808   0.377   8.454
 2376POPC   C3B32241  10.918   0.456   8.016
 2376POPC   C4B32242  11.103   0.234   7.655
 2377POPC   NC332243  44.446  21.466   9.655
 2377POPC   PO432244  44.993  21.158   9.834
 2377POPC   GL132245  44.853  21.438   9.386
 2377POPC   GL232246  44.571  21.196   9.233
 2377POPC   C1A32247  44.831  21.678   8.931
 2377POPC   D2A32248  44.668  21.704   8.470
 2377POPC   C3A32249  44.886  21.455   8.143
 2377POPC   C4A32250  44.813  21.241   7.760
 2377POPC   C1B32251  44.484  21.334   8.824
 2377POPC   C2B32252  44.263  21.376   8.473
 2377POPC   C3B32253  44.374  21.412   8.085
 2377POPC   C4B32254  44.165  21.398   7.703
 2378POPC   NC332255  20.234  12.256   9.661
 2378POPC   PO432256  19.773  12.714   9.543
 2378POPC   GL132257  19.884  12.681   9.116
 2378POPC   GL232258  20.183  12.517   9.190
 2378POPC   C1A32259  19.987  12.863   8.700
 2378POPC   D2A32260  19.775  12.735   8.304
 2378POPC   C3A32261  19.952  13.006   8.003
 2378POPC   C4A32262  19.956  13.006   7.545
 2378POPC   C1B32263  20.067  12.365   8.761
 2378POPC   C2B32264  20.245  12.537   8.382
 2378POPC   C3B32265  20.185  12.500   7.961
 2378POPC   C4B32266  20.149  12.449   7.529
 2379POPC   NC332267  28.493  18.204   9.522
 2379POPC   PO432268  27.953  18.509   9.395
 2379POPC   GL132269  28.254  18.380   9.128
 2379POPC   GL232270  28.170  18.023   9.123
 2379POPC   C1A32271  28.512  18.302   8.787
 2379POPC   D2A32272  28.664  18.520   8.454
 2379POPC   C3A32273  28.583  18.269   8.150
 2379POPC   C4A32274  28.510  18.373   7.738
 2379POPC   C1B32275  27.975  18.204   8.769
 2379POPC   C2B32276  28.107  18.403   8.413
 2379POPC   C3B32277  28.091  18.174   8.051
 2379POPC   C4B32278  27.957  18.138   7.687
 2380POPC   NC332279  41.772  34.460   9.524
 2380POPC   PO432280  41.120  34.623   9.533
 2380POPC   GL132281  41.396  34.562   9.167
 2380POPC   GL232282  41.589  34.865   9.176
 2380POPC   C1A32283  41.411  34.468   8.700
 2380POPC   D2A32284  41.268  34.392   8.264
 2380POPC   C3A32285  41.589  34.498   7.936
 2380POPC   C4A32286  41.893  34.208   7.743
 2380POPC   C1B32287  41.231  34.925   8.833
 2380POPC   C2B32288  41.347  34.916   8.346
 2380POPC   C3B32289  41.309  34.931   7.862
 2380POPC   C4B32290  41.503  34.760   7.458
 2381POPC   NC332291  44.727   6.491   9.552
 2381POPC   PO432292  44.455   7.105   9.364
 2381POPC   GL132293  44.747   6.807   9.153
 2381POPC   GL232294  44.468   6.556   9.122
 2381POPC   C1A32295  44.841   6.682   8.727
 2381POPC   D2A32296  44.683   6.955   8.391
 2381POPC   C3A32297  44.592   6.813   7.978
 2381POPC   C4A32298  44.808   6.698   7.614
 2381POPC   C1B32299  44.295   6.376   8.759
 2381POPC   C2B32300  44.425   6.500   8.335
 2381POPC   C3B32301  44.439   6.318   7.896
 2381POPC   C4B32302  44.562   6.318   7.427
 2382POPC   NC332303  40.194  26.655   9.267
 2382POPC   PO432304  39.628  27.026   9.402
 2382POPC   GL132305  39.775  26.909   9.036
 2382POPC   GL232306  40.001  27.165   8.963
 2382POPC   C1A32307  39.928  26.754   8.661
 2382POPC   D2A32308  39.903  26.908   8.270
 2382POPC   C3A32309  40.200  26.765   7.988
 2382POPC   C4A32310  40.169  26.420   7.704
 2382POPC   C1B32311  40.269  27.132   8.573
 2382POPC   C2B32312  40.408  27.236   8.186
 2382POPC   C3B32313  40.308  27.240   7.781
 2382POPC   C4B32314  39.976  27.202   7.460
 2383POPC   NC332315  11.400   2.715   9.490
 2383POPC   PO432316  10.932   3.096   9.086
 2383POPC   GL132317  11.165   2.840   8.962
 2383POPC   GL232318  11.478   2.918   9.019
 2383POPC   C1A32319  11.258   2.884   8.536
 2383POPC   D2A32320  11.084   2.692   8.207
 2383POPC   C3A32321  11.108   3.027   7.890
 2383POPC   C4A32322  11.209   2.937   7.457
 2383POPC   C1B32323  11.438   2.483   8.757
 2383POPC   C2B32324  11.542   2.488   8.320
 2383POPC   C3B32325  11.450   2.602   7.864
 2383POPC   C4B32326  11.628   2.686   7.455
 2384POPC   NC332327  31.315   4.172   9.330
 2384POPC   PO432328  30.798   4.551   9.643
 2384POPC   GL132329  30.819   4.353   9.237
 2384POPC   GL232330  31.057   4.627   9.206
 2384POPC   C1A32331  30.560   4.338   8.828
 2384POPC   D2A32332  30.509   4.021   8.520
 2384POPC   C3A32333  30.495   4.219   8.132
 2384POPC   C4A32334  30.635   4.239   7.729
 2384POPC   C1B32335  30.943   4.658   8.768
 2384POPC   C2B32336  30.888   4.487   8.337
 2384POPC   C3B32337  30.788   4.703   7.914
 2384POPC   C4B32338  30.808   4.651   7.438
 2385POPC   NC332339  14.182  23.857   9.483
 2385POPC   PO432340  13.599  23.856   9.577
 2385POPC   GL132341  13.614  23.686   9.122
 2385POPC   GL232342  13.927  23.539   9.123
 2385POPC   C1A32343  13.638  23.473   8.665
 2385POPC   D2A32344  13.404  23.658   8.290
 2385POPC   C3A32345  13.535  23.740   7.848
 2385POPC   C4A32346  13.162  23.860   7.588
 2385POPC   C1B32347  14.019  23.789   8.798
 2385POPC   C2B32348  13.905  23.831   8.382
 2385POPC   C3B32349  14.058  24.092   8.076
 2385POPC   C4B32350  14.019  23.897   7.714
 2386POPC   NC332351  36.426  15.515   9.492
 2386POPC   PO432352  35.978  14.977   9.451
 2386POPC   GL132353  36.153  15.137   9.108
 2386POPC   GL232354  36.070  15.463   9.121
 2386POPC   C1A32355  35.998  15.210   8.670
 2386POPC   D2A32356  36.162  15.133   8.265
 2386POPC   C3A32357  35.945  15.287   7.913
 2386POPC   C4A32358  36.073  15.210   7.482
 2386POPC   C1B32359  36.438  15.424   8.822
 2386POPC   C2B32360  36.540  15.507   8.384
 2386POPC   C3B32361  36.422  15.508   7.940
 2386POPC   C4B32362  36.384  15.642   7.512
 2387POPC   NC332363   5.462  15.021   9.575
 2387POPC   PO432364   4.920  15.387   9.610
 2387POPC   GL132365   5.193  15.308   9.252
 2387POPC   GL232366   5.184  14.958   9.168
 2387POPC   C1A32367   5.254  15.395   8.859
 2387POPC   D2A32368   4.912  15.506   8.599
 2387POPC   C3A32369   4.904  15.350   8.210
 2387POPC   C4A32370   4.980  15.290   7.803
 2387POPC   C1B32371   4.873  15.047   8.867
 2387POPC   C2B32372   4.797  14.895   8.454
 2387POPC   C3B32373   5.030  14.836   8.063
 2387POPC   C4B32374   4.888  14.809   7.647
 2388POPC   NC332375  23.740  19.111   9.494
 2388POPC   PO432376  23.328  18.555   9.384
 2388POPC   GL132377  23.582  18.883   9.068
 2388POPC   GL232378  23.696  19.295   9.040
 2388POPC   C1A32379  23.547  19.013   8.617
 2388POPC   D2A32380  23.557  19.349   8.270
 2388POPC   C3A32381  23.558  19.207   7.831
 2388POPC   C4A32382  23.479  18.760   7.743
 2388POPC   C1B32383  23.929  19.341   8.667
 2388POPC   C2B32384  24.085  18.979   8.411
 2388POPC   C3B32385  24.013  19.036   7.977
 2388POPC   C4B32386  24.087  19.353   7.707
 2389POPC   NC332387  10.991  27.974   9.560
 2389POPC   PO432388  11.370  28.582   9.442
 2389POPC   GL132389  11.319  28.318   9.110
 2389POPC   GL232390  11.004  28.276   9.147
 2389POPC   C1A32391  11.483  28.244   8.697
 2389POPC   D2A32392  11.594  28.431   8.266
 2389POPC   C3A32393  11.430  28.210   7.907
 2389POPC   C4A32394  11.632  28.137   7.475
 2389POPC   C1B32395  10.962  28.349   8.708
 2389POPC   C2B32396  11.079  28.520   8.287
 2389POPC   C3B32397  10.994  28.477   7.863
 2389POPC   C4B32398  11.003  28.092   7.654
 2390POPC   NC332399   2.864   5.863   9.705
 2390POPC   PO432400   2.629   5.183   9.627
 2390POPC   GL132401   2.579   5.528   9.227
 2390POPC   GL232402   2.674   5.915   9.162
 2390POPC   C1A32403   2.773   5.579   8.780
 2390POPC   D2A32404   2.999   5.720   8.413
 2390POPC   C3A32405   2.788   5.997   8.197
 2390POPC   C4A32406   2.733   6.152   7.807
 2390POPC   C1B32407   2.832   6.091   8.740
 2390POPC   C2B32408   3.149   6.267   8.437
 2390POPC   C3B32409   3.247   6.142   7.999
 2390POPC   C4B32410   3.146   5.833   7.671
 2391POPC   NC332411  16.577  28.053   9.498
 2391POPC   PO432412  16.334  27.308   9.458
 2391POPC   GL132413  16.433  27.652   9.237
 2391POPC   GL232414  16.794  27.692   9.192
 2391POPC   C1A32415  16.450  27.683   8.815
 2391POPC   D2A32416  16.680  27.711   8.444
 2391POPC   C3A32417  16.484  27.657   8.066
 2391POPC   C4A32418  16.528  27.334   7.824
 2391POPC   C1B32419  16.962  27.935   8.838
 2391POPC   C2B32420  17.002  28.137   8.429
 2391POPC   C3B32421  16.905  27.949   8.049
 2391POPC   C4B32422  16.990  27.542   7.857
 2392POPC   NC332423   8.542   2.517   9.384
 2392POPC   PO432424   8.380   3.161   9.466
 2392POPC   GL132425   8.045   3.058   9.144
 2392POPC   GL232426   8.032   2.692   9.167
 2392POPC   C1A32427   8.074   2.964   8.720
 2392POPC   D2A32428   8.148   2.952   8.309
 2392POPC   C3A32429   8.495   2.856   8.120
 2392POPC   C4A32430   8.326   2.651   7.778
 2392POPC   C1B32431   8.079   2.445   8.776
 2392POPC   C2B32432   8.247   2.425   8.347
 2392POPC   C3B32433   7.949   2.361   8.033
 2392POPC   C4B32434   7.843   2.530   7.682
 2393POPC   NC332435  44.508   1.709   9.433
 2393POPC   PO432436  44.910   2.226   9.556
 2393POPC   GL132437  44.806   1.992   9.138
 2393POPC   GL232438  44.470   2.059   9.039
 2393POPC   C1A32439  44.840   2.001   8.671
 2393POPC   D2A32440  44.583   2.027   8.297
 2393POPC   C3A32441  44.856   1.939   7.963
 2393POPC   C4A32442  44.882   1.766   7.564
 2393POPC   C1B32443  44.451   1.686   8.742
 2393POPC   C2B32444  44.277   1.585   8.307
 2393POPC   C3B32445  44.411   1.671   7.855
 2393POPC   C4B32446  44.377   1.721   7.373
 2394POPC   NC332447   1.411  28.921   9.558
 2394POPC   PO432448   1.109  29.510   9.537
 2394POPC   GL132449   1.291  29.291   9.135
 2394POPC   GL232450   1.255  28.899   9.076
 2394POPC   C1A32451   1.129  29.209   8.697
 2394POPC   D2A32452   1.242  29.113   8.288
 2394POPC   C3A32453   1.012  29.197   7.923
 2394POPC   C4A32454   1.110  29.316   7.457
 2394POPC   C1B32455   1.494  28.833   8.690
 2394POPC   C2B32456   1.424  28.650   8.271
 2394POPC   C3B32457   1.339  28.800   7.835
 2394POPC   C4B32458   1.295  28.832   7.382
 2395POPC   NC332459  41.331   9.590   9.480
 2395POPC   PO432460  41.997   9.729   9.468
 2395POPC   GL132461  41.721   9.645   9.120
 2395POPC   GL232462  41.658  10.008   9.191
 2395POPC   C1A32463  41.368   9.641   8.781
 2395POPC   D2A32464  41.166   9.608   8.344
 2395POPC   C3A32465  41.519   9.550   7.989
 2395POPC   C4A32466  41.959   9.459   7.824
 2395POPC   C1B32467  41.384  10.161   8.891
 2395POPC   C2B32468  41.250  10.090   8.484
 2395POPC   C3B32469  41.297  10.012   8.062
 2395POPC   C4B32470  41.535   9.935   7.629
 2396POPC   NC332471  21.364  35.610   9.552
 2396POPC   PO432472  21.368  35.013   9.675
 2396POPC   GL132473  21.202  35.204   9.267
 2396POPC   GL232474  21.321  35.499   9.060
 2396POPC   C1A32475  21.138  35.074   8.826
 2396POPC   D2A32476  21.051  35.144   8.382
 2396POPC   C3A32477  21.345  35.007   8.075
 2396POPC   C4A32478  21.286  35.191   7.683
 2396POPC   C1B32479  21.249  35.546   8.658
 2396POPC   C2B32480  21.537  35.344   8.415
 2396POPC   C3B32481  21.628  35.463   7.985
 2396POPC   C4B32482  21.387  35.682   7.663
 2397POPC   NC332483   2.773  39.973   9.534
 2397POPC   PO432484   3.320  40.467   9.435
 2397POPC   GL132485   2.994  40.200   9.127
 2397POPC   GL232486   2.832  39.814   9.077
 2397POPC   C1A32487   2.948  40.062   8.669
 2397POPC   D2A32488   2.554  39.972   8.436
 2397POPC   C3A32489   2.596  40.097   8.007
 2397POPC   C4A32490   2.959  40.029   7.755
 2397POPC   C1B32491   2.577  39.561   8.790
 2397POPC   C2B32492   2.685  39.444   8.381
 2397POPC   C3B32493   2.509  39.608   8.051
 2397POPC   C4B32494   2.578  39.719   7.658
 2398POPC   NC332495  36.024   5.506   9.451
 2398POPC   PO432496  35.884   6.269   9.522
 2398POPC   GL132497  35.872   5.938   9.181
 2398POPC   GL232498  36.062   5.643   8.969
 2398POPC   C1A32499  35.795   6.016   8.761
 2398POPC   D2A32500  35.929   5.811   8.368
 2398POPC   C3A32501  35.814   5.995   7.973
 2398POPC   C4A32502  36.072   6.126   7.618
 2398POPC   C1B32503  36.392   5.484   8.665
 2398POPC   C2B32504  36.495   5.542   8.213
 2398POPC   C3B32505  36.221   5.530   7.830
 2398POPC   C4B32506  36.011   5.658   7.441
 2399POPC   NC332507  41.036   8.066   9.568
 2399POPC   PO432508  40.502   8.496   9.496
 2399POPC   GL132509  40.767   8.339   9.110
 2399POPC   GL232510  40.968   8.028   9.074
 2399POPC   C1A32511  40.762   8.196   8.651
 2399POPC   D2A32512  41.020   8.429   8.347
 2399POPC   C3A32513  40.821   8.409   7.966
 2399POPC   C4A32514  40.513   8.160   7.777
 2399POPC   C1B32515  41.018   7.747   8.736
 2399POPC   C2B32516  41.060   7.903   8.321
 2399POPC   C3B32517  40.909   7.870   7.920
 2399POPC   C4B32518  41.177   7.779   7.623
 2400POPC   NC332519  44.157  26.889   9.802
 2400POPC   PO432520  44.748  26.806   9.532
 2400POPC   GL132521  44.619  26.935   9.112
 2400POPC   GL232522  44.789  26.769   8.833
 2400POPC   C1A32523  44.369  27.019   8.724
 2400POPC   D2A32524  44.438  26.789   8.344
 2400POPC   C3A32525  44.794  26.805   8.088
 2400POPC   C4A32526  44.515  27.007   7.836
 2400POPC   C1B32527  44.423  26.470   8.734
 2400POPC   C2B32528  44.212  26.330   8.321
 2400POPC   C3B32529  44.413  26.481   7.903
 2400POPC   C4B32530  44.618  26.633   7.495
 2401POPC   NC332531  44.940  42.074   9.503
 2401POPC   PO432532  44.471  42.562   9.629
 2401POPC   GL132533  44.602  42.304   9.190
 2401POPC   GL232534  44.949  42.131   9.011
 2401POPC   C1A32535  44.488  42.102   8.781
 2401POPC   D2A32536  44.735  41.932   8.474
 2401POPC   C3A32537  44.789  42.205   8.134
 2401POPC   C4A32538  44.576  42.234   7.744
 2401POPC   C1B32539  44.911  42.388   8.652
 2401POPC   C2B32540  44.589  42.625   8.416
 2401POPC   C3B32541  44.623  42.718   7.970
 2401POPC   C4B32542   0.013  42.564   7.812
 2402POPC   NC332543  39.234  35.789   9.589
 2402POPC   PO432544  39.515  36.382   9.570
 2402POPC   GL132545  39.278  36.246   9.199
 2402POPC   GL232546  39.384  35.905   9.135
 2402POPC   C1A32547  39.154  36.434   8.791
 2402POPC   D2A32548  39.019  36.248   8.377
 2402POPC   C3A32549  39.151  36.393   7.977
 2402POPC   C4A32550  39.057  36.234   7.537
 2402POPC   C1B32551  39.174  35.924   8.757
 2402POPC   C2B32552  39.273  35.801   8.336
 2402POPC   C3B32553  39.168  35.863   7.878
 2402POPC   C4B32554  39.414  35.870   7.471
 2403POPC   NC332555  25.767   3.706   9.598
 2403POPC   PO432556  25.157   3.320   9.549
 2403POPC   GL132557  25.299   3.500   9.207
 2403POPC   GL232558  25.333   3.816   9.300
 2403POPC   C1A32559  25.161   3.384   8.799
 2403POPC   D2A32560  25.342   3.180   8.464
 2403POPC   C3A32561  25.354   3.449   8.153
 2403POPC   C4A32562  25.294   3.421   7.735
 2403POPC   C1B32563  24.981   3.850   8.944
 2403POPC   C2B32564  24.920   3.814   8.480
 2403POPC   C3B32565  24.932   3.701   8.037
 2403POPC   C4B32566  25.046   3.889   7.669
 2404POPC   NC332567  24.459  11.817   9.590
 2404POPC   PO432568  24.156  12.423   9.624
 2404POPC   GL132569  24.296  12.154   9.218
 2404POPC   GL232570  24.566  12.300   9.025
 2404POPC   C1A32571  24.229  12.019   8.758
 2404POPC   D2A32572  24.138  12.149   8.332
 2404POPC   C3A32573  24.287  11.903   7.983
 2404POPC   C4A32574  24.444  12.096   7.599
 2404POPC   C1B32575  24.721  12.078   8.683
 2404POPC   C2B32576  24.670  12.145   8.247
 2404POPC   C3B32577  24.829  11.881   7.905
 2404POPC   C4B32578  24.909  11.961   7.462
 2405POPC   NC332579   7.630  14.494   9.629
 2405POPC   PO432580   7.885  15.014   9.321
 2405POPC   GL132581   7.576  14.696   9.154
 2405POPC   GL232582   7.570  14.325   9.128
 2405POPC   C1A32583   7.470  14.587   8.734
 2405POPC   D2A32584   7.693  14.646   8.407
 2405POPC   C3A32585   7.563  14.459   8.119
 2405POPC   C4A32586   7.601  14.546   7.773
 2405POPC   C1B32587   7.330  14.096   8.763
 2405POPC   C2B32588   7.426  14.009   8.312
 2405POPC   C3B32589   7.385  14.059   7.847
 2405POPC   C4B32590   7.668  14.148   7.462
 2406POPC   NC332591  38.779  16.087   9.505
 2406POPC   PO432592  39.437  16.047   9.541
 2406POPC   GL132593  39.272  15.889   9.158
 2406POPC   GL232594  38.980  15.655   9.091
 2406POPC   C1A32595  39.083  16.092   8.828
 2406POPC   D2A32596  38.892  16.056   8.454
 2406POPC   C3A32597  39.155  16.293   8.154
 2406POPC   C4A32598  39.309  16.405   7.741
 2406POPC   C1B32599  39.216  15.617   8.687
 2406POPC   C2B32600  39.204  15.725   8.229
 2406POPC   C3B32601  39.139  15.899   7.816
 2406POPC   C4B32602  39.372  15.745   7.456
 2407POPC   NC332603  14.508  37.238   9.564
 2407POPC   PO432604  14.788  37.827   9.592
 2407POPC   GL132605  14.488  37.791   9.243
 2407POPC   GL232606  14.256  37.491   9.196
 2407POPC   C1A32607  14.284  37.858   8.831
 2407POPC   D2A32608  14.273  37.641   8.439
 2407POPC   C3A32609  14.104  37.693   8.062
 2407POPC   C4A32610  14.262  37.842   7.712
 2407POPC   C1B32611  14.150  37.300   8.787
 2407POPC   C2B32612  14.281  37.115   8.374
 2407POPC   C3B32613  14.107  37.134   7.932
 2407POPC   C4B32614  14.050  37.404   7.542
 2408POPC   NC332615  37.448  44.996   9.481
 2408POPC   PO432616  37.843  44.527   9.727
 2408POPC   GL132617  37.609  44.460   9.322
 2408POPC   GL232618  37.864  44.659   9.192
 2408POPC   C1A32619  37.665  44.341   8.856
 2408POPC   D2A32620  37.901  44.545   8.483
 2408POPC   C3A32621  37.826  44.472   8.072
 2408POPC   C4A32622  37.706  44.679   7.684
 2408POPC   C1B32623  38.080  44.867   8.859
 2408POPC   C2B32624  38.088   0.032   8.449
 2408POPC   C3B32625  37.955  44.974   8.043
 2408POPC   C4B32626  38.171  44.905   7.672
 2409POPC   NC332627   7.561   4.276   9.560
 2409POPC   PO432628   6.867   4.186   9.589
 2409POPC   GL132629   7.148   4.281   9.187
 2409POPC   GL232630   7.497   4.327   9.073
 2409POPC   C1A32631   7.156   4.413   8.727
 2409POPC   D2A32632   7.364   4.201   8.385
 2409POPC   C3A32633   7.266   4.338   7.979
 2409POPC   C4A32634   7.389   4.254   7.544
 2409POPC   C1B32635   7.625   4.621   8.742
 2409POPC   C2B32636   7.538   4.676   8.293
 2409POPC   C3B32637   7.668   4.604   7.859
 2409POPC   C4B32638   7.742   4.636   7.409
 2410POPC   NC332639  26.499  39.371   9.551
 2410POPC   PO432640  27.028  39.087   9.376
 2410POPC   GL132641  26.990  39.461   9.135
 2410POPC   GL232642  26.648  39.362   9.076
 2410POPC   C1A32643  26.950  39.493   8.685
 2410POPC   D2A32644  26.915  39.069   8.480
 2410POPC   C3A32645  26.994  39.135   8.048
 2410POPC   C4A32646  26.854  39.056   7.660
 2410POPC   C1B32647  26.465  39.330   8.696
 2410POPC   C2B32648  26.560  39.386   8.313
 2410POPC   C3B32649  26.474  39.149   7.994
 2410POPC   C4B32650  26.425  39.301   7.605
 2411POPC   NC332651  39.619   7.711   9.378
 2411POPC   PO432652  39.731   7.047   9.396
 2411POPC   GL132653  40.006   7.101   9.026
 2411POPC   GL232654  40.187   7.462   9.021
 2411POPC   C1A32655  39.996   7.226   8.615
 2411POPC   D2A32656  40.138   7.583   8.346
 2411POPC   C3A32657  39.940   7.554   7.940
 2411POPC   C4A32658  40.020   7.168   7.730
 2411POPC   C1B32659  40.483   7.698   8.714
 2411POPC   C2B32660  40.646   7.587   8.283
 2411POPC   C3B32661  40.438   7.656   7.853
 2411POPC   C4B32662  40.356   7.487   7.421
 2412POPC   NC332663   4.581  36.498   9.397
 2412POPC   PO432664   4.328  35.870   9.514
 2412POPC   GL132665   4.275  36.151   9.186
 2412POPC   GL232666   3.923  36.143   9.205
 2412POPC   C1A32667   4.165  36.257   8.774
 2412POPC   D2A32668   4.185  35.999   8.444
 2412POPC   C3A32669   4.251  36.134   7.996
 2412POPC   C4A32670   4.512  35.936   7.664
 2412POPC   C1B32671   4.032  35.766   8.932
 2412POPC   C2B32672   3.826  35.615   8.591
 2412POPC   C3B32673   3.955  35.657   8.170
 2412POPC   C4B32674   3.878  35.852   7.807
 2413POPC   NC332675  40.911  14.891   9.663
 2413POPC   PO432676  40.493  15.363   9.525
 2413POPC   GL132677  40.654  15.042   9.217
 2413POPC   GL232678  40.984  15.184   9.171
 2413POPC   C1A32679  40.776  14.955   8.785
 2413POPC   D2A32680  41.032  15.215   8.497
 2413POPC   C3A32681  40.778  15.126   8.161
 2413POPC   C4A32682  40.681  15.042   7.747
 2413POPC   C1B32683  40.704  15.461   8.840
 2413POPC   C2B32684  40.551  15.577   8.386
 2413POPC   C3B32685  40.613  15.524   7.905
 2413POPC   C4B32686  40.880  15.416   7.491
 2414POPC   NC332687  40.352  44.106   9.726
 2414POPC   PO432688  39.931  43.676   9.682
 2414POPC   GL132689  39.825  43.778   9.233
 2414POPC   GL232690  40.053  44.050   9.143
 2414POPC   C1A32691  39.889  43.770   8.749
 2414POPC   D2A32692  39.781  43.848   8.276
 2414POPC   C3A32693  39.847  43.613   7.870
 2414POPC   C4A32694  40.011  43.641   7.391
 2414POPC   C1B32695  40.295  44.110   8.736
 2414POPC   C2B32696  40.189  44.177   8.338
 2414POPC   C3B32697  40.215  43.956   7.986
 2414POPC   C4B32698  40.178  44.066   7.606
 2415POPC   NC332699  14.351  16.610   9.560
 2415POPC   PO432700  14.698  17.238   9.528
 2415POPC   GL132701  14.596  16.903   9.183
 2415POPC   GL232702  14.532  16.547   9.105
 2415POPC   C1A32703  14.403  16.885   8.760
 2415POPC   D2A32704  14.525  17.024   8.367
 2415POPC   C3A32705  14.319  16.833   8.046
 2415POPC   C4A32706  14.403  16.744   7.648
 2415POPC   C1B32707  14.232  16.393   8.769
 2415POPC   C2B32708  14.120  16.406   8.304
 2415POPC   C3B32709  14.087  16.399   7.842
 2415POPC   C4B32710  14.403  16.253   7.537
 2416POPC   NC332711  38.127   3.846   9.539
 2416POPC   PO432712  38.624   3.428   9.454
 2416POPC   GL132713  38.358   3.504   9.161
 2416POPC   GL232714  38.366   3.837   9.112
 2416POPC   C1A32715  38.477   3.513   8.729
 2416POPC   D2A32716  38.586   3.374   8.304
 2416POPC   C3A32717  38.501   3.496   7.872
 2416POPC   C4A32718  38.621   3.272   7.488
 2416POPC   C1B32719  38.051   3.809   8.797
 2416POPC   C2B32720  38.134   3.653   8.394
 2416POPC   C3B32721  38.018   3.653   7.997
 2416POPC   C4B32722  38.028   3.618   7.578
 2417POPC   NC332723  18.720  42.871   9.409
 2417POPC   PO432724  19.290  43.174   9.450
 2417POPC   GL132725  18.993  43.279   9.119
 2417POPC   GL232726  19.030  42.983   9.027
 2417POPC   C1A32727  19.095  43.408   8.712
 2417POPC   D2A32728  19.231  43.169   8.362
 2417POPC   C3A32729  18.909  43.147   8.064
 2417POPC   C4A32730  18.853  43.501   7.768
 2417POPC   C1B32731  19.084  42.781   8.695
 2417POPC   C2B32732  18.978  42.601   8.320
 2417POPC   C3B32733  19.282  42.648   8.012
 2417POPC   C4B32734  19.331  43.043   7.813
 2418POPC   NC332735  20.227  34.615   9.464
 2418POPC   PO432736  19.550  34.552   9.340
 2418POPC   GL132737  19.904  34.476   9.087
 2418POPC   GL232738  19.927  34.840   9.085
 2418POPC   C1A32739  20.015  34.367   8.667
 2418POPC   D2A32740  19.810  34.443   8.277
 2418POPC   C3A32741  20.035  34.459   7.894
 2418POPC   C4A32742  19.722  34.390   7.566
 2418POPC   C1B32743  19.688  34.771   8.684
 2418POPC   C2B32744  19.549  34.896   8.253
 2418POPC   C3B32745  19.703  34.829   7.845
 2418POPC   C4B32746  19.620  34.968   7.408
 2419POPC   NC332747  25.791  21.749   9.401
 2419POPC   PO432748  26.253  22.252   9.516
 2419POPC   GL132749  26.001  22.165   9.149
 2419POPC   GL232750  25.746  22.394   9.027
 2419POPC   C1A32751  26.135  22.203   8.732
 2419POPC   D2A32752  26.099  22.422   8.377
 2419POPC   C3A32753  26.212  22.227   8.021
 2419POPC   C4A32754  26.010  22.327   7.664
 2419POPC   C1B32755  25.623  22.090   8.697
 2419POPC   C2B32756  25.694  22.107   8.237
 2419POPC   C3B32757  25.818  21.915   7.858
 2419POPC   C4B32758  25.829  21.883   7.419
 2420POPC   NC332759  18.664  38.128   9.555
 2420POPC   PO432760  19.154  38.427   9.806
 2420POPC   GL132761  18.980  38.442   9.309
 2420POPC   GL232762  19.302  38.506   9.179
 2420POPC   C1A32763  18.947  38.437   8.817
 2420POPC   D2A32764  19.064  38.222   8.401
 2420POPC   C3A32765  19.059  38.422   7.998
 2420POPC   C4A32766  18.956  38.872   7.905
 2420POPC   C1B32767  19.461  38.528   8.749
 2420POPC   C2B32768  19.292  38.717   8.363
 2420POPC   C3B32769  19.469  38.738   7.962
 2420POPC   C4B32770  19.309  38.594   7.575
 2421POPC   NC332771  21.035  20.370   9.916
 2421POPC   PO432772  20.639  20.727   9.489
 2421POPC   GL132773  20.492  20.552   9.139
 2421POPC   GL232774  20.194  20.337   9.178
 2421POPC   C1A32775  20.713  20.622   8.752
 2421POPC   D2A32776  20.589  20.870   8.396
 2421POPC   C3A32777  20.831  21.005   8.024
 2421POPC   C4A32778  20.641  20.856   7.624
 2421POPC   C1B32779  20.359  20.263   8.745
 2421POPC   C2B32780  20.635  20.285   8.360
 2421POPC   C3B32781  20.723  20.508   8.000
 2421POPC   C4B32782  20.836  20.375   7.590
 2422POPC   NC332783  13.722   3.388   9.471
 2422POPC   PO432784  13.339   3.977   9.509
 2422POPC   GL132785  13.573   3.804   9.168
 2422POPC   GL232786  13.889   3.881   9.284
 2422POPC   C1A32787  13.592   3.600   8.767
 2422POPC   D2A32788  13.334   3.626   8.386
 2422POPC   C3A32789  13.494   3.765   7.997
 2422POPC   C4A32790  13.324   3.450   7.738
 2422POPC   C1B32791  13.996   3.940   8.856
 2422POPC   C2B32792  14.087   3.595   8.564
 2422POPC   C3B32793  14.074   3.526   8.130
 2422POPC   C4B32794  13.894   3.574   7.729
 2423POPC   NC332795  14.640  19.579   9.418
 2423POPC   PO432796  14.049  19.861   9.644
 2423POPC   GL132797  14.203  19.882   9.205
 2423POPC   GL232798  14.486  20.124   9.216
 2423POPC   C1A32799  14.071  19.699   8.767
 2423POPC   D2A32800  14.005  19.844   8.371
 2423POPC   C3A32801  14.103  19.561   8.067
 2423POPC   C4A32802  14.211  19.528   7.646
 2423POPC   C1B32803  14.395  20.074   8.776
 2423POPC   C2B32804  14.528  19.843   8.424
 2423POPC   C3B32805  14.545  19.824   7.960
 2423POPC   C4B32806  14.482  19.917   7.500
 2424POPC   NC332807  40.181   6.888   9.458
 2424POPC   PO432808  40.016   6.270   9.467
 2424POPC   GL132809  40.013   6.518   9.138
 2424POPC   GL232810  40.264   6.357   8.988
 2424POPC   C1A32811  39.813   6.614   8.763
 2424POPC   D2A32812  39.971   6.766   8.383
 2424POPC   C3A32813  39.780   6.603   8.065
 2424POPC   C4A32814  39.960   6.378   7.760
 2424POPC   C1B32815  40.332   6.691   8.743
 2424POPC   C2B32816  40.482   6.664   8.317
 2424POPC   C3B32817  40.277   6.743   7.911
 2424POPC   C4B32818  40.278   6.598   7.443
 2425POPC   NC332819  12.043  39.419   9.453
 2425POPC   PO432820  12.677  39.202   9.377
 2425POPC   GL132821  12.387  39.358   9.073
 2425POPC   GL232822  12.165  39.060   9.113
 2425POPC   C1A32823  12.038  39.509   8.777
 2425POPC   D2A32824  11.832  39.335   8.383
 2425POPC   C3A32825  12.086  39.309   8.017
 2425POPC   C4A32826  11.944  39.354   7.603
 2425POPC   C1B32827  12.025  38.987   8.707
 2425POPC   C2B32828  11.843  38.802   8.335
 2425POPC   C3B32829  11.699  38.971   7.931
 2425POPC   C4B32830  11.769  38.902   7.483
 2426POPC   NC332831   3.703  39.687   9.302
 2426POPC   PO432832   3.619  39.076   9.606
 2426POPC   GL132833   3.782  39.200   9.195
 2426POPC   GL232834   3.444  39.302   9.047
 2426POPC   C1A32835   3.850  39.385   8.759
 2426POPC   D2A32836   3.570  39.341   8.434
 2426POPC   C3A32837   3.801  39.455   8.081
 2426POPC   C4A32838   3.633  39.575   7.679
 2426POPC   C1B32839   3.212  39.028   8.738
 2426POPC   C2B32840   3.093  39.106   8.293
 2426POPC   C3B32841   3.367  39.194   7.956
 2426POPC   C4B32842   3.734  39.069   7.739
 2427POPC   NC332843  18.547  10.082   9.724
 2427POPC   PO432844  18.125   9.547   9.529
 2427POPC   GL132845  18.292   9.749   9.194
 2427POPC   GL232846  18.445  10.075   9.171
 2427POPC   C1A32847  18.445   9.600   8.813
 2427POPC   D2A32848  18.576   9.689   8.408
 2427POPC   C3A32849  18.323   9.559   8.069
 2427POPC   C4A32850  18.272   9.488   7.614
 2427POPC   C1B32851  18.107  10.012   8.800
 2427POPC   C2B32852  18.086  10.035   8.333
 2427POPC   C3B32853  18.226  10.019   7.886
 2427POPC   C4B32854  18.064   9.945   7.469
 2428POPC   NC332855  22.031  23.335   9.545
 2428POPC   PO432856  22.165  23.995   9.530
 2428POPC   GL132857  22.218  23.785   9.123
 2428POPC   GL232858  22.010  23.478   9.061
 2428POPC   C1A32859  22.164  24.037   8.746
 2428POPC   D2A32860  21.951  23.971   8.348
 2428POPC   C3A32861  22.220  24.047   7.978
 2428POPC   C4A32862  22.543  23.836   7.705
 2428POPC   C1B32863  22.107  23.528   8.632
 2428POPC   C2B32864  22.042  23.469   8.191
 2428POPC   C3B32865  22.080  23.411   7.745
 2428POPC   C4B32866  21.726  23.492   7.456
 2429POPC   NC332867  39.016   7.196   9.546
 2429POPC   PO432868  39.214   7.896   9.504
 2429POPC   GL132869  39.080   7.613   9.227
 2429POPC   GL232870  39.316   7.324   9.148
 2429POPC   C1A32871  39.039   7.637   8.796
 2429POPC   D2A32872  39.139   7.385   8.462
 2429POPC   C3A32873  38.934   7.525   8.073
 2429POPC   C4A32874  39.012   7.244   7.714
 2429POPC   C1B32875  39.567   7.472   8.793
 2429POPC   C2B32876  39.639   7.483   8.376
 2429POPC   C3B32877  39.428   7.411   8.034
 2429POPC   C4B32878  39.471   7.486   7.644
 2430POPC   NC332879  17.934   2.853   9.399
 2430POPC   PO432880  17.346   2.843   9.648
 2430POPC   GL132881  17.440   2.970   9.196
 2430POPC   GL232882  17.481   2.613   9.189
 2430POPC   C1A32883  17.486   2.849   8.720
 2430POPC   D2A32884  17.239   2.885   8.315
 2430POPC   C3A32885  17.459   3.008   7.938
 2430POPC   C4A32886  17.612   3.334   7.667
 2430POPC   C1B32887  17.492   2.375   8.841
 2430POPC   C2B32888  17.535   2.318   8.433
 2430POPC   C3B32889  17.391   2.477   8.066
 2430POPC   C4B32890  17.576   2.566   7.695
 2431POPC   NC332891  44.527  30.666   9.544
 2431POPC   PO432892   0.236  30.679   9.572
 2431POPC   GL132893  44.963  30.662   9.136
 2431POPC   GL232894  44.620  30.513   9.066
 2431POPC   C1A32895  44.857  30.860   8.742
 2431POPC   D2A32896  44.699  30.666   8.346
 2431POPC   C3A32897  44.642  30.898   7.951
 2431POPC   C4A32898  44.878  30.599   7.697
 2431POPC   C1B32899  44.362  30.702   8.726
 2431POPC   C2B32900  44.208  30.665   8.266
 2431POPC   C3B32901  44.433  30.441   7.918
 2431POPC   C4B32902  44.445  30.489   7.426
 2432POPC   NC332903  34.368  38.369   9.484
 2432POPC   PO432904  34.856  38.012   9.405
 2432POPC   GL132905  34.648  38.296   9.071
 2432POPC   GL232906  34.273  38.226   9.025
 2432POPC   C1A32907  34.453  38.680   8.842
 2432POPC   D2A32908  34.155  38.680   8.477
 2432POPC   C3A32909  34.336  38.745   8.067
 2432POPC   C4A32910  34.381  38.674   7.643
 2432POPC   C1B32911  34.324  38.235   8.642
 2432POPC   C2B32912  34.477  38.300   8.267
 2432POPC   C3B32913  34.278  38.246   7.896
 2432POPC   C4B32914  34.462  38.114   7.513
 2433POPC   NC332915  11.166  15.873   9.496
 2433POPC   PO432916  11.708  16.163   9.570
 2433POPC   GL132917  11.479  16.179   9.186
 2433POPC   GL232918  11.140  16.316   9.177
 2433POPC   C1A32919  11.471  16.165   8.733
 2433POPC   D2A32920  11.569  16.452   8.406
 2433POPC   C3A32921  11.589  16.295   7.980
 2433POPC   C4A32922  11.411  15.925   7.801
 2433POPC   C1B32923  10.996  16.002   8.859
 2433POPC   C2B32924  10.801  15.876   8.460
 2433POPC   C3B32925  10.976  15.955   8.052
 2433POPC   C4B32926  10.821  16.003   7.602
 2434POPC   NC332927  25.140  31.252   9.560
 2434POPC   PO432928  25.703  31.569   9.401
 2434POPC   GL132929  25.407  31.398   9.129
 2434POPC   GL232930  25.088  31.513   9.094
 2434POPC   C1A32931  25.434  31.489   8.706
 2434POPC   D2A32932  25.617  31.313   8.337
 2434POPC   C3A32933  25.501  31.515   7.978
 2434POPC   C4A32934  25.371  31.432   7.555
 2434POPC   C1B32935  24.939  31.316   8.740
 2434POPC   C2B32936  25.099  31.376   8.339
 2434POPC   C3B32937  25.007  31.435   7.948
 2434POPC   C4B32938  24.929  31.658   7.606
 2435POPC   NC332939  41.118  14.571   9.213
 2435POPC   PO432940  40.514  14.626   9.541
 2435POPC   GL132941  40.605  14.464   9.145
 2435POPC   GL232942  40.636  14.116   9.171
 2435POPC   C1A32943  40.753  14.445   8.696
 2435POPC   D2A32944  41.019  14.696   8.400
 2435POPC   C3A32945  40.891  14.617   7.975
 2435POPC   C4A32946  40.804  14.623   7.507
 2435POPC   C1B32947  40.362  14.117   8.825
 2435POPC   C2B32948  40.295  13.896   8.442
 2435POPC   C3B32949  40.609  13.907   8.094
 2435POPC   C4B32950  40.675  14.173   7.725
 2436POPC   NC332951  28.289  15.775   9.540
 2436POPC   PO432952  28.845  16.153   9.704
 2436POPC   GL132953  28.718  15.903   9.248
 2436POPC   GL232954  28.430  15.685   9.073
 2436POPC   C1A32955  28.619  16.017   8.766
 2436POPC   D2A32956  28.391  15.849   8.413
 2436POPC   C3A32957  28.460  15.952   7.994
 2436POPC   C4A32958  28.200  16.173   7.661
 2436POPC   C1B32959  28.063  15.877   8.809
 2436POPC   C2B32960  27.879  15.878   8.348
 2436POPC   C3B32961  27.996  15.759   7.880
 2436POPC   C4B32962  28.361  15.725   7.523
 2437POPC   NC332963  36.145  44.594   9.584
 2437POPC   PO432964  36.191   0.201   9.417
 2437POPC   GL132965  36.008  44.889   9.134
 2437POPC   GL232966  36.279  44.665   9.089
 2437POPC   C1A32967  35.850  44.906   8.716
 2437POPC   D2A32968  35.689  44.846   8.283
 2437POPC   C3A32969  35.943  44.704   7.908
 2437POPC   C4A32970  36.003  44.762   7.429
 2437POPC   C1B32971  36.328  44.767   8.646
 2437POPC   C2B32972  36.212   0.037   8.309
 2437POPC   C3B32973  36.401  44.941   7.931
 2437POPC   C4B32974  36.439  44.574   7.655
 2438POPC   NC332975   5.526   7.216   9.542
 2438POPC   PO432976   6.187   7.208   9.539
 2438POPC   GL132977   6.097   7.491   9.160
 2438POPC   GL232978   5.740   7.483   9.151
 2438POPC   C1A32979   5.960   7.477   8.708
 2438POPC   D2A32980   6.018   7.105   8.455
 2438POPC   C3A32981   5.965   7.310   8.112
 2438POPC   C4A32982   5.944   7.710   7.909
 2438POPC   C1B32983   5.590   7.148   8.862
 2438POPC   C2B32984   5.506   7.201   8.423
 2438POPC   C3B32985   5.490   7.099   7.987
 2438POPC   C4B32986   5.708   7.291   7.687
 2439POPC   NC332987  12.720  15.932   9.683
 2439POPC   PO432988  12.534  15.422   9.351
 2439POPC   GL132989  12.825  15.745   9.184
 2439POPC   GL232990  13.110  15.602   9.236
 2439POPC   C1A32991  12.941  16.104   8.866
 2439POPC   D2A32992  12.679  16.246   8.482
 2439POPC   C3A32993  12.745  16.041   8.093
 2439POPC   C4A32994  12.898  16.127   7.697
 2439POPC   C1B32995  13.193  15.653   8.802
 2439POPC   C2B32996  13.101  15.880   8.427
 2439POPC   C3B32997  13.194  15.715   8.027
 2439POPC   C4B32998  13.211  15.301   7.836
 2440POPC   NC332999  42.369  25.670   9.568
 2440POPC   PO433000  41.866  26.074   9.696
 2440POPC   GL133001  42.109  25.998   9.264
 2440POPC   GL233002  42.448  25.948   9.143
 2440POPC   C1A33003  42.095  25.838   8.808
 2440POPC   D2A33004  42.234  25.610   8.425
 2440POPC   C3A33005  42.239  25.849   8.028
 2440POPC   C4A33006  42.458  25.750   7.646
 2440POPC   C1B33007  42.386  26.249   8.803
 2440POPC   C2B33008  42.209  26.260   8.402
 2440POPC   C3B33009  42.377  26.384   8.025
 2440POPC   C4B33010  42.318  26.231   7.633
 2441POPC   NC333011  20.838  44.410   9.318
 2441POPC   PO433012  20.767  43.829   9.652
 2441POPC   GL133013  20.788  43.888   9.206
 2441POPC   GL233014  20.468  44.005   9.183
 2441POPC   C1A33015  20.668  43.810   8.748
 2441POPC   D2A33016  20.598  43.582   8.335
 2441POPC   C3A33017  20.833  43.739   7.945
 2441POPC   C4A33018  20.789  44.154   7.730
 2441POPC   C1B33019  20.223  44.079   8.843
 2441POPC   C2B33020  20.175  44.290   8.475
 2441POPC   C3B33021  20.430  44.230   8.107
 2441POPC   C4B33022  20.278  44.275   7.700
 2442POPC   NC333023  31.912  24.815   9.393
 2442POPC   PO433024  32.402  24.376   9.512
 2442POPC   GL133025  32.269  24.533   9.119
 2442POPC   GL233026  31.945  24.405   9.053
 2442POPC   C1A33027  32.337  24.498   8.676
 2442POPC   D2A33028  32.610  24.476   8.347
 2442POPC   C3A33029  32.400  24.539   7.943
 2442POPC   C4A33030  32.084  24.383   7.687
 2442POPC   C1B33031  31.852  24.657   8.681
 2442POPC   C2B33032  31.979  24.592   8.251
 2442POPC   C3B33033  31.958  24.844   7.889
 2442POPC   C4B33034  31.728  24.730   7.532
 2443POPC   NC333035  13.403  17.722   9.561
 2443POPC   PO433036  13.924  17.197   9.474
 2443POPC   GL133037  13.726  17.563   9.181
 2443POPC   GL233038  13.358  17.561   9.088
 2443POPC   C1A33039  13.664  17.824   8.770
 2443POPC   D2A33040  13.528  17.970   8.359
 2443POPC   C3A33041  13.764  17.781   8.021
 2443POPC   C4A33042  13.921  17.617   7.664
 2443POPC   C1B33043  13.466  17.357   8.699
 2443POPC   C2B33044  13.635  17.391   8.316
 2443POPC   C3B33045  13.433  17.338   7.920
 2443POPC   C4B33046  13.440  17.000   7.589
 2444POPC   NC333047  15.883  24.194   9.325
 2444POPC   PO433048  16.255  24.653   9.533
 2444POPC   GL133049  15.941  24.657   9.110
 2444POPC   GL233050  15.863  24.290   8.854
 2444POPC   C1A33051  15.657  24.701   8.712
 2444POPC   D2A33052  15.870  24.510   8.355
 2444POPC   C3A33053  15.662  24.533   7.964
 2444POPC   C4A33054  15.880  24.343   7.698
 2444POPC   C1B33055  16.205  23.956   8.798
 2444POPC   C2B33056  16.290  23.758   8.406
 2444POPC   C3B33057  16.199  23.995   7.992
 2444POPC   C4B33058  16.257  24.106   7.524
 2445POPC   NC333059  22.237   9.248   9.192
 2445POPC   PO433060  22.236   9.528   9.833
 2445POPC   GL133061  22.206   9.758   9.382
 2445POPC   GL233062  21.857   9.784   9.225
 2445POPC   C1A33063  22.267   9.837   8.914
 2445POPC   D2A33064  22.393   9.625   8.530
 2445POPC   C3A33065  22.225   9.772   8.123
 2445POPC   C4A33066  22.121   9.553   7.740
 2445POPC   C1B33067  21.711   9.511   8.856
 2445POPC   C2B33068  21.854   9.646   8.478
 2445POPC   C3B33069  21.722   9.577   8.087
 2445POPC   C4B33070  21.604   9.508   7.718
 2446POPC   NC333071  24.059  26.049   9.557
 2446POPC   PO433072  24.748  26.160   9.502
 2446POPC   GL133073  24.446  26.000   9.202
 2446POPC   GL233074  24.219  26.280   9.119
 2446POPC   C1A33075  24.495  25.845   8.796
 2446POPC   D2A33076  24.660  26.073   8.385
 2446POPC   C3A33077  24.562  25.857   8.004
 2446POPC   C4A33078  24.749  25.784   7.622
 2446POPC   C1B33079  24.375  26.353   8.693
 2446POPC   C2B33080  24.168  26.277   8.279
 2446POPC   C3B33081  24.291  26.305   7.845
 2446POPC   C4B33082  24.727  26.276   7.772
 2447POPC   NC333083  23.817  30.280   9.644
 2447POPC   PO433084  24.016  29.653   9.495
 2447POPC   GL133085  23.823  29.803   9.127
 2447POPC   GL233086  23.575  30.039   9.215
 2447POPC   C1A33087  23.776  29.801   8.676
 2447POPC   D2A33088  23.814  29.485   8.322
 2447POPC   C3A33089  23.909  29.656   7.928
 2447POPC   C4A33090  23.651  29.836   7.613
 2447POPC   C1B33091  23.914  30.249   8.938
 2447POPC   C2B33092  23.896  30.310   8.525
 2447POPC   C3B33093  23.837  30.189   8.134
 2447POPC   C4B33094  23.938  30.351   7.720
 2448POPC   NC333095  24.900   2.963   9.385
 2448POPC   PO433096  24.210   2.771   9.490
 2448POPC   GL133097  24.460   2.818   9.158
 2448POPC   GL233098  24.381   3.159   9.118
 2448POPC   C1A33099  24.556   2.599   8.795
 2448POPC   D2A33100  24.225   2.441   8.535
 2448POPC   C3A33101  24.282   2.540   8.083
 2448POPC   C4A33102  24.716   2.671   7.933
 2448POPC   C1B33103  24.264   3.016   8.714
 2448POPC   C2B33104  24.509   2.922   8.363
 2448POPC   C3B33105  24.385   3.066   7.969
 2448POPC   C4B33106  24.062   2.933   7.747
 2449POPC   NC333107   9.800  11.967   9.425
 2449POPC   PO433108   9.413  12.383   9.607
 2449POPC   GL133109   9.433  12.280   9.173
 2449POPC   GL233110   9.372  11.921   9.144
 2449POPC   C1A33111   9.627  12.187   8.770
 2449POPC   D2A33112   9.952  12.225   8.449
 2449POPC   C3A33113   9.798  12.304   8.046
 2449POPC   C4A33114  10.032  12.192   7.680
 2449POPC   C1B33115   9.477  11.667   8.766
 2449POPC   C2B33116   9.639  11.829   8.399
 2449POPC   C3B33117   9.877  11.808   8.029
 2449POPC   C4B33118   9.645  11.888   7.628
 2450POPC   NC333119  27.265   4.037   9.411
 2450POPC   PO433120  27.765   3.865   9.800
 2450POPC   GL133121  27.712   4.135   9.239
 2450POPC   GL233122  27.613   4.479   9.186
 2450POPC   C1A33123  27.525   4.084   8.809
 2450POPC   D2A33124  27.377   4.103   8.399
 2450POPC   C3A33125  27.677   4.111   8.071
 2450POPC   C4A33126  27.702   4.231   7.668
 2450POPC   C1B33127  27.281   4.550   8.848
 2450POPC   C2B33128  27.135   4.555   8.421
 2450POPC   C3B33129  27.304   4.479   8.031
 2450POPC   C4B33130  27.363   4.607   7.639
 2451POPC   NC333131  42.537  27.904   9.464
 2451POPC   PO433132  42.067  27.393   9.473
 2451POPC   GL133133  42.285  27.571   9.111
 2451POPC   GL233134  42.122  27.915   9.066
 2451POPC   C1A33135  42.100  27.567   8.687
 2451POPC   D2A33136  42.117  27.876   8.356
 2451POPC   C3A33137  42.112  27.624   7.996
 2451POPC   C4A33138  42.261  27.289   7.712
 2451POPC   C1B33139  42.474  27.901   8.726
 2451POPC   C2B33140  42.815  27.815   8.400
 2451POPC   C3B33141  42.793  27.893   7.950
 2451POPC   C4B33142  42.481  27.724   7.655
 2452POPC   NC333143  25.464  28.552   9.456
 2452POPC   PO433144  25.147  28.000   9.588
 2452POPC   GL133145  25.032  28.149   9.163
 2452POPC   GL233146  25.351  28.297   9.041
 2452POPC   C1A33147  24.961  28.288   8.694
 2452POPC   D2A33148  25.106  28.497   8.283
 2452POPC   C3A33149  25.250  28.412   7.870
 2452POPC   C4A33150  25.090  28.251   7.487
 2452POPC   C1B33151  25.417  28.545   8.681
 2452POPC   C2B33152  25.657  28.443   8.295
 2452POPC   C3B33153  25.729  28.591   7.925
 2452POPC   C4B33154  25.476  28.862   7.722
 2453POPC   NC333155  30.958  31.525   9.585
 2453POPC   PO433156  30.442  31.172   9.533
 2453POPC   GL133157  30.751  31.331   9.183
 2453POPC   GL233158  30.547  31.569   9.120
 2453POPC   C1A33159  31.078  31.629   8.916
 2453POPC   D2A33160  31.135  31.919   8.563
 2453POPC   C3A33161  31.078  31.772   8.187
 2453POPC   C4A33162  31.107  31.484   7.900
 2453POPC   C1B33163  30.687  31.417   8.702
 2453POPC   C2B33164  30.637  31.569   8.355
 2453POPC   C3B33165  30.656  31.313   8.037
 2453POPC   C4B33166  30.627  31.480   7.611
 2454POPC   NC333167  30.350   4.694   9.564
 2454POPC   PO433168  30.091   4.040   9.558
 2454POPC   GL133169  30.250   4.267   9.233
 2454POPC   GL233170  30.046   4.550   9.152
 2454POPC   C1A33171  30.083   4.169   8.828
 2454POPC   D2A33172  30.066   4.329   8.445
 2454POPC   C3A33173  29.998   4.032   8.117
 2454POPC   C4A33174  30.111   4.227   7.772
 2454POPC   C1B33175  29.666   4.496   8.870
 2454POPC   C2B33176  29.508   4.574   8.457
 2454POPC   C3B33177  29.700   4.440   8.084
 2454POPC   C4B33178  29.622   4.517   7.683
 2455POPC   NC333179   8.762   0.573   9.420
 2455POPC   PO433180   9.217   0.118   9.514
 2455POPC   GL133181   8.984   0.194   9.137
 2455POPC   GL233182   8.627   0.145   9.190
 2455POPC   C1A33183   9.023   0.371   8.715
 2455POPC   D2A33184   9.247   0.435   8.286
 2455POPC   C3A33185   9.139   0.544   7.846
 2455POPC   C4A33186   8.820   0.832   7.612
 2455POPC   C1B33187   8.623   0.027   8.774
 2455POPC   C2B33188   8.599   0.260   8.373
 2455POPC   C3B33189   8.670   0.521   8.021
 2455POPC   C4B33190   8.712   0.344   7.625
 2456POPC   NC333191  24.104  21.830   9.795
 2456POPC   PO433192  24.572  22.347   9.572
 2456POPC   GL133193  24.445  22.130   9.235
 2456POPC   GL233194  24.129  22.312   9.178
 2456POPC   C1A33195  24.588  21.931   8.810
 2456POPC   D2A33196  24.803  21.953   8.381
 2456POPC   C3A33197  24.630  21.803   8.011
 2456POPC   C4A33198  24.302  21.958   7.706
 2456POPC   C1B33199  24.445  22.407   8.849
 2456POPC   C2B33200  24.601  22.437   8.456
 2456POPC   C3B33201  24.460  22.273   8.093
 2456POPC   C4B33202  24.407  22.460   7.700
 2457POPC   NC333203  15.664  43.958   9.573
 2457POPC   PO433204  16.294  43.845   9.766
 2457POPC   GL133205  16.003  43.732   9.293
 2457POPC   GL233206  15.788  43.988   9.097
 2457POPC   C1A33207  16.149  43.717   8.834
 2457POPC   D2A33208  16.215  43.524   8.419
 2457POPC   C3A33209  16.159  43.787   8.049
 2457POPC   C4A33210  16.171  43.686   7.637
 2457POPC   C1B33211  15.637  43.805   8.796
 2457POPC   C2B33212  15.841  43.884   8.435
 2457POPC   C3B33213  15.655  43.904   8.050
 2457POPC   C4B33214  15.681  44.032   7.672
 2458POPC   NC333215  16.705  31.735   9.722
 2458POPC   PO433216  17.013  32.319   9.508
 2458POPC   GL133217  16.763  32.147   9.194
 2458POPC   GL233218  16.990  32.024   8.982
 2458POPC   C1A33219  16.508  32.152   8.827
 2458POPC   D2A33220  16.514  32.406   8.453
 2458POPC   C3A33221  16.465  32.260   8.021
 2458POPC   C4A33222  16.764  32.303   7.671
 2458POPC   C1B33223  16.933  31.900   8.618
 2458POPC   C2B33224  16.893  32.093   8.242
 2458POPC   C3B33225  16.950  31.901   7.880
 2458POPC   C4B33226  17.025  31.934   7.406
 2459POPC   NC333227  44.928  41.286   9.506
 2459POPC   PO433228  44.523  41.831   9.576
 2459POPC   GL133229  44.577  41.774   9.151
 2459POPC   GL233230  44.865  41.596   9.103
 2459POPC   C1A33231  44.531  41.544   8.738
 2459POPC   D2A33232  44.366  41.634   8.312
 2459POPC   C3A33233  44.641  41.712   7.970
 2459POPC   C4A33234  44.652  41.441   7.619
 2459POPC   C1B33235   0.099  41.587   8.737
 2459POPC   C2B33236  44.986  41.507   8.299
 2459POPC   C3B33237   0.096  41.381   7.867
 2459POPC   C4B33238   0.074  41.276   7.385
 2460POPC   NC333239  31.953   9.299   9.505
 2460POPC   PO433240  32.261   9.915   9.563
 2460POPC   GL133241  32.347   9.843   9.126
 2460POPC   GL233242  32.268   9.509   9.153
 2460POPC   C1A33243  32.136   9.775   8.745
 2460POPC   D2A33244  31.981   9.861   8.359
 2460POPC   C3A33245  32.169   9.792   7.978
 2460POPC   C4A33246  32.317   9.666   7.595
 2460POPC   C1B33247  32.505   9.405   8.800
 2460POPC   C2B33248  32.393   9.191   8.406
 2460POPC   C3B33249  32.359   9.323   7.968
 2460POPC   C4B33250  32.180   9.197   7.557
 2461POPC   NC333251  19.940   4.567   9.554
 2461POPC   PO433252  20.053   3.865   9.521
 2461POPC   GL133253  19.828   4.112   9.188
 2461POPC   GL233254  19.671   4.446   9.116
 2461POPC   C1A33255  19.930   4.090   8.762
 2461POPC   D2A33256  20.160   4.271   8.422
 2461POPC   C3A33257  19.948   4.086   8.074
 2461POPC   C4A33258  19.997   4.150   7.640
 2461POPC   C1B33259  19.767   4.565   8.721
 2461POPC   C2B33260  19.687   4.466   8.313
 2461POPC   C3B33261  19.864   4.570   7.923
 2461POPC   C4B33262  19.699   4.547   7.524
 2462POPC   NC333263  25.105  35.839   9.372
 2462POPC   PO433264  25.588  36.281   9.475
 2462POPC   GL133265  25.480  36.376   9.087
 2462POPC   GL233266  25.159  36.490   9.204
 2462POPC   C1A33267  25.501  36.189   8.676
 2462POPC   D2A33268  25.403  35.887   8.352
 2462POPC   C3A33269  25.496  36.124   7.983
 2462POPC   C4A33270  25.609  36.349   7.607
 2462POPC   C1B33271  25.031  36.267   8.854
 2462POPC   C2B33272  24.986  36.166   8.419
 2462POPC   C3B33273  25.001  35.984   8.017
 2462POPC   C4B33274  25.100  36.375   7.800
 2463POPC   NC333275  39.485  38.259   9.639
 2463POPC   PO433276  38.895  38.640   9.568
 2463POPC   GL133277  39.194  38.475   9.274
 2463POPC   GL233278  39.198  38.111   9.181
 2463POPC   C1A33279  39.349  38.525   8.878
 2463POPC   D2A33280  39.112  38.420   8.516
 2463POPC   C3A33281  39.297  38.530   8.147
 2463POPC   C4A33282  39.216  38.642   7.784
 2463POPC   C1B33283  39.363  38.015   8.749
 2463POPC   C2B33284  39.344  37.991   8.295
 2463POPC   C3B33285  39.097  38.119   7.954
 2463POPC   C4B33286  39.366  38.188   7.592
 2464POPC   NC333287   4.613  35.511   9.551
 2464POPC   PO433288   3.962  35.126   9.544
 2464POPC   GL133289   4.245  35.311   9.238
 2464POPC   GL233290   4.532  35.101   9.263
 2464POPC   C1A33291   4.495  35.494   8.893
 2464POPC   D2A33292   4.333  35.498   8.492
 2464POPC   C3A33293   4.471  35.660   8.105
 2464POPC   C4A33294   4.248  35.495   7.757
 2464POPC   C1B33295   4.470  34.971   8.855
 2464POPC   C2B33296   4.423  34.985   8.404
 2464POPC   C3B33297   4.550  35.139   7.991
 2464POPC   C4B33298   4.633  35.187   7.534
 2465POPC   NC333299  27.189  18.290   9.646
 2465POPC   PO433300  26.550  18.506   9.633
 2465POPC   GL133301  26.714  18.359   9.235
 2465POPC   GL233302  26.466  18.115   9.115
 2465POPC   C1A33303  26.964  18.258   8.853
 2465POPC   D2A33304  26.852  18.393   8.410
 2465POPC   C3A33305  26.915  18.284   7.930
 2465POPC   C4A33306  26.932  18.579   7.546
 2465POPC   C1B33307  26.565  17.996   8.684
 2465POPC   C2B33308  26.679  17.939   8.245
 2465POPC   C3B33309  26.418  18.050   7.869
 2465POPC   C4B33310  26.331  17.763   7.511
 2466POPC   NC333311  19.815  17.165   9.417
 2466POPC   PO433312  20.140  16.609   9.481
 2466POPC   GL133313  19.827  16.642   9.185
 2466POPC   GL233314  19.618  16.909   9.019
 2466POPC   C1A33315  19.937  16.581   8.784
 2466POPC   D2A33316  19.894  16.452   8.393
 2466POPC   C3A33317  20.117  16.678   8.121
 2466POPC   C4A33318  20.134  16.528   7.732
 2466POPC   C1B33319  19.528  16.774   8.581
 2466POPC   C2B33320  19.644  16.845   8.167
 2466POPC   C3B33321  19.706  16.840   7.720
 2466POPC   C4B33322  19.604  16.931   7.291
 2467POPC   NC333323  26.062  38.094   9.521
 2467POPC   PO433324  25.971  37.447   9.709
 2467POPC   GL133325  26.080  37.642   9.274
 2467POPC   GL233326  25.867  37.458   9.128
 2467POPC   C1A33327  26.051  37.831   8.798
 2467POPC   D2A33328  25.884  37.813   8.325
 2467POPC   C3A33329  26.157  37.818   7.961
 2467POPC   C4A33330  26.178  38.048   7.569
 2467POPC   C1B33331  25.886  37.364   8.727
 2467POPC   C2B33332  26.047  37.351   8.359
 2467POPC   C3B33333  25.903  37.369   7.982
 2467POPC   C4B33334  26.120  37.277   7.651
 2468POPC   NC333335   3.252  30.280   9.513
 2468POPC   PO433336   3.797  29.810   9.437
 2468POPC   GL133337   3.680  29.988   9.077
 2468POPC   GL233338   3.307  30.039   9.068
 2468POPC   C1A33339   3.578  29.813   8.673
 2468POPC   D2A33340   3.493  29.658   8.269
 2468POPC   C3A33341   3.640  29.934   7.948
 2468POPC   C4A33342   3.409  29.855   7.589
 2468POPC   C1B33343   3.526  30.326   8.757
 2468POPC   C2B33344   3.400  30.196   8.368
 2468POPC   C3B33345   3.180  30.160   8.015
 2468POPC   C4B33346   3.404  30.373   7.714
 2469POPC   NC333347  34.176  17.634   9.544
 2469POPC   PO433348  34.762  17.320   9.396
 2469POPC   GL133349  34.519  17.566   9.150
 2469POPC   GL233350  34.233  17.364   9.083
 2469POPC   C1A33351  34.658  17.586   8.737
 2469POPC   D2A33352  34.990  17.386   8.508
 2469POPC   C3A33353  34.874  17.324   8.113
 2469POPC   C4A33354  34.849  17.548   7.731
 2469POPC   C1B33355  34.256  17.287   8.655
 2469POPC   C2B33356  34.318  17.663   8.394
 2469POPC   C3B33357  34.466  17.662   8.020
 2469POPC   C4B33358  34.443  17.242   7.876
 2470POPC   NC333359  33.576  14.151   9.400
 2470POPC   PO433360  34.156  14.533   9.270
 2470POPC   GL133361  34.127  14.352   8.912
 2470POPC   GL233362  33.789  14.321   8.970
 2470POPC   C1A33363  33.978  14.153   8.533
 2470POPC   D2A33364  33.824  14.400   8.212
 2470POPC   C3A33365  33.981  14.371   7.812
 2470POPC   C4A33366  34.270  14.189   7.529
 2470POPC   C1B33367  33.590  14.531   8.653
 2470POPC   C2B33368  33.324  14.666   8.296
 2470POPC   C3B33369  33.291  14.792   7.868
 2470POPC   C4B33370  33.569  14.566   7.562
 2471POPC   NC333371  39.809  39.705   9.414
 2471POPC   PO433372  40.194  40.245   9.528
 2471POPC   GL133373  40.052  40.099   9.152
 2471POPC   GL233374  40.218  39.787   9.074
 2471POPC   C1A33375  40.040  40.296   8.754
 2471POPC   D2A33376  40.068  40.175   8.316
 2471POPC   C3A33377  39.767  40.298   7.979
 2471POPC   C4A33378  39.855  40.230   7.506
 2471POPC   C1B33379  39.918  39.812   8.720
 2471POPC   C2B33380  39.731  39.799   8.300
 2471POPC   C3B33381  39.800  39.805   7.839
 2471POPC   C4B33382  39.695  39.679   7.405
 2472POPC   NC333383  17.248  18.373   9.810
 2472POPC   PO433384  17.812  18.323   9.437
 2472POPC   GL133385  17.369  18.264   9.222
 2472POPC   GL233386  17.351  17.933   9.030
 2472POPC   C1A33387  17.147  18.301   8.789
 2472POPC   D2A33388  17.366  18.403   8.418
 2472POPC   C3A33389  17.211  18.366   8.027
 2472POPC   C4A33390  17.303  18.780   7.878
 2472POPC   C1B33391  17.653  18.185   8.793
 2472POPC   C2B33392  17.851  18.224   8.416
 2472POPC   C3B33393  17.766  18.429   8.019
 2472POPC   C4B33394  17.861  18.344   7.593
 2473POPC   NC333395  26.230   2.842   9.402
 2473POPC   PO433396  25.606   2.480   9.491
 2473POPC   GL133397  25.784   2.782   9.171
 2473POPC   GL233398  25.903   2.540   9.011
 2473POPC   C1A33399  26.033   2.958   8.775
 2473POPC   D2A33400  26.248   2.860   8.384
 2473POPC   C3A33401  26.136   3.014   7.968
 2473POPC   C4A33402  26.151   3.278   7.581
 2473POPC   C1B33403  26.258   2.484   8.745
 2473POPC   C2B33404  26.344   2.344   8.332
 2473POPC   C3B33405  26.153   2.461   7.949
 2473POPC   C4B33406  25.747   2.552   7.829
 2474POPC   NC333407  12.949  30.204   9.516
 2474POPC   PO433408  12.647  29.599   9.401
 2474POPC   GL133409  12.851  29.671   9.030
 2474POPC   GL233410  12.964  30.031   9.024
 2474POPC   C1A33411  12.752  29.827   8.603
 2474POPC   D2A33412  12.992  30.151   8.382
 2474POPC   C3A33413  13.112  30.079   7.962
 2474POPC   C4A33414  12.875  29.735   7.781
 2474POPC   C1B33415  13.244  29.795   8.716
 2474POPC   C2B33416  13.244  29.677   8.248
 2474POPC   C3B33417  13.361  29.647   7.780
 2474POPC   C4B33418  13.161  29.671   7.309
 2475POPC   NC333419  41.909  22.205   9.537
 2475POPC   PO433420  41.240  22.226   9.513
 2475POPC   GL133421  41.377  22.096   9.154
 2475POPC   GL233422  41.646  22.305   9.095
 2475POPC   C1A33423  41.331  22.113   8.718
 2475POPC   D2A33424  41.624  22.039   8.393
 2475POPC   C3A33425  41.506  22.059   7.946
 2475POPC   C4A33426  41.768  21.875   7.605
 2475POPC   C1B33427  41.542  22.552   8.723
 2475POPC   C2B33428  41.791  22.624   8.381
 2475POPC   C3B33429  41.921  22.360   8.076
 2475POPC   C4B33430  41.787  22.399   7.662
 2476POPC   NC333431  11.117  42.226   9.735
 2476POPC   PO433432  11.669  42.690   9.649
 2476POPC   GL133433  11.437  42.506   9.211
 2476POPC   GL233434  11.644  42.219   9.010
 2476POPC   C1A33435  11.279  42.626   8.763
 2476POPC   D2A33436  11.473  42.714   8.326
 2476POPC   C3A33437  11.257  42.600   7.940
 2476POPC   C4A33438  10.914  42.399   7.710
 2476POPC   C1B33439  11.620  42.284   8.579
 2476POPC   C2B33440  11.263  42.219   8.306
 2476POPC   C3B33441  11.268  42.076   7.876
 2476POPC   C4B33442  11.326  42.302   7.436
 2477POPC   NC333443  44.864  29.177   9.748
 2477POPC   PO433444  44.257  28.848   9.630
 2477POPC   GL133445  44.555  29.096   9.323
 2477POPC   GL233446  44.455  29.372   9.099
 2477POPC   C1A33447  44.793  29.056   8.903
 2477POPC   D2A33448  44.730  28.877   8.479
 2477POPC   C3A33449  44.661  29.110   8.108
 2477POPC   C4A33450  44.927  29.263   7.783
 2477POPC   C1B33451  44.400  29.421   8.658
 2477POPC   C2B33452  44.317  29.487   8.221
 2477POPC   C3B33453  44.406  29.469   7.800
 2477POPC   C4B33454  44.117  29.319   7.509
 2478POPC   NC333455  21.556  28.004   9.608
 2478POPC   PO433456  20.968  27.897   9.709
 2478POPC   GL133457  21.162  28.120   9.285
 2478POPC   GL233458  21.466  28.341   9.215
 2478POPC   C1A33459  21.175  28.169   8.798
 2478POPC   D2A33460  21.257  28.361   8.353
 2478POPC   C3A33461  21.509  28.160   8.001
 2478POPC   C4A33462  21.554  28.232   7.546
 2478POPC   C1B33463  21.551  28.563   8.801
 2478POPC   C2B33464  21.700  28.684   8.385
 2478POPC   C3B33465  21.764  28.601   7.951
 2478POPC   C4B33466  21.901  28.620   7.548
 2479POPC   NC333467  43.002   7.839   9.281
 2479POPC   PO433468  43.121   8.407   9.616
 2479POPC   GL133469  43.229   8.313   9.130
 2479POPC   GL233470  43.296   8.014   8.917
 2479POPC   C1A33471  43.177   8.451   8.680
 2479POPC   D2A33472  42.848   8.476   8.363
 2479POPC   C3A33473  42.947   8.590   7.952
 2479POPC   C4A33474  43.401   8.688   7.888
 2479POPC   C1B33475  42.839   8.058   8.694
 2479POPC   C2B33476  42.713   7.999   8.265
 2479POPC   C3B33477  43.101   8.094   8.017
 2479POPC   C4B33478  43.494   7.866   7.866
 2480POPC   NC333479  36.839  16.522   9.676
 2480POPC   PO433480  37.117  17.086   9.711
 2480POPC   GL133481  37.088  16.840   9.298
 2480POPC   GL233482  36.744  16.843   9.280
 2480POPC   C1A33483  37.116  16.672   8.832
 2480POPC   D2A33484  37.232  16.865   8.398
 2480POPC   C3A33485  37.122  16.712   7.997
 2480POPC   C4A33486  37.074  16.989   7.637
 2480POPC   C1B33487  36.611  16.770   8.883
 2480POPC   C2B33488  36.729  16.882   8.467
 2480POPC   C3B33489  36.548  16.741   8.087
 2480POPC   C4B33490  36.698  16.617   7.698
 2481POPC   NC333491  32.086  17.348   9.427
 2481POPC   PO433492  31.935  17.969   9.663
 2481POPC   GL133493  31.820  17.845   9.137
 2481POPC   GL233494  31.981  17.516   8.970
 2481POPC   C1A33495  32.023  17.887   8.655
 2481POPC   D2A33496  32.093  17.481   8.395
 2481POPC   C3A33497  32.245  17.514   7.956
 2481POPC   C4A33498  32.529  17.729   7.680
 2481POPC   C1B33499  31.797  17.172   8.728
 2481POPC   C2B33500  31.695  17.084   8.312
 2481POPC   C3B33501  31.727  17.259   7.889
 2481POPC   C4B33502  31.912  17.317   7.476
 2482POPC   NC333503   2.523  17.444   9.880
 2482POPC   PO433504   2.087  17.776   9.528
 2482POPC   GL133505   1.850  17.607   9.186
 2482POPC   GL233506   1.854  17.253   9.107
 2482POPC   C1A33507   1.694  17.681   8.766
 2482POPC   D2A33508   1.930  17.640   8.397
 2482POPC   C3A33509   1.711  17.477   8.068
 2482POPC   C4A33510   1.862  17.386   7.688
 2482POPC   C1B33511   2.169  17.466   8.805
 2482POPC   C2B33512   2.454  17.312   8.520
 2482POPC   C3B33513   2.227  17.269   8.154
 2482POPC   C4B33514   2.357  17.292   7.763
 2483POPC   NC333515   0.718  15.425   9.530
 2483POPC   PO433516   0.160  14.986   9.467
 2483POPC   GL133517   0.593  14.956   9.288
 2483POPC   GL233518   0.585  15.247   9.033
 2483POPC   C1A33519   0.751  14.779   8.902
 2483POPC   D2A33520   0.508  14.988   8.566
 2483POPC   C3A33521   0.623  14.977   8.142
 2483POPC   C4A33522   0.358  15.009   7.771
 2483POPC   C1B33523   0.707  15.628   8.793
 2483POPC   C2B33524   0.546  15.732   8.382
 2483POPC   C3B33525   0.463  15.458   8.027
 2483POPC   C4B33526   0.751  15.293   7.743
 2484POPC   NC333527  30.279  31.644   9.558
 2484POPC   PO433528  29.573  31.659   9.541
 2484POPC   GL133529  29.669  31.562   9.132
 2484POPC   GL233530  30.014  31.515   9.144
 2484POPC   C1A33531  29.728  31.597   8.702
 2484POPC   D2A33532  29.579  31.428   8.380
 2484POPC   C3A33533  29.728  31.558   8.004
 2484POPC   C4A33534  29.912  31.919   7.848
 2484POPC   C1B33535  30.215  31.555   8.753
 2484POPC   C2B33536  30.123  31.410   8.359
 2484POPC   C3B33537  30.235  31.552   7.962
 2484POPC   C4B33538  30.085  31.329   7.653
 2485POPC   NC333539  17.361  33.383   9.419
 2485POPC   PO433540  17.802  32.802   9.494
 2485POPC   GL133541  17.759  33.123   9.172
 2485POPC   GL233542  17.429  32.977   9.113
 2485POPC   C1A33543  17.733  33.126   8.705
 2485POPC   D2A33544  17.487  33.301   8.351
 2485POPC   C3A33545  17.721  33.218   7.981
 2485POPC   C4A33546  18.039  32.917   7.847
 2485POPC   C1B33547  17.318  32.830   8.716
 2485POPC   C2B33548  17.464  32.775   8.290
 2485POPC   C3B33549  17.326  32.931   7.900
 2485POPC   C4B33550  17.447  32.888   7.476
 2486POPC   NC333551   6.962   2.880   9.534
 2486POPC   PO433552   6.345   2.733   9.455
 2486POPC   GL133553   6.467   2.828   9.103
 2486POPC   GL233554   6.698   3.097   9.146
 2486POPC   C1A33555   6.667   2.705   8.742
 2486POPC   D2A33556   6.956   2.549   8.437
 2486POPC   C3A33557   6.761   2.707   8.091
 2486POPC   C4A33558   6.414   2.776   7.833
 2486POPC   C1B33559   6.562   3.203   8.779
 2486POPC   C2B33560   6.734   3.088   8.420
 2486POPC   C3B33561   6.600   3.215   8.045
 2486POPC   C4B33562   6.392   3.260   7.702
 2487POPC   NC333563  29.700  42.559   9.442
 2487POPC   PO433564  30.273  42.212   9.579
 2487POPC   GL133565  30.013  42.180   9.165
 2487POPC   GL233566  30.092  42.486   9.086
 2487POPC   C1A33567  29.841  42.253   8.730
 2487POPC   D2A33568  29.996  42.415   8.355
 2487POPC   C3A33569  29.726  42.457   7.981
 2487POPC   C4A33570  29.551  42.369   7.556
 2487POPC   C1B33571  30.286  42.756   8.788
 2487POPC   C2B33572  30.139  42.919   8.422
 2487POPC   C3B33573  30.187  42.780   8.012
 2487POPC   C4B33574  30.224  42.347   7.895
 2488POPC   NC333575  10.130  28.466   9.432
 2488POPC   PO433576   9.457  28.570   9.601
 2488POPC   GL133577   9.660  28.606   9.228
 2488POPC   GL233578   9.691  28.242   9.189
 2488POPC   C1A33579   9.555  28.691   8.797
 2488POPC   D2A33580   9.817  28.563   8.449
 2488POPC   C3A33581   9.745  28.469   8.025
 2488POPC   C4A33582  10.055  28.280   7.801
 2488POPC   C1B33583   9.517  28.196   8.763
 2488POPC   C2B33584   9.532  28.063   8.341
 2488POPC   C3B33585   9.384  28.131   7.909
 2488POPC   C4B33586   9.373  28.398   7.545
 2489POPC   NC333587  19.615  44.258   9.491
 2489POPC   PO433588  20.198  44.645   9.758
 2489POPC   GL133589  19.918  44.664   9.350
 2489POPC   GL233590  19.783  44.985   9.249
 2489POPC   C1A33591  19.986  44.636   8.857
 2489POPC   D2A33592  20.279  44.800   8.527
 2489POPC   C3A33593  20.184  44.676   8.109
 2489POPC   C4A33594  20.120  44.771   7.688
 2489POPC   C1B33595  19.647  44.991   8.805
 2489POPC   C2B33596  19.736  44.741   8.382
 2489POPC   C3B33597  19.685  44.804   7.923
 2489POPC   C4B33598  19.684  44.814   7.409
 2490POPC   NC333599  16.141  30.388   9.547
 2490POPC   PO433600  15.726  30.887   9.519
 2490POPC   GL133601  15.937  30.878   9.177
 2490POPC   GL233602  15.908  30.523   9.106
 2490POPC   C1A33603  15.736  30.955   8.824
 2490POPC   D2A33604  15.937  30.767   8.503
 2490POPC   C3A33605  15.879  30.906   8.077
 2490POPC   C4A33606  16.152  30.856   7.690
 2490POPC   C1B33607  15.637  30.413   8.743
 2490POPC   C2B33608  15.614  30.464   8.269
 2490POPC   C3B33609  15.924  30.429   7.893
 2490POPC   C4B33610  15.772  30.268   7.504
 2491POPC   NC333611  19.977  27.032   9.825
 2491POPC   PO433612  19.507  26.613   9.597
 2491POPC   GL133613  19.636  26.809   9.193
 2491POPC   GL233614  19.544  27.154   9.029
 2491POPC   C1A33615  19.600  26.684   8.766
 2491POPC   D2A33616  19.832  26.798   8.392
 2491POPC   C3A33617  19.612  26.927   8.020
 2491POPC   C4A33618  19.590  26.593   7.738
 2491POPC   C1B33619  19.968  27.067   8.843
 2491POPC   C2B33620  20.209  27.142   8.421
 2491POPC   C3B33621  20.078  27.213   7.967
 2491POPC   C4B33622  19.957  26.957   7.594
 2492POPC   NC333623  20.018  23.967   9.597
 2492POPC   PO433624  20.581  23.551   9.744
 2492POPC   GL133625  20.329  23.640   9.345
 2492POPC   GL233626  20.582  23.638   9.128
 2492POPC   C1A33627  20.243  23.952   8.950
 2492POPC   D2A33628  20.392  23.957   8.511
 2492POPC   C3A33629  20.291  23.704   8.136
 2492POPC   C4A33630  20.446  23.889   7.765
 2492POPC   C1B33631  20.690  23.523   8.722
 2492POPC   C2B33632  20.896  23.801   8.480
 2492POPC   C3B33633  20.799  23.814   8.102
 2492POPC   C4B33634  20.829  23.508   7.768
 2493POPC   NC333635  15.701  11.150   9.864
 2493POPC   PO433636  15.782  10.546   9.824
 2493POPC   GL133637  15.920  10.540   9.348
 2493POPC   GL233638  16.203  10.754   9.206
 2493POPC   C1A33639  15.940  10.425   8.903
 2493POPC   D2A33640  16.132  10.293   8.483
 2493POPC   C3A33641  16.027  10.466   8.094
 2493POPC   C4A33642  15.876  10.293   7.737
 2493POPC   C1B33643  16.397  10.625   8.782
 2493POPC   C2B33644  16.453  10.662   8.322
 2493POPC   C3B33645  16.273  10.895   7.930
 2493POPC   C4B33646  16.052  10.866   7.484
 2494POPC   NC333647  37.452  31.184   9.579
 2494POPC   PO433648  37.412  31.818   9.424
 2494POPC   GL133649  37.579  31.462   9.172
 2494POPC   GL233650  37.728  31.672   8.994
 2494POPC   C1A33651  37.801  31.227   8.807
 2494POPC   D2A33652  37.855  31.096   8.379
 2494POPC   C3A33653  37.649  31.411   8.145
 2494POPC   C4A33654  37.645  31.590   7.737
 2494POPC   C1B33655  38.002  31.712   8.676
 2494POPC   C2B33656  37.915  31.862   8.253
 2494POPC   C3B33657  38.101  31.721   7.884
 2494POPC   C4B33658  38.074  31.726   7.434
 2495POPC   NC333659  19.593   0.859   9.365
 2495POPC   PO433660  20.074   1.293   9.498
 2495POPC   GL133661  19.896   1.211   9.106
 2495POPC   GL233662  20.084   0.938   9.059
 2495POPC   C1A33663  19.657   1.043   8.736
 2495POPC   D2A33664  19.377   1.236   8.433
 2495POPC   C3A33665  19.489   1.112   8.016
 2495POPC   C4A33666  19.637   0.772   7.776
 2495POPC   C1B33667  20.074   0.681   8.695
 2495POPC   C2B33668  19.908   0.662   8.273
 2495POPC   C3B33669  20.121   0.823   7.934
 2495POPC   C4B33670  20.213   1.264   7.833
 2496POPC   NC333671   4.911  20.834   9.520
 2496POPC   PO433672   5.242  20.354   9.238
 2496POPC   GL133673   5.037  20.680   9.029
 2496POPC   GL233674   5.248  20.948   9.140
 2496POPC   C1A33675   4.942  20.727   8.598
 2496POPC   D2A33676   4.872  20.510   8.209
 2496POPC   C3A33677   4.882  20.698   7.807
 2496POPC   C4A33678   4.871  20.476   7.414
 2496POPC   C1B33679   5.435  20.843   8.742
 2496POPC   C2B33680   5.378  20.605   8.375
 2496POPC   C3B33681   5.353  20.673   7.948
 2496POPC   C4B33682   5.363  20.648   7.490
 2497POPC   NC333683  12.808   5.121   9.723
 2497POPC   PO433684  12.786   4.400   9.590
 2497POPC   GL133685  12.911   4.399   9.192
 2497POPC   GL233686  13.113   4.163   9.114
 2497POPC   C1A33687  13.020   4.510   8.771
 2497POPC   D2A33688  13.121   4.529   8.352
 2497POPC   C3A33689  12.809   4.439   8.001
 2497POPC   C4A33690  13.069   4.521   7.696
 2497POPC   C1B33691  12.683   4.106   8.869
 2497POPC   C2B33692  12.715   4.220   8.457
 2497POPC   C3B33693  13.088   4.057   8.168
 2497POPC   C4B33694  13.123   3.986   7.715
 2498POPC   NC333695  32.066   7.756   9.326
 2498POPC   PO433696  32.513   7.423   9.749
 2498POPC   GL133697  32.422   7.343   9.232
 2498POPC   GL233698  32.113   7.334   9.001
 2498POPC   C1A33699  32.497   7.563   8.770
 2498POPC   D2A33700  32.281   7.528   8.361
 2498POPC   C3A33701  32.373   7.404   7.919
 2498POPC   C4A33702  32.417   7.493   7.455
 2498POPC   C1B33703  32.276   7.085   8.653
 2498POPC   C2B33704  32.090   7.091   8.218
 2498POPC   C3B33705  31.866   7.472   8.032
 2498POPC   C4B33706  31.905   7.419   7.584
 2499POPC   NC333707  33.563   9.390   9.491
 2499POPC   PO433708  33.864   9.928   9.786
 2499POPC   GL133709  33.862   9.830   9.311
 2499POPC   GL233710  34.078   9.603   9.163
 2499POPC   C1A33711  33.762   9.895   8.862
 2499POPC   D2A33712  34.013   9.877   8.483
 2499POPC   C3A33713  33.794   9.880   8.108
 2499POPC   C4A33714  33.538   9.863   7.748
 2499POPC   C1B33715  33.814   9.383   8.874
 2499POPC   C2B33716  33.860   9.386   8.462
 2499POPC   C3B33717  34.153   9.439   8.161
 2499POPC   C4B33718  33.921   9.496   7.796
 2500POPC   NC333719  18.794  11.714   9.392
 2500POPC   PO433720  19.082  12.353   9.499
 2500POPC   GL133721  18.886  12.186   9.137
 2500POPC   GL233722  19.106  11.907   9.034
 2500POPC   C1A33723  18.737  12.151   8.699
 2500POPC   D2A33724  18.792  12.004   8.262
 2500POPC   C3A33725  19.063  12.271   8.021
 2500POPC   C4A33726  19.259  12.337   7.646
 2500POPC   C1B33727  19.431  11.786   8.749
 2500POPC   C2B33728  19.350  11.850   8.291
 2500POPC   C3B33729  19.391  11.849   7.842
 2500POPC   C4B33730  18.971  11.862   7.724
 2501POPC   NC333731  30.006  29.136   9.502
 2501POPC   PO433732  30.318  28.552   9.256
 2501POPC   GL133733  30.111  29.001   9.022
 2501POPC   GL233734  29.882  29.358   9.078
 2501POPC   C1A33735  29.786  29.114   8.665
 2501POPC   D2A33736  29.608  29.221   8.262
 2501POPC   C3A33737  29.791  29.071   7.884
 2501POPC   C4A33738  29.751  28.681   7.680
 2501POPC   C1B33739  29.995  29.589   8.721
 2501POPC   C2B33740  30.088  29.452   8.316
 2501POPC   C3B33741  29.899  29.570   7.933
 2501POPC   C4B33742  29.744  29.456   7.539
 2502POPC   NC333743  21.948  25.723   9.519
 2502POPC   PO433744  22.552  25.996   9.597
 2502POPC   GL133745  22.414  26.070   9.160
 2502POPC   GL233746  22.100  25.979   9.121
 2502POPC   C1A33747  22.298  26.015   8.673
 2502POPC   D2A33748  22.217  25.738   8.324
 2502POPC   C3A33749  22.359  25.968   8.070
 2502POPC   C4A33750  22.391  26.341   7.878
 2502POPC   C1B33751  21.750  25.949   8.848
 2502POPC   C2B33752  21.734  25.821   8.428
 2502POPC   C3B33753  21.820  26.024   8.015
 2502POPC   C4B33754  21.697  25.839   7.598
 2503POPC   NC333755  37.672  38.178   9.421
 2503POPC   PO433756  37.765  37.589   9.736
 2503POPC   GL133757  37.630  37.652   9.300
 2503POPC   GL233758  37.962  37.735   9.206
 2503POPC   C1A33759  37.468  37.810   8.872
 2503POPC   D2A33760  37.659  37.891   8.469
 2503POPC   C3A33761  37.524  37.630   8.094
 2503POPC   C4A33762  37.405  37.220   7.923
 2503POPC   C1B33763  37.891  37.504   8.796
 2503POPC   C2B33764  37.992  37.535   8.341
 2503POPC   C3B33765  37.985  37.861   8.011
 2503POPC   C4B33766  37.951  37.791   7.535
 2504POPC   NC333767  41.739  37.476   9.392
 2504POPC   PO433768  41.325  37.954   9.572
 2504POPC   GL133769  41.544  37.871   9.144
 2504POPC   GL233770  41.810  38.072   9.056
 2504POPC   C1A33771  41.717  37.742   8.703
 2504POPC   D2A33772  41.717  37.885   8.260
 2504POPC   C3A33773  41.502  37.571   8.055
 2504POPC   C4A33774  41.298  37.455   7.720
 2504POPC   C1B33775  41.737  38.245   8.651
 2504POPC   C2B33776  41.965  38.339   8.314
 2504POPC   C3B33777  41.921  38.208   7.870
 2504POPC   C4B33778  41.488  37.985   7.734
 2505POPC   NC333779  39.718  33.396   9.621
 2505POPC   PO433780  40.343  33.086   9.611
 2505POPC   GL133781  40.058  33.150   9.268
 2505POPC   GL233782  40.005  32.781   9.237
 2505POPC   C1A33783  39.852  33.141   8.865
 2505POPC   D2A33784  39.791  32.847   8.546
 2505POPC   C3A33785  39.870  32.916   8.108
 2505POPC   C4A33786  39.888  32.574   7.832
 2505POPC   C1B33787  40.227  32.798   8.859
 2505POPC   C2B33788  40.313  32.904   8.431
 2505POPC   C3B33789  40.348  32.738   8.031
 2505POPC   C4B33790  40.353  32.803   7.620
 2506POPC   NC333791  30.554  17.649   9.677
 2506POPC   PO433792  31.187  17.385   9.529
 2506POPC   GL133793  30.851  17.461   9.188
 2506POPC   GL233794  30.505  17.657   9.157
 2506POPC   C1A33795  30.906  17.655   8.763
 2506POPC   D2A33796  31.098  17.725   8.346
 2506POPC   C3A33797  30.814  17.630   8.015
 2506POPC   C4A33798  30.450  17.461   7.797
 2506POPC   C1B33799  30.439  17.859   8.753
 2506POPC   C2B33800  30.614  17.981   8.362
 2506POPC   C3B33801  30.400  17.938   7.994
 2506POPC   C4B33802  30.015  17.720   7.923
 2507POPC   NC333803  20.728   9.265   9.591
 2507POPC   PO433804  20.794   8.630   9.391
 2507POPC   GL133805  20.722   8.954   9.107
 2507POPC   GL233806  20.455   9.223   9.174
 2507POPC   C1A33807  20.805   8.860   8.664
 2507POPC   D2A33808  20.661   8.660   8.269
 2507POPC   C3A33809  20.881   8.782   7.933
 2507POPC   C4A33810  20.797   8.939   7.546
 2507POPC   C1B33811  20.642   9.340   8.782
 2507POPC   C2B33812  20.868   9.292   8.401
 2507POPC   C3B33813  20.745   9.261   7.983
 2507POPC   C4B33814  20.414   9.245   7.668
 2508POPC   NC333815   9.818  13.934   9.440
 2508POPC   PO433816   9.653  13.353   9.576
 2508POPC   GL133817   9.467  13.613   9.280
 2508POPC   GL233818   9.805  13.540   9.099
 2508POPC   C1A33819   9.456  13.800   8.863
 2508POPC   D2A33820   9.743  13.610   8.566
 2508POPC   C3A33821   9.566  13.617   8.166
 2508POPC   C4A33822   9.645  13.782   7.791
 2508POPC   C1B33823   9.929  13.180   8.830
 2508POPC   C2B33824  10.118  13.193   8.418
 2508POPC   C3B33825   9.996  13.316   8.023
 2508POPC   C4B33826   9.917  13.162   7.617
 2509POPC   NC333827  30.591   8.061   9.504
 2509POPC   PO433828  31.043   8.556   9.520
 2509POPC   GL133829  30.884   8.346   9.156
 2509POPC   GL233830  30.541   8.308   9.057
 2509POPC   C1A33831  30.902   8.469   8.731
 2509POPC   D2A33832  30.696   8.244   8.441
 2509POPC   C3A33833  30.760   8.404   8.065
 2509POPC   C4A33834  30.867   8.119   7.758
 2509POPC   C1B33835  30.251   8.324   8.721
 2509POPC   C2B33836  30.217   8.337   8.281
 2509POPC   C3B33837  30.372   8.085   7.970
 2509POPC   C4B33838  30.440   7.870   7.629
 2510POPC   NC333839  32.049  30.638   9.465
 2510POPC   PO433840  32.677  30.367   9.286
 2510POPC   GL133841  32.330  30.545   9.046
 2510POPC   GL233842  31.949  30.422   9.022
 2510POPC   C1A33843  32.184  30.746   8.698
 2510POPC   D2A33844  32.335  30.947   8.371
 2510POPC   C3A33845  32.385  30.733   8.000
 2510POPC   C4A33846  32.304  31.029   7.690
 2510POPC   C1B33847  31.908  30.287   8.619
 2510POPC   C2B33848  32.083  30.342   8.230
 2510POPC   C3B33849  32.146  30.268   7.806
 2510POPC   C4B33850  32.370  30.539   7.523
 2511POPC   NC333851  29.217  37.330   9.379
 2511POPC   PO433852  29.101  37.942   9.544
 2511POPC   GL133853  29.239  37.791   9.152
 2511POPC   GL233854  28.906  37.714   9.086
 2511POPC   C1A33855  29.369  37.558   8.768
 2511POPC   D2A33856  29.612  37.682   8.415
 2511POPC   C3A33857  29.493  37.656   8.005
 2511POPC   C4A33858  29.646  37.857   7.697
 2511POPC   C1B33859  28.994  37.883   8.660
 2511POPC   C2B33860  29.092  37.579   8.307
 2511POPC   C3B33861  29.039  37.551   7.837
 2511POPC   C4B33862  28.856  37.592   7.439
 2512POPC   NC333863  31.765  25.467   9.517
 2512POPC   PO433864  31.479  24.930   9.343
 2512POPC   GL133865  31.495  25.326   9.090
 2512POPC   GL233866  31.695  25.616   9.053
 2512POPC   C1A33867  31.621  25.334   8.641
 2512POPC   D2A33868  31.411  25.100   8.316
 2512POPC   C3A33869  31.542  25.173   7.890
 2512POPC   C4A33870  31.487  25.154   7.427
 2512POPC   C1B33871  31.771  25.872   8.743
 2512POPC   C2B33872  31.721  25.752   8.335
 2512POPC   C3B33873  31.835  25.596   7.949
 2512POPC   C4B33874  31.952  25.307   7.615
 2513POPC   NC333875  33.447  22.904   9.905
 2513POPC   PO433876  33.749  23.367   9.536
 2513POPC   GL133877  33.758  23.072   9.185
 2513POPC   GL233878  33.500  22.809   9.151
 2513POPC   C1A33879  33.708  23.257   8.791
 2513POPC   D2A33880  33.495  23.255   8.425
 2513POPC   C3A33881  33.699  23.210   8.038
 2513POPC   C4A33882  33.550  23.237   7.605
 2513POPC   C1B33883  33.468  22.803   8.719
 2513POPC   C2B33884  33.667  22.764   8.318
 2513POPC   C3B33885  33.622  22.715   7.856
 2513POPC   C4B33886  33.527  22.760   7.401
 2514POPC   NC333887   0.233  36.164   9.595
 2514POPC   PO433888   0.883  35.964   9.413
 2514POPC   GL133889   0.581  36.249   9.245
 2514POPC   GL233890   0.738  36.550   9.296
 2514POPC   C1A33891   0.314  36.307   8.861
 2514POPC   D2A33892   0.176  36.114   8.454
 2514POPC   C3A33893   0.345  36.209   8.037
 2514POPC   C4A33894   0.421  35.964   7.644
 2514POPC   C1B33895   0.842  36.410   8.864
 2514POPC   C2B33896   0.637  36.496   8.473
 2514POPC   C3B33897   0.807  36.503   8.085
 2514POPC   C4B33898   0.720  36.391   7.704
 2515POPC   NC333899  22.733  41.660   9.518
 2515POPC   PO433900  23.241  41.278   9.485
 2515POPC   GL133901  23.003  41.440   9.127
 2515POPC   GL233902  22.601  41.404   9.095
 2515POPC   C1A33903  23.091  41.638   8.733
 2515POPC   D2A33904  22.850  41.751   8.383
 2515POPC   C3A33905  22.843  41.511   8.002
 2515POPC   C4A33906  23.194  41.518   7.747
 2515POPC   C1B33907  22.755  41.228   8.701
 2515POPC   C2B33908  23.109  41.101   8.472
 2515POPC   C3B33909  23.181  41.093   8.009
 2515POPC   C4B33910  22.936  40.983   7.678
 2516POPC   NC333911  16.538   0.183   9.553
 2516POPC   PO433912  16.914   0.698   9.723
 2516POPC   GL133913  16.862   0.601   9.280
 2516POPC   GL233914  16.889   0.244   9.152
 2516POPC   C1A33915  16.649   0.796   8.917
 2516POPC   D2A33916  16.524   0.725   8.495
 2516POPC   C3A33917  16.842   0.771   8.164
 2516POPC   C4A33918  16.734   0.598   7.781
 2516POPC   C1B33919  16.850   0.346   8.689
 2516POPC   C2B33920  16.895   0.274   8.222
 2516POPC   C3B33921  16.547   0.147   7.935
 2516POPC   C4B33922  16.778  44.964   7.644
 2517POPC   NC333923  19.647  22.386   9.518
 2517POPC   PO433924  20.036  21.862   9.532
 2517POPC   GL133925  19.946  22.134   9.171
 2517POPC   GL233926  19.619  22.243   9.029
 2517POPC   C1A33927  20.053  22.145   8.746
 2517POPC   D2A33928  19.840  21.990   8.395
 2517POPC   C3A33929  20.021  22.060   8.011
 2517POPC   C4A33930  19.843  22.140   7.652
 2517POPC   C1B33931  19.508  21.872   8.792
 2517POPC   C2B33932  19.357  21.777   8.372
 2517POPC   C3B33933  19.566  21.820   7.950
 2517POPC   C4B33934  19.506  21.839   7.439
 2518POPC   NC333935   5.646   9.721   9.555
 2518POPC   PO433936   4.995   9.524   9.585
 2518POPC   GL133937   5.252   9.669   9.205
 2518POPC   GL233938   5.428   9.984   9.159
 2518POPC   C1A33939   5.207   9.759   8.745
 2518POPC   D2A33940   4.870   9.790   8.417
 2518POPC   C3A33941   4.876   9.577   7.998
 2518POPC   C4A33942   5.134   9.775   7.673
 2518POPC   C1B33943   5.384  10.228   8.780
 2518POPC   C2B33944   5.212  10.178   8.358
 2518POPC   C3B33945   5.397  10.095   7.948
 2518POPC   C4B33946   5.430  10.101   7.445
 2519POPC   NC333947  26.808  12.768   9.624
 2519POPC   PO433948  27.387  12.640   9.475
 2519POPC   GL133949  27.017  12.615   9.187
 2519POPC   GL233950  26.815  12.948   9.109
 2519POPC   C1A33951  26.969  12.587   8.757
 2519POPC   D2A33952  27.136  12.908   8.474
 2519POPC   C3A33953  26.813  12.895   8.180
 2519POPC   C4A33954  27.030  12.627   7.896
 2519POPC   C1B33955  26.703  13.095   8.661
 2519POPC   C2B33956  26.561  13.363   8.311
 2519POPC   C3B33957  26.467  13.308   7.890
 2519POPC   C4B33958  26.511  13.075   7.533
 2520POPC   NC333959   8.737  10.775   9.439
 2520POPC   PO433960   9.407  10.586   9.405
 2520POPC   GL133961   9.116  10.633   9.114
 2520POPC   GL233962   8.898  10.355   9.175
 2520POPC   C1A33963   8.892  10.679   8.751
 2520POPC   D2A33964   9.033  10.784   8.341
 2520POPC   C3A33965   8.892  10.574   7.960
 2520POPC   C4A33966   8.598  10.714   7.612
 2520POPC   C1B33967   9.154  10.224   8.801
 2520POPC   C2B33968   9.034  10.273   8.369
 2520POPC   C3B33969   9.082  10.100   7.959
 2520POPC   C4B33970   9.353  10.105   7.641
 2521POPC   NC333971  12.347  15.020   9.519
 2521POPC   PO433972  11.694  15.277   9.606
 2521POPC   GL133973  11.846  15.126   9.217
 2521POPC   GL233974  12.049  15.420   9.173
 2521POPC   C1A33975  12.108  14.970   8.844
 2521POPC   D2A33976  12.230  14.780   8.436
 2521POPC   C3A33977  11.959  14.861   8.073
 2521POPC   C4A33978  11.920  14.942   7.624
 2521POPC   C1B33979  12.241  15.488   8.765
 2521POPC   C2B33980  12.395  15.263   8.399
 2521POPC   C3B33981  12.321  15.196   7.945
 2521POPC   C4B33982  12.311  15.492   7.619
 2522POPC   NC333983   5.223  29.541   9.528
 2522POPC   PO433984   5.426  30.259   9.517
 2522POPC   GL133985   5.166  30.074   9.164
 2522POPC   GL233986   5.049  29.746   9.119
 2522POPC   C1A33987   5.146  30.001   8.701
 2522POPC   D2A33988   5.338  30.071   8.315
 2522POPC   C3A33989   4.995  30.209   8.034
 2522POPC   C4A33990   4.943  30.209   7.595
 2522POPC   C1B33991   5.315  29.511   8.852
 2522POPC   C2B33992   5.319  29.545   8.419
 2522POPC   C3B33993   5.056  29.714   8.115
 2522POPC   C4B33994   4.954  29.675   7.694
 2523POPC   NC333995  29.333   9.272   9.546
 2523POPC   PO433996  28.849   8.847   9.488
 2523POPC   GL133997  29.108   8.961   9.140
 2523POPC   GL233998  29.003   9.307   9.145
 2523POPC   C1A33999  29.019   9.047   8.684
 2523POPC   D2A34000  28.776   9.172   8.309
 2523POPC   C3A34001  28.832   8.966   7.901
 2523POPC   C4A34002  28.733   8.694   7.511
 2523POPC   C1B34003  29.398   9.320   8.901
 2523POPC   C2B34004  29.509   9.299   8.501
 2523POPC   C3B34005  29.249   9.354   8.159
 2523POPC   C4B34006  29.456   9.302   7.775
 2524POPC   NC334007  32.338  12.228   9.500
 2524POPC   PO434008  31.740  11.949   9.664
 2524POPC   GL134009  31.869  12.150   9.261
 2524POPC   GL234010  32.084  11.884   9.218
 2524POPC   C1A34011  32.145  12.273   8.865
 2524POPC   D2A34012  32.489  12.348   8.543
 2524POPC   C3A34013  32.318  12.275   8.113
 2524POPC   C4A34014  32.326  12.539   7.721
 2524POPC   C1B34015  32.073  11.746   8.821
 2524POPC   C2B34016  32.158  11.918   8.439
 2524POPC   C3B34017  32.040  11.824   8.021
 2524POPC   C4B34018  31.997  12.142   7.730
 2525POPC   NC334019   4.586  15.572   9.863
 2525POPC   PO434020   4.156  15.202   9.491
 2525POPC   GL134021   4.203  15.026   9.091
 2525POPC   GL234022   3.849  14.959   9.064
 2525POPC   C1A34023   4.397  15.200   8.699
 2525POPC   D2A34024   4.430  15.508   8.361
 2525POPC   C3A34025   4.439  15.364   7.936
 2525POPC   C4A34026   4.383  14.971   7.709
 2525POPC   C1B34027   3.903  15.378   8.844
 2525POPC   C2B34028   3.921  15.525   8.407
 2525POPC   C3B34029   3.926  15.498   7.966
 2525POPC   C4B34030   3.845  15.103   7.812
 2526POPC   NC334031  44.867  31.734   9.815
 2526POPC   PO434032  44.449  31.229   9.608
 2526POPC   GL134033  44.701  31.411   9.241
 2526POPC   GL234034  44.976  31.655   9.269
 2526POPC   C1A34035  44.724  31.388   8.771
 2526POPC   D2A34036  44.758  31.186   8.358
 2526POPC   C3A34037  44.765  31.428   7.997
 2526POPC   C4A34038  44.591  31.426   7.587
 2526POPC   C1B34039   0.025  31.789   8.822
 2526POPC   C2B34040  44.854  31.763   8.368
 2526POPC   C3B34041  44.881  31.930   7.940
 2526POPC   C4B34042   0.060  31.628   7.619
 2527POPC   NC334043  23.651  31.976   9.548
 2527POPC   PO434044  23.153  32.210   9.926
 2527POPC   GL134045  23.498  32.425   9.441
 2527POPC   GL234046  23.858  32.385   9.300
 2527POPC   C1A34047  23.511  32.465   8.935
 2527POPC   D2A34048  23.735  32.587   8.515
 2527POPC   C3A34049  23.602  32.500   8.084
 2527POPC   C4A34050  23.610  32.126   7.819
 2527POPC   C1B34051  23.893  32.061   8.931
 2527POPC   C2B34052  23.867  31.970   8.479
 2527POPC   C3B34053  24.033  32.267   8.186
 2527POPC   C4B34054  24.047  32.417   7.766
 2528POPC   NC334055  20.660  19.537   9.507
 2528POPC   PO434056  20.719  20.163   9.668
 2528POPC   GL134057  20.631  20.037   9.178
 2528POPC   GL234058  20.686  19.656   9.029
 2528POPC   C1A34059  20.831  20.054   8.769
 2528POPC   D2A34060  20.708  19.724   8.467
 2528POPC   C3A34061  20.804  19.825   8.047
 2528POPC   C4A34062  20.494  20.069   7.870
 2528POPC   C1B34063  20.327  19.770   8.811
 2528POPC   C2B34064  20.113  19.571   8.458
 2528POPC   C3B34065  20.370  19.508   8.116
 2528POPC   C4B34066  20.452  19.550   7.705
 2529POPC   NC334067  38.042  15.565   9.902
 2529POPC   PO434068  37.542  15.153   9.671
 2529POPC   GL134069  37.697  15.306   9.296
 2529POPC   GL234070  37.362  15.326   9.174
 2529POPC   C1A34071  37.741  15.253   8.823
 2529POPC   D2A34072  37.549  15.351   8.415
 2529POPC   C3A34073  37.757  15.291   8.032
 2529POPC   C4A34074  37.912  15.316   7.629
 2529POPC   C1B34075  37.261  15.030   8.873
 2529POPC   C2B34076  37.148  14.956   8.467
 2529POPC   C3B34077  37.313  15.002   8.075
 2529POPC   C4B34078  37.483  15.025   7.685
 2530POPC   NC334079  29.546  34.390   9.430
 2530POPC   PO434080  29.015  34.621   9.696
 2530POPC   GL134081  29.067  34.621   9.257
 2530POPC   GL234082  29.367  34.770   9.110
 2530POPC   C1A34083  28.932  34.672   8.839
 2530POPC   D2A34084  29.098  34.497   8.455
 2530POPC   C3A34085  28.956  34.630   8.048
 2530POPC   C4A34086  28.646  34.654   7.695
 2530POPC   C1B34087  29.438  34.827   8.682
 2530POPC   C2B34088  29.416  34.830   8.221
 2530POPC   C3B34089  29.448  34.643   7.881
 2530POPC   C4B34090  29.558  34.359   7.645
 2531POPC   NC334091  15.678  42.965   9.456
 2531POPC   PO434092  16.282  43.252   9.524
 2531POPC   GL134093  16.182  43.268   9.097
 2531POPC   GL234094  16.164  42.927   9.116
 2531POPC   C1A34095  15.852  43.311   8.743
 2531POPC   D2A34096  15.799  43.147   8.315
 2531POPC   C3A34097  16.041  43.296   7.946
 2531POPC   C4A34098  15.944  43.248   7.479
 2531POPC   C1B34099  16.015  42.820   8.728
 2531POPC   C2B34100  15.990  42.672   8.289
 2531POPC   C3B34101  15.913  42.814   7.893
 2531POPC   C4B34102  16.195  42.802   7.521
 2532POPC   NC334103  21.806   8.155   9.552
 2532POPC   PO434104  22.376   8.592   9.665
 2532POPC   GL134105  22.237   8.326   9.217
 2532POPC   GL234106  22.128   8.012   9.156
 2532POPC   C1A34107  22.064   8.360   8.803
 2532POPC   D2A34108  22.143   8.033   8.495
 2532POPC   C3A34109  22.344   8.140   8.131
 2532POPC   C4A34110  22.339   8.438   7.778
 2532POPC   C1B34111  21.844   7.742   8.959
 2532POPC   C2B34112  21.819   7.653   8.514
 2532POPC   C3B34113  21.762   7.973   8.166
 2532POPC   C4B34114  21.992   8.062   7.789
 2533POPC   NC334115  39.471   4.883   9.485
 2533POPC   PO434116  38.852   5.026   9.533
 2533POPC   GL134117  39.097   4.988   9.145
 2533POPC   GL234118  39.209   4.642   9.113
 2533POPC   C1A34119  39.170   5.224   8.771
 2533POPC   D2A34120  39.036   5.538   8.464
 2533POPC   C3A34121  39.031   5.423   8.025
 2533POPC   C4A34122  39.271   5.211   7.714
 2533POPC   C1B34123  39.341   4.682   8.696
 2533POPC   C2B34124  39.116   4.654   8.315
 2533POPC   C3B34125  39.113   4.757   7.900
 2533POPC   C4B34126  39.413   4.760   7.560
 2534POPC   NC334127   2.990  43.074   9.381
 2534POPC   PO434128   2.311  43.077   9.476
 2534POPC   GL134129   2.545  42.923   9.173
 2534POPC   GL234130   2.636  43.225   9.047
 2534POPC   C1A34131   2.805  42.793   8.816
 2534POPC   D2A34132   2.889  42.972   8.413
 2534POPC   C3A34133   2.880  42.851   7.968
 2534POPC   C4A34134   2.801  43.125   7.581
 2534POPC   C1B34135   2.990  43.342   8.781
 2534POPC   C2B34136   2.917  43.470   8.375
 2534POPC   C3B34137   2.644  43.305   8.042
 2534POPC   C4B34138   2.451  43.496   7.639
 2535POPC   NC334139  12.248   2.970   9.384
 2535POPC   PO434140  11.824   2.651   9.749
 2535POPC   GL134141  11.874   2.674   9.234
 2535POPC   GL234142  12.156   2.514   9.123
 2535POPC   C1A34143  11.881   2.749   8.746
 2535POPC   D2A34144  11.770   2.941   8.316
 2535POPC   C3A34145  11.944   2.777   7.912
 2535POPC   C4A34146  12.009   2.988   7.515
 2535POPC   C1B34147  12.332   2.450   8.736
 2535POPC   C2B34148  12.121   2.513   8.336
 2535POPC   C3B34149  12.332   2.449   7.935
 2535POPC   C4B34150  12.483   2.792   7.674
 2536POPC   NC334151  23.638  23.530   9.530
 2536POPC   PO434152  24.200  23.882   9.434
 2536POPC   GL134153  23.939  23.788   9.025
 2536POPC   GL234154  23.574  23.778   9.068
 2536POPC   C1A34155  23.717  23.711   8.589
 2536POPC   D2A34156  23.448  23.841   8.220
 2536POPC   C3A34157  23.697  23.972   7.856
 2536POPC   C4A34158  23.923  23.747   7.490
 2536POPC   C1B34159  23.378  23.412   8.864
 2536POPC   C2B34160  23.452  23.307   8.409
 2536POPC   C3B34161  23.665  23.427   8.014
 2536POPC   C4B34162  23.425  23.578   7.658
 2537POPC   NC334163   3.595  32.395   9.690
 2537POPC   PO434164   3.007  32.473   9.440
 2537POPC   GL134165   3.365  32.305   9.227
 2537POPC   GL234166   3.552  32.578   9.229
 2537POPC   C1A34167   3.474  32.070   8.860
 2537POPC   D2A34168   3.647  32.019   8.443
 2537POPC   C3A34169   3.350  32.061   8.121
 2537POPC   C4A34170   3.577  32.133   7.766
 2537POPC   C1B34171   3.373  32.643   8.846
 2537POPC   C2B34172   3.333  32.437   8.473
 2537POPC   C3B34173   3.537  32.531   8.105
 2537POPC   C4B34174   3.502  32.744   7.744
 2538POPC   NC334175  31.320  42.842   9.424
 2538POPC   PO434176  31.091  43.429   9.471
 2538POPC   GL134177  31.328  43.413   9.127
 2538POPC   GL234178  31.636  43.224   9.167
 2538POPC   C1A34179  31.301  43.260   8.742
 2538POPC   D2A34180  31.157  43.066   8.394
 2538POPC   C3A34181  31.335  43.159   8.005
 2538POPC   C4A34182  31.377  43.515   7.763
 2538POPC   C1B34183  31.666  42.884   8.848
 2538POPC   C2B34184  31.661  42.705   8.449
 2538POPC   C3B34185  31.750  42.866   8.021
 2538POPC   C4B34186  31.558  42.863   7.627
 2539POPC   NC334187  11.227  10.945   9.857
 2539POPC   PO434188  11.714  11.224   9.585
 2539POPC   GL134189  11.384  11.188   9.267
 2539POPC   GL234190  11.166  10.917   9.308
 2539POPC   C1A34191  11.268  11.347   8.856
 2539POPC   D2A34192  11.504  11.331   8.469
 2539POPC   C3A34193  11.269  11.359   8.080
 2539POPC   C4A34194  11.510  11.294   7.721
 2539POPC   C1B34195  11.011  10.905   8.876
 2539POPC   C2B34196  11.013  11.095   8.468
 2539POPC   C3B34197  10.971  10.961   8.041
 2539POPC   C4B34198  11.029  11.154   7.615
 2540POPC   NC334199  24.075  21.791   9.254
 2540POPC   PO434200  23.735  21.335   9.593
 2540POPC   GL134201  23.648  21.174   9.153
 2540POPC   GL234202  23.991  20.956   9.046
 2540POPC   C1A34203  23.490  21.423   8.759
 2540POPC   D2A34204  23.516  21.654   8.323
 2540POPC   C3A34205  23.642  21.392   7.986
 2540POPC   C4A34206  23.428  21.069   7.749
 2540POPC   C1B34207  23.997  21.310   8.803
 2540POPC   C2B34208  23.973  21.437   8.411
 2540POPC   C3B34209  24.140  21.562   8.020
 2540POPC   C4B34210  23.997  21.544   7.597
 2541POPC   NC334211  21.469  22.958   9.467
 2541POPC   PO434212  20.851  23.253   9.300
 2541POPC   GL134213  21.210  23.144   9.040
 2541POPC   GL234214  21.544  23.261   9.061
 2541POPC   C1A34215  21.402  22.909   8.709
 2541POPC   D2A34216  21.208  22.784   8.321
 2541POPC   C3A34217  21.346  22.863   7.902
 2541POPC   C4A34218  21.484  22.629   7.551
 2541POPC   C1B34219  21.615  23.378   8.670
 2541POPC   C2B34220  21.630  23.167   8.321
 2541POPC   C3B34221  21.606  23.307   7.934
 2541POPC   C4B34222  21.284  23.297   7.623
 2542POPC   NC334223   4.000  10.331   9.682
 2542POPC   PO434224   4.615  10.338   9.707
 2542POPC   GL134225   4.542  10.439   9.271
 2542POPC   GL234226   4.199  10.465   9.197
 2542POPC   C1A34227   4.618  10.642   8.857
 2542POPC   D2A34228   4.397  10.752   8.464
 2542POPC   C3A34229   4.414  10.872   8.011
 2542POPC   C4A34230   4.214  10.881   7.619
 2542POPC   C1B34231   4.292  10.263   8.783
 2542POPC   C2B34232   4.185  10.307   8.336
 2542POPC   C3B34233   4.257  10.360   7.905
 2542POPC   C4B34234   4.388  10.009   7.621
 2543POPC   NC334235  34.478  16.300   9.490
 2543POPC   PO434236  34.551  15.715   9.437
 2543POPC   GL134237  34.582  16.009   9.081
 2543POPC   GL234238  34.888  16.204   9.092
 2543POPC   C1A34239  34.296  16.022   8.739
 2543POPC   D2A34240  34.187  15.847   8.329
 2543POPC   C3A34241  34.552  15.888   8.080
 2543POPC   C4A34242  34.679  15.699   7.713
 2543POPC   C1B34243  34.718  16.371   8.690
 2543POPC   C2B34244  34.684  16.446   8.266
 2543POPC   C3B34245  34.808  16.290   7.906
 2543POPC   C4B34246  34.601  16.170   7.529
 2544POPC   NC334247  29.499  36.941   9.753
 2544POPC   PO434248  28.874  37.051   9.524
 2544POPC   GL134249  29.064  36.876   9.195
 2544POPC   GL234250  29.452  36.902   9.210
 2544POPC   C1A34251  29.136  37.067   8.786
 2544POPC   D2A34252  28.959  36.960   8.415
 2544POPC   C3A34253  29.117  37.095   8.043
 2544POPC   C4A34254  28.910  37.085   7.644
 2544POPC   C1B34255  29.338  36.607   8.889
 2544POPC   C2B34256  29.413  36.529   8.468
 2544POPC   C3B34257  29.187  36.583   8.123
 2544POPC   C4B34258  29.254  36.582   7.730
 2545POPC   NC334259  27.983  13.481   9.619
 2545POPC   PO434260  28.547  13.867   9.542
 2545POPC   GL134261  28.469  13.803   9.150
 2545POPC   GL234262  28.202  13.611   9.172
 2545POPC   C1A34263  28.541  13.676   8.739
 2545POPC   D2A34264  28.322  13.627   8.381
 2545POPC   C3A34265  28.544  13.513   8.058
 2545POPC   C4A34266  28.344  13.663   7.715
 2545POPC   C1B34267  28.068  13.897   8.804
 2545POPC   C2B34268  27.947  14.001   8.345
 2545POPC   C3B34269  27.908  13.882   7.882
 2545POPC   C4B34270  27.867  13.571   7.525
 2546POPC   NC334271  28.938   3.569   9.427
 2546POPC   PO434272  29.606   3.689   9.493
 2546POPC   GL134273  29.358   3.649   9.104
 2546POPC   GL234274  29.177   3.343   9.034
 2546POPC   C1A34275  29.400   3.579   8.641
 2546POPC   D2A34276  29.293   3.261   8.358
 2546POPC   C3A34277  29.138   3.391   7.974
 2546POPC   C4A34278  29.228   3.261   7.545
 2546POPC   C1B34279  28.883   3.379   8.669
 2546POPC   C2B34280  28.676   3.344   8.244
 2546POPC   C3B34281  28.677   3.343   7.791
 2546POPC   C4B34282  28.903   3.645   7.551
 2547POPC   NC334283  34.851  42.810   9.477
 2547POPC   PO434284  35.030  42.062   9.436
 2547POPC   GL134285  34.781  42.396   9.154
 2547POPC   GL234286  34.432  42.401   9.204
 2547POPC   C1A34287  34.812  42.514   8.702
 2547POPC   D2A34288  34.848  42.282   8.295
 2547POPC   C3A34289  34.825  42.377   7.852
 2547POPC   C4A34290  34.860  42.156   7.419
 2547POPC   C1B34291  34.327  42.346   8.762
 2547POPC   C2B34292  34.300  42.520   8.337
 2547POPC   C3B34293  34.271  42.313   7.943
 2547POPC   C4B34294  34.427  42.362   7.504
 2548POPC   NC334295   0.688  43.476   9.482
 2548POPC   PO434296  44.994  43.339   9.653
 2548POPC   GL134297   0.181  43.344   9.237
 2548POPC   GL234298   0.472  43.086   9.191
 2548POPC   C1A34299   0.197  43.344   8.785
 2548POPC   D2A34300   0.331  43.094   8.410
 2548POPC   C3A34301   0.577  43.307   8.101
 2548POPC   C4A34302   0.375  43.539   7.818
 2548POPC   C1B34303   0.692  43.090   8.774
 2548POPC   C2B34304   0.815  42.924   8.356
 2548POPC   C3B34305   0.656  42.755   7.990
 2548POPC   C4B34306   0.449  42.984   7.714
 2549POPC   NC334307  20.604  16.553   9.465
 2549POPC   PO434308  20.854  17.168   9.229
 2549POPC   GL134309  20.470  16.921   9.035
 2549POPC   GL234310  20.374  16.541   9.015
 2549POPC   C1A34311  20.377  16.790   8.588
 2549POPC   D2A34312  20.611  16.566   8.293
 2549POPC   C3A34313  20.580  16.772   7.927
 2549POPC   C4A34314  20.564  16.776   7.505
 2549POPC   C1B34315  20.292  16.255   8.620
 2549POPC   C2B34316  20.297  16.195   8.141
 2549POPC   C3B34317  20.580  16.288   7.748
 2549POPC   C4B34318  20.397  16.339   7.286
 2550POPC   NC334319  19.483  10.120   9.384
 2550POPC   PO434320  19.131  10.599   9.631
 2550POPC   GL134321  19.186  10.530   9.192
 2550POPC   GL234322  19.327  10.862   9.061
 2550POPC   C1A34323  18.919  10.413   8.791
 2550POPC   D2A34324  19.025  10.545   8.370
 2550POPC   C3A34325  18.956  10.389   7.971
 2550POPC   C4A34326  18.881  10.398   7.512
 2550POPC   C1B34327  19.401  10.539   8.744
 2550POPC   C2B34328  19.446  10.227   8.437
 2550POPC   C3B34329  19.457  10.411   8.074
 2550POPC   C4B34330  19.361  10.391   7.659
 2551POPC   NC334331  21.736  11.929   9.323
 2551POPC   PO434332  22.106  12.292   9.693
 2551POPC   GL134333  22.118  12.301   9.245
 2551POPC   GL234334  21.843  12.502   9.183
 2551POPC   C1A34335  22.171  12.292   8.787
 2551POPC   D2A34336  22.116  11.979   8.443
 2551POPC   C3A34337  21.975  12.138   8.039
 2551POPC   C4A34338  22.241  12.171   7.668
 2551POPC   C1B34339  21.833  12.673   8.764
 2551POPC   C2B34340  21.981  12.553   8.347
 2551POPC   C3B34341  22.200  12.591   7.955
 2551POPC   C4B34342  22.349  12.636   7.497
 2552POPC   NC334343  38.352  38.736   9.513
 2552POPC   PO434344  38.032  38.175   9.768
 2552POPC   GL134345  38.217  38.178   9.318
 2552POPC   GL234346  38.569  38.295   9.295
 2552POPC   C1A34347  38.189  38.313   8.853
 2552POPC   D2A34348  38.026  38.267   8.413
 2552POPC   C3A34349  38.272  38.399   8.067
 2552POPC   C4A34350  38.141  38.244   7.686
 2552POPC   C1B34351  38.725  38.265   8.876
 2552POPC   C2B34352  38.593  38.474   8.493
 2552POPC   C3B34353  38.786  38.522   8.101
 2552POPC   C4B34354  38.702  38.695   7.720
 2553POPC   NC334355   3.970  33.110   9.673
 2553POPC   PO434356   3.379  32.803   9.767
 2553POPC   GL134357   3.435  33.055   9.333
 2553POPC   GL234358   3.776  33.029   9.206
 2553POPC   C1A34359   3.413  33.157   8.861
 2553POPC   D2A34360   3.501  32.945   8.442
 2553POPC   C3A34361   3.332  33.110   8.050
 2553POPC   C4A34362   3.522  33.308   7.705
 2553POPC   C1B34363   3.895  32.924   8.815
 2553POPC   C2B34364   4.043  33.058   8.419
 2553POPC   C3B34365   3.851  32.977   8.033
 2553POPC   C4B34366   3.955  32.921   7.599
 2554POPC   NC334367   5.588  29.033   9.735
 2554POPC   PO434368   6.144  28.912   9.401
 2554POPC   GL134369   5.890  29.166   9.110
 2554POPC   GL234370   5.535  29.168   9.152
 2554POPC   C1A34371   5.808  29.369   8.750
 2554POPC   D2A34372   5.895  29.156   8.355
 2554POPC   C3A34373   5.723  29.299   7.991
 2554POPC   C4A34374   5.846  29.314   7.578
 2554POPC   C1B34375   5.596  28.918   8.727
 2554POPC   C2B34376   5.804  28.653   8.412
 2554POPC   C3B34377   5.803  28.741   7.970
 2554POPC   C4B34378   5.515  28.925   7.705
 2555POPC   NC334379  29.864  15.591   9.563
 2555POPC   PO434380  30.146  15.000   9.422
 2555POPC   GL134381  30.100  15.259   9.097
 2555POPC   GL234382  29.771  15.312   9.078
 2555POPC   C1A34383  30.070  15.078   8.691
 2555POPC   D2A34384  30.128  15.098   8.259
 2555POPC   C3A34385  29.779  15.040   8.035
 2555POPC   C4A34386  29.885  14.838   7.700
 2555POPC   C1B34387  29.927  15.578   8.709
 2555POPC   C2B34388  29.873  15.533   8.245
 2555POPC   C3B34389  29.952  15.479   7.780
 2555POPC   C4B34390  29.695  15.468   7.350
 2556POPC   NC334391  34.344  14.287   9.599
 2556POPC   PO434392  33.940  13.651   9.624
 2556POPC   GL134393  34.023  13.563   9.222
 2556POPC   GL234394  34.055  13.941   9.215
 2556POPC   C1A34395  33.870  13.314   8.855
 2556POPC   D2A34396  33.560  13.252   8.511
 2556POPC   C3A34397  33.735  13.414   8.135
 2556POPC   C4A34398  33.582  13.471   7.750
 2556POPC   C1B34399  33.746  13.820   8.878
 2556POPC   C2B34400  33.608  13.755   8.495
 2556POPC   C3B34401  33.747  13.911   8.088
 2556POPC   C4B34402  33.923  13.871   7.711
 2557POPC   NC334403  28.765   0.271   9.531
 2557POPC   PO434404  28.615   0.911   9.563
 2557POPC   GL134405  28.524   0.595   9.185
 2557POPC   GL234406  28.576   0.216   9.069
 2557POPC   C1A34407  28.467   0.579   8.731
 2557POPC   D2A34408  28.281   0.765   8.381
 2557POPC   C3A34409  28.454   0.614   8.053
 2557POPC   C4A34410  28.151   0.561   7.754
 2557POPC   C1B34411  28.219   0.085   8.792
 2557POPC   C2B34412  28.138  44.905   8.400
 2557POPC   C3B34413  28.271   0.132   8.022
 2557POPC   C4B34414  28.702   0.232   7.827
 2558POPC   NC334415  36.711  44.016   9.450
 2558POPC   PO434416  36.016  43.707   9.472
 2558POPC   GL134417  35.966  43.881   9.110
 2558POPC   GL234418  35.976  44.254   9.200
 2558POPC   C1A34419  35.834  43.684   8.738
 2558POPC   D2A34420  36.083  43.840   8.423
 2558POPC   C3A34421  35.909  43.791   8.045
 2558POPC   C4A34422  36.110  43.762   7.646
 2558POPC   C1B34423  35.973  44.374   8.761
 2558POPC   C2B34424  35.985  44.379   8.310
 2558POPC   C3B34425  36.133  44.227   7.888
 2558POPC   C4B34426  36.083  44.235   7.425
 2559POPC   NC334427  22.590   4.136   9.541
 2559POPC   PO434428  23.268   4.404   9.571
 2559POPC   GL134429  23.051   4.288   9.197
 2559POPC   GL234430  22.697   4.328   9.095
 2559POPC   C1A34431  23.148   4.196   8.785
 2559POPC   D2A34432  23.055   3.973   8.433
 2559POPC   C3A34433  23.170   4.261   8.133
 2559POPC   C4A34434  22.878   4.218   7.758
 2559POPC   C1B34435  22.665   4.350   8.663
 2559POPC   C2B34436  22.666   4.276   8.244
 2559POPC   C3B34437  22.472   4.511   7.949
 2559POPC   C4B34438  22.620   4.671   7.567
 2560POPC   NC334439   4.104  24.092   9.390
 2560POPC   PO434440   4.421  24.660   9.338
 2560POPC   GL134441   4.385  24.503   8.995
 2560POPC   GL234442   4.425  24.149   9.011
 2560POPC   C1A34443   4.241  24.694   8.659
 2560POPC   D2A34444   4.105  24.839   8.317
 2560POPC   C3A34445   4.164  24.609   7.967
 2560POPC   C4A34446   4.495  24.346   7.853
 2560POPC   C1B34447   4.112  24.195   8.716
 2560POPC   C2B34448   4.259  24.278   8.334
 2560POPC   C3B34449   4.146  24.018   7.995
 2560POPC   C4B34450   3.846  24.042   7.713
 2561POPC   NC334451   5.865  38.764   9.686
 2561POPC   PO434452   5.829  39.414   9.652
 2561POPC   GL134453   5.760  39.128   9.302
 2561POPC   GL234454   6.088  39.035   9.228
 2561POPC   C1A34455   5.654  39.164   8.863
 2561POPC   D2A34456   5.413  38.969   8.542
 2561POPC   C3A34457   5.442  39.192   8.185
 2561POPC   C4A34458   5.635  39.129   7.768
 2561POPC   C1B34459   6.137  39.064   8.759
 2561POPC   C2B34460   5.946  39.076   8.326
 2561POPC   C3B34461   6.076  38.927   7.893
 2561POPC   C4B34462   5.988  38.798   7.461
 2562POPC   NC334463  24.332   1.471   9.462
 2562POPC   PO434464  24.635   0.960   9.750
 2562POPC   GL134465  24.499   1.032   9.245
 2562POPC   GL234466  24.679   1.315   9.095
 2562POPC   C1A34467  24.260   1.271   8.842
 2562POPC   D2A34468  24.402   1.496   8.470
 2562POPC   C3A34469  24.251   1.340   8.063
 2562POPC   C4A34470  23.991   1.130   7.719
 2562POPC   C1B34471  24.732   1.039   8.749
 2562POPC   C2B34472  24.802   1.139   8.332
 2562POPC   C3B34473  24.772   1.484   8.067
 2562POPC   C4B34474  24.667   1.288   7.724
 2563POPC   NC334475  11.869  10.755   9.544
 2563POPC   PO434476  12.238  10.150   9.422
 2563POPC   GL134477  12.019  10.418   9.078
 2563POPC   GL234478  12.017  10.787   9.053
 2563POPC   C1A34479  12.127  10.529   8.632
 2563POPC   D2A34480  11.880  10.563   8.253
 2563POPC   C3A34481  12.164  10.568   7.903
 2563POPC   C4A34482  12.010  10.410   7.496
 2563POPC   C1B34483  11.993  11.035   8.701
 2563POPC   C2B34484  12.138  10.998   8.297
 2563POPC   C3B34485  12.040  11.075   7.883
 2563POPC   C4B34486  12.235  10.876   7.497
 2564POPC   NC334487  44.069  31.133   9.857
 2564POPC   PO434488  44.065  30.560   9.581
 2564POPC   GL134489  44.072  30.533   9.122
 2564POPC   GL234490  43.862  30.848   9.123
 2564POPC   C1A34491  43.916  30.491   8.672
 2564POPC   D2A34492  43.781  30.910   8.453
 2564POPC   C3A34493  43.907  30.979   8.022
 2564POPC   C4A34494  44.023  30.645   7.733
 2564POPC   C1B34495  43.519  30.724   8.863
 2564POPC   C2B34496  43.439  30.530   8.442
 2564POPC   C3B34497  43.580  30.576   8.018
 2564POPC   C4B34498  43.588  30.472   7.568
 2565POPC   NC334499  34.851  38.454   9.586
 2565POPC   PO434500  35.518  38.750   9.531
 2565POPC   GL134501  35.443  38.572   9.130
 2565POPC   GL234502  35.158  38.354   9.156
 2565POPC   C1A34503  35.377  38.468   8.706
 2565POPC   D2A34504  35.107  38.285   8.443
 2565POPC   C3A34505  35.305  38.414   8.091
 2565POPC   C4A34506  35.338  38.328   7.671
 2565POPC   C1B34507  34.989  38.729   8.888
 2565POPC   C2B34508  35.097  38.818   8.427
 2565POPC   C3B34509  34.847  38.627   8.111
 2565POPC   C4B34510  34.823  38.440   7.735
 2566POPC   NC334511   1.053  44.190   9.444
 2566POPC   PO434512   1.483  43.776   9.198
 2566POPC   GL134513   1.155  43.997   8.959
 2566POPC   GL234514   0.797  43.955   9.001
 2566POPC   C1A34515   1.021  43.943   8.523
 2566POPC   D2A34516   1.418  43.936   8.302
 2566POPC   C3A34517   1.422  43.984   7.877
 2566POPC   C4A34518   1.170  44.090   7.551
 2566POPC   C1B34519   0.932  43.538   8.858
 2566POPC   C2B34520   0.970  43.411   8.449
 2566POPC   C3B34521   1.116  43.591   8.078
 2566POPC   C4B34522   1.240  43.538   7.649
 2567POPC   NC334523  32.680  32.507   9.445
 2567POPC   PO434524  33.122  32.032   9.559
 2567POPC   GL134525  32.943  32.127   9.181
 2567POPC   GL234526  32.903  31.805   9.018
 2567POPC   C1A34527  32.993  32.315   8.789
 2567POPC   D2A34528  32.799  32.390   8.401
 2567POPC   C3A34529  32.899  32.163   8.008
 2567POPC   C4A34530  32.778  32.366   7.650
 2567POPC   C1B34531  33.198  31.858   8.662
 2567POPC   C2B34532  33.266  32.154   8.348
 2567POPC   C3B34533  33.452  32.273   7.970
 2567POPC   C4B34534  33.269  32.063   7.646
 2568POPC   NC334535   7.153  16.896   9.497
 2568POPC   PO434536   7.838  16.634   9.559
 2568POPC   GL134537   7.555  16.745   9.208
 2568POPC   GL234538   7.380  16.433   9.178
 2568POPC   C1A34539   7.205  16.761   8.848
 2568POPC   D2A34540   7.154  16.455   8.481
 2568POPC   C3A34541   7.221  16.666   8.090
 2568POPC   C4A34542   7.358  16.994   7.819
 2568POPC   C1B34543   7.643  16.537   8.756
 2568POPC   C2B34544   7.681  16.821   8.386
 2568POPC   C3B34545   7.722  16.661   7.972
 2568POPC   C4B34546   7.477  16.520   7.655
 2569POPC   NC334547  24.962  22.611   9.587
 2569POPC   PO434548  24.486  23.095   9.508
 2569POPC   GL134549  24.585  22.771   9.202
 2569POPC   GL234550  24.837  22.943   9.144
 2569POPC   C1A34551  24.488  22.880   8.774
 2569POPC   D2A34552  24.264  22.824   8.408
 2569POPC   C3A34553  24.499  22.796   8.075
 2569POPC   C4A34554  24.407  23.018   7.722
 2569POPC   C1B34555  24.958  23.061   8.746
 2569POPC   C2B34556  24.955  22.857   8.381
 2569POPC   C3B34557  24.958  22.984   7.974
 2569POPC   C4B34558  24.833  22.747   7.641
 2570POPC   NC334559  26.960  24.208   9.507
 2570POPC   PO434560  27.247  24.799   9.433
 2570POPC   GL134561  27.057  24.524   9.098
 2570POPC   GL234562  26.703  24.387   9.109
 2570POPC   C1A34563  26.909  24.489   8.664
 2570POPC   D2A34564  26.727  24.728   8.338
 2570POPC   C3A34565  26.956  24.658   7.973
 2570POPC   C4A34566  26.754  24.399   7.708
 2570POPC   C1B34567  26.499  24.155   8.719
 2570POPC   C2B34568  26.439  24.114   8.240
 2570POPC   C3B34569  26.340  24.133   7.799
 2570POPC   C4B34570  26.423  24.129   7.340
 2571POPC   NC334571  14.138  44.250   9.396
 2571POPC   PO434572  14.595  43.713   9.528
 2571POPC   GL134573  14.368  43.817   9.199
 2571POPC   GL234574  14.585  44.102   9.170
 2571POPC   C1A34575  14.210  43.902   8.800
 2571POPC   D2A34576  14.361  44.140   8.457
 2571POPC   C3A34577  14.352  43.978   8.075
 2571POPC   C4A34578  14.269  43.884   7.676
 2571POPC   C1B34579  14.708  44.274   8.784
 2571POPC   C2B34580  14.788  44.390   8.328
 2571POPC   C3B34581  14.714  44.258   7.882
 2571POPC   C4B34582  14.719  44.034   7.487
 2572POPC   NC334583   4.928  38.312   9.664
 2572POPC   PO434584   5.489  38.675   9.446
 2572POPC   GL134585   5.403  38.473   9.116
 2572POPC   GL234586   5.040  38.496   9.134
 2572POPC   C1A34587   5.353  38.496   8.691
 2572POPC   D2A34588   5.174  38.258   8.395
 2572POPC   C3A34589   5.310  38.300   8.006
 2572POPC   C4A34590   5.140  38.488   7.665
 2572POPC   C1B34591   4.842  38.211   8.829
 2572POPC   C2B34592   4.670  38.229   8.413
 2572POPC   C3B34593   4.796  38.224   7.986
 2572POPC   C4B34594   4.603  37.985   7.655
 2573POPC   NC334595   3.926  37.797   9.866
 2573POPC   PO434596   4.558  37.885   9.615
 2573POPC   GL134597   4.322  37.612   9.345
 2573POPC   GL234598   4.610  37.401   9.212
 2573POPC   C1A34599   4.260  37.661   8.896
 2573POPC   D2A34600   4.607  37.757   8.610
 2573POPC   C3A34601   4.567  37.789   8.148
 2573POPC   C4A34602   4.171  37.734   7.911
 2573POPC   C1B34603   4.521  37.219   8.775
 2573POPC   C2B34604   4.401  37.046   8.387
 2573POPC   C3B34605   4.456  37.304   8.063
 2573POPC   C4B34606   4.554  37.489   7.660
 2574POPC   NC334607  31.027  30.513   9.442
 2574POPC   PO434608  30.316  30.312   9.427
 2574POPC   GL134609  30.565  30.548   9.138
 2574POPC   GL234610  30.676  30.836   9.234
 2574POPC   C1A34611  30.889  30.635   8.809
 2574POPC   D2A34612  30.739  30.500   8.428
 2574POPC   C3A34613  30.937  30.532   8.034
 2574POPC   C4A34614  31.012  30.956   7.952
 2574POPC   C1B34615  30.495  30.963   8.826
 2574POPC   C2B34616  30.300  30.912   8.432
 2574POPC   C3B34617  30.465  30.777   8.064
 2574POPC   C4B34618  30.585  30.946   7.698
 2575POPC   NC334619  37.946   6.079   9.381
 2575POPC   PO434620  38.564   5.830   9.532
 2575POPC   GL134621  38.564   5.748   9.126
 2575POPC   GL234622  38.212   5.770   9.032
 2575POPC   C1A34623  38.594   5.651   8.700
 2575POPC   D2A34624  38.697   5.932   8.392
 2575POPC   C3A34625  38.492   5.973   8.061
 2575POPC   C4A34626  38.445   5.768   7.690
 2575POPC   C1B34627  38.432   6.131   8.818
 2575POPC   C2B34628  38.360   6.338   8.438
 2575POPC   C3B34629  38.078   6.295   8.111
 2575POPC   C4B34630  38.162   6.235   7.699
 2576POPC   NC334631  33.811  20.783   9.520
 2576POPC   PO434632  34.315  20.327   9.608
 2576POPC   GL134633  34.018  20.447   9.216
 2576POPC   GL234634  33.914  20.793   9.042
 2576POPC   C1A34635  33.782  20.378   8.815
 2576POPC   D2A34636  33.828  20.259   8.400
 2576POPC   C3A34637  33.599  20.480   8.098
 2576POPC   C4A34638  33.555  20.771   7.751
 2576POPC   C1B34639  34.144  20.801   8.702
 2576POPC   C2B34640  34.011  20.722   8.336
 2576POPC   C3B34641  33.809  20.973   8.127
 2576POPC   C4B34642  33.940  21.136   7.757
 2577POPC   NC334643  25.753  13.119   9.436
 2577POPC   PO434644  26.402  12.974   9.685
 2577POPC   GL134645  26.299  12.859   9.259
 2577POPC   GL234646  26.496  12.552   9.193
 2577POPC   C1A34647  25.971  12.813   8.913
 2577POPC   D2A34648  25.768  12.929   8.540
 2577POPC   C3A34649  25.836  12.810   8.110
 2577POPC   C4A34650  25.986  13.074   7.732
 2577POPC   C1B34651  26.445  12.693   8.797
 2577POPC   C2B34652  26.293  12.884   8.424
 2577POPC   C3B34653  26.333  12.836   8.021
 2577POPC   C4B34654  26.562  12.624   7.753
 2578POPC   NC334655  16.755   9.413   9.580
 2578POPC   PO434656  16.325   9.866   9.586
 2578POPC   GL134657  16.700   9.849   9.260
 2578POPC   GL234658  16.696   9.534   9.111
 2578POPC   C1A34659  16.920   9.855   8.817
 2578POPC   D2A34660  16.902   9.645   8.409
 2578POPC   C3A34661  16.893   9.903   8.052
 2578POPC   C4A34662  16.795   9.823   7.630
 2578POPC   C1B34663  16.503   9.536   8.741
 2578POPC   C2B34664  16.326   9.223   8.488
 2578POPC   C3B34665  16.194   9.285   8.082
 2578POPC   C4B34666  16.452   9.584   7.912
 2579POPC   NC334667  10.343  17.859   9.529
 2579POPC   PO434668  10.368  17.192   9.508
 2579POPC   GL134669  10.433  17.494   9.167
 2579POPC   GL234670  10.767  17.669   9.197
 2579POPC   C1A34671  10.405  17.490   8.710
 2579POPC   D2A34672  10.232  17.236   8.340
 2579POPC   C3A34673  10.425  17.376   7.936
 2579POPC   C4A34674  10.410  17.619   7.533
 2579POPC   C1B34675  10.807  17.861   8.771
 2579POPC   C2B34676  10.712  17.781   8.319
 2579POPC   C3B34677  10.786  17.755   7.868
 2579POPC   C4B34678  10.813  17.880   7.431
 2580POPC   NC334679  31.543  17.734   9.565
 2580POPC   PO434680  31.606  17.045   9.448
 2580POPC   GL134681  31.515  17.375   9.106
 2580POPC   GL234682  31.316  17.672   9.098
 2580POPC   C1A34683  31.273  17.299   8.653
 2580POPC   D2A34684  31.225  17.234   8.208
 2580POPC   C3A34685  31.309  17.551   7.883
 2580POPC   C4A34686  31.395  17.421   7.455
 2580POPC   C1B34687  31.573  17.680   8.723
 2580POPC   C2B34688  31.598  17.581   8.328
 2580POPC   C3B34689  31.825  17.792   8.053
 2580POPC   C4B34690  31.742  17.751   7.649
 2581POPC   NC334691  22.127  12.754   9.551
 2581POPC   PO434692  22.787  13.185   9.521
 2581POPC   GL134693  22.347  13.086   9.245
 2581POPC   GL234694  22.272  12.805   9.033
 2581POPC   C1A34695  21.996  13.165   8.870
 2581POPC   D2A34696  22.151  13.001   8.508
 2581POPC   C3A34697  22.054  13.054   8.083
 2581POPC   C4A34698  21.993  12.960   7.659
 2581POPC   C1B34699  22.513  13.202   8.806
 2581POPC   C2B34700  22.768  13.088   8.507
 2581POPC   C3B34701  22.535  12.878   8.223
 2581POPC   C4B34702  22.503  12.979   7.822
 2582POPC   NC334703  15.972  27.584   9.532
 2582POPC   PO434704  15.369  27.618   9.425
 2582POPC   GL134705  15.726  27.852   9.155
 2582POPC   GL234706  15.972  27.591   9.030
 2582POPC   C1A34707  16.004  28.030   8.787
 2582POPC   D2A34708  16.144  27.783   8.431
 2582POPC   C3A34709  16.006  27.854   8.005
 2582POPC   C4A34710  15.785  27.734   7.587
 2582POPC   C1B34711  15.701  27.586   8.681
 2582POPC   C2B34712  15.804  27.446   8.265
 2582POPC   C3B34713  16.034  27.355   7.880
 2582POPC   C4B34714  15.909  27.271   7.439
 2583POPC   NC334715   0.241   1.930   9.392
 2583POPC   PO434716   0.296   2.550   9.112
 2583POPC   GL134717   0.231   2.180   8.934
 2583POPC   GL234718   0.489   1.917   8.955
 2583POPC   C1A34719   0.337   2.152   8.527
 2583POPC   D2A34720   0.625   2.334   8.274
 2583POPC   C3A34721   0.583   2.082   7.965
 2583POPC   C4A34722   0.230   2.125   7.671
 2583POPC   C1B34723   0.242   1.660   8.685
 2583POPC   C2B34724   0.249   1.733   8.246
 2583POPC   C3B34725   0.343   1.657   7.839
 2583POPC   C4B34726   0.584   1.810   7.495
 2584POPC   NC334727  29.317  24.326   9.489
 2584POPC   PO434728  29.079  25.005   9.586
 2584POPC   GL134729  29.185  24.704   9.167
 2584POPC   GL234730  29.542  24.634   9.073
 2584POPC   C1A34731  29.214  24.310   8.824
 2584POPC   D2A34732  29.465  24.310   8.406
 2584POPC   C3A34733  29.358  24.506   7.996
 2584POPC   C4A34734  29.350  24.337   7.569
 2584POPC   C1B34735  29.320  24.777   8.655
 2584POPC   C2B34736  29.140  24.914   8.232
 2584POPC   C3B34737  29.108  24.923   7.777
 2584POPC   C4B34738  29.415  24.843   7.460
 2585POPC   NC334739  28.394  41.146   9.729
 2585POPC   PO434740  28.216  41.774   9.710
 2585POPC   GL134741  28.107  41.722   9.284
 2585POPC   GL234742  27.990  41.358   9.372
 2585POPC   C1A34743  28.336  41.793   8.874
 2585POPC   D2A34744  28.561  41.761   8.448
 2585POPC   C3A34745  28.392  41.745   8.020
 2585POPC   C4A34746  28.648  41.453   7.766
 2585POPC   C1B34747  28.288  41.244   9.058
 2585POPC   C2B34748  28.308  41.326   8.620
 2585POPC   C3B34749  28.082  41.282   8.244
 2585POPC   C4B34750  28.166  41.338   7.815
 2586POPC   NC334751  22.298  28.673   9.571
 2586POPC   PO434752  22.027  28.032   9.539
 2586POPC   GL134753  22.019  28.365   9.221
 2586POPC   GL234754  22.341  28.498   9.111
 2586POPC   C1A34755  22.000  28.341   8.774
 2586POPC   D2A34756  21.759  28.163   8.465
 2586POPC   C3A34757  22.018  28.219   8.130
 2586POPC   C4A34758  22.057  28.162   7.686
 2586POPC   C1B34759  22.313  28.747   8.727
 2586POPC   C2B34760  22.217  28.679   8.299
 2586POPC   C3B34761  22.289  28.584   7.869
 2586POPC   C4B34762  22.383  28.509   7.427
 2587POPC   NC334763  11.409  14.907   9.595
 2587POPC   PO434764  11.010  15.448   9.525
 2587POPC   GL134765  11.279  15.259   9.239
 2587POPC   GL234766  10.987  15.212   9.074
 2587POPC   C1A34767  11.406  15.148   8.796
 2587POPC   D2A34768  11.269  15.022   8.348
 2587POPC   C3A34769  11.526  15.105   7.973
 2587POPC   C4A34770  11.840  15.404   7.820
 2587POPC   C1B34771  10.968  15.464   8.754
 2587POPC   C2B34772  10.897  15.386   8.337
 2587POPC   C3B34773  11.170  15.475   8.023
 2587POPC   C4B34774  11.068  15.200   7.749
 2588POPC   NC334775  21.537  19.962   9.733
 2588POPC   PO434776  21.027  19.810   9.391
 2588POPC   GL134777  21.436  19.838   9.197
 2588POPC   GL234778  21.303  20.093   9.038
 2588POPC   C1A34779  21.424  19.648   8.775
 2588POPC   D2A34780  21.206  19.872   8.454
 2588POPC   C3A34781  21.364  19.794   8.073
 2588POPC   C4A34782  21.161  19.510   7.811
 2588POPC   C1B34783  21.617  20.112   8.716
 2588POPC   C2B34784  21.456  20.308   8.357
 2588POPC   C3B34785  21.159  20.252   8.026
 2588POPC   C4B34786  21.391  20.261   7.660
 2589POPC   NC334787   1.594  39.387   9.535
 2589POPC   PO434788   0.997  39.018   9.550
 2589POPC   GL134789   0.955  39.120   9.096
 2589POPC   GL234790   1.197  39.383   9.142
 2589POPC   C1A34791   0.805  39.426   8.774
 2589POPC   D2A34792   0.922  39.654   8.391
 2589POPC   C3A34793   0.871  39.433   8.015
 2589POPC   C4A34794   0.935  38.981   7.858
 2589POPC   C1B34795   1.307  39.304   8.704
 2589POPC   C2B34796   1.230  39.119   8.286
 2589POPC   C3B34797   1.350  39.283   7.880
 2589POPC   C4B34798   1.746  39.411   7.726
 2590POPC   NC334799  31.441  39.763   9.365
 2590POPC   PO434800  31.087  40.279   9.506
 2590POPC   GL134801  31.408  40.368   9.157
 2590POPC   GL234802  31.729  40.139   9.137
 2590POPC   C1A34803  31.499  40.349   8.691
 2590POPC   D2A34804  31.619  40.113   8.297
 2590POPC   C3A34805  31.330  40.007   7.957
 2590POPC   C4A34806  31.418  40.003   7.541
 2590POPC   C1B34807  31.792  39.865   8.770
 2590POPC   C2B34808  31.891  39.698   8.360
 2590POPC   C3B34809  31.715  39.691   7.901
 2590POPC   C4B34810  31.313  39.545   7.731
 2591POPC   NC334811   9.700  27.184   9.782
 2591POPC   PO434812   9.610  27.847   9.658
 2591POPC   GL134813   9.756  27.710   9.251
 2591POPC   GL234814   9.768  27.358   9.234
 2591POPC   C1A34815   9.766  27.761   8.795
 2591POPC   D2A34816   9.788  27.596   8.360
 2591POPC   C3A34817   9.816  27.851   7.968
 2591POPC   C4A34818   9.746  28.006   7.515
 2591POPC   C1B34819   9.659  27.268   8.788
 2591POPC   C2B34820   9.789  27.088   8.380
 2591POPC   C3B34821   9.668  27.262   7.971
 2591POPC   C4B34822   9.901  27.457   7.653
 2592POPC   NC334823  44.402   8.329   9.593
 2592POPC   PO434824   0.074   8.395   9.773
 2592POPC   GL134825  44.922   8.355   9.300
 2592POPC   GL234826  44.737   8.049   9.277
 2592POPC   C1A34827  44.934   8.171   8.848
 2592POPC   D2A34828  44.996   7.964   8.438
 2592POPC   C3A34829  44.862   8.150   8.017
 2592POPC   C4A34830  44.876   8.086   7.537
 2592POPC   C1B34831  44.443   8.231   8.940
 2592POPC   C2B34832  44.568   8.291   8.484
 2592POPC   C3B34833  44.351   8.213   8.109
 2592POPC   C4B34834  44.414   8.261   7.689
 2593POPC   NC334835   1.133  12.605   9.520
 2593POPC   PO434836   0.948  13.312   9.393
 2593POPC   GL134837   1.116  12.955   9.131
 2593POPC   GL234838   0.945  12.621   9.046
 2593POPC   C1A34839   1.464  12.766   8.916
 2593POPC   D2A34840   1.563  12.822   8.464
 2593POPC   C3A34841   1.312  12.787   8.073
 2593POPC   C4A34842   1.516  12.643   7.644
 2593POPC   C1B34843   1.068  12.731   8.620
 2593POPC   C2B34844   0.952  13.056   8.388
 2593POPC   C3B34845   0.854  13.107   7.976
 2593POPC   C4B34846   1.143  12.987   7.624
 2594POPC   NC334847  43.258  38.239   9.559
 2594POPC   PO434848  42.997  38.872   9.639
 2594POPC   GL134849  43.005  38.716   9.209
 2594POPC   GL234850  43.078  38.369   9.105
 2594POPC   C1A34851  42.929  38.843   8.783
 2594POPC   D2A34852  42.779  38.876   8.342
 2594POPC   C3A34853  43.126  38.739   8.008
 2594POPC   C4A34854  43.199  38.382   7.724
 2594POPC   C1B34855  43.272  38.233   8.724
 2594POPC   C2B34856  43.291  38.288   8.258
 2594POPC   C3B34857  43.477  38.010   7.950
 2594POPC   C4B34858  43.602  38.102   7.542
 2595POPC   NC334859  24.790  33.653   9.383
 2595POPC   PO434860  24.132  33.729   9.460
 2595POPC   GL134861  24.378  33.938   9.150
 2595POPC   GL234862  24.740  34.026   9.084
 2595POPC   C1A34863  24.397  34.048   8.728
 2595POPC   D2A34864  24.555  33.916   8.339
 2595POPC   C3A34865  24.347  33.747   7.993
 2595POPC   C4A34866  24.174  33.842   7.579
 2595POPC   C1B34867  24.777  33.678   8.738
 2595POPC   C2B34868  24.830  33.430   8.351
 2595POPC   C3B34869  24.896  33.694   8.002
 2595POPC   C4B34870  24.669  33.665   7.625
 2596POPC   NC334871   8.594  14.231   9.604
 2596POPC   PO434872   8.057  14.677   9.774
 2596POPC   GL134873   8.049  14.520   9.302
 2596POPC   GL234874   8.052  14.171   9.147
 2596POPC   C1A34875   7.986  14.584   8.827
 2596POPC   D2A34876   8.218  14.622   8.410
 2596POPC   C3A34877   8.032  14.690   7.993
 2596POPC   C4A34878   8.041  14.554   7.532
 2596POPC   C1B34879   8.200  14.142   8.676
 2596POPC   C2B34880   7.923  14.159   8.327
 2596POPC   C3B34881   7.963  14.177   7.889
 2596POPC   C4B34882   8.375  14.105   7.762
 2597POPC   NC334883  16.415  33.686   9.537
 2597POPC   PO434884  17.092  33.750   9.401
 2597POPC   GL134885  16.756  33.612   9.163
 2597POPC   GL234886  16.549  33.899   9.096
 2597POPC   C1A34887  16.522  33.441   8.819
 2597POPC   D2A34888  16.581  33.703   8.467
 2597POPC   C3A34889  16.778  33.667   8.080
 2597POPC   C4A34890  16.786  33.657   7.642
 2597POPC   C1B34891  16.240  33.881   8.815
 2597POPC   C2B34892  16.192  34.042   8.421
 2597POPC   C3B34893  16.277  33.867   8.067
 2597POPC   C4B34894  16.308  33.876   7.637
 2598POPC   NC334895  38.320  35.642   9.409
 2598POPC   PO434896  38.565  34.966   9.505
 2598POPC   GL134897  38.537  35.209   9.159
 2598POPC   GL234898  38.739  35.498   9.134
 2598POPC   C1A34899  38.474  35.295   8.733
 2598POPC   D2A34900  38.272  35.641   8.506
 2598POPC   C3A34901  38.266  35.568   8.076
 2598POPC   C4A34902  38.345  35.209   7.835
 2598POPC   C1B34903  38.708  35.743   8.742
 2598POPC   C2B34904  38.777  35.708   8.275
 2598POPC   C3B34905  38.726  35.624   7.809
 2598POPC   C4B34906  38.912  35.740   7.381
 2599POPC   NC334907  17.368   0.641   9.689
 2599POPC   PO434908  17.698   0.095   9.573
 2599POPC   GL134909  17.384   0.244   9.282
 2599POPC   GL234910  17.367   0.616   9.187
 2599POPC   C1A34911  17.327   0.207   8.828
 2599POPC   D2A34912  17.386  44.984   8.409
 2599POPC   C3A34913  17.495   0.250   8.066
 2599POPC   C4A34914  17.198   0.407   7.791
 2599POPC   C1B34915  17.738   0.589   8.919
 2599POPC   C2B34916  17.611   0.507   8.505
 2599POPC   C3B34917  17.441   0.743   8.160
 2599POPC   C4B34918  17.685   0.661   7.779
 2600POPC   NC334919   0.007  22.283   9.785
 2600POPC   PO434920  44.453  21.942   9.694
 2600POPC   GL134921  44.600  21.963   9.301
 2600POPC   GL234922  44.402  21.686   9.202
 2600POPC   C1A34923  44.629  22.308   8.979
 2600POPC   D2A34924  44.818  22.415   8.566
 2600POPC   C3A34925  44.672  22.172   8.206
 2600POPC   C4A34926  44.537  22.252   7.786
 2600POPC   C1B34927  44.342  21.904   8.830
 2600POPC   C2B34928  44.149  21.891   8.454
 2600POPC   C3B34929  44.257  21.907   8.046
 2600POPC   C4B34930  44.504  21.757   7.741
 2601POPC   NC334931  42.130  19.828   9.431
 2601POPC   PO434932  41.484  19.976   9.603
 2601POPC   GL134933  41.672  19.978   9.195
 2601POPC   GL234934  41.345  19.886   9.067
 2601POPC   C1A34935  41.832  19.987   8.756
 2601POPC   D2A34936  41.673  20.087   8.335
 2601POPC   C3A34937  41.889  19.982   7.932
 2601POPC   C4A34938  41.772  19.911   7.469
 2601POPC   C1B34939  41.360  19.795   8.629
 2601POPC   C2B34940  41.300  19.647   8.216
 2601POPC   C3B34941  41.402  19.852   7.831
 2601POPC   C4B34942  41.247  19.843   7.403
 2602POPC   NC334943   5.245  27.170   9.424
 2602POPC   PO434944   4.909  26.585   9.591
 2602POPC   GL134945   4.869  26.822   9.137
 2602POPC   GL234946   5.083  27.083   8.966
 2602POPC   C1A34947   4.979  26.692   8.690
 2602POPC   D2A34948   4.803  26.617   8.309
 2602POPC   C3A34949   5.051  26.721   7.986
 2602POPC   C4A34950   4.931  26.940   7.642
 2602POPC   C1B34951   5.391  27.147   8.699
 2602POPC   C2B34952   5.353  26.906   8.337
 2602POPC   C3B34953   5.351  27.117   7.932
 2602POPC   C4B34954   5.449  27.004   7.522
 2603POPC   NC334955  34.659  29.375   9.546
 2603POPC   PO434956  34.951  28.689   9.423
 2603POPC   GL134957  34.796  28.998   9.158
 2603POPC   GL234958  34.438  29.091   9.175
 2603POPC   C1A34959  34.718  28.979   8.716
 2603POPC   D2A34960  34.850  28.916   8.276
 2603POPC   C3A34961  34.778  29.205   7.931
 2603POPC   C4A34962  34.795  28.954   7.574
 2603POPC   C1B34963  34.273  29.278   8.804
 2603POPC   C2B34964  34.395  29.210   8.385
 2603POPC   C3B34965  34.294  29.358   8.021
 2603POPC   C4B34966  34.268  29.221   7.640
 2604POPC   NC334967   2.726  37.138   9.599
 2604POPC   PO434968   2.805  37.769   9.432
 2604POPC   GL134969   2.738  37.491   9.111
 2604POPC   GL234970   2.409  37.300   9.052
 2604POPC   C1A34971   2.952  37.650   8.741
 2604POPC   D2A34972   3.065  38.042   8.498
 2604POPC   C3A34973   3.207  37.900   8.095
 2604POPC   C4A34974   2.952  37.582   7.889
 2604POPC   C1B34975   2.413  37.571   8.713
 2604POPC   C2B34976   2.646  37.659   8.334
 2604POPC   C3B34977   2.508  37.836   7.963
 2604POPC   C4B34978   2.232  37.696   7.693
 2605POPC   NC334979  28.084  43.402   9.524
 2605POPC   PO434980  28.266  42.721   9.613
 2605POPC   GL134981  28.331  42.841   9.173
 2605POPC   GL234982  28.401  43.154   9.202
 2605POPC   C1A34983  28.302  42.742   8.741
 2605POPC   D2A34984  28.110  42.973   8.416
 2605POPC   C3A34985  28.349  43.042   8.064
 2605POPC   C4A34986  28.156  43.090   7.697
 2605POPC   C1B34987  28.354  43.384   8.831
 2605POPC   C2B34988  28.558  43.354   8.438
 2605POPC   C3B34989  28.575  43.517   8.023
 2605POPC   C4B34990  28.956  43.539   7.835
 2606POPC   NC334991  13.527   0.035   9.296
 2606POPC   PO434992  13.439  44.463   9.440
 2606POPC   GL134993  13.742  44.557   9.120
 2606POPC   GL234994  13.987  44.768   9.248
 2606POPC   C1A34995  13.675  44.739   8.720
 2606POPC   D2A34996  13.371  44.934   8.466
 2606POPC   C3A34997  13.379  44.726   8.085
 2606POPC   C4A34998  13.686  44.559   7.818
 2606POPC   C1B34999  14.085   0.009   8.872
 2606POPC   C2B35000  13.855   0.130   8.472
 2606POPC   C3B35001  13.842  44.990   8.064
 2606POPC   C4B35002  13.542   0.064   7.738
 2607POPC   NC335003  43.881  29.209   9.564
 2607POPC   PO435004  43.408  28.843   9.151
 2607POPC   GL135005  43.741  29.125   9.077
 2607POPC   GL235006  44.074  29.028   9.139
 2607POPC   C1A35007  43.900  29.301   8.712
 2607POPC   D2A35008  43.702  29.223   8.335
 2607POPC   C3A35009  43.872  29.347   7.967
 2607POPC   C4A35010  43.643  29.434   7.574
 2607POPC   C1B35011  44.296  28.947   8.778
 2607POPC   C2B35012  44.200  29.022   8.357
 2607POPC   C3B35013  44.189  28.951   7.918
 2607POPC   C4B35014  43.804  28.927   7.666
 2608POPC   NC335015   1.072  14.628   9.545
 2608POPC   PO435016   1.724  14.340   9.538
 2608POPC   GL135017   1.370  14.235   9.266
 2608POPC   GL235018   1.005  14.203   9.222
 2608POPC   C1A35019   1.278  14.442   8.872
 2608POPC   D2A35020   1.310  14.264   8.488
 2608POPC   C3A35021   1.165  14.494   8.141
 2608POPC   C4A35022   1.447  14.638   7.836
 2608POPC   C1B35023   0.796  14.226   8.811
 2608POPC   C2B35024   0.850  14.069   8.383
 2608POPC   C3B35025   0.802  14.150   7.945
 2608POPC   C4B35026   1.092  14.293   7.667
 2609POPC   NC335027  42.061  44.744   9.394
 2609POPC   PO435028  42.559  44.331   9.645
 2609POPC   GL135029  42.549  44.551   9.225
 2609POPC   GL235030  42.513  44.943   9.209
 2609POPC   C1A35031  42.506  44.577   8.757
 2609POPC   D2A35032  42.525  44.814   8.335
 2609POPC   C3A35033  42.420  44.637   7.911
 2609POPC   C4A35034  42.406  44.631   7.437
 2609POPC   C1B35035  42.395   0.067   8.781
 2609POPC   C2B35036  42.092   0.097   8.430
 2609POPC   C3B35037  42.112   0.245   7.998
 2609POPC   C4B35038  42.310   0.108   7.619
 2610POPC   NC335039   4.752   3.504   9.408
 2610POPC   PO435040   5.068   3.249   9.945
 2610POPC   GL135041   5.227   3.190   9.420
 2610POPC   GL235042   5.602   3.264   9.360
 2610POPC   C1A35043   5.301   3.453   8.973
 2610POPC   D2A35044   5.384   3.545   8.484
 2610POPC   C3A35045   5.066   3.699   8.157
 2610POPC   C4A35046   4.963   3.835   7.705
 2610POPC   C1B35047   5.745   3.218   8.927
 2610POPC   C2B35048   5.783   3.202   8.466
 2610POPC   C3B35049   5.552   3.224   8.079
 2610POPC   C4B35050   5.284   3.425   7.794
 2611POPC   NC335051  39.030  30.233   9.537
 2611POPC   PO435052  39.153  29.608   9.274
 2611POPC   GL135053  39.083  29.954   9.046
 2611POPC   GL235054  39.316  30.244   9.122
 2611POPC   C1A35055  39.035  29.815   8.619
 2611POPC   D2A35056  39.216  29.721   8.228
 2611POPC   C3A35057  38.945  29.828   7.921
 2611POPC   C4A35058  38.993  29.947   7.479
 2611POPC   C1B35059  39.478  30.074   8.735
 2611POPC   C2B35060  39.480  30.170   8.314
 2611POPC   C3B35061  39.378  30.120   7.893
 2611POPC   C4B35062  39.649  30.151   7.520
 2612POPC   NC335063  42.794  29.326   9.473
 2612POPC   PO435064  43.338  29.059   9.640
 2612POPC   GL135065  43.253  29.317   9.217
 2612POPC   GL235066  42.947  29.208   9.010
 2612POPC   C1A35067  43.379  29.319   8.748
 2612POPC   D2A35068  43.180  29.207   8.373
 2612POPC   C3A35069  43.306  29.328   7.968
 2612POPC   C4A35070  42.908  29.304   7.815
 2612POPC   C1B35071  42.957  28.854   8.697
 2612POPC   C2B35072  43.316  28.711   8.448
 2612POPC   C3B35073  43.293  28.822   8.023
 2612POPC   C4B35074  42.925  28.794   7.763
 2613POPC   NC335075  43.012  12.325   9.508
 2613POPC   PO435076  43.439  11.838   9.655
 2613POPC   GL135077  43.154  11.857   9.276
 2613POPC   GL235078  42.797  11.946   9.225
 2613POPC   C1A35079  43.169  11.724   8.825
 2613POPC   D2A35080  43.083  11.883   8.407
 2613POPC   C3A35081  43.002  11.706   8.003
 2613POPC   C4A35082  43.262  11.957   7.708
 2613POPC   C1B35083  42.719  12.009   8.785
 2613POPC   C2B35084  42.633  12.171   8.361
 2613POPC   C3B35085  42.819  12.185   7.932
 2613POPC   C4B35086  42.815  12.043   7.484
 2614POPC   NC335087  12.559  37.900   9.668
 2614POPC   PO435088  11.807  37.783   9.562
 2614POPC   GL135089  11.953  37.698   9.154
 2614POPC   GL235090  12.293  37.726   9.096
 2614POPC   C1A35091  12.008  37.970   8.754
 2614POPC   D2A35092  12.172  37.877   8.339
 2614POPC   C3A35093  12.063  37.623   7.997
 2614POPC   C4A35094  12.229  37.722   7.600
 2614POPC   C1B35095  12.162  37.503   8.701
 2614POPC   C2B35096  12.179  37.241   8.317
 2614POPC   C3B35097  12.363  37.222   7.930
 2614POPC   C4B35098  12.149  37.237   7.574
 2615POPC   NC335099  35.070  24.024   9.510
 2615POPC   PO435100  35.557  23.487   9.427
 2615POPC   GL135101  35.235  23.644   9.197
 2615POPC   GL235102  35.424  23.920   9.130
 2615POPC   C1A35103  35.186  23.671   8.758
 2615POPC   D2A35104  35.092  23.502   8.370
 2615POPC   C3A35105  35.201  23.717   8.008
 2615POPC   C4A35106  35.463  23.515   7.713
 2615POPC   C1B35107  35.693  23.861   8.791
 2615POPC   C2B35108  35.530  23.874   8.397
 2615POPC   C3B35109  35.683  23.902   7.995
 2615POPC   C4B35110  35.515  24.011   7.610
 2616POPC   NC335111  35.873  24.611   9.404
 2616POPC   PO435112  36.517  24.262   9.471
 2616POPC   GL135113  36.281  24.408   9.122
 2616POPC   GL235114  35.956  24.213   9.103
 2616POPC   C1A35115  36.236  24.602   8.725
 2616POPC   D2A35116  35.982  24.745   8.381
 2616POPC   C3A35117  36.200  24.590   8.012
 2616POPC   C4A35118  36.211  24.717   7.583
 2616POPC   C1B35119  35.782  24.361   8.728
 2616POPC   C2B35120  35.884  24.255   8.308
 2616POPC   C3B35121  35.736  24.413   7.894
 2616POPC   C4B35122  35.763  24.432   7.443
 2617POPC   NC335123  42.893  13.114   9.557
 2617POPC   PO435124  43.405  12.622   9.521
 2617POPC   GL135125  43.181  12.860   9.182
 2617POPC   GL235126  42.868  12.693   9.108
 2617POPC   C1A35127  43.217  13.067   8.750
 2617POPC   D2A35128  43.152  12.941   8.314
 2617POPC   C3A35129  43.432  12.843   7.977
 2617POPC   C4A35130  43.196  12.515   7.752
 2617POPC   C1B35131  42.710  13.034   8.849
 2617POPC   C2B35132  42.762  13.236   8.423
 2617POPC   C3B35133  42.789  13.084   7.970
 2617POPC   C4B35134  42.716  13.220   7.518
 2618POPC   NC335135   7.498  27.937   9.531
 2618POPC   PO435136   7.100  27.383   9.598
 2618POPC   GL135137   7.213  27.452   9.179
 2618POPC   GL235138   7.565  27.580   9.166
 2618POPC   C1A35139   7.287  27.600   8.762
 2618POPC   D2A35140   7.546  27.578   8.411
 2618POPC   C3A35141   7.235  27.619   8.101
 2618POPC   C4A35142   7.071  27.506   7.691
 2618POPC   C1B35143   7.622  27.956   8.843
 2618POPC   C2B35144   7.750  28.091   8.407
 2618POPC   C3B35145   7.759  27.856   8.027
 2618POPC   C4B35146   7.437  27.844   7.715
 2619POPC   NC335147   5.653  12.077   9.556
 2619POPC   PO435148   6.304  12.294   9.575
 2619POPC   GL135149   6.159  12.037   9.188
 2619POPC   GL235150   5.925  12.258   9.106
 2619POPC   C1A35151   5.880  11.880   8.786
 2619POPC   D2A35152   5.712  11.906   8.343
 2619POPC   C3A35153   6.033  11.865   8.015
 2619POPC   C4A35154   6.203  12.172   7.732
 2619POPC   C1B35155   5.946  12.429   8.685
 2619POPC   C2B35156   5.900  12.520   8.238
 2619POPC   C3B35157   5.724  12.287   7.884
 2619POPC   C4B35158   5.697  11.890   7.645
 2620POPC   NC335159  21.314  24.949   9.499
 2620POPC   PO435160  21.585  25.546   9.772
 2620POPC   GL135161  21.480  25.496   9.299
 2620POPC   GL235162  21.247  25.228   9.088
 2620POPC   C1A35163  21.657  25.403   8.883
 2620POPC   D2A35164  21.373  25.241   8.574
 2620POPC   C3A35165  21.417  25.295   8.122
 2620POPC   C4A35166  21.424  25.398   7.681
 2620POPC   C1B35167  20.972  24.985   8.769
 2620POPC   C2B35168  20.951  24.802   8.348
 2620POPC   C3B35169  21.026  24.995   7.925
 2620POPC   C4B35170  21.173  24.971   7.488
 2621POPC   NC335171  15.381   5.973   9.499
 2621POPC   PO435172  14.787   5.466   9.473
 2621POPC   GL135173  14.972   5.789   9.188
 2621POPC   GL235174  14.751   6.088   9.139
 2621POPC   C1A35175  15.299   5.758   8.844
 2621POPC   D2A35176  15.556   5.745   8.476
 2621POPC   C3A35177  15.325   5.725   8.108
 2621POPC   C4A35178  15.001   5.659   7.757
 2621POPC   C1B35179  14.995   6.169   8.828
 2621POPC   C2B35180  14.917   5.936   8.494
 2621POPC   C3B35181  14.959   6.065   8.118
 2621POPC   C4B35182  15.238   6.103   7.785
 2622POPC   NC335183   1.673  35.266   9.565
 2622POPC   PO435184   2.251  35.479   9.557
 2622POPC   GL135185   1.996  35.360   9.184
 2622POPC   GL235186   1.887  35.648   9.119
 2622POPC   C1A35187   1.791  35.205   8.780
 2622POPC   D2A35188   1.972  35.211   8.346
 2622POPC   C3A35189   1.748  35.282   7.971
 2622POPC   C4A35190   1.742  35.511   7.591
 2622POPC   C1B35191   2.082  35.638   8.739
 2622POPC   C2B35192   1.891  35.716   8.379
 2622POPC   C3B35193   2.065  35.678   8.010
 2622POPC   C4B35194   2.203  35.698   7.634
 2623POPC   NC335195  12.779   8.480   9.541
 2623POPC   PO435196  13.174   7.868   9.534
 2623POPC   GL135197  13.100   8.020   9.089
 2623POPC   GL235198  12.826   8.290   9.043
 2623POPC   C1A35199  12.932   7.980   8.655
 2623POPC   D2A35200  12.586   7.973   8.382
 2623POPC   C3A35201  12.818   8.009   8.019
 2623POPC   C4A35202  12.900   8.178   7.629
 2623POPC   C1B35203  13.195   8.402   8.717
 2623POPC   C2B35204  13.195   8.297   8.285
 2623POPC   C3B35205  12.977   8.537   7.981
 2623POPC   C4B35206  13.069   8.635   7.494
 2624POPC   NC335207  14.802  39.058   9.650
 2624POPC   PO435208  14.189  39.334   9.519
 2624POPC   GL135209  14.406  39.114   9.206
 2624POPC   GL235210  14.716  39.342   9.194
 2624POPC   C1A35211  14.220  38.914   8.819
 2624POPC   D2A35212  14.147  39.117   8.437
 2624POPC   C3A35213  14.394  39.133   8.091
 2624POPC   C4A35214  14.314  39.315   7.703
 2624POPC   C1B35215  14.629  39.235   8.759
 2624POPC   C2B35216  14.612  39.459   8.380
 2624POPC   C3B35217  14.759  39.444   7.906
 2624POPC   C4B35218  14.753  39.422   7.404
 2625POPC   NC335219  26.680  21.530   9.621
 2625POPC   PO435220  26.047  21.274   9.491
 2625POPC   GL135221  26.140  21.457   9.124
 2625POPC   GL235222  26.472  21.406   9.152
 2625POPC   C1A35223  25.876  21.597   8.770
 2625POPC   D2A35224  25.951  21.680   8.359
 2625POPC   C3A35225  25.657  21.513   8.090
 2625POPC   C4A35226  25.904  21.427   7.726
 2625POPC   C1B35227  26.568  21.176   8.792
 2625POPC   C2B35228  26.414  21.241   8.378
 2625POPC   C3B35229  26.409  21.250   7.939
 2625POPC   C4B35230  26.479  20.836   7.817
 2626POPC   NC335231   1.146   1.716   9.409
 2626POPC   PO435232   1.284   1.138   9.486
 2626POPC   GL135233   1.198   1.036   9.061
 2626POPC   GL235234   1.078   1.377   9.008
 2626POPC   C1A35235   1.216   0.894   8.620
 2626POPC   D2A35236   1.434   0.822   8.212
 2626POPC   C3A35237   1.180   0.942   7.821
 2626POPC   C4A35238   1.210   1.286   7.508
 2626POPC   C1B35239   0.825   1.269   8.628
 2626POPC   C2B35240   0.993   1.158   8.243
 2626POPC   C3B35241   1.210   1.436   7.991
 2626POPC   C4B35242   1.048   1.752   7.699
 2627POPC   NC335243  12.469  30.834   9.552
 2627POPC   PO435244  13.138  30.639   9.551
 2627POPC   GL135245  12.846  30.613   9.212
 2627POPC   GL235246  12.772  30.949   9.160
 2627POPC   C1A35247  12.676  30.585   8.800
 2627POPC   D2A35248  12.845  30.654   8.405
 2627POPC   C3A35249  12.758  30.453   8.027
 2627POPC   C4A35250  13.054  30.541   7.708
 2627POPC   C1B35251  13.031  30.962   8.781
 2627POPC   C2B35252  13.158  31.057   8.356
 2627POPC   C3B35253  12.911  30.957   7.977
 2627POPC   C4B35254  12.819  30.988   7.507
 2628POPC   NC335255   4.997   4.471   9.448
 2628POPC   PO435256   5.054   3.846   9.489
 2628POPC   GL135257   5.220   4.119   9.125
 2628POPC   GL235258   5.451   4.415   9.104
 2628POPC   C1A35259   5.264   4.170   8.675
 2628POPC   D2A35260   5.478   4.069   8.300
 2628POPC   C3A35261   5.225   4.200   7.960
 2628POPC   C4A35262   5.072   4.572   7.764
 2628POPC   C1B35263   5.298   4.698   8.730
 2628POPC   C2B35264   5.246   4.679   8.243
 2628POPC   C3B35265   5.352   4.973   7.869
 2628POPC   C4B35266   5.131   4.994   7.445
 2629POPC   NC335267  42.107  21.657   9.991
 2629POPC   PO435268  42.429  21.137   9.691
 2629POPC   GL135269  42.542  21.407   9.287
 2629POPC   GL235270  42.249  21.509   9.062
 2629POPC   C1A35271  42.692  21.452   8.837
 2629POPC   D2A35272  42.444  21.530   8.482
 2629POPC   C3A35273  42.475  21.313   8.077
 2629POPC   C4A35274  42.441  21.253   7.617
 2629POPC   C1B35275  41.999  21.469   8.710
 2629POPC   C2B35276  41.974  21.640   8.268
 2629POPC   C3B35277  42.010  21.480   7.840
 2629POPC   C4B35278  41.829  21.395   7.409
 2630POPC   NC335279  31.098  28.021   9.629
 2630POPC   PO435280  31.655  27.555   9.534
 2630POPC   GL135281  31.455  27.561   9.176
 2630POPC   GL235282  31.338  27.888   9.166
 2630POPC   C1A35283  31.615  27.678   8.780
 2630POPC   D2A35284  31.558  27.557   8.387
 2630POPC   C3A35285  31.536  27.804   8.050
 2630POPC   C4A35286  31.238  27.507   7.842
 2630POPC   C1B35287  31.185  27.950   8.738
 2630POPC   C2B35288  31.093  27.839   8.267
 2630POPC   C3B35289  31.084  27.979   7.815
 2630POPC   C4B35290  31.207  27.945   7.358
 2631POPC   NC335291  41.245   4.160   9.451
 2631POPC   PO435292  41.836   4.408   9.466
 2631POPC   GL135293  41.595   4.312   9.083
 2631POPC   GL235294  41.336   4.033   8.974
 2631POPC   C1A35295  41.442   4.443   8.683
 2631POPC   D2A35296  41.643   4.391   8.286
 2631POPC   C3A35297  41.468   4.621   7.947
 2631POPC   C4A35298  41.474   4.575   7.500
 2631POPC   C1B35299  41.726   3.869   8.816
 2631POPC   C2B35300  41.906   3.909   8.422
 2631POPC   C3B35301  41.700   3.933   8.034
 2631POPC   C4B35302  41.350   4.137   7.806
 2632POPC   NC335303  18.153  38.922   9.423
 2632POPC   PO435304  18.298  39.560   9.394
 2632POPC   GL135305  18.479  39.235   9.102
 2632POPC   GL235306  18.517  38.845   9.051
 2632POPC   C1A35307  18.517  39.202   8.665
 2632POPC   D2A35308  18.446  38.949   8.300
 2632POPC   C3A35309  18.450  39.122   7.875
 2632POPC   C4A35310  18.493  38.935   7.460
 2632POPC   C1B35311  18.142  38.811   8.766
 2632POPC   C2B35312  17.926  38.944   8.380
 2632POPC   C3B35313  17.922  39.055   7.936
 2632POPC   C4B35314  17.631  39.087   7.576
 2633POPC   NC335315  42.629  34.976   9.555
 2633POPC   PO435316  42.296  35.607   9.512
 2633POPC   GL135317  42.280  35.466   9.139
 2633POPC   GL235318  42.314  35.117   9.130
 2633POPC   C1A35319  42.074  35.450   8.761
 2633POPC   D2A35320  42.164  35.622   8.397
 2633POPC   C3A35321  42.178  35.370   8.085
 2633POPC   C4A35322  42.269  35.560   7.731
 2633POPC   C1B35323  42.568  35.300   8.771
 2633POPC   C2B35324  42.609  35.352   8.374
 2633POPC   C3B35325  42.674  35.269   7.947
 2633POPC   C4B35326  42.302  35.058   7.707
 2634POPC   NC335327  20.765  24.633   9.502
 2634POPC   PO435328  20.126  24.395   9.461
 2634POPC   GL135329  20.479  24.394   9.107
 2634POPC   GL235330  20.841  24.551   9.023
 2634POPC   C1A35331  20.491  24.498   8.655
 2634POPC   D2A35332  20.424  24.833   8.361
 2634POPC   C3A35333  20.547  24.682   7.996
 2634POPC   C4A35334  20.386  24.418   7.669
 2634POPC   C1B35335  20.978  24.259   8.730
 2634POPC   C2B35336  21.018  24.255   8.295
 2634POPC   C3B35337  20.841  24.282   7.904
 2634POPC   C4B35338  20.901  24.572   7.604
 2635POPC   NC335339  37.355  38.960   9.485
 2635POPC   PO435340  36.827  39.338   9.710
 2635POPC   GL135341  36.937  39.220   9.295
 2635POPC   GL235342  36.651  39.047   9.173
 2635POPC   C1A35343  37.053  39.233   8.874
 2635POPC   D2A35344  36.918  39.456   8.498
 2635POPC   C3A35345  36.931  39.183   8.162
 2635POPC   C4A35346  37.050  39.209   7.730
 2635POPC   C1B35347  36.552  39.335   8.814
 2635POPC   C2B35348  36.426  39.304   8.371
 2635POPC   C3B35349  36.528  39.380   7.922
 2635POPC   C4B35350  36.599  38.971   7.720
 2636POPC   NC335351   0.411  40.363   9.448
 2636POPC   PO435352   0.450  41.064   9.621
 2636POPC   GL135353   0.347  40.867   9.239
 2636POPC   GL235354   0.154  41.124   9.085
 2636POPC   C1A35355   0.389  40.736   8.809
 2636POPC   D2A35356   0.534  40.859   8.400
 2636POPC   C3A35357   0.700  40.522   8.158
 2636POPC   C4A35358   0.673  40.513   7.716
 2636POPC   C1B35359   0.005  41.077   8.672
 2636POPC   C2B35360   0.032  40.979   8.246
 2636POPC   C3B35361   0.252  40.768   7.973
 2636POPC   C4B35362   0.330  40.940   7.658
 2637POPC   NC335363  31.107  36.191   9.828
 2637POPC   PO435364  31.686  36.203   9.479
 2637POPC   GL135365  31.599  36.083   9.063
 2637POPC   GL235366  31.277  36.113   9.123
 2637POPC   C1A35367  31.782  36.032   8.647
 2637POPC   D2A35368  32.023  36.066   8.260
 2637POPC   C3A35369  31.718  36.195   7.963
 2637POPC   C4A35370  31.547  36.136   7.568
 2637POPC   C1B35371  31.234  36.004   8.706
 2637POPC   C2B35372  31.332  36.151   8.305
 2637POPC   C3B35373  31.214  35.962   7.929
 2637POPC   C4B35374  31.057  36.076   7.534
 2638POPC   NC335375   9.430  33.524   9.479
 2638POPC   PO435376  10.034  33.682   9.499
 2638POPC   GL135377   9.777  33.761   9.169
 2638POPC   GL235378   9.618  34.056   9.267
 2638POPC   C1A35379   9.620  33.558   8.805
 2638POPC   D2A35380   9.504  33.692   8.386
 2638POPC   C3A35381   9.776  33.574   8.018
 2638POPC   C4A35382   9.778  33.653   7.570
 2638POPC   C1B35383   9.483  34.068   8.839
 2638POPC   C2B35384   9.568  34.203   8.420
 2638POPC   C3B35385   9.564  34.070   8.003
 2638POPC   C4B35386   9.305  33.908   7.681
 2639POPC   NC335387   7.299   5.305   9.553
 2639POPC   PO435388   7.586   4.721   9.419
 2639POPC   GL135389   7.244   4.800   9.105
 2639POPC   GL235390   7.281   5.151   9.075
 2639POPC   C1A35391   7.193   4.916   8.641
 2639POPC   D2A35392   7.301   5.152   8.270
 2639POPC   C3A35393   7.225   4.892   7.935
 2639POPC   C4A35394   7.266   4.733   7.559
 2639POPC   C1B35395   7.479   5.367   8.727
 2639POPC   C2B35396   7.813   5.348   8.427
 2639POPC   C3B35397   7.806   5.071   8.095
 2639POPC   C4B35398   7.641   5.074   7.702
 2640POPC   NC335399  40.415  15.796   9.408
 2640POPC   PO435400  40.892  16.275   9.436
 2640POPC   GL135401  40.802  15.991   9.110
 2640POPC   GL235402  40.898  15.685   9.273
 2640POPC   C1A35403  40.797  15.995   8.666
 2640POPC   D2A35404  40.566  16.207   8.341
 2640POPC   C3A35405  40.762  16.259   7.936
 2640POPC   C4A35406  40.757  15.926   7.648
 2640POPC   C1B35407  41.182  15.622   8.924
 2640POPC   C2B35408  41.194  15.726   8.496
 2640POPC   C3B35409  40.952  15.827   8.159
 2640POPC   C4B35410  41.154  15.648   7.816
 2641POPC   NC335411   8.298  16.533   9.551
 2641POPC   PO435412   8.460  17.162   9.469
 2641POPC   GL135413   8.336  16.880   9.135
 2641POPC   GL235414   8.060  16.610   9.092
 2641POPC   C1A35415   8.446  16.947   8.712
 2641POPC   D2A35416   8.203  16.937   8.351
 2641POPC   C3A35417   8.409  17.027   7.978
 2641POPC   C4A35418   8.181  16.734   7.777
 2641POPC   C1B35419   8.353  16.454   8.778
 2641POPC   C2B35420   8.458  16.514   8.354
 2641POPC   C3B35421   8.410  16.319   7.964
 2641POPC   C4B35422   8.656  16.313   7.597
 2642POPC   NC335423   9.673   4.440   9.562
 2642POPC   PO435424  10.106   3.874   9.563
 2642POPC   GL135425   9.958   4.151   9.252
 2642POPC   GL235426   9.643   4.031   9.219
 2642POPC   C1A35427   9.964   4.402   8.866
 2642POPC   D2A35428   9.836   4.304   8.454
 2642POPC   C3A35429   9.893   4.502   8.086
 2642POPC   C4A35430  10.110   4.355   7.731
 2642POPC   C1B35431   9.419   3.866   8.880
 2642POPC   C2B35432   9.576   3.878   8.474
 2642POPC   C3B35433   9.432   3.952   8.066
 2642POPC   C4B35434   9.616   4.208   7.743
 2643POPC   NC335435   0.321  16.328   9.495
 2643POPC   PO435436   0.860  15.877   9.546
 2643POPC   GL135437   0.524  15.833   9.232
 2643POPC   GL235438   0.272  15.533   9.295
 2643POPC   C1A35439   0.444  16.107   8.849
 2643POPC   D2A35440   0.606  16.325   8.481
 2643POPC   C3A35441   0.516  16.154   8.067
 2643POPC   C4A35442   0.731  15.835   7.824
 2643POPC   C1B35443   0.198  15.667   8.870
 2643POPC   C2B35444   0.063  15.872   8.504
 2643POPC   C3B35445   0.070  15.763   8.101
 2643POPC   C4B35446   0.228  15.900   7.726
 2644POPC   NC335447  26.166  14.519   9.589
 2644POPC   PO435448  26.108  13.822   9.609
 2644POPC   GL135449  26.093  14.134   9.246
 2644POPC   GL235450  25.914  14.436   9.153
 2644POPC   C1A35451  26.244  14.197   8.844
 2644POPC   D2A35452  26.189  14.334   8.471
 2644POPC   C3A35453  25.917  14.152   8.209
 2644POPC   C4A35454  26.004  14.204   7.821
 2644POPC   C1B35455  26.205  14.711   8.913
 2644POPC   C2B35456  26.295  14.826   8.468
 2644POPC   C3B35457  26.080  14.675   8.080
 2644POPC   C4B35458  26.269  14.641   7.667
 2645POPC   NC335459  26.151  29.929   9.622
 2645POPC   PO435460  25.835  30.234   9.168
 2645POPC   GL135461  26.210  30.067   9.082
 2645POPC   GL235462  26.044  29.740   9.140
 2645POPC   C1A35463  26.309  30.214   8.664
 2645POPC   D2A35464  25.953  30.332   8.356
 2645POPC   C3A35465  25.983  30.219   7.930
 2645POPC   C4A35466  26.271  29.880   7.821
 2645POPC   C1B35467  25.913  29.847   8.678
 2645POPC   C2B35468  25.957  29.820   8.235
 2645POPC   C3B35469  25.873  29.551   7.889
 2645POPC   C4B35470  25.838  29.717   7.502
 2646POPC   NC335471  10.133  30.423   9.307
 2646POPC   PO435472   9.572  30.822   9.431
 2646POPC   GL135473   9.775  30.871   9.066
 2646POPC   GL235474  10.142  30.877   9.075
 2646POPC   C1A35475   9.582  30.826   8.658
 2646POPC   D2A35476   9.364  30.800   8.253
 2646POPC   C3A35477   9.536  30.499   7.944
 2646POPC   C4A35478   9.574  30.564   7.505
 2646POPC   C1B35479  10.062  30.628   8.697
 2646POPC   C2B35480   9.930  30.570   8.305
 2646POPC   C3B35481   9.980  30.749   7.931
 2646POPC   C4B35482   9.740  31.011   7.710
 2647POPC   NC335483  34.095  18.316   9.458
 2647POPC   PO435484  33.432  18.616   9.428
 2647POPC   GL135485  33.683  18.365   9.170
 2647POPC   GL235486  33.626  18.037   9.055
 2647POPC   C1A35487  33.916  18.388   8.782
 2647POPC   D2A35488  33.740  18.310   8.380
 2647POPC   C3A35489  33.899  18.498   7.990
 2647POPC   C4A35490  33.787  18.206   7.649
 2647POPC   C1B35491  33.419  17.878   8.686
 2647POPC   C2B35492  33.385  17.972   8.236
 2647POPC   C3B35493  33.498  17.693   7.915
 2647POPC   C4B35494  33.607  17.747   7.479
 2648POPC   NC335495  21.230   9.796   9.576
 2648POPC   PO435496  20.583   9.706   9.451
 2648POPC   GL135497  20.670   9.759   9.073
 2648POPC   GL235498  20.864  10.023   9.066
 2648POPC   C1A35499  20.543   9.857   8.680
 2648POPC   D2A35500  20.752   9.776   8.293
 2648POPC   C3A35501  20.531   9.700   7.878
 2648POPC   C4A35502  20.192   9.686   7.544
 2648POPC   C1B35503  21.169  10.126   8.711
 2648POPC   C2B35504  21.191  10.058   8.264
 2648POPC   C3B35505  20.869  10.066   7.898
 2648POPC   C4B35506  20.741   9.919   7.453
 2649POPC   NC335507  21.823   0.373   9.704
 2649POPC   PO435508  22.286   0.861   9.622
 2649POPC   GL135509  22.171   0.643   9.273
 2649POPC   GL235510  21.821   0.684   9.260
 2649POPC   C1A35511  22.267   0.472   8.859
 2649POPC   D2A35512  22.476   0.539   8.457
 2649POPC   C3A35513  22.202   0.418   8.096
 2649POPC   C4A35514  22.368   0.446   7.695
 2649POPC   C1B35515  21.925   0.868   8.877
 2649POPC   C2B35516  21.909   0.646   8.486
 2649POPC   C3B35517  21.895   0.811   8.068
 2649POPC   C4B35518  21.873   0.558   7.679
 2650POPC   NC335519  10.095   9.405   9.328
 2650POPC   PO435520   9.670   9.061   9.755
 2650POPC   GL135521   9.640   9.038   9.282
 2650POPC   GL235522   9.944   8.846   9.180
 2650POPC   C1A35523   9.390   9.140   8.891
 2650POPC   D2A35524   9.374   9.348   8.486
 2650POPC   C3A35525   9.468   9.193   8.088
 2650POPC   C4A35526   9.274   9.215   7.670
 2650POPC   C1B35527   9.879   9.020   8.758
 2650POPC   C2B35528   9.905   9.036   8.311
 2650POPC   C3B35529  10.173   9.018   7.963
 2650POPC   C4B35530  10.155   8.933   7.527
 2651POPC   NC335531   9.576  21.005   9.461
 2651POPC   PO435532   9.876  20.439   9.708
 2651POPC   GL135533   9.772  20.517   9.261
 2651POPC   GL235534  10.011  20.351   9.041
 2651POPC   C1A35535   9.586  20.500   8.822
 2651POPC   D2A35536   9.753  20.323   8.444
 2651POPC   C3A35537   9.633  20.510   8.050
 2651POPC   C4A35538   9.390  20.711   7.716
 2651POPC   C1B35539  10.068  20.665   8.683
 2651POPC   C2B35540  10.145  20.678   8.227
 2651POPC   C3B35541  10.220  20.531   7.804
 2651POPC   C4B35542   9.858  20.503   7.582
 2652POPC   NC335543   1.733  29.851   9.394
 2652POPC   PO435544   2.134  30.188   9.612
 2652POPC   GL135545   2.140  30.060   9.120
 2652POPC   GL235546   1.920  29.773   8.951
 2652POPC   C1A35547   2.341  29.907   8.754
 2652POPC   D2A35548   2.026  29.885   8.478
 2652POPC   C3A35549   2.176  30.063   8.148
 2652POPC   C4A35550   2.161  29.983   7.751
 2652POPC   C1B35551   1.557  29.618   8.760
 2652POPC   C2B35552   1.595  29.520   8.357
 2652POPC   C3B35553   1.926  29.592   8.082
 2652POPC   C4B35554   1.874  29.587   7.672
 2653POPC   NC335555  10.696  12.361   9.455
 2653POPC   PO435556  10.241  11.859   9.403
 2653POPC   GL135557  10.374  12.122   9.103
 2653POPC   GL235558  10.045  12.243   9.041
 2653POPC   C1A35559  10.699  12.196   8.804
 2653POPC   D2A35560  10.735  12.003   8.424
 2653POPC   C3A35561  10.792  12.261   8.113
 2653POPC   C4A35562  10.740  12.124   7.724
 2653POPC   C1B35563  10.024  11.832   8.786
 2653POPC   C2B35564  10.249  11.807   8.404
 2653POPC   C3B35565  10.336  12.012   8.037
 2653POPC   C4B35566  10.254  11.706   7.683
 2654POPC   NC335567  23.866   4.982   9.569
 2654POPC   PO435568  23.268   5.137   9.781
 2654POPC   GL135569  23.348   5.009   9.291
 2654POPC   GL235570  23.580   4.725   9.207
 2654POPC   C1A35571  23.537   5.097   8.843
 2654POPC   D2A35572  23.842   5.112   8.465
 2654POPC   C3A35573  23.648   4.996   8.076
 2654POPC   C4A35574  23.428   5.024   7.690
 2654POPC   C1B35575  23.958   4.757   8.875
 2654POPC   C2B35576  24.127   4.684   8.432
 2654POPC   C3B35577  24.156   4.870   8.023
 2654POPC   C4B35578  24.053   5.305   7.916
 2655POPC   NC335579  27.804  11.394   9.519
 2655POPC   PO435580  27.216  11.492   9.534
 2655POPC   GL135581  27.405  11.323   9.160
 2655POPC   GL235582  27.654  11.086   9.122
 2655POPC   C1A35583  27.583  11.403   8.748
 2655POPC   D2A35584  27.476  11.201   8.349
 2655POPC   C3A35585  27.459  11.470   7.993
 2655POPC   C4A35586  27.714  11.578   7.619
 2655POPC   C1B35587  27.626  10.873   8.728
 2655POPC   C2B35588  27.838  10.842   8.314
 2655POPC   C3B35589  27.753  11.047   7.899
 2655POPC   C4B35590  27.404  11.147   7.594
 2656POPC   NC335591  11.417  31.855   9.683
 2656POPC   PO435592  11.397  32.495   9.451
 2656POPC   GL135593  11.294  32.303   9.100
 2656POPC   GL235594  11.347  31.931   9.190
 2656POPC   C1A35595  11.467  32.472   8.714
 2656POPC   D2A35596  11.642  32.463   8.310
 2656POPC   C3A35597  11.306  32.451   8.004
 2656POPC   C4A35598  10.924  32.237   7.988
 2656POPC   C1B35599  11.587  31.983   8.835
 2656POPC   C2B35600  11.420  32.005   8.452
 2656POPC   C3B35601  11.579  32.029   8.060
 2656POPC   C4B35602  11.370  31.987   7.693
 2657POPC   NC335603  18.239  15.452   9.723
 2657POPC   PO435604  17.998  15.987   9.356
 2657POPC   GL135605  18.382  16.059   9.115
 2657POPC   GL235606  18.645  15.796   9.123
 2657POPC   C1A35607  18.420  16.131   8.682
 2657POPC   D2A35608  18.387  15.935   8.285
 2657POPC   C3A35609  18.124  16.145   8.000
 2657POPC   C4A35610  18.437  16.292   7.735
 2657POPC   C1B35611  18.467  15.603   8.739
 2657POPC   C2B35612  18.062  15.607   8.497
 2657POPC   C3B35613  18.054  15.625   8.024
 2657POPC   C4B35614  18.416  15.785   7.744
 2658POPC   NC335615  20.778  17.181   9.686
 2658POPC   PO435616  20.251  17.708   9.746
 2658POPC   GL135617  20.372  17.520   9.331
 2658POPC   GL235618  20.664  17.705   9.196
 2658POPC   C1A35619  20.352  17.415   8.876
 2658POPC   D2A35620  20.628  17.269   8.544
 2658POPC   C3A35621  20.523  17.295   8.087
 2658POPC   C4A35622  20.673  17.282   7.651
 2658POPC   C1B35623  20.743  17.779   8.743
 2658POPC   C2B35624  20.824  17.677   8.295
 2658POPC   C3B35625  20.686  17.754   7.876
 2658POPC   C4B35626  20.894  17.874   7.500
 2659POPC   NC335627  25.360  32.842   9.513
 2659POPC   PO435628  25.195  33.521   9.577
 2659POPC   GL135629  25.130  33.248   9.201
 2659POPC   GL235630  25.054  32.879   9.090
 2659POPC   C1A35631  25.125  33.271   8.750
 2659POPC   D2A35632  25.008  32.889   8.511
 2659POPC   C3A35633  25.056  32.958   8.099
 2659POPC   C4A35634  24.968  33.237   7.797
 2659POPC   C1B35635  25.449  32.881   8.787
 2659POPC   C2B35636  25.507  32.815   8.314
 2659POPC   C3B35637  25.496  32.814   7.828
 2659POPC   C4B35638  25.592  32.792   7.367
 2660POPC   NC335639  35.732   6.745   9.515
 2660POPC   PO435640  35.130   6.397   9.430
 2660POPC   GL135641  35.352   6.582   9.111
 2660POPC   GL235642  35.663   6.437   9.102
 2660POPC   C1A35643  35.450   6.499   8.658
 2660POPC   D2A35644  35.285   6.750   8.361
 2660POPC   C3A35645  35.452   6.500   8.093
 2660POPC   C4A35646  35.499   6.465   7.701
 2660POPC   C1B35647  35.705   6.869   8.873
 2660POPC   C2B35648  35.805   6.856   8.423
 2660POPC   C3B35649  35.662   6.965   8.012
 2660POPC   C4B35650  35.819   6.934   7.617
 2661POPC   NC335651   4.759  34.766   9.593
 2661POPC   PO435652   5.439  34.745   9.659
 2661POPC   GL135653   5.246  34.748   9.213
 2661POPC   GL235654   4.901  34.789   9.090
 2661POPC   C1A35655   5.220  34.517   8.809
 2661POPC   D2A35656   4.937  34.283   8.511
 2661POPC   C3A35657   5.023  34.267   8.082
 2661POPC   C4A35658   5.168  34.411   7.663
 2661POPC   C1B35659   4.859  34.787   8.605
 2661POPC   C2B35660   4.836  34.739   8.175
 2661POPC   C3B35661   5.000  34.915   7.801
 2661POPC   C4B35662   4.947  34.775   7.385
 2662POPC   NC335663   2.158   4.755   9.826
 2662POPC   PO435664   1.755   5.145   9.590
 2662POPC   GL135665   1.810   5.268   9.125
 2662POPC   GL235666   2.143   5.131   9.070
 2662POPC   C1A35667   1.892   5.482   8.690
 2662POPC   D2A35668   2.075   5.340   8.265
 2662POPC   C3A35669   1.853   5.348   7.886
 2662POPC   C4A35670   1.983   5.313   7.443
 2662POPC   C1B35671   1.948   4.976   8.659
 2662POPC   C2B35672   1.810   4.885   8.210
 2662POPC   C3B35673   1.923   4.839   7.758
 2662POPC   C4B35674   2.267   4.850   7.438
 2663POPC   NC335675   0.168   7.981   9.597
 2663POPC   PO435676   0.493   8.514   9.369
 2663POPC   GL135677   0.406   8.216   9.106
 2663POPC   GL235678   0.564   7.923   9.247
 2663POPC   C1A35679   0.381   8.253   8.667
 2663POPC   D2A35680   0.072   8.467   8.429
 2663POPC   C3A35681   0.258   8.461   8.043
 2663POPC   C4A35682   0.284   8.391   7.651
 2663POPC   C1B35683   0.333   7.768   8.873
 2663POPC   C2B35684   0.460   7.770   8.466
 2663POPC   C3B35685   0.365   7.958   8.071
 2663POPC   C4B35686   0.678   8.137   7.849
 2664POPC   NC335687  15.384  19.486   9.549
 2664POPC   PO435688  14.991  20.014   9.490
 2664POPC   GL135689  15.042  19.758   9.132
 2664POPC   GL235690  14.722  19.735   8.954
 2664POPC   C1A35691  15.153  19.751   8.682
 2664POPC   D2A35692  15.003  19.760   8.262
 2664POPC   C3A35693  15.345  19.867   7.980
 2664POPC   C4A35694  15.573  19.650   7.646
 2664POPC   C1B35695  14.900  20.166   8.857
 2664POPC   C2B35696  15.051  20.249   8.459
 2664POPC   C3B35697  14.928  20.213   8.034
 2664POPC   C4B35698  14.969  19.962   7.661
 2665POPC   NC335699   3.690  44.454   9.463
 2665POPC   PO435700   3.640  43.723   9.583
 2665POPC   GL135701   3.483  43.813   9.146
 2665POPC   GL235702   3.429  44.188   9.117
 2665POPC   C1A35703   3.601  43.916   8.714
 2665POPC   D2A35704   3.765  44.113   8.342
 2665POPC   C3A35705   3.677  43.824   8.024
 2665POPC   C4A35706   3.517  43.595   7.685
 2665POPC   C1B35707   3.578  44.440   8.786
 2665POPC   C2B35708   3.429  44.484   8.379
 2665POPC   C3B35709   3.459  44.305   7.949
 2665POPC   C4B35710   3.662  44.074   7.593
 2666POPC   NC335711  20.390  21.538   9.536
 2666POPC   PO435712  20.982  21.628   9.757
 2666POPC   GL135713  20.774  21.334   9.334
 2666POPC   GL235714  20.493  21.543   9.046
 2666POPC   C1A35715  20.566  21.076   8.959
 2666POPC   D2A35716  20.290  21.260   8.645
 2666POPC   C3A35717  20.466  21.341   8.250
 2666POPC   C4A35718  20.361  21.202   7.852
 2666POPC   C1B35719  20.744  21.549   8.663
 2666POPC   C2B35720  20.838  21.698   8.229
 2666POPC   C3B35721  20.627  21.620   7.825
 2666POPC   C4B35722  20.648  21.703   7.381
 2667POPC   NC335723  16.317  14.971   9.510
 2667POPC   PO435724  16.801  15.418   9.564
 2667POPC   GL135725  16.833  15.338   9.159
 2667POPC   GL235726  17.009  15.014   9.233
 2667POPC   C1A35727  16.853  15.584   8.757
 2667POPC   D2A35728  16.643  15.618   8.339
 2667POPC   C3A35729  16.792  15.284   8.057
 2667POPC   C4A35730  16.961  15.309   7.627
 2667POPC   C1B35731  16.751  14.911   8.865
 2667POPC   C2B35732  16.547  15.142   8.539
 2667POPC   C3B35733  16.292  15.163   8.183
 2667POPC   C4B35734  16.414  15.044   7.772
 2668POPC   NC335735  37.017  28.680   9.481
 2668POPC   PO435736  37.472  28.228   9.250
 2668POPC   GL135737  37.211  28.064   8.940
 2668POPC   GL235738  36.893  28.072   9.135
 2668POPC   C1A35739  37.167  28.182   8.471
 2668POPC   D2A35740  37.168  28.603   8.217
 2668POPC   C3A35741  36.899  28.583   7.869
 2668POPC   C4A35742  36.824  28.143   7.881
 2668POPC   C1B35743  36.657  27.988   8.760
 2668POPC   C2B35744  36.512  28.089   8.322
 2668POPC   C3B35745  36.391  28.375   7.987
 2668POPC   C4B35746  36.531  28.377   7.554
 2669POPC   NC335747  16.095  13.154   9.349
 2669POPC   PO435748  15.734  12.733   9.672
 2669POPC   GL135749  15.885  12.675   9.261
 2669POPC   GL235750  16.259  12.646   9.206
 2669POPC   C1A35751  15.842  12.809   8.847
 2669POPC   D2A35752  15.705  13.083   8.532
 2669POPC   C3A35753  15.675  12.832   8.162
 2669POPC   C4A35754  15.685  12.964   7.783
 2669POPC   C1B35755  16.321  12.651   8.742
 2669POPC   C2B35756  16.167  12.767   8.285
 2669POPC   C3B35757  16.179  12.848   7.793
 2669POPC   C4B35758  16.194  12.674   7.356
 2670POPC   NC335759  24.903   3.733   9.601
 2670POPC   PO435760  24.219   3.519   9.561
 2670POPC   GL135761  24.498   3.665   9.256
 2670POPC   GL235762  24.787   3.448   9.185
 2670POPC   C1A35763  24.393   3.824   8.883
 2670POPC   D2A35764  24.411   3.854   8.460
 2670POPC   C3A35765  24.447   3.541   8.165
 2670POPC   C4A35766  24.485   3.735   7.776
 2670POPC   C1B35767  24.646   3.405   8.742
 2670POPC   C2B35768  24.858   3.305   8.363
 2670POPC   C3B35769  24.883   3.185   7.929
 2670POPC   C4B35770  24.883   3.290   7.466
 2671POPC   NC335771  14.666  23.432   9.530
 2671POPC   PO435772  14.567  24.104   9.546
 2671POPC   GL135773  14.637  23.847   9.155
 2671POPC   GL235774  14.449  23.554   9.072
 2671POPC   C1A35775  14.506  23.853   8.684
 2671POPC   D2A35776  14.325  23.568   8.375
 2671POPC   C3A35777  14.410  23.733   8.014
 2671POPC   C4A35778  14.526  24.111   7.819
 2671POPC   C1B35779  14.174  23.291   8.762
 2671POPC   C2B35780  13.996  23.146   8.369
 2671POPC   C3B35781  13.934  23.386   7.987
 2671POPC   C4B35782  14.241  23.428   7.658
 2672POPC   NC335783   5.393  32.462   9.433
 2672POPC   PO435784   4.847  32.007   9.664
 2672POPC   GL135785   4.785  32.130   9.248
 2672POPC   GL235786   5.068  32.203   9.130
 2672POPC   C1A35787   4.723  32.249   8.783
 2672POPC   D2A35788   4.864  32.141   8.369
 2672POPC   C3A35789   4.903  32.344   7.981
 2672POPC   C4A35790   4.965  32.270   7.542
 2672POPC   C1B35791   5.219  32.380   8.705
 2672POPC   C2B35792   5.346  32.322   8.241
 2672POPC   C3B35793   5.390  32.474   7.776
 2672POPC   C4B35794   5.323  32.553   7.282
 2673POPC   NC335795  23.106  12.813   9.478
 2673POPC   PO435796  22.528  12.574   9.390
 2673POPC   GL135797  22.892  12.575   9.108
 2673POPC   GL235798  22.799  12.883   9.049
 2673POPC   C1A35799  23.169  12.727   8.757
 2673POPC   D2A35800  22.990  12.607   8.365
 2673POPC   C3A35801  22.983  12.892   8.038
 2673POPC   C4A35802  22.961  13.159   7.702
 2673POPC   C1B35803  22.595  12.620   8.702
 2673POPC   C2B35804  22.473  12.396   8.345
 2673POPC   C3B35805  22.673  12.453   7.939
 2673POPC   C4B35806  22.846  12.658   7.593
 2674POPC   NC335807   1.811  40.243   9.576
 2674POPC   PO435808   2.427  40.276   9.398
 2674POPC   GL135809   2.053  40.008   9.195
 2674POPC   GL235810   1.649  40.117   9.124
 2674POPC   C1A35811   1.966  39.986   8.745
 2674POPC   D2A35812   2.106  39.699   8.433
 2674POPC   C3A35813   1.834  39.709   8.127
 2674POPC   C4A35814   2.073  39.804   7.781
 2674POPC   C1B35815   1.446  40.218   8.732
 2674POPC   C2B35816   1.652  40.211   8.330
 2674POPC   C3B35817   1.995  40.246   8.022
 2674POPC   C4B35818   1.938  40.254   7.564
 2675POPC   NC335819  21.066   0.569   9.609
 2675POPC   PO435820  21.454   0.176   9.924
 2675POPC   GL135821  21.441   0.242   9.396
 2675POPC   GL235822  21.327   0.558   9.183
 2675POPC   C1A35823  21.647   0.250   8.946
 2675POPC   D2A35824  21.475   0.308   8.516
 2675POPC   C3A35825  21.652   0.344   8.116
 2675POPC   C4A35826  21.380   0.298   7.770
 2675POPC   C1B35827  21.448   0.732   8.781
 2675POPC   C2B35828  21.386   0.784   8.314
 2675POPC   C3B35829  21.450   0.788   7.837
 2675POPC   C4B35830  21.393   0.654   7.397
 2676POPC   NC335831  15.898  35.111   9.836
 2676POPC   PO435832  16.013  35.678   9.581
 2676POPC   GL135833  16.219  35.441   9.218
 2676POPC   GL235834  16.186  35.048   9.188
 2676POPC   C1A35835  16.112  35.331   8.768
 2676POPC   D2A35836  15.944  35.282   8.335
 2676POPC   C3A35837  15.979  35.614   8.038
 2676POPC   C4A35838  15.816  35.653   7.585
 2676POPC   C1B35839  16.364  34.892   8.752
 2676POPC   C2B35840  16.394  35.035   8.315
 2676POPC   C3B35841  16.352  35.282   7.987
 2676POPC   C4B35842  16.058  35.205   7.709
 2677POPC   NC335843  27.846   0.115   9.393
 2677POPC   PO435844  27.357  44.672   9.623
 2677POPC   GL135845  27.383  44.566   9.218
 2677POPC   GL235846  27.444  44.877   9.133
 2677POPC   C1A35847  27.640  44.532   8.834
 2677POPC   D2A35848  27.821  44.481   8.444
 2677POPC   C3A35849  27.693  44.777   8.162
 2677POPC   C4A35850  27.585  44.533   7.840
 2677POPC   C1B35851  27.190  44.877   8.767
 2677POPC   C2B35852  27.279   0.048   8.338
 2677POPC   C3B35853  27.210  44.866   7.933
 2677POPC   C4B35854  27.361  44.839   7.482
 2678POPC   NC335855  13.546  32.743   9.401
 2678POPC   PO435856  13.603  32.077   9.631
 2678POPC   GL135857  13.678  31.991   9.199
 2678POPC   GL235858  13.709  32.331   9.133
 2678POPC   C1A35859  13.586  31.822   8.787
 2678POPC   D2A35860  13.737  31.927   8.368
 2678POPC   C3A35861  13.557  32.220   8.105
 2678POPC   C4A35862  13.542  32.139   7.717
 2678POPC   C1B35863  13.917  32.590   8.813
 2678POPC   C2B35864  13.742  32.636   8.391
 2678POPC   C3B35865  13.895  32.570   7.957
 2678POPC   C4B35866  13.672  32.653   7.599
 2679POPC   NC335867  15.608  21.838   9.595
 2679POPC   PO435868  14.861  21.681   9.491
 2679POPC   GL135869  15.084  21.453   9.209
 2679POPC   GL235870  15.401  21.574   9.222
 2679POPC   C1A35871  15.230  21.168   8.919
 2679POPC   D2A35872  15.401  21.079   8.535
 2679POPC   C3A35873  15.235  21.012   8.130
 2679POPC   C4A35874  15.385  20.976   7.728
 2679POPC   C1B35875  15.434  21.746   8.833
 2679POPC   C2B35876  15.241  21.560   8.518
 2679POPC   C3B35877  15.333  21.533   8.119
 2679POPC   C4B35878  15.149  21.429   7.782
 2680POPC   NC335879  36.783  40.615   9.525
 2680POPC   PO435880  37.518  40.843   9.530
 2680POPC   GL135881  37.159  40.846   9.237
 2680POPC   GL235882  36.834  40.998   9.190
 2680POPC   C1A35883  37.048  40.657   8.850
 2680POPC   D2A35884  36.946  40.819   8.413
 2680POPC   C3A35885  37.088  40.600   8.026
 2680POPC   C4A35886  36.888  40.524   7.654
 2680POPC   C1B35887  36.584  40.874   8.811
 2680POPC   C2B35888  36.497  41.169   8.491
 2680POPC   C3B35889  36.706  41.238   8.138
 2680POPC   C4B35890  36.648  40.916   7.862
 2681POPC   NC335891  37.891  28.194   9.458
 2681POPC   PO435892  37.503  28.741   9.529
 2681POPC   GL135893  37.799  28.590   9.100
 2681POPC   GL235894  37.905  28.223   8.965
 2681POPC   C1A35895  37.758  28.605   8.629
 2681POPC   D2A35896  37.632  28.379   8.258
 2681POPC   C3A35897  37.699  28.500   7.850
 2681POPC   C4A35898  37.318  28.298   7.814
 2681POPC   C1B35899  37.659  28.043   8.652
 2681POPC   C2B35900  37.583  27.848   8.265
 2681POPC   C3B35901  37.733  27.983   7.867
 2681POPC   C4B35902  37.881  28.075   7.451
 2682POPC   NC335903  26.547  18.979   9.527
 2682POPC   PO435904  27.142  19.083   9.280
 2682POPC   GL135905  26.810  19.091   9.034
 2682POPC   GL235906  26.586  19.294   9.139
 2682POPC   C1A35907  26.738  18.888   8.666
 2682POPC   D2A35908  26.533  18.781   8.298
 2682POPC   C3A35909  26.900  18.782   8.031
 2682POPC   C4A35910  27.060  19.065   7.735
 2682POPC   C1B35911  26.508  19.518   8.797
 2682POPC   C2B35912  26.530  19.302   8.408
 2682POPC   C3B35913  26.588  19.178   7.967
 2682POPC   C4B35914  26.717  19.446   7.654
 2683POPC   NC335915   3.599   8.030   9.494
 2683POPC   PO435916   2.967   7.970   9.441
 2683POPC   GL135917   3.286   7.932   9.109
 2683POPC   GL235918   3.475   8.273   9.052
 2683POPC   C1A35919   3.513   7.839   8.747
 2683POPC   D2A35920   3.292   7.869   8.374
 2683POPC   C3A35921   3.437   8.034   7.996
 2683POPC   C4A35922   3.390   8.197   7.573
 2683POPC   C1B35923   3.363   8.314   8.601
 2683POPC   C2B35924   3.607   8.453   8.235
 2683POPC   C3B35925   3.653   8.663   7.827
 2683POPC   C4B35926   3.490   8.712   7.425
 2684POPC   NC335927  34.970  18.483   9.515
 2684POPC   PO435928  34.497  18.006   9.508
 2684POPC   GL135929  34.597  18.263   9.200
 2684POPC   GL235930  34.741  18.013   9.008
 2684POPC   C1A35931  34.472  18.465   8.811
 2684POPC   D2A35932  34.667  18.629   8.441
 2684POPC   C3A35933  34.456  18.510   8.075
 2684POPC   C4A35934  34.605  18.140   7.851
 2684POPC   C1B35935  34.318  17.973   8.837
 2684POPC   C2B35936  34.239  18.174   8.431
 2684POPC   C3B35937  34.124  18.053   8.022
 2684POPC   C4B35938  34.202  17.873   7.622
 2685POPC   NC335939  21.946  14.293   9.431
 2685POPC   PO435940  22.516  14.639   9.420
 2685POPC   GL135941  22.244  14.500   9.053
 2685POPC   GL235942  21.883  14.555   9.007
 2685POPC   C1A35943  22.157  14.529   8.596
 2685POPC   D2A35944  22.313  14.706   8.252
 2685POPC   C3A35945  22.284  14.572   7.898
 2685POPC   C4A35946  22.240  14.201   7.702
 2685POPC   C1B35947  21.578  14.451   8.699
 2685POPC   C2B35948  21.579  14.427   8.257
 2685POPC   C3B35949  21.814  14.376   7.909
 2685POPC   C4B35950  21.773  14.211   7.492
 2686POPC   NC335951  23.023   5.505   9.607
 2686POPC   PO435952  22.577   6.057   9.584
 2686POPC   GL135953  22.742   5.977   9.163
 2686POPC   GL235954  22.864   5.654   9.149
 2686POPC   C1A35955  22.852   6.112   8.734
 2686POPC   D2A35956  23.152   6.239   8.415
 2686POPC   C3A35957  23.031   6.105   7.977
 2686POPC   C4A35958  22.987   5.915   7.529
 2686POPC   C1B35959  22.681   5.621   8.757
 2686POPC   C2B35960  22.846   5.743   8.318
 2686POPC   C3B35961  22.906   5.578   7.890
 2686POPC   C4B35962  22.694   5.506   7.460
 2687POPC   NC335963  41.712  28.035   9.520
 2687POPC   PO435964  41.468  28.612   9.440
 2687POPC   GL135965  41.705  28.394   9.151
 2687POPC   GL235966  41.447  28.196   9.082
 2687POPC   C1A35967  41.851  28.297   8.769
 2687POPC   D2A35968  41.690  28.168   8.396
 2687POPC   C3A35969  41.806  28.343   8.016
 2687POPC   C4A35970  41.640  28.239   7.644
 2687POPC   C1B35971  41.276  28.316   8.697
 2687POPC   C2B35972  41.046  28.343   8.288
 2687POPC   C3B35973  41.153  28.397   7.845
 2687POPC   C4B35974  41.097  28.749   7.534
 2688POPC   NC335975  43.228  23.684   9.493
 2688POPC   PO435976  42.545  23.412   9.549
 2688POPC   GL135977  42.781  23.683   9.189
 2688POPC   GL235978  43.079  23.561   9.031
 2688POPC   C1A35979  42.879  23.988   8.812
 2688POPC   D2A35980  43.155  23.868   8.455
 2688POPC   C3A35981  43.058  23.955   8.022
 2688POPC   C4A35982  43.083  23.794   7.588
 2688POPC   C1B35983  43.410  23.526   8.756
 2688POPC   C2B35984  43.400  23.406   8.346
 2688POPC   C3B35985  43.404  23.588   7.967
 2688POPC   C4B35986  43.634  23.655   7.597
 2689POPC   NC335987  40.946   7.088   9.380
 2689POPC   PO435988  40.744   7.732   9.417
 2689POPC   GL135989  40.728   7.423   9.065
 2689POPC   GL235990  40.532   7.077   9.085
 2689POPC   C1A35991  40.990   7.233   8.736
 2689POPC   D2A35992  40.889   7.104   8.318
 2689POPC   C3A35993  41.033   7.362   7.990
 2689POPC   C4A35994  40.837   7.426   7.596
 2689POPC   C1B35995  40.493   7.178   8.662
 2689POPC   C2B35996  40.352   7.140   8.261
 2689POPC   C3B35997  40.556   7.170   7.931
 2689POPC   C4B35998  40.534   7.021   7.563
 2690POPC   NC335999  13.784   6.530   9.481
 2690POPC   PO436000  13.305   6.907   9.546
 2690POPC   GL136001  13.435   6.722   9.168
 2690POPC   GL236002  13.147   6.521   9.064
 2690POPC   C1A36003  13.782   6.746   8.832
 2690POPC   D2A36004  13.929   6.563   8.427
 2690POPC   C3A36005  13.967   6.867   8.107
 2690POPC   C4A36006  13.833   6.868   7.704
 2690POPC   C1B36007  13.279   6.852   8.724
 2690POPC   C2B36008  13.507   6.847   8.344
 2690POPC   C3B36009  13.581   6.518   8.033
 2690POPC   C4B36010  13.405   6.615   7.632
 2691POPC   NC336011   1.102  24.494   9.905
 2691POPC   PO436012   1.299  25.018   9.545
 2691POPC   GL136013   1.386  24.725   9.175
 2691POPC   GL236014   1.125  24.452   9.137
 2691POPC   C1A36015   1.478  24.546   8.740
 2691POPC   D2A36016   1.470  24.746   8.310
 2691POPC   C3A36017   1.507  24.489   7.931
 2691POPC   C4A36018   1.546  24.350   7.485
 2691POPC   C1B36019   0.960  24.635   8.743
 2691POPC   C2B36020   0.815  24.554   8.345
 2691POPC   C3B36021   0.969  24.435   7.958
 2691POPC   C4B36022   0.779  24.663   7.666
 2692POPC   NC336023   0.705   6.290   9.504
 2692POPC   PO436024   0.174   6.600   9.502
 2692POPC   GL136025   0.301   6.711   9.105
 2692POPC   GL236026   0.682   6.675   9.129
 2692POPC   C1A36027   0.394   6.647   8.681
 2692POPC   D2A36028   0.154   6.459   8.321
 2692POPC   C3A36029   0.354   6.593   7.971
 2692POPC   C4A36030   0.312   6.659   7.571
 2692POPC   C1B36031   0.826   6.971   8.814
 2692POPC   C2B36032   1.013   7.014   8.417
 2692POPC   C3B36033   0.775   6.936   8.050
 2692POPC   C4B36034   0.501   7.082   7.737
 2693POPC   NC336035  22.262  20.131   9.478
 2693POPC   PO436036  21.782  19.614   9.535
 2693POPC   GL136037  21.980  19.782   9.146
 2693POPC   GL236038  22.374  19.735   9.141
 2693POPC   C1A36039  22.093  19.702   8.699
 2693POPC   D2A36040  22.501  19.752   8.449
 2693POPC   C3A36041  22.447  19.641   8.001
 2693POPC   C4A36042  22.023  19.648   7.845
 2693POPC   C1B36043  22.385  20.091   8.841
 2693POPC   C2B36044  22.183  20.165   8.437
 2693POPC   C3B36045  22.257  20.117   8.013
 2693POPC   C4B36046  22.538  20.139   7.663
 2694POPC   NC336047  28.635  24.903   9.606
 2694POPC   PO436048  28.167  24.450   9.455
 2694POPC   GL136049  28.407  24.405   9.082
 2694POPC   GL236050  28.750  24.446   9.198
 2694POPC   C1A36051  28.614  24.154   8.780
 2694POPC   D2A36052  28.445  24.375   8.443
 2694POPC   C3A36053  28.193  24.218   8.141
 2694POPC   C4A36054  28.362  24.403   7.756
 2694POPC   C1B36055  28.812  24.626   8.767
 2694POPC   C2B36056  28.953  24.451   8.349
 2694POPC   C3B36057  28.871  24.392   7.868
 2694POPC   C4B36058  28.696  24.161   7.467
 2695POPC   NC336059  39.525  19.606   9.488
 2695POPC   PO436060  38.982  19.902   9.594
 2695POPC   GL136061  39.078  19.699   9.206
 2695POPC   GL236062  39.332  19.946   9.147
 2695POPC   C1A36063  39.242  19.648   8.764
 2695POPC   D2A36064  39.473  19.722   8.390
 2695POPC   C3A36065  39.298  19.957   8.077
 2695POPC   C4A36066  39.125  19.853   7.703
 2695POPC   C1B36067  39.670  19.916   8.825
 2695POPC   C2B36068  39.849  20.055   8.479
 2695POPC   C3B36069  39.794  20.087   8.068
 2695POPC   C4B36070  39.557  20.206   7.742
 2696POPC   NC336071  29.748  33.143   9.558
 2696POPC   PO436072  30.014  32.556   9.508
 2696POPC   GL136073  29.804  32.813   9.160
 2696POPC   GL236074  30.016  33.106   9.139
 2696POPC   C1A36075  29.798  33.010   8.714
 2696POPC   D2A36076  30.067  32.982   8.385
 2696POPC   C3A36077  29.828  32.901   8.053
 2696POPC   C4A36078  29.866  32.941   7.650
 2696POPC   C1B36079  30.215  32.747   8.827
 2696POPC   C2B36080  30.393  32.588   8.407
 2696POPC   C3B36081  30.300  32.743   7.963
 2696POPC   C4B36082  30.259  32.717   7.457
 2697POPC   NC336083  30.417   0.891   9.492
 2697POPC   PO436084  30.740   1.496   9.708
 2697POPC   GL136085  30.455   1.359   9.262
 2697POPC   GL236086  30.689   1.090   9.108
 2697POPC   C1A36087  30.554   1.387   8.728
 2697POPC   D2A36088  30.808   1.213   8.422
 2697POPC   C3A36089  30.607   1.255   8.039
 2697POPC   C4A36090  30.428   1.469   7.678
 2697POPC   C1B36091  30.372   0.933   8.830
 2697POPC   C2B36092  30.395   0.886   8.393
 2697POPC   C3B36093  30.770   0.757   8.182
 2697POPC   C4B36094  30.776   0.814   7.774
 2698POPC   NC336095  10.850  29.363   9.716
 2698POPC   PO436096  11.459  29.140   9.686
 2698POPC   GL136097  11.283  29.083   9.257
 2698POPC   GL236098  11.122  28.806   9.050
 2698POPC   C1A36099  11.344  29.203   8.819
 2698POPC   D2A36100  11.356  29.428   8.417
 2698POPC   C3A36101  11.595  29.301   8.059
 2698POPC   C4A36102  11.528  29.197   7.643
 2698POPC   C1B36103  11.304  28.713   8.707
 2698POPC   C2B36104  11.440  28.919   8.369
 2698POPC   C3B36105  11.248  28.928   7.988
 2698POPC   C4B36106  11.475  28.691   7.737
 2699POPC   NC336107  28.442   9.181   9.466
 2699POPC   PO436108  28.370   8.466   9.538
 2699POPC   GL136109  28.337   8.717   9.151
 2699POPC   GL236110  28.612   8.907   9.046
 2699POPC   C1A36111  28.083   8.634   8.768
 2699POPC   D2A36112  27.884   8.808   8.382
 2699POPC   C3A36113  28.032   8.636   8.001
 2699POPC   C4A36114  28.341   8.878   7.785
 2699POPC   C1B36115  28.409   9.118   8.717
 2699POPC   C2B36116  28.234   9.174   8.321
 2699POPC   C3B36117  27.952   9.139   7.971
 2699POPC   C4B36118  28.098   9.257   7.553
 2700POPC   NC336119  41.070  11.367   9.674
 2700POPC   PO436120  40.467  11.341   9.402
 2700POPC   GL136121  40.840  11.182   9.225
 2700POPC   GL236122  41.010  11.464   9.179
 2700POPC   C1A36123  40.987  11.029   8.822
 2700POPC   D2A36124  40.798  10.935   8.397
 2700POPC   C3A36125  41.031  11.081   8.022
 2700POPC   C4A36126  40.875  11.061   7.565
 2700POPC   C1B36127  40.948  11.618   8.787
 2700POPC   C2B36128  41.192  11.738   8.441
 2700POPC   C3B36129  40.970  11.653   8.083
 2700POPC   C4B36130  40.701  11.440   7.845
 2701POPC   NC336131  27.466   9.368   9.349
 2701POPC   PO436132  27.609  10.046   9.576
 2701POPC   GL136133  27.615   9.851   9.185
 2701POPC   GL236134  27.316   9.925   8.984
 2701POPC   C1A36135  27.695   9.657   8.782
 2701POPC   D2A36136  27.378   9.696   8.461
 2701POPC   C3A36137  27.611   9.733   8.134
 2701POPC   C4A36138  27.733   9.541   7.756
 2701POPC   C1B36139  27.046  10.025   8.660
 2701POPC   C2B36140  27.132  10.101   8.221
 2701POPC   C3B36141  27.379  10.090   7.865
 2701POPC   C4B36142  27.832  10.062   7.826
 2702POPC   NC336143   8.378   1.636   9.675
 2702POPC   PO436144   8.045   2.221   9.395
 2702POPC   GL136145   8.319   2.106   9.080
 2702POPC   GL236146   8.394   1.803   9.209
 2702POPC   C1A36147   8.530   2.082   8.658
 2702POPC   D2A36148   8.636   2.002   8.218
 2702POPC   C3A36149   8.360   2.117   7.865
 2702POPC   C4A36150   8.034   2.065   7.559
 2702POPC   C1B36151   8.503   1.591   8.859
 2702POPC   C2B36152   8.330   1.628   8.453
 2702POPC   C3B36153   8.418   1.545   8.043
 2702POPC   C4B36154   8.356   1.619   7.625
 2703POPC   NC336155  39.441  26.992   9.832
 2703POPC   PO436156  38.952  26.620   9.770
 2703POPC   GL136157  38.900  26.512   9.304
 2703POPC   GL236158  38.966  26.853   9.200
 2703POPC   C1A36159  39.155  26.516   8.877
 2703POPC   D2A36160  39.436  26.692   8.522
 2703POPC   C3A36161  39.330  26.550   8.113
 2703POPC   C4A36162  39.258  26.737   7.695
 2703POPC   C1B36163  39.152  27.020   8.802
 2703POPC   C2B36164  39.111  27.115   8.375
 2703POPC   C3B36165  39.442  27.036   8.089
 2703POPC   C4B36166  39.742  26.881   7.789
 2704POPC   NC336167  41.790  20.356   9.549
 2704POPC   PO436168  41.473  20.965   9.456
 2704POPC   GL136169  41.679  20.682   9.177
 2704POPC   GL236170  42.025  20.786   9.268
 2704POPC   C1A36171  41.597  20.446   8.779
 2704POPC   D2A36172  41.473  20.564   8.356
 2704POPC   C3A36173  41.484  20.347   7.942
 2704POPC   C4A36174  41.383  20.685   7.682
 2704POPC   C1B36175  42.056  20.675   8.816
 2704POPC   C2B36176  42.018  20.473   8.436
 2704POPC   C3B36177  41.901  20.591   8.044
 2704POPC   C4B36178  41.899  20.401   7.631
 2705POPC   NC336179  15.647  40.571   9.450
 2705POPC   PO436180  16.146  40.902   9.195
 2705POPC   GL136181  15.847  40.793   8.993
 2705POPC   GL236182  15.618  41.021   9.084
 2705POPC   C1A36183  15.976  40.780   8.567
 2705POPC   D2A36184  16.171  40.556   8.290
 2705POPC   C3A36185  15.894  40.398   8.037
 2705POPC   C4A36186  16.096  40.477   7.668
 2705POPC   C1B36187  15.636  41.146   8.646
 2705POPC   C2B36188  15.850  41.162   8.254
 2705POPC   C3B36189  15.905  40.906   7.898
 2705POPC   C4B36190  16.228  40.974   7.604
 2706POPC   NC336191   5.520   5.839   9.514
 2706POPC   PO436192   4.913   6.292   9.513
 2706POPC   GL136193   5.086   6.043   9.174
 2706POPC   GL236194   5.016   5.703   9.004
 2706POPC   C1A36195   5.179   6.139   8.778
 2706POPC   D2A36196   4.913   6.090   8.436
 2706POPC   C3A36197   5.127   5.938   8.114
 2706POPC   C4A36198   4.984   5.862   7.717
 2706POPC   C1B36199   5.122   5.640   8.555
 2706POPC   C2B36200   5.539   5.516   8.351
 2706POPC   C3B36201   5.663   5.400   7.930
 2706POPC   C4B36202   5.389   5.412   7.555
 2707POPC   NC336203  19.807   8.761   9.919
 2707POPC   PO436204  20.269   9.131   9.659
 2707POPC   GL136205  19.943   9.228   9.300
 2707POPC   GL236206  20.012   8.916   9.156
 2707POPC   C1A36207  19.703   9.151   8.855
 2707POPC   D2A36208  19.894   8.908   8.495
 2707POPC   C3A36209  19.703   8.797   8.101
 2707POPC   C4A36210  19.698   8.500   7.708
 2707POPC   C1B36211  20.296   8.911   8.810
 2707POPC   C2B36212  20.388   9.066   8.406
 2707POPC   C3B36213  20.121   9.141   8.070
 2707POPC   C4B36214  20.024   8.899   7.698
 2708POPC   NC336215  17.771  35.497   9.469
 2708POPC   PO436216  17.120  35.543   9.447
 2708POPC   GL136217  17.351  35.707   9.094
 2708POPC   GL236218  17.346  35.383   8.887
 2708POPC   C1A36219  17.406  35.820   8.641
 2708POPC   D2A36220  17.320  35.556   8.294
 2708POPC   C3A36221  17.466  35.622   7.871
 2708POPC   C4A36222  17.801  35.318   7.806
 2708POPC   C1B36223  17.161  35.032   8.631
 2708POPC   C2B36224  17.222  34.898   8.206
 2708POPC   C3B36225  17.318  35.151   7.909
 2708POPC   C4B36226  17.115  35.359   7.574
 2709POPC   NC336227  35.514  42.065   9.400
 2709POPC   PO436228  35.124  42.539   9.709
 2709POPC   GL136229  35.243  42.608   9.227
 2709POPC   GL236230  35.266  42.306   9.034
 2709POPC   C1A36231  35.303  42.728   8.779
 2709POPC   D2A36232  35.158  42.750   8.330
 2709POPC   C3A36233  35.353  42.488   8.010
 2709POPC   C4A36234  35.246  42.452   7.560
 2709POPC   C1B36235  35.521  42.034   8.761
 2709POPC   C2B36236  35.879  42.056   8.543
 2709POPC   C3B36237  35.892  41.995   8.089
 2709POPC   C4B36238  35.515  42.023   7.821
 2710POPC   NC336239  29.373  31.234   9.447
 2710POPC   PO436240  28.767  31.626   9.556
 2710POPC   GL136241  29.038  31.557   9.212
 2710POPC   GL236242  28.998  31.262   9.026
 2710POPC   C1A36243  29.232  31.639   8.804
 2710POPC   D2A36244  29.207  31.818   8.416
 2710POPC   C3A36245  29.213  31.565   8.052
 2710POPC   C4A36246  29.235  31.683   7.619
 2710POPC   C1B36247  29.290  31.127   8.733
 2710POPC   C2B36248  29.178  31.134   8.325
 2710POPC   C3B36249  29.448  31.084   7.993
 2710POPC   C4B36250  29.537  31.269   7.631
 2711POPC   NC336251  29.545  38.080   9.593
 2711POPC   PO436252  29.680  37.301   9.512
 2711POPC   GL136253  29.702  37.505   9.155
 2711POPC   GL236254  29.862  37.805   9.267
 2711POPC   C1A36255  29.850  37.359   8.761
 2711POPC   D2A36256  29.709  37.194   8.375
 2711POPC   C3A36257  29.903  37.383   8.013
 2711POPC   C4A36258  29.802  37.384   7.572
 2711POPC   C1B36259  29.911  37.863   8.830
 2711POPC   C2B36260  30.111  37.812   8.439
 2711POPC   C3B36261  30.049  37.892   8.029
 2711POPC   C4B36262  30.198  37.667   7.689
 2712POPC   NC336263  33.564  11.462   9.511
 2712POPC   PO436264  33.624  10.808   9.433
 2712POPC   GL136265  33.886  11.085   9.130
 2712POPC   GL236266  33.933  11.451   9.166
 2712POPC   C1A36267  33.785  11.288   8.703
 2712POPC   D2A36268  33.640  11.515   8.327
 2712POPC   C3A36269  33.739  11.294   7.973
 2712POPC   C4A36270  33.906  11.157   7.598
 2712POPC   C1B36271  34.207  11.558   8.835
 2712POPC   C2B36272  34.090  11.698   8.472
 2712POPC   C3B36273  34.168  11.492   8.124
 2712POPC   C4B36274  34.095  11.616   7.727
 2713POPC   NC336275   8.035  10.174   9.512
 2713POPC   PO436276   8.484   9.669   9.717
 2713POPC   GL136277   8.339   9.792   9.286
 2713POPC   GL236278   8.405  10.131   9.147
 2713POPC   C1A36279   8.358   9.686   8.842
 2713POPC   D2A36280   8.201   9.784   8.415
 2713POPC   C3A36281   8.076   9.551   8.024
 2713POPC   C4A36282   7.722   9.737   7.800
 2713POPC   C1B36283   8.092  10.145   8.791
 2713POPC   C2B36284   8.108  10.292   8.352
 2713POPC   C3B36285   8.133  10.048   7.964
 2713POPC   C4B36286   8.223   9.955   7.525
 2714POPC   NC336287  20.557  44.908   9.930
 2714POPC   PO436288  20.391  44.497   9.320
 2714POPC   GL136289  20.501  44.494   8.919
 2714POPC   GL236290  20.725  44.746   8.968
 2714POPC   C1A36291  20.842  44.313   8.666
 2714POPC   D2A36292  21.087  44.575   8.415
 2714POPC   C3A36293  20.710  44.721   8.201
 2714POPC   C4A36294  20.606  44.657   7.786
 2714POPC   C1B36295  20.752  44.999   8.641
 2714POPC   C2B36296  21.032   0.108   8.327
 2714POPC   C3B36297  20.937   0.075   7.899
 2714POPC   C4B36298  20.893  44.997   7.471
 2715POPC   NC336299   3.390  31.233   9.520
 2715POPC   PO436300   3.565  31.937   9.543
 2715POPC   GL136301   3.458  31.654   9.211
 2715POPC   GL236302   3.757  31.406   9.194
 2715POPC   C1A36303   3.401  31.437   8.813
 2715POPC   D2A36304   3.587  31.522   8.421
 2715POPC   C3A36305   3.389  31.561   8.042
 2715POPC   C4A36306   3.255  31.305   7.719
 2715POPC   C1B36307   3.867  31.700   8.849
 2715POPC   C2B36308   4.088  31.721   8.439
 2715POPC   C3B36309   3.910  31.694   8.016
 2715POPC   C4B36310   3.772  31.317   7.841
 2716POPC   NC336311  31.232  16.915   9.715
 2716POPC   PO436312  30.655  16.539   9.564
 2716POPC   GL136313  30.571  16.511   9.168
 2716POPC   GL236314  30.694  16.867   9.150
 2716POPC   C1A36315  30.422  16.645   8.777
 2716POPC   D2A36316  30.696  16.749   8.467
 2716POPC   C3A36317  30.525  16.677   8.105
 2716POPC   C4A36318  30.393  16.886   7.757
 2716POPC   C1B36319  30.688  17.150   8.808
 2716POPC   C2B36320  30.736  17.280   8.397
 2716POPC   C3B36321  30.791  17.103   7.991
 2716POPC   C4B36322  31.149  17.062   7.724
 2717POPC   NC336323  15.212  17.116   9.509
 2717POPC   PO436324  15.127  16.496   9.459
 2717POPC   GL136325  15.081  16.750   9.134
 2717POPC   GL236326  15.433  16.828   9.104
 2717POPC   C1A36327  14.907  16.863   8.722
 2717POPC   D2A36328  15.067  16.754   8.307
 2717POPC   C3A36329  14.836  16.785   7.940
 2717POPC   C4A36330  14.831  16.523   7.568
 2717POPC   C1B36331  15.330  16.566   8.735
 2717POPC   C2B36332  15.434  16.392   8.331
 2717POPC   C3B36333  15.265  16.456   7.900
 2717POPC   C4B36334  15.225  16.807   7.587
 2718POPC   NC336335  24.135  36.295   9.445
 2718POPC   PO436336  24.658  35.842   9.498
 2718POPC   GL136337  24.422  35.960   9.134
 2718POPC   GL236338  24.058  35.917   9.110
 2718POPC   C1A36339  24.589  36.053   8.725
 2718POPC   D2A36340  24.519  35.992   8.295
 2718POPC   C3A36341  24.611  36.289   7.976
 2718POPC   C4A36342  24.396  35.990   7.755
 2718POPC   C1B36343  24.128  36.237   8.764
 2718POPC   C2B36344  24.285  36.439   8.342
 2718POPC   C3B36345  24.105  36.360   7.914
 2718POPC   C4B36346  23.942  36.137   7.535
 2719POPC   NC336347   0.098   2.727   9.482
 2719POPC   PO436348  44.414   2.873   9.456
 2719POPC   GL136349  44.690   2.874   9.139
 2719POPC   GL236350  44.766   2.513   9.134
 2719POPC   C1A36351  44.489   2.927   8.750
 2719POPC   D2A36352  44.501   2.731   8.356
 2719POPC   C3A36353  44.671   2.954   8.042
 2719POPC   C4A36354  44.526   2.817   7.680
 2719POPC   C1B36355  44.825   2.533   8.699
 2719POPC   C2B36356  44.939   2.392   8.325
 2719POPC   C3B36357  44.765   2.451   7.967
 2719POPC   C4B36358  44.947   2.533   7.604
 2720POPC   NC336359  13.526  40.130   9.657
 2720POPC   PO436360  14.125  40.257   9.417
 2720POPC   GL136361  13.807  40.037   9.155
 2720POPC   GL236362  13.511  40.155   9.112
 2720POPC   C1A36363  13.689  39.791   8.772
 2720POPC   D2A36364  13.499  39.900   8.379
 2720POPC   C3A36365  13.525  39.660   8.025
 2720POPC   C4A36366  13.348  39.690   7.655
 2720POPC   C1B36367  13.649  40.308   8.668
 2720POPC   C2B36368  13.627  40.362   8.168
 2720POPC   C3B36369  13.513  40.154   7.789
 2720POPC   C4B36370  13.385  40.084   7.354
 2721POPC   NC336371  15.992  33.175   9.474
 2721POPC   PO436372  15.665  32.597   9.489
 2721POPC   GL136373  15.785  32.825   9.122
 2721POPC   GL236374  15.654  33.170   9.099
 2721POPC   C1A36375  16.108  32.938   8.795
 2721POPC   D2A36376  16.459  32.930   8.499
 2721POPC   C3A36377  16.332  32.936   8.080
 2721POPC   C4A36378  16.058  33.071   7.781
 2721POPC   C1B36379  15.614  33.033   8.690
 2721POPC   C2B36380  15.826  33.035   8.315
 2721POPC   C3B36381  15.578  33.078   7.971
 2721POPC   C4B36382  15.660  33.320   7.620
 2722POPC   NC336383  35.285  16.286   9.445
 2722POPC   PO436384  35.269  15.644   9.533
 2722POPC   GL136385  35.385  15.752   9.144
 2722POPC   GL236386  35.726  15.852   9.165
 2722POPC   C1A36387  35.271  16.001   8.778
 2722POPC   D2A36388  35.033  16.077   8.382
 2722POPC   C3A36389  35.085  15.857   7.987
 2722POPC   C4A36390  35.097  16.056   7.563
 2722POPC   C1B36391  35.709  15.618   8.776
 2722POPC   C2B36392  35.483  15.726   8.406
 2722POPC   C3B36393  35.535  16.039   8.129
 2722POPC   C4B36394  35.559  15.855   7.745
 2723POPC   NC336395  27.286  34.093   9.612
 2723POPC   PO436396  27.803  33.699   9.473
 2723POPC   GL136397  27.602  33.739   9.136
 2723POPC   GL236398  27.486  34.083   9.080
 2723POPC   C1A36399  27.440  33.529   8.786
 2723POPC   D2A36400  27.189  33.573   8.415
 2723POPC   C3A36401  27.416  33.542   8.041
 2723POPC   C4A36402  27.717  33.488   7.743
 2723POPC   C1B36403  27.680  33.966   8.689
 2723POPC   C2B36404  27.795  33.821   8.278
 2723POPC   C3B36405  27.783  34.030   7.876
 2723POPC   C4B36406  27.918  34.042   7.428
 2724POPC   NC336407   7.065  21.090   9.435
 2724POPC   PO436408   7.612  20.726   9.636
 2724POPC   GL136409   7.521  20.590   9.168
 2724POPC   GL236410   7.205  20.738   9.107
 2724POPC   C1A36411   7.394  20.583   8.699
 2724POPC   D2A36412   7.571  20.443   8.376
 2724POPC   C3A36413   7.413  20.406   8.023
 2724POPC   C4A36414   7.673  20.336   7.666
 2724POPC   C1B36415   7.132  21.037   8.789
 2724POPC   C2B36416   7.111  21.113   8.369
 2724POPC   C3B36417   7.313  20.930   8.039
 2724POPC   C4B36418   7.333  20.745   7.648
 2725POPC   NC336419  33.470  24.561   9.582
 2725POPC   PO436420  34.120  24.847   9.446
 2725POPC   GL136421  33.842  24.616   9.210
 2725POPC   GL236422  33.595  24.877   9.220
 2725POPC   C1A36423  33.859  24.324   8.868
 2725POPC   D2A36424  33.828  24.149   8.447
 2725POPC   C3A36425  33.829  24.361   8.043
 2725POPC   C4A36426  33.864  24.557   7.643
 2725POPC   C1B36427  33.517  24.768   8.817
 2725POPC   C2B36428  33.643  24.651   8.412
 2725POPC   C3B36429  33.619  24.866   7.987
 2725POPC   C4B36430  33.540  24.913   7.517
 2726POPC   NC336431  32.429  37.909   9.505
 2726POPC   PO436432  32.451  37.349   9.249
 2726POPC   GL136433  32.074  37.637   9.222
 2726POPC   GL236434  32.087  38.002   9.123
 2726POPC   C1A36435  31.932  37.526   8.834
 2726POPC   D2A36436  32.241  37.409   8.549
 2726POPC   C3A36437  32.111  37.542   8.186
 2726POPC   C4A36438  32.262  37.626   7.794
 2726POPC   C1B36439  31.852  38.008   8.740
 2726POPC   C2B36440  32.011  38.056   8.332
 2726POPC   C3B36441  32.414  37.967   8.155
 2726POPC   C4B36442  32.429  38.127   7.750
 2727POPC   NC336443  44.331  32.487   9.450
 2727POPC   PO436444  44.826  32.094   9.539
 2727POPC   GL136445  44.635  32.029   9.111
 2727POPC   GL236446  44.401  32.300   9.005
 2727POPC   C1A36447  44.528  32.013   8.645
 2727POPC   D2A36448  44.430  32.397   8.389
 2727POPC   C3A36449  44.457  32.301   7.955
 2727POPC   C4A36450  44.425  31.915   7.736
 2727POPC   C1B36451  44.753  32.552   8.871
 2727POPC   C2B36452  44.794  32.738   8.466
 2727POPC   C3B36453  44.863  32.616   8.067
 2727POPC   C4B36454  44.882  32.402   7.690
 2728POPC   NC336455  39.322  23.779   9.261
 2728POPC   PO436456  38.765  23.829   9.708
 2728POPC   GL136457  38.848  23.539   9.241
 2728POPC   GL236458  39.135  23.317   9.135
 2728POPC   C1A36459  38.902  23.607   8.757
 2728POPC   D2A36460  38.900  23.419   8.322
 2728POPC   C3A36461  39.020  23.633   7.910
 2728POPC   C4A36462  39.125  23.626   7.432
 2728POPC   C1B36463  39.369  23.394   8.710
 2728POPC   C2B36464  39.424  23.399   8.233
 2728POPC   C3B36465  39.523  23.739   7.918
 2728POPC   C4B36466  39.534  23.920   7.503
 2729POPC   NC336467  28.183  33.478   9.386
 2729POPC   PO436468  28.475  33.042   9.664
 2729POPC   GL136469  28.554  33.159   9.229
 2729POPC   GL236470  28.361  32.886   9.043
 2729POPC   C1A36471  28.683  33.199   8.788
 2729POPC   D2A36472  28.432  32.943   8.484
 2729POPC   C3A36473  28.449  32.937   8.019
 2729POPC   C4A36474  28.576  32.961   7.557
 2729POPC   C1B36475  28.181  33.258   8.803
 2729POPC   C2B36476  27.881  33.362   8.504
 2729POPC   C3B36477  28.061  33.365   8.100
 2729POPC   C4B36478  28.173  33.217   7.696
 2730POPC   NC336479  43.920  23.309   9.496
 2730POPC   PO436480  43.637  23.927   9.532
 2730POPC   GL136481  43.609  23.753   9.165
 2730POPC   GL236482  43.327  24.005   9.085
 2730POPC   C1A36483  43.920  23.648   8.860
 2730POPC   D2A36484  43.866  23.361   8.526
 2730POPC   C3A36485  43.988  23.542   8.100
 2730POPC   C4A36486  44.297  23.650   7.754
 2730POPC   C1B36487  43.592  24.023   8.739
 2730POPC   C2B36488  43.682  23.839   8.388
 2730POPC   C3B36489  43.709  24.003   7.995
 2730POPC   C4B36490  43.423  24.146   7.701
 2731POPC   NC336491  43.099  25.458   9.507
 2731POPC   PO436492  43.179  24.778   9.488
 2731POPC   GL136493  42.998  24.948   9.116
 2731POPC   GL236494  42.915  25.284   9.058
 2731POPC   C1A36495  43.175  24.986   8.714
 2731POPC   D2A36496  43.171  25.310   8.393
 2731POPC   C3A36497  43.063  25.175   7.975
 2731POPC   C4A36498  43.420  25.011   7.790
 2731POPC   C1B36499  43.132  25.600   8.819
 2731POPC   C2B36500  43.219  25.820   8.447
 2731POPC   C3B36501  43.121  25.692   8.033
 2731POPC   C4B36502  43.299  25.577   7.638
 2732POPC   NC336503  41.755  19.429   9.809
 2732POPC   PO436504  41.326  18.992   9.526
 2732POPC   GL136505  41.542  19.013   9.139
 2732POPC   GL236506  41.353  19.341   9.110
 2732POPC   C1A36507  41.567  18.778   8.743
 2732POPC   D2A36508  41.841  18.548   8.466
 2732POPC   C3A36509  41.689  18.686   8.099
 2732POPC   C4A36510  41.470  18.695   7.747
 2732POPC   C1B36511  41.566  19.312   8.720
 2732POPC   C2B36512  41.459  19.116   8.343
 2732POPC   C3B36513  41.526  19.162   7.942
 2732POPC   C4B36514  41.277  19.379   7.675
 2733POPC   NC336515   0.591  17.911   9.994
 2733POPC   PO436516   0.400  18.333   9.484
 2733POPC   GL136517   0.333  18.294   9.064
 2733POPC   GL236518   0.319  17.931   9.050
 2733POPC   C1A36519   0.381  18.212   8.625
 2733POPC   D2A36520   0.202  18.005   8.279
 2733POPC   C3A36521   0.163  18.321   7.941
 2733POPC   C4A36522   0.389  18.505   7.580
 2733POPC   C1B36523   0.637  17.771   8.726
 2733POPC   C2B36524   0.808  17.940   8.331
 2733POPC   C3B36525   0.578  18.005   7.947
 2733POPC   C4B36526   0.198  17.846   7.769
 2734POPC   NC336527  14.039  28.966   9.416
 2734POPC   PO436528  14.620  29.276   9.631
 2734POPC   GL136529  14.584  29.103   9.217
 2734POPC   GL236530  14.853  28.842   9.202
 2734POPC   C1A36531  14.370  29.244   8.830
 2734POPC   D2A36532  14.271  29.542   8.476
 2734POPC   C3A36533  14.235  29.325   8.067
 2734POPC   C4A36534  14.318  29.153   7.667
 2734POPC   C1B36535  14.864  29.055   8.778
 2734POPC   C2B36536  14.607  29.122   8.374
 2734POPC   C3B36537  14.730  29.012   7.928
 2734POPC   C4B36538  14.845  28.740   7.559
 2735POPC   NC336539  18.130  43.635   9.563
 2735POPC   PO436540  18.716  43.986   9.557
 2735POPC   GL136541  18.578  43.778   9.189
 2735POPC   GL236542  18.238  43.849   9.099
 2735POPC   C1A36543  18.610  43.579   8.789
 2735POPC   D2A36544  18.781  43.620   8.325
 2735POPC   C3A36545  18.476  43.787   8.018
 2735POPC   C4A36546  18.442  44.198   7.912
 2735POPC   C1B36547  18.180  43.811   8.649
 2735POPC   C2B36548  18.082  43.547   8.284
 2735POPC   C3B36549  17.909  43.706   7.925
 2735POPC   C4B36550  17.923  44.148   7.934
 2736POPC   NC336551  12.978  11.080   9.608
 2736POPC   PO436552  12.599  11.689   9.553
 2736POPC   GL136553  12.811  11.401   9.226
 2736POPC   GL236554  12.720  11.011   9.170
 2736POPC   C1A36555  12.983  11.258   8.820
 2736POPC   D2A36556  13.091  11.075   8.461
 2736POPC   C3A36557  13.169  11.216   8.036
 2736POPC   C4A36558  12.972  11.313   7.635
 2736POPC   C1B36559  12.532  11.012   8.736
 2736POPC   C2B36560  12.618  11.145   8.282
 2736POPC   C3B36561  12.620  10.858   7.926
 2736POPC   C4B36562  12.735  10.851   7.487
 2737POPC   NC336563  32.620  28.202   9.437
 2737POPC   PO436564  31.963  28.488   9.468
 2737POPC   GL136565  32.205  28.369   9.131
 2737POPC   GL236566  32.490  28.586   9.093
 2737POPC   C1A36567  32.357  28.247   8.727
 2737POPC   D2A36568  32.596  28.135   8.386
 2737POPC   C3A36569  32.362  28.096   8.020
 2737POPC   C4A36570  32.208  28.377   7.729
 2737POPC   C1B36571  32.608  28.712   8.696
 2737POPC   C2B36572  32.432  28.617   8.291
 2737POPC   C3B36573  32.488  28.758   7.892
 2737POPC   C4B36574  32.580  28.615   7.469
 2738POPC   NC336575  11.184  10.148   9.630
 2738POPC   PO436576  11.430   9.567   9.509
 2738POPC   GL136577  11.159   9.613   9.154
 2738POPC   GL236578  11.038   9.986   9.150
 2738POPC   C1A36579  11.320   9.424   8.761
 2738POPC   D2A36580  11.382   9.622   8.373
 2738POPC   C3A36581  11.063   9.598   8.071
 2738POPC   C4A36582  10.988   9.362   7.738
 2738POPC   C1B36583  11.384   9.957   8.814
 2738POPC   C2B36584  11.541  10.147   8.399
 2738POPC   C3B36585  11.429   9.988   7.996
 2738POPC   C4B36586  11.231  10.110   7.611
 2739POPC   NC336587  10.353   7.851   9.441
 2739POPC   PO436588  10.697   8.465   9.491
 2739POPC   GL136589  10.627   8.224   9.173
 2739POPC   GL236590  10.293   8.207   9.102
 2739POPC   C1A36591  10.684   8.204   8.737
 2739POPC   D2A36592  10.587   7.994   8.367
 2739POPC   C3A36593  10.583   8.253   8.014
 2739POPC   C4A36594  10.540   8.074   7.611
 2739POPC   C1B36595  10.204   8.007   8.729
 2739POPC   C2B36596  10.079   8.112   8.338
 2739POPC   C3B36597  10.220   7.901   7.987
 2739POPC   C4B36598  10.044   8.049   7.651
 2740POPC   NC336599   8.674  23.526   9.444
 2740POPC   PO436600   9.117  24.064   9.533
 2740POPC   GL136601   8.820  24.069   9.180
 2740POPC   GL236602   8.868  23.732   9.040
 2740POPC   C1A36603   8.787  24.114   8.710
 2740POPC   D2A36604   9.042  24.170   8.341
 2740POPC   C3A36605   8.941  24.168   7.935
 2740POPC   C4A36606   8.745  24.133   7.536
 2740POPC   C1B36607   8.799  23.598   8.624
 2740POPC   C2B36608   8.841  23.715   8.217
 2740POPC   C3B36609   8.793  23.702   7.800
 2740POPC   C4B36610   9.058  23.550   7.499
 2741POPC   NC336611   5.845  38.084   9.993
 2741POPC   PO436612   5.529  37.677   9.500
 2741POPC   GL136613   5.671  37.665   9.139
 2741POPC   GL236614   5.941  37.837   9.138
 2741POPC   C1A36615   5.635  37.635   8.726
 2741POPC   D2A36616   5.449  37.406   8.427
 2741POPC   C3A36617   5.684  37.586   8.134
 2741POPC   C4A36618   5.732  37.673   7.740
 2741POPC   C1B36619   6.275  37.914   8.836
 2741POPC   C2B36620   6.093  37.794   8.471
 2741POPC   C3B36621   6.189  37.701   8.075
 2741POPC   C4B36622   6.288  37.900   7.721
 2742POPC   NC336623   6.585   4.622   9.874
 2742POPC   PO436624   6.849   5.145   9.608
 2742POPC   GL136625   6.758   5.071   9.169
 2742POPC   GL236626   6.398   5.100   9.108
 2742POPC   C1A36627   6.738   5.131   8.716
 2742POPC   D2A36628   6.569   5.093   8.324
 2742POPC   C3A36629   6.771   5.165   7.923
 2742POPC   C4A36630   6.808   4.917   7.530
 2742POPC   C1B36631   6.263   4.921   8.731
 2742POPC   C2B36632   6.181   4.754   8.324
 2742POPC   C3B36633   6.397   4.805   7.949
 2742POPC   C4B36634   6.324   5.030   7.590
 2743POPC   NC336635   5.383  26.418   9.505
 2743POPC   PO436636   5.050  25.941   9.750
 2743POPC   GL136637   4.988  25.967   9.289
 2743POPC   GL236638   5.028  26.308   9.133
 2743POPC   C1A36639   5.053  25.846   8.846
 2743POPC   D2A36640   5.212  25.878   8.406
 2743POPC   C3A36641   5.040  25.755   7.963
 2743POPC   C4A36642   4.940  26.004   7.560
 2743POPC   C1B36643   5.318  26.288   8.761
 2743POPC   C2B36644   5.273  26.381   8.329
 2743POPC   C3B36645   5.244  26.244   7.908
 2743POPC   C4B36646   5.231  26.514   7.528
 2744POPC   NC336647  44.610  38.136   9.516
 2744POPC   PO436648  44.454  37.503   9.641
 2744POPC   GL136649  44.718  37.629   9.302
 2744POPC   GL236650  44.450  37.800   9.142
 2744POPC   C1A36651  44.765  37.541   8.835
 2744POPC   D2A36652  44.525  37.521   8.439
 2744POPC   C3A36653  44.784  37.557   8.059
 2744POPC   C4A36654  44.888  37.936   7.814
 2744POPC   C1B36655  44.336  37.965   8.746
 2744POPC   C2B36656  44.367  38.042   8.290
 2744POPC   C3B36657  44.372  37.813   7.877
 2744POPC   C4B36658  44.487  37.977   7.477
 2745POPC   NC336659  27.059  17.276   9.494
 2745POPC   PO436660  27.346  17.873   9.499
 2745POPC   GL136661  27.159  17.742   9.094
 2745POPC   GL236662  27.048  17.377   8.998
 2745POPC   C1A36663  27.046  17.768   8.650
 2745POPC   D2A36664  26.894  17.448   8.348
 2745POPC   C3A36665  26.999  17.598   7.955
 2745POPC   C4A36666  27.167  17.892   7.704
 2745POPC   C1B36667  26.635  17.490   8.807
 2745POPC   C2B36668  26.391  17.544   8.411
 2745POPC   C3B36669  26.495  17.544   7.962
 2745POPC   C4B36670  26.673  17.283   7.627
 2746POPC   NC336671  23.281  18.102   9.411
 2746POPC   PO436672  22.648  17.873   9.653
 2746POPC   GL136673  22.815  17.982   9.226
 2746POPC   GL236674  22.946  18.358   9.116
 2746POPC   C1A36675  22.919  17.972   8.797
 2746POPC   D2A36676  22.912  17.906   8.375
 2746POPC   C3A36677  22.776  18.264   8.182
 2746POPC   C4A36678  22.611  18.207   7.811
 2746POPC   C1B36679  23.035  18.475   8.636
 2746POPC   C2B36680  23.169  18.600   8.190
 2746POPC   C3B36681  23.145  18.376   7.784
 2746POPC   C4B36682  23.308  18.401   7.340
 2747POPC   NC336683  41.954  35.274   9.477
 2747POPC   PO436684  41.314  35.442   9.418
 2747POPC   GL136685  41.622  35.386   9.114
 2747POPC   GL236686  41.809  35.717   9.102
 2747POPC   C1A36687  41.673  35.145   8.737
 2747POPC   D2A36688  41.736  35.300   8.338
 2747POPC   C3A36689  41.805  34.999   8.013
 2747POPC   C4A36690  41.779  35.158   7.624
 2747POPC   C1B36691  41.527  35.647   8.702
 2747POPC   C2B36692  41.261  35.515   8.350
 2747POPC   C3B36693  41.424  35.440   7.933
 2747POPC   C4B36694  41.811  35.699   7.915
 2748POPC   NC336695  43.440  22.719   9.403
 2748POPC   PO436696  44.087  22.860   9.535
 2748POPC   GL136697  43.874  22.909   9.165
 2748POPC   GL236698  43.710  23.214   9.029
 2748POPC   C1A36699  44.062  22.942   8.791
 2748POPC   D2A36700  43.995  22.765   8.418
 2748POPC   C3A36701  43.876  23.034   8.109
 2748POPC   C4A36702  44.036  23.209   7.708
 2748POPC   C1B36703  43.569  22.857   8.742
 2748POPC   C2B36704  43.402  22.690   8.358
 2748POPC   C3B36705  43.264  23.005   8.072
 2748POPC   C4B36706  43.549  23.147   7.741
 2749POPC   NC336707  12.244  32.401   9.492
 2749POPC   PO436708  11.888  31.883   9.681
 2749POPC   GL136709  11.875  32.065   9.260
 2749POPC   GL236710  11.810  32.418   9.147
 2749POPC   C1A36711  12.106  31.994   8.866
 2749POPC   D2A36712  11.936  32.016   8.451
 2749POPC   C3A36713  12.169  32.029   8.105
 2749POPC   C4A36714  11.976  32.374   7.915
 2749POPC   C1B36715  11.990  32.474   8.712
 2749POPC   C2B36716  12.344  32.388   8.395
 2749POPC   C3B36717  12.474  32.472   7.918
 2749POPC   C4B36718  12.261  32.586   7.507
 2750POPC   NC336719  30.933   6.467   9.432
 2750POPC   PO436720  30.333   6.879   9.435
 2750POPC   GL136721  30.552   6.651   9.143
 2750POPC   GL236722  30.848   6.815   9.044
 2750POPC   C1A36723  30.460   6.465   8.763
 2750POPC   D2A36724  30.657   6.624   8.417
 2750POPC   C3A36725  30.499   6.540   8.007
 2750POPC   C4A36726  30.416   6.793   7.693
 2750POPC   C1B36727  31.031   6.512   8.789
 2750POPC   C2B36728  31.185   6.625   8.421
 2750POPC   C3B36729  30.997   6.559   8.034
 2750POPC   C4B36730  30.918   6.674   7.630
 2751POPC   NC336731  28.494  24.082   9.453
 2751POPC   PO436732  28.160  23.517   9.376
 2751POPC   GL136733  28.319  23.814   9.057
 2751POPC   GL236734  28.684  23.702   9.166
 2751POPC   C1A36735  28.287  23.823   8.576
 2751POPC   D2A36736  28.278  23.414   8.372
 2751POPC   C3A36737  28.353  23.555   7.995
 2751POPC   C4A36738  28.578  23.961   7.929
 2751POPC   C1B36739  28.645  23.523   8.776
 2751POPC   C2B36740  28.787  23.672   8.400
 2751POPC   C3B36741  28.878  23.563   8.001
 2751POPC   C4B36742  28.710  23.575   7.596
 2752POPC   NC336743   0.251  17.164   9.423
 2752POPC   PO436744   0.670  17.659   9.621
 2752POPC   GL136745   0.644  17.497   9.201
 2752POPC   GL236746   0.320  17.429   9.004
 2752POPC   C1A36747   0.765  17.270   8.842
 2752POPC   D2A36748   0.482  17.295   8.482
 2752POPC   C3A36749   0.596  17.501   8.101
 2752POPC   C4A36750   0.680  17.572   7.668
 2752POPC   C1B36751   0.183  17.037   8.808
 2752POPC   C2B36752   0.203  16.868   8.438
 2752POPC   C3B36753   0.163  17.134   8.105
 2752POPC   C4B36754   0.233  17.351   7.743
 2753POPC   NC336755  10.507   7.038   9.377
 2753POPC   PO436756  10.781   7.662   9.419
 2753POPC   GL136757  10.591   7.738   9.006
 2753POPC   GL236758  10.247   7.603   9.009
 2753POPC   C1A36759  10.614   7.548   8.616
 2753POPC   D2A36760  10.670   7.195   8.329
 2753POPC   C3A36761  10.819   7.332   7.925
 2753POPC   C4A36762  10.648   7.592   7.537
 2753POPC   C1B36763  10.176   7.258   8.700
 2753POPC   C2B36764  10.140   7.057   8.301
 2753POPC   C3B36765   9.971   7.277   7.938
 2753POPC   C4B36766  10.082   7.549   7.583
 2754POPC   NC336767  29.111  20.979   9.454
 2754POPC   PO436768  29.475  21.625   9.416
 2754POPC   GL136769  29.163  21.429   9.113
 2754POPC   GL236770  28.885  21.162   9.046
 2754POPC   C1A36771  29.312  21.202   8.738
 2754POPC   D2A36772  29.551  21.233   8.342
 2754POPC   C3A36773  29.437  21.575   8.078
 2754POPC   C4A36774  29.381  21.586   7.642
 2754POPC   C1B36775  28.811  21.374   8.698
 2754POPC   C2B36776  28.993  21.235   8.310
 2754POPC   C3B36777  28.990  21.390   7.888
 2754POPC   C4B36778  29.007  21.326   7.432
 2755POPC   NC336779  30.536  15.363   9.370
 2755POPC   PO436780  30.912  14.857   9.574
 2755POPC   GL136781  30.899  14.748   9.159
 2755POPC   GL236782  30.881  15.117   9.099
 2755POPC   C1A36783  30.715  14.806   8.765
 2755POPC   D2A36784  30.564  15.151   8.523
 2755POPC   C3A36785  30.619  15.054   8.077
 2755POPC   C4A36786  30.304  15.123   7.753
 2755POPC   C1B36787  31.034  15.291   8.694
 2755POPC   C2B36788  30.936  15.393   8.285
 2755POPC   C3B36789  31.127  15.347   7.927
 2755POPC   C4B36790  31.002  15.108   7.583
 2756POPC   NC336791  10.045  32.739   9.404
 2756POPC   PO436792   9.533  33.079   9.436
 2756POPC   GL136793   9.454  32.965   9.059
 2756POPC   GL236794   9.233  33.234   9.027
 2756POPC   C1A36795   9.698  33.007   8.689
 2756POPC   D2A36796   9.882  32.847   8.300
 2756POPC   C3A36797   9.781  33.000   7.886
 2756POPC   C4A36798  10.030  33.104   7.530
 2756POPC   C1B36799   9.266  33.241   8.582
 2756POPC   C2B36800   9.387  33.229   8.160
 2756POPC   C3B36801   9.412  33.348   7.737
 2756POPC   C4B36802   9.578  33.256   7.323
 2757POPC   NC336803  17.385   9.330   9.577
 2757POPC   PO436804  17.572   8.720   9.638
 2757POPC   GL136805  17.477   8.955   9.270
 2757POPC   GL236806  17.799   9.118   9.229
 2757POPC   C1A36807  17.437   9.155   8.872
 2757POPC   D2A36808  17.643   9.125   8.482
 2757POPC   C3A36809  17.515   9.250   8.058
 2757POPC   C4A36810  17.564   9.001   7.680
 2757POPC   C1B36811  17.757   8.744   8.907
 2757POPC   C2B36812  17.903   8.692   8.487
 2757POPC   C3B36813  17.754   8.701   8.071
 2757POPC   C4B36814  17.837   8.558   7.666
 2758POPC   NC336815  33.158  15.432   9.485
 2758POPC   PO436816  32.703  15.006   9.351
 2758POPC   GL136817  32.935  15.263   9.037
 2758POPC   GL236818  33.295  15.249   9.044
 2758POPC   C1A36819  32.938  15.226   8.581
 2758POPC   D2A36820  32.815  14.875   8.294
 2758POPC   C3A36821  32.796  14.986   7.849
 2758POPC   C4A36822  33.132  15.249   7.692
 2758POPC   C1B36823  33.358  14.975   8.722
 2758POPC   C2B36824  33.396  15.162   8.320
 2758POPC   C3B36825  33.559  15.303   7.953
 2758POPC   C4B36826  33.614  15.118   7.550
 2759POPC   NC336827  17.097  13.336   9.473
 2759POPC   PO436828  16.829  13.938   9.553
 2759POPC   GL136829  16.719  13.873   9.114
 2759POPC   GL236830  16.826  13.525   9.092
 2759POPC   C1A36831  16.486  13.672   8.759
 2759POPC   D2A36832  16.525  13.492   8.325
 2759POPC   C3A36833  16.414  13.745   7.949
 2759POPC   C4A36834  16.395  13.701   7.492
 2759POPC   C1B36835  17.019  13.685   8.740
 2759POPC   C2B36836  17.059  13.553   8.333
 2759POPC   C3B36837  16.908  13.568   7.947
 2759POPC   C4B36838  16.942  13.864   7.612
 2760POPC   NC336839  19.878   6.089   9.571
 2760POPC   PO436840  19.898   5.457   9.300
 2760POPC   GL136841  19.808   5.865   9.128
 2760POPC   GL236842  20.163   6.020   9.142
 2760POPC   C1A36843  19.629   6.134   8.827
 2760POPC   D2A36844  19.685   6.250   8.409
 2760POPC   C3A36845  19.551   5.958   8.084
 2760POPC   C4A36846  19.756   5.617   7.809
 2760POPC   C1B36847  20.186   5.811   8.758
 2760POPC   C2B36848  19.975   5.834   8.378
 2760POPC   C3B36849  20.104   5.937   7.977
 2760POPC   C4B36850  20.281   5.581   7.736
 2761POPC   NC336851  12.210  20.121   9.557
 2761POPC   PO436852  11.784  19.464   9.561
 2761POPC   GL136853  11.914  19.784   9.243
 2761POPC   GL236854  12.262  19.708   9.210
 2761POPC   C1A36855  11.792  19.908   8.801
 2761POPC   D2A36856  11.767  20.146   8.400
 2761POPC   C3A36857  11.587  19.939   8.014
 2761POPC   C4A36858  11.763  19.640   7.680
 2761POPC   C1B36859  12.294  19.997   8.859
 2761POPC   C2B36860  12.209  19.873   8.452
 2761POPC   C3B36861  12.079  19.774   8.048
 2761POPC   C4B36862  12.273  19.932   7.670
 2762POPC   NC336863  34.576  44.161   9.503
 2762POPC   PO436864  34.290  43.498   9.435
 2762POPC   GL136865  34.493  43.794   9.125
 2762POPC   GL236866  34.337  44.135   9.056
 2762POPC   C1A36867  34.739  43.883   8.739
 2762POPC   D2A36868  34.625  44.046   8.298
 2762POPC   C3A36869  34.843  43.857   7.965
 2762POPC   C4A36870  34.698  43.637   7.596
 2762POPC   C1B36871  34.248  44.016   8.643
 2762POPC   C2B36872  34.149  43.651   8.398
 2762POPC   C3B36873  34.369  43.616   8.019
 2762POPC   C4B36874  34.385  44.036   7.804
 2763POPC   NC336875  22.210  27.639   9.723
 2763POPC   PO436876  22.967  27.644   9.794
 2763POPC   GL136877  23.033  27.610   9.251
 2763POPC   GL236878  23.078  27.927   9.104
 2763POPC   C1A36879  22.898  27.405   8.854
 2763POPC   D2A36880  22.916  27.138   8.466
 2763POPC   C3A36881  22.871  27.303   8.035
 2763POPC   C4A36882  22.980  27.308   7.580
 2763POPC   C1B36883  22.775  27.878   8.776
 2763POPC   C2B36884  22.636  27.738   8.385
 2763POPC   C3B36885  22.858  27.865   8.015
 2763POPC   C4B36886  22.950  27.812   7.591
 2764POPC   NC336887  21.589   6.456   9.522
 2764POPC   PO436888  21.085   6.817   9.539
 2764POPC   GL136889  21.282   6.687   9.171
 2764POPC   GL236890  21.645   6.848   9.190
 2764POPC   C1A36891  21.303   6.398   8.821
 2764POPC   D2A36892  21.104   6.497   8.432
 2764POPC   C3A36893  21.245   6.425   8.028
 2764POPC   C4A36894  21.315   6.792   7.806
 2764POPC   C1B36895  21.567   6.833   8.754
 2764POPC   C2B36896  21.654   6.578   8.406
 2764POPC   C3B36897  21.771   6.680   8.004
 2764POPC   C4B36898  21.731   6.498   7.591
 2765POPC   NC336899   4.871  24.732   9.441
 2765POPC   PO436900   5.187  24.070   9.592
 2765POPC   GL136901   5.186  24.386   9.241
 2765POPC   GL236902   4.873  24.375   9.094
 2765POPC   C1A36903   5.299  24.567   8.840
 2765POPC   D2A36904   5.152  24.557   8.407
 2765POPC   C3A36905   5.315  24.766   8.051
 2765POPC   C4A36906   5.350  24.408   7.767
 2765POPC   C1B36907   4.780  24.682   8.740
 2765POPC   C2B36908   4.609  24.683   8.313
 2765POPC   C3B36909   4.821  24.723   7.960
 2765POPC   C4B36910   4.961  24.647   7.550
 2766POPC   NC336911  30.211  16.970   9.407
 2766POPC   PO436912  29.550  16.979   9.397
 2766POPC   GL136913  29.639  16.780   9.060
 2766POPC   GL236914  29.697  16.393   9.167
 2766POPC   C1A36915  29.889  16.989   8.734
 2766POPC   D2A36916  30.209  16.956   8.413
 2766POPC   C3A36917  30.029  16.739   8.058
 2766POPC   C4A36918  29.838  16.852   7.654
 2766POPC   C1B36919  29.929  16.480   8.795
 2766POPC   C2B36920  29.767  16.500   8.405
 2766POPC   C3B36921  29.776  16.318   7.992
 2766POPC   C4B36922  30.164  16.340   7.741
 2767POPC   NC336923   6.015  22.219   9.639
 2767POPC   PO436924   5.439  22.471   9.428
 2767POPC   GL136925   5.606  22.305   9.070
 2767POPC   GL236926   5.899  22.077   9.129
 2767POPC   C1A36927   5.568  22.167   8.660
 2767POPC   D2A36928   5.879  22.087   8.335
 2767POPC   C3A36929   5.938  22.330   7.937
 2767POPC   C4A36930   5.756  22.569   7.611
 2767POPC   C1B36931   5.918  21.778   8.761
 2767POPC   C2B36932   6.259  21.698   8.456
 2767POPC   C3B36933   6.248  21.917   8.040
 2767POPC   C4B36934   6.157  21.985   7.591
 2768POPC   NC336935  18.690   3.403   9.465
 2768POPC   PO436936  18.341   4.028   9.548
 2768POPC   GL136937  18.286   3.675   9.208
 2768POPC   GL236938  17.970   3.464   9.196
 2768POPC   C1A36939  18.214   3.575   8.749
 2768POPC   D2A36940  18.409   3.489   8.353
 2768POPC   C3A36941  18.285   3.630   7.973
 2768POPC   C4A36942  18.519   3.578   7.617
 2768POPC   C1B36943  17.857   3.213   8.846
 2768POPC   C2B36944  18.059   3.137   8.469
 2768POPC   C3B36945  17.957   3.191   8.035
 2768POPC   C4B36946  18.114   3.211   7.620
 2769POPC   NC336947  12.845   6.870   9.531
 2769POPC   PO436948  12.533   6.255   9.387
 2769POPC   GL136949  12.594   6.401   8.993
 2769POPC   GL236950  12.648   6.743   9.073
 2769POPC   C1A36951  12.865   6.571   8.655
 2769POPC   D2A36952  13.173   6.449   8.401
 2769POPC   C3A36953  13.091   6.634   8.046
 2769POPC   C4A36954  12.876   6.595   7.692
 2769POPC   C1B36955  12.421   6.784   8.678
 2769POPC   C2B36956  12.528   6.683   8.246
 2769POPC   C3B36957  12.410   6.669   7.814
 2769POPC   C4B36958  12.581   6.862   7.394
 2770POPC   NC336959   7.703  41.920   9.492
 2770POPC   PO436960   7.375  41.321   9.516
 2770POPC   GL136961   7.272  41.391   9.101
 2770POPC   GL236962   7.297  41.745   9.100
 2770POPC   C1A36963   7.376  41.366   8.677
 2770POPC   D2A36964   7.278  41.635   8.340
 2770POPC   C3A36965   7.395  41.418   7.968
 2770POPC   C4A36966   7.476  41.440   7.526
 2770POPC   C1B36967   7.409  42.005   8.756
 2770POPC   C2B36968   7.754  41.913   8.505
 2770POPC   C3B36969   7.813  41.687   8.151
 2770POPC   C4B36970   7.760  41.891   7.782
 2771POPC   NC336971  34.379  27.517   9.514
 2771POPC   PO436972  35.005  27.775   9.363
 2771POPC   GL136973  34.632  27.779   9.115
 2771POPC   GL236974  34.492  27.443   9.042
 2771POPC   C1A36975  34.644  27.799   8.682
 2771POPC   D2A36976  34.497  27.628   8.303
 2771POPC   C3A36977  34.503  27.826   7.881
 2771POPC   C4A36978  34.825  27.664   7.548
 2771POPC   C1B36979  34.545  27.265   8.672
 2771POPC   C2B36980  34.431  27.111   8.270
 2771POPC   C3B36981  34.538  27.319   7.903
 2771POPC   C4B36982  34.448  27.325   7.470
 2772POPC   NC336983   2.993   7.584   9.685
 2772POPC   PO436984   2.728   6.986   9.527
 2772POPC   GL136985   2.582   7.283   9.152
 2772POPC   GL236986   2.827   7.603   9.108
 2772POPC   C1A36987   2.686   7.231   8.712
 2772POPC   D2A36988   2.478   7.373   8.357
 2772POPC   C3A36989   2.756   7.259   8.041
 2772POPC   C4A36990   2.906   7.314   7.652
 2772POPC   C1B36991   3.077   7.572   8.750
 2772POPC   C2B36992   3.172   7.376   8.367
 2772POPC   C3B36993   3.197   7.552   7.986
 2772POPC   C4B36994   3.020   7.851   7.732
 2773POPC   NC336995   6.887   1.752   9.547
 2773POPC   PO436996   6.274   1.945   9.471
 2773POPC   GL136997   6.520   1.738   9.137
 2773POPC   GL236998   6.844   1.922   9.072
 2773POPC   C1A36999   6.501   1.745   8.676
 2773POPC   D2A37000   6.732   1.907   8.305
 2773POPC   C3A37001   6.568   1.777   7.884
 2773POPC   C4A37002   6.739   1.916   7.467
 2773POPC   C1B37003   6.606   2.214   8.834
 2773POPC   C2B37004   6.480   2.353   8.395
 2773POPC   C3B37005   6.574   2.272   7.952
 2773POPC   C4B37006   6.312   2.136   7.633
 2774POPC   NC337007  23.910  12.817   9.574
 2774POPC   PO437008  23.372  12.412   9.459
 2774POPC   GL137009  23.574  12.803   9.169
 2774POPC   GL237010  23.900  13.068   9.137
 2774POPC   C1A37011  23.691  12.931   8.717
 2774POPC   D2A37012  23.769  13.029   8.297
 2774POPC   C3A37013  23.459  12.757   8.109
 2774POPC   C4A37014  23.335  12.741   7.703
 2774POPC   C1B37015  24.201  13.070   8.771
 2774POPC   C2B37016  24.444  13.111   8.378
 2774POPC   C3B37017  24.190  13.058   8.002
 2774POPC   C4B37018  23.858  12.814   7.800
 2775POPC   NC337019   4.596  13.092   9.834
 2775POPC   PO437020   5.280  12.957   9.586
 2775POPC   GL137021   5.241  12.968   9.131
 2775POPC   GL237022   5.194  12.622   8.969
 2775POPC   C1A37023   5.076  13.013   8.695
 2775POPC   D2A37024   5.213  12.800   8.309
 2775POPC   C3A37025   5.105  13.044   7.979
 2775POPC   C4A37026   4.759  13.179   7.773
 2775POPC   C1B37027   4.979  12.444   8.627
 2775POPC   C2B37028   4.935  12.351   8.198
 2775POPC   C3B37029   5.129  12.533   7.858
 2775POPC   C4B37030   4.741  12.679   7.784
 2776POPC   NC337031  29.680  14.847   9.406
 2776POPC   PO437032  30.121  14.249   9.504
 2776POPC   GL137033  29.887  14.196   9.146
 2776POPC   GL237034  29.610  14.355   9.237
 2776POPC   C1A37035  29.948  14.213   8.749
 2776POPC   D2A37036  29.762  14.149   8.409
 2776POPC   C3A37037  30.130  14.188   8.127
 2776POPC   C4A37038  30.297  14.259   7.712
 2776POPC   C1B37039  29.564  14.531   8.816
 2776POPC   C2B37040  29.835  14.663   8.470
 2776POPC   C3B37041  29.757  14.523   8.069
 2776POPC   C4B37042  29.452  14.594   7.788
 2777POPC   NC337043  36.575  13.995   9.645
 2777POPC   PO437044  36.875  14.537   9.470
 2777POPC   GL137045  36.976  14.635   9.085
 2777POPC   GL237046  37.343  14.600   9.125
 2777POPC   C1A37047  36.764  14.500   8.699
 2777POPC   D2A37048  36.902  14.523   8.293
 2777POPC   C3A37049  36.645  14.282   8.040
 2777POPC   C4A37050  36.503  14.408   7.662
 2777POPC   C1B37051  37.280  14.507   8.683
 2777POPC   C2B37052  37.413  14.533   8.263
 2777POPC   C3B37053  37.266  14.510   7.831
 2777POPC   C4B37054  36.978  14.214   7.639
 2778POPC   NC337055   0.637  25.831   9.350
 2778POPC   PO437056   0.527  26.431   9.365
 2778POPC   GL137057   0.307  26.138   9.083
 2778POPC   GL237058   0.096  25.880   9.243
 2778POPC   C1A37059   0.354  26.091   8.653
 2778POPC   D2A37060   0.612  26.299   8.394
 2778POPC   C3A37061   0.567  26.147   7.997
 2778POPC   C4A37062   0.736  26.153   7.595
 2778POPC   C1B37063   0.033  25.676   8.838
 2778POPC   C2B37064   0.163  25.605   8.406
 2778POPC   C3B37065   0.102  25.878   8.060
 2778POPC   C4B37066   0.273  25.936   7.634
 2779POPC   NC337067  42.752  43.849   9.699
 2779POPC   PO437068  42.072  43.744   9.846
 2779POPC   GL137069  42.366  43.696   9.408
 2779POPC   GL237070  42.551  44.001   9.234
 2779POPC   C1A37071  42.372  43.641   8.912
 2779POPC   D2A37072  42.189  43.856   8.525
 2779POPC   C3A37073  42.449  43.773   8.160
 2779POPC   C4A37074  42.377  43.684   7.722
 2779POPC   C1B37075  42.647  44.068   8.750
 2779POPC   C2B37076  42.454  44.268   8.351
 2779POPC   C3B37077  42.156  44.191   8.021
 2779POPC   C4B37078  42.364  44.178   7.643
 2780POPC   NC337079  30.889  41.680   9.634
 2780POPC   PO437080  30.524  41.253   9.447
 2780POPC   GL137081  30.616  41.509   9.156
 2780POPC   GL237082  30.336  41.729   9.085
 2780POPC   C1A37083  30.786  41.304   8.814
 2780POPC   D2A37084  30.625  41.114   8.461
 2780POPC   C3A37085  30.833  41.259   8.073
 2780POPC   C4A37086  30.608  41.460   7.735
 2780POPC   C1B37087  30.774  41.838   8.819
 2780POPC   C2B37088  30.908  41.627   8.447
 2780POPC   C3B37089  30.778  41.777   8.092
 2780POPC   C4B37090  30.799  41.984   7.726
 2781POPC   NC337091  30.905  21.516   9.630
 2781POPC   PO437092  30.264  21.298   9.325
 2781POPC   GL137093  30.639  21.538   9.149
 2781POPC   GL237094  31.002  21.402   9.151
 2781POPC   C1A37095  30.707  21.487   8.716
 2781POPC   D2A37096  30.589  21.153   8.443
 2781POPC   C3A37097  30.573  21.334   8.032
 2781POPC   C4A37098  30.351  21.388   7.632
 2781POPC   C1B37099  31.190  21.635   8.830
 2781POPC   C2B37100  31.102  21.852   8.434
 2781POPC   C3B37101  31.050  21.719   8.008
 2781POPC   C4B37102  30.907  21.452   7.645
 2782POPC   NC337103   1.657   7.952   9.533
 2782POPC   PO437104   2.136   8.445   9.521
 2782POPC   GL137105   2.088   8.245   9.115
 2782POPC   GL237106   1.706   8.194   9.101
 2782POPC   C1A37107   2.265   8.247   8.671
 2782POPC   D2A37108   2.344   7.988   8.301
 2782POPC   C3A37109   2.096   8.071   7.918
 2782POPC   C4A37110   1.891   7.847   7.564
 2782POPC   C1B37111   1.846   7.957   8.754
 2782POPC   C2B37112   1.847   8.130   8.374
 2782POPC   C3B37113   1.653   8.360   8.054
 2782POPC   C4B37114   1.578   8.230   7.699
 2783POPC   NC337115  29.687  32.243   9.428
 2783POPC   PO437116  30.362  32.029   9.322
 2783POPC   GL137117  30.015  32.015   9.092
 2783POPC   GL237118  30.015  32.346   9.056
 2783POPC   C1A37119  30.059  32.041   8.664
 2783POPC   D2A37120  30.247  31.915   8.321
 2783POPC   C3A37121  30.252  32.245   8.055
 2783POPC   C4A37122  29.996  32.406   7.736
 2783POPC   C1B37123  29.774  32.498   8.744
 2783POPC   C2B37124  29.889  32.476   8.361
 2783POPC   C3B37125  29.631  32.437   8.065
 2783POPC   C4B37126  29.476  32.631   7.729
 2784POPC   NC337127  10.415  34.993   9.462
 2784POPC   PO437128  10.117  34.408   9.474
 2784POPC   GL137129  10.384  34.484   9.159
 2784POPC   GL237130  10.657  34.281   9.287
 2784POPC   C1A37131  10.338  34.375   8.711
 2784POPC   D2A37132  10.434  34.242   8.260
 2784POPC   C3A37133  10.387  34.528   7.924
 2784POPC   C4A37134  10.262  34.406   7.569
 2784POPC   C1B37135  10.826  34.226   8.869
 2784POPC   C2B37136  10.901  34.308   8.443
 2784POPC   C3B37137  10.873  34.515   8.036
 2784POPC   C4B37138  10.726  34.843   7.706
 2785POPC   NC337139  44.196   5.712   9.656
 2785POPC   PO437140  43.561   5.975   9.532
 2785POPC   GL137141  43.813   5.957   9.154
 2785POPC   GL237142  44.111   5.733   9.159
 2785POPC   C1A37143  43.937   5.922   8.717
 2785POPC   D2A37144  43.733   5.937   8.325
 2785POPC   C3A37145  44.015   5.896   7.991
 2785POPC   C4A37146  43.754   5.900   7.675
 2785POPC   C1B37147  44.162   5.427   8.825
 2785POPC   C2B37148  44.226   5.510   8.373
 2785POPC   C3B37149  44.237   5.410   7.960
 2785POPC   C4B37150  44.190   5.614   7.592
 2786POPC   NC337151  29.839  43.373   9.495
 2786POPC   PO437152  30.125  42.755   9.533
 2786POPC   GL137153  29.991  42.970   9.209
 2786POPC   GL237154  29.663  42.997   9.179
 2786POPC   C1A37155  29.993  43.200   8.834
 2786POPC   D2A37156  29.713  43.225   8.489
 2786POPC   C3A37157  29.904  43.215   8.087
 2786POPC   C4A37158  29.985  43.340   7.684
 2786POPC   C1B37159  29.742  42.750   8.807
 2786POPC   C2B37160  29.536  42.641   8.448
 2786POPC   C3B37161  29.498  42.915   8.115
 2786POPC   C4B37162  29.701  42.901   7.706
 2787POPC   NC337163  21.461  31.702   9.819
 2787POPC   PO437164  21.542  32.296   9.506
 2787POPC   GL137165  21.496  32.299   9.131
 2787POPC   GL237166  21.687  31.960   9.136
 2787POPC   C1A37167  21.233  32.353   8.772
 2787POPC   D2A37168  21.149  32.240   8.360
 2787POPC   C3A37169  21.430  32.374   8.015
 2787POPC   C4A37170  21.297  32.502   7.619
 2787POPC   C1B37171  21.707  32.142   8.730
 2787POPC   C2B37172  21.659  32.060   8.355
 2787POPC   C3B37173  21.835  32.043   7.970
 2787POPC   C4B37174  21.736  32.242   7.607
 2788POPC   NC337175  40.435  13.188   9.357
 2788POPC   PO437176  40.279  13.791   9.635
 2788POPC   GL137177  40.181  13.835   9.222
 2788POPC   GL237178  40.378  13.626   9.071
 2788POPC   C1A37179  39.940  13.818   8.844
 2788POPC   D2A37180  39.815  13.637   8.470
 2788POPC   C3A37181  39.987  13.710   8.063
 2788POPC   C4A37182  39.787  13.978   7.763
 2788POPC   C1B37183  40.310  13.399   8.688
 2788POPC   C2B37184  40.490  13.430   8.253
 2788POPC   C3B37185  40.285  13.292   7.877
 2788POPC   C4B37186  39.988  13.394   7.653
 2789POPC   NC337187   3.456   0.102   9.638
 2789POPC   PO437188   3.178  44.470   9.513
 2789POPC   GL137189   3.255  44.753   9.208
 2789POPC   GL237190   3.585  44.875   9.172
 2789POPC   C1A37191   3.245  44.878   8.791
 2789POPC   D2A37192   3.414  44.997   8.419
 2789POPC   C3A37193   3.197  44.809   8.068
 2789POPC   C4A37194   3.344  44.757   7.643
 2789POPC   C1B37195   3.809  44.898   8.793
 2789POPC   C2B37196   3.904  44.712   8.406
 2789POPC   C3B37197   3.728  44.726   8.024
 2789POPC   C4B37198   3.804  44.949   7.682
 2790POPC   NC337199  12.507  21.604   9.547
 2790POPC   PO437200  12.398  20.941   9.412
 2790POPC   GL137201  12.199  21.333   9.238
 2790POPC   GL237202  11.831  21.302   9.223
 2790POPC   C1A37203  12.176  21.629   8.875
 2790POPC   D2A37204  12.394  21.645   8.461
 2790POPC   C3A37205  12.222  21.669   8.064
 2790POPC   C4A37206  12.156  21.318   7.804
 2790POPC   C1B37207  11.997  21.135   8.810
 2790POPC   C2B37208  12.071  21.203   8.356
 2790POPC   C3B37209  11.813  21.024   8.023
 2790POPC   C4B37210  11.441  21.099   7.793
 2791POPC   NC337211   9.542   0.522   9.626
 2791POPC   PO437212   9.907  44.906   9.505
 2791POPC   GL137213   9.749   0.294   9.219
 2791POPC   GL237214   9.417   0.551   9.145
 2791POPC   C1A37215   9.635   0.299   8.780
 2791POPC   D2A37216   9.745   0.463   8.395
 2791POPC   C3A37217   9.907   0.188   8.089
 2791POPC   C4A37218   9.754   0.377   7.736
 2791POPC   C1B37219   9.593   0.804   8.782
 2791POPC   C2B37220   9.482   0.930   8.362
 2791POPC   C3B37221   9.592   0.796   7.958
 2791POPC   C4B37222   9.463   0.735   7.497
 2792POPC   NC337223  16.203  40.115   9.551
 2792POPC   PO437224  15.564  39.923   9.693
 2792POPC   GL137225  15.850  39.968   9.232
 2792POPC   GL237226  15.903  40.295   9.130
 2792POPC   C1A37227  15.862  39.805   8.773
 2792POPC   D2A37228  15.798  39.958   8.322
 2792POPC   C3A37229  15.670  39.822   7.925
 2792POPC   C4A37230  15.678  40.155   7.645
 2792POPC   C1B37231  15.942  40.292   8.700
 2792POPC   C2B37232  16.261  40.069   8.444
 2792POPC   C3B37233  16.310  40.099   8.054
 2792POPC   C4B37234  16.134  39.954   7.710
 2793POPC   NC337235  26.642  38.383   9.601
 2793POPC   PO437236  27.217  38.527   9.807
 2793POPC   GL137237  27.026  38.569   9.318
 2793POPC   GL237238  26.758  38.313   9.117
 2793POPC   C1A37239  26.995  38.676   8.849
 2793POPC   D2A37240  26.815  38.469   8.484
 2793POPC   C3A37241  26.801  38.669   8.080
 2793POPC   C4A37242  26.956  38.569   7.663
 2793POPC   C1B37243  26.444  38.258   8.774
 2793POPC   C2B37244  26.368  38.100   8.360
 2793POPC   C3B37245  26.427  38.307   7.954
 2793POPC   C4B37246  26.457  38.721   7.711
 2794POPC   NC337247  20.868   7.987   9.855
 2794POPC   PO437248  21.365   8.361   9.626
 2794POPC   GL137249  21.418   8.105   9.202
 2794POPC   GL237250  21.660   8.225   9.064
 2794POPC   C1A37251  21.195   8.002   8.783
 2794POPC   D2A37252  21.310   8.178   8.307
 2794POPC   C3A37253  21.322   7.929   7.919
 2794POPC   C4A37254  21.041   7.763   7.636
 2794POPC   C1B37255  21.656   8.129   8.661
 2794POPC   C2B37256  21.708   8.492   8.419
 2794POPC   C3B37257  21.862   8.496   8.029
 2794POPC   C4B37258  21.605   8.339   7.665
 2795POPC   NC337259   7.177   3.481   9.613
 2795POPC   PO437260   7.796   3.859   9.567
 2795POPC   GL137261   7.491   3.816   9.230
 2795POPC   GL237262   7.542   3.450   9.218
 2795POPC   C1A37263   7.253   3.901   8.819
 2795POPC   D2A37264   7.220   3.717   8.377
 2795POPC   C3A37265   7.298   3.837   7.953
 2795POPC   C4A37266   7.386   3.442   7.828
 2795POPC   C1B37267   7.626   3.259   8.804
 2795POPC   C2B37268   7.682   3.158   8.364
 2795POPC   C3B37269   7.899   3.235   7.966
 2795POPC   C4B37270   7.781   3.360   7.547
 2796POPC   NC337271   3.122  36.318   9.556
 2796POPC   PO437272   2.460  36.105   9.526
 2796POPC   GL137273   2.796  36.104   9.225
 2796POPC   GL237274   3.006  35.777   9.163
 2796POPC   C1A37275   2.863  36.428   8.913
 2796POPC   D2A37276   2.768  36.427   8.475
 2796POPC   C3A37277   3.034  36.332   8.126
 2796POPC   C4A37278   2.849  36.309   7.724
 2796POPC   C1B37279   2.850  35.933   8.754
 2796POPC   C2B37280   2.709  35.928   8.331
 2796POPC   C3B37281   2.903  35.848   7.921
 2796POPC   C4B37282   2.661  35.827   7.534
 2797POPC   NC337283  19.218   0.149   9.547
 2797POPC   PO437284  18.613   0.469   9.417
 2797POPC   GL137285  18.962   0.375   9.117
 2797POPC   GL237286  19.336   0.270   9.082
 2797POPC   C1A37287  19.096   0.534   8.707
 2797POPC   D2A37288  19.247   0.734   8.343
 2797POPC   C3A37289  19.133   0.501   7.985
 2797POPC   C4A37290  19.199   0.631   7.554
 2797POPC   C1B37291  19.124   0.022   8.786
 2797POPC   C2B37292  18.926   0.118   8.414
 2797POPC   C3B37293  18.924   0.034   8.000
 2797POPC   C4B37294  18.985   0.184   7.584
 2798POPC   NC337295  26.354  13.473   9.761
 2798POPC   PO437296  25.805  13.534   9.277
 2798POPC   GL137297  26.128  13.384   9.107
 2798POPC   GL237298  26.153  13.710   8.962
 2798POPC   C1A37299  26.197  13.312   8.667
 2798POPC   D2A37300  26.041  13.292   8.231
 2798POPC   C3A37301  26.072  13.627   7.924
 2798POPC   C4A37302  25.889  13.536   7.563
 2798POPC   C1B37303  25.898  13.766   8.605
 2798POPC   C2B37304  25.681  13.680   8.229
 2798POPC   C3B37305  25.622  13.882   7.801
 2798POPC   C4B37306  25.519  14.151   7.387
 2799POPC   NC337307  17.943  39.875   9.439
 2799POPC   PO437308  18.522  40.192   9.607
 2799POPC   GL137309  18.406  40.031   9.191
 2799POPC   GL237310  18.579  39.750   9.018
 2799POPC   C1A37311  18.314  40.148   8.768
 2799POPC   D2A37312  18.237  39.955   8.364
 2799POPC   C3A37313  18.559  39.977   8.047
 2799POPC   C4A37314  18.473  40.115   7.607
 2799POPC   C1B37315  18.194  39.621   8.757
 2799POPC   C2B37316  18.163  39.405   8.343
 2799POPC   C3B37317  18.126  39.554   7.936
 2799POPC   C4B37318  18.477  39.615   7.695
 2800POPC   NC337319   9.177  25.187   9.499
 2800POPC   PO437320   8.614  24.925   9.599
 2800POPC   GL137321   8.769  25.181   9.164
 2800POPC   GL237322   9.045  25.387   9.053
 2800POPC   C1A37323   8.938  25.088   8.678
 2800POPC   D2A37324   9.226  25.111   8.306
 2800POPC   C3A37325   9.107  25.235   7.882
 2800POPC   C4A37326   9.081  24.953   7.498
 2800POPC   C1B37327   8.745  25.548   8.786
 2800POPC   C2B37328   8.813  25.507   8.354
 2800POPC   C3B37329   8.615  25.556   7.982
 2800POPC   C4B37330   8.605  25.871   7.672
 2801POPC   NC337331  35.582  39.216   9.591
 2801POPC   PO437332  35.096  39.643   9.375
 2801POPC   GL137333  35.395  39.368   9.107
 2801POPC   GL237334  35.644  39.057   9.115
 2801POPC   C1A37335  35.311  39.485   8.683
 2801POPC   D2A37336  35.014  39.349   8.370
 2801POPC   C3A37337  35.174  39.357   7.939
 2801POPC   C4A37338  35.207  39.237   7.501
 2801POPC   C1B37339  35.478  39.001   8.715
 2801POPC   C2B37340  35.539  39.204   8.302
 2801POPC   C3B37341  35.584  39.070   7.889
 2801POPC   C4B37342  35.223  38.820   7.796
 2802POPC   NC337343   9.903  43.450   9.908
 2802POPC   PO437344   9.517  42.902   9.615
 2802POPC   GL137345   9.803  43.064   9.321
 2802POPC   GL237346   9.815  43.398   9.397
 2802POPC   C1A37347   9.848  42.929   8.893
 2802POPC   D2A37348   9.974  42.823   8.475
 2802POPC   C3A37349   9.757  42.978   8.130
 2802POPC   C4A37350   9.679  42.794   7.734
 2802POPC   C1B37351   9.994  43.420   8.979
 2802POPC   C2B37352   9.949  43.324   8.537
 2802POPC   C3B37353  10.094  43.372   8.126
 2802POPC   C4B37354   9.898  43.331   7.755
 2803POPC   NC337355  30.470  38.092   9.547
 2803POPC   PO437356  30.605  37.411   9.528
 2803POPC   GL137357  30.722  37.697   9.197
 2803POPC   GL237358  30.402  37.597   9.026
 2803POPC   C1A37359  30.867  37.734   8.759
 2803POPC   D2A37360  30.596  37.632   8.414
 2803POPC   C3A37361  30.658  37.664   7.971
 2803POPC   C4A37362  30.935  37.644   7.624
 2803POPC   C1B37363  30.411  37.968   8.824
 2803POPC   C2B37364  30.638  38.161   8.528
 2803POPC   C3B37365  30.526  38.117   8.143
 2803POPC   C4B37366  30.489  38.091   7.713
 2804POPC   NC337367  11.760  28.833   9.546
 2804POPC   PO437368  11.978  29.472   9.431
 2804POPC   GL137369  11.770  29.230   9.176
 2804POPC   GL237370  12.037  29.026   9.132
 2804POPC   C1A37371  11.820  29.345   8.753
 2804POPC   D2A37372  11.896  29.564   8.378
 2804POPC   C3A37373  12.230  29.438   8.135
 2804POPC   C4A37374  12.022  29.377   7.771
 2804POPC   C1B37375  12.203  28.987   8.740
 2804POPC   C2B37376  11.959  29.058   8.359
 2804POPC   C3B37377  11.904  28.898   7.995
 2804POPC   C4B37378  12.306  28.929   7.805
 2805POPC   NC337379   3.107  15.914   9.483
 2805POPC   PO437380   3.839  15.749   9.495
 2805POPC   GL137381   3.564  15.818   9.150
 2805POPC   GL237382   3.224  15.763   9.001
 2805POPC   C1A37383   3.670  15.839   8.724
 2805POPC   D2A37384   3.470  15.759   8.335
 2805POPC   C3A37385   3.647  15.937   7.970
 2805POPC   C4A37386   3.462  16.140   7.602
 2805POPC   C1B37387   3.301  16.168   8.834
 2805POPC   C2B37388   3.472  16.267   8.431
 2805POPC   C3B37389   3.546  16.440   8.032
 2805POPC   C4B37390   3.901  16.405   7.764
 2806POPC   NC337391  43.949  20.605   9.543
 2806POPC   PO437392  43.558  20.178   9.177
 2806POPC   GL137393  43.925  20.381   9.086
 2806POPC   GL237394  43.793  20.745   9.089
 2806POPC   C1A37395  43.942  20.483   8.659
 2806POPC   D2A37396  43.562  20.526   8.422
 2806POPC   C3A37397  43.679  20.662   8.036
 2806POPC   C4A37398  43.865  20.474   7.698
 2806POPC   C1B37399  44.073  20.982   8.834
 2806POPC   C2B37400  44.139  20.885   8.412
 2806POPC   C3B37401  43.971  21.083   8.088
 2806POPC   C4B37402  43.946  20.954   7.684
 2807POPC   NC337403  28.626   7.551   9.370
 2807POPC   PO437404  27.892   7.598   9.406
 2807POPC   GL137405  27.962   7.743   9.013
 2807POPC   GL237406  28.310   7.688   8.986
 2807POPC   C1A37407  27.996   7.531   8.617
 2807POPC   D2A37408  28.349   7.263   8.510
 2807POPC   C3A37409  28.289   7.131   8.101
 2807POPC   C4A37410  27.937   7.221   7.810
 2807POPC   C1B37411  28.612   7.696   8.666
 2807POPC   C2B37412  28.480   7.848   8.290
 2807POPC   C3B37413  28.513   7.806   7.882
 2807POPC   C4B37414  28.388   7.445   7.705
 2808POPC   NC337415  10.853  14.130   9.603
 2808POPC   PO437416  10.194  14.180   9.363
 2808POPC   GL137417  10.336  14.514   9.156
 2808POPC   GL237418  10.707  14.481   9.143
 2808POPC   C1A37419  10.405  14.584   8.735
 2808POPC   D2A37420  10.491  14.324   8.381
 2808POPC   C3A37421  10.521  14.552   8.029
 2808POPC   C4A37422  10.365  14.502   7.624
 2808POPC   C1B37423  10.910  14.342   8.743
 2808POPC   C2B37424  11.207  14.238   8.410
 2808POPC   C3B37425  10.995  14.256   8.035
 2808POPC   C4B37426  10.898  14.409   7.654
 2809POPC   NC337427  10.590  27.058   9.591
 2809POPC   PO437428  10.810  26.485   9.554
 2809POPC   GL137429  10.473  26.698   9.235
 2809POPC   GL237430  10.461  27.054   9.098
 2809POPC   C1A37431  10.302  26.696   8.777
 2809POPC   D2A37432  10.251  26.812   8.334
 2809POPC   C3A37433  10.647  26.851   8.073
 2809POPC   C4A37434  10.816  26.622   7.680
 2809POPC   C1B37435  10.182  27.189   8.751
 2809POPC   C2B37436  10.254  27.334   8.320
 2809POPC   C3B37437  10.279  27.174   7.889
 2809POPC   C4B37438  10.308  27.242   7.422
 2810POPC   NC337439  38.564  18.800   9.606
 2810POPC   PO437440  38.262  19.310   9.810
 2810POPC   GL137441  38.389  19.292   9.273
 2810POPC   GL237442  38.351  18.923   9.171
 2810POPC   C1A37443  38.449  19.257   8.820
 2810POPC   D2A37444  38.618  19.443   8.501
 2810POPC   C3A37445  38.710  19.287   8.116
 2810POPC   C4A37446  38.510  19.190   7.748
 2810POPC   C1B37447  38.186  18.805   8.789
 2810POPC   C2B37448  38.339  18.923   8.400
 2810POPC   C3B37449  38.123  18.715   8.095
 2810POPC   C4B37450  38.166  18.817   7.720
 2811POPC   NC337451  17.587  16.166   9.520
 2811POPC   PO437452  17.715  15.484   9.600
 2811POPC   GL137453  17.573  15.752   9.167
 2811POPC   GL237454  17.532  16.122   9.038
 2811POPC   C1A37455  17.393  15.780   8.691
 2811POPC   D2A37456  17.152  15.615   8.340
 2811POPC   C3A37457  17.255  15.570   7.935
 2811POPC   C4A37458  17.620  15.717   7.789
 2811POPC   C1B37459  17.834  16.034   8.708
 2811POPC   C2B37460  17.694  15.919   8.281
 2811POPC   C3B37461  17.340  16.056   8.015
 2811POPC   C4B37462  17.569  16.221   7.626
 2812POPC   NC337463   5.662  22.944   9.444
 2812POPC   PO437464   5.035  23.084   9.654
 2812POPC   GL137465   5.182  22.969   9.207
 2812POPC   GL237466   5.485  22.842   8.994
 2812POPC   C1A37467   5.088  23.066   8.756
 2812POPC   D2A37468   5.283  23.019   8.338
 2812POPC   C3A37469   4.943  23.063   8.030
 2812POPC   C4A37470   4.585  22.871   7.791
 2812POPC   C1B37471   5.545  23.294   8.770
 2812POPC   C2B37472   5.457  23.503   8.331
 2812POPC   C3B37473   5.383  23.315   7.908
 2812POPC   C4B37474   5.281  22.887   7.684
 2813POPC   NC337475   8.817  20.354   9.465
 2813POPC   PO437476   9.107  20.998   9.399
 2813POPC   GL137477   8.936  20.720   9.137
 2813POPC   GL237478   9.193  20.454   9.132
 2813POPC   C1A37479   8.786  20.484   8.801
 2813POPC   D2A37480   8.819  20.500   8.382
 2813POPC   C3A37481   9.111  20.730   8.146
 2813POPC   C4A37482   8.822  20.675   7.819
 2813POPC   C1B37483   9.180  20.144   8.792
 2813POPC   C2B37484   9.246  20.240   8.361
 2813POPC   C3B37485   9.118  20.236   7.947
 2813POPC   C4B37486   9.451  20.212   7.649
 2814POPC   NC337487  37.557  40.519   9.847
 2814POPC   PO437488  37.916  39.970   9.914
 2814POPC   GL137489  37.640  40.002   9.461
 2814POPC   GL237490  37.346  40.000   9.283
 2814POPC   C1A37491  37.718  39.900   8.977
 2814POPC   D2A37492  37.993  39.944   8.625
 2814POPC   C3A37493  37.816  39.813   8.238
 2814POPC   C4A37494  37.686  39.813   7.801
 2814POPC   C1B37495  37.278  40.176   8.834
 2814POPC   C2B37496  37.463  40.182   8.416
 2814POPC   C3B37497  37.322  40.113   8.009
 2814POPC   C4B37498  37.258  40.189   7.575
 2815POPC   NC337499  16.749   7.742   9.521
 2815POPC   PO437500  16.402   7.222   9.752
 2815POPC   GL137501  16.542   7.105   9.223
 2815POPC   GL237502  16.817   7.306   9.213
 2815POPC   C1A37503  16.577   7.409   8.771
 2815POPC   D2A37504  16.808   7.390   8.342
 2815POPC   C3A37505  16.524   7.491   7.980
 2815POPC   C4A37506  16.291   7.873   7.905
 2815POPC   C1B37507  17.039   7.223   8.804
 2815POPC   C2B37508  17.335   7.295   8.474
 2815POPC   C3B37509  17.281   7.250   8.051
 2815POPC   C4B37510  16.973   7.353   7.788
 2816POPC   NC337511  30.670  28.859   9.289
 2816POPC   PO437512  30.704  28.312   9.730
 2816POPC   GL137513  30.834  28.381   9.296
 2816POPC   GL237514  30.864  28.069   9.140
 2816POPC   C1A37515  30.875  28.487   8.830
 2816POPC   D2A37516  30.917  28.267   8.447
 2816POPC   C3A37517  30.746  28.316   8.048
 2816POPC   C4A37518  30.909  28.652   7.807
 2816POPC   C1B37519  30.565  28.087   8.791
 2816POPC   C2B37520  30.469  27.982   8.356
 2816POPC   C3B37521  30.259  28.074   7.993
 2816POPC   C4B37522  30.465  27.977   7.665
 2817POPC   NC337523   9.274  24.376   9.246
 2817POPC   PO437524   9.873  24.215   9.619
 2817POPC   GL137525   9.793  24.369   9.231
 2817POPC   GL237526   9.636  24.743   9.216
 2817POPC   C1A37527   9.731  24.097   8.868
 2817POPC   D2A37528   9.461  24.261   8.576
 2817POPC   C3A37529   9.563  24.266   8.154
 2817POPC   C4A37530   9.813  24.503   7.822
 2817POPC   C1B37531   9.713  24.638   8.794
 2817POPC   C2B37532   9.619  24.744   8.368
 2817POPC   C3B37533   9.962  24.881   8.129
 2817POPC   C4B37534  10.043  24.970   7.719
 2818POPC   NC337535  10.952  32.672   9.460
 2818POPC   PO437536  10.941  31.963   9.576
 2818POPC   GL137537  10.850  32.033   9.138
 2818POPC   GL237538  10.524  32.094   9.040
 2818POPC   C1A37539  10.911  32.073   8.678
 2818POPC   D2A37540  10.564  32.183   8.371
 2818POPC   C3A37541  10.472  32.014   7.926
 2818POPC   C4A37542  10.449  32.321   7.560
 2818POPC   C1B37543  10.387  32.440   8.817
 2818POPC   C2B37544  10.122  32.443   8.477
 2818POPC   C3B37545  10.203  32.422   8.061
 2818POPC   C4B37546  10.011  32.563   7.706
 2819POPC   NC337547  33.380  38.218   9.474
 2819POPC   PO437548  33.978  38.462   9.683
 2819POPC   GL137549  33.860  38.438   9.264
 2819POPC   GL237550  33.831  38.075   9.239
 2819POPC   C1A37551  33.817  38.670   8.870
 2819POPC   D2A37552  33.631  38.564   8.464
 2819POPC   C3A37553  33.858  38.581   8.071
 2819POPC   C4A37554  33.937  38.870   7.770
 2819POPC   C1B37555  33.822  38.178   8.768
 2819POPC   C2B37556  33.942  38.151   8.312
 2819POPC   C3B37557  33.770  38.126   7.885
 2819POPC   C4B37558  33.957  38.212   7.479
 2820POPC   NC337559  14.731   4.282   9.487
 2820POPC   PO437560  15.363   4.137   9.441
 2820POPC   GL137561  15.083   4.318   9.128
 2820POPC   GL237562  14.953   4.653   9.152
 2820POPC   C1A37563  15.173   4.248   8.732
 2820POPC   D2A37564  15.553   4.375   8.534
 2820POPC   C3A37565  15.427   4.312   8.120
 2820POPC   C4A37566  15.399   4.268   7.672
 2820POPC   C1B37567  14.722   4.534   8.785
 2820POPC   C2B37568  14.788   4.326   8.381
 2820POPC   C3B37569  14.891   4.225   7.941
 2820POPC   C4B37570  14.948   4.481   7.571
 2821POPC   NC337571  30.983  19.441   9.490
 2821POPC   PO437572  30.498  19.969   9.541
 2821POPC   GL137573  30.738  19.905   9.167
 2821POPC   GL237574  30.452  19.811   9.034
 2821POPC   C1A37575  30.859  19.961   8.710
 2821POPC   D2A37576  30.602  19.926   8.299
 2821POPC   C3A37577  30.793  19.857   7.897
 2821POPC   C4A37578  30.905  20.123   7.544
 2821POPC   C1B37579  30.507  19.603   8.683
 2821POPC   C2B37580  30.317  19.501   8.336
 2821POPC   C3B37581  30.320  19.669   7.914
 2821POPC   C4B37582  30.330  19.407   7.569
 2822POPC   NC337583  41.862  43.340   9.913
 2822POPC   PO437584  42.104  43.010   9.395
 2822POPC   GL137585  42.097  42.895   9.036
 2822POPC   GL237586  42.455  43.009   9.035
 2822POPC   C1A37587  42.124  43.046   8.660
 2822POPC   D2A37588  42.098  43.375   8.398
 2822POPC   C3A37589  42.272  43.279   8.040
 2822POPC   C4A37590  42.134  43.207   7.664
 2822POPC   C1B37591  42.546  42.753   8.730
 2822POPC   C2B37592  42.482  42.902   8.325
 2822POPC   C3B37593  42.672  42.868   7.957
 2822POPC   C4B37594  42.564  42.911   7.520
 2823POPC   NC337595  24.633  27.998   9.509
 2823POPC   PO437596  24.363  28.617   9.516
 2823POPC   GL137597  24.457  28.333   9.158
 2823POPC   GL237598  24.219  28.532   9.005
 2823POPC   C1A37599  24.468  28.170   8.709
 2823POPC   D2A37600  24.685  27.906   8.384
 2823POPC   C3A37601  24.838  28.120   8.013
 2823POPC   C4A37602  24.740  28.511   7.801
 2823POPC   C1B37603  24.575  28.658   8.743
 2823POPC   C2B37604  24.594  28.484   8.325
 2823POPC   C3B37605  24.332  28.210   8.086
 2823POPC   C4B37606  24.273  28.407   7.689
 2824POPC   NC337607  21.271  42.377   9.694
 2824POPC   PO437608  21.827  42.644   9.358
 2824POPC   GL137609  21.533  42.268   9.205
 2824POPC   GL237610  21.161  42.159   9.215
 2824POPC   C1A37611  21.456  42.160   8.758
 2824POPC   D2A37612  21.559  42.395   8.361
 2824POPC   C3A37613  21.555  42.170   7.937
 2824POPC   C4A37614  21.717  42.347   7.527
 2824POPC   C1B37615  20.993  42.387   8.890
 2824POPC   C2B37616  21.036  42.323   8.469
 2824POPC   C3B37617  21.142  42.470   8.071
 2824POPC   C4B37618  21.205  42.382   7.616
 2825POPC   NC337619   5.329   6.435   9.389
 2825POPC   PO437620   5.069   7.028   9.530
 2825POPC   GL137621   5.165   6.875   9.147
 2825POPC   GL237622   4.897   6.636   9.141
 2825POPC   C1A37623   5.227   6.664   8.746
 2825POPC   D2A37624   5.256   6.444   8.337
 2825POPC   C3A37625   5.163   6.682   7.976
 2825POPC   C4A37626   5.200   6.846   7.558
 2825POPC   C1B37627   4.754   6.427   8.791
 2825POPC   C2B37628   4.732   6.554   8.351
 2825POPC   C3B37629   4.810   6.320   7.950
 2825POPC   C4B37630   5.136   6.336   7.609
 2826POPC   NC337631  31.541  24.055   9.506
 2826POPC   PO437632  31.264  23.507   9.723
 2826POPC   GL137633  31.358  23.533   9.236
 2826POPC   GL237634  31.694  23.673   9.177
 2826POPC   C1A37635  31.366  23.730   8.770
 2826POPC   D2A37636  31.562  23.839   8.419
 2826POPC   C3A37637  31.303  23.664   8.131
 2826POPC   C4A37638  31.250  23.873   7.774
 2826POPC   C1B37639  31.867  23.921   8.844
 2826POPC   C2B37640  32.009  24.119   8.464
 2826POPC   C3B37641  31.848  24.061   8.040
 2826POPC   C4B37642  31.730  23.683   7.839
 2827POPC   NC337643   8.461  33.273   9.515
 2827POPC   PO437644   8.379  33.935   9.367
 2827POPC   GL137645   8.155  33.710   9.096
 2827POPC   GL237646   8.369  33.431   9.036
 2827POPC   C1A37647   7.982  33.863   8.728
 2827POPC   D2A37648   8.239  33.954   8.382
 2827POPC   C3A37649   8.048  33.996   7.977
 2827POPC   C4A37650   7.955  34.091   7.532
 2827POPC   C1B37651   8.283  33.471   8.598
 2827POPC   C2B37652   8.042  33.494   8.224
 2827POPC   C3B37653   8.244  33.494   7.837
 2827POPC   C4B37654   8.141  33.545   7.380
 2828POPC   NC337655  11.183  20.700   9.473
 2828POPC   PO437656  11.765  20.316   9.479
 2828POPC   GL137657  11.500  20.469   9.117
 2828POPC   GL237658  11.525  20.851   9.073
 2828POPC   C1A37659  11.425  20.582   8.663
 2828POPC   D2A37660  11.405  20.854   8.303
 2828POPC   C3A37661  11.280  20.588   7.995
 2828POPC   C4A37662  11.368  20.316   7.709
 2828POPC   C1B37663  11.100  20.950   8.843
 2828POPC   C2B37664  10.943  21.056   8.418
 2828POPC   C3B37665  10.962  20.967   7.963
 2828POPC   C4B37666  11.159  20.777   7.535
 2829POPC   NC337667  34.040  19.944   9.624
 2829POPC   PO437668  33.536  20.203   9.432
 2829POPC   GL137669  33.837  19.968   9.144
 2829POPC   GL237670  34.239  19.975   9.172
 2829POPC   C1A37671  33.835  19.868   8.719
 2829POPC   D2A37672  33.721  19.772   8.281
 2829POPC   C3A37673  33.702  19.997   7.915
 2829POPC   C4A37674  33.774  19.756   7.520
 2829POPC   C1B37675  34.360  19.812   8.777
 2829POPC   C2B37676  34.211  19.903   8.380
 2829POPC   C3B37677  34.165  19.789   7.990
 2829POPC   C4B37678  34.225  20.004   7.626
 2830POPC   NC337679  15.152  33.574   9.740
 2830POPC   PO437680  15.158  34.158   9.644
 2830POPC   GL137681  15.094  33.819   9.289
 2830POPC   GL237682  15.342  33.544   9.248
 2830POPC   C1A37683  15.015  33.712   8.826
 2830POPC   D2A37684  15.221  33.851   8.424
 2830POPC   C3A37685  15.053  33.949   7.992
 2830POPC   C4A37686  15.356  33.972   7.620
 2830POPC   C1B37687  15.501  33.559   8.801
 2830POPC   C2B37688  15.493  33.424   8.371
 2830POPC   C3B37689  15.405  33.587   7.965
 2830POPC   C4B37690  15.207  33.476   7.543
 2831POPC   NC337691  15.093  18.555   9.330
 2831POPC   PO437692  14.831  19.153   9.528
 2831POPC   GL137693  15.102  19.250   9.177
 2831POPC   GL237694  15.096  18.945   8.982
 2831POPC   C1A37695  15.380  19.305   8.804
 2831POPC   D2A37696  15.288  19.106   8.426
 2831POPC   C3A37697  15.259  19.366   8.072
 2831POPC   C4A37698  15.238  19.292   7.642
 2831POPC   C1B37699  15.167  18.638   8.646
 2831POPC   C2B37700  15.371  18.613   8.255
 2831POPC   C3B37701  15.249  18.868   7.944
 2831POPC   C4B37702  14.862  18.982   7.711
 2832POPC   NC337703  23.109   2.480   9.528
 2832POPC   PO437704  22.777   2.986   9.363
 2832POPC   GL137705  22.771   2.929   8.961
 2832POPC   GL237706  23.016   2.670   9.003
 2832POPC   C1A37707  22.932   2.925   8.537
 2832POPC   D2A37708  23.346   3.010   8.363
 2832POPC   C3A37709  23.222   2.808   8.016
 2832POPC   C4A37710  22.798   2.873   7.892
 2832POPC   C1B37711  22.668   2.512   8.701
 2832POPC   C2B37712  22.491   2.631   8.287
 2832POPC   C3B37713  22.508   2.459   7.862
 2832POPC   C4B37714  22.854   2.488   7.566
 2833POPC   NC337715  22.123  32.211   9.568
 2833POPC   PO437716  22.554  32.132   9.129
 2833POPC   GL137717  22.169  32.157   8.964
 2833POPC   GL237718  21.988  32.419   9.102
 2833POPC   C1A37719  22.161  32.097   8.530
 2833POPC   D2A37720  22.322  32.171   8.167
 2833POPC   C3A37721  22.306  31.890   7.824
 2833POPC   C4A37722  22.282  32.127   7.455
 2833POPC   C1B37723  21.974  32.572   8.669
 2833POPC   C2B37724  21.916  32.496   8.226
 2833POPC   C3B37725  22.124  32.480   7.809
 2833POPC   C4B37726  21.984  32.689   7.394
 2834POPC   NC337727  20.188  33.616   9.455
 2834POPC   PO437728  20.853  33.645   9.421
 2834POPC   GL137729  21.050  33.642   9.049
 2834POPC   GL237730  20.758  33.793   8.886
 2834POPC   C1A37731  20.972  33.378   8.701
 2834POPC   D2A37732  20.581  33.468   8.452
 2834POPC   C3A37733  20.615  33.851   8.191
 2834POPC   C4A37734  20.674  33.862   7.744
 2834POPC   C1B37735  20.358  33.901   8.665
 2834POPC   C2B37736  20.114  33.762   8.273
 2834POPC   C3B37737  20.198  33.735   7.834
 2834POPC   C4B37738  20.313  33.708   7.379
 2835POPC   NC337739  23.102  34.242   9.644
 2835POPC   PO437740  22.639  34.804   9.695
 2835POPC   GL137741  22.904  34.703   9.307
 2835POPC   GL237742  22.975  34.349   9.181
 2835POPC   C1A37743  22.789  34.668   8.854
 2835POPC   D2A37744  22.924  34.722   8.443
 2835POPC   C3A37745  22.734  34.649   8.066
 2835POPC   C4A37746  22.902  34.737   7.668
 2835POPC   C1B37747  23.101  34.251   8.750
 2835POPC   C2B37748  23.351  34.462   8.430
 2835POPC   C3B37749  23.264  34.558   8.022
 2835POPC   C4B37750  23.439  34.392   7.664
 2836POPC   NC337751  35.758   3.562   9.697
 2836POPC   PO437752  35.263   3.118   9.494
 2836POPC   GL137753  35.292   3.317   9.112
 2836POPC   GL237754  35.645   3.213   9.049
 2836POPC   C1A37755  35.443   3.682   8.853
 2836POPC   D2A37756  35.539   3.697   8.403
 2836POPC   C3A37757  35.386   3.766   8.017
 2836POPC   C4A37758  35.081   3.474   7.875
 2836POPC   C1B37759  35.825   3.367   8.647
 2836POPC   C2B37760  35.832   3.337   8.189
 2836POPC   C3B37761  35.584   3.317   7.823
 2836POPC   C4B37762  35.726   3.346   7.422
 2837POPC   NC337763  15.017   9.145   9.554
 2837POPC   PO437764  15.676   9.122   9.430
 2837POPC   GL137765  15.334   8.891   9.139
 2837POPC   GL237766  14.953   8.897   9.110
 2837POPC   C1A37767  15.180   8.888   8.682
 2837POPC   D2A37768  15.424   8.812   8.353
 2837POPC   C3A37769  15.362   9.017   7.970
 2837POPC   C4A37770  15.385   8.851   7.528
 2837POPC   C1B37771  14.679   9.030   8.749
 2837POPC   C2B37772  14.838   9.205   8.394
 2837POPC   C3B37773  14.782   9.117   7.999
 2837POPC   C4B37774  14.974   9.153   7.621
 2838POPC   NC337775  27.130  11.030   9.507
 2838POPC   PO437776  26.483  11.327   9.710
 2838POPC   GL137777  26.639  11.154   9.330
 2838POPC   GL237778  26.876  11.323   9.176
 2838POPC   C1A37779  26.537  11.078   8.869
 2838POPC   D2A37780  26.687  11.144   8.434
 2838POPC   C3A37781  26.412  11.205   8.065
 2838POPC   C4A37782  26.527  11.283   7.633
 2838POPC   C1B37783  27.069  11.294   8.782
 2838POPC   C2B37784  27.080  11.505   8.409
 2838POPC   C3B37785  26.983  11.283   8.021
 2838POPC   C4B37786  27.016  11.486   7.638
 2839POPC   NC337787  15.026   5.048   9.480
 2839POPC   PO437788  15.640   4.962   9.609
 2839POPC   GL137789  15.443   4.892   9.210
 2839POPC   GL237790  15.531   4.559   9.063
 2839POPC   C1A37791  15.355   5.232   8.900
 2839POPC   D2A37792  15.191   5.326   8.482
 2839POPC   C3A37793  15.459   5.244   8.119
 2839POPC   C4A37794  15.467   5.431   7.719
 2839POPC   C1B37795  15.256   4.743   8.759
 2839POPC   C2B37796  15.353   4.814   8.357
 2839POPC   C3B37797  15.440   4.768   7.936
 2839POPC   C4B37798  15.306   4.840   7.546
 2840POPC   NC337799  28.775  38.227   9.395
 2840POPC   PO437800  29.403  38.586   9.542
 2840POPC   GL137801  29.258  38.329   9.211
 2840POPC   GL237802  29.549  38.185   9.102
 2840POPC   C1A37803  29.073  38.394   8.797
 2840POPC   D2A37804  29.229  38.343   8.364
 2840POPC   C3A37805  29.003  38.074   8.116
 2840POPC   C4A37806  28.788  38.328   7.822
 2840POPC   C1B37807  29.468  38.073   8.731
 2840POPC   C2B37808  29.721  38.171   8.401
 2840POPC   C3B37809  29.628  38.243   8.009
 2840POPC   C4B37810  29.300  38.445   7.825
 2841POPC   NC337811   6.346  20.410   9.547
 2841POPC   PO437812   6.995  20.615   9.535
 2841POPC   GL137813   6.696  20.631   9.191
 2841POPC   GL237814   6.626  20.273   9.131
 2841POPC   C1A37815   6.770  20.641   8.736
 2841POPC   D2A37816   6.706  20.405   8.347
 2841POPC   C3A37817   6.911  20.549   7.976
 2841POPC   C4A37818   6.807  20.763   7.621
 2841POPC   C1B37819   6.395  20.174   8.758
 2841POPC   C2B37820   6.192  20.273   8.376
 2841POPC   C3B37821   6.288  20.454   7.958
 2841POPC   C4B37822   6.584  20.295   7.627
 2842POPC   NC337823  44.096  41.835   9.435
 2842POPC   PO437824  43.602  41.442   9.549
 2842POPC   GL137825  43.846  41.456   9.134
 2842POPC   GL237826  44.213  41.412   9.129
 2842POPC   C1A37827  43.979  41.286   8.699
 2842POPC   D2A37828  43.884  41.509   8.301
 2842POPC   C3A37829  43.975  41.445   7.852
 2842POPC   C4A37830  44.190  41.208   7.543
 2842POPC   C1B37831  44.080  41.774   8.784
 2842POPC   C2B37832  44.061  42.042   8.405
 2842POPC   C3B37833  44.081  41.944   7.963
 2842POPC   C4B37834  44.306  41.802   7.583
 2843POPC   NC337835  12.975  42.014   9.493
 2843POPC   PO437836  13.245  42.584   9.453
 2843POPC   GL137837  12.842  42.461   9.188
 2843POPC   GL237838  12.728  42.132   9.054
 2843POPC   C1A37839  12.652  42.535   8.758
 2843POPC   D2A37840  12.581  42.770   8.359
 2843POPC   C3A37841  12.921  42.623   8.090
 2843POPC   C4A37842  12.843  42.565   7.682
 2843POPC   C1B37843  12.955  42.121   8.686
 2843POPC   C2B37844  13.123  42.113   8.272
 2843POPC   C3B37845  13.011  42.142   7.874
 2843POPC   C4B37846  12.607  42.096   7.639
 2844POPC   NC337847  17.155  11.808   9.482
 2844POPC   PO437848  16.582  12.222   9.528
 2844POPC   GL137849  16.817  12.094   9.217
 2844POPC   GL237850  16.721  12.398   9.042
 2844POPC   C1A37851  16.696  11.899   8.850
 2844POPC   D2A37852  16.519  12.166   8.603
 2844POPC   C3A37853  16.702  12.088   8.213
 2844POPC   C4A37854  16.784  12.029   7.790
 2844POPC   C1B37855  17.019  12.307   8.736
 2844POPC   C2B37856  17.137  12.392   8.288
 2844POPC   C3B37857  16.897  12.515   7.924
 2844POPC   C4B37858  16.463  12.441   7.901
 2845POPC   NC337859  38.838  37.154   9.394
 2845POPC   PO437860  38.470  36.647   9.362
 2845POPC   GL137861  38.565  36.869   9.023
 2845POPC   GL237862  38.909  36.832   9.008
 2845POPC   C1A37863  38.608  36.834   8.583
 2845POPC   D2A37864  38.640  36.586   8.240
 2845POPC   C3A37865  38.348  36.780   7.991
 2845POPC   C4A37866  38.303  37.074   7.670
 2845POPC   C1B37867  38.868  37.239   8.754
 2845POPC   C2B37868  38.875  37.231   8.296
 2845POPC   C3B37869  38.758  37.062   7.891
 2845POPC   C4B37870  38.767  36.626   7.743
 2846POPC   NC337871  33.071  43.151   9.629
 2846POPC   PO437872  33.506  42.634   9.303
 2846POPC   GL137873  33.055  42.848   9.186
 2846POPC   GL237874  32.920  43.243   9.176
 2846POPC   C1A37875  32.969  42.994   8.757
 2846POPC   D2A37876  33.246  43.243   8.499
 2846POPC   C3A37877  33.107  43.199   8.068
 2846POPC   C4A37878  32.915  42.796   7.903
 2846POPC   C1B37879  32.625  43.401   8.874
 2846POPC   C2B37880  32.728  43.334   8.448
 2846POPC   C3B37881  32.636  43.439   8.065
 2846POPC   C4B37882  32.708  43.218   7.701
 2847POPC   NC337883  32.825   4.413   9.482
 2847POPC   PO437884  33.237   3.974   9.627
 2847POPC   GL137885  33.302   4.140   9.212
 2847POPC   GL237886  33.121   4.450   9.077
 2847POPC   C1A37887  33.370   4.089   8.765
 2847POPC   D2A37888  33.250   4.393   8.434
 2847POPC   C3A37889  33.354   4.226   8.012
 2847POPC   C4A37890  33.171   4.322   7.593
 2847POPC   C1B37891  32.792   4.534   8.792
 2847POPC   C2B37892  32.725   4.446   8.372
 2847POPC   C3B37893  32.920   4.577   7.991
 2847POPC   C4B37894  32.693   4.422   7.637
 2848POPC   NC337895  27.960   3.417   9.782
 2848POPC   PO437896  27.552   3.679   9.337
 2848POPC   GL137897  27.689   3.556   9.041
 2848POPC   GL237898  27.593   3.220   9.041
 2848POPC   C1A37899  27.894   3.726   8.748
 2848POPC   D2A37900  27.702   3.706   8.412
 2848POPC   C3A37901  27.898   3.642   8.070
 2848POPC   C4A37902  27.761   3.737   7.704
 2848POPC   C1B37903  27.615   3.116   8.617
 2848POPC   C2B37904  27.730   3.181   8.221
 2848POPC   C3B37905  27.437   3.225   7.880
 2848POPC   C4B37906  27.422   3.429   7.516
 2849POPC   NC337907  22.296  33.390   9.533
 2849POPC   PO437908  22.154  32.681   9.504
 2849POPC   GL137909  22.345  32.964   9.219
 2849POPC   GL237910  22.036  33.128   9.166
 2849POPC   C1A37911  22.434  33.286   8.874
 2849POPC   D2A37912  22.311  33.353   8.438
 2849POPC   C3A37913  22.543  33.146   8.128
 2849POPC   C4A37914  22.690  33.192   7.729
 2849POPC   C1B37915  21.824  33.048   8.777
 2849POPC   C2B37916  21.862  33.033   8.345
 2849POPC   C3B37917  22.026  33.239   8.018
 2849POPC   C4B37918  22.233  32.977   7.748
 2850POPC   NC337919   5.095  25.472   9.613
 2850POPC   PO437920   5.386  24.843   9.475
 2850POPC   GL137921   5.092  25.137   9.211
 2850POPC   GL237922   5.222  25.471   9.126
 2850POPC   C1A37923   4.943  25.208   8.780
 2850POPC   D2A37924   4.978  25.033   8.379
 2850POPC   C3A37925   4.914  25.263   8.051
 2850POPC   C4A37926   5.060  25.106   7.708
 2850POPC   C1B37927   5.393  25.477   8.706
 2850POPC   C2B37928   5.349  25.400   8.273
 2850POPC   C3B37929   5.470  25.336   7.850
 2850POPC   C4B37930   5.238  25.559   7.497
 2851POPC   NC337931   6.144  33.113   9.548
 2851POPC   PO437932   5.378  33.122   9.415
 2851POPC   GL137933   5.747  33.124   9.150
 2851POPC   GL237934   5.954  32.851   9.161
 2851POPC   C1A37935   5.863  33.078   8.712
 2851POPC   D2A37936   6.111  33.094   8.346
 2851POPC   C3A37937   5.847  33.075   7.976
 2851POPC   C4A37938   5.644  33.358   7.730
 2851POPC   C1B37939   6.208  32.703   8.817
 2851POPC   C2B37940   6.246  32.588   8.381
 2851POPC   C3B37941   6.231  32.758   7.977
 2851POPC   C4B37942   6.167  32.762   7.511
 2852POPC   NC337943  42.421  18.156   9.561
 2852POPC   PO437944  42.593  18.715   9.331
 2852POPC   GL137945  42.456  18.394   9.084
 2852POPC   GL237946  42.701  18.096   9.140
 2852POPC   C1A37947  42.351  18.485   8.651
 2852POPC   D2A37948  42.635  18.471   8.298
 2852POPC   C3A37949  42.410  18.567   7.949
 2852POPC   C4A37950  42.432  18.886   7.639
 2852POPC   C1B37951  42.737  18.153   8.702
 2852POPC   C2B37952  42.513  17.984   8.335
 2852POPC   C3B37953  42.567  18.077   7.893
 2852POPC   C4B37954  42.313  17.882   7.576
 2853POPC   NC337955  31.906   5.247   9.487
 2853POPC   PO437956  31.455   4.760   9.724
 2853POPC   GL137957  31.537   4.931   9.284
 2853POPC   GL237958  31.493   4.730   8.982
 2853POPC   C1A37959  31.646   5.195   8.899
 2853POPC   D2A37960  31.415   5.151   8.525
 2853POPC   C3A37961  31.544   5.272   8.113
 2853POPC   C4A37962  31.266   5.163   7.795
 2853POPC   C1B37963  31.811   4.787   8.669
 2853POPC   C2B37964  31.796   4.749   8.266
 2853POPC   C3B37965  31.659   4.817   7.864
 2853POPC   C4B37966  31.789   4.741   7.457
 2854POPC   NC337967   3.219  34.643   9.460
 2854POPC   PO437968   3.758  34.199   9.532
 2854POPC   GL137969   3.656  34.497   9.216
 2854POPC   GL237970   3.354  34.357   9.061
 2854POPC   C1A37971   3.645  34.774   8.862
 2854POPC   D2A37972   3.478  34.838   8.451
 2854POPC   C3A37973   3.609  34.827   8.053
 2854POPC   C4A37974   3.361  34.702   7.739
 2854POPC   C1B37975   3.677  34.264   8.752
 2854POPC   C2B37976   3.631  34.360   8.330
 2854POPC   C3B37977   3.526  34.239   7.938
 2854POPC   C4B37978   3.576  34.307   7.509
 2855POPC   NC337979  36.610   2.198   9.432
 2855POPC   PO437980  36.138   1.728   9.504
 2855POPC   GL137981  36.041   1.991   9.163
 2855POPC   GL237982  35.889   2.305   9.298
 2855POPC   C1A37983  35.832   1.911   8.768
 2855POPC   D2A37984  35.799   1.629   8.429
 2855POPC   C3A37985  36.076   1.817   8.151
 2855POPC   C4A37986  36.074   1.935   7.733
 2855POPC   C1B37987  36.029   2.384   8.859
 2855POPC   C2B37988  35.908   2.310   8.438
 2855POPC   C3B37989  35.938   2.355   8.019
 2855POPC   C4B37990  35.883   2.409   7.597
 2856POPC   NC337991   4.766  19.097   9.801
 2856POPC   PO437992   4.897  18.790   9.219
 2856POPC   GL137993   5.236  18.794   8.997
 2856POPC   GL237994   5.270  19.164   9.045
 2856POPC   C1A37995   5.184  18.730   8.551
 2856POPC   D2A37996   4.960  18.908   8.214
 2856POPC   C3A37997   5.059  18.854   7.754
 2856POPC   C4A37998   5.030  18.747   7.319
 2856POPC   C1B37999   5.013  19.209   8.689
 2856POPC   C2B38000   4.962  19.407   8.312
 2856POPC   C3B38001   5.066  19.336   7.910
 2856POPC   C4B38002   5.418  19.276   7.620
 2857POPC   NC338003  36.257   7.439   9.509
 2857POPC   PO438004  35.648   7.240   9.567
 2857POPC   GL138005  35.902   7.206   9.214
 2857POPC   GL238006  35.911   7.570   9.142
 2857POPC   C1A38007  36.184   7.063   8.897
 2857POPC   D2A38008  36.249   7.111   8.487
 2857POPC   C3A38009  35.953   7.354   8.250
 2857POPC   C4A38010  36.073   7.658   7.939
 2857POPC   C1B38011  36.248   7.582   8.809
 2857POPC   C2B38012  36.431   7.578   8.382
 2857POPC   C3B38013  36.604   7.796   8.037
 2857POPC   C4B38014  36.413   7.905   7.641
 2858POPC   NC338015  42.520  19.770   9.778
 2858POPC   PO438016  42.163  20.258   9.297
 2858POPC   GL138017  42.468  20.022   9.092
 2858POPC   GL238018  42.404  19.659   9.027
 2858POPC   C1A38019  42.516  20.026   8.664
 2858POPC   D2A38020  42.195  19.977   8.365
 2858POPC   C3A38021  42.373  19.797   7.999
 2858POPC   C4A38022  42.201  19.680   7.607
 2858POPC   C1B38023  42.064  19.523   8.752
 2858POPC   C2B38024  41.822  19.592   8.375
 2858POPC   C3B38025  41.948  19.453   7.989
 2858POPC   C4B38026  41.781  19.416   7.583
 2859POPC   NC338027  31.549  30.168   9.639
 2859POPC   PO438028  31.377  30.818   9.549
 2859POPC   GL138029  31.527  30.631   9.208
 2859POPC   GL238030  31.769  30.918   9.148
 2859POPC   C1A38031  31.423  30.514   8.772
 2859POPC   D2A38032  31.238  30.729   8.399
 2859POPC   C3A38033  31.433  30.669   7.968
 2859POPC   C4A38034  31.362  30.342   7.702
 2859POPC   C1B38035  31.611  31.005   8.767
 2859POPC   C2B38036  31.741  30.755   8.437
 2859POPC   C3B38037  31.901  30.834   8.099
 2859POPC   C4B38038  31.904  30.696   7.733
 2860POPC   NC338039  40.484   6.202   9.426
 2860POPC   PO438040  41.152   6.097   9.631
 2860POPC   GL138041  41.096   6.006   9.154
 2860POPC   GL238042  40.749   6.067   9.026
 2860POPC   C1A38043  41.004   5.789   8.697
 2860POPC   D2A38044  41.132   5.598   8.277
 2860POPC   C3A38045  40.964   5.810   7.901
 2860POPC   C4A38046  40.902   5.782   7.434
 2860POPC   C1B38047  40.670   6.269   8.627
 2860POPC   C2B38048  40.679   6.200   8.178
 2860POPC   C3B38049  40.459   6.284   7.814
 2860POPC   C4B38050  40.502   6.138   7.370
 2861POPC   NC338051  19.063  35.872   9.407
 2861POPC   PO438052  19.442  36.319   9.748
 2861POPC   GL138053  19.056  36.361   9.336
 2861POPC   GL238054  18.710  36.371   9.250
 2861POPC   C1A38055  19.054  36.243   8.857
 2861POPC   D2A38056  19.255  35.965   8.566
 2861POPC   C3A38057  19.206  36.129   8.167
 2861POPC   C4A38058  19.169  36.447   7.834
 2861POPC   C1B38059  18.589  36.394   8.789
 2861POPC   C2B38060  18.714  36.171   8.387
 2861POPC   C3B38061  18.740  36.196   7.945
 2861POPC   C4B38062  18.511  36.403   7.624
 2862POPC   NC338063  36.673  20.723   9.537
 2862POPC   PO438064  37.261  21.089   9.402
 2862POPC   GL138065  37.191  20.759   9.089
 2862POPC   GL238066  36.837  20.654   9.077
 2862POPC   C1A38067  37.113  20.538   8.686
 2862POPC   D2A38068  36.790  20.388   8.378
 2862POPC   C3A38069  37.039  20.376   8.034
 2862POPC   C4A38070  37.267  20.718   7.857
 2862POPC   C1B38071  36.605  20.750   8.704
 2862POPC   C2B38072  36.470  20.952   8.327
 2862POPC   C3B38073  36.458  20.782   7.944
 2862POPC   C4B38074  36.765  20.741   7.682
 2863POPC   NC338075  26.732   9.381   9.495
 2863POPC   PO438076  27.254   8.940   9.475
 2863POPC   GL138077  27.021   9.141   9.130
 2863POPC   GL238078  26.639   9.122   9.074
 2863POPC   C1A38079  26.994   9.018   8.700
 2863POPC   D2A38080  27.018   9.210   8.314
 2863POPC   C3A38081  27.010   8.971   7.974
 2863POPC   C4A38082  26.700   9.141   7.729
 2863POPC   C1B38083  26.517   8.842   8.745
 2863POPC   C2B38084  26.570   8.941   8.312
 2863POPC   C3B38085  26.458   8.743   7.942
 2863POPC   C4B38086  26.534   8.607   7.519
 2864POPC   NC338087  16.416   1.923   9.500
 2864POPC   PO438088  17.086   2.055   9.706
 2864POPC   GL138089  16.896   1.959   9.274
 2864POPC   GL238090  16.636   2.228   9.166
 2864POPC   C1A38091  16.749   1.839   8.848
 2864POPC   D2A38092  16.707   2.088   8.455
 2864POPC   C3A38093  16.743   1.896   8.047
 2864POPC   C4A38094  17.062   1.635   7.833
 2864POPC   C1B38095  16.986   2.370   8.937
 2864POPC   C2B38096  17.048   2.472   8.515
 2864POPC   C3B38097  16.858   2.445   8.107
 2864POPC   C4B38098  16.911   2.237   7.689
 2865POPC   NC338099  38.945   0.521   9.519
 2865POPC   PO438100  39.561   0.253   9.478
 2865POPC   GL138101  39.303   0.249   9.123
 2865POPC   GL238102  38.930   0.278   9.080
 2865POPC   C1A38103  39.299   0.166   8.711
 2865POPC   D2A38104  38.952   0.210   8.472
 2865POPC   C3A38105  39.201   0.215   8.146
 2865POPC   C4A38106  39.136   0.348   7.800
 2865POPC   C1B38107  39.043   0.600   8.777
 2865POPC   C2B38108  39.154   0.696   8.365
 2865POPC   C3B38109  39.181   0.843   7.955
 2865POPC   C4B38110  38.903   0.763   7.622
 2866POPC   NC338111  44.096  38.786   9.575
 2866POPC   PO438112  44.183  38.198   9.351
 2866POPC   GL138113  44.043  38.443   9.022
 2866POPC   GL238114  43.809  38.708   9.143
 2866POPC   C1A38115  44.086  38.402   8.584
 2866POPC   D2A38116  43.800  38.215   8.311
 2866POPC   C3A38117  43.978  38.120   7.932
 2866POPC   C4A38118  44.047  38.337   7.569
 2866POPC   C1B38119  43.629  38.620   8.714
 2866POPC   C2B38120  43.658  38.714   8.272
 2866POPC   C3B38121  43.645  38.508   7.901
 2866POPC   C4B38122  43.624  38.612   7.478
 2867POPC   NC338123   1.345  13.156   9.549
 2867POPC   PO438124   1.265  13.747   9.699
 2867POPC   GL138125   1.224  13.729   9.264
 2867POPC   GL238126   1.382  13.442   9.125
 2867POPC   C1A38127   1.203  13.896   8.857
 2867POPC   D2A38128   1.293  13.749   8.464
 2867POPC   C3A38129   1.228  13.894   8.060
 2867POPC   C4A38130   1.187  13.807   7.632
 2867POPC   C1B38131   1.254  13.285   8.732
 2867POPC   C2B38132   1.397  13.279   8.309
 2867POPC   C3B38133   1.287  13.389   7.909
 2867POPC   C4B38134   1.426  13.389   7.463
 2868POPC   NC338135  14.623  10.035   9.325
 2868POPC   PO438136  14.117   9.645   9.340
 2868POPC   GL138137  14.454   9.600   9.091
 2868POPC   GL238138  14.679   9.336   9.125
 2868POPC   C1A38139  14.395   9.806   8.703
 2868POPC   D2A38140  14.254  10.058   8.380
 2868POPC   C3A38141  14.185   9.892   7.997
 2868POPC   C4A38142  14.187  10.103   7.653
 2868POPC   C1B38143  14.856   9.570   8.756
 2868POPC   C2B38144  14.723   9.725   8.325
 2868POPC   C3B38145  14.653   9.617   7.922
 2868POPC   C4B38146  14.491   9.713   7.540
 2869POPC   NC338147   9.502  16.461   9.561
 2869POPC   PO438148  10.044  16.024   9.472
 2869POPC   GL138149   9.700  16.008   9.156
 2869POPC   GL238150   9.485  16.279   9.095
 2869POPC   C1A38151   9.758  16.004   8.703
 2869POPC   D2A38152   9.711  15.678   8.377
 2869POPC   C3A38153   9.993  15.774   8.025
 2869POPC   C4A38154  10.026  16.180   7.844
 2869POPC   C1B38155   9.264  16.269   8.718
 2869POPC   C2B38156   9.320  16.042   8.367
 2869POPC   C3B38157   9.544  16.029   8.023
 2869POPC   C4B38158   9.571  16.139   7.619
 2870POPC   NC338159  18.935  18.587   9.567
 2870POPC   PO438160  19.506  18.223   9.661
 2870POPC   GL138161  19.275  18.327   9.284
 2870POPC   GL238162  19.147  18.022   9.177
 2870POPC   C1A38163  19.030  18.479   8.926
 2870POPC   D2A38164  19.015  18.388   8.491
 2870POPC   C3A38165  18.704  18.397   8.154
 2870POPC   C4A38166  19.000  18.551   7.814
 2870POPC   C1B38167  18.875  17.996   8.817
 2870POPC   C2B38168  18.884  17.915   8.370
 2870POPC   C3B38169  19.077  18.097   8.032
 2870POPC   C4B38170  19.070  18.078   7.617
 2871POPC   NC338171  37.296  36.359   9.447
 2871POPC   PO438172  37.226  35.646   9.544
 2871POPC   GL138173  37.131  35.857   9.161
 2871POPC   GL238174  36.901  36.143   9.188
 2871POPC   C1A38175  37.068  35.790   8.696
 2871POPC   D2A38176  36.803  35.956   8.366
 2871POPC   C3A38177  36.980  36.004   7.963
 2871POPC   C4A38178  36.777  36.070   7.574
 2871POPC   C1B38179  37.124  36.295   8.825
 2871POPC   C2B38180  37.210  36.255   8.428
 2871POPC   C3B38181  37.215  36.419   8.084
 2871POPC   C4B38182  37.370  36.236   7.715
 2872POPC   NC338183  20.218   5.158   9.438
 2872POPC   PO438184  20.963   5.326   9.524
 2872POPC   GL138185  20.716   5.086   9.209
 2872POPC   GL238186  20.868   4.808   9.027
 2872POPC   C1A38187  20.564   5.142   8.790
 2872POPC   D2A38188  20.386   5.235   8.373
 2872POPC   C3A38189  20.661   5.160   8.010
 2872POPC   C4A38190  20.603   4.978   7.613
 2872POPC   C1B38191  21.068   5.040   8.681
 2872POPC   C2B38192  21.125   5.031   8.236
 2872POPC   C3B38193  21.024   4.798   7.841
 2872POPC   C4B38194  20.985   4.764   7.356
 2873POPC   NC338195  36.408  43.318   9.549
 2873POPC   PO438196  36.059  42.749   9.634
 2873POPC   GL138197  36.139  43.025   9.214
 2873POPC   GL238198  36.010  43.349   9.132
 2873POPC   C1A38199  36.171  43.085   8.746
 2873POPC   D2A38200  36.000  43.275   8.384
 2873POPC   C3A38201  36.168  42.941   8.153
 2873POPC   C4A38202  36.112  42.933   7.722
 2873POPC   C1B38203  36.314  43.580   8.848
 2873POPC   C2B38204  36.462  43.470   8.433
 2873POPC   C3B38205  36.335  43.386   7.988
 2873POPC   C4B38206  36.524  43.220   7.594
 2874POPC   NC338207  19.267  41.062   9.486
 2874POPC   PO438208  18.660  41.038   9.666
 2874POPC   GL138209  18.792  40.879   9.277
 2874POPC   GL238210  18.698  40.520   9.232
 2874POPC   C1A38211  18.983  40.944   8.875
 2874POPC   D2A38212  18.854  41.014   8.462
 2874POPC   C3A38213  18.992  40.780   8.133
 2874POPC   C4A38214  18.847  40.885   7.728
 2874POPC   C1B38215  18.757  40.428   8.784
 2874POPC   C2B38216  18.535  40.473   8.374
 2874POPC   C3B38217  18.644  40.465   7.912
 2874POPC   C4B38218  18.521  40.598   7.453
 2875POPC   NC338219  22.284  42.861   9.526
 2875POPC   PO438220  21.937  43.394   9.691
 2875POPC   GL138221  22.098  43.326   9.260
 2875POPC   GL238222  22.470  43.253   9.214
 2875POPC   C1A38223  22.108  43.426   8.808
 2875POPC   D2A38224  22.086  43.171   8.450
 2875POPC   C3A38225  22.109  43.456   8.146
 2875POPC   C4A38226  22.091  43.412   7.703
 2875POPC   C1B38227  22.296  42.962   8.885
 2875POPC   C2B38228  22.043  42.669   8.592
 2875POPC   C3B38229  22.047  42.719   8.141
 2875POPC   C4B38230  22.331  43.032   7.956
 2876POPC   NC338231  34.312   9.999   9.621
 2876POPC   PO438232  34.795   9.512   9.560
 2876POPC   GL138233  34.575   9.676   9.223
 2876POPC   GL238234  34.661  10.009   9.204
 2876POPC   C1A38235  34.402   9.812   8.817
 2876POPC   D2A38236  34.580   9.850   8.417
 2876POPC   C3A38237  34.331   9.918   8.072
 2876POPC   C4A38238  34.144   9.938   7.714
 2876POPC   C1B38239  34.875  10.089   8.809
 2876POPC   C2B38240  34.996  10.132   8.369
 2876POPC   C3B38241  34.808  10.120   7.995
 2876POPC   C4B38242  34.651   9.840   7.677
 2877POPC   NC338243  44.481  40.394   9.441
 2877POPC   PO438244  44.418  41.033   9.492
 2877POPC   GL138245  44.649  40.973   9.161
 2877POPC   GL238246  44.867  40.722   9.316
 2877POPC   C1A38247  44.463  40.983   8.766
 2877POPC   D2A38248  44.579  41.178   8.391
 2877POPC   C3A38249  44.492  41.113   7.981
 2877POPC   C4A38250  44.824  40.975   7.734
 2877POPC   C1B38251  44.884  40.605   8.886
 2877POPC   C2B38252  44.717  40.638   8.484
 2877POPC   C3B38253  44.666  40.619   8.070
 2877POPC   C4B38254  44.884  40.478   7.721
 2878POPC   NC338255  27.133  23.748   9.860
 2878POPC   PO438256  26.599  23.479   9.861
 2878POPC   GL138257  26.692  23.494   9.372
 2878POPC   GL238258  26.921  23.756   9.314
 2878POPC   C1A38259  26.830  23.511   8.886
 2878POPC   D2A38260  26.736  23.754   8.485
 2878POPC   C3A38261  26.840  23.637   8.042
 2878POPC   C4A38262  26.684  23.787   7.596
 2878POPC   C1B38263  26.968  24.011   8.906
 2878POPC   C2B38264  27.157  24.063   8.515
 2878POPC   C3B38265  26.946  24.174   8.173
 2878POPC   C4B38266  27.068  24.025   7.802
 2879POPC   NC338267  35.670   1.860   9.471
 2879POPC   PO438268  35.222   1.419   9.695
 2879POPC   GL138269  35.260   1.747   9.200
 2879POPC   GL238270  35.449   2.067   9.056
 2879POPC   C1A38271  35.359   1.667   8.738
 2879POPC   D2A38272  35.393   1.987   8.440
 2879POPC   C3A38273  35.604   1.971   8.080
 2879POPC   C4A38274  35.581   1.907   7.659
 2879POPC   C1B38275  35.482   2.392   8.724
 2879POPC   C2B38276  35.476   2.521   8.260
 2879POPC   C3B38277  35.422   2.371   7.818
 2879POPC   C4B38278  35.452   2.294   7.363
 2880POPC   NC338279  30.233  19.594   9.444
 2880POPC   PO438280  30.609  19.029   9.454
 2880POPC   GL138281  30.503  19.152   9.066
 2880POPC   GL238282  30.752  19.386   9.053
 2880POPC   C1A38283  30.600  19.116   8.607
 2880POPC   D2A38284  30.373  18.982   8.240
 2880POPC   C3A38285  30.663  18.798   7.975
 2880POPC   C4A38286  30.918  18.695   7.636
 2880POPC   C1B38287  31.017  19.453   8.715
 2880POPC   C2B38288  30.955  19.531   8.314
 2880POPC   C3B38289  30.705  19.342   8.027
 2880POPC   C4B38290  30.801  19.195   7.646
 2881POPC   NC338291   6.668  14.843   9.540
 2881POPC   PO438292   6.411  15.511   9.470
 2881POPC   GL138293   6.664  15.242   9.213
 2881POPC   GL238294   6.474  15.003   9.092
 2881POPC   C1A38295   6.873  15.142   8.802
 2881POPC   D2A38296   6.742  15.014   8.404
 2881POPC   C3A38297   6.625  15.340   8.120
 2881POPC   C4A38298   6.893  15.158   7.825
 2881POPC   C1B38299   6.432  14.764   8.748
 2881POPC   C2B38300   6.248  14.893   8.347
 2881POPC   C3B38301   6.435  14.905   7.942
 2881POPC   C4B38302   6.500  15.108   7.519
 2882POPC   NC338303  41.608  27.310   9.494
 2882POPC   PO438304  41.218  27.907   9.500
 2882POPC   GL138305  41.526  27.714   9.178
 2882POPC   GL238306  41.778  27.473   9.062
 2882POPC   C1A38307  41.629  27.835   8.768
 2882POPC   D2A38308  41.670  27.633   8.394
 2882POPC   C3A38309  41.609  27.845   8.013
 2882POPC   C4A38310  41.738  27.644   7.650
 2882POPC   C1B38311  41.397  27.351   8.833
 2882POPC   C2B38312  41.226  27.361   8.432
 2882POPC   C3B38313  41.409  27.372   8.030
 2882POPC   C4B38314  41.261  27.202   7.665
 2883POPC   NC338315  26.016   8.391   9.540
 2883POPC   PO438316  26.508   8.879   9.521
 2883POPC   GL138317  26.408   8.499   9.203
 2883POPC   GL238318  26.168   8.162   9.130
 2883POPC   C1A38319  26.465   8.328   8.779
 2883POPC   D2A38320  26.397   8.464   8.375
 2883POPC   C3A38321  26.152   8.271   8.067
 2883POPC   C4A38322  26.256   8.147   7.659
 2883POPC   C1B38323  26.065   7.996   8.731
 2883POPC   C2B38324  26.134   7.823   8.324
 2883POPC   C3B38325  25.952   7.810   7.908
 2883POPC   C4B38326  25.743   7.927   7.514
 2884POPC   NC338327   6.186  42.907   9.555
 2884POPC   PO438328   5.570  43.294   9.583
 2884POPC   GL138329   5.922  43.245   9.282
 2884POPC   GL238330   5.894  42.940   9.154
 2884POPC   C1A38331   6.130  43.256   8.852
 2884POPC   D2A38332   5.832  43.131   8.543
 2884POPC   C3A38333   5.904  43.076   8.110
 2884POPC   C4A38334   5.725  43.321   7.778
 2884POPC   C1B38335   5.695  42.742   8.827
 2884POPC   C2B38336   5.526  42.676   8.406
 2884POPC   C3B38337   5.614  42.653   7.979
 2884POPC   C4B38338   5.489  42.879   7.629
 2885POPC   NC338339  37.992  34.785   9.806
 2885POPC   PO438340  38.498  34.372   9.573
 2885POPC   GL138341  38.604  34.269   9.182
 2885POPC   GL238342  38.536  34.590   9.076
 2885POPC   C1A38343  38.667  34.217   8.732
 2885POPC   D2A38344  38.475  34.451   8.369
 2885POPC   C3A38345  38.641  34.726   8.055
 2885POPC   C4A38346  38.514  34.434   7.795
 2885POPC   C1B38347  38.333  34.796   8.710
 2885POPC   C2B38348  38.265  34.987   8.333
 2885POPC   C3B38349  38.139  34.754   8.001
 2885POPC   C4B38350  37.968  34.881   7.657
 2886POPC   NC338351  15.943   9.520   9.502
 2886POPC   PO438352  15.535  10.111   9.479
 2886POPC   GL138353  15.942  10.003   9.224
 2886POPC   GL238354  16.202   9.703   9.120
 2886POPC   C1A38355  15.926   9.940   8.767
 2886POPC   D2A38356  16.186   9.770   8.412
 2886POPC   C3A38357  15.965   9.905   8.068
 2886POPC   C4A38358  15.556   9.873   7.868
 2886POPC   C1B38359  15.980   9.453   8.796
 2886POPC   C2B38360  15.715   9.587   8.451
 2886POPC   C3B38361  15.693   9.423   8.047
 2886POPC   C4B38362  15.942   9.565   7.689
 2887POPC   NC338363  24.240  27.356   9.346
 2887POPC   PO438364  24.679  27.749   9.131
 2887POPC   GL138365  24.278  27.724   8.958
 2887POPC   GL238366  24.062  28.030   8.992
 2887POPC   C1A38367  24.309  27.378   8.667
 2887POPC   D2A38368  24.660  27.357   8.383
 2887POPC   C3A38369  24.660  27.533   7.974
 2887POPC   C4A38370  24.661  27.785   7.622
 2887POPC   C1B38371  24.062  27.967   8.519
 2887POPC   C2B38372  24.216  27.679   8.241
 2887POPC   C3B38373  24.213  27.744   7.828
 2887POPC   C4B38374  24.211  27.958   7.450
 2888POPC   NC338375  17.235  23.965   9.225
 2888POPC   PO438376  16.883  23.434   9.486
 2888POPC   GL138377  16.595  23.647   9.217
 2888POPC   GL238378  16.737  23.975   9.094
 2888POPC   C1A38379  16.603  23.584   8.788
 2888POPC   D2A38380  16.827  23.432   8.461
 2888POPC   C3A38381  16.593  23.449   8.114
 2888POPC   C4A38382  16.814  23.641   7.799
 2888POPC   C1B38383  16.963  23.921   8.641
 2888POPC   C2B38384  17.224  24.030   8.285
 2888POPC   C3B38385  17.144  24.074   7.853
 2888POPC   C4B38386  17.116  23.849   7.447
 2889POPC   NC338387  22.220   9.052   9.708
 2889POPC   PO438388  21.795   8.591   9.389
 2889POPC   GL138389  22.119   8.789   9.247
 2889POPC   GL238390  21.948   8.908   9.009
 2889POPC   C1A38391  22.416   8.693   8.858
 2889POPC   D2A38392  22.262   8.574   8.395
 2889POPC   C3A38393  22.268   8.858   8.058
 2889POPC   C4A38394  22.620   8.874   7.778
 2889POPC   C1B38395  21.956   8.905   8.621
 2889POPC   C2B38396  21.903   9.150   8.279
 2889POPC   C3B38397  21.721   9.038   7.900
 2889POPC   C4B38398  21.936   8.786   7.624
 2890POPC   NC338399  28.439   1.870   9.483
 2890POPC   PO438400  28.477   2.505   9.494
 2890POPC   GL138401  28.542   2.233   9.156
 2890POPC   GL238402  28.219   2.026   9.044
 2890POPC   C1A38403  28.790   2.138   8.822
 2890POPC   D2A38404  28.593   1.962   8.514
 2890POPC   C3A38405  28.647   2.097   8.133
 2890POPC   C4A38406  28.474   1.946   7.785
 2890POPC   C1B38407  28.123   1.811   8.637
 2890POPC   C2B38408  28.140   1.788   8.159
 2890POPC   C3B38409  27.941   1.899   7.745
 2890POPC   C4B38410  27.902   2.299   7.451
 2891POPC   NC338411  18.578  12.535   9.441
 2891POPC   PO438412  18.353  11.882   9.408
 2891POPC   GL138413  18.085  12.215   9.223
 2891POPC   GL238414  18.339  12.352   9.035
 2891POPC   C1A38415  17.984  12.035   8.820
 2891POPC   D2A38416  18.299  11.944   8.505
 2891POPC   C3A38417  18.193  11.965   8.075
 2891POPC   C4A38418  18.095  12.025   7.619
 2891POPC   C1B38419  18.367  12.532   8.647
 2891POPC   C2B38420  18.421  12.394   8.245
 2891POPC   C3B38421  18.572  12.242   7.857
 2891POPC   C4B38422  18.763  12.249   7.458
 2892POPC   NC338423  10.563  24.149   9.613
 2892POPC   PO438424  10.747  24.673   9.457
 2892POPC   GL138425  10.533  24.375   9.148
 2892POPC   GL238426  10.715  24.040   9.140
 2892POPC   C1A38427  10.210  24.281   8.803
 2892POPC   D2A38428  10.033  24.122   8.387
 2892POPC   C3A38429  10.281  24.276   8.027
 2892POPC   C4A38430  10.416  24.691   7.898
 2892POPC   C1B38431  10.711  24.169   8.722
 2892POPC   C2B38432  10.660  24.421   8.323
 2892POPC   C3B38433  10.862  24.469   7.921
 2892POPC   C4B38434  11.213  24.495   7.617
 2893POPC   NC338435  37.275  30.250   9.427
 2893POPC   PO438436  37.912  30.193   9.543
 2893POPC   GL138437  37.701  30.086   9.193
 2893POPC   GL238438  37.640  29.779   9.266
 2893POPC   C1A38439  37.552  30.254   8.798
 2893POPC   D2A38440  37.651  30.048   8.429
 2893POPC   C3A38441  37.407  29.956   8.104
 2893POPC   C4A38442  37.647  29.841   7.745
 2893POPC   C1B38443  37.599  29.739   8.840
 2893POPC   C2B38444  37.435  29.535   8.518
 2893POPC   C3B38445  37.438  29.439   8.098
 2893POPC   C4B38446  37.367  29.437   7.681
 2894POPC   NC338447  15.401  29.841   9.883
 2894POPC   PO438448  15.004  30.196   9.551
 2894POPC   GL138449  15.315  29.984   9.295
 2894POPC   GL238450  15.077  29.801   9.138
 2894POPC   C1A38451  15.516  29.910   8.879
 2894POPC   D2A38452  15.440  29.973   8.466
 2894POPC   C3A38453  15.389  29.633   8.152
 2894POPC   C4A38454  15.188  29.590   7.731
 2894POPC   C1B38455  15.009  30.009   8.784
 2894POPC   C2B38456  14.993  30.197   8.406
 2894POPC   C3B38457  15.107  30.028   8.025
 2894POPC   C4B38458  14.784  30.048   7.768
 2895POPC   NC338459  39.917   4.150   9.439
 2895POPC   PO438460  40.283   4.744   9.479
 2895POPC   GL138461  40.111   4.535   9.111
 2895POPC   GL238462  39.749   4.497   9.071
 2895POPC   C1A38463  40.320   4.483   8.714
 2895POPC   D2A38464  40.522   4.590   8.341
 2895POPC   C3A38465  40.202   4.480   8.047
 2895POPC   C4A38466  40.116   4.397   7.617
 2895POPC   C1B38467  39.815   4.413   8.647
 2895POPC   C2B38468  39.763   4.207   8.251
 2895POPC   C3B38469  39.672   4.423   7.860
 2895POPC   C4B38470  39.643   4.319   7.401
 2896POPC   NC338471   0.034   5.877   9.404
 2896POPC   PO438472  44.428   6.127   9.568
 2896POPC   GL138473  44.599   6.048   9.154
 2896POPC   GL238474  44.909   6.246   9.051
 2896POPC   C1A38475  44.447   5.863   8.769
 2896POPC   D2A38476  44.306   6.014   8.384
 2896POPC   C3A38477  44.541   5.838   8.078
 2896POPC   C4A38478  44.621   5.855   7.659
 2896POPC   C1B38479  44.955   5.834   8.769
 2896POPC   C2B38480   0.064   5.734   8.328
 2896POPC   C3B38481   0.072   5.835   7.910
 2896POPC   C4B38482  44.946   6.260   7.820
 2897POPC   NC338483  14.989  18.038   9.664
 2897POPC   PO438484  15.503  18.386   9.522
 2897POPC   GL138485  15.306  18.097   9.187
 2897POPC   GL238486  14.912  18.099   9.150
 2897POPC   C1A38487  15.193  18.114   8.724
 2897POPC   D2A38488  15.230  18.127   8.274
 2897POPC   C3A38489  14.887  17.992   7.991
 2897POPC   C4A38490  14.893  18.026   7.506
 2897POPC   C1B38491  14.750  18.353   8.770
 2897POPC   C2B38492  14.798  18.424   8.307
 2897POPC   C3B38493  14.915  18.489   7.858
 2897POPC   C4B38494  14.839  18.520   7.396
 2898POPC   NC338495  25.600  21.026   9.574
 2898POPC   PO438496  25.103  21.506   9.474
 2898POPC   GL138497  25.393  21.563   9.132
 2898POPC   GL238498  25.659  21.280   9.123
 2898POPC   C1A38499  25.296  21.452   8.727
 2898POPC   D2A38500  24.986  21.354   8.393
 2898POPC   C3A38501  25.109  21.474   7.992
 2898POPC   C4A38502  24.963  21.670   7.641
 2898POPC   C1B38503  25.566  21.039   8.742
 2898POPC   C2B38504  25.424  21.119   8.296
 2898POPC   C3B38505  25.465  21.111   7.818
 2898POPC   C4B38506  25.710  21.053   7.411
 2899POPC   NC338507  32.071  34.994   9.424
 2899POPC   PO438508  32.076  35.710   9.501
 2899POPC   GL138509  31.976  35.479   9.155
 2899POPC   GL238510  31.692  35.275   9.167
 2899POPC   C1A38511  32.065  35.238   8.784
 2899POPC   D2A38512  32.364  35.224   8.446
 2899POPC   C3A38513  32.224  35.329   8.035
 2899POPC   C4A38514  32.487  35.302   7.605
 2899POPC   C1B38515  31.650  35.540   8.773
 2899POPC   C2B38516  31.878  35.555   8.382
 2899POPC   C3B38517  31.801  35.658   7.959
 2899POPC   C4B38518  32.006  35.461   7.594
 2900POPC   NC338519  41.719   8.674   9.586
 2900POPC   PO438520  41.154   9.165   9.462
 2900POPC   GL138521  41.505   9.089   9.232
 2900POPC   GL238522  41.521   8.750   9.137
 2900POPC   C1A38523  41.603   9.135   8.810
 2900POPC   D2A38524  41.531   9.259   8.416
 2900POPC   C3A38525  41.686   9.050   8.056
 2900POPC   C4A38526  41.549   8.975   7.674
 2900POPC   C1B38527  41.345   8.683   8.759
 2900POPC   C2B38528  41.483   8.704   8.364
 2900POPC   C3B38529  41.274   8.700   7.986
 2900POPC   C4B38530  41.029   8.741   7.628
 2901POPC   NC338531  42.280   1.554   9.643
 2901POPC   PO438532  42.495   0.877   9.473
 2901POPC   GL138533  42.434   1.049   9.075
 2901POPC   GL238534  42.334   1.380   9.156
 2901POPC   C1A38535  42.397   0.946   8.653
 2901POPC   D2A38536  42.617   0.871   8.298
 2901POPC   C3A38537  42.496   1.045   7.907
 2901POPC   C4A38538  42.433   1.145   7.482
 2901POPC   C1B38539  42.062   1.305   8.780
 2901POPC   C2B38540  42.034   1.569   8.386
 2901POPC   C3B38541  42.172   1.480   7.963
 2901POPC   C4B38542  41.982   1.137   7.737
 2902POPC   NC338543  38.235  18.122   9.446
 2902POPC   PO438544  38.860  18.435   9.650
 2902POPC   GL138545  38.711  18.238   9.268
 2902POPC   GL238546  38.694  18.548   9.161
 2902POPC   C1A38547  38.492  18.232   8.825
 2902POPC   D2A38548  38.611  18.425   8.413
 2902POPC   C3A38549  38.497  18.316   7.988
 2902POPC   C4A38550  38.217  18.307   7.657
 2902POPC   C1B38551  38.712  18.796   8.799
 2902POPC   C2B38552  38.881  18.863   8.399
 2902POPC   C3B38553  38.689  18.784   8.002
 2902POPC   C4B38554  38.643  18.694   7.563
 2903POPC   NC338555  22.621  23.945   9.395
 2903POPC   PO438556  23.369  23.951   9.491
 2903POPC   GL138557  23.082  23.925   9.115
 2903POPC   GL238558  22.869  23.618   9.049
 2903POPC   C1A38559  23.184  23.843   8.668
 2903POPC   D2A38560  23.010  23.594   8.299
 2903POPC   C3A38561  23.032  23.825   7.892
 2903POPC   C4A38562  23.285  24.048   7.556
 2903POPC   C1B38563  22.684  23.934   8.736
 2903POPC   C2B38564  22.675  24.013   8.284
 2903POPC   C3B38565  22.733  24.259   7.919
 2903POPC   C4B38566  22.818  24.243   7.469
 2904POPC   NC338567  43.249  37.453   9.494
 2904POPC   PO438568  42.823  38.082   9.471
 2904POPC   GL138569  43.105  37.851   9.228
 2904POPC   GL238570  42.933  37.533   9.107
 2904POPC   C1A38571  43.365  37.723   8.875
 2904POPC   D2A38572  43.443  37.833   8.455
 2904POPC   C3A38573  43.280  37.558   8.180
 2904POPC   C4A38574  43.299  37.548   7.743
 2904POPC   C1B38575  42.868  37.862   8.778
 2904POPC   C2B38576  42.917  37.930   8.367
 2904POPC   C3B38577  42.985  37.923   7.966
 2904POPC   C4B38578  42.772  37.665   7.748
 2905POPC   NC338579  44.388   0.274   9.592
 2905POPC   PO438580  44.910   0.684   9.481
 2905POPC   GL138581  44.761   0.391   9.192
 2905POPC   GL238582  44.441   0.550   9.158
 2905POPC   C1A38583  44.708   0.183   8.788
 2905POPC   D2A38584  44.867   0.274   8.379
 2905POPC   C3A38585  44.832   0.630   8.139
 2905POPC   C4A38586  44.898   0.404   7.775
 2905POPC   C1B38587  44.465   0.615   8.715
 2905POPC   C2B38588  44.368   0.303   8.403
 2905POPC   C3B38589  44.457   0.257   7.997
 2905POPC   C4B38590  44.444   0.648   7.727
 2906POPC   NC338591  10.753  33.437   9.513
 2906POPC   PO438592  10.499  32.822   9.424
 2906POPC   GL138593  10.760  33.037   9.124
 2906POPC   GL238594  10.981  33.334   9.066
 2906POPC   C1A38595  10.602  32.909   8.724
 2906POPC   D2A38596  10.554  32.716   8.326
 2906POPC   C3A38597  10.297  32.911   8.007
 2906POPC   C4A38598  10.451  32.831   7.618
 2906POPC   C1B38599  10.659  33.418   8.751
 2906POPC   C2B38600  10.542  33.258   8.320
 2906POPC   C3B38601  10.672  33.221   7.882
 2906POPC   C4B38602  10.858  33.134   7.473
 2907POPC   NC338603  21.308  31.021   9.566
 2907POPC   PO438604  21.806  31.543   9.575
 2907POPC   GL138605  21.697  31.390   9.201
 2907POPC   GL238606  21.376  31.540   9.170
 2907POPC   C1A38607  21.599  31.318   8.760
 2907POPC   D2A38608  21.629  31.559   8.362
 2907POPC   C3A38609  21.423  31.389   8.000
 2907POPC   C4A38610  21.665  31.023   7.957
 2907POPC   C1B38611  21.357  31.773   8.764
 2907POPC   C2B38612  21.149  31.705   8.362
 2907POPC   C3B38613  21.315  31.889   8.019
 2907POPC   C4B38614  21.468  31.788   7.646
 2908POPC   NC338615  39.968  34.370   9.647
 2908POPC   PO438616  40.190  34.903   9.307
 2908POPC   GL138617  40.043  34.519   9.135
 2908POPC   GL238618  39.760  34.282   9.193
 2908POPC   C1A38619  39.825  34.614   8.764
 2908POPC   D2A38620  39.944  34.873   8.408
 2908POPC   C3A38621  40.057  34.674   8.041
 2908POPC   C4A38622  39.773  34.650   7.723
 2908POPC   C1B38623  39.939  34.115   8.818
 2908POPC   C2B38624  39.758  34.231   8.431
 2908POPC   C3B38625  39.715  34.164   8.013
 2908POPC   C4B38626  40.080  34.199   7.781
 2909POPC   NC338627  28.547  29.976   9.474
 2909POPC   PO438628  27.923  29.709   9.511
 2909POPC   GL138629  28.045  30.102   9.243
 2909POPC   GL238630  28.209  29.826   9.093
 2909POPC   C1A38631  28.291  30.229   8.818
 2909POPC   D2A38632  28.601  30.082   8.475
 2909POPC   C3A38633  28.525  30.114   8.034
 2909POPC   C4A38634  28.653  30.049   7.609
 2909POPC   C1B38635  28.341  29.710   8.691
 2909POPC   C2B38636  28.205  29.789   8.265
 2909POPC   C3B38637  28.341  29.640   7.852
 2909POPC   C4B38638  28.387  29.272   7.526
 2910POPC   NC338639  43.900  39.677   9.399
 2910POPC   PO438640  43.631  39.026   9.564
 2910POPC   GL138641  43.755  39.240   9.181
 2910POPC   GL238642  44.106  39.283   9.142
 2910POPC   C1A38643  43.809  39.482   8.773
 2910POPC   D2A38644  43.733  39.280   8.385
 2910POPC   C3A38645  43.847  39.466   8.004
 2910POPC   C4A38646  44.136  39.301   7.718
 2910POPC   C1B38647  43.987  38.998   8.770
 2910POPC   C2B38648  44.137  38.861   8.371
 2910POPC   C3B38649  44.112  38.706   7.964
 2910POPC   C4B38650  44.262  38.823   7.578
 2911POPC   NC338651  18.096  25.010   9.634
 2911POPC   PO438652  18.418  25.508   9.460
 2911POPC   GL138653  18.196  25.332   9.147
 2911POPC   GL238654  18.012  25.035   9.128
 2911POPC   C1A38655  17.975  25.420   8.778
 2911POPC   D2A38656  17.973  25.208   8.405
 2911POPC   C3A38657  17.940  25.428   8.043
 2911POPC   C4A38658  18.131  25.230   7.718
 2911POPC   C1B38659  18.289  25.005   8.756
 2911POPC   C2B38660  18.273  24.773   8.344
 2911POPC   C3B38661  18.439  24.844   7.892
 2911POPC   C4B38662  18.488  25.015   7.448
 2912POPC   NC338663  23.597  40.989   9.480
 2912POPC   PO438664  23.804  40.409   9.518
 2912POPC   GL138665  23.773  40.673   9.117
 2912POPC   GL238666  24.020  40.961   9.146
 2912POPC   C1A38667  23.454  40.791   8.757
 2912POPC   D2A38668  23.556  40.915   8.314
 2912POPC   C3A38669  23.510  40.691   7.913
 2912POPC   C4A38670  23.405  40.740   7.463
 2912POPC   C1B38671  23.900  41.008   8.729
 2912POPC   C2B38672  23.945  41.224   8.361
 2912POPC   C3B38673  23.950  40.992   7.956
 2912POPC   C4B38674  23.876  40.818   7.572
 2913POPC   NC338675  19.837  40.266   9.472
 2913POPC   PO438676  20.387  39.737   9.557
 2913POPC   GL138677  20.092  39.823   9.216
 2913POPC   GL238678  19.764  39.910   9.085
 2913POPC   C1A38679  20.156  40.049   8.813
 2913POPC   D2A38680  20.229  40.217   8.408
 2913POPC   C3A38681  19.934  40.009   8.126
 2913POPC   C4A38682  19.890  40.056   7.677
 2913POPC   C1B38683  19.664  40.202   8.768
 2913POPC   C2B38684  19.485  40.131   8.364
 2913POPC   C3B38685  19.539  40.292   7.964
 2913POPC   C4B38686  19.412  40.125   7.548
 2914POPC   NC338687   6.929   0.905   9.278
 2914POPC   PO438688   6.584   1.383   9.518
 2914POPC   GL138689   6.458   1.167   9.175
 2914POPC   GL238690   6.416   0.812   9.259
 2914POPC   C1A38691   6.641   1.248   8.778
 2914POPC   D2A38692   6.749   1.394   8.396
 2914POPC   C3A38693   6.532   1.307   8.060
 2914POPC   C4A38694   6.880   1.380   7.845
 2914POPC   C1B38695   6.403   0.796   8.791
 2914POPC   C2B38696   6.636   0.877   8.385
 2914POPC   C3B38697   6.837   0.879   7.996
 2914POPC   C4B38698   6.596   0.991   7.665
 2915POPC   NC338699   6.895  27.797   9.530
 2915POPC   PO438700   6.359  27.537   9.752
 2915POPC   GL138701   6.631  27.422   9.317
 2915POPC   GL238702   6.840  27.086   9.264
 2915POPC   C1A38703   6.808  27.664   8.913
 2915POPC   D2A38704   6.885  27.579   8.472
 2915POPC   C3A38705   6.709  27.702   8.089
 2915POPC   C4A38706   6.561  27.641   7.658
 2915POPC   C1B38707   6.694  27.178   8.828
 2915POPC   C2B38708   6.552  27.204   8.408
 2915POPC   C3B38709   6.480  27.247   7.987
 2915POPC   C4B38710   6.727  27.148   7.662
 2916POPC   NC338711  33.592  16.585   9.418
 2916POPC   PO438712  34.002  17.139   9.486
 2916POPC   GL138713  33.735  17.012   9.149
 2916POPC   GL238714  33.962  16.758   9.085
 2916POPC   C1A38715  33.559  16.747   8.766
 2916POPC   D2A38716  33.751  16.653   8.350
 2916POPC   C3A38717  33.515  16.689   7.962
 2916POPC   C4A38718  33.699  16.822   7.595
 2916POPC   C1B38719  33.955  16.410   8.778
 2916POPC   C2B38720  34.191  16.374   8.388
 2916POPC   C3B38721  34.287  16.307   7.978
 2916POPC   C4B38722  34.127  16.486   7.642
 2917POPC   NC338723  31.683  22.425   9.495
 2917POPC   PO438724  31.047  21.945   9.510
 2917POPC   GL138725  31.323  21.992   9.163
 2917POPC   GL238726  31.345  22.335   9.143
 2917POPC   C1A38727  31.665  21.854   8.864
 2917POPC   D2A38728  31.888  21.868   8.451
 2917POPC   C3A38729  31.588  21.972   8.139
 2917POPC   C4A38730  31.434  21.917   7.733
 2917POPC   C1B38731  31.708  22.357   8.869
 2917POPC   C2B38732  31.770  22.364   8.454
 2917POPC   C3B38733  31.767  22.441   8.034
 2917POPC   C4B38734  31.714  22.534   7.613
 2918POPC   NC338735  34.886   1.624   9.484
 2918POPC   PO438736  34.565   2.162   9.544
 2918POPC   GL138737  34.615   2.227   9.123
 2918POPC   GL238738  34.976   2.300   9.047
 2918POPC   C1A38739  34.346   2.044   8.802
 2918POPC   D2A38740  34.253   2.070   8.365
 2918POPC   C3A38741  34.521   1.796   8.108
 2918POPC   C4A38742  34.672   1.937   7.725
 2918POPC   C1B38743  34.895   1.882   8.843
 2918POPC   C2B38744  34.951   1.698   8.426
 2918POPC   C3B38745  35.082   1.867   8.027
 2918POPC   C4B38746  34.970   1.517   7.819
 2919POPC   NC338747  19.203  24.518   9.541
 2919POPC   PO438748  18.491  24.665   9.612
 2919POPC   GL138749  18.792  24.511   9.262
 2919POPC   GL238750  18.965  24.780   9.118
 2919POPC   C1A38751  19.094  24.325   8.907
 2919POPC   D2A38752  18.970  24.313   8.499
 2919POPC   C3A38753  19.130  24.269   8.111
 2919POPC   C4A38754  18.961  24.402   7.770
 2919POPC   C1B38755  19.044  24.785   8.667
 2919POPC   C2B38756  19.028  24.763   8.230
 2919POPC   C3B38757  19.377  24.710   7.974
 2919POPC   C4B38758  19.420  24.694   7.579
 2920POPC   NC338759   0.621  23.628   9.763
 2920POPC   PO438760   0.076  23.560   9.498
 2920POPC   GL138761   0.182  23.720   9.079
 2920POPC   GL238762   0.333  24.042   9.121
 2920POPC   C1A38763   0.004  23.681   8.650
 2920POPC   D2A38764   0.064  23.906   8.283
 2920POPC   C3A38765   0.267  23.794   7.902
 2920POPC   C4A38766   0.563  23.485   7.750
 2920POPC   C1B38767   0.441  23.943   8.682
 2920POPC   C2B38768   0.596  23.854   8.290
 2920POPC   C3B38769   0.817  23.907   7.902
 2920POPC   C4B38770   1.110  23.678   7.645
 2921POPC   NC338771  30.568  23.837   9.431
 2921POPC   PO438772  31.156  23.985   9.284
 2921POPC   GL138773  30.913  23.794   9.054
 2921POPC   GL238774  30.840  23.468   9.183
 2921POPC   C1A38775  30.688  23.832   8.725
 2921POPC   D2A38776  30.542  23.915   8.372
 2921POPC   C3A38777  30.811  23.784   8.055
 2921POPC   C4A38778  30.765  23.974   7.645
 2921POPC   C1B38779  30.919  23.391   8.738
 2921POPC   C2B38780  30.606  23.343   8.393
 2921POPC   C3B38781  30.575  23.326   7.950
 2921POPC   C4B38782  30.843  23.494   7.637
 2922POPC   NC338783   5.451  17.206   9.318
 2922POPC   PO438784   5.559  17.798   9.682
 2922POPC   GL138785   5.635  17.777   9.235
 2922POPC   GL238786   5.847  17.524   9.183
 2922POPC   C1A38787   5.835  17.813   8.792
 2922POPC   D2A38788   5.878  17.550   8.432
 2922POPC   C3A38789   5.869  17.703   8.020
 2922POPC   C4A38790   5.613  17.476   7.765
 2922POPC   C1B38791   5.837  17.212   8.814
 2922POPC   C2B38792   5.777  17.054   8.403
 2922POPC   C3B38793   6.036  17.213   8.066
 2922POPC   C4B38794   6.129  17.383   7.668
 2923POPC   NC338795  43.608  35.176   9.586
 2923POPC   PO438796  44.118  35.708   9.454
 2923POPC   GL138797  43.924  35.357   9.220
 2923POPC   GL238798  43.556  35.402   9.113
 2923POPC   C1A38799  44.005  35.097   8.851
 2923POPC   D2A38800  43.795  35.228   8.463
 2923POPC   C3A38801  43.824  35.202   8.057
 2923POPC   C4A38802  44.089  35.262   7.731
 2923POPC   C1B38803  43.830  35.610   8.781
 2923POPC   C2B38804  43.736  35.729   8.375
 2923POPC   C3B38805  43.921  35.711   8.003
 2923POPC   C4B38806  43.571  35.769   7.766
 2924POPC   NC338807  37.530  41.234   9.283
 2924POPC   PO438808  37.772  41.815   9.579
 2924POPC   GL138809  37.867  41.697   9.191
 2924POPC   GL238810  37.526  41.747   9.118
 2924POPC   C1A38811  37.833  41.737   8.742
 2924POPC   D2A38812  37.660  41.544   8.376
 2924POPC   C3A38813  37.813  41.652   7.987
 2924POPC   C4A38814  37.979  41.323   7.747
 2924POPC   C1B38815  37.324  41.608   8.761
 2924POPC   C2B38816  37.199  41.776   8.379
 2924POPC   C3B38817  37.309  41.637   7.988
 2924POPC   C4B38818  37.450  41.517   7.579
 2925POPC   NC338819  34.553  19.189   9.547
 2925POPC   PO438820  34.993  18.814   9.828
 2925POPC   GL138821  34.767  18.859   9.270
 2925POPC   GL238822  34.886  18.654   9.031
 2925POPC   C1A38823  34.509  18.983   8.852
 2925POPC   D2A38824  34.265  18.922   8.446
 2925POPC   C3A38825  34.434  19.054   8.035
 2925POPC   C4A38826  34.668  19.201   7.655
 2925POPC   C1B38827  35.008  18.956   8.722
 2925POPC   C2B38828  34.863  19.084   8.330
 2925POPC   C3B38829  34.876  18.808   7.972
 2925POPC   C4B38830  34.673  18.699   7.587
 2926POPC   NC338831  11.465  19.876   9.501
 2926POPC   PO438832  10.982  20.288   9.369
 2926POPC   GL138833  11.229  19.999   9.077
 2926POPC   GL238834  11.440  19.645   9.069
 2926POPC   C1A38835  11.327  20.087   8.678
 2926POPC   D2A38836  11.086  20.281   8.362
 2926POPC   C3A38837  11.030  20.003   8.031
 2926POPC   C4A38838  10.965  20.044   7.611
 2926POPC   C1B38839  11.176  19.600   8.750
 2926POPC   C2B38840  11.328  19.673   8.365
 2926POPC   C3B38841  11.386  19.437   8.012
 2926POPC   C4B38842  11.252  19.650   7.713
 2927POPC   NC338843  32.497  41.915   9.417
 2927POPC   PO438844  32.309  41.354   9.642
 2927POPC   GL138845  32.209  41.484   9.211
 2927POPC   GL238846  32.009  41.202   9.115
 2927POPC   C1A38847  32.283  41.694   8.809
 2927POPC   D2A38848  32.153  41.864   8.399
 2927POPC   C3A38849  32.551  41.865   8.151
 2927POPC   C4A38850  32.565  41.825   7.711
 2927POPC   C1B38851  32.277  41.181   8.754
 2927POPC   C2B38852  32.423  41.415   8.378
 2927POPC   C3B38853  32.334  41.426   7.932
 2927POPC   C4B38854  32.035  41.299   7.608
 2928POPC   NC338855  27.768  35.006   9.401
 2928POPC   PO438856  27.381  34.472   9.385
 2928POPC   GL138857  27.676  34.558   9.103
 2928POPC   GL238858  27.504  34.804   8.992
 2928POPC   C1A38859  27.804  34.464   8.693
 2928POPC   D2A38860  27.561  34.310   8.313
 2928POPC   C3A38861  27.635  34.550   7.944
 2928POPC   C4A38862  27.792  34.525   7.545
 2928POPC   C1B38863  27.276  34.490   8.720
 2928POPC   C2B38864  27.045  34.416   8.341
 2928POPC   C3B38865  27.145  34.373   7.897
 2928POPC   C4B38866  27.284  34.458   7.467
 2929POPC   NC338867  34.855  14.612   9.533
 2929POPC   PO438868  34.649  13.933   9.591
 2929POPC   GL138869  34.534  14.095   9.157
 2929POPC   GL238870  34.644  14.419   9.118
 2929POPC   C1A38871  34.535  14.171   8.670
 2929POPC   D2A38872  34.737  14.418   8.344
 2929POPC   C3A38873  34.638  14.256   7.990
 2929POPC   C4A38874  34.781  14.237   7.595
 2929POPC   C1B38875  34.544  14.673   8.766
 2929POPC   C2B38876  34.266  14.575   8.450
 2929POPC   C3B38877  34.270  14.740   8.095
 2929POPC   C4B38878  34.432  14.618   7.723
 2930POPC   NC338879  25.891  44.691   9.511
 2930POPC   PO438880  26.463  44.952   9.494
 2930POPC   GL138881  26.249  44.858   9.132
 2930POPC   GL238882  26.128  44.558   9.071
 2930POPC   C1A38883  26.265  44.933   8.693
 2930POPC   D2A38884  26.332  44.709   8.308
 2930POPC   C3A38885  25.980  44.647   8.019
 2930POPC   C4A38886  26.004  44.864   7.633
 2930POPC   C1B38887  26.213  44.377   8.696
 2930POPC   C2B38888  26.275  44.173   8.315
 2930POPC   C3B38889  26.331  44.304   7.921
 2930POPC   C4B38890  26.054  44.343   7.549
 2931POPC   NC338891  32.226  10.359   9.671
 2931POPC   PO438892  32.069  11.051   9.584
 2931POPC   GL138893  32.125  10.625   9.266
 2931POPC   GL238894  32.039  10.250   9.220
 2931POPC   C1A38895  32.397  10.412   8.932
 2931POPC   D2A38896  32.353  10.501   8.488
 2931POPC   C3A38897  32.345  10.240   8.161
 2931POPC   C4A38898  32.301  10.399   7.751
 2931POPC   C1B38899  31.932  10.242   8.793
 2931POPC   C2B38900  31.836  10.364   8.387
 2931POPC   C3B38901  31.847  10.190   7.972
 2931POPC   C4B38902  31.986  10.057   7.549
 2932POPC   NC338903  24.294  19.573   9.480
 2932POPC   PO438904  24.236  20.274   9.596
 2932POPC   GL138905  24.311  20.067   9.184
 2932POPC   GL238906  24.459  19.727   9.037
 2932POPC   C1A38907  24.499  20.145   8.775
 2932POPC   D2A38908  24.789  20.180   8.427
 2932POPC   C3A38909  24.578  19.978   8.094
 2932POPC   C4A38910  24.333  19.874   7.743
 2932POPC   C1B38911  24.410  19.493   8.671
 2932POPC   C2B38912  24.276  19.415   8.259
 2932POPC   C3B38913  24.516  19.451   7.947
 2932POPC   C4B38914  24.818  19.657   7.747
 2933POPC   NC338915  29.991  21.563   9.603
 2933POPC   PO438916  29.539  21.112   9.682
 2933POPC   GL138917  29.611  21.188   9.185
 2933POPC   GL238918  29.853  21.507   9.115
 2933POPC   C1A38919  29.844  21.142   8.780
 2933POPC   D2A38920  30.104  21.299   8.449
 2933POPC   C3A38921  30.072  21.126   8.036
 2933POPC   C4A38922  29.816  21.345   7.755
 2933POPC   C1B38923  30.163  21.702   8.812
 2933POPC   C2B38924  30.363  21.763   8.389
 2933POPC   C3B38925  30.164  21.697   7.990
 2933POPC   C4B38926  30.183  21.887   7.541
 2934POPC   NC338927  44.269  20.120   9.486
 2934POPC   PO438928  44.535  19.541   9.502
 2934POPC   GL138929  44.604  19.542   9.047
 2934POPC   GL238930  44.606  19.918   9.084
 2934POPC   C1A38931  44.690  19.511   8.607
 2934POPC   D2A38932  44.448  19.694   8.292
 2934POPC   C3A38933  44.544  19.748   7.870
 2934POPC   C4A38934  44.775  19.526   7.596
 2934POPC   C1B38935  44.368  20.243   8.849
 2934POPC   C2B38936  44.429  20.445   8.463
 2934POPC   C3B38937  44.197  20.448   8.092
 2934POPC   C4B38938  44.236  20.154   7.738
 2935POPC   NC338939  36.504  39.482   9.436
 2935POPC   PO438940  35.856  39.652   9.523
 2935POPC   GL138941  36.028  39.393   9.220
 2935POPC   GL238942  36.141  39.054   9.305
 2935POPC   C1A38943  36.053  39.487   8.807
 2935POPC   D2A38944  35.790  39.649   8.485
 2935POPC   C3A38945  36.011  39.546   8.131
 2935POPC   C4A38946  36.055  39.426   7.730
 2935POPC   C1B38947  36.211  38.976   8.865
 2935POPC   C2B38948  35.987  39.072   8.502
 2935POPC   C3B38949  36.070  39.015   8.073
 2935POPC   C4B38950  36.082  38.915   7.640
 2936POPC   NC338951   9.014  37.137   9.259
 2936POPC   PO438952   9.293  36.659   9.551
 2936POPC   GL138953   9.250  36.666   9.101
 2936POPC   GL238954   8.895  36.714   8.972
 2936POPC   C1A38955   9.372  36.882   8.710
 2936POPC   D2A38956   9.319  37.158   8.342
 2936POPC   C3A38957   9.307  36.935   7.909
 2936POPC   C4A38958   9.132  36.776   7.492
 2936POPC   C1B38959   8.855  37.034   8.610
 2936POPC   C2B38960   8.839  37.015   8.148
 2936POPC   C3B38961   8.715  36.919   7.727
 2936POPC   C4B38962   8.586  37.201   7.346
 2937POPC   NC338963  41.934  10.865   9.628
 2937POPC   PO438964  41.508  11.406   9.508
 2937POPC   GL138965  41.457  11.196   9.175
 2937POPC   GL238966  41.805  11.056   9.166
 2937POPC   C1A38967  41.403  11.342   8.762
 2937POPC   D2A38968  41.648  11.458   8.410
 2937POPC   C3A38969  41.430  11.438   8.041
 2937POPC   C4A38970  41.203  11.443   7.670
 2937POPC   C1B38971  41.888  11.114   8.724
 2937POPC   C2B38972  42.058  11.131   8.289
 2937POPC   C3B38973  41.928  11.412   7.943
 2937POPC   C4B38974  41.700  11.384   7.522
 2938POPC   NC338975  27.226  19.534   9.404
 2938POPC   PO438976  26.532  19.505   9.601
 2938POPC   GL138977  26.759  19.763   9.237
 2938POPC   GL238978  26.977  19.609   8.988
 2938POPC   C1A38979  26.707  20.017   8.842
 2938POPC   D2A38980  26.499  19.896   8.445
 2938POPC   C3A38981  26.632  19.778   8.047
 2938POPC   C4A38982  26.368  19.828   7.704
 2938POPC   C1B38983  27.008  19.357   8.638
 2938POPC   C2B38984  26.973  19.418   8.218
 2938POPC   C3B38985  27.155  19.537   7.904
 2938POPC   C4B38986  27.408  19.801   7.725
 2939POPC   NC338987  43.356  20.279   9.574
 2939POPC   PO438988  42.932  20.721   9.737
 2939POPC   GL138989  43.078  20.630   9.300
 2939POPC   GL238990  43.279  20.909   9.213
 2939POPC   C1A38991  43.204  20.578   8.825
 2939POPC   D2A38992  43.010  20.467   8.438
 2939POPC   C3A38993  43.215  20.363   8.054
 2939POPC   C4A38994  42.950  20.379   7.715
 2939POPC   C1B38995  42.886  20.950   8.932
 2939POPC   C2B38996  42.802  20.959   8.463
 2939POPC   C3B38997  42.912  20.800   8.036
 2939POPC   C4B38998  43.289  20.825   7.754
 2940POPC   NC338999  43.110  18.021   9.560
 2940POPC   PO439000  42.928  18.658   9.721
 2940POPC   GL139001  43.048  18.450   9.250
 2940POPC   GL239002  43.223  18.128   9.087
 2940POPC   C1A39003  43.302  18.545   8.840
 2940POPC   D2A39004  43.242  18.232   8.501
 2940POPC   C3A39005  43.133  18.392   8.097
 2940POPC   C4A39006  43.287  18.697   7.811
 2940POPC   C1B39007  43.108  17.827   8.817
 2940POPC   C2B39008  42.956  17.741   8.440
 2940POPC   C3B39009  43.154  17.839   8.078
 2940POPC   C4B39010  43.065  18.064   7.733
 2941POPC   NC339011   0.268  32.094   9.429
 2941POPC   PO439012   0.346  32.745   9.444
 2941POPC   GL139013   0.488  32.478   9.119
 2941POPC   GL239014   0.838  32.477   9.240
 2941POPC   C1A39015   0.214  32.273   8.795
 2941POPC   D2A39016  44.957  32.259   8.443
 2941POPC   C3A39017   0.230  32.270   8.097
 2941POPC   C4A39018   0.368  32.203   7.713
 2941POPC   C1B39019   0.886  32.285   8.827
 2941POPC   C2B39020   0.665  32.262   8.431
 2941POPC   C3B39021   0.733  32.058   8.047
 2941POPC   C4B39022   0.885  32.152   7.622
 2942POPC   NC339023  18.589  35.485   9.608
 2942POPC   PO439024  19.210  35.398   9.435
 2942POPC   GL139025  18.967  35.415   9.065
 2942POPC   GL239026  18.710  35.613   9.130
 2942POPC   C1A39027  18.723  35.268   8.692
 2942POPC   D2A39028  18.767  35.193   8.253
 2942POPC   C3A39029  19.172  35.281   8.136
 2942POPC   C4A39030  19.348  35.166   7.789
 2942POPC   C1B39031  18.768  35.793   8.729
 2942POPC   C2B39032  18.896  35.700   8.298
 2942POPC   C3B39033  18.692  35.663   7.906
 2942POPC   C4B39034  18.696  35.875   7.467
 2943POPC   NC339035  42.554   7.860   9.539
 2943POPC   PO439036  42.126   8.413   9.516
 2943POPC   GL139037  42.304   8.416   9.135
 2943POPC   GL239038  42.356   8.067   9.043
 2943POPC   C1A39039  42.498   8.485   8.760
 2943POPC   D2A39040  42.414   8.726   8.441
 2943POPC   C3A39041  42.425   8.501   8.056
 2943POPC   C4A39042  42.284   8.486   7.646
 2943POPC   C1B39043  42.152   8.089   8.629
 2943POPC   C2B39044  42.052   8.086   8.162
 2943POPC   C3B39045  42.036   8.017   7.704
 2943POPC   C4B39046  42.028   7.824   7.265
 2944POPC   NC339047   3.946  34.664   9.617
 2944POPC   PO439048   4.517  34.363   9.598
 2944POPC   GL139049   4.409  34.588   9.224
 2944POPC   GL239050   4.094  34.805   9.152
 2944POPC   C1A39051   4.584  34.437   8.860
 2944POPC   D2A39052   4.470  34.449   8.440
 2944POPC   C3A39053   4.520  34.330   8.034
 2944POPC   C4A39054   4.550  34.660   7.707
 2944POPC   C1B39055   4.102  34.622   8.736
 2944POPC   C2B39056   4.040  34.660   8.287
 2944POPC   C3B39057   4.103  34.867   7.895
 2944POPC   C4B39058   4.015  34.634   7.527
 2945POPC   NC339059  38.317   8.538   9.678
 2945POPC   PO439060  38.395   9.227   9.605
 2945POPC   GL139061  38.495   8.850   9.327
 2945POPC   GL239062  38.167   8.665   9.204
 2945POPC   C1A39063  38.697   8.684   8.945
 2945POPC   D2A39064  38.696   8.910   8.558
 2945POPC   C3A39065  38.732   8.775   8.110
 2945POPC   C4A39066  38.583   8.722   7.693
 2945POPC   C1B39067  38.219   8.810   8.772
 2945POPC   C2B39068  38.224   8.829   8.312
 2945POPC   C3B39069  38.118   8.812   7.863
 2945POPC   C4B39070  38.068   9.042   7.472
 2946POPC   NC339071  40.651  17.529   9.567
 2946POPC   PO439072  41.100  18.059   9.484
 2946POPC   GL139073  40.848  17.770   9.161
 2946POPC   GL239074  40.773  17.349   9.123
 2946POPC   C1A39075  40.706  17.686   8.751
 2946POPC   D2A39076  40.453  17.829   8.441
 2946POPC   C3A39077  40.661  17.708   8.099
 2946POPC   C4A39078  40.769  17.639   7.713
 2946POPC   C1B39079  40.792  17.121   8.748
 2946POPC   C2B39080  40.586  17.274   8.393
 2946POPC   C3B39081  40.493  17.127   8.019
 2946POPC   C4B39082  40.480  17.232   7.588
 2947POPC   NC339083   9.631   9.496   9.946
 2947POPC   PO439084  10.085   9.855   9.537
 2947POPC   GL139085   9.749   9.831   9.229
 2947POPC   GL239086  10.041   9.852   9.028
 2947POPC   C1A39087   9.649  10.049   8.808
 2947POPC   D2A39088   9.902  10.023   8.435
 2947POPC   C3A39089   9.666   9.992   8.053
 2947POPC   C4A39090   9.413   9.663   7.912
 2947POPC   C1B39091   9.810   9.567   8.753
 2947POPC   C2B39092  10.043   9.517   8.404
 2947POPC   C3B39093   9.908   9.516   8.014
 2947POPC   C4B39094   9.798   9.239   7.702
 2948POPC   NC339095   4.584  33.895   9.586
 2948POPC   PO439096   5.255  33.764   9.610
 2948POPC   GL139097   5.001  33.899   9.245
 2948POPC   GL239098   4.992  34.254   9.174
 2948POPC   C1A39099   4.727  33.941   8.847
 2948POPC   D2A39100   4.553  33.929   8.424
 2948POPC   C3A39101   4.809  33.790   8.086
 2948POPC   C4A39102   4.777  34.010   7.707
 2948POPC   C1B39103   5.235  34.009   8.812
 2948POPC   C2B39104   5.207  33.825   8.425
 2948POPC   C3B39105   5.365  33.587   8.102
 2948POPC   C4B39106   5.222  33.719   7.749
 2949POPC   NC339107  12.862  22.840   9.497
 2949POPC   PO439108  13.209  23.418   9.346
 2949POPC   GL139109  13.091  23.042   9.080
 2949POPC   GL239110  13.174  22.653   9.127
 2949POPC   C1A39111  12.911  23.173   8.681
 2949POPC   D2A39112  12.994  23.315   8.243
 2949POPC   C3A39113  12.860  23.151   7.834
 2949POPC   C4A39114  12.904  23.430   7.455
 2949POPC   C1B39115  12.871  22.666   8.774
 2949POPC   C2B39116  12.956  22.808   8.343
 2949POPC   C3B39117  13.202  22.773   8.002
 2949POPC   C4B39118  13.005  22.671   7.635
 2950POPC   NC339119  35.491  36.800   9.566
 2950POPC   PO439120  35.106  37.279   9.587
 2950POPC   GL139121  35.343  37.167   9.192
 2950POPC   GL239122  35.711  37.155   9.187
 2950POPC   C1A39123  35.328  37.016   8.730
 2950POPC   D2A39124  35.153  37.172   8.328
 2950POPC   C3A39125  35.272  37.031   7.919
 2950POPC   C4A39126  35.303  36.667   7.661
 2950POPC   C1B39127  35.844  37.138   8.737
 2950POPC   C2B39128  35.668  37.024   8.323
 2950POPC   C3B39129  35.734  36.812   7.901
 2950POPC   C4B39130  35.677  36.841   7.394
 2951POPC   NC339131  17.276   6.541   9.559
 2951POPC   PO439132  17.775   6.323   9.127
 2951POPC   GL139133  17.416   6.575   9.075
 2951POPC   GL239134  17.133   6.338   9.119
 2951POPC   C1A39135  17.443   6.796   8.694
 2951POPC   D2A39136  17.771   6.589   8.421
 2951POPC   C3A39137  17.670   6.568   7.981
 2951POPC   C4A39138  17.476   6.877   7.734
 2951POPC   C1B39139  17.210   6.293   8.706
 2951POPC   C2B39140  17.280   6.434   8.347
 2951POPC   C3B39141  17.330   6.205   8.031
 2951POPC   C4B39142  17.249   6.423   7.684
 2952POPC   NC339143  10.340  39.383   9.416
 2952POPC   PO439144  10.993  39.075   9.525
 2952POPC   GL139145  10.863  39.206   9.118
 2952POPC   GL239146  10.808  39.567   9.210
 2952POPC   C1A39147  10.639  39.101   8.704
 2952POPC   D2A39148  10.324  39.326   8.457
 2952POPC   C3A39149  10.200  39.289   8.012
 2952POPC   C4A39150  10.422  39.101   7.660
 2952POPC   C1B39151  10.658  39.605   8.811
 2952POPC   C2B39152  10.819  39.516   8.420
 2952POPC   C3B39153  10.687  39.394   8.071
 2952POPC   C4B39154  10.565  39.607   7.710
 2953POPC   NC339155  17.177  39.110   9.528
 2953POPC   PO439156  17.550  39.635   9.515
 2953POPC   GL139157  17.551  39.322   9.211
 2953POPC   GL239158  17.221  39.455   9.146
 2953POPC   C1A39159  17.768  39.288   8.795
 2953POPC   D2A39160  17.716  39.595   8.452
 2953POPC   C3A39161  17.611  39.468   8.001
 2953POPC   C4A39162  17.255  39.416   7.707
 2953POPC   C1B39163  17.254  39.198   8.793
 2953POPC   C2B39164  17.457  39.157   8.383
 2953POPC   C3B39165  17.342  38.975   7.985
 2953POPC   C4B39166  17.056  38.942   7.643
 2954POPC   NC339167  25.360   5.349   9.533
 2954POPC   PO439168  24.908   4.945   9.519
 2954POPC   GL139169  25.173   4.956   9.151
 2954POPC   GL239170  25.343   5.229   9.051
 2954POPC   C1A39171  25.047   5.013   8.700
 2954POPC   D2A39172  24.927   5.264   8.342
 2954POPC   C3A39173  25.136   5.142   7.966
 2954POPC   C4A39174  24.974   4.885   7.653
 2954POPC   C1B39175  25.509   5.386   8.687
 2954POPC   C2B39176  25.429   5.453   8.287
 2954POPC   C3B39177  25.535   5.517   7.882
 2954POPC   C4B39178  25.247   5.477   7.565
 2955POPC   NC339179  11.681  30.573   9.528
 2955POPC   PO439180  12.428  30.351   9.473
 2955POPC   GL139181  12.287  30.628   9.131
 2955POPC   GL239182  11.947  30.753   9.117
 2955POPC   C1A39183  12.159  30.603   8.686
 2955POPC   D2A39184  12.332  30.676   8.306
 2955POPC   C3A39185  12.215  30.431   7.994
 2955POPC   C4A39186  12.436  30.739   7.767
 2955POPC   C1B39187  11.801  30.984   8.750
 2955POPC   C2B39188  11.831  30.809   8.315
 2955POPC   C3B39189  12.006  30.938   7.931
 2955POPC   C4B39190  11.873  30.845   7.473
 2956POPC   NC339191  21.143  29.945   9.534
 2956POPC   PO439192  21.536  29.496   9.415
 2956POPC   GL139193  21.378  29.785   9.088
 2956POPC   GL239194  21.258  30.156   9.082
 2956POPC   C1A39195  21.634  29.988   8.763
 2956POPC   D2A39196  21.571  30.216   8.386
 2956POPC   C3A39197  21.472  30.022   8.005
 2956POPC   C4A39198  21.524  29.955   7.580
 2956POPC   C1B39199  20.958  30.408   8.785
 2956POPC   C2B39200  21.111  30.484   8.382
 2956POPC   C3B39201  20.956  30.462   7.956
 2956POPC   C4B39202  21.031  30.115   7.715
 2957POPC   NC339203   2.126  15.849   9.555
 2957POPC   PO439204   2.039  16.503   9.613
 2957POPC   GL139205   2.153  16.262   9.249
 2957POPC   GL239206   1.841  16.181   9.124
 2957POPC   C1A39207   2.262  16.024   8.840
 2957POPC   D2A39208   2.101  16.112   8.422
 2957POPC   C3A39209   2.232  15.973   8.015
 2957POPC   C4A39210   1.928  15.900   7.729
 2957POPC   C1B39211   1.752  15.924   8.745
 2957POPC   C2B39212   2.015  15.634   8.555
 2957POPC   C3B39213   2.022  15.540   8.161
 2957POPC   C4B39214   2.321  15.518   7.789
 2958POPC   NC339215  20.083  28.524   9.436
 2958POPC   PO439216  19.483  28.395   9.655
 2958POPC   GL139217  19.643  28.267   9.245
 2958POPC   GL239218  19.668  28.598   9.164
 2958POPC   C1A39219  19.649  28.247   8.778
 2958POPC   D2A39220  19.885  28.363   8.408
 2958POPC   C3A39221  19.718  28.231   8.062
 2958POPC   C4A39222  19.791  28.306   7.676
 2958POPC   C1B39223  19.936  28.703   8.791
 2958POPC   C2B39224  20.152  28.799   8.397
 2958POPC   C3B39225  19.929  28.776   8.015
 2958POPC   C4B39226  20.083  28.719   7.600
 2959POPC   NC339227  42.658   3.613   9.744
 2959POPC   PO439228  42.117   3.312   9.428
 2959POPC   GL139229  42.256   3.319   9.069
 2959POPC   GL239230  42.552   3.167   9.197
 2959POPC   C1A39231  42.234   3.591   8.688
 2959POPC   D2A39232  42.465   3.900   8.415
 2959POPC   C3A39233  42.232   3.959   8.033
 2959POPC   C4A39234  42.033   3.649   7.780
 2959POPC   C1B39235  42.652   3.279   8.780
 2959POPC   C2B39236  42.686   3.433   8.403
 2959POPC   C3B39237  42.452   3.495   8.046
 2959POPC   C4B39238  42.705   3.319   7.716
 2960POPC   NC339239  33.023  44.244   9.388
 2960POPC   PO439240  32.768  43.637   9.596
 2960POPC   GL139241  32.925  43.766   9.149
 2960POPC   GL239242  32.894  44.107   8.933
 2960POPC   C1A39243  32.997  43.692   8.686
 2960POPC   D2A39244  32.839  44.057   8.424
 2960POPC   C3A39245  32.721  43.953   8.046
 2960POPC   C4A39246  32.829  43.715   7.688
 2960POPC   C1B39247  33.305  44.081   8.626
 2960POPC   C2B39248  33.286  44.146   8.145
 2960POPC   C3B39249  33.076  44.153   7.716
 2960POPC   C4B39250  33.248  44.325   7.307
 2961POPC   NC339251   2.667  13.790   9.472
 2961POPC   PO439252   3.272  13.613   9.505
 2961POPC   GL139253   3.089  13.796   9.104
 2961POPC   GL239254   2.806  13.557   9.041
 2961POPC   C1A39255   2.882  13.924   8.698
 2961POPC   D2A39256   2.570  13.951   8.335
 2961POPC   C3A39257   2.732  13.836   7.924
 2961POPC   C4A39258   2.643  13.644   7.507
 2961POPC   C1B39259   2.689  13.457   8.608
 2961POPC   C2B39260   2.626  13.420   8.177
 2961POPC   C3B39261   2.677  13.219   7.797
 2961POPC   C4B39262   2.955  13.025   7.503
 2962POPC   NC339263   5.298  40.471   9.439
 2962POPC   PO439264   5.097  41.061   9.559
 2962POPC   GL139265   5.195  40.901   9.173
 2962POPC   GL239266   5.510  41.042   9.158
 2962POPC   C1A39267   5.067  40.662   8.796
 2962POPC   D2A39268   5.165  40.467   8.415
 2962POPC   C3A39269   5.131  40.774   8.076
 2962POPC   C4A39270   5.336  40.779   7.688
 2962POPC   C1B39271   5.417  40.998   8.710
 2962POPC   C2B39272   5.564  41.045   8.292
 2962POPC   C3B39273   5.402  41.225   7.943
 2962POPC   C4B39274   5.337  41.252   7.486
 2963POPC   NC339275  31.992  44.497   9.565
 2963POPC   PO439276  32.571  44.345   9.423
 2963POPC   GL139277  32.310  44.628   9.172
 2963POPC   GL239278  32.011  44.866   9.212
 2963POPC   C1A39279  32.395  44.842   8.803
 2963POPC   D2A39280  32.310  44.653   8.430
 2963POPC   C3A39281  32.485  44.838   8.149
 2963POPC   C4A39282  32.531  44.789   7.746
 2963POPC   C1B39283  31.873  44.794   8.781
 2963POPC   C2B39284  31.893  44.910   8.326
 2963POPC   C3B39285  32.034  44.717   7.913
 2963POPC   C4B39286  32.105  44.961   7.527
 2964POPC   NC339287  20.369   0.936   9.490
 2964POPC   PO439288  20.745   1.546   9.557
 2964POPC   GL139289  20.615   1.239   9.174
 2964POPC   GL239290  20.770   0.859   9.176
 2964POPC   C1A39291  20.484   1.042   8.756
 2964POPC   D2A39292  20.427   0.840   8.351
 2964POPC   C3A39293  20.620   0.936   7.961
 2964POPC   C4A39294  20.714   1.329   7.809
 2964POPC   C1B39295  20.971   0.905   8.790
 2964POPC   C2B39296  20.916   1.093   8.397
 2964POPC   C3B39297  21.095   1.101   8.009
 2964POPC   C4B39298  21.011   0.969   7.584
 2965POPC   NC339299  42.713  24.735   9.484
 2965POPC   PO439300  42.965  24.072   9.473
 2965POPC   GL139301  42.971  24.411   9.156
 2965POPC   GL239302  43.293  24.538   9.039
 2965POPC   C1A39303  42.812  24.579   8.777
 2965POPC   D2A39304  42.779  24.349   8.376
 2965POPC   C3A39305  42.843  24.674   8.075
 2965POPC   C4A39306  43.139  24.589   7.759
 2965POPC   C1B39307  43.232  24.350   8.651
 2965POPC   C2B39308  43.341  24.316   8.232
 2965POPC   C3B39309  43.592  24.541   7.955
 2965POPC   C4B39310  43.580  24.639   7.472
 2966POPC   NC339311  44.135  24.103   9.535
 2966POPC   PO439312  44.811  24.414   9.461
 2966POPC   GL139313  44.647  24.677   9.156
 2966POPC   GL239314  44.278  24.703   9.178
 2966POPC   C1A39315  44.769  24.663   8.733
 2966POPC   D2A39316  44.558  24.320   8.465
 2966POPC   C3A39317  44.586  24.447   8.052
 2966POPC   C4A39318  44.914  24.758   7.935
 2966POPC   C1B39319  44.244  24.646   8.732
 2966POPC   C2B39320  44.453  24.844   8.386
 2966POPC   C3B39321  44.438  24.933   7.992
 2966POPC   C4B39322  44.340  24.677   7.645
 2967POPC   NC339323  26.707  22.326   9.489
 2967POPC   PO439324  27.084  21.728   9.542
 2967POPC   GL139325  26.919  21.966   9.198
 2967POPC   GL239326  27.121  22.271   9.148
 2967POPC   C1A39327  26.651  22.131   8.840
 2967POPC   D2A39328  26.603  22.327   8.406
 2967POPC   C3A39329  26.721  22.083   8.016
 2967POPC   C4A39330  26.667  22.020   7.548
 2967POPC   C1B39331  26.966  22.523   8.790
 2967POPC   C2B39332  26.967  22.709   8.373
 2967POPC   C3B39333  26.847  22.583   7.998
 2967POPC   C4B39334  27.005  22.355   7.677
 2968POPC   NC339335  28.056   0.974   9.452
 2968POPC   PO439336  27.351   1.264   9.542
 2968POPC   GL139337  27.633   1.260   9.196
 2968POPC   GL239338  27.889   1.542   9.198
 2968POPC   C1A39339  27.457   1.168   8.763
 2968POPC   D2A39340  27.192   1.070   8.438
 2968POPC   C3A39341  27.434   1.109   8.099
 2968POPC   C4A39342  27.508   1.101   7.677
 2968POPC   C1B39343  27.913   1.356   8.779
 2968POPC   C2B39344  27.826   0.981   8.475
 2968POPC   C3B39345  27.910   0.945   8.031
 2968POPC   C4B39346  27.877   1.390   7.920
 2969POPC   NC339347  13.877  41.588   9.561
 2969POPC   PO439348  13.492  40.985   9.401
 2969POPC   GL139349  13.479  41.394   9.200
 2969POPC   GL239350  13.807  41.468   9.038
 2969POPC   C1A39351  13.365  41.598   8.800
 2969POPC   D2A39352  13.598  41.582   8.410
 2969POPC   C3A39353  13.353  41.675   8.047
 2969POPC   C4A39354  13.444  41.455   7.637
 2969POPC   C1B39355  13.931  41.820   8.738
 2969POPC   C2B39356  13.870  41.984   8.333
 2969POPC   C3B39357  13.846  41.752   7.910
 2969POPC   C4B39358  13.916  41.302   7.790
 2970POPC   NC339359  33.225  25.532   9.704
 2970POPC   PO439360  33.133  24.926   9.595
 2970POPC   GL139361  33.187  25.187   9.246
 2970POPC   GL239362  33.031  25.500   9.212
 2970POPC   C1A39363  33.127  25.148   8.814
 2970POPC   D2A39364  33.309  25.020   8.424
 2970POPC   C3A39365  33.206  25.154   8.085
 2970POPC   C4A39366  33.053  25.123   7.688
 2970POPC   C1B39367  32.668  25.381   8.901
 2970POPC   C2B39368  32.578  25.462   8.469
 2970POPC   C3B39369  32.756  25.365   8.075
 2970POPC   C4B39370  32.817  25.594   7.689
 2971POPC   NC339371  34.970  41.568   9.445
 2971POPC   PO439372  35.528  41.195   9.465
 2971POPC   GL139373  35.384  41.486   9.094
 2971POPC   GL239374  35.181  41.789   9.056
 2971POPC   C1A39375  35.274  41.545   8.641
 2971POPC   D2A39376  35.078  41.256   8.393
 2971POPC   C3A39377  35.361  41.141   8.073
 2971POPC   C4A39378  35.453  41.278   7.661
 2971POPC   C1B39379  35.003  42.011   8.716
 2971POPC   C2B39380  35.259  41.965   8.325
 2971POPC   C3B39381  35.231  41.637   8.037
 2971POPC   C4B39382  35.060  41.797   7.702
 2972POPC   NC339383  18.801  19.537   9.848
 2972POPC   PO439384  19.351  19.740   9.453
 2972POPC   GL139385  19.229  19.906   9.038
 2972POPC   GL239386  19.486  20.132   8.940
 2972POPC   C1A39387  18.948  19.942   8.689
 2972POPC   D2A39388  19.031  19.646   8.378
 2972POPC   C3A39389  18.826  19.474   8.062
 2972POPC   C4A39390  18.720  19.281   7.718
 2972POPC   C1B39391  19.300  20.313   8.585
 2972POPC   C2B39392  19.227  20.101   8.200
 2972POPC   C3B39393  19.066  19.893   7.853
 2972POPC   C4B39394  19.107  19.854   7.404
 2973POPC   NC339395  13.234  15.266   9.601
 2973POPC   PO439396  12.672  15.096   9.841
 2973POPC   GL139397  12.851  15.005   9.348
 2973POPC   GL239398  12.570  15.027   9.051
 2973POPC   C1A39399  13.020  14.905   8.900
 2973POPC   D2A39400  12.768  14.918   8.512
 2973POPC   C3A39401  12.961  14.861   8.130
 2973POPC   C4A39402  12.759  14.987   7.785
 2973POPC   C1B39403  12.783  15.351   8.785
 2973POPC   C2B39404  12.993  15.361   8.414
 2973POPC   C3B39405  12.777  15.401   8.086
 2973POPC   C4B39406  12.763  15.640   7.764
 2974POPC   NC339407  17.901  43.017   9.376
 2974POPC   PO439408  18.536  43.361   9.493
 2974POPC   GL139409  18.279  43.323   9.145
 2974POPC   GL239410  18.532  43.108   8.952
 2974POPC   C1A39411  18.122  43.285   8.724
 2974POPC   D2A39412  18.479  43.244   8.430
 2974POPC   C3A39413  18.427  43.281   8.028
 2974POPC   C4A39414  18.107  43.260   7.787
 2974POPC   C1B39415  18.367  42.813   8.632
 2974POPC   C2B39416  18.506  42.776   8.204
 2974POPC   C3B39417  18.355  42.813   7.810
 2974POPC   C4B39418  18.616  43.086   7.599
 2975POPC   NC339419  15.507   3.650   9.396
 2975POPC   PO439420  14.931   3.148   9.458
 2975POPC   GL139421  15.111   3.418   9.155
 2975POPC   GL239422  15.111   3.802   9.100
 2975POPC   C1A39423  15.074   3.461   8.726
 2975POPC   D2A39424  15.298   3.504   8.351
 2975POPC   C3A39425  15.075   3.426   7.990
 2975POPC   C4A39426  14.863   3.714   7.760
 2975POPC   C1B39427  15.464   3.825   8.762
 2975POPC   C2B39428  15.619   3.892   8.338
 2975POPC   C3B39429  15.394   3.824   7.947
 2975POPC   C4B39430  15.289   3.772   7.506
 2976POPC   NC339431  33.165  10.844   9.413
 2976POPC   PO439432  32.720  10.399   9.550
 2976POPC   GL139433  32.860  10.565   9.100
 2976POPC   GL239434  33.134  10.761   8.906
 2976POPC   C1A39435  32.830  10.462   8.645
 2976POPC   D2A39436  32.959  10.644   8.258
 2976POPC   C3A39437  32.805  10.410   7.935
 2976POPC   C4A39438  32.733  10.442   7.480
 2976POPC   C1B39439  33.323  10.361   8.666
 2976POPC   C2B39440  33.234  10.177   8.251
 2976POPC   C3B39441  33.330  10.444   7.896
 2976POPC   C4B39442  33.217  10.526   7.471
 2977POPC   NC339443  13.636   7.982   9.483
 2977POPC   PO439444  13.194   8.465   9.340
 2977POPC   GL139445  13.584   8.316   9.101
 2977POPC   GL239446  13.730   7.948   9.002
 2977POPC   C1A39447  13.860   8.356   8.740
 2977POPC   D2A39448  13.791   8.158   8.358
 2977POPC   C3A39449  13.722   8.440   8.030
 2977POPC   C4A39450  13.388   8.340   7.791
 2977POPC   C1B39451  13.442   7.942   8.692
 2977POPC   C2B39452  13.316   7.796   8.291
 2977POPC   C3B39453  13.596   7.841   7.940
 2977POPC   C4B39454  14.016   7.684   7.870
 2978POPC   NC339455  10.835  15.026   9.517
 2978POPC   PO439456  10.239  15.367   9.671
 2978POPC   GL139457  10.378  15.299   9.199
 2978POPC   GL239458  10.537  14.978   9.106
 2978POPC   C1A39459  10.254  15.138   8.730
 2978POPC   D2A39460  10.492  14.943   8.379
 2978POPC   C3A39461  10.556  15.130   7.997
 2978POPC   C4A39462  10.250  15.387   7.784
 2978POPC   C1B39463  10.841  14.856   8.765
 2978POPC   C2B39464  10.916  14.662   8.367
 2978POPC   C3B39465  10.941  14.795   7.988
 2978POPC   C4B39466  10.721  14.874   7.579
 2979POPC   NC339467  41.318  13.657   9.386
 2979POPC   PO439468  41.945  13.879   9.649
 2979POPC   GL139469  41.797  13.730   9.262
 2979POPC   GL239470  41.764  13.368   9.344
 2979POPC   C1A39471  41.655  13.839   8.856
 2979POPC   D2A39472  41.447  13.892   8.453
 2979POPC   C3A39473  41.648  13.741   8.074
 2979POPC   C4A39474  41.540  13.634   7.631
 2979POPC   C1B39475  41.752  13.319   8.913
 2979POPC   C2B39476  41.840  13.516   8.516
 2979POPC   C3B39477  41.956  13.349   8.136
 2979POPC   C4B39478  41.786  13.217   7.751
 2980POPC   NC339479  33.924   3.077   9.432
 2980POPC   PO439480  33.637   2.422   9.500
 2980POPC   GL139481  33.857   2.606   9.209
 2980POPC   GL239482  33.594   2.789   9.111
 2980POPC   C1A39483  33.975   2.504   8.805
 2980POPC   D2A39484  34.051   2.763   8.469
 2980POPC   C3A39485  34.116   2.529   8.121
 2980POPC   C4A39486  33.967   2.685   7.722
 2980POPC   C1B39487  33.430   2.848   8.736
 2980POPC   C2B39488  33.608   3.071   8.440
 2980POPC   C3B39489  33.742   2.954   8.082
 2980POPC   C4B39490  33.590   3.056   7.719
 2981POPC   NC339491  27.763  14.943   9.367
 2981POPC   PO439492  27.899  15.535   9.698
 2981POPC   GL139493  27.819  15.470   9.225
 2981POPC   GL239494  27.487  15.284   9.111
 2981POPC   C1A39495  27.846  15.418   8.755
 2981POPC   D2A39496  27.576  15.447   8.397
 2981POPC   C3A39497  27.716  15.334   7.998
 2981POPC   C4A39498  27.773  15.344   7.565
 2981POPC   C1B39499  27.602  14.971   8.750
 2981POPC   C2B39500  27.818  14.977   8.375
 2981POPC   C3B39501  27.669  14.820   7.980
 2981POPC   C4B39502  27.393  14.618   7.708
 2982POPC   NC339503   5.428  42.249   9.605
 2982POPC   PO439504   4.933  42.682   9.733
 2982POPC   GL139505   5.097  42.373   9.272
 2982POPC   GL239506   5.370  42.581   9.187
 2982POPC   C1A39507   4.836  42.194   8.885
 2982POPC   D2A39508   4.875  42.318   8.481
 2982POPC   C3A39509   4.850  41.991   8.167
 2982POPC   C4A39510   4.756  42.189   7.755
 2982POPC   C1B39511   5.307  42.389   8.788
 2982POPC   C2B39512   5.320  42.091   8.473
 2982POPC   C3B39513   5.215  42.337   8.098
 2982POPC   C4B39514   5.225  42.454   7.672
 2983POPC   NC339515   6.201  32.163   9.856
 2983POPC   PO439516   6.758  32.356   9.501
 2983POPC   GL139517   6.658  32.530   9.146
 2983POPC   GL239518   6.787  32.206   8.994
 2983POPC   C1A39519   6.711  32.636   8.748
 2983POPC   D2A39520   6.809  32.292   8.463
 2983POPC   C3A39521   6.677  32.432   8.093
 2983POPC   C4A39522   6.985  32.387   7.796
 2983POPC   C1B39523   6.396  32.240   8.733
 2983POPC   C2B39524   6.333  32.087   8.341
 2983POPC   C3B39525   6.631  31.909   8.123
 2983POPC   C4B39526   6.645  32.036   7.718
 2984POPC   NC339527  23.859  10.262   9.407
 2984POPC   PO439528  23.378  10.751   9.560
 2984POPC   GL139529  23.505  10.568   9.179
 2984POPC   GL239530  23.853  10.659   9.076
 2984POPC   C1A39531  23.547  10.360   8.786
 2984POPC   D2A39532  23.667  10.606   8.455
 2984POPC   C3A39533  23.489  10.540   8.088
 2984POPC   C4A39534  23.571  10.445   7.692
 2984POPC   C1B39535  24.057  10.877   8.738
 2984POPC   C2B39536  24.143  10.728   8.317
 2984POPC   C3B39537  24.011  10.607   7.886
 2984POPC   C4B39538  23.932  10.708   7.419
 2985POPC   NC339539  38.119  42.130   9.534
 2985POPC   PO439540  38.306  42.755   9.732
 2985POPC   GL139541  38.412  42.528   9.303
 2985POPC   GL239542  38.636  42.200   9.279
 2985POPC   C1A39543  38.262  42.548   8.862
 2985POPC   D2A39544  38.293  42.301   8.450
 2985POPC   C3A39545  38.342  42.564   8.084
 2985POPC   C4A39546  38.153  42.574   7.675
 2985POPC   C1B39547  38.440  42.065   8.889
 2985POPC   C2B39548  38.593  41.855   8.502
 2985POPC   C3B39549  38.608  41.992   8.076
 2985POPC   C4B39550  38.696  42.335   7.769
 2986POPC   NC339551  23.391  27.707   9.600
 2986POPC   PO439552  24.165  27.842   9.487
 2986POPC   GL139553  23.833  27.629   9.207
 2986POPC   GL239554  23.514  27.621   9.113
 2986POPC   C1A39555  23.824  27.576   8.733
 2986POPC   D2A39556  23.656  27.705   8.311
 2986POPC   C3A39557  23.777  27.507   7.908
 2986POPC   C4A39558  23.984  27.458   7.468
 2986POPC   C1B39559  23.337  27.758   8.727
 2986POPC   C2B39560  23.124  27.615   8.391
 2986POPC   C3B39561  23.276  27.583   7.965
 2986POPC   C4B39562  23.416  27.921   7.738
 2987POPC   NC339563  18.149  24.200   9.252
 2987POPC   PO439564  18.326  23.684   9.648
 2987POPC   GL139565  18.090  23.700   9.259
 2987POPC   GL239566  18.424  23.754   9.114
 2987POPC   C1A39567  18.013  23.752   8.796
 2987POPC   D2A39568  18.311  23.822   8.505
 2987POPC   C3A39569  18.202  23.715   8.139
 2987POPC   C4A39570  18.071  23.889   7.794
 2987POPC   C1B39571  18.711  23.950   8.821
 2987POPC   C2B39572  18.846  23.844   8.406
 2987POPC   C3B39573  18.655  23.932   8.077
 2987POPC   C4B39574  18.562  23.747   7.707
 2988POPC   NC339575  22.964  10.323   9.585
 2988POPC   PO439576  22.604  10.846   9.404
 2988POPC   GL139577  22.905  10.569   9.141
 2988POPC   GL239578  23.124  10.227   9.127
 2988POPC   C1A39579  23.052  10.551   8.728
 2988POPC   D2A39580  22.766  10.509   8.395
 2988POPC   C3A39581  22.912  10.615   8.008
 2988POPC   C4A39582  22.733  10.401   7.691
 2988POPC   C1B39583  23.157  10.033   8.740
 2988POPC   C2B39584  23.188  10.221   8.341
 2988POPC   C3B39585  23.173  10.180   7.897
 2988POPC   C4B39586  23.165  10.264   7.454
 2989POPC   NC339587  40.555  36.733   9.522
 2989POPC   PO439588  41.151  37.106   9.568
 2989POPC   GL139589  40.907  37.150   9.151
 2989POPC   GL239590  40.571  37.310   9.226
 2989POPC   C1A39591  40.964  37.009   8.684
 2989POPC   D2A39592  40.773  36.699   8.400
 2989POPC   C3A39593  40.950  36.718   8.004
 2989POPC   C4A39594  41.122  36.992   7.719
 2989POPC   C1B39595  40.494  37.068   8.823
 2989POPC   C2B39596  40.343  36.977   8.379
 2989POPC   C3B39597  40.534  37.021   7.919
 2989POPC   C4B39598  40.514  37.061   7.443
 2990POPC   NC339599  29.310  40.572   9.835
 2990POPC   PO439600  28.819  40.981   9.626
 2990POPC   GL139601  28.971  40.858   9.188
 2990POPC   GL239602  29.143  40.516   9.200
 2990POPC   C1A39603  29.261  40.841   8.827
 2990POPC   D2A39604  29.348  41.026   8.457
 2990POPC   C3A39605  29.492  40.843   8.084
 2990POPC   C4A39606  29.390  41.047   7.707
 2990POPC   C1B39607  28.848  40.506   8.828
 2990POPC   C2B39608  28.812  40.791   8.478
 2990POPC   C3B39609  28.976  40.842   8.042
 2990POPC   C4B39610  28.852  40.583   7.678
 2991POPC   NC339611  32.748   0.090   9.844
 2991POPC   PO439612  33.070  44.524   9.753
 2991POPC   GL139613  33.146  44.707   9.260
 2991POPC   GL239614  32.820  44.741   9.102
 2991POPC   C1A39615  33.170  44.523   8.812
 2991POPC   D2A39616  32.808  44.567   8.514
 2991POPC   C3A39617  32.861  44.487   8.067
 2991POPC   C4A39618  33.152  44.642   7.764
 2991POPC   C1B39619  33.029  44.982   8.730
 2991POPC   C2B39620  33.208  44.837   8.283
 2991POPC   C3B39621  33.388   0.073   7.868
 2991POPC   C4B39622  33.388   0.210   7.392
 2992POPC   NC339623  29.625   7.999   9.446
 2992POPC   PO439624  30.200   8.383   9.430
 2992POPC   GL139625  30.051   8.079   9.140
 2992POPC   GL239626  29.790   8.303   9.040
 2992POPC   C1A39627  29.989   7.857   8.732
 2992POPC   D2A39628  29.762   7.926   8.337
 2992POPC   C3A39629  29.863   8.023   7.902
 2992POPC   C4A39630  30.004   8.433   7.824
 2992POPC   C1B39631  29.499   8.206   8.724
 2992POPC   C2B39632  29.322   8.260   8.324
 2992POPC   C3B39633  29.525   8.401   7.964
 2992POPC   C4B39634  29.624   8.317   7.513
 2993POPC   NC339635  17.940  23.407   9.662
 2993POPC   PO439636  18.318  22.884   9.539
 2993POPC   GL139637  18.176  22.951   9.147
 2993POPC   GL239638  18.287  23.251   9.179
 2993POPC   C1A39639  18.157  22.834   8.709
 2993POPC   D2A39640  18.300  23.070   8.337
 2993POPC   C3A39641  18.160  22.918   7.962
 2993POPC   C4A39642  17.929  22.551   7.906
 2993POPC   C1B39643  18.285  23.338   8.782
 2993POPC   C2B39644  18.626  23.411   8.527
 2993POPC   C3B39645  18.601  23.401   8.083
 2993POPC   C4B39646  18.219  23.383   7.766
 2994POPC   NC339647   0.659  37.093   9.409
 2994POPC   PO439648   0.408  36.591   9.717
 2994POPC   GL139649   0.249  36.679   9.276
 2994POPC   GL239650   0.147  37.005   9.217
 2994POPC   C1A39651   0.481  36.795   8.867
 2994POPC   D2A39652   0.630  37.125   8.561
 2994POPC   C3A39653   0.735  37.004   8.132
 2994POPC   C4A39654   0.484  36.863   7.785
 2994POPC   C1B39655   0.201  37.241   8.861
 2994POPC   C2B39656   0.155  37.354   8.449
 2994POPC   C3B39657   0.180  37.209   8.018
 2994POPC   C4B39658   0.184  37.443   7.647
 2995POPC   NC339659   5.266   1.663   9.637
 2995POPC   PO439660   4.990   2.256   9.620
 2995POPC   GL139661   5.223   2.038   9.262
 2995POPC   GL239662   5.024   1.728   9.152
 2995POPC   C1A39663   5.312   1.983   8.814
 2995POPC   D2A39664   5.357   1.707   8.453
 2995POPC   C3A39665   5.384   1.946   8.082
 2995POPC   C4A39666   5.392   1.976   7.666
 2995POPC   C1B39667   4.865   1.736   8.693
 2995POPC   C2B39668   4.879   1.788   8.220
 2995POPC   C3B39669   4.880   1.956   7.808
 2995POPC   C4B39670   4.984   2.164   7.423
 2996POPC   NC339671  44.573  11.824   9.649
 2996POPC   PO439672  44.713  12.421   9.550
 2996POPC   GL139673  44.765  12.154   9.188
 2996POPC   GL239674  44.475  11.945   9.165
 2996POPC   C1A39675  44.659  12.196   8.732
 2996POPC   D2A39676  44.692  12.444   8.329
 2996POPC   C3A39677  44.743  12.110   8.052
 2996POPC   C4A39678  44.479  12.079   7.753
 2996POPC   C1B39679  44.401  11.702   8.814
 2996POPC   C2B39680  44.577  11.774   8.436
 2996POPC   C3B39681  44.372  11.739   8.107
 2996POPC   C4B39682  44.224  11.634   7.735
 2997POPC   NC339683  39.197  44.950   9.547
 2997POPC   PO439684  39.124  44.255   9.561
 2997POPC   GL139685  39.207  44.525   9.252
 2997POPC   GL239686  38.876  44.666   9.300
 2997POPC   C1A39687  39.520  44.752   8.970
 2997POPC   D2A39688  39.671  44.831   8.527
 2997POPC   C3A39689  39.394  44.732   8.182
 2997POPC   C4A39690  39.213  44.815   7.775
 2997POPC   C1B39691  38.997  44.813   8.898
 2997POPC   C2B39692  38.943  44.696   8.474
 2997POPC   C3B39693  38.802  44.878   8.105
 2997POPC   C4B39694  38.713  44.786   7.702
 2998POPC   NC339695  18.325  42.273   9.483
 2998POPC   PO439696  18.293  42.819   9.278
 2998POPC   GL139697  18.345  42.531   9.038
 2998POPC   GL239698  18.606  42.347   9.048
 2998POPC   C1A39699  18.079  42.301   8.802
 2998POPC   D2A39700  17.963  41.970   8.526
 2998POPC   C3A39701  18.004  42.004   8.086
 2998POPC   C4A39702  17.947  42.311   7.734
 2998POPC   C1B39703  18.559  42.359   8.603
 2998POPC   C2B39704  18.268  42.359   8.320
 2998POPC   C3B39705  18.418  42.303   7.932
 2998POPC   C4B39706  18.471  42.414   7.518
 2999POPC   NC339707  42.041   0.886   9.353
 2999POPC   PO439708  42.116   0.208   9.459
 2999POPC   GL139709  42.315   0.486   9.109
 2999POPC   GL239710  42.709   0.602   9.101
 2999POPC   C1A39711  42.139   0.511   8.720
 2999POPC   D2A39712  41.917   0.575   8.351
 2999POPC   C3A39713  42.121   0.762   8.072
 2999POPC   C4A39714  42.194   0.672   7.650
 2999POPC   C1B39715  42.654   0.495   8.694
 2999POPC   C2B39716  42.538   0.346   8.318
 2999POPC   C3B39717  42.565   0.510   7.920
 2999POPC   C4B39718  42.696   0.730   7.543
 3000POPC   NC339719  31.896  16.498   9.568
 3000POPC   PO439720  32.438  16.949   9.468
 3000POPC   GL139721  32.243  16.613   9.203
 3000POPC   GL239722  32.427  16.296   9.100
 3000POPC   C1A39723  32.110  16.696   8.799
 3000POPC   D2A39724  32.299  16.778   8.424
 3000POPC   C3A39725  32.152  17.005   8.087
 3000POPC   C4A39726  31.984  16.813   7.759
 3000POPC   C1B39727  32.563  16.420   8.692
 3000POPC   C2B39728  32.812  16.698   8.416
 3000POPC   C3B39729  32.615  16.751   8.013
 3000POPC   C4B39730  32.249  16.456   8.018
 3001POPC   NC339731   7.824   5.957   9.385
 3001POPC   PO439732   7.129   5.756   9.535
 3001POPC   GL139733   7.237   5.878   9.139
 3001POPC   GL239734   7.491   5.649   9.142
 3001POPC   C1A39735   7.116   6.011   8.719
 3001POPC   D2A39736   7.245   6.243   8.349
 3001POPC   C3A39737   7.102   6.202   7.931
 3001POPC   C4A39738   7.387   6.246   7.611
 3001POPC   C1B39739   7.626   5.863   8.758
 3001POPC   C2B39740   7.502   5.768   8.348
 3001POPC   C3B39741   7.530   5.522   7.975
 3001POPC   C4B39742   7.324   5.751   7.673
 3002POPC   NC339743   5.940   4.142   9.506
 3002POPC   PO439744   6.374   4.736   9.464
 3002POPC   GL139745   6.045   4.584   9.103
 3002POPC   GL239746   5.941   4.203   9.021
 3002POPC   C1A39747   6.231   4.402   8.682
 3002POPC   D2A39748   6.076   4.203   8.345
 3002POPC   C3A39749   6.133   4.370   7.956
 3002POPC   C4A39750   6.045   4.202   7.585
 3002POPC   C1B39751   5.724   4.397   8.676
 3002POPC   C2B39752   5.721   4.531   8.261
 3002POPC   C3B39753   5.639   4.472   7.842
 3002POPC   C4B39754   5.491   4.646   7.481
 3003POPC   NC339755  23.806  24.134   9.392
 3003POPC   PO439756  23.916  24.788   9.503
 3003POPC   GL139757  23.545  24.668   9.237
 3003POPC   GL239758  23.427  24.310   9.127
 3003POPC   C1A39759  23.468  24.670   8.795
 3003POPC   D2A39760  23.812  24.653   8.496
 3003POPC   C3A39761  23.614  24.600   8.131
 3003POPC   C4A39762  23.691  24.509   7.734
 3003POPC   C1B39763  23.655  24.190   8.762
 3003POPC   C2B39764  23.808  24.164   8.356
 3003POPC   C3B39765  24.050  24.338   8.069
 3003POPC   C4B39766  24.122  24.191   7.674
 3004POPC   NC339767  42.786  19.087   9.569
 3004POPC   PO439768  43.423  19.274   9.335
 3004POPC   GL139769  43.050  19.263   9.137
 3004POPC   GL239770  42.974  18.935   9.115
 3004POPC   C1A39771  43.177  19.155   8.727
 3004POPC   D2A39772  43.466  19.323   8.457
 3004POPC   C3A39773  43.391  19.123   8.084
 3004POPC   C4A39774  43.408  19.170   7.653
 3004POPC   C1B39775  42.832  18.716   8.742
 3004POPC   C2B39776  43.040  18.791   8.388
 3004POPC   C3B39777  42.842  18.868   8.035
 3004POPC   C4B39778  42.919  19.034   7.688
 3005POPC   NC339779  38.152  24.933   9.416
 3005POPC   PO439780  38.523  25.502   9.476
 3005POPC   GL139781  38.518  25.211   9.172
 3005POPC   GL239782  38.224  25.340   9.059
 3005POPC   C1A39783  38.629  24.969   8.816
 3005POPC   D2A39784  38.774  25.159   8.450
 3005POPC   C3A39785  38.655  25.025   8.052
 3005POPC   C4A39786  38.750  25.344   7.794
 3005POPC   C1B39787  38.131  25.048   8.745
 3005POPC   C2B39788  38.249  25.133   8.343
 3005POPC   C3B39789  38.309  25.482   8.104
 3005POPC   C4B39790  38.462  25.766   7.814
 3006POPC   NC339791   5.026  30.513   9.534
 3006POPC   PO439792   5.136  31.112   9.324
 3006POPC   GL139793   5.218  30.897   9.001
 3006POPC   GL239794   5.300  30.561   9.094
 3006POPC   C1A39795   4.930  30.715   8.768
 3006POPC   D2A39796   4.982  30.460   8.461
 3006POPC   C3A39797   4.839  30.699   8.110
 3006POPC   C4A39798   4.925  30.941   7.747
 3006POPC   C1B39799   5.472  30.432   8.681
 3006POPC   C2B39800   5.451  30.552   8.227
 3006POPC   C3B39801   5.315  30.530   7.785
 3006POPC   C4B39802   5.418  30.317   7.379
 3007POPC   NC339803   0.042  38.664   9.276
 3007POPC   PO439804  44.518  38.571   9.692
 3007POPC   GL139805  44.530  38.559   9.228
 3007POPC   GL239806  44.345  38.836   9.128
 3007POPC   C1A39807  44.710  38.284   8.866
 3007POPC   D2A39808  44.884  38.378   8.446
 3007POPC   C3A39809  44.555  38.541   8.181
 3007POPC   C4A39810  44.474  38.337   7.825
 3007POPC   C1B39811  44.482  38.719   8.723
 3007POPC   C2B39812  44.788  38.895   8.450
 3007POPC   C3B39813   0.005  38.835   8.068
 3007POPC   C4B39814  44.790  38.713   7.684
 3008POPC   NC339815  20.734  40.068   9.614
 3008POPC   PO439816  20.237  40.537   9.495
 3008POPC   GL139817  20.416  40.222   9.215
 3008POPC   GL239818  20.653  39.932   9.130
 3008POPC   C1A39819  20.573  40.318   8.805
 3008POPC   D2A39820  20.747  40.369   8.417
 3008POPC   C3A39821  20.644  40.012   8.197
 3008POPC   C4A39822  20.365  40.110   7.871
 3008POPC   C1B39823  20.999  40.017   8.786
 3008POPC   C2B39824  21.179  40.131   8.347
 3008POPC   C3B39825  21.106  39.957   7.943
 3008POPC   C4B39826  20.727  39.758   7.770
 3009POPC   NC339827  20.261  41.037   9.493
 3009POPC   PO439828  19.594  40.720   9.497
 3009POPC   GL139829  19.904  40.789   9.185
 3009POPC   GL239830  19.728  41.107   9.157
 3009POPC   C1A39831  20.050  40.568   8.792
 3009POPC   D2A39832  19.826  40.509   8.384
 3009POPC   C3A39833  20.023  40.509   7.987
 3009POPC   C4A39834  19.945  40.896   7.811
 3009POPC   C1B39835  19.698  40.950   8.736
 3009POPC   C2B39836  19.470  40.875   8.377
 3009POPC   C3B39837  19.451  40.893   7.935
 3009POPC   C4B39838  19.244  40.586   7.695
 3010POPC   NC339839   8.269  40.464   9.406
 3010POPC   PO439840   8.232  39.728   9.490
 3010POPC   GL139841   8.201  40.035   9.164
 3010POPC   GL239842   8.112  39.803   8.958
 3010POPC   C1A39843   8.227  40.271   8.761
 3010POPC   D2A39844   8.236  40.038   8.403
 3010POPC   C3A39845   8.509  40.002   8.089
 3010POPC   C4A39846   8.353  40.015   7.696
 3010POPC   C1B39847   7.895  39.510   8.701
 3010POPC   C2B39848   7.680  39.630   8.333
 3010POPC   C3B39849   7.891  39.863   8.010
 3010POPC   C4B39850   8.028  39.650   7.645
 3011POPC   NC339851  38.925  24.415   9.501
 3011POPC   PO439852  39.339  24.947   9.640
 3011POPC   GL139853  39.247  24.752   9.239
 3011POPC   GL239854  39.360  24.396   9.204
 3011POPC   C1A39855  39.443  24.723   8.820
 3011POPC   D2A39856  39.287  24.539   8.429
 3011POPC   C3A39857  39.408  24.617   8.013
 3011POPC   C4A39858  39.101  24.687   7.737
 3011POPC   C1B39859  39.440  24.197   8.783
 3011POPC   C2B39860  39.542  24.095   8.345
 3011POPC   C3B39861  39.217  24.143   8.043
 3011POPC   C4B39862  39.061  24.094   7.655
 3012POPC   NC339863   9.941  40.989   9.679
 3012POPC   PO439864   9.503  40.585   9.528
 3012POPC   GL139865   9.749  40.682   9.181
 3012POPC   GL239866   9.779  41.017   9.191
 3012POPC   C1A39867   9.662  40.699   8.740
 3012POPC   D2A39868   9.878  40.733   8.377
 3012POPC   C3A39869   9.638  40.774   8.033
 3012POPC   C4A39870   9.538  40.489   7.726
 3012POPC   C1B39871   9.967  41.097   8.800
 3012POPC   C2B39872   9.847  41.241   8.413
 3012POPC   C3B39873   9.958  41.355   8.034
 3012POPC   C4B39874   9.783  41.145   7.719
 3013POPC   NC339875  34.157  23.630   9.406
 3013POPC   PO439876  33.794  24.176   9.570
 3013POPC   GL139877  33.691  23.946   9.171
 3013POPC   GL239878  33.541  23.608   9.153
 3013POPC   C1A39879  33.897  23.791   8.812
 3013POPC   D2A39880  34.007  23.599   8.454
 3013POPC   C3A39881  33.954  23.805   8.078
 3013POPC   C4A39882  33.942  23.551   7.737
 3013POPC   C1B39883  33.373  23.663   8.771
 3013POPC   C2B39884  33.494  23.762   8.381
 3013POPC   C3B39885  33.470  23.675   7.966
 3013POPC   C4B39886  33.439  24.100   7.858
 3014POPC   NC339887  26.317  10.139   9.387
 3014POPC   PO439888  26.859  10.543   9.561
 3014POPC   GL139889  26.851  10.723   9.166
 3014POPC   GL239890  26.896  10.391   9.001
 3014POPC   C1A39891  26.963  10.800   8.726
 3014POPC   D2A39892  26.866  10.464   8.455
 3014POPC   C3A39893  26.907  10.507   7.999
 3014POPC   C4A39894  26.825  10.882   7.741
 3014POPC   C1B39895  26.507  10.537   8.837
 3014POPC   C2B39896  26.404  10.694   8.425
 3014POPC   C3B39897  26.407  10.654   7.987
 3014POPC   C4B39898  26.546  10.468   7.612
 3015POPC   NC339899  19.883   8.061   9.696
 3015POPC   PO439900  19.711   7.470   9.433
 3015POPC   GL139901  19.605   7.609   9.065
 3015POPC   GL239902  19.925   7.677   8.985
 3015POPC   C1A39903  19.640   7.343   8.715
 3015POPC   D2A39904  19.731   7.196   8.334
 3015POPC   C3A39905  19.690   7.470   7.997
 3015POPC   C4A39906  19.701   7.337   7.614
 3015POPC   C1B39907  20.228   7.506   8.701
 3015POPC   C2B39908  20.127   7.503   8.289
 3015POPC   C3B39909  20.186   7.351   7.908
 3015POPC   C4B39910  20.095   7.696   7.691
 3016POPC   NC339911   8.349  30.495   9.509
 3016POPC   PO439912   7.740  30.711   9.555
 3016POPC   GL139913   8.031  30.816   9.236
 3016POPC   GL239914   8.390  30.890   9.115
 3016POPC   C1A39915   8.086  30.607   8.855
 3016POPC   D2A39916   8.187  30.778   8.488
 3016POPC   C3A39917   8.008  30.565   8.144
 3016POPC   C4A39918   8.052  30.686   7.725
 3016POPC   C1B39919   8.588  30.578   8.807
 3016POPC   C2B39920   8.483  30.383   8.403
 3016POPC   C3B39921   8.505  30.519   7.969
 3016POPC   C4B39922   8.377  30.354   7.545
 3017POPC   NC339923   1.016  30.792   9.463
 3017POPC   PO439924   1.485  30.342   9.532
 3017POPC   GL139925   1.296  30.499   9.122
 3017POPC   GL239926   1.135  30.853   9.000
 3017POPC   C1A39927   1.428  30.620   8.690
 3017POPC   D2A39928   1.219  30.906   8.394
 3017POPC   C3A39929   1.478  30.797   8.044
 3017POPC   C4A39930   1.330  30.446   7.823
 3017POPC   C1B39931   0.867  31.096   8.748
 3017POPC   C2B39932   0.597  31.069   8.448
 3017POPC   C3B39933   0.718  31.022   8.044
 3017POPC   C4B39934   1.037  30.899   7.844
 3018POPC   NC339935  43.417  34.413   9.439
 3018POPC   PO439936  42.752  34.603   9.306
 3018POPC   GL139937  43.130  34.673   9.049
 3018POPC   GL239938  43.319  34.936   9.190
 3018POPC   C1A39939  43.160  34.660   8.596
 3018POPC   D2A39940  43.087  34.674   8.169
 3018POPC   C3A39941  42.931  34.318   7.999
 3018POPC   C4A39942  43.112  34.458   7.635
 3018POPC   C1B39943  43.529  34.945   8.771
 3018POPC   C2B39944  43.563  34.809   8.297
 3018POPC   C3B39945  43.535  34.725   7.836
 3018POPC   C4B39946  43.426  34.735   7.360
 3019POPC   NC339947  44.150  43.278   9.307
 3019POPC   PO439948  43.553  42.943   9.515
 3019POPC   GL139949  43.692  43.081   9.143
 3019POPC   GL239950  43.636  43.453   9.195
 3019POPC   C1A39951  43.902  42.935   8.733
 3019POPC   D2A39952  43.771  43.055   8.322
 3019POPC   C3A39953  43.900  42.889   7.948
 3019POPC   C4A39954  43.521  42.831   7.776
 3019POPC   C1B39955  43.703  43.398   8.750
 3019POPC   C2B39956  44.055  43.440   8.491
 3019POPC   C3B39957  44.028  43.428   8.035
 3019POPC   C4B39958  43.637  43.322   7.826
 3020POPC   NC339959  13.268   4.464   9.545
 3020POPC   PO439960  13.924   4.743   9.498
 3020POPC   GL139961  13.605   4.676   9.202
 3020POPC   GL239962  13.619   4.324   9.155
 3020POPC   C1A39963  13.503   4.682   8.770
 3020POPC   D2A39964  13.748   4.480   8.462
 3020POPC   C3A39965  13.539   4.333   8.109
 3020POPC   C4A39966  13.596   4.563   7.761
 3020POPC   C1B39967  13.492   4.132   8.757
 3020POPC   C2B39968  13.734   3.954   8.420
 3020POPC   C3B39969  13.983   4.049   8.103
 3020POPC   C4B39970  13.838   4.118   7.717
 3021POPC   NC339971  37.317  35.202   9.428
 3021POPC   PO439972  38.017  35.267   9.531
 3021POPC   GL139973  38.015  35.320   9.106
 3021POPC   GL239974  37.698  35.122   9.089
 3021POPC   C1A39975  37.969  35.244   8.683
 3021POPC   D2A39976  37.820  35.447   8.358
 3021POPC   C3A39977  37.833  35.173   8.078
 3021POPC   C4A39978  37.888  35.383   7.746
 3021POPC   C1B39979  37.474  35.416   8.748
 3021POPC   C2B39980  37.314  35.442   8.292
 3021POPC   C3B39981  37.399  35.356   7.837
 3021POPC   C4B39982  37.101  35.278   7.502
 3022POPC   NC339983   4.112  36.236   9.667
 3022POPC   PO439984   3.440  35.977   9.604
 3022POPC   GL139985   3.420  36.068   9.173
 3022POPC   GL239986   3.563  35.744   9.118
 3022POPC   C1A39987   3.639  36.125   8.764
 3022POPC   D2A39988   3.688  36.044   8.329
 3022POPC   C3A39989   3.576  36.239   7.959
 3022POPC   C4A39990   3.871  36.429   7.662
 3022POPC   C1B39991   3.316  35.698   8.761
 3022POPC   C2B39992   3.219  35.853   8.368
 3022POPC   C3B39993   3.412  35.741   7.989
 3022POPC   C4B39994   3.399  35.571   7.586
 3023POPC   NC339995  14.630  14.828   9.779
 3023POPC   PO439996  14.274  14.333   9.484
 3023POPC   GL139997  14.345  14.339   9.084
 3023POPC   GL239998  14.536  14.087   8.993
 3023POPC   C1A39999  14.472  14.504   8.690
 3023POPC   D2A40000  14.205  14.564   8.364
 3023POPC   C3A40001  14.376  14.435   7.960
 3023POPC   C4A40002  14.310  14.546   7.524
 3023POPC   C1B40003  14.803  14.110   8.684
 3023POPC   C2B40004  14.773  14.321   8.295
 3023POPC   C3B40005  14.866  14.550   7.909
 3023POPC   C4B40006  14.803  14.427   7.460
 3024POPC   NC340007  32.486  11.240   9.552
 3024POPC   PO440008  33.118  11.315   9.490
 3024POPC   GL140009  33.160  11.277   9.077
 3024POPC   GL240010  32.815  11.114   9.138
 3024POPC   C1A40011  33.267  11.600   8.728
 3024POPC   D2A40012  33.231  11.821   8.299
 3024POPC   C3A40013  33.235  11.474   7.982
 3024POPC   C4A40014  33.358  11.115   7.704
 3024POPC   C1B40015  32.748  11.381   8.798
 3024POPC   C2B40016  32.893  11.428   8.383
 3024POPC   C3B40017  32.793  11.216   8.005
 3024POPC   C4B40018  32.924  10.854   7.750
 3025POPC   NC340019  32.386   2.548   9.456
 3025POPC   PO440020  31.873   2.957   9.626
 3025POPC   GL140021  31.992   2.824   9.209
 3025POPC   GL240022  31.935   2.489   9.168
 3025POPC   C1A40023  32.239   2.801   8.810
 3025POPC   D2A40024  32.314   3.107   8.460
 3025POPC   C3A40025  32.609   3.035   8.117
 3025POPC   C4A40026  32.457   2.739   7.846
 3025POPC   C1B40027  32.091   2.298   8.851
 3025POPC   C2B40028  32.317   2.293   8.509
 3025POPC   C3B40029  32.167   2.451   8.134
 3025POPC   C4B40030  32.088   2.309   7.725
 3026POPC   NC340031   8.655   6.511   9.440
 3026POPC   PO440032   9.312   6.720   9.425
 3026POPC   GL140033   9.178   6.859   9.043
 3026POPC   GL240034   8.827   6.829   9.064
 3026POPC   C1A40035   9.170   6.843   8.621
 3026POPC   D2A40036   9.207   6.450   8.403
 3026POPC   C3A40037   9.303   6.533   7.986
 3026POPC   C4A40038   9.061   6.525   7.631
 3026POPC   C1B40039   8.794   6.507   8.765
 3026POPC   C2B40040   8.672   6.303   8.385
 3026POPC   C3B40041   8.667   6.448   7.958
 3026POPC   C4B40042   8.584   6.620   7.507
 3027POPC   NC340043  25.548  37.395   9.527
 3027POPC   PO440044  25.546  38.102   9.500
 3027POPC   GL140045  25.594  37.876   9.125
 3027POPC   GL240046  25.354  37.573   9.100
 3027POPC   C1A40047  25.546  37.822   8.688
 3027POPC   D2A40048  25.390  37.608   8.317
 3027POPC   C3A40049  25.523  37.687   7.895
 3027POPC   C4A40050  25.313  37.607   7.479
 3027POPC   C1B40051  25.072  37.644   8.764
 3027POPC   C2B40052  25.097  38.014   8.498
 3027POPC   C3B40053  25.369  38.120   8.170
 3027POPC   C4B40054  25.280  38.102   7.703
 3028POPC   NC340055  31.875  31.919   9.530
 3028POPC   PO440056  32.131  31.154   9.504
 3028POPC   GL140057  32.277  31.560   9.339
 3028POPC   GL240058  31.957  31.537   9.194
 3028POPC   C1A40059  32.299  31.807   8.943
 3028POPC   D2A40060  32.048  31.746   8.580
 3028POPC   C3A40061  32.124  31.803   8.144
 3028POPC   C4A40062  32.048  31.682   7.701
 3028POPC   C1B40063  32.075  31.282   8.839
 3028POPC   C2B40064  31.919  31.259   8.433
 3028POPC   C3B40065  32.040  31.308   8.038
 3028POPC   C4B40066  31.827  31.200   7.680
 3029POPC   NC340067   0.763  38.654   9.379
 3029POPC   PO440068   0.178  38.242   9.441
 3029POPC   GL140069   0.458  38.322   9.109
 3029POPC   GL240070   0.836  38.245   9.084
 3029POPC   C1A40071   0.505  38.156   8.708
 3029POPC   D2A40072   0.736  38.197   8.376
 3029POPC   C3A40073   0.388  38.197   8.151
 3029POPC   C4A40074   0.192  38.406   7.821
 3029POPC   C1B40075   0.741  38.604   8.761
 3029POPC   C2B40076   0.433  38.633   8.437
 3029POPC   C3B40077   0.592  38.646   8.038
 3029POPC   C4B40078   0.653  38.570   7.615
 3030POPC   NC340079  43.769   1.057   9.525
 3030POPC   PO440080  44.350   1.353   9.677
 3030POPC   GL140081  44.176   1.363   9.206
 3030POPC   GL240082  43.805   1.441   9.183
 3030POPC   C1A40083  44.006   1.449   8.739
 3030POPC   D2A40084  43.895   1.158   8.404
 3030POPC   C3A40085  43.992   1.280   7.981
 3030POPC   C4A40086  43.999   1.115   7.557
 3030POPC   C1B40087  43.571   1.195   8.836
 3030POPC   C2B40088  43.469   0.847   8.573
 3030POPC   C3B40089  43.480   0.835   8.133
 3030POPC   C4B40090  43.493   1.197   7.832
 3031POPC   NC340091  36.776   7.900   9.407
 3031POPC   PO440092  36.907   8.456   9.743
 3031POPC   GL140093  36.706   8.396   9.248
 3031POPC   GL240094  36.583   8.059   8.989
 3031POPC   C1A40095  36.860   8.421   8.788
 3031POPC   D2A40096  36.675   8.375   8.345
 3031POPC   C3A40097  36.970   8.535   8.046
 3031POPC   C4A40098  36.885   8.739   7.649
 3031POPC   C1B40099  36.756   7.928   8.599
 3031POPC   C2B40100  37.080   8.048   8.307
 3031POPC   C3B40101  37.011   8.067   7.874
 3031POPC   C4B40102  36.984   8.212   7.462
 3032POPC   NC340103  16.008   6.984   9.753
 3032POPC   PO440104  16.301   7.501   9.325
 3032POPC   GL140105  15.944   7.675   9.114
 3032POPC   GL240106  15.606   7.512   9.098
 3032POPC   C1A40107  15.925   7.550   8.697
 3032POPC   D2A40108  16.199   7.558   8.370
 3032POPC   C3A40109  15.966   7.497   8.013
 3032POPC   C4A40110  15.922   7.668   7.597
 3032POPC   C1B40111  15.609   7.144   8.737
 3032POPC   C2B40112  15.966   7.072   8.425
 3032POPC   C3B40113  16.104   6.993   7.986
 3032POPC   C4B40114  15.870   7.171   7.619
 3033POPC   NC340115  29.321  22.711   9.499
 3033POPC   PO440116  28.744  23.006   9.388
 3033POPC   GL140117  29.107  22.983   9.128
 3033POPC   GL240118  29.026  23.275   8.995
 3033POPC   C1A40119  29.280  22.842   8.739
 3033POPC   D2A40120  29.160  22.816   8.302
 3033POPC   C3A40121  29.407  22.821   7.930
 3033POPC   C4A40122  29.305  22.599   7.585
 3033POPC   C1B40123  28.796  23.041   8.699
 3033POPC   C2B40124  28.768  23.142   8.261
 3033POPC   C3B40125  28.904  23.095   7.799
 3033POPC   C4B40126  29.099  23.308   7.411
 3034POPC   NC340127  27.225   0.579   9.844
 3034POPC   PO440128  27.729   0.609   9.390
 3034POPC   GL140129  27.590   0.384   9.050
 3034POPC   GL240130  27.300   0.342   9.210
 3034POPC   C1A40131  27.668   0.095   8.685
 3034POPC   D2A40132  27.814   0.278   8.280
 3034POPC   C3A40133  27.709   0.213   7.846
 3034POPC   C4A40134  27.655   0.613   7.646
 3034POPC   C1B40135  27.179   0.382   8.769
 3034POPC   C2B40136  27.115   0.547   8.364
 3034POPC   C3B40137  27.261   0.455   7.961
 3034POPC   C4B40138  27.072   0.248   7.642
 3035POPC   NC340139   5.284  31.881   9.572
 3035POPC   PO440140   5.517  31.266   9.699
 3035POPC   GL140141   5.406  31.505   9.246
 3035POPC   GL240142   5.054  31.663   9.173
 3035POPC   C1A40143   5.271  31.384   8.779
 3035POPC   D2A40144   4.871  31.253   8.607
 3035POPC   C3A40145   4.865  31.264   8.159
 3035POPC   C4A40146   5.116  31.411   7.820
 3035POPC   C1B40147   5.117  31.863   8.734
 3035POPC   C2B40148   5.147  31.716   8.287
 3035POPC   C3B40149   5.161  31.908   7.865
 3035POPC   C4B40150   4.919  31.773   7.469
 3036POPC   NC340151  44.019  13.646   9.614
 3036POPC   PO440152  43.428  13.538   9.920
 3036POPC   GL140153  43.582  13.723   9.387
 3036POPC   GL240154  43.910  13.908   9.195
 3036POPC   C1A40155  43.607  13.628   8.901
 3036POPC   D2A40156  43.888  13.526   8.558
 3036POPC   C3A40157  43.786  13.515   8.100
 3036POPC   C4A40158  44.111  13.443   7.794
 3036POPC   C1B40159  43.897  14.034   8.745
 3036POPC   C2B40160  43.704  14.038   8.341
 3036POPC   C3B40161  43.806  13.972   7.913
 3036POPC   C4B40162  44.057  13.873   7.547
 3037POPC   NC340163  26.060  31.883   9.423
 3037POPC   PO440164  26.435  31.357   9.565
 3037POPC   GL140165  26.207  31.459   9.174
 3037POPC   GL240166  26.368  31.754   9.037
 3037POPC   C1A40167  25.946  31.586   8.781
 3037POPC   D2A40168  25.828  31.779   8.368
 3037POPC   C3A40169  26.003  31.550   8.001
 3037POPC   C4A40170  25.824  31.158   7.798
 3037POPC   C1B40171  26.437  31.393   8.710
 3037POPC   C2B40172  26.392  31.169   8.282
 3037POPC   C3B40173  26.354  31.189   7.829
 3037POPC   C4B40174  26.163  31.059   7.422
 3038POPC   NC340175  36.929   8.040   9.941
 3038POPC   PO440176  36.750   7.462   9.585
 3038POPC   GL140177  36.640   7.255   9.202
 3038POPC   GL240178  36.991   7.312   9.122
 3038POPC   C1A40179  36.675   7.194   8.752
 3038POPC   D2A40180  37.002   7.237   8.444
 3038POPC   C3A40181  36.841   7.331   8.072
 3038POPC   C4A40182  37.012   7.188   7.729
 3038POPC   C1B40183  37.118   7.592   8.773
 3038POPC   C2B40184  37.351   7.602   8.334
 3038POPC   C3B40185  37.252   7.619   7.858
 3038POPC   C4B40186  36.876   7.670   7.561
 3039POPC   NC340187   9.917  38.540   9.469
 3039POPC   PO440188   9.239  38.454   9.554
 3039POPC   GL140189   9.472  38.534   9.138
 3039POPC   GL240190   9.696  38.852   9.118
 3039POPC   C1A40191   9.681  38.580   8.702
 3039POPC   D2A40192   9.493  38.763   8.318
 3039POPC   C3A40193   9.605  38.597   7.932
 3039POPC   C4A40194   9.912  38.297   7.866
 3039POPC   C1B40195  10.119  38.858   8.830
 3039POPC   C2B40196  10.323  38.745   8.424
 3039POPC   C3B40197  10.145  38.765   7.997
 3039POPC   C4B40198  10.067  38.694   7.564
 3040POPC   NC340199  28.825   2.794   9.562
 3040POPC   PO440200  29.475   2.490   9.558
 3040POPC   GL140201  29.219   2.752   9.211
 3040POPC   GL240202  28.882   2.635   9.103
 3040POPC   C1A40203  29.219   2.927   8.763
 3040POPC   D2A40204  29.420   2.749   8.381
 3040POPC   C3A40205  29.448   2.953   7.967
 3040POPC   C4A40206  29.321   2.757   7.549
 3040POPC   C1B40207  28.767   2.664   8.691
 3040POPC   C2B40208  28.911   2.905   8.349
 3040POPC   C3B40209  28.956   2.897   7.916
 3040POPC   C4B40210  28.883   2.509   7.644
 3041POPC   NC340211  17.903   3.844   9.531
 3041POPC   PO440212  17.381   3.580   9.433
 3041POPC   GL140213  17.480   3.527   9.073
 3041POPC   GL240214  17.657   3.837   9.060
 3041POPC   C1A40215  17.355   3.324   8.752
 3041POPC   D2A40216  17.571   3.239   8.401
 3041POPC   C3A40217  17.401   3.493   8.137
 3041POPC   C4A40218  17.253   3.676   7.792
 3041POPC   C1B40219  17.662   3.717   8.631
 3041POPC   C2B40220  17.884   3.620   8.292
 3041POPC   C3B40221  17.753   3.816   7.924
 3041POPC   C4B40222  17.418   4.134   7.865
 3042POPC   NC340223  26.236  23.625   9.611
 3042POPC   PO440224  25.653  23.799   9.798
 3042POPC   GL140225  25.865  23.713   9.286
 3042POPC   GL240226  26.179  23.472   9.126
 3042POPC   C1A40227  25.891  23.759   8.814
 3042POPC   D2A40228  26.208  23.722   8.473
 3042POPC   C3A40229  26.039  23.811   8.042
 3042POPC   C4A40230  25.845  24.052   7.661
 3042POPC   C1B40231  26.386  23.295   8.720
 3042POPC   C2B40232  26.333  23.268   8.255
 3042POPC   C3B40233  26.394  23.471   7.862
 3042POPC   C4B40234  26.180  23.708   7.541
 3043POPC   NC340235  41.217  31.518   9.355
 3043POPC   PO440236  41.165  31.326  10.033
 3043POPC   GL140237  40.834  31.250   9.499
 3043POPC   GL240238  40.691  31.520   9.204
 3043POPC   C1A40239  40.841  31.131   8.941
 3043POPC   D2A40240  40.789  31.391   8.483
 3043POPC   C3A40241  40.562  31.308   8.032
 3043POPC   C4A40242  40.761  31.406   7.599
 3043POPC   C1B40243  40.911  31.803   8.855
 3043POPC   C2B40244  41.090  31.836   8.420
 3043POPC   C3B40245  40.970  31.699   7.976
 3043POPC   C4B40246  41.047  31.823   7.511
 3044POPC   NC340247  19.383  36.702   9.469
 3044POPC   PO440248  18.841  37.097   9.568
 3044POPC   GL140249  19.031  37.062   9.170
 3044POPC   GL240250  19.367  37.156   9.151
 3044POPC   C1A40251  19.058  36.822   8.780
 3044POPC   D2A40252  18.830  36.656   8.414
 3044POPC   C3A40253  18.780  36.728   7.987
 3044POPC   C4A40254  18.675  37.044   7.750
 3044POPC   C1B40255  19.551  37.070   8.759
 3044POPC   C2B40256  19.281  37.122   8.409
 3044POPC   C3B40257  19.250  36.957   8.023
 3044POPC   C4B40258  19.548  36.772   7.773
 3045POPC   NC340259  43.179   6.215   9.682
 3045POPC   PO440260  42.989   5.580   9.591
 3045POPC   GL140261  43.143   5.788   9.194
 3045POPC   GL240262  43.296   6.157   9.140
 3045POPC   C1A40263  42.944   5.820   8.764
 3045POPC   D2A40264  43.077   6.063   8.384
 3045POPC   C3A40265  42.849   5.951   8.036
 3045POPC   C4A40266  42.884   5.916   7.626
 3045POPC   C1B40267  43.430   5.954   8.759
 3045POPC   C2B40268  43.294   5.617   8.447
 3045POPC   C3B40269  43.297   5.692   8.042
 3045POPC   C4B40270  43.363   5.573   7.660
 3046POPC   NC340271  19.470  31.046   9.642
 3046POPC   PO440272  18.947  30.555   9.561
 3046POPC   GL140273  18.842  30.532   9.114
 3046POPC   GL240274  18.661  30.863   9.058
 3046POPC   C1A40275  19.205  30.415   8.796
 3046POPC   D2A40276  19.298  30.238   8.357
 3046POPC   C3A40277  19.401  30.526   8.035
 3046POPC   C4A40278  19.377  30.849   7.723
 3046POPC   C1B40279  19.014  30.928   8.782
 3046POPC   C2B40280  19.079  30.724   8.396
 3046POPC   C3B40281  18.973  30.807   8.003
 3046POPC   C4B40282  18.981  31.172   7.760
 3047POPC   NC340283  16.935   1.147   9.643
 3047POPC   PO440284  16.340   1.466   9.492
 3047POPC   GL140285  16.744   1.434   9.236
 3047POPC   GL240286  17.025   1.131   9.145
 3047POPC   C1A40287  16.664   1.313   8.837
 3047POPC   D2A40288  16.851   1.146   8.512
 3047POPC   C3A40289  16.693   1.413   8.189
 3047POPC   C4A40290  16.413   1.519   7.856
 3047POPC   C1B40291  17.148   1.470   8.834
 3047POPC   C2B40292  17.206   1.522   8.385
 3047POPC   C3B40293  17.125   1.199   8.086
 3047POPC   C4B40294  16.775   1.108   7.777
 3048POPC   NC340295  30.186   6.434   9.426
 3048POPC   PO440296  29.555   6.499   9.503
 3048POPC   GL140297  29.767   6.567   9.129
 3048POPC   GL240298  29.804   6.224   9.009
 3048POPC   C1A40299  29.867   6.765   8.716
 3048POPC   D2A40300  30.116   6.674   8.329
 3048POPC   C3A40301  29.963   6.590   7.887
 3048POPC   C4A40302  30.085   6.546   7.402
 3048POPC   C1B40303  29.481   6.421   8.726
 3048POPC   C2B40304  29.546   6.543   8.299
 3048POPC   C3B40305  29.506   6.221   7.988
 3048POPC   C4B40306  29.710   6.255   7.589
 3049POPC   NC340307  18.410  17.832   9.571
 3049POPC   PO440308  18.350  18.542   9.517
 3049POPC   GL140309  18.278  18.202   9.230
 3049POPC   GL240310  18.507  18.342   8.972
 3049POPC   C1A40311  18.135  18.021   8.836
 3049POPC   D2A40312  18.435  18.073   8.523
 3049POPC   C3A40313  18.262  18.133   8.142
 3049POPC   C4A40314  18.194  17.989   7.753
 3049POPC   C1B40315  18.243  18.531   8.617
 3049POPC   C2B40316  18.200  18.686   8.204
 3049POPC   C3B40317  18.276  18.521   7.817
 3049POPC   C4B40318  18.604  18.269   7.658
 3050POPC   NC340319  17.924   6.707   9.336
 3050POPC   PO440320  18.436   6.649   9.802
 3050POPC   GL140321  18.421   6.696   9.239
 3050POPC   GL240322  18.325   6.438   8.942
 3050POPC   C1A40323  18.364   6.918   8.808
 3050POPC   D2A40324  18.315   6.680   8.413
 3050POPC   C3A40325  18.054   6.895   8.105
 3050POPC   C4A40326  18.014   6.806   7.685
 3050POPC   C1B40327  18.745   6.601   8.705
 3050POPC   C2B40328  18.825   6.766   8.263
 3050POPC   C3B40329  18.502   6.703   7.916
 3050POPC   C4B40330  18.406   6.448   7.500
 3051POPC   NC340331   3.133  17.664   9.562
 3051POPC   PO440332   3.422  17.138   9.251
 3051POPC   GL140333   3.357  17.517   9.044
 3051POPC   GL240334   3.682  17.578   9.013
 3051POPC   C1A40335   3.422  17.535   8.577
 3051POPC   D2A40336   3.543  17.239   8.260
 3051POPC   C3A40337   3.326  17.314   7.896
 3051POPC   C4A40338   3.489  17.628   7.657
 3051POPC   C1B40339   3.819  17.240   8.762
 3051POPC   C2B40340   4.066  17.223   8.447
 3051POPC   C3B40341   3.985  17.564   8.209
 3051POPC   C4B40342   3.871  17.358   7.847
 3052POPC   NC340343  43.449  42.569   9.226
 3052POPC   PO440344  42.850  42.463   9.522
 3052POPC   GL140345  42.994  42.353   9.157
 3052POPC   GL240346  42.980  41.993   9.196
 3052POPC   C1A40347  43.023  42.544   8.738
 3052POPC   D2A40348  42.812  42.523   8.346
 3052POPC   C3A40349  43.077  42.557   7.976
 3052POPC   C4A40350  42.848  42.490   7.605
 3052POPC   C1B40351  43.190  42.046   8.783
 3052POPC   C2B40352  43.215  42.227   8.353
 3052POPC   C3B40353  43.135  42.058   7.911
 3052POPC   C4B40354  43.122  42.100   7.441
 3053POPC   NC340355  12.456  18.269   9.724
 3053POPC   PO440356  13.125  18.260   9.580
 3053POPC   GL140357  13.094  18.026   9.178
 3053POPC   GL240358  12.839  18.183   8.918
 3053POPC   C1A40359  13.164  17.873   8.742
 3053POPC   D2A40360  12.972  18.130   8.434
 3053POPC   C3A40361  13.095  18.124   8.040
 3053POPC   C4A40362  12.923  18.365   7.704
 3053POPC   C1B40363  12.488  18.365   8.704
 3053POPC   C2B40364  12.413  18.593   8.342
 3053POPC   C3B40365  12.394  18.417   7.942
 3053POPC   C4B40366  12.485  18.561   7.558
 3054POPC   NC340367  23.623   1.622   9.522
 3054POPC   PO440368  24.001   1.080   9.394
 3054POPC   GL140369  23.697   1.165   9.075
 3054POPC   GL240370  23.430   1.453   9.092
 3054POPC   C1A40371  23.811   1.022   8.666
 3054POPC   D2A40372  23.831   1.074   8.213
 3054POPC   C3A40373  23.676   0.750   7.905
 3054POPC   C4A40374  23.605   0.877   7.453
 3054POPC   C1B40375  23.370   1.308   8.672
 3054POPC   C2B40376  23.474   1.449   8.244
 3054POPC   C3B40377  23.468   1.233   7.846
 3054POPC   C4B40378  23.559   1.420   7.448
 3055POPC   NC340379  11.437  14.040   9.406
 3055POPC   PO440380  10.968  14.591   9.571
 3055POPC   GL140381  11.162  14.723   9.172
 3055POPC   GL240382  11.238  14.386   9.115
 3055POPC   C1A40383  11.332  14.654   8.719
 3055POPC   D2A40384  11.643  14.583   8.405
 3055POPC   C3A40385  11.405  14.606   8.048
 3055POPC   C4A40386  11.315  14.751   7.654
 3055POPC   C1B40387  11.547  14.175   8.802
 3055POPC   C2B40388  11.739  14.076   8.434
 3055POPC   C3B40389  11.605  14.155   8.071
 3055POPC   C4B40390  11.370  14.209   7.682
 3056POPC   NC340391  22.908  27.237   9.565
 3056POPC   PO440392  22.737  26.618   9.688
 3056POPC   GL140393  22.926  26.610   9.228
 3056POPC   GL240394  23.080  26.979   9.131
 3056POPC   C1A40395  23.005  26.629   8.749
 3056POPC   D2A40396  23.244  26.733   8.364
 3056POPC   C3A40397  23.071  26.567   7.987
 3056POPC   C4A40398  22.934  26.788   7.629
 3056POPC   C1B40399  23.347  27.203   8.783
 3056POPC   C2B40400  23.419  27.220   8.323
 3056POPC   C3B40401  23.308  27.052   7.886
 3056POPC   C4B40402  23.348  26.944   7.397
 3057POPC   NC340403  31.535  32.982   9.718
 3057POPC   PO440404  31.167  33.451   9.489
 3057POPC   GL140405  31.302  33.042   9.269
 3057POPC   GL240406  31.709  32.956   9.255
 3057POPC   C1A40407  31.206  32.876   8.855
 3057POPC   D2A40408  31.086  33.092   8.503
 3057POPC   C3A40409  31.271  33.049   8.116
 3057POPC   C4A40410  31.417  33.220   7.732
 3057POPC   C1B40411  31.617  33.142   8.879
 3057POPC   C2B40412  31.612  32.997   8.501
 3057POPC   C3B40413  31.775  33.104   8.105
 3057POPC   C4B40414  31.867  32.942   7.711
 3058POPC   NC340415  38.015  39.676   9.564
 3058POPC   PO440416  37.394  39.433   9.425
 3058POPC   GL140417  37.749  39.400   9.197
 3058POPC   GL240418  37.778  39.049   9.154
 3058POPC   C1A40419  37.749  39.432   8.748
 3058POPC   D2A40420  37.425  39.205   8.515
 3058POPC   C3A40421  37.438  39.255   8.074
 3058POPC   C4A40422  37.437  38.900   7.786
 3058POPC   C1B40423  37.891  38.929   8.745
 3058POPC   C2B40424  37.913  39.128   8.326
 3058POPC   C3B40425  37.889  39.106   7.864
 3058POPC   C4B40426  37.904  39.085   7.392
 3059POPC   NC340427  37.661   8.325   9.601
 3059POPC   PO440428  37.216   7.867   9.612
 3059POPC   GL140429  37.575   7.895   9.285
 3059POPC   GL240430  37.822   8.153   9.123
 3059POPC   C1A40431  37.517   7.887   8.837
 3059POPC   D2A40432  37.622   8.086   8.467
 3059POPC   C3A40433  37.569   7.994   8.053
 3059POPC   C4A40434  37.465   8.064   7.646
 3059POPC   C1B40435  37.920   8.401   8.724
 3059POPC   C2B40436  37.868   8.467   8.220
 3059POPC   C3B40437  37.830   8.426   7.734
 3059POPC   C4B40438  38.108   8.536   7.349
 3060POPC   NC340439  38.819  13.611   9.650
 3060POPC   PO440440  38.688  13.028   9.501
 3060POPC   GL140441  38.586  13.345   9.135
 3060POPC   GL240442  38.551  13.734   9.089
 3060POPC   C1A40443  38.579  13.458   8.657
 3060POPC   D2A40444  38.367  13.679   8.304
 3060POPC   C3A40445  38.431  13.513   7.863
 3060POPC   C4A40446  38.334  13.282   7.446
 3060POPC   C1B40447  38.549  14.093   8.762
 3060POPC   C2B40448  38.413  14.213   8.329
 3060POPC   C3B40449  38.158  14.025   7.987
 3060POPC   C4B40450  38.308  13.943   7.611
 3061POPC   NC340451  40.263  43.054   9.560
 3061POPC   PO440452  39.682  42.869   9.741
 3061POPC   GL140453  39.864  43.021   9.254
 3061POPC   GL240454  40.149  42.903   9.091
 3061POPC   C1A40455  39.714  43.263   8.880
 3061POPC   D2A40456  39.850  43.365   8.439
 3061POPC   C3A40457  39.815  43.060   8.125
 3061POPC   C4A40458  39.836  43.136   7.686
 3061POPC   C1B40459  40.205  43.201   8.764
 3061POPC   C2B40460  40.363  43.177   8.363
 3061POPC   C3B40461  40.339  43.097   7.931
 3061POPC   C4B40462  40.332  43.493   7.743
 3062POPC   NC340463   9.297  36.164   9.490
 3062POPC   PO440464  10.014  36.109   9.552
 3062POPC   GL140465   9.793  35.986   9.198
 3062POPC   GL240466   9.590  36.252   9.106
 3062POPC   C1A40467   9.875  36.036   8.759
 3062POPC   D2A40468   9.925  35.875   8.378
 3062POPC   C3A40469   9.789  36.061   8.038
 3062POPC   C4A40470   9.713  36.087   7.603
 3062POPC   C1B40471   9.424  36.358   8.714
 3062POPC   C2B40472   9.365  36.215   8.293
 3062POPC   C3B40473   9.431  36.420   7.912
 3062POPC   C4B40474   9.220  36.292   7.556
 3063POPC   NC340475  23.508  11.908   9.467
 3063POPC   PO440476  24.144  11.660   9.307
 3063POPC   GL140477  23.848  11.932   9.098
 3063POPC   GL240478  23.805  12.293   9.207
 3063POPC   C1A40479  23.736  11.957   8.686
 3063POPC   D2A40480  23.949  11.693   8.401
 3063POPC   C3A40481  23.776  11.860   8.068
 3063POPC   C4A40482  23.416  11.941   7.789
 3063POPC   C1B40483  23.613  12.431   8.812
 3063POPC   C2B40484  23.781  12.508   8.391
 3063POPC   C3B40485  23.718  12.349   7.958
 3063POPC   C4B40486  23.935  12.089   7.649
 3064POPC   NC340487  39.300   2.701   9.964
 3064POPC   PO440488  38.869   2.660   9.343
 3064POPC   GL140489  39.098   2.587   8.982
 3064POPC   GL240490  39.456   2.505   9.027
 3064POPC   C1A40491  39.093   2.642   8.547
 3064POPC   D2A40492  39.039   2.408   8.179
 3064POPC   C3A40493  38.985   2.719   7.927
 3064POPC   C4A40494  39.013   3.148   7.795
 3064POPC   C1B40495  39.467   2.931   8.836
 3064POPC   C2B40496  39.358   3.085   8.405
 3064POPC   C3B40497  39.461   2.915   7.997
 3064POPC   C4B40498  39.359   2.817   7.558
 3065POPC   NC340499  10.273  29.688   9.775
 3065POPC   PO440500  10.506  29.069   9.568
 3065POPC   GL140501  10.641  29.024   9.157
 3065POPC   GL240502  10.353  28.932   9.069
 3065POPC   C1A40503  10.539  29.261   8.719
 3065POPC   D2A40504  10.138  29.428   8.530
 3065POPC   C3A40505  10.091  29.280   8.102
 3065POPC   C4A40506  10.406  29.159   7.783
 3065POPC   C1B40507  10.700  28.773   8.752
 3065POPC   C2B40508  10.924  28.974   8.462
 3065POPC   C3B40509  10.745  28.899   8.081
 3065POPC   C4B40510  10.813  28.886   7.631
 3066POPC   NC340511  29.005  42.208   9.353
 3066POPC   PO440512  29.286  42.764   9.432
 3066POPC   GL140513  29.241  42.599   9.028
 3066POPC   GL240514  29.446  42.310   9.056
 3066POPC   C1A40515  29.127  42.363   8.624
 3066POPC   D2A40516  28.809  42.230   8.294
 3066POPC   C3A40517  28.867  42.385   7.891
 3066POPC   C4A40518  29.210  42.646   7.811
 3066POPC   C1B40519  29.441  41.959   8.763
 3066POPC   C2B40520  29.554  42.062   8.342
 3066POPC   C3B40521  29.322  42.137   7.975
 3066POPC   C4B40522  29.250  41.956   7.575
 3067POPC   NC340523  40.540  25.876   9.521
 3067POPC   PO440524  41.079  26.319   9.505
 3067POPC   GL140525  41.113  25.999   9.150
 3067POPC   GL240526  40.787  25.785   9.077
 3067POPC   C1A40527  41.057  25.980   8.703
 3067POPC   D2A40528  40.799  26.008   8.366
 3067POPC   C3A40529  40.968  25.727   8.120
 3067POPC   C4A40530  41.181  25.968   7.861
 3067POPC   C1B40531  40.480  25.844   8.751
 3067POPC   C2B40532  40.337  26.225   8.489
 3067POPC   C3B40533  40.497  26.332   8.084
 3067POPC   C4B40534  40.646  25.980   7.817
 3068POPC   NC340535   7.624  28.465   9.681
 3068POPC   PO440536   7.094  28.613   9.317
 3068POPC   GL140537   7.376  28.313   9.162
 3068POPC   GL240538   7.185  27.979   9.155
 3068POPC   C1A40539   7.468  28.437   8.707
 3068POPC   D2A40540   7.694  28.600   8.323
 3068POPC   C3A40541   7.576  28.341   7.956
 3068POPC   C4A40542   7.742  28.184   7.569
 3068POPC   C1B40543   7.094  28.088   8.797
 3068POPC   C2B40544   7.245  28.013   8.430
 3068POPC   C3B40545   7.112  28.128   8.054
 3068POPC   C4B40546   6.918  27.996   7.730
 3069POPC   NC340547  12.491  10.474   9.222
 3069POPC   PO440548  12.992  10.604   9.628
 3069POPC   GL140549  13.083  10.638   9.221
 3069POPC   GL240550  13.092  10.292   9.152
 3069POPC   C1A40551  12.948  10.684   8.802
 3069POPC   D2A40552  12.766  10.680   8.417
 3069POPC   C3A40553  13.071  10.701   8.128
 3069POPC   C4A40554  13.151  10.812   7.742
 3069POPC   C1B40555  12.895  10.163   8.748
 3069POPC   C2B40556  12.576  10.224   8.410
 3069POPC   C3B40557  12.742  10.338   8.007
 3069POPC   C4B40558  13.208  10.304   7.839
 3070POPC   NC340559  32.544  33.377   9.522
 3070POPC   PO440560  32.009  32.990   9.771
 3070POPC   GL140561  32.219  32.819   9.367
 3070POPC   GL240562  32.423  33.020   9.139
 3070POPC   C1A40563  32.098  32.717   8.902
 3070POPC   D2A40564  32.122  32.938   8.504
 3070POPC   C3A40565  32.128  32.709   8.121
 3070POPC   C4A40566  32.388  32.694   7.757
 3070POPC   C1B40567  32.563  33.246   8.752
 3070POPC   C2B40568  32.452  33.364   8.333
 3070POPC   C3B40569  32.468  33.207   7.912
 3070POPC   C4B40570  32.716  33.323   7.535
 3071POPC   NC340571  12.872  42.883   9.490
 3071POPC   PO440572  13.043  43.554   9.316
 3071POPC   GL140573  12.821  43.240   9.119
 3071POPC   GL240574  12.503  43.292   9.106
 3071POPC   C1A40575  12.829  43.041   8.720
 3071POPC   D2A40576  13.045  43.090   8.305
 3071POPC   C3A40577  12.773  43.088   7.937
 3071POPC   C4A40578  12.708  42.993   7.476
 3071POPC   C1B40579  12.451  43.389   8.699
 3071POPC   C2B40580  12.602  43.456   8.287
 3071POPC   C3B40581  12.626  43.557   7.859
 3071POPC   C4B40582  12.430  43.397   7.440
 3072POPC   NC340583   2.179  42.628   9.362
 3072POPC   PO440584   1.606  42.376   9.592
 3072POPC   GL140585   1.753  42.453   9.174
 3072POPC   GL240586   2.042  42.175   9.161
 3072POPC   C1A40587   2.003  42.498   8.746
 3072POPC   D2A40588   2.163  42.411   8.325
 3072POPC   C3A40589   1.973  42.700   8.023
 3072POPC   C4A40590   1.738  42.590   7.677
 3072POPC   C1B40591   1.716  42.047   8.880
 3072POPC   C2B40592   1.721  42.102   8.469
 3072POPC   C3B40593   1.691  42.255   8.083
 3072POPC   C4B40594   1.630  42.094   7.719
 3073POPC   NC340595  23.415  41.721   9.429
 3073POPC   PO440596  24.022  41.354   9.468
 3073POPC   GL140597  23.786  41.485   9.125
 3073POPC   GL240598  24.008  41.486   8.827
 3073POPC   C1A40599  23.700  41.876   8.863
 3073POPC   D2A40600  24.028  41.982   8.579
 3073POPC   C3A40601  23.911  41.932   8.145
 3073POPC   C4A40602  23.616  41.809   7.820
 3073POPC   C1B40603  23.550  41.399   8.674
 3073POPC   C2B40604  23.343  41.499   8.284
 3073POPC   C3B40605  23.609  41.356   8.009
 3073POPC   C4B40606  24.030  41.487   7.901
 3074POPC   NC340607  38.441  23.509   9.545
 3074POPC   PO440608  38.936  24.026   9.262
 3074POPC   GL140609  38.623  23.986   9.009
 3074POPC   GL240610  38.412  23.783   9.125
 3074POPC   C1A40611  38.373  24.045   8.637
 3074POPC   D2A40612  38.308  24.198   8.200
 3074POPC   C3A40613  38.610  24.014   7.919
 3074POPC   C4A40614  38.664  23.776   7.551
 3074POPC   C1B40615  38.412  23.518   8.819
 3074POPC   C2B40616  38.360  23.456   8.380
 3074POPC   C3B40617  38.522  23.512   7.981
 3074POPC   C4B40618  38.292  23.444   7.617
 3075POPC   NC340619  20.186   7.445   9.363
 3075POPC   PO440620  20.673   7.661   9.609
 3075POPC   GL140621  20.889   7.631   9.176
 3075POPC   GL240622  20.613   7.452   9.070
 3075POPC   C1A40623  20.913   7.538   8.671
 3075POPC   D2A40624  20.620   7.422   8.299
 3075POPC   C3A40625  20.585   7.711   7.909
 3075POPC   C4A40626  20.599   7.685   7.411
 3075POPC   C1B40627  20.610   7.127   8.746
 3075POPC   C2B40628  20.815   6.955   8.399
 3075POPC   C3B40629  20.881   6.984   7.982
 3075POPC   C4B40630  20.680   7.263   7.693
 3076POPC   NC340631   4.537  26.488   9.332
 3076POPC   PO440632   4.126  27.038   9.505
 3076POPC   GL140633   4.187  26.838   9.127
 3076POPC   GL240634   4.028  26.548   9.079
 3076POPC   C1A40635   4.332  26.934   8.722
 3076POPC   D2A40636   4.520  27.030   8.311
 3076POPC   C3A40637   4.368  26.941   7.896
 3076POPC   C4A40638   4.466  26.896   7.446
 3076POPC   C1B40639   4.232  26.422   8.732
 3076POPC   C2B40640   4.334  26.211   8.377
 3076POPC   C3B40641   4.359  26.458   8.054
 3076POPC   C4B40642   4.659  26.512   7.785
 3077POPC   NC340643   5.253  39.835   9.700
 3077POPC   PO440644   4.856  40.295   9.470
 3077POPC   GL140645   5.002  40.149   9.116
 3077POPC   GL240646   5.144  39.876   9.210
 3077POPC   C1A40647   4.855  39.828   8.794
 3077POPC   D2A40648   4.822  39.696   8.361
 3077POPC   C3A40649   4.935  39.947   7.969
 3077POPC   C4A40650   5.140  40.319   7.772
 3077POPC   C1B40651   5.351  39.929   8.792
 3077POPC   C2B40652   5.394  39.738   8.371
 3077POPC   C3B40653   5.478  39.988   7.998
 3077POPC   C4B40654   5.409  39.898   7.561
 3078POPC   NC340655  33.197   2.661   9.432
 3078POPC   PO440656  32.563   2.982   9.450
 3078POPC   GL140657  32.788   2.772   9.141
 3078POPC   GL240658  33.059   2.998   9.073
 3078POPC   C1A40659  32.975   2.577   8.777
 3078POPC   D2A40660  32.712   2.598   8.390
 3078POPC   C3A40661  32.905   2.544   7.989
 3078POPC   C4A40662  33.341   2.641   7.884
 3078POPC   C1B40663  32.961   3.061   8.650
 3078POPC   C2B40664  33.136   2.908   8.282
 3078POPC   C3B40665  33.071   3.074   7.875
 3078POPC   C4B40666  33.172   3.323   7.509
 3079POPC   NC340667  38.102  30.604   9.499
 3079POPC   PO440668  37.925  31.192   9.501
 3079POPC   GL140669  37.675  30.923   9.176
 3079POPC   GL240670  37.756  30.583   9.136
 3079POPC   C1A40671  37.531  30.777   8.724
 3079POPC   D2A40672  37.427  30.512   8.349
 3079POPC   C3A40673  37.344  30.804   8.034
 3079POPC   C4A40674  37.528  31.085   7.765
 3079POPC   C1B40675  38.074  30.296   8.882
 3079POPC   C2B40676  38.144  30.113   8.466
 3079POPC   C3B40677  37.960  30.203   8.044
 3079POPC   C4B40678  37.566  30.377   7.852
 3080POPC   NC340679   8.183  18.539   9.218
 3080POPC   PO440680   8.642  18.126   9.537
 3080POPC   GL140681   8.285  18.007   9.174
 3080POPC   GL240682   7.906  18.122   9.136
 3080POPC   C1A40683   8.284  18.141   8.720
 3080POPC   D2A40684   8.491  18.163   8.341
 3080POPC   C3A40685   8.197  18.300   8.066
 3080POPC   C4A40686   8.110  18.440   7.670
 3080POPC   C1B40687   7.711  18.020   8.765
 3080POPC   C2B40688   7.916  17.995   8.344
 3080POPC   C3B40689   7.744  18.117   7.904
 3080POPC   C4B40690   7.787  18.127   7.433
 3081POPC   NC340691   6.347  32.188   9.362
 3081POPC   PO440692   5.768  32.047   9.730
 3081POPC   GL140693   5.879  32.372   9.320
 3081POPC   GL240694   5.992  32.178   9.018
 3081POPC   C1A40695   5.720  32.548   8.849
 3081POPC   D2A40696   5.862  32.289   8.514
 3081POPC   C3A40697   5.832  32.402   8.087
 3081POPC   C4A40698   5.667  32.036   7.882
 3081POPC   C1B40699   6.100  31.830   8.715
 3081POPC   C2B40700   5.973  31.712   8.302
 3081POPC   C3B40701   6.148  31.866   7.902
 3081POPC   C4B40702   6.242  32.300   7.804
 3082POPC   NC340703  16.319  21.808   9.704
 3082POPC   PO440704  15.774  21.414   9.771
 3082POPC   GL140705  15.845  21.361   9.311
 3082POPC   GL240706  16.127  21.240   9.212
 3082POPC   C1A40707  15.876  21.485   8.846
 3082POPC   D2A40708  15.733  21.467   8.445
 3082POPC   C3A40709  15.925  21.503   8.064
 3082POPC   C4A40710  15.668  21.410   7.752
 3082POPC   C1B40711  16.274  21.133   8.807
 3082POPC   C2B40712  16.266  21.305   8.394
 3082POPC   C3B40713  16.314  21.162   7.965
 3082POPC   C4B40714  16.248  21.293   7.514
 3083POPC   NC340715  18.212  29.016   9.423
 3083POPC   PO440716  18.501  29.667   9.451
 3083POPC   GL140717  18.436  29.380   9.102
 3083POPC   GL240718  18.114  29.336   9.033
 3083POPC   C1A40719  18.372  29.468   8.620
 3083POPC   D2A40720  18.327  29.230   8.191
 3083POPC   C3A40721  18.640  29.166   7.853
 3083POPC   C4A40722  18.546  29.236   7.400
 3083POPC   C1B40723  17.881  29.285   8.647
 3083POPC   C2B40724  17.856  29.360   8.192
 3083POPC   C3B40725  17.869  29.523   7.752
 3083POPC   C4B40726  18.088  29.523   7.344
 3084POPC   NC340727  39.746   3.295   9.449
 3084POPC   PO440728  40.185   3.748   9.485
 3084POPC   GL140729  39.902   3.682   9.158
 3084POPC   GL240730  40.177   3.455   9.014
 3084POPC   C1A40731  39.766   3.626   8.746
 3084POPC   D2A40732  40.060   3.746   8.443
 3084POPC   C3A40733  40.111   3.656   8.026
 3084POPC   C4A40734  39.879   3.955   7.777
 3084POPC   C1B40735  39.941   3.150   8.765
 3084POPC   C2B40736  39.824   3.278   8.354
 3084POPC   C3B40737  39.794   3.291   7.912
 3084POPC   C4B40738  40.122   3.210   7.651
 3085POPC   NC340739  43.752   6.427   9.422
 3085POPC   PO440740  43.755   7.057   9.433
 3085POPC   GL140741  43.940   6.795   9.127
 3085POPC   GL240742  43.602   6.713   9.035
 3085POPC   C1A40743  44.033   6.820   8.687
 3085POPC   D2A40744  44.157   6.974   8.286
 3085POPC   C3A40745  44.090   6.705   7.946
 3085POPC   C4A40746  44.292   6.744   7.545
 3085POPC   C1B40747  43.733   6.395   8.755
 3085POPC   C2B40748  43.929   6.408   8.362
 3085POPC   C3B40749  43.741   6.329   7.983
 3085POPC   C4B40750  43.334   6.167   7.890
 3086POPC   NC340751  40.131  21.999   9.413
 3086POPC   PO440752  39.679  22.511   9.477
 3086POPC   GL140753  40.020  22.445   9.150
 3086POPC   GL240754  40.374  22.389   9.009
 3086POPC   C1A40755  40.013  22.141   8.773
 3086POPC   D2A40756  39.715  22.069   8.479
 3086POPC   C3A40757  39.845  21.967   8.082
 3086POPC   C4A40758  39.862  22.284   7.798
 3086POPC   C1B40759  40.492  21.933   8.847
 3086POPC   C2B40760  40.597  21.714   8.444
 3086POPC   C3B40761  40.408  21.814   8.029
 3086POPC   C4B40762  40.325  22.146   7.710
 3087POPC   NC340763  26.636  35.699   9.594
 3087POPC   PO440764  27.193  35.288   9.531
 3087POPC   GL140765  26.921  35.156   9.143
 3087POPC   GL240766  26.715  35.418   9.182
 3087POPC   C1A40767  26.762  35.292   8.686
 3087POPC   D2A40768  27.066  35.428   8.344
 3087POPC   C3A40769  26.927  35.233   7.970
 3087POPC   C4A40770  26.470  35.130   7.995
 3087POPC   C1B40771  26.992  35.666   8.910
 3087POPC   C2B40772  26.753  35.787   8.543
 3087POPC   C3B40773  26.627  35.629   8.130
 3087POPC   C4B40774  26.590  35.547   7.714
 3088POPC   NC340775  19.762  32.839   9.526
 3088POPC   PO440776  19.735  33.584   9.512
 3088POPC   GL140777  19.873  33.313   9.140
 3088POPC   GL240778  19.948  32.940   9.065
 3088POPC   C1A40779  19.638  33.204   8.784
 3088POPC   D2A40780  19.501  32.937   8.464
 3088POPC   C3A40781  19.728  33.004   8.093
 3088POPC   C4A40782  19.590  33.061   7.685
 3088POPC   C1B40783  20.243  32.900   8.705
 3088POPC   C2B40784  20.163  32.766   8.281
 3088POPC   C3B40785  20.156  32.809   7.838
 3088POPC   C4B40786  20.031  32.878   7.441
 3089POPC   NC340787  19.767  19.878   9.674
 3089POPC   PO440788  20.129  19.362   9.565
 3089POPC   GL140789  20.053  19.573   9.166
 3089POPC   GL240790  19.901  19.908   9.147
 3089POPC   C1A40791  19.754  19.553   8.818
 3089POPC   D2A40792  19.488  19.802   8.540
 3089POPC   C3A40793  19.723  19.825   8.178
 3089POPC   C4A40794  20.028  19.778   7.856
 3089POPC   C1B40795  19.919  20.025   8.681
 3089POPC   C2B40796  20.182  20.048   8.296
 3089POPC   C3B40797  20.032  20.259   7.928
 3089POPC   C4B40798  19.602  20.161   7.818
 3090POPC   NC340799  21.687  40.369   9.667
 3090POPC   PO440800  21.510  40.979   9.501
 3090POPC   GL140801  21.570  40.835   9.113
 3090POPC   GL240802  21.431  40.517   9.201
 3090POPC   C1A40803  21.377  40.925   8.714
 3090POPC   D2A40804  21.174  40.723   8.361
 3090POPC   C3A40805  21.357  40.817   7.985
 3090POPC   C4A40806  21.150  40.817   7.588
 3090POPC   C1B40807  21.336  40.418   8.767
 3090POPC   C2B40808  21.602  40.456   8.381
 3090POPC   C3B40809  21.571  40.358   7.943
 3090POPC   C4B40810  21.264  40.320   7.608
 3091POPC   NC340811  42.681  10.754   9.464
 3091POPC   PO440812  43.179  10.232   9.485
 3091POPC   GL140813  43.114  10.487   9.164
 3091POPC   GL240814  43.024  10.159   8.995
 3091POPC   C1A40815  43.248  10.710   8.798
 3091POPC   D2A40816  43.025  10.789   8.417
 3091POPC   C3A40817  43.172  10.703   8.047
 3091POPC   C4A40818  42.937  10.825   7.690
 3091POPC   C1B40819  43.455  10.218   8.847
 3091POPC   C2B40820  43.479  10.393   8.434
 3091POPC   C3B40821  43.604  10.362   8.001
 3091POPC   C4B40822  43.343  10.471   7.640
 3092POPC   NC340823  35.448  27.799   9.482
 3092POPC   PO440824  35.466  27.133   9.564
 3092POPC   GL140825  35.362  27.396   9.156
 3092POPC   GL240826  35.498  27.721   8.989
 3092POPC   C1A40827  35.070  27.473   8.779
 3092POPC   D2A40828  34.951  27.281   8.372
 3092POPC   C3A40829  35.023  27.471   7.986
 3092POPC   C4A40830  35.413  27.549   7.791
 3092POPC   C1B40831  35.556  27.587   8.561
 3092POPC   C2B40832  35.579  27.842   8.182
 3092POPC   C3B40833  35.457  28.055   7.781
 3092POPC   C4B40834  35.506  27.866   7.354
 3093POPC   NC340835  20.142  13.038   9.372
 3093POPC   PO440836  20.899  13.280   9.410
 3093POPC   GL140837  20.669  13.106   9.077
 3093POPC   GL240838  20.624  12.770   9.216
 3093POPC   C1A40839  20.726  13.116   8.614
 3093POPC   D2A40840  20.668  12.817   8.274
 3093POPC   C3A40841  20.443  12.956   7.920
 3093POPC   C4A40842  20.296  13.354   7.728
 3093POPC   C1B40843  20.519  12.624   8.814
 3093POPC   C2B40844  20.746  12.366   8.519
 3093POPC   C3B40845  20.652  12.312   8.099
 3093POPC   C4B40846  20.650  12.535   7.710
 3094POPC   NC340847  40.235  14.238   9.532
 3094POPC   PO440848  39.652  14.146   9.379
 3094POPC   GL140849  39.949  14.282   9.105
 3094POPC   GL240850  40.092  14.599   9.176
 3094POPC   C1A40851  39.902  14.340   8.698
 3094POPC   D2A40852  40.066  14.500   8.340
 3094POPC   C3A40853  40.175  14.209   8.037
 3094POPC   C4A40854  40.101  14.359   7.657
 3094POPC   C1B40855  40.307  14.665   8.783
 3094POPC   C2B40856  40.484  14.779   8.377
 3094POPC   C3B40857  40.378  14.684   7.939
 3094POPC   C4B40858  40.333  14.763   7.486
 3095POPC   NC340859  13.802  20.157   9.395
 3095POPC   PO440860  13.407  19.566   9.522
 3095POPC   GL140861  13.407  19.565   9.131
 3095POPC   GL240862  13.696  19.756   9.098
 3095POPC   C1A40863  13.548  19.376   8.785
 3095POPC   D2A40864  13.806  19.349   8.459
 3095POPC   C3A40865  13.597  19.599   8.172
 3095POPC   C4A40866  13.679  19.372   7.831
 3095POPC   C1B40867  13.669  20.050   8.725
 3095POPC   C2B40868  13.498  20.170   8.309
 3095POPC   C3B40869  13.605  20.065   7.897
 3095POPC   C4B40870  14.021  19.984   7.744
 3096POPC   NC340871  39.775  35.053   9.436
 3096POPC   PO440872  40.324  35.527   9.527
 3096POPC   GL140873  40.081  35.373   9.157
 3096POPC   GL240874  39.750  35.525   9.146
 3096POPC   C1A40875  39.970  35.274   8.726
 3096POPC   D2A40876  40.160  35.342   8.298
 3096POPC   C3A40877  39.961  35.171   7.902
 3096POPC   C4A40878  40.008  35.001   7.460
 3096POPC   C1B40879  39.562  35.587   8.741
 3096POPC   C2B40880  39.651  35.448   8.321
 3096POPC   C3B40881  39.629  35.575   7.895
 3096POPC   C4B40882  39.836  35.492   7.474
 3097POPC   NC340883  25.568   0.472   9.354
 3097POPC   PO440884  24.958   0.801   9.319
 3097POPC   GL140885  25.199   0.653   9.042
 3097POPC   GL240886  25.469   0.822   8.994
 3097POPC   C1A40887  25.259   0.361   8.717
 3097POPC   D2A40888  25.006   0.293   8.360
 3097POPC   C3A40889  25.078   0.200   7.942
 3097POPC   C4A40890  25.463   0.039   7.796
 3097POPC   C1B40891  25.206   0.868   8.587
 3097POPC   C2B40892  25.331   0.630   8.227
 3097POPC   C3B40893  25.371   0.617   7.780
 3097POPC   C4B40894  25.476   0.827   7.379
 3098POPC   NC340895  40.873  19.111   9.461
 3098POPC   PO440896  40.378  18.655   9.252
 3098POPC   GL140897  40.685  18.886   9.030
 3098POPC   GL240898  41.067  18.842   9.102
 3098POPC   C1A40899  40.628  19.137   8.668
 3098POPC   D2A40900  40.868  19.328   8.349
 3098POPC   C3A40901  40.633  19.215   7.962
 3098POPC   C4A40902  40.768  19.269   7.556
 3098POPC   C1B40903  41.123  19.041   8.742
 3098POPC   C2B40904  41.021  18.866   8.364
 3098POPC   C3B40905  41.055  18.935   7.955
 3098POPC   C4B40906  40.734  18.767   7.699
 3099POPC   NC340907  21.396   8.812   9.514
 3099POPC   PO440908  21.877   9.319   9.455
 3099POPC   GL140909  21.511   9.169   9.182
 3099POPC   GL240910  21.476   8.775   9.025
 3099POPC   C1A40911  21.232   9.166   8.825
 3099POPC   D2A40912  21.456   9.027   8.489
 3099POPC   C3A40913  21.258   9.115   8.127
 3099POPC   C4A40914  21.200   9.206   7.723
 3099POPC   C1B40915  21.245   8.523   8.756
 3099POPC   C2B40916  21.158   8.646   8.354
 3099POPC   C3B40917  21.360   8.635   7.978
 3099POPC   C4B40918  21.166   8.574   7.556
 3100POPC   NC340919  25.470  12.281   9.631
 3100POPC   PO440920  24.839  12.054   9.430
 3100POPC   GL140921  25.230  12.082   9.191
 3100POPC   GL240922  25.534  12.314   9.137
 3100POPC   C1A40923  25.256  11.914   8.789
 3100POPC   D2A40924  25.048  11.778   8.418
 3100POPC   C3A40925  25.318  11.873   8.121
 3100POPC   C4A40926  25.371  11.970   7.695
 3100POPC   C1B40927  25.564  12.464   8.733
 3100POPC   C2B40928  25.616  12.278   8.328
 3100POPC   C3B40929  25.597  12.382   7.905
 3100POPC   C4B40930  25.578  12.360   7.434
 3101POPC   NC340931   2.491  19.920   9.866
 3101POPC   PO440932   2.968  19.940   9.534
 3101POPC   GL140933   2.719  19.725   9.219
 3101POPC   GL240934   2.968  19.528   9.030
 3101POPC   C1A40935   2.586  19.804   8.804
 3101POPC   D2A40936   2.511  19.604   8.436
 3101POPC   C3A40937   2.534  19.772   8.035
 3101POPC   C4A40938   2.790  19.797   7.719
 3101POPC   C1B40939   2.979  19.324   8.614
 3101POPC   C2B40940   2.903  19.380   8.147
 3101POPC   C3B40941   3.115  19.381   7.737
 3101POPC   C4B40942   3.104  19.674   7.341
 3102POPC   NC340943  43.054  29.857   9.696
 3102POPC   PO440944  43.457  30.259   9.432
 3102POPC   GL140945  43.264  29.854   9.177
 3102POPC   GL240946  42.935  29.745   9.201
 3102POPC   C1A40947  43.080  29.724   8.728
 3102POPC   D2A40948  43.197  30.095   8.506
 3102POPC   C3A40949  43.296  30.156   8.078
 3102POPC   C4A40950  43.140  30.328   7.704
 3102POPC   C1B40951  42.820  30.105   8.921
 3102POPC   C2B40952  42.692  30.051   8.479
 3102POPC   C3B40953  42.783  30.200   8.061
 3102POPC   C4B40954  42.946  29.854   7.786
 3103POPC   NC340955  29.928  27.163   9.712
 3103POPC   PO440956  29.767  26.517   9.792
 3103POPC   GL140957  29.915  26.700   9.336
 3103POPC   GL240958  29.988  27.051   9.205
 3103POPC   C1A40959  30.112  26.654   8.900
 3103POPC   D2A40960  29.962  26.821   8.495
 3103POPC   C3A40961  30.003  26.705   8.058
 3103POPC   C4A40962  29.933  26.473   7.648
 3103POPC   C1B40963  29.878  27.243   8.782
 3103POPC   C2B40964  30.035  27.295   8.320
 3103POPC   C3B40965  29.888  27.212   7.871
 3103POPC   C4B40966  29.954  27.263   7.395
 3104POPC   NC340967  22.901  18.784   9.415
 3104POPC   PO440968  23.301  19.252   9.379
 3104POPC   GL140969  23.201  19.206   8.941
 3104POPC   GL240970  23.084  18.878   8.954
 3104POPC   C1A40971  23.064  19.144   8.489
 3104POPC   D2A40972  22.638  19.272   8.349
 3104POPC   C3A40973  22.639  19.169   7.944
 3104POPC   C4A40974  23.080  19.058   7.927
 3104POPC   C1B40975  22.702  18.868   8.720
 3104POPC   C2B40976  22.689  18.765   8.278
 3104POPC   C3B40977  22.739  18.692   7.824
 3104POPC   C4B40978  22.516  18.819   7.418
 3105POPC   NC340979  29.161  31.828   9.653
 3105POPC   PO440980  29.283  32.480   9.492
 3105POPC   GL140981  29.063  32.160   9.250
 3105POPC   GL240982  29.343  31.962   9.181
 3105POPC   C1A40983  29.046  32.137   8.796
 3105POPC   D2A40984  29.311  32.335   8.468
 3105POPC   C3A40985  29.119  32.501   8.083
 3105POPC   C4A40986  29.049  32.226   7.719
 3105POPC   C1B40987  29.562  32.048   8.803
 3105POPC   C2B40988  29.680  31.977   8.343
 3105POPC   C3B40989  29.430  32.002   7.979
 3105POPC   C4B40990  29.548  32.147   7.577
 3106POPC   NC340991   8.089   7.552   9.330
 3106POPC   PO440992   8.537   6.983   9.464
 3106POPC   GL140993   8.475   7.264   9.111
 3106POPC   GL240994   8.574   7.650   9.098
 3106POPC   C1A40995   8.301   7.408   8.714
 3106POPC   D2A40996   8.584   7.589   8.418
 3106POPC   C3A40997   8.525   7.271   8.152
 3106POPC   C4A40998   8.439   7.235   7.741
 3106POPC   C1B40999   8.336   7.911   8.790
 3106POPC   C2B41000   8.107   7.814   8.413
 3106POPC   C3B41001   8.046   7.554   8.050
 3106POPC   C4B41002   8.361   7.726   7.803
 3107POPC   NC341003   9.911  12.949   9.584
 3107POPC   PO441004   9.259  12.910   9.832
 3107POPC   GL141005   9.493  12.828   9.348
 3107POPC   GL241006   9.528  13.098   9.161
 3107POPC   C1A41007   9.741  12.672   8.944
 3107POPC   D2A41008   9.644  12.638   8.471
 3107POPC   C3A41009   9.852  12.805   8.093
 3107POPC   C4A41010   9.822  12.658   7.666
 3107POPC   C1B41011   9.439  13.030   8.743
 3107POPC   C2B41012   9.595  13.146   8.355
 3107POPC   C3B41013   9.516  13.157   7.912
 3107POPC   C4B41014   9.453  13.233   7.431
 3108POPC   NC341015  31.245  15.257   9.593
 3108POPC   PO441016  30.891  15.633   9.213
 3108POPC   GL141017  31.314  15.375   9.117
 3108POPC   GL241018  31.371  14.999   9.150
 3108POPC   C1A41019  31.565  15.304   8.747
 3108POPC   D2A41020  31.442  15.183   8.309
 3108POPC   C3A41021  31.644  15.391   7.927
 3108POPC   C4A41022  31.400  15.478   7.523
 3108POPC   C1B41023  31.260  14.838   8.753
 3108POPC   C2B41024  31.019  14.885   8.373
 3108POPC   C3B41025  31.160  14.826   7.986
 3108POPC   C4B41026  31.511  14.943   7.770
 3109POPC   NC341027  42.547   0.410   9.546
 3109POPC   PO441028  43.119   0.071   9.551
 3109POPC   GL141029  43.196   0.377   9.226
 3109POPC   GL241030  43.478   0.246   9.103
 3109POPC   C1A41031  43.152   0.465   8.779
 3109POPC   D2A41032  43.044   0.619   8.379
 3109POPC   C3A41033  43.031   0.397   8.036
 3109POPC   C4A41034  43.155   0.702   7.760
 3109POPC   C1B41035  43.640   0.384   8.718
 3109POPC   C2B41036  43.485   0.340   8.314
 3109POPC   C3B41037  43.486   0.316   7.862
 3109POPC   C4B41038  43.269   0.051   7.508
 3110POPC   NC341039  39.730  16.321   9.303
 3110POPC   PO441040  39.854  16.955   9.557
 3110POPC   GL141041  40.069  16.730   9.256
 3110POPC   GL241042  39.811  16.746   9.029
 3110POPC   C1A41043  40.292  16.864   8.889
 3110POPC   D2A41044  40.121  17.041   8.487
 3110POPC   C3A41045  39.948  16.851   8.138
 3110POPC   C4A41046  40.126  16.891   7.741
 3110POPC   C1B41047  40.041  16.452   8.767
 3110POPC   C2B41048  40.050  16.365   8.367
 3110POPC   C3B41049  39.756  16.363   8.042
 3110POPC   C4B41050  39.798  16.530   7.671
 3111POPC   NC341051  37.823  16.460   9.511
 3111POPC   PO441052  37.778  15.795   9.598
 3111POPC   GL141053  37.584  15.801   9.200
 3111POPC   GL241054  37.839  15.707   8.994
 3111POPC   C1A41055  37.402  15.673   8.779
 3111POPC   D2A41056  37.340  15.851   8.394
 3111POPC   C3A41057  37.527  15.754   8.000
 3111POPC   C4A41058  37.801  15.960   7.700
 3111POPC   C1B41059  38.105  15.602   8.685
 3111POPC   C2B41060  37.985  15.697   8.273
 3111POPC   C3B41061  38.183  15.663   7.901
 3111POPC   C4B41062  38.192  15.703   7.445
 3112POPC   NC341063  40.787  34.314   9.611
 3112POPC   PO441064  40.868  33.600   9.575
 3112POPC   GL141065  40.795  33.892   9.250
 3112POPC   GL241066  40.730  33.615   9.072
 3112POPC   C1A41067  40.935  34.019   8.828
 3112POPC   D2A41068  40.764  34.124   8.458
 3112POPC   C3A41069  40.966  33.975   8.123
 3112POPC   C4A41070  40.928  34.023   7.735
 3112POPC   C1B41071  40.927  33.469   8.792
 3112POPC   C2B41072  41.081  33.606   8.451
 3112POPC   C3B41073  40.967  33.435   8.092
 3112POPC   C4B41074  40.707  33.569   7.787
 3113POPC   NC341075  31.042   1.176   9.474
 3113POPC   PO441076  31.708   1.263   9.612
 3113POPC   GL141077  31.572   1.350   9.182
 3113POPC   GL241078  31.261   1.243   9.022
 3113POPC   C1A41079  31.660   1.444   8.749
 3113POPC   D2A41080  31.637   1.217   8.348
 3113POPC   C3A41081  31.579   1.429   7.933
 3113POPC   C4A41082  31.480   1.228   7.539
 3113POPC   C1B41083  31.169   1.497   8.664
 3113POPC   C2B41084  31.214   1.492   8.267
 3113POPC   C3B41085  31.120   1.196   7.958
 3113POPC   C4B41086  30.895   1.301   7.612
 3114POPC   NC341087  36.421  27.928   9.671
 3114POPC   PO441088  36.285  27.362   9.500
 3114POPC   GL141089  36.085  27.399   9.132
 3114POPC   GL241090  35.952  27.704   9.245
 3114POPC   C1A41091  36.041  27.269   8.684
 3114POPC   D2A41092  35.764  27.090   8.349
 3114POPC   C3A41093  35.838  27.245   7.916
 3114POPC   C4A41094  36.215  27.356   7.673
 3114POPC   C1B41095  36.173  27.804   8.850
 3114POPC   C2B41096  36.099  27.739   8.457
 3114POPC   C3B41097  36.053  27.692   8.067
 3114POPC   C4B41098  35.876  27.772   7.706
 3115POPC   NC341099  15.650  29.560   9.388
 3115POPC   PO441100  16.043  29.029   9.516
 3115POPC   GL141101  15.867  29.086   9.134
 3115POPC   GL241102  16.023  29.422   9.060
 3115POPC   C1A41103  16.055  29.023   8.730
 3115POPC   D2A41104  16.111  29.274   8.371
 3115POPC   C3A41105  16.050  29.064   7.989
 3115POPC   C4A41106  15.789  28.755   7.828
 3115POPC   C1B41107  15.715  29.407   8.703
 3115POPC   C2B41108  15.615  29.197   8.294
 3115POPC   C3B41109  15.636  29.308   7.825
 3115POPC   C4B41110  15.518  29.425   7.359
 3116POPC   NC341111  34.420  16.982   9.354
 3116POPC   PO441112  34.906  16.573   9.458
 3116POPC   GL141113  34.750  16.705   9.088
 3116POPC   GL241114  34.424  16.531   9.058
 3116POPC   C1A41115  34.785  16.987   8.758
 3116POPC   D2A41116  34.974  16.819   8.412
 3116POPC   C3A41117  34.921  16.838   7.975
 3116POPC   C4A41118  34.544  16.721   7.810
 3116POPC   C1B41119  34.335  16.759   8.704
 3116POPC   C2B41120  34.375  16.879   8.284
 3116POPC   C3B41121  34.070  16.903   7.942
 3116POPC   C4B41122  34.224  16.989   7.501
 3117POPC   NC341123  15.356  31.204   9.447
 3117POPC   PO441124  14.738  31.474   9.566
 3117POPC   GL141125  14.923  31.314   9.170
 3117POPC   GL241126  15.178  31.600   9.169
 3117POPC   C1A41127  15.210  31.249   8.779
 3117POPC   D2A41128  15.336  31.462   8.372
 3117POPC   C3A41129  15.307  31.376   7.928
 3117POPC   C4A41130  14.957  31.421   7.641
 3117POPC   C1B41131  14.913  31.704   8.847
 3117POPC   C2B41132  14.807  31.636   8.429
 3117POPC   C3B41133  15.013  31.762   8.058
 3117POPC   C4B41134  15.031  31.927   7.636
 3118POPC   NC341135   2.701  15.403   9.619
 3118POPC   PO441136   2.064  15.456   9.804
 3118POPC   GL141137   2.315  15.457   9.286
 3118POPC   GL241138   2.663  15.212   9.157
 3118POPC   C1A41139   2.339  15.344   8.808
 3118POPC   D2A41140   2.617  15.192   8.469
 3118POPC   C3A41141   2.682  15.255   8.042
 3118POPC   C4A41142   2.727  15.042   7.634
 3118POPC   C1B41143   2.980  15.103   8.811
 3118POPC   C2B41144   3.007  14.871   8.397
 3118POPC   C3B41145   3.108  14.979   7.968
 3118POPC   C4B41146   3.203  15.146   7.531
 3119POPC   NC341147  27.233   6.947   9.539
 3119POPC   PO441148  26.741   6.420   9.471
 3119POPC   GL141149  26.711   6.631   9.091
 3119POPC   GL241150  26.845   6.945   9.220
 3119POPC   C1A41151  26.735   6.504   8.653
 3119POPC   D2A41152  26.882   6.620   8.254
 3119POPC   C3A41153  26.814   6.453   7.860
 3119POPC   C4A41154  26.507   6.413   7.470
 3119POPC   C1B41155  27.061   6.919   8.806
 3119POPC   C2B41156  27.124   7.057   8.344
 3119POPC   C3B41157  27.073   6.946   7.874
 3119POPC   C4B41158  27.209   7.112   7.456
 3120POPC   NC341159   3.144  12.476   9.812
 3120POPC   PO441160   3.605  12.817   9.608
 3120POPC   GL141161   3.594  12.966   9.186
 3120POPC   GL241162   3.704  12.677   9.051
 3120POPC   C1A41163   3.596  13.112   8.751
 3120POPC   D2A41164   3.591  13.002   8.312
 3120POPC   C3A41165   3.331  13.032   7.966
 3120POPC   C4A41166   3.458  13.150   7.591
 3120POPC   C1B41167   3.942  12.729   8.673
 3120POPC   C2B41168   4.006  12.742   8.229
 3120POPC   C3B41169   3.712  12.705   7.862
 3120POPC   C4B41170   3.659  12.400   7.507
 3121POPC   NC341171   1.096   7.634   9.463
 3121POPC   PO441172   0.953   7.022   9.458
 3121POPC   GL141173   1.153   7.230   9.106
 3121POPC   GL241174   1.284   7.545   9.012
 3121POPC   C1A41175   1.390   7.079   8.757
 3121POPC   D2A41176   1.519   7.184   8.344
 3121POPC   C3A41177   1.230   7.410   8.093
 3121POPC   C4A41178   1.275   7.255   7.727
 3121POPC   C1B41179   1.222   7.538   8.597
 3121POPC   C2B41180   1.502   7.746   8.371
 3121POPC   C3B41181   1.632   7.845   8.015
 3121POPC   C4B41182   1.412   7.732   7.691
 3122POPC   NC341183  27.134  44.385   5.724
 3122POPC   PO441184  26.710  43.974   5.446
 3122POPC   GL141185  26.699  43.773   5.849
 3122POPC   GL241186  26.805  44.045   5.990
 3122POPC   C1A41187  26.841  43.601   6.243
 3122POPC   D2A41188  26.820  43.765   6.647
 3122POPC   C3A41189  26.996  43.601   7.011
 3122POPC   C4A41190  27.262  43.901   7.149
 3122POPC   C1B41191  26.491  44.006   6.323
 3122POPC   C2B41192  26.542  44.170   6.740
 3122POPC   C3B41193  26.736  44.034   7.122
 3122POPC   C4B41194  26.570  44.169   7.489
 3123POPC   NC341195  41.366   8.586   5.416
 3123POPC   PO441196  41.801   8.020   5.316
 3123POPC   GL141197  41.743   7.991   5.774
 3123POPC   GL241198  41.765   8.344   5.829
 3123POPC   C1A41199  41.481   8.035   6.180
 3123POPC   D2A41200  41.501   7.858   6.605
 3123POPC   C3A41201  41.680   8.074   6.952
 3123POPC   C4A41202  41.356   8.020   7.212
 3123POPC   C1B41203  41.525   8.537   6.159
 3123POPC   C2B41204  41.478   8.373   6.581
 3123POPC   C3B41205  41.330   8.474   6.981
 3123POPC   C4B41206  41.424   8.562   7.387
 3124POPC   NC341207  15.500  32.430   5.439
 3124POPC   PO441208  15.100  31.975   5.650
 3124POPC   GL141209  15.234  32.294   5.872
 3124POPC   GL241210  14.908  32.278   6.044
 3124POPC   C1A41211  15.481  32.329   6.252
 3124POPC   D2A41212  15.383  32.219   6.682
 3124POPC   C3A41213  15.532  32.492   7.040
 3124POPC   C4A41214  15.323  32.334   7.390
 3124POPC   C1B41215  15.085  32.627   6.230
 3124POPC   C2B41216  15.243  32.711   6.624
 3124POPC   C3B41217  15.032  32.545   6.966
 3124POPC   C4B41218  14.753  32.616   7.254
 3125POPC   NC341219  12.852  19.340   5.251
 3125POPC   PO441220  12.465  19.835   5.466
 3125POPC   GL141221  12.802  19.860   5.761
 3125POPC   GL241222  12.618  19.673   5.947
 3125POPC   C1A41223  12.999  19.879   6.200
 3125POPC   D2A41224  13.079  19.673   6.616
 3125POPC   C3A41225  12.923  19.913   6.967
 3125POPC   C4A41226  12.728  20.111   7.322
 3125POPC   C1B41227  12.710  19.448   6.271
 3125POPC   C2B41228  12.563  19.555   6.646
 3125POPC   C3B41229  12.672  19.480   7.030
 3125POPC   C4B41230  12.420  19.633   7.294
 3126POPC   NC341231  31.885  37.872   5.474
 3126POPC   PO441232  32.308  37.420   5.161
 3126POPC   GL141233  32.284  37.550   5.677
 3126POPC   GL241234  32.233  37.858   5.865
 3126POPC   C1A41235  32.491  37.554   6.142
 3126POPC   D2A41236  32.192  37.727   6.470
 3126POPC   C3A41237  32.311  37.694   6.918
 3126POPC   C4A41238  32.368  37.814   7.346
 3126POPC   C1B41239  31.936  38.033   6.132
 3126POPC   C2B41240  31.673  37.967   6.487
 3126POPC   C3B41241  31.782  37.820   6.885
 3126POPC   C4B41242  32.001  38.079   7.151
 3127POPC   NC341243   3.649  26.457   5.650
 3127POPC   PO441244   3.424  25.789   5.430
 3127POPC   GL141245   3.739  25.785   5.816
 3127POPC   GL241246   3.770  26.123   6.019
 3127POPC   C1A41247   3.595  25.723   6.264
 3127POPC   D2A41248   3.428  25.809   6.614
 3127POPC   C3A41249   3.558  25.777   7.018
 3127POPC   C4A41250   3.219  25.804   7.281
 3127POPC   C1B41251   3.364  26.206   6.269
 3127POPC   C2B41252   3.306  26.277   6.727
 3127POPC   C3B41253   3.452  26.258   7.156
 3127POPC   C4B41254   3.735  26.376   7.496
 3128POPC   NC341255  19.772   3.367   5.454
 3128POPC   PO441256  20.123   3.849   5.672
 3128POPC   GL141257  20.026   3.454   5.890
 3128POPC   GL241258  19.646   3.506   5.926
 3128POPC   C1A41259  19.934   3.251   6.282
 3128POPC   D2A41260  19.794   3.575   6.532
 3128POPC   C3A41261  19.765   3.643   6.968
 3128POPC   C4A41262  19.921   3.731   7.381
 3128POPC   C1B41263  19.429   3.277   6.261
 3128POPC   C2B41264  19.537   3.163   6.681
 3128POPC   C3B41265  19.372   3.248   7.070
 3128POPC   C4B41266  19.550   3.432   7.439
 3129POPC   NC341267  28.626  19.280   5.424
 3129POPC   PO441268  28.256  18.692   5.614
 3129POPC   GL141269  28.354  19.084   5.805
 3129POPC   GL241270  28.689  18.913   5.784
 3129POPC   C1A41271  28.431  19.350   6.179
 3129POPC   D2A41272  28.180  19.406   6.577
 3129POPC   C3A41273  28.325  19.251   6.961
 3129POPC   C4A41274  28.534  19.134   7.306
 3129POPC   C1B41275  28.564  18.830   6.200
 3129POPC   C2B41276  28.568  19.031   6.564
 3129POPC   C3B41277  28.678  18.835   6.899
 3129POPC   C4B41278  28.631  18.633   7.255
 3130POPC   NC341279  34.795  36.687   5.479
 3130POPC   PO441280  34.213  37.027   5.455
 3130POPC   GL141281  34.409  37.188   5.820
 3130POPC   GL241282  34.758  37.226   5.641
 3130POPC   C1A41283  34.398  37.062   6.283
 3130POPC   D2A41284  34.345  37.247   6.695
 3130POPC   C3A41285  34.316  37.014   7.103
 3130POPC   C4A41286  34.491  36.650   7.332
 3130POPC   C1B41287  34.837  37.200   6.075
 3130POPC   C2B41288  34.847  37.155   6.540
 3130POPC   C3B41289  34.814  37.165   6.995
 3130POPC   C4B41290  34.661  37.177   7.413
 3131POPC   NC341291  10.309  27.901   5.339
 3131POPC   PO441292  10.820  27.540   5.122
 3131POPC   GL141293  10.558  27.528   5.577
 3131POPC   GL241294  10.580  27.837   5.788
 3131POPC   C1A41295  10.321  27.441   5.998
 3131POPC   D2A41296  10.217  27.434   6.462
 3131POPC   C3A41297  10.333  27.348   6.912
 3131POPC   C4A41298  10.683  27.481   7.184
 3131POPC   C1B41299  10.557  27.808   6.237
 3131POPC   C2B41300  10.642  27.678   6.638
 3131POPC   C3B41301  10.466  27.869   6.965
 3131POPC   C4B41302  10.719  27.976   7.263
 3132POPC   NC341303  20.214  29.830   5.609
 3132POPC   PO441304  19.664  30.272   5.573
 3132POPC   GL141305  19.860  30.048   5.922
 3132POPC   GL241306  19.802  29.696   5.883
 3132POPC   C1A41307  19.801  29.964   6.360
 3132POPC   D2A41308  19.444  30.042   6.617
 3132POPC   C3A41309  19.535  30.092   7.045
 3132POPC   C4A41310  19.744  29.944   7.395
 3132POPC   C1B41311  20.140  29.607   6.204
 3132POPC   C2B41312  20.206  29.729   6.626
 3132POPC   C3B41313  19.903  29.729   6.940
 3132POPC   C4B41314  19.850  29.441   7.268
 3133POPC   NC341315  25.590  10.230   5.398
 3133POPC   PO441316  25.281  10.843   5.280
 3133POPC   GL141317  25.229  10.569   5.701
 3133POPC   GL241318  24.940  10.389   5.820
 3133POPC   C1A41319  25.092  10.736   6.154
 3133POPC   D2A41320  25.051  10.982   6.555
 3133POPC   C3A41321  25.137  10.753   6.943
 3133POPC   C4A41322  25.391  10.700   7.299
 3133POPC   C1B41323  25.240  10.247   6.213
 3133POPC   C2B41324  25.369  10.201   6.691
 3133POPC   C3B41325  25.193  10.215   7.163
 3133POPC   C4B41326  25.195  10.372   7.630
 3134POPC   NC341327  39.444  32.371   5.377
 3134POPC   PO441328  38.765  32.087   5.491
 3134POPC   GL141329  39.097  32.252   5.808
 3134POPC   GL241330  39.383  32.492   5.857
 3134POPC   C1A41331  39.199  32.238   6.263
 3134POPC   D2A41332  38.995  32.274   6.668
 3134POPC   C3A41333  39.184  32.113   7.048
 3134POPC   C4A41334  39.211  32.326   7.443
 3134POPC   C1B41335  39.625  32.552   6.240
 3134POPC   C2B41336  39.515  32.407   6.659
 3134POPC   C3B41337  39.591  32.449   7.086
 3134POPC   C4B41338  39.707  32.224   7.471
 3135POPC   NC341339  40.161  21.600   5.306
 3135POPC   PO441340  40.296  22.247   5.482
 3135POPC   GL141341  40.058  22.262   5.840
 3135POPC   GL241342  39.808  22.027   5.780
 3135POPC   C1A41343  40.151  22.182   6.245
 3135POPC   D2A41344  40.370  22.285   6.595
 3135POPC   C3A41345  40.136  22.438   6.937
 3135POPC   C4A41346  40.036  22.229   7.298
 3135POPC   C1B41347  39.692  21.945   6.204
 3135POPC   C2B41348  39.557  21.910   6.628
 3135POPC   C3B41349  39.739  21.842   7.039
 3135POPC   C4B41350  39.705  21.892   7.497
 3136POPC   NC341351  30.545  38.282   5.524
 3136POPC   PO441352  30.938  38.859   5.471
 3136POPC   GL141353  30.751  38.815   5.893
 3136POPC   GL241354  30.439  38.616   5.924
 3136POPC   C1A41355  30.752  38.638   6.329
 3136POPC   D2A41356  30.587  38.369   6.680
 3136POPC   C3A41357  30.860  38.413   7.016
 3136POPC   C4A41358  30.774  38.552   7.439
 3136POPC   C1B41359  30.452  38.203   6.179
 3136POPC   C2B41360  30.336  37.938   6.537
 3136POPC   C3B41361  30.239  37.987   6.960
 3136POPC   C4B41362  30.433  38.228   7.238
 3137POPC   NC341363   2.032  25.682   5.466
 3137POPC   PO441364   2.011  25.011   5.425
 3137POPC   GL141365   1.820  25.202   5.796
 3137POPC   GL241366   1.836  25.551   5.911
 3137POPC   C1A41367   1.770  25.151   6.251
 3137POPC   D2A41368   1.555  25.221   6.671
 3137POPC   C3A41369   1.629  24.963   7.071
 3137POPC   C4A41370   1.903  24.758   7.425
 3137POPC   C1B41371   2.179  25.468   6.202
 3137POPC   C2B41372   2.079  25.327   6.631
 3137POPC   C3B41373   1.883  25.415   7.042
 3137POPC   C4B41374   2.024  25.266   7.457
 3138POPC   NC341375   5.131  38.025   5.332
 3138POPC   PO441376   4.923  38.769   5.435
 3138POPC   GL141377   5.028  38.457   5.758
 3138POPC   GL241378   4.844  38.142   5.737
 3138POPC   C1A41379   5.205  38.466   6.171
 3138POPC   D2A41380   5.115  38.693   6.557
 3138POPC   C3A41381   5.092  38.532   6.961
 3138POPC   C4A41382   4.927  38.748   7.303
 3138POPC   C1B41383   4.893  38.035   6.159
 3138POPC   C2B41384   5.091  38.145   6.553
 3138POPC   C3B41385   4.922  38.023   6.924
 3138POPC   C4B41386   4.965  38.173   7.329
 3139POPC   NC341387  27.004   1.837   5.313
 3139POPC   PO441388  26.442   2.166   5.474
 3139POPC   GL141389  26.820   2.119   5.719
 3139POPC   GL241390  26.687   1.855   5.907
 3139POPC   C1A41391  27.035   2.155   6.131
 3139POPC   D2A41392  27.143   2.092   6.568
 3139POPC   C3A41393  26.748   2.114   6.813
 3139POPC   C4A41394  26.703   2.239   7.251
 3139POPC   C1B41395  26.620   1.890   6.367
 3139POPC   C2B41396  26.451   1.664   6.759
 3139POPC   C3B41397  26.656   1.744   7.156
 3139POPC   C4B41398  26.782   1.563   7.523
 3140POPC   NC341399   0.016   8.749   5.340
 3140POPC   PO441400  44.566   9.281   5.288
 3140POPC   GL141401  44.747   9.131   5.683
 3140POPC   GL241402  44.695   8.777   5.739
 3140POPC   C1A41403  44.756   9.108   6.143
 3140POPC   D2A41404  44.496   9.310   6.466
 3140POPC   C3A41405  44.650   9.256   6.872
 3140POPC   C4A41406  44.460   9.139   7.248
 3140POPC   C1B41407  44.481   8.680   6.139
 3140POPC   C2B41408  44.612   8.802   6.546
 3140POPC   C3B41409  44.513   8.738   6.955
 3140POPC   C4B41410  44.627   8.447   7.246
 3141POPC   NC341411  35.451  22.733   5.526
 3141POPC   PO441412  35.640  22.058   5.545
 3141POPC   GL141413  35.375  22.298   5.806
 3141POPC   GL241414  35.672  22.478   5.897
 3141POPC   C1A41415  35.122  22.237   6.185
 3141POPC   D2A41416  35.018  22.411   6.601
 3141POPC   C3A41417  35.097  22.212   6.993
 3141POPC   C4A41418  35.371  21.897   7.159
 3141POPC   C1B41419  35.657  22.162   6.221
 3141POPC   C2B41420  35.427  22.082   6.589
 3141POPC   C3B41421  35.637  22.242   6.912
 3141POPC   C4B41422  35.778  22.567   7.145
 3142POPC   NC341423   0.944  24.025   5.415
 3142POPC   PO441424   1.385  24.403   5.333
 3142POPC   GL141425   1.203  24.448   5.776
 3142POPC   GL241426   0.919  24.690   5.854
 3142POPC   C1A41427   1.264  24.525   6.250
 3142POPC   D2A41428   1.405  24.727   6.628
 3142POPC   C3A41429   1.371  24.504   7.004
 3142POPC   C4A41430   1.078  24.645   7.271
 3142POPC   C1B41431   0.774  24.646   6.290
 3142POPC   C2B41432   0.863  24.509   6.730
 3142POPC   C3B41433   0.943  24.200   7.069
 3142POPC   C4B41434   1.056  24.179   7.518
 3143POPC   NC341435  35.805   2.287   5.535
 3143POPC   PO441436  36.120   1.708   5.272
 3143POPC   GL141437  36.130   1.776   5.716
 3143POPC   GL241438  36.463   1.612   5.747
 3143POPC   C1A41439  35.999   1.991   6.114
 3143POPC   D2A41440  36.217   2.010   6.510
 3143POPC   C3A41441  35.959   2.073   6.864
 3143POPC   C4A41442  35.926   2.035   7.260
 3143POPC   C1B41443  36.334   1.621   6.166
 3143POPC   C2B41444  36.386   1.524   6.583
 3143POPC   C3B41445  36.374   1.748   6.956
 3143POPC   C4B41446  36.362   1.669   7.378
 3144POPC   NC341447  36.453  17.598   5.658
 3144POPC   PO441448  36.031  17.259   5.275
 3144POPC   GL141449  35.994  17.351   5.733
 3144POPC   GL241450  35.971  17.732   5.834
 3144POPC   C1A41451  36.116  17.397   6.195
 3144POPC   D2A41452  36.197  17.566   6.620
 3144POPC   C3A41453  35.973  17.438   6.971
 3144POPC   C4A41454  36.249  17.257   7.274
 3144POPC   C1B41455  36.077  17.932   6.267
 3144POPC   C2B41456  35.919  17.972   6.740
 3144POPC   C3B41457  35.683  17.859   7.130
 3144POPC   C4B41458  35.745  17.692   7.578
 3145POPC   NC341459  30.984  15.106   5.418
 3145POPC   PO441460  30.407  15.324   5.584
 3145POPC   GL141461  30.710  15.126   5.849
 3145POPC   GL241462  31.009  15.366   5.858
 3145POPC   C1A41463  30.586  14.922   6.233
 3145POPC   D2A41464  30.532  14.670   6.601
 3145POPC   C3A41465  30.460  14.949   6.965
 3145POPC   C4A41466  30.546  15.196   7.319
 3145POPC   C1B41467  31.046  15.135   6.256
 3145POPC   C2B41468  30.903  15.022   6.695
 3145POPC   C3B41469  30.988  15.286   7.069
 3145POPC   C4B41470  31.181  15.707   7.106
 3146POPC   NC341471  28.043  39.001   5.552
 3146POPC   PO441472  28.641  39.241   5.339
 3146POPC   GL141473  28.408  39.329   5.732
 3146POPC   GL241474  28.097  39.538   5.693
 3146POPC   C1A41475  28.420  39.100   6.153
 3146POPC   D2A41476  28.549  39.211   6.588
 3146POPC   C3A41477  28.438  39.039   7.003
 3146POPC   C4A41478  28.289  39.194   7.388
 3146POPC   C1B41479  28.064  39.465   6.131
 3146POPC   C2B41480  28.185  39.602   6.544
 3146POPC   C3B41481  28.273  39.525   6.971
 3146POPC   C4B41482  28.101  39.676   7.375
 3147POPC   NC341483   0.630  40.589   5.467
 3147POPC   PO441484   0.279  41.115   5.568
 3147POPC   GL141485   0.327  40.768   5.838
 3147POPC   GL241486   0.151  40.437   5.746
 3147POPC   C1A41487   0.602  40.815   6.165
 3147POPC   D2A41488   0.784  40.584   6.466
 3147POPC   C3A41489   0.680  40.790   6.844
 3147POPC   C4A41490   0.537  40.789   7.248
 3147POPC   C1B41491   0.298  40.378   6.184
 3147POPC   C2B41492   0.381  40.329   6.622
 3147POPC   C3B41493   0.473  40.315   7.044
 3147POPC   C4B41494   0.287  40.361   7.441
 3148POPC   NC341495  41.397  15.076   5.127
 3148POPC   PO441496  41.930  15.337   5.499
 3148POPC   GL141497  41.508  15.312   5.694
 3148POPC   GL241498  41.523  14.974   5.787
 3148POPC   C1A41499  41.409  15.337   6.160
 3148POPC   D2A41500  41.603  15.260   6.586
 3148POPC   C3A41501  41.464  15.129   7.013
 3148POPC   C4A41502  41.405  15.331   7.442
 3148POPC   C1B41503  41.681  14.906   6.210
 3148POPC   C2B41504  41.945  14.870   6.557
 3148POPC   C3B41505  41.909  14.825   6.990
 3148POPC   C4B41506  41.805  14.977   7.392
 3149POPC   NC341507   9.927  41.745   5.014
 3149POPC   PO441508   9.547  41.450   5.468
 3149POPC   GL141509   9.877  41.415   5.752
 3149POPC   GL241510  10.062  41.110   5.659
 3149POPC   C1A41511   9.911  41.627   6.176
 3149POPC   D2A41512   9.661  41.815   6.502
 3149POPC   C3A41513   9.691  41.604   6.880
 3149POPC   C4A41514   9.491  41.645   7.272
 3149POPC   C1B41515  10.032  41.110   6.116
 3149POPC   C2B41516   9.948  41.251   6.519
 3149POPC   C3B41517  10.082  41.245   6.916
 3149POPC   C4B41518   9.875  41.319   7.273
 3150POPC   NC341519  35.916   5.643   5.702
 3150POPC   PO441520  36.448   5.871   5.376
 3150POPC   GL141521  36.359   5.887   5.830
 3150POPC   GL241522  36.431   5.547   5.908
 3150POPC   C1A41523  36.158   5.877   6.266
 3150POPC   D2A41524  35.755   5.757   6.478
 3150POPC   C3A41525  35.841   5.655   6.902
 3150POPC   C4A41526  35.926   6.048   7.123
 3150POPC   C1B41527  36.456   5.364   6.314
 3150POPC   C2B41528  36.263   5.539   6.637
 3150POPC   C3B41529  36.333   5.801   6.948
 3150POPC   C4B41530  36.504   5.654   7.305
 3151POPC   NC341531  22.197   6.669   5.312
 3151POPC   PO441532  21.937   6.906   5.919
 3151POPC   GL141533  22.231   6.587   5.989
 3151POPC   GL241534  22.489   6.672   5.768
 3151POPC   C1A41535  22.267   6.508   6.433
 3151POPC   D2A41536  22.108   6.777   6.749
 3151POPC   C3A41537  22.076   6.620   7.147
 3151POPC   C4A41538  21.877   6.262   7.152
 3151POPC   C1B41539  22.666   6.775   6.193
 3151POPC   C2B41540  22.600   6.925   6.617
 3151POPC   C3B41541  22.562   6.704   7.015
 3151POPC   C4B41542  22.534   6.720   7.474
 3152POPC   NC341543  41.467  22.336   5.385
 3152POPC   PO441544  41.565  21.764   5.119
 3152POPC   GL141545  41.730  21.973   5.618
 3152POPC   GL241546  41.477  22.248   5.874
 3152POPC   C1A41547  41.841  21.988   6.058
 3152POPC   D2A41548  41.772  21.935   6.504
 3152POPC   C3A41549  41.552  22.213   6.812
 3152POPC   C4A41550  41.548  22.151   7.250
 3152POPC   C1B41551  41.353  22.570   6.203
 3152POPC   C2B41552  41.293  22.650   6.672
 3152POPC   C3B41553  41.411  22.633   7.134
 3152POPC   C4B41554  41.287  22.459   7.573
 3153POPC   NC341555   7.287  37.214   5.383
 3153POPC   PO441556   7.613  36.622   5.503
 3153POPC   GL141557   7.373  36.868   5.785
 3153POPC   GL241558   7.643  37.062   5.858
 3153POPC   C1A41559   7.245  37.085   6.167
 3153POPC   D2A41560   7.489  37.098   6.567
 3153POPC   C3A41561   7.339  37.014   6.969
 3153POPC   C4A41562   7.236  36.630   7.160
 3153POPC   C1B41563   7.722  36.797   6.218
 3153POPC   C2B41564   7.818  36.737   6.685
 3153POPC   C3B41565   7.745  36.700   7.167
 3153POPC   C4B41566   7.883  36.711   7.644
 3154POPC   NC341567  18.622   5.230   5.475
 3154POPC   PO441568  17.977   4.815   5.517
 3154POPC   GL141569  18.115   4.961   5.883
 3154POPC   GL241570  18.463   5.049   5.940
 3154POPC   C1A41571  18.086   5.205   6.239
 3154POPC   D2A41572  18.404   5.125   6.532
 3154POPC   C3A41573  18.240   5.232   6.901
 3154POPC   C4A41574  18.100   5.171   7.284
 3154POPC   C1B41575  18.546   5.465   6.175
 3154POPC   C2B41576  18.426   5.636   6.626
 3154POPC   C3B41577  18.618   5.561   7.035
 3154POPC   C4B41578  18.483   5.441   7.428
 3155POPC   NC341579  14.346  17.151   5.376
 3155POPC   PO441580  14.463  16.445   5.335
 3155POPC   GL141581  14.410  16.730   5.711
 3155POPC   GL241582  14.071  16.946   5.766
 3155POPC   C1A41583  14.413  16.537   6.124
 3155POPC   D2A41584  14.502  16.729   6.517
 3155POPC   C3A41585  14.261  16.675   6.832
 3155POPC   C4A41586  14.553  16.577   7.158
 3155POPC   C1B41587  14.230  17.018   6.187
 3155POPC   C2B41588  14.356  17.217   6.569
 3155POPC   C3B41589  14.490  17.126   6.978
 3155POPC   C4B41590  14.233  16.976   7.248
 3156POPC   NC341591  44.983  29.048   5.402
 3156POPC   PO441592  44.430  29.439   5.583
 3156POPC   GL141593  44.798  29.313   5.811
 3156POPC   GL241594  44.656  28.964   5.775
 3156POPC   C1A41595   0.004  29.342   6.234
 3156POPC   D2A41596  44.762  29.214   6.592
 3156POPC   C3A41597  44.683  29.401   6.988
 3156POPC   C4A41598  44.608  29.230   7.396
 3156POPC   C1B41599  44.770  28.883   6.189
 3156POPC   C2B41600  44.648  28.714   6.588
 3156POPC   C3B41601  44.675  28.861   7.006
 3156POPC   C4B41602  44.958  28.861   7.334
 3157POPC   NC341603  21.017   1.274   5.433
 3157POPC   PO441604  21.574   1.248   5.228
 3157POPC   GL141605  21.452   1.375   5.690
 3157POPC   GL241606  21.298   1.679   5.787
 3157POPC   C1A41607  21.543   1.280   6.116
 3157POPC   D2A41608  21.527   0.988   6.436
 3157POPC   C3A41609  21.331   1.119   6.777
 3157POPC   C4A41610  21.325   1.108   7.205
 3157POPC   C1B41611  21.160   1.634   6.220
 3157POPC   C2B41612  21.055   1.509   6.637
 3157POPC   C3B41613  21.304   1.582   7.020
 3157POPC   C4B41614  21.738   1.407   7.118
 3158POPC   NC341615  13.974   7.624   5.609
 3158POPC   PO441616  13.339   7.378   5.478
 3158POPC   GL141617  13.512   7.508   5.862
 3158POPC   GL241618  13.744   7.233   5.872
 3158POPC   C1A41619  13.738   7.689   6.223
 3158POPC   D2A41620  13.669   7.757   6.655
 3158POPC   C3A41621  13.941   7.770   7.023
 3158POPC   C4A41622  13.749   7.694   7.434
 3158POPC   C1B41623  13.976   7.231   6.243
 3158POPC   C2B41624  13.803   7.245   6.637
 3158POPC   C3B41625  13.645   7.373   7.023
 3158POPC   C4B41626  13.903   7.234   7.372
 3159POPC   NC341627  22.131   2.331   5.381
 3159POPC   PO441628  21.960   1.667   5.485
 3159POPC   GL141629  22.193   1.823   5.830
 3159POPC   GL241630  22.233   2.204   5.868
 3159POPC   C1A41631  22.268   1.857   6.280
 3159POPC   D2A41632  22.467   1.834   6.698
 3159POPC   C3A41633  22.195   1.630   6.991
 3159POPC   C4A41634  22.337   1.681   7.421
 3159POPC   C1B41635  22.185   2.367   6.259
 3159POPC   C2B41636  22.092   2.178   6.648
 3159POPC   C3B41637  22.213   2.130   7.051
 3159POPC   C4B41638  21.938   2.375   7.245
 3160POPC   NC341639  22.289  21.294   5.482
 3160POPC   PO441640  22.191  21.871   5.258
 3160POPC   GL141641  22.297  21.756   5.726
 3160POPC   GL241642  22.005  21.555   5.823
 3160POPC   C1A41643  22.339  21.600   6.197
 3160POPC   D2A41644  21.980  21.480   6.491
 3160POPC   C3A41645  21.988  21.649   6.890
 3160POPC   C4A41646  22.277  21.656   7.215
 3160POPC   C1B41647  21.973  21.159   6.092
 3160POPC   C2B41648  21.841  20.975   6.505
 3160POPC   C3B41649  21.994  21.117   6.903
 3160POPC   C4B41650  21.869  21.337   7.256
 3161POPC   NC341651   9.311   2.421   5.531
 3161POPC   PO441652   9.958   2.791   5.451
 3161POPC   GL141653   9.809   2.881   5.837
 3161POPC   GL241654   9.580   2.616   5.942
 3161POPC   C1A41655   9.961   2.740   6.243
 3161POPC   D2A41656   9.728   2.608   6.607
 3161POPC   C3A41657   9.867   2.784   6.992
 3161POPC   C4A41658  10.101   3.014   7.297
 3161POPC   C1B41659   9.431   2.929   6.268
 3161POPC   C2B41660   9.459   3.195   6.655
 3161POPC   C3B41661   9.457   3.079   7.100
 3161POPC   C4B41662   9.406   2.646   7.188
 3162POPC   NC341663  31.577  24.229   5.468
 3162POPC   PO441664  31.253  24.850   5.393
 3162POPC   GL141665  31.366  24.597   5.760
 3162POPC   GL241666  31.173  24.329   5.937
 3162POPC   C1A41667  31.582  24.631   6.141
 3162POPC   D2A41668  31.650  24.489   6.547
 3162POPC   C3A41669  31.321  24.607   6.798
 3162POPC   C4A41670  31.304  24.704   7.202
 3162POPC   C1B41671  31.477  24.110   6.229
 3162POPC   C2B41672  31.638  24.005   6.697
 3162POPC   C3B41673  31.504  24.150   7.127
 3162POPC   C4B41674  31.609  24.201   7.596
 3163POPC   NC341675  22.433  25.338   5.468
 3163POPC   PO441676  21.937  24.922   5.203
 3163POPC   GL141677  21.965  25.070   5.684
 3163POPC   GL241678  22.297  25.008   5.862
 3163POPC   C1A41679  21.923  25.324   6.142
 3163POPC   D2A41680  21.950  25.344   6.648
 3163POPC   C3A41681  22.314  25.510   6.904
 3163POPC   C4A41682  22.454  25.482   7.360
 3163POPC   C1B41683  22.040  24.838   6.161
 3163POPC   C2B41684  22.094  24.833   6.554
 3163POPC   C3B41685  22.354  24.979   6.838
 3163POPC   C4B41686  22.136  25.118   7.180
 3164POPC   NC341687  21.373  26.737   5.359
 3164POPC   PO441688  21.493  26.176   5.659
 3164POPC   GL141689  21.462  26.603   5.855
 3164POPC   GL241690  21.531  27.001   5.802
 3164POPC   C1A41691  21.284  26.802   6.211
 3164POPC   D2A41692  21.414  26.730   6.615
 3164POPC   C3A41693  21.191  26.815   6.971
 3164POPC   C4A41694  21.483  26.567   7.188
 3164POPC   C1B41695  21.606  27.202   6.238
 3164POPC   C2B41696  21.761  27.105   6.679
 3164POPC   C3B41697  21.619  27.066   7.146
 3164POPC   C4B41698  21.684  27.219   7.612
 3165POPC   NC341699  11.772  40.834   5.561
 3165POPC   PO441700  12.362  40.577   5.345
 3165POPC   GL141701  12.224  40.730   5.784
 3165POPC   GL241702  12.198  41.093   5.713
 3165POPC   C1A41703  11.991  40.759   6.212
 3165POPC   D2A41704  11.776  40.428   6.511
 3165POPC   C3A41705  11.862  40.458   6.969
 3165POPC   C4A41706  12.068  40.701   7.324
 3165POPC   C1B41707  12.262  41.217   6.131
 3165POPC   C2B41708  12.134  41.179   6.538
 3165POPC   C3B41709  12.173  40.993   6.921
 3165POPC   C4B41710  12.403  41.088   7.311
 3166POPC   NC341711   4.622  16.483   5.527
 3166POPC   PO441712   4.518  15.826   5.494
 3166POPC   GL141713   4.310  15.948   5.843
 3166POPC   GL241714   4.519  16.235   5.961
 3166POPC   C1A41715   4.192  15.689   6.198
 3166POPC   D2A41716   4.221  15.774   6.611
 3166POPC   C3A41717   4.253  15.524   6.960
 3166POPC   C4A41718   4.326  15.832   7.239
 3166POPC   C1B41719   4.193  16.206   6.247
 3166POPC   C2B41720   3.958  16.217   6.571
 3166POPC   C3B41721   4.112  16.254   6.969
 3166POPC   C4B41722   3.845  16.211   7.283
 3167POPC   NC341723  27.729   1.890   5.502
 3167POPC   PO441724  27.160   2.310   5.341
 3167POPC   GL141725  27.373   2.263   5.752
 3167POPC   GL241726  27.354   1.898   5.845
 3167POPC   C1A41727  27.535   2.284   6.198
 3167POPC   D2A41728  27.676   2.103   6.597
 3167POPC   C3A41729  27.514   2.223   6.992
 3167POPC   C4A41730  27.147   2.008   7.125
 3167POPC   C1B41731  27.563   1.756   6.237
 3167POPC   C2B41732  27.454   1.663   6.679
 3167POPC   C3B41733  27.599   1.714   7.102
 3167POPC   C4B41734  27.768   1.481   7.432
 3168POPC   NC341735  23.119  35.039   5.272
 3168POPC   PO441736  22.780  35.574   5.473
 3168POPC   GL141737  23.004  35.362   5.809
 3168POPC   GL241738  23.003  35.012   5.754
 3168POPC   C1A41739  23.087  35.418   6.263
 3168POPC   D2A41740  23.143  35.369   6.710
 3168POPC   C3A41741  22.791  35.410   6.958
 3168POPC   C4A41742  23.028  35.566   7.258
 3168POPC   C1B41743  22.814  34.873   6.113
 3168POPC   C2B41744  22.774  35.075   6.504
 3168POPC   C3B41745  22.915  34.929   6.870
 3168POPC   C4B41746  22.994  35.023   7.254
 3169POPC   NC341747   6.631  33.801   5.329
 3169POPC   PO441748   6.742  34.440   5.364
 3169POPC   GL141749   6.664  34.122   5.763
 3169POPC   GL241750   6.569  33.745   5.813
 3169POPC   C1A41751   6.709  34.010   6.234
 3169POPC   D2A41752   6.938  34.193   6.621
 3169POPC   C3A41753   6.742  34.002   7.001
 3169POPC   C4A41754   6.860  33.864   7.392
 3169POPC   C1B41755   6.382  33.453   6.088
 3169POPC   C2B41756   6.377  33.601   6.507
 3169POPC   C3B41757   6.308  33.748   6.908
 3169POPC   C4B41758   6.414  33.636   7.317
 3170POPC   NC341759  38.025   9.242   5.421
 3170POPC   PO441760  37.507   8.958   5.436
 3170POPC   GL141761  37.664   8.858   5.868
 3170POPC   GL241762  37.972   9.008   5.880
 3170POPC   C1A41763  37.806   8.908   6.342
 3170POPC   D2A41764  37.877   9.143   6.676
 3170POPC   C3A41765  37.917   8.882   6.992
 3170POPC   C4A41766  37.648   8.748   7.287
 3170POPC   C1B41767  37.649   9.308   6.104
 3170POPC   C2B41768  37.385   9.191   6.477
 3170POPC   C3B41769  37.425   9.099   6.922
 3170POPC   C4B41770  37.652   9.268   7.258
 3171POPC   NC341771   1.329  41.770   5.315
 3171POPC   PO441772   1.065  41.157   5.320
 3171POPC   GL141773   1.156  41.390   5.731
 3171POPC   GL241774   1.319  41.724   5.804
 3171POPC   C1A41775   1.214  41.439   6.200
 3171POPC   D2A41776   0.920  41.568   6.507
 3171POPC   C3A41777   0.998  41.650   6.885
 3171POPC   C4A41778   1.166  41.547   7.243
 3171POPC   C1B41779   1.495  41.962   6.127
 3171POPC   C2B41780   1.423  41.812   6.530
 3171POPC   C3B41781   1.376  41.970   6.921
 3171POPC   C4B41782   1.518  41.898   7.287
 3172POPC   NC341783  42.583  11.670   5.376
 3172POPC   PO441784  43.079  11.158   5.370
 3172POPC   GL141785  43.159  11.276   5.786
 3172POPC   GL241786  42.935  11.556   5.724
 3172POPC   C1A41787  43.319  11.247   6.230
 3172POPC   D2A41788  43.542  11.252   6.627
 3172POPC   C3A41789  43.268  11.113   6.944
 3172POPC   C4A41790  43.025  11.185   7.270
 3172POPC   C1B41791  42.808  11.391   6.146
 3172POPC   C2B41792  42.936  11.270   6.565
 3172POPC   C3B41793  42.885  11.529   6.894
 3172POPC   C4B41794  42.660  11.586   7.236
 3173POPC   NC341795  20.154  11.571   5.478
 3173POPC   PO441796  19.453  11.317   5.434
 3173POPC   GL141797  19.729  11.463   5.801
 3173POPC   GL241798  19.974  11.237   5.847
 3173POPC   C1A41799  19.907  11.611   6.250
 3173POPC   D2A41800  19.772  11.837   6.657
 3173POPC   C3A41801  19.677  11.772   7.106
 3173POPC   C4A41802  19.790  11.627   7.544
 3173POPC   C1B41803  19.767  11.124   6.230
 3173POPC   C2B41804  19.970  11.212   6.613
 3173POPC   C3B41805  19.898  11.332   7.042
 3173POPC   C4B41806  19.728  11.077   7.370
 3174POPC   NC341807  43.252  40.367   5.311
 3174POPC   PO441808  43.726  39.984   5.199
 3174POPC   GL141809  43.795  39.967   5.676
 3174POPC   GL241810  44.003  39.678   5.709
 3174POPC   C1A41811  43.867  40.032   6.141
 3174POPC   D2A41812  43.633  40.042   6.570
 3174POPC   C3A41813  43.845  40.074   6.985
 3174POPC   C4A41814  43.620  40.413   7.245
 3174POPC   C1B41815  44.035  39.550   6.120
 3174POPC   C2B41816  44.045  39.749   6.531
 3174POPC   C3B41817  44.129  39.602   6.905
 3174POPC   C4B41818  43.957  39.562   7.289
 3175POPC   NC341819  11.963   8.706   5.148
 3175POPC   PO441820  12.101   8.172   5.535
 3175POPC   GL141821  12.123   8.478   5.879
 3175POPC   GL241822  11.883   8.726   5.873
 3175POPC   C1A41823  12.139   8.340   6.301
 3175POPC   D2A41824  12.191   7.974   6.582
 3175POPC   C3A41825  12.268   8.028   7.018
 3175POPC   C4A41826  12.010   7.840   7.344
 3175POPC   C1B41827  11.734   8.678   6.291
 3175POPC   C2B41828  11.793   8.389   6.657
 3175POPC   C3B41829  11.943   8.434   7.069
 3175POPC   C4B41830  11.808   8.545   7.480
 3176POPC   NC341831   3.254  17.531   5.523
 3176POPC   PO441832   2.716  17.174   5.546
 3176POPC   GL141833   2.857  17.369   5.883
 3176POPC   GL241834   2.895  17.715   5.869
 3176POPC   C1A41835   2.643  17.287   6.231
 3176POPC   D2A41836   2.457  17.347   6.568
 3176POPC   C3A41837   2.604  17.204   6.937
 3176POPC   C4A41838   2.634  17.353   7.334
 3176POPC   C1B41839   2.563  17.811   6.176
 3176POPC   C2B41840   2.524  17.995   6.593
 3176POPC   C3B41841   2.499  17.724   6.950
 3176POPC   C4B41842   2.711  17.851   7.265
 3177POPC   NC341843   2.220  43.863   5.275
 3177POPC   PO441844   1.654  43.465   5.167
 3177POPC   GL141845   1.958  43.553   5.586
 3177POPC   GL241846   2.018  43.921   5.741
 3177POPC   C1A41847   2.017  43.554   6.064
 3177POPC   D2A41848   1.881  43.590   6.502
 3177POPC   C3A41849   2.136  43.590   6.862
 3177POPC   C4A41850   2.080  43.503   7.284
 3177POPC   C1B41851   1.854  44.031   6.179
 3177POPC   C2B41852   1.849  44.062   6.662
 3177POPC   C3B41853   1.908  44.001   7.122
 3177POPC   C4B41854   1.667  44.201   7.470
 3178POPC   NC341855  37.452  42.324   5.338
 3178POPC   PO441856  38.054  42.526   5.224
 3178POPC   GL141857  37.776  42.516   5.690
 3178POPC   GL241858  37.696  42.208   5.833
 3178POPC   C1A41859  37.670  42.533   6.214
 3178POPC   D2A41860  37.511  42.314   6.598
 3178POPC   C3A41861  37.533  42.462   7.014
 3178POPC   C4A41862  37.760  42.448   7.372
 3178POPC   C1B41863  37.580  41.973   6.232
 3178POPC   C2B41864  37.730  41.773   6.617
 3178POPC   C3B41865  37.773  42.011   7.011
 3178POPC   C4B41866  37.469  41.999   7.324
 3179POPC   NC341867   4.224  23.886   5.169
 3179POPC   PO441868   4.503  23.339   5.294
 3179POPC   GL141869   4.410  23.567   5.765
 3179POPC   GL241870   4.284  23.949   5.714
 3179POPC   C1A41871   4.264  23.582   6.269
 3179POPC   D2A41872   4.084  23.593   6.739
 3179POPC   C3A41873   4.349  23.601   7.126
 3179POPC   C4A41874   4.672  23.660   7.463
 3179POPC   C1B41875   4.413  24.047   6.157
 3179POPC   C2B41876   4.415  23.995   6.620
 3179POPC   C3B41877   4.147  24.046   7.008
 3179POPC   C4B41878   4.281  24.019   7.449
 3180POPC   NC341879   9.135  41.684   5.483
 3180POPC   PO441880   8.572  41.254   5.364
 3180POPC   GL141881   8.808  41.368   5.713
 3180POPC   GL241882   9.094  41.140   5.594
 3180POPC   C1A41883   8.920  41.631   6.113
 3180POPC   D2A41884   9.138  41.813   6.497
 3180POPC   C3A41885   9.175  41.586   6.874
 3180POPC   C4A41886   8.971  41.585   7.290
 3180POPC   C1B41887   9.073  41.111   6.056
 3180POPC   C2B41888   9.028  41.287   6.468
 3180POPC   C3B41889   8.924  41.160   6.879
 3180POPC   C4B41890   8.969  41.049   7.284
 3181POPC   NC341891  25.527  23.995   5.538
 3181POPC   PO441892  25.513  23.291   5.626
 3181POPC   GL141893  25.214  23.641   5.840
 3181POPC   GL241894  25.278  23.976   5.973
 3181POPC   C1A41895  25.004  23.702   6.274
 3181POPC   D2A41896  25.211  23.773   6.652
 3181POPC   C3A41897  25.049  23.846   7.047
 3181POPC   C4A41898  25.163  23.576   7.390
 3181POPC   C1B41899  25.306  24.213   6.363
 3181POPC   C2B41900  25.262  24.276   6.809
 3181POPC   C3B41901  25.512  24.207   7.181
 3181POPC   C4B41902  25.361  23.991   7.550
 3182POPC   NC341903  25.266  19.525   5.336
 3182POPC   PO441904  25.640  20.112   5.429
 3182POPC   GL141905  25.396  19.887   5.747
 3182POPC   GL241906  25.636  19.634   5.751
 3182POPC   C1A41907  25.225  20.069   6.173
 3182POPC   D2A41908  24.987  20.006   6.608
 3182POPC   C3A41909  25.056  19.839   7.019
 3182POPC   C4A41910  25.142  19.879   7.450
 3182POPC   C1B41911  25.720  19.931   6.113
 3182POPC   C2B41912  25.577  19.920   6.532
 3182POPC   C3B41913  25.577  19.872   6.963
 3182POPC   C4B41914  25.594  20.134   7.346
 3183POPC   NC341915  26.957   5.609   5.488
 3183POPC   PO441916  26.900   6.343   5.407
 3183POPC   GL141917  26.809   6.045   5.757
 3183POPC   GL241918  26.457   5.882   5.877
 3183POPC   C1A41919  26.920   5.813   6.135
 3183POPC   D2A41920  26.666   5.870   6.484
 3183POPC   C3A41921  26.789   5.822   6.901
 3183POPC   C4A41922  26.551   5.983   7.219
 3183POPC   C1B41923  26.330   5.565   6.241
 3183POPC   C2B41924  26.503   5.382   6.662
 3183POPC   C3B41925  26.476   5.471   7.127
 3183POPC   C4B41926  26.474   5.590   7.565
 3184POPC   NC341927  26.549  32.297   5.407
 3184POPC   PO441928  27.175  32.377   5.498
 3184POPC   GL141929  26.848  32.365   5.851
 3184POPC   GL241930  26.569  32.097   5.892
 3184POPC   C1A41931  26.798  32.252   6.303
 3184POPC   D2A41932  27.036  32.053   6.636
 3184POPC   C3A41933  26.909  32.212   7.019
 3184POPC   C4A41934  26.801  32.241   7.437
 3184POPC   C1B41935  26.328  32.052   6.301
 3184POPC   C2B41936  26.489  32.014   6.750
 3184POPC   C3B41937  26.577  31.851   7.215
 3184POPC   C4B41938  26.566  31.898   7.732
 3185POPC   NC341939  23.705  27.379   5.516
 3185POPC   PO441940  24.093  27.886   5.573
 3185POPC   GL141941  23.907  27.610   5.923
 3185POPC   GL241942  24.005  27.240   5.895
 3185POPC   C1A41943  23.712  27.727   6.320
 3185POPC   D2A41944  23.845  28.025   6.634
 3185POPC   C3A41945  24.005  27.831   6.997
 3185POPC   C4A41946  23.736  27.882   7.354
 3185POPC   C1B41947  23.791  27.192   6.294
 3185POPC   C2B41948  23.880  27.371   6.713
 3185POPC   C3B41949  23.611  27.491   7.051
 3185POPC   C4B41950  23.465  27.443   7.493
 3186POPC   NC341951   3.756  43.386   5.654
 3186POPC   PO441952   4.242  43.133   5.216
 3186POPC   GL141953   4.305  43.117   5.735
 3186POPC   GL241954   4.059  43.112   5.973
 3186POPC   C1A41955   4.453  43.281   6.202
 3186POPC   D2A41956   4.395  43.063   6.576
 3186POPC   C3A41957   4.207  43.239   6.923
 3186POPC   C4A41958   4.222  43.336   7.341
 3186POPC   C1B41959   3.899  42.784   6.263
 3186POPC   C2B41960   4.123  42.613   6.583
 3186POPC   C3B41961   4.275  42.714   6.950
 3186POPC   C4B41962   3.982  42.832   7.266
 3187POPC   NC341963  11.100  20.378   5.536
 3187POPC   PO441964  11.523  20.901   5.556
 3187POPC   GL141965  11.436  20.661   5.960
 3187POPC   GL241966  11.172  20.412   6.024
 3187POPC   C1A41967  11.558  20.390   6.336
 3187POPC   D2A41968  11.404  20.315   6.748
 3187POPC   C3A41969  11.311  20.705   6.920
 3187POPC   C4A41970  11.562  20.887   7.187
 3187POPC   C1B41971  10.837  20.184   6.212
 3187POPC   C2B41972  10.685  20.131   6.623
 3187POPC   C3B41973  10.883  20.418   6.884
 3187POPC   C4B41974  11.164  20.343   7.238
 3188POPC   NC341975  42.523  24.846   5.123
 3188POPC   PO441976  42.139  24.269   5.194
 3188POPC   GL141977  42.229  24.491   5.635
 3188POPC   GL241978  42.512  24.749   5.694
 3188POPC   C1A41979  42.297  24.431   6.125
 3188POPC   D2A41980  42.140  24.563   6.583
 3188POPC   C3A41981  42.302  24.371   6.957
 3188POPC   C4A41982  42.361  24.413   7.422
 3188POPC   C1B41983  42.645  24.800   6.175
 3188POPC   C2B41984  42.667  24.592   6.601
 3188POPC   C3B41985  42.670  24.743   7.053
 3188POPC   C4B41986  42.720  24.759   7.555
 3189POPC   NC341987   5.585  41.597   5.450
 3189POPC   PO441988   6.246  41.507   5.465
 3189POPC   GL141989   6.132  41.378   5.849
 3189POPC   GL241990   5.898  41.646   5.856
 3189POPC   C1A41991   6.119  41.474   6.294
 3189POPC   D2A41992   6.006  41.687   6.630
 3189POPC   C3A41993   6.105  41.471   7.002
 3189POPC   C4A41994   5.756  41.375   7.238
 3189POPC   C1B41995   5.835  41.920   6.192
 3189POPC   C2B41996   5.615  42.056   6.554
 3189POPC   C3B41997   5.712  41.898   6.981
 3189POPC   C4B41998   5.963  41.841   7.370
 3190POPC   NC341999  12.411  16.127   5.032
 3190POPC   PO442000  12.891  15.708   5.000
 3190POPC   GL142001  12.674  15.825   5.546
 3190POPC   GL242002  12.936  16.099   5.773
 3190POPC   C1A42003  12.616  15.857   6.064
 3190POPC   D2A42004  12.697  16.101   6.490
 3190POPC   C3A42005  12.656  15.850   6.856
 3190POPC   C4A42006  12.618  15.718   7.277
 3190POPC   C1B42007  13.121  16.045   6.211
 3190POPC   C2B42008  13.059  15.730   6.542
 3190POPC   C3B42009  13.081  15.580   7.009
 3190POPC   C4B42010  13.121  15.761   7.435
 3191POPC   NC342011  44.910   1.500   5.468
 3191POPC   PO442012  44.668   0.864   5.341
 3191POPC   GL142013  44.424   0.956   5.710
 3191POPC   GL242014  44.304   1.320   5.699
 3191POPC   C1A42015  44.589   1.037   6.125
 3191POPC   D2A42016  44.445   1.072   6.561
 3191POPC   C3A42017  44.664   0.835   6.876
 3191POPC   C4A42018   0.024   1.004   7.118
 3191POPC   C1B42019  44.432   1.571   6.070
 3191POPC   C2B42020  44.400   1.685   6.522
 3191POPC   C3B42021  44.482   1.447   6.917
 3191POPC   C4B42022  44.736   1.377   7.294
 3192POPC   NC342023  22.527  41.349   5.540
 3192POPC   PO442024  23.153  41.572   5.447
 3192POPC   GL142025  23.028  41.724   5.838
 3192POPC   GL242026  22.665  41.749   5.863
 3192POPC   C1A42027  22.960  41.550   6.249
 3192POPC   D2A42028  23.128  41.362   6.604
 3192POPC   C3A42029  22.953  41.500   6.971
 3192POPC   C4A42030  23.130  41.296   7.310
 3192POPC   C1B42031  22.603  41.908   6.310
 3192POPC   C2B42032  22.643  41.898   6.769
 3192POPC   C3B42033  22.465  41.785   7.180
 3192POPC   C4B42034  22.516  41.924   7.640
 3193POPC   NC342035   6.804  31.528   5.669
 3193POPC   PO442036   6.315  31.171   5.751
 3193POPC   GL142037   6.444  31.431   6.051
 3193POPC   GL242038   6.351  31.729   5.883
 3193POPC   C1A42039   6.819  31.435   6.319
 3193POPC   D2A42040   6.985  31.474   6.700
 3193POPC   C3A42041   6.639  31.430   6.969
 3193POPC   C4A42042   6.678  31.166   7.333
 3193POPC   C1B42043   6.581  31.899   6.228
 3193POPC   C2B42044   6.472  31.804   6.644
 3193POPC   C3B42045   6.600  31.966   7.033
 3193POPC   C4B42046   6.746  31.696   7.379
 3194POPC   NC342047  10.129  24.417   5.441
 3194POPC   PO442048  10.759  24.114   5.476
 3194POPC   GL142049  10.509  24.349   5.797
 3194POPC   GL242050  10.698  24.152   5.998
 3194POPC   C1A42051  10.342  24.543   6.211
 3194POPC   D2A42052  10.464  24.743   6.614
 3194POPC   C3A42053  10.422  24.615   7.070
 3194POPC   C4A42054  10.085  24.603   7.368
 3194POPC   C1B42055  10.827  24.098   6.408
 3194POPC   C2B42056  10.783  24.365   6.761
 3194POPC   C3B42057  10.879  24.405   7.211
 3194POPC   C4B42058  10.551  24.347   7.524
 3195POPC   NC342059  37.505   5.692   5.493
 3195POPC   PO442060  37.720   6.318   5.376
 3195POPC   GL142061  37.730   6.052   5.762
 3195POPC   GL242062  37.373   6.108   5.800
 3195POPC   C1A42063  37.629   5.775   6.148
 3195POPC   D2A42064  37.834   5.696   6.550
 3195POPC   C3A42065  37.657   5.427   6.849
 3195POPC   C4A42066  37.679   5.493   7.245
 3195POPC   C1B42067  37.543   6.278   6.190
 3195POPC   C2B42068  37.620   6.157   6.604
 3195POPC   C3B42069  37.551   5.928   6.961
 3195POPC   C4B42070  37.459   5.925   7.400
 3196POPC   NC342071  25.945  20.468   5.362
 3196POPC   PO442072  26.022  21.135   5.494
 3196POPC   GL142073  25.978  20.744   5.788
 3196POPC   GL242074  25.954  20.362   5.855
 3196POPC   C1A42075  26.161  20.690   6.206
 3196POPC   D2A42076  26.140  20.708   6.645
 3196POPC   C3A42077  26.325  20.365   6.847
 3196POPC   C4A42078  26.204  20.306   7.223
 3196POPC   C1B42079  25.771  20.383   6.312
 3196POPC   C2B42080  25.812  20.313   6.769
 3196POPC   C3B42081  25.776  20.570   7.131
 3196POPC   C4B42082  25.612  20.589   7.575
 3197POPC   NC342083   0.584  43.110   5.568
 3197POPC   PO442084  44.919  43.048   5.311
 3197POPC   GL142085   0.093  42.962   5.801
 3197POPC   GL242086   0.416  43.007   6.020
 3197POPC   C1A42087   0.035  43.197   6.253
 3197POPC   D2A42088   0.334  43.170   6.618
 3197POPC   C3A42089   0.246  43.028   7.031
 3197POPC   C4A42090   0.267  43.290   7.368
 3197POPC   C1B42091   0.569  43.387   6.225
 3197POPC   C2B42092   0.706  43.519   6.649
 3197POPC   C3B42093   0.675  43.340   7.065
 3197POPC   C4B42094   0.759  43.344   7.532
 3198POPC   NC342095  16.210  41.919   5.449
 3198POPC   PO442096  15.682  42.330   5.514
 3198POPC   GL142097  15.919  42.491   5.870
 3198POPC   GL242098  16.187  42.226   5.872
 3198POPC   C1A42099  15.954  42.529   6.340
 3198POPC   D2A42100  15.909  42.287   6.746
 3198POPC   C3A42101  16.028  42.517   7.119
 3198POPC   C4A42102  15.744  42.578   7.480
 3198POPC   C1B42103  16.179  42.078   6.300
 3198POPC   C2B42104  16.409  42.146   6.712
 3198POPC   C3B42105  16.211  41.987   7.098
 3198POPC   C4B42106  15.854  42.096   7.328
 3199POPC   NC342107  25.534  41.253   5.517
 3199POPC   PO442108  26.195  41.384   5.369
 3199POPC   GL142109  26.044  41.437   5.806
 3199POPC   GL242110  26.146  41.794   5.905
 3199POPC   C1A42111  25.782  41.228   6.156
 3199POPC   D2A42112  25.758  41.065   6.587
 3199POPC   C3A42113  26.032  41.292   6.823
 3199POPC   C4A42114  25.991  41.596   7.135
 3199POPC   C1B42115  26.135  41.577   6.307
 3199POPC   C2B42116  25.911  41.764   6.638
 3199POPC   C3B42117  26.139  42.026   6.876
 3199POPC   C4B42118  26.416  41.927   7.197
 3200POPC   NC342119  16.181  26.083   5.313
 3200POPC   PO442120  15.695  25.492   5.204
 3200POPC   GL142121  15.834  25.649   5.677
 3200POPC   GL242122  15.778  26.028   5.779
 3200POPC   C1A42123  16.087  25.761   6.114
 3200POPC   D2A42124  16.071  26.145   6.402
 3200POPC   C3A42125  16.190  26.120   6.853
 3200POPC   C4A42126  16.273  26.445   7.149
 3200POPC   C1B42127  15.630  25.905   6.246
 3200POPC   C2B42128  15.806  25.801   6.678
 3200POPC   C3B42129  15.751  25.927   7.122
 3200POPC   C4B42130  15.763  25.705   7.533
 3201POPC   NC342131   6.288   7.459   5.505
 3201POPC   PO442132   6.932   7.245   5.378
 3201POPC   GL142133   6.750   7.351   5.760
 3201POPC   GL242134   6.706   7.704   5.769
 3201POPC   C1A42135   6.807   7.370   6.196
 3201POPC   D2A42136   6.622   7.452   6.571
 3201POPC   C3A42137   6.722   7.218   6.913
 3201POPC   C4A42138   6.569   7.392   7.266
 3201POPC   C1B42139   6.525   7.814   6.182
 3201POPC   C2B42140   6.677   7.966   6.582
 3201POPC   C3B42141   6.409   7.792   6.915
 3201POPC   C4B42142   6.177   7.731   7.271
 3202POPC   NC342143  13.975  18.105   5.212
 3202POPC   PO442144  13.400  18.075   5.702
 3202POPC   GL142145  13.500  18.313   6.006
 3202POPC   GL242146  13.275  18.084   6.194
 3202POPC   C1A42147  13.704  18.399   6.393
 3202POPC   D2A42148  13.935  18.270   6.764
 3202POPC   C3A42149  13.833  18.449   7.170
 3202POPC   C4A42150  13.972  18.433   7.618
 3202POPC   C1B42151  13.661  17.884   6.291
 3202POPC   C2B42152  13.597  17.878   6.670
 3202POPC   C3B42153  13.532  18.067   7.024
 3202POPC   C4B42154  13.694  17.996   7.390
 3203POPC   NC342155  12.479  21.444   5.232
 3203POPC   PO442156  11.871  21.463   5.428
 3203POPC   GL142157  11.883  21.374   5.869
 3203POPC   GL242158  12.255  21.345   5.853
 3203POPC   C1A42159  11.968  21.335   6.301
 3203POPC   D2A42160  12.176  21.298   6.683
 3203POPC   C3A42161  11.949  21.177   7.027
 3203POPC   C4A42162  11.800  21.230   7.463
 3203POPC   C1B42163  12.344  21.009   6.167
 3203POPC   C2B42164  12.335  20.817   6.603
 3203POPC   C3B42165  12.494  21.001   7.009
 3203POPC   C4B42166  12.354  21.335   7.289
 3204POPC   NC342167   8.800  34.773   5.248
 3204POPC   PO442168   8.538  34.323   5.548
 3204POPC   GL142169   8.755  34.659   5.793
 3204POPC   GL242170   9.106  34.718   5.680
 3204POPC   C1A42171   8.838  34.764   6.243
 3204POPC   D2A42172   8.881  34.840   6.700
 3204POPC   C3A42173   8.794  34.677   7.100
 3204POPC   C4A42174   9.062  34.803   7.388
 3204POPC   C1B42175   9.222  34.478   6.058
 3204POPC   C2B42176   9.112  34.345   6.475
 3204POPC   C3B42177   9.164  34.399   6.891
 3204POPC   C4B42178   9.109  34.264   7.290
 3205POPC   NC342179  14.563  10.887   5.188
 3205POPC   PO442180  14.034  11.350   5.271
 3205POPC   GL142181  14.177  11.144   5.673
 3205POPC   GL242182  14.350  11.417   5.835
 3205POPC   C1A42183  14.164  11.087   6.164
 3205POPC   D2A42184  14.250  11.314   6.562
 3205POPC   C3A42185  14.328  11.175   6.994
 3205POPC   C4A42186  14.280  11.401   7.369
 3205POPC   C1B42187  14.609  11.442   6.190
 3205POPC   C2B42188  14.742  11.572   6.594
 3205POPC   C3B42189  14.648  11.645   7.006
 3205POPC   C4B42190  14.793  11.375   7.325
 3206POPC   NC342191   6.947  14.728   5.514
 3206POPC   PO442192   6.839  15.418   5.580
 3206POPC   GL142193   6.676  15.219   5.910
 3206POPC   GL242194   6.423  14.999   5.819
 3206POPC   C1A42195   6.647  15.237   6.344
 3206POPC   D2A42196   6.716  14.997   6.707
 3206POPC   C3A42197   6.611  15.233   7.022
 3206POPC   C4A42198   6.719  15.565   7.223
 3206POPC   C1B42199   6.335  14.837   6.259
 3206POPC   C2B42200   6.379  14.621   6.670
 3206POPC   C3B42201   6.500  14.734   7.144
 3206POPC   C4B42202   6.753  14.689   7.587
 3207POPC   NC342203  42.087  39.076   5.394
 3207POPC   PO442204  42.409  39.666   5.379
 3207POPC   GL142205  42.558  39.297   5.638
 3207POPC   GL242206  42.260  39.316   5.832
 3207POPC   C1A42207  42.672  39.164   6.085
 3207POPC   D2A42208  42.432  39.283   6.452
 3207POPC   C3A42209  42.630  39.250   6.845
 3207POPC   C4A42210  42.477  39.242   7.239
 3207POPC   C1B42211  41.967  39.347   6.159
 3207POPC   C2B42212  41.902  39.168   6.538
 3207POPC   C3B42213  42.097  39.231   6.900
 3207POPC   C4B42214  41.976  39.424   7.248
 3208POPC   NC342215  28.597  42.968   5.459
 3208POPC   PO442216  28.031  43.340   5.380
 3208POPC   GL142217  28.217  43.360   5.769
 3208POPC   GL242218  28.526  43.477   5.756
 3208POPC   C1A42219  28.162  43.097   6.110
 3208POPC   D2A42220  28.369  42.929   6.460
 3208POPC   C3A42221  28.193  43.006   6.860
 3208POPC   C4A42222  28.351  42.933   7.266
 3208POPC   C1B42223  28.580  43.374   6.194
 3208POPC   C2B42224  28.714  43.283   6.641
 3208POPC   C3B42225  28.563  43.365   7.073
 3208POPC   C4B42226  28.609  43.311   7.534
 3209POPC   NC342227  32.236  29.109   5.347
 3209POPC   PO442228  32.207  29.708   5.543
 3209POPC   GL142229  32.223  29.331   5.854
 3209POPC   GL242230  32.315  28.948   5.818
 3209POPC   C1A42231  32.107  29.188   6.289
 3209POPC   D2A42232  31.989  29.391   6.694
 3209POPC   C3A42233  32.097  29.234   7.118
 3209POPC   C4A42234  32.122  29.367   7.582
 3209POPC   C1B42235  32.344  28.733   6.204
 3209POPC   C2B42236  32.526  28.752   6.605
 3209POPC   C3B42237  32.446  28.846   7.033
 3209POPC   C4B42238  32.533  29.125   7.362
 3210POPC   NC342239  25.168   2.973   5.406
 3210POPC   PO442240  25.506   2.462   5.661
 3210POPC   GL142241  25.434   2.851   5.860
 3210POPC   GL242242  25.072   2.823   5.898
 3210POPC   C1A42243  25.364   2.908   6.310
 3210POPC   D2A42244  25.335   2.586   6.601
 3210POPC   C3A42245  25.403   2.752   6.988
 3210POPC   C4A42246  25.515   2.675   7.403
 3210POPC   C1B42247  24.853   2.906   6.307
 3210POPC   C2B42248  24.888   2.811   6.746
 3210POPC   C3B42249  24.945   2.766   7.188
 3210POPC   C4B42250  25.072   2.838   7.607
 3211POPC   NC342251  44.471  37.184   5.539
 3211POPC   PO442252  44.625  37.903   5.419
 3211POPC   GL142253  44.685  37.675   5.790
 3211POPC   GL242254   0.020  37.493   5.724
 3211POPC   C1A42255  44.456  37.680   6.214
 3211POPC   D2A42256  44.404  37.922   6.639
 3211POPC   C3A42257  44.464  37.703   7.065
 3211POPC   C4A42258  44.720  37.525   7.471
 3211POPC   C1B42259   0.036  37.634   6.163
 3211POPC   C2B42260  44.832  37.645   6.560
 3211POPC   C3B42261  44.978  37.719   6.933
 3211POPC   C4B42262   0.091  37.829   7.325
 3212POPC   NC342263   8.378  30.386   5.476
 3212POPC   PO442264   8.073  30.996   5.428
 3212POPC   GL142265   8.180  30.822   5.818
 3212POPC   GL242266   8.071  30.507   5.866
 3212POPC   C1A42267   8.288  30.951   6.245
 3212POPC   D2A42268   8.531  30.896   6.618
 3212POPC   C3A42269   8.267  30.938   6.937
 3212POPC   C4A42270   8.319  30.808   7.318
 3212POPC   C1B42271   8.325  30.453   6.196
 3212POPC   C2B42272   8.198  30.525   6.601
 3212POPC   C3B42273   8.268  30.387   7.017
 3212POPC   C4B42274   7.920  30.439   7.282
 3213POPC   NC342275  40.998  41.205   5.357
 3213POPC   PO442276  41.085  41.855   5.304
 3213POPC   GL142277  40.761  41.576   5.646
 3213POPC   GL242278  40.855  41.233   5.827
 3213POPC   C1A42279  40.649  41.608   6.126
 3213POPC   D2A42280  40.483  41.724   6.580
 3213POPC   C3A42281  40.629  41.585   6.992
 3213POPC   C4A42282  40.703  41.831   7.347
 3213POPC   C1B42283  40.699  41.097   6.216
 3213POPC   C2B42284  40.795  41.299   6.599
 3213POPC   C3B42285  40.946  41.131   6.999
 3213POPC   C4B42286  40.776  41.123   7.408
 3214POPC   NC342287  26.010  19.723   5.375
 3214POPC   PO442288  26.408  20.355   5.359
 3214POPC   GL142289  26.397  20.097   5.782
 3214POPC   GL242290  26.136  19.795   5.879
 3214POPC   C1A42291  26.225  20.167   6.225
 3214POPC   D2A42292  26.091  19.817   6.476
 3214POPC   C3A42293  26.094  19.881   6.905
 3214POPC   C4A42294  26.017  19.846   7.322
 3214POPC   C1B42295  25.863  19.451   6.164
 3214POPC   C2B42296  25.745  19.415   6.615
 3214POPC   C3B42297  25.819  19.419   7.081
 3214POPC   C4B42298  25.564  19.626   7.407
 3215POPC   NC342299  34.063  13.211   5.479
 3215POPC   PO442300  34.697  13.619   5.309
 3215POPC   GL142301  34.670  13.566   5.782
 3215POPC   GL242302  34.307  13.539   5.812
 3215POPC   C1A42303  34.565  13.628   6.264
 3215POPC   D2A42304  34.595  13.755   6.712
 3215POPC   C3A42305  34.563  13.433   7.049
 3215POPC   C4A42306  34.590  13.377   7.485
 3215POPC   C1B42307  34.093  13.811   6.132
 3215POPC   C2B42308  34.177  13.984   6.527
 3215POPC   C3B42309  34.054  13.868   6.949
 3215POPC   C4B42310  34.251  13.736   7.321
 3216POPC   NC342311  21.416  21.560   5.075
 3216POPC   PO442312  21.564  21.140   5.528
 3216POPC   GL142313  21.527  21.358   5.900
 3216POPC   GL242314  21.530  21.727   5.933
 3216POPC   C1A42315  21.503  21.321   6.311
 3216POPC   D2A42316  21.233  21.310   6.623
 3216POPC   C3A42317  21.483  21.272   6.923
 3216POPC   C4A42318  21.347  21.390   7.291
 3216POPC   C1B42319  21.281  21.789   6.297
 3216POPC   C2B42320  21.524  21.752   6.666
 3216POPC   C3B42321  21.526  21.808   7.089
 3216POPC   C4B42322  21.105  21.936   7.244
 3217POPC   NC342323  24.264  33.447   5.488
 3217POPC   PO442324  24.710  34.022   5.533
 3217POPC   GL142325  24.451  33.882   5.872
 3217POPC   GL242326  24.636  33.576   5.849
 3217POPC   C1A42327  24.339  34.011   6.323
 3217POPC   D2A42328  24.569  34.160   6.713
 3217POPC   C3A42329  24.417  34.016   7.131
 3217POPC   C4A42330  24.397  33.565   7.215
 3217POPC   C1B42331  24.501  33.505   6.265
 3217POPC   C2B42332  24.462  33.625   6.687
 3217POPC   C3B42333  24.083  33.732   6.881
 3217POPC   C4B42334  23.881  33.541   7.254
 3218POPC   NC342335   6.106  35.341   5.396
 3218POPC   PO442336   5.391  35.310   5.452
 3218POPC   GL142337   5.601  35.208   5.841
 3218POPC   GL242338   5.922  35.053   5.793
 3218POPC   C1A42339   5.919  35.408   6.164
 3218POPC   D2A42340   6.117  35.306   6.571
 3218POPC   C3A42341   5.950  35.544   6.936
 3218POPC   C4A42342   6.187  35.697   7.281
 3218POPC   C1B42343   5.792  34.909   6.210
 3218POPC   C2B42344   5.661  35.005   6.594
 3218POPC   C3B42345   5.797  34.959   6.987
 3218POPC   C4B42346   5.617  35.271   7.254
 3219POPC   NC342347  28.734  23.843   5.240
 3219POPC   PO442348  29.123  23.461   5.625
 3219POPC   GL142349  29.141  23.830   5.857
 3219POPC   GL242350  28.827  23.982   5.800
 3219POPC   C1A42351  29.272  23.774   6.297
 3219POPC   D2A42352  29.156  23.834   6.731
 3219POPC   C3A42353  29.414  23.591   7.045
 3219POPC   C4A42354  29.451  23.651   7.514
 3219POPC   C1B42355  28.790  23.655   6.167
 3219POPC   C2B42356  28.774  23.403   6.551
 3219POPC   C3B42357  28.865  23.492   6.979
 3219POPC   C4B42358  28.998  23.814   7.243
 3220POPC   NC342359  43.329  17.759   5.651
 3220POPC   PO442360  43.030  17.247   5.322
 3220POPC   GL142361  43.017  17.359   5.807
 3220POPC   GL242362  42.874  17.693   5.900
 3220POPC   C1A42363  42.913  17.381   6.290
 3220POPC   D2A42364  43.156  17.490   6.659
 3220POPC   C3A42365  43.074  17.330   7.052
 3220POPC   C4A42366  42.688  17.437   7.265
 3220POPC   C1B42367  43.171  17.819   6.272
 3220POPC   C2B42368  43.454  17.910   6.630
 3220POPC   C3B42369  43.369  17.979   7.069
 3220POPC   C4B42370  43.106  17.751   7.338
 3221POPC   NC342371  18.527  44.794   5.079
 3221POPC   PO442372  18.162  44.440   5.601
 3221POPC   GL142373  18.425  44.566   5.904
 3221POPC   GL242374  18.554  44.836   5.636
 3221POPC   C1A42375  18.397  44.255   6.293
 3221POPC   D2A42376  18.144  44.189   6.662
 3221POPC   C3A42377  18.286  44.371   7.029
 3221POPC   C4A42378  18.445  44.347   7.437
 3221POPC   C1B42379  18.584   0.013   6.087
 3221POPC   C2B42380  18.423  44.839   6.485
 3221POPC   C3B42381  18.414  44.900   6.960
 3221POPC   C4B42382  18.211  44.776   7.340
 3222POPC   NC342383  38.497  10.124   5.448
 3222POPC   PO442384  38.428   9.466   5.373
 3222POPC   GL142385  38.477   9.670   5.778
 3222POPC   GL242386  38.276   9.416   5.907
 3222POPC   C1A42387  38.562   9.673   6.262
 3222POPC   D2A42388  38.367   9.761   6.690
 3222POPC   C3A42389  38.377   9.990   7.098
 3222POPC   C4A42390  38.382   9.784   7.493
 3222POPC   C1B42391  38.488   9.164   6.248
 3222POPC   C2B42392  38.590   9.264   6.695
 3222POPC   C3B42393  38.576   9.443   7.137
 3222POPC   C4B42394  38.555   9.255   7.585
 3223POPC   NC342395  24.497  30.299   5.500
 3223POPC   PO442396  24.533  30.957   5.448
 3223POPC   GL142397  24.451  30.702   5.825
 3223POPC   GL242398  24.671  30.403   5.956
 3223POPC   C1A42399  24.433  30.742   6.249
 3223POPC   D2A42400  24.634  30.595   6.615
 3223POPC   C3A42401  24.402  30.748   6.976
 3223POPC   C4A42402  24.685  30.848   7.322
 3223POPC   C1B42403  24.263  30.271   6.160
 3223POPC   C2B42404  24.151  30.424   6.555
 3223POPC   C3B42405  24.304  30.230   6.940
 3223POPC   C4B42406  24.313  30.413   7.357
 3224POPC   NC342407  38.925  33.199   5.506
 3224POPC   PO442408  38.271  32.861   5.396
 3224POPC   GL142409  38.154  32.993   5.799
 3224POPC   GL242410  38.454  32.850   5.927
 3224POPC   C1A42411  38.202  33.213   6.176
 3224POPC   D2A42412  38.451  33.096   6.472
 3224POPC   C3A42413  38.398  33.179   6.868
 3224POPC   C4A42414  38.509  33.198   7.285
 3224POPC   C1B42415  38.261  32.645   6.277
 3224POPC   C2B42416  38.153  32.744   6.691
 3224POPC   C3B42417  38.304  32.721   7.092
 3224POPC   C4B42418  38.264  32.369   7.366
 3225POPC   NC342419  28.863  36.938   5.544
 3225POPC   PO442420  29.297  36.511   5.376
 3225POPC   GL142421  29.258  36.698   5.805
 3225POPC   GL242422  29.270  37.091   5.835
 3225POPC   C1A42423  29.030  36.809   6.200
 3225POPC   D2A42424  28.959  36.627   6.595
 3225POPC   C3A42425  29.013  36.824   6.983
 3225POPC   C4A42426  29.331  36.728   7.261
 3225POPC   C1B42427  29.355  37.216   6.278
 3225POPC   C2B42428  29.388  37.088   6.734
 3225POPC   C3B42429  29.560  37.165   7.159
 3225POPC   C4B42430  29.414  37.086   7.618
 3226POPC   NC342431  25.140  13.011   5.308
 3226POPC   PO442432  25.478  12.519   5.529
 3226POPC   GL142433  25.283  12.837   5.772
 3226POPC   GL242434  24.939  12.786   5.757
 3226POPC   C1A42435  25.371  12.989   6.182
 3226POPC   D2A42436  25.631  13.128   6.502
 3226POPC   C3A42437  25.547  12.895   6.858
 3226POPC   C4A42438  25.369  12.763   7.213
 3226POPC   C1B42439  24.862  12.927   6.164
 3226POPC   C2B42440  24.738  12.794   6.566
 3226POPC   C3B42441  24.921  12.746   6.984
 3226POPC   C4B42442  24.961  12.918   7.465
 3227POPC   NC342443  37.764  30.141   5.359
 3227POPC   PO442444  37.463  29.499   5.418
 3227POPC   GL142445  37.567  29.784   5.772
 3227POPC   GL242446  37.937  29.852   5.799
 3227POPC   C1A42447  37.606  29.852   6.229
 3227POPC   D2A42448  37.616  29.969   6.681
 3227POPC   C3A42449  37.296  30.039   6.974
 3227POPC   C4A42450  37.390  29.770   7.298
 3227POPC   C1B42451  38.078  30.016   6.223
 3227POPC   C2B42452  38.116  30.030   6.685
 3227POPC   C3B42453  37.953  29.919   7.121
 3227POPC   C4B42454  38.041  30.081   7.554
 3228POPC   NC342455  25.569  21.905   5.329
 3228POPC   PO442456  25.110  22.390   5.470
 3228POPC   GL142457  25.359  22.157   5.767
 3228POPC   GL242458  25.365  22.472   5.911
 3228POPC   C1A42459  25.420  22.089   6.239
 3228POPC   D2A42460  25.267  21.825   6.619
 3228POPC   C3A42461  25.443  21.952   7.020
 3228POPC   C4A42462  25.275  22.011   7.425
 3228POPC   C1B42463  25.016  22.430   6.192
 3228POPC   C2B42464  25.149  22.352   6.615
 3228POPC   C3B42465  24.974  22.203   6.995
 3228POPC   C4B42466  24.686  22.465   7.245
 3229POPC   NC342467  23.881   6.394   5.474
 3229POPC   PO442468  23.395   6.850   5.338
 3229POPC   GL142469  23.527   6.728   5.757
 3229POPC   GL242470  23.425   6.406   5.872
 3229POPC   C1A42471  23.668   6.775   6.191
 3229POPC   D2A42472  23.813   6.901   6.605
 3229POPC   C3A42473  23.568   6.700   6.926
 3229POPC   C4A42474  23.551   6.674   7.353
 3229POPC   C1B42475  23.658   6.252   6.200
 3229POPC   C2B42476  23.790   6.376   6.585
 3229POPC   C3B42477  23.772   6.192   6.954
 3229POPC   C4B42478  23.820   6.258   7.339
 3230POPC   NC342479  38.055  36.332   5.601
 3230POPC   PO442480  37.531  36.229   5.175
 3230POPC   GL142481  37.542  36.336   5.702
 3230POPC   GL242482  37.796  36.456   5.999
 3230POPC   C1A42483  37.526  36.060   6.129
 3230POPC   D2A42484  37.587  35.963   6.576
 3230POPC   C3A42485  37.522  36.243   6.897
 3230POPC   C4A42486  37.624  36.099   7.304
 3230POPC   C1B42487  37.600  36.493   6.405
 3230POPC   C2B42488  37.720  36.714   6.759
 3230POPC   C3B42489  37.857  36.576   7.140
 3230POPC   C4B42490  37.460  36.593   7.322
 3231POPC   NC342491  40.828  37.826   5.254
 3231POPC   PO442492  40.755  37.209   5.555
 3231POPC   GL142493  40.889  37.623   5.741
 3231POPC   GL242494  40.793  37.981   5.732
 3231POPC   C1A42495  41.004  37.739   6.175
 3231POPC   D2A42496  41.022  37.486   6.563
 3231POPC   C3A42497  40.939  37.584   6.988
 3231POPC   C4A42498  41.069  37.743   7.379
 3231POPC   C1B42499  40.528  37.839   6.037
 3231POPC   C2B42500  40.538  37.693   6.433
 3231POPC   C3B42501  40.491  37.764   6.838
 3231POPC   C4B42502  40.473  37.507   7.203
 3232POPC   NC342503  10.362  35.163   5.364
 3232POPC   PO442504  10.616  35.785   5.492
 3232POPC   GL142505  10.378  35.515   5.766
 3232POPC   GL242506  10.591  35.225   5.831
 3232POPC   C1A42507  10.254  35.337   6.190
 3232POPC   D2A42508  10.213  35.157   6.627
 3232POPC   C3A42509  10.365  35.328   7.041
 3232POPC   C4A42510  10.659  35.278   7.413
 3232POPC   C1B42511  10.698  35.569   6.181
 3232POPC   C2B42512  10.670  35.729   6.642
 3232POPC   C3B42513  10.788  35.662   7.110
 3232POPC   C4B42514  10.970  35.695   7.565
 3233POPC   NC342515  25.976  41.788   5.416
 3233POPC   PO442516  25.994  42.520   5.394
 3233POPC   GL142517  26.075  42.381   5.846
 3233POPC   GL242518  25.753  42.530   5.901
 3233POPC   C1A42519  25.942  42.215   6.305
 3233POPC   D2A42520  25.727  42.315   6.738
 3233POPC   C3A42521  25.708  42.006   7.129
 3233POPC   C4A42522  25.981  41.940   7.521
 3233POPC   C1B42523  25.889  42.740   6.260
 3233POPC   C2B42524  26.191  42.611   6.562
 3233POPC   C3B42525  26.402  42.447   6.917
 3233POPC   C4B42526  26.167  42.361   7.294
 3234POPC   NC342527  22.534   4.920   5.446
 3234POPC   PO442528  22.045   5.439   5.299
 3234POPC   GL142529  22.181   5.254   5.660
 3234POPC   GL242530  22.037   4.923   5.706
 3234POPC   C1A42531  22.049   5.292   6.087
 3234POPC   D2A42532  22.146   5.148   6.493
 3234POPC   C3A42533  21.995   5.374   6.850
 3234POPC   C4A42534  22.193   5.311   7.248
 3234POPC   C1B42535  22.067   4.758   6.122
 3234POPC   C2B42536  22.084   4.644   6.565
 3234POPC   C3B42537  22.189   4.875   6.935
 3234POPC   C4B42538  22.189   4.813   7.353
 3235POPC   NC342539  27.517  10.388   5.464
 3235POPC   PO442540  28.085  10.803   5.387
 3235POPC   GL142541  27.785  10.788   5.773
 3235POPC   GL242542  27.404  10.698   5.844
 3235POPC   C1A42543  27.685  10.905   6.219
 3235POPC   D2A42544  27.577  10.697   6.615
 3235POPC   C3A42545  27.755  10.722   7.011
 3235POPC   C4A42546  27.964  10.358   7.085
 3235POPC   C1B42547  27.562  10.413   6.165
 3235POPC   C2B42548  27.452  10.202   6.534
 3235POPC   C3B42549  27.425  10.283   6.965
 3235POPC   C4B42550  27.558  10.263   7.401
 3236POPC   NC342551  22.070  42.473   5.414
 3236POPC   PO442552  22.443  41.890   5.403
 3236POPC   GL142553  22.317  42.146   5.751
 3236POPC   GL242554  21.964  42.146   5.803
 3236POPC   C1A42555  22.283  42.280   6.187
 3236POPC   D2A42556  22.141  42.150   6.602
 3236POPC   C3A42557  22.348  42.374   6.927
 3236POPC   C4A42558  22.708  42.266   7.155
 3236POPC   C1B42559  21.797  42.411   6.166
 3236POPC   C2B42560  21.883  42.587   6.582
 3236POPC   C3B42561  21.820  42.423   6.996
 3236POPC   C4B42562  22.050  42.660   7.261
 3237POPC   NC342563  39.455  36.869   5.442
 3237POPC   PO442564  38.809  37.181   5.411
 3237POPC   GL142565  39.080  37.150   5.829
 3237POPC   GL242566  39.455  37.152   5.864
 3237POPC   C1A42567  39.216  36.878   6.214
 3237POPC   D2A42568  39.041  36.633   6.597
 3237POPC   C3A42569  39.168  36.763   7.040
 3237POPC   C4A42570  39.202  36.716   7.495
 3237POPC   C1B42571  39.785  37.322   6.134
 3237POPC   C2B42572  39.825  37.249   6.554
 3237POPC   C3B42573  39.598  37.284   6.920
 3237POPC   C4B42574  39.521  37.076   7.290
 3238POPC   NC342575  24.005   5.678   5.522
 3238POPC   PO442576  23.512   6.110   5.478
 3238POPC   GL142577  23.646   5.873   5.822
 3238POPC   GL242578  23.986   6.040   5.885
 3238POPC   C1A42579  23.437   5.757   6.211
 3238POPC   D2A42580  23.564   5.907   6.582
 3238POPC   C3A42581  23.673   5.676   6.930
 3238POPC   C4A42582  23.514   5.830   7.316
 3238POPC   C1B42583  23.933   5.738   6.224
 3238POPC   C2B42584  24.025   5.489   6.585
 3238POPC   C3B42585  24.222   5.571   6.929
 3238POPC   C4B42586  24.033   5.782   7.267
 3239POPC   NC342587  18.851  41.204   5.282
 3239POPC   PO442588  19.249  40.852   5.607
 3239POPC   GL142589  18.910  40.804   5.852
 3239POPC   GL242590  18.879  41.177   5.830
 3239POPC   C1A42591  18.892  40.619   6.309
 3239POPC   D2A42592  19.237  40.624   6.644
 3239POPC   C3A42593  19.275  40.458   7.091
 3239POPC   C4A42594  19.003  40.724   7.275
 3239POPC   C1B42595  18.999  41.141   6.252
 3239POPC   C2B42596  18.903  41.086   6.685
 3239POPC   C3B42597  19.139  41.158   7.060
 3239POPC   C4B42598  19.403  41.000   7.433
 3240POPC   NC342599  38.797  34.740   5.570
 3240POPC   PO442600  39.384  34.378   5.456
 3240POPC   GL142601  39.234  34.579   5.836
 3240POPC   GL242602  38.913  34.440   5.967
 3240POPC   C1A42603  39.217  34.835   6.223
 3240POPC   D2A42604  39.361  34.623   6.591
 3240POPC   C3A42605  39.626  34.741   6.926
 3240POPC   C4A42606  39.408  34.632   7.320
 3240POPC   C1B42607  38.711  34.723   6.288
 3240POPC   C2B42608  38.832  34.719   6.729
 3240POPC   C3B42609  38.897  34.575   7.161
 3240POPC   C4B42610  38.926  34.665   7.602
 3241POPC   NC342611  11.675   8.351   5.592
 3241POPC   PO442612  11.150   7.964   5.762
 3241POPC   GL142613  11.062   8.137   6.084
 3241POPC   GL242614  11.227   8.443   5.972
 3241POPC   C1A42615  11.088   8.228   6.475
 3241POPC   D2A42616  11.304   8.546   6.606
 3241POPC   C3A42617  11.411   8.397   6.991
 3241POPC   C4A42618  11.294   8.530   7.409
 3241POPC   C1B42619  11.547   8.213   6.226
 3241POPC   C2B42620  11.554   7.922   6.543
 3241POPC   C3B42621  11.739   7.957   6.937
 3241POPC   C4B42622  11.574   8.105   7.356
 3242POPC   NC342623  19.212   2.803   5.431
 3242POPC   PO442624  19.158   2.203   5.292
 3242POPC   GL142625  19.251   2.385   5.767
 3242POPC   GL242626  19.287   2.747   5.909
 3242POPC   C1A42627  18.988   2.479   6.202
 3242POPC   D2A42628  18.966   2.698   6.587
 3242POPC   C3A42629  18.831   2.449   6.872
 3242POPC   C4A42630  18.687   2.577   7.254
 3242POPC   C1B42631  19.009   3.012   6.191
 3242POPC   C2B42632  19.019   3.207   6.640
 3242POPC   C3B42633  18.890   3.061   7.049
 3242POPC   C4B42634  19.166   2.733   7.118
 3243POPC   NC342635   0.705  29.690   5.615
 3243POPC   PO442636   0.083  30.138   5.460
 3243POPC   GL142637   0.334  29.996   5.807
 3243POPC   GL242638   0.147  29.721   5.870
 3243POPC   C1A42639   0.640  30.107   6.180
 3243POPC   D2A42640   0.864  30.238   6.566
 3243POPC   C3A42641   0.684  30.142   6.972
 3243POPC   C4A42642   0.425  29.986   7.336
 3243POPC   C1B42643   0.269  29.784   6.277
 3243POPC   C2B42644   0.551  29.778   6.593
 3243POPC   C3B42645   0.548  29.650   6.985
 3243POPC   C4B42646   0.632  29.358   7.260
 3244POPC   NC342647  41.021  24.726   5.408
 3244POPC   PO442648  40.359  24.741   5.435
 3244POPC   GL142649  40.658  24.682   5.813
 3244POPC   GL242650  40.866  24.381   5.771
 3244POPC   C1A42651  40.847  24.596   6.259
 3244POPC   D2A42652  41.020  24.673   6.706
 3244POPC   C3A42653  40.756  24.735   7.108
 3244POPC   C4A42654  40.587  24.827   7.582
 3244POPC   C1B42655  41.008  24.093   6.105
 3244POPC   C2B42656  40.920  24.126   6.528
 3244POPC   C3B42657  41.034  24.204   6.941
 3244POPC   C4B42658  40.817  24.272   7.317
 3245POPC   NC342659  29.358  18.519   5.287
 3245POPC   PO442660  29.089  19.162   5.322
 3245POPC   GL142661  29.162  19.105   5.778
 3245POPC   GL242662  28.902  19.354   5.903
 3245POPC   C1A42663  29.048  19.060   6.257
 3245POPC   D2A42664  28.877  19.451   6.471
 3245POPC   C3A42665  28.811  19.371   6.938
 3245POPC   C4A42666  29.029  19.028   7.235
 3245POPC   C1B42667  29.328  19.472   6.076
 3245POPC   C2B42668  29.534  19.281   6.407
 3245POPC   C3B42669  29.221  19.177   6.728
 3245POPC   C4B42670  29.285  19.458   7.091
 3246POPC   NC342671  18.117   6.088   5.580
 3246POPC   PO442672  18.748   6.175   5.553
 3246POPC   GL142673  18.523   5.896   5.859
 3246POPC   GL242674  18.144   5.830   6.007
 3246POPC   C1A42675  18.557   5.972   6.280
 3246POPC   D2A42676  18.543   6.216   6.622
 3246POPC   C3A42677  18.440   6.041   7.023
 3246POPC   C4A42678  18.059   6.163   7.239
 3246POPC   C1B42679  17.851   6.021   6.316
 3246POPC   C2B42680  18.005   5.981   6.740
 3246POPC   C3B42681  18.074   5.677   7.068
 3246POPC   C4B42682  17.980   5.715   7.479
 3247POPC   NC342683  29.460  35.332   5.447
 3247POPC   PO442684  28.831  35.301   5.486
 3247POPC   GL142685  29.128  35.386   5.835
 3247POPC   GL242686  29.395  35.123   5.908
 3247POPC   C1A42687  29.041  35.273   6.251
 3247POPC   D2A42688  28.772  35.219   6.592
 3247POPC   C3A42689  28.940  35.381   6.930
 3247POPC   C4A42690  28.996  35.285   7.336
 3247POPC   C1B42691  29.554  35.391   6.260
 3247POPC   C2B42692  29.718  35.398   6.710
 3247POPC   C3B42693  29.455  35.381   7.115
 3247POPC   C4B42694  29.447  35.366   7.605
 3248POPC   NC342695  32.320  37.007   5.377
 3248POPC   PO442696  31.778  36.520   5.445
 3248POPC   GL142697  32.095  36.719   5.730
 3248POPC   GL242698  32.035  37.111   5.781
 3248POPC   C1A42699  32.391  36.885   6.061
 3248POPC   D2A42700  32.282  36.811   6.481
 3248POPC   C3A42701  32.428  36.823   6.867
 3248POPC   C4A42702  32.201  36.756   7.272
 3248POPC   C1B42703  32.085  37.261   6.217
 3248POPC   C2B42704  32.370  37.279   6.588
 3248POPC   C3B42705  32.138  37.216   6.974
 3248POPC   C4B42706  32.222  37.307   7.389
 3249POPC   NC342707  28.829   6.707   5.224
 3249POPC   PO442708  29.383   6.520   5.474
 3249POPC   GL142709  29.197   6.561   5.847
 3249POPC   GL242710  29.040   6.889   5.708
 3249POPC   C1A42711  29.242   6.566   6.326
 3249POPC   D2A42712  29.178   6.391   6.695
 3249POPC   C3A42713  29.095   6.627   7.020
 3249POPC   C4A42714  29.438   6.545   7.257
 3249POPC   C1B42715  29.273   7.015   6.087
 3249POPC   C2B42716  29.238   7.044   6.535
 3249POPC   C3B42717  29.295   7.122   6.968
 3249POPC   C4B42718  29.263   7.002   7.391
 3250POPC   NC342719   4.102  24.700   5.657
 3250POPC   PO442720   4.280  25.283   5.393
 3250POPC   GL142721   4.412  25.313   5.794
 3250POPC   GL242722   4.104  25.350   5.912
 3250POPC   C1A42723   4.497  25.414   6.236
 3250POPC   D2A42724   4.246  25.403   6.606
 3250POPC   C3A42725   4.467  25.348   6.966
 3250POPC   C4A42726   4.319  25.269   7.417
 3250POPC   C1B42727   4.215  25.002   6.251
 3250POPC   C2B42728   4.320  24.905   6.686
 3250POPC   C3B42729   4.082  25.029   7.041
 3250POPC   C4B42730   3.867  24.967   7.426
 3251POPC   NC342731  35.450  39.969   5.354
 3251POPC   PO442732  35.122  39.465   5.711
 3251POPC   GL142733  35.397  39.848   5.839
 3251POPC   GL242734  35.386  40.251   5.766
 3251POPC   C1A42735  35.635  40.047   6.170
 3251POPC   D2A42736  35.809  39.910   6.544
 3251POPC   C3A42737  35.579  40.050   6.918
 3251POPC   C4A42738  35.571  40.048   7.380
 3251POPC   C1B42739  35.093  40.150   6.106
 3251POPC   C2B42740  34.846  40.366   6.423
 3251POPC   C3B42741  34.948  40.380   6.849
 3251POPC   C4B42742  35.119  40.076   7.151
 3252POPC   NC342743   8.228  33.207   5.207
 3252POPC   PO442744   7.902  33.169   5.707
 3252POPC   GL142745   8.057  32.850   5.925
 3252POPC   GL242746   8.388  32.876   5.827
 3252POPC   C1A42747   8.002  32.731   6.330
 3252POPC   D2A42748   7.889  32.941   6.704
 3252POPC   C3A42749   8.177  32.792   7.029
 3252POPC   C4A42750   8.299  33.075   7.303
 3252POPC   C1B42751   8.386  33.097   6.260
 3252POPC   C2B42752   8.387  33.145   6.723
 3252POPC   C3B42753   8.696  33.230   7.045
 3252POPC   C4B42754   8.614  33.416   7.481
 3253POPC   NC342755  16.427  41.043   5.377
 3253POPC   PO442756  16.991  40.694   5.294
 3253POPC   GL142757  16.791  40.789   5.676
 3253POPC   GL242758  16.855  41.182   5.663
 3253POPC   C1A42759  16.752  40.546   6.090
 3253POPC   D2A42760  16.631  40.533   6.544
 3253POPC   C3A42761  16.844  40.592   6.940
 3253POPC   C4A42762  16.491  40.538   7.232
 3253POPC   C1B42763  16.889  41.048   6.118
 3253POPC   C2B42764  17.049  40.903   6.541
 3253POPC   C3B42765  16.929  41.106   6.951
 3253POPC   C4B42766  16.616  41.063   7.271
 3254POPC   NC342767   3.125  38.507   5.456
 3254POPC   PO442768   2.676  38.120   5.417
 3254POPC   GL142769   2.578  38.475   5.687
 3254POPC   GL242770   2.849  38.353   5.891
 3254POPC   C1A42771   2.474  38.612   6.116
 3254POPC   D2A42772   2.698  38.358   6.439
 3254POPC   C3A42773   2.831  38.537   6.834
 3254POPC   C4A42774   2.602  38.553   7.209
 3254POPC   C1B42775   3.134  38.548   6.184
 3254POPC   C2B42776   3.300  38.573   6.601
 3254POPC   C3B42777   3.279  38.727   7.054
 3254POPC   C4B42778   3.117  38.429   7.350
 3255POPC   NC342779  36.235   1.260   5.311
 3255POPC   PO442780  36.305   0.646   5.328
 3255POPC   GL142781  36.281   0.947   5.762
 3255POPC   GL242782  36.068   1.257   5.770
 3255POPC   C1A42783  36.257   1.133   6.216
 3255POPC   D2A42784  36.009   1.148   6.609
 3255POPC   C3A42785  36.262   1.227   6.994
 3255POPC   C4A42786  36.201   1.162   7.443
 3255POPC   C1B42787  35.856   1.466   6.087
 3255POPC   C2B42788  35.873   1.638   6.496
 3255POPC   C3B42789  35.891   1.583   6.930
 3255POPC   C4B42790  35.872   1.553   7.385
 3256POPC   NC342791  34.955  15.689   5.706
 3256POPC   PO442792  35.458  15.259   5.519
 3256POPC   GL142793  35.258  15.082   5.876
 3256POPC   GL242794  35.222  15.370   6.014
 3256POPC   C1A42795  35.348  14.972   6.324
 3256POPC   D2A42796  35.458  15.077   6.782
 3256POPC   C3A42797  35.186  14.885   7.119
 3256POPC   C4A42798  35.208  15.046   7.562
 3256POPC   C1B42799  35.218  15.628   6.376
 3256POPC   C2B42800  35.362  15.576   6.796
 3256POPC   C3B42801  35.234  15.391   7.167
 3256POPC   C4B42802  35.159  15.567   7.568
 3257POPC   NC342803  23.951  43.544   5.456
 3257POPC   PO442804  24.533  43.438   5.208
 3257POPC   GL142805  24.523  43.289   5.715
 3257POPC   GL242806  24.432  42.932   5.758
 3257POPC   C1A42807  24.641  43.252   6.210
 3257POPC   D2A42808  24.837  43.233   6.657
 3257POPC   C3A42809  24.537  43.189   6.997
 3257POPC   C4A42810  24.183  43.467   7.132
 3257POPC   C1B42811  24.476  42.743   6.173
 3257POPC   C2B42812  24.438  42.895   6.581
 3257POPC   C3B42813  24.418  42.677   6.998
 3257POPC   C4B42814  24.470  42.693   7.451
 3258POPC   NC342815  25.205  20.295   5.529
 3258POPC   PO442816  25.088  20.937   5.543
 3258POPC   GL142817  25.452  20.763   5.766
 3258POPC   GL242818  25.466  20.451   5.911
 3258POPC   C1A42819  25.657  20.873   6.156
 3258POPC   D2A42820  25.631  20.784   6.596
 3258POPC   C3A42821  25.224  20.817   6.781
 3258POPC   C4A42822  25.325  20.775   7.187
 3258POPC   C1B42823  25.226  20.601   6.243
 3258POPC   C2B42824  25.330  20.370   6.574
 3258POPC   C3B42825  25.301  20.305   6.964
 3258POPC   C4B42826  25.033  20.355   7.285
 3259POPC   NC342827   7.819  40.359   5.483
 3259POPC   PO442828   7.130  40.116   5.385
 3259POPC   GL142829   7.178  40.003   5.793
 3259POPC   GL242830   7.546  40.002   5.887
 3259POPC   C1A42831   7.114  40.159   6.187
 3259POPC   D2A42832   7.482  40.310   6.388
 3259POPC   C3A42833   7.584  40.172   6.773
 3259POPC   C4A42834   7.442  40.117   7.174
 3259POPC   C1B42835   7.463  39.813   6.319
 3259POPC   C2B42836   7.163  39.925   6.663
 3259POPC   C3B42837   7.181  39.697   7.044
 3259POPC   C4B42838   7.147  39.371   7.334
 3260POPC   NC342839  10.752   5.398   5.578
 3260POPC   PO442840  10.656   4.725   5.509
 3260POPC   GL142841  10.500   5.013   5.888
 3260POPC   GL242842  10.263   5.312   5.840
 3260POPC   C1A42843  10.547   5.323   6.274
 3260POPC   D2A42844  10.485   5.539   6.710
 3260POPC   C3A42845  10.760   5.281   6.974
 3260POPC   C4A42846  10.689   4.892   7.196
 3260POPC   C1B42847  10.075   5.150   6.224
 3260POPC   C2B42848  10.252   5.042   6.628
 3260POPC   C3B42849  10.278   5.164   7.050
 3260POPC   C4B42850   9.981   5.172   7.323
 3261POPC   NC342851  40.029  17.273   5.456
 3261POPC   PO442852  40.456  17.816   5.595
 3261POPC   GL142853  40.304  17.442   5.845
 3261POPC   GL242854  39.940  17.435   5.933
 3261POPC   C1A42855  40.318  17.329   6.277
 3261POPC   D2A42856  40.008  17.550   6.505
 3261POPC   C3A42857  39.878  17.417   6.892
 3261POPC   C4A42858  40.157  17.270   7.187
 3261POPC   C1B42859  39.640  17.667   6.182
 3261POPC   C2B42860  39.573  17.792   6.623
 3261POPC   C3B42861  39.587  17.781   7.073
 3261POPC   C4B42862  39.953  17.749   7.317
 3262POPC   NC342863  11.863  18.831   5.452
 3262POPC   PO442864  12.467  19.035   5.253
 3262POPC   GL142865  12.361  18.894   5.713
 3262POPC   GL242866  12.558  18.605   5.811
 3262POPC   C1A42867  12.304  19.105   6.161
 3262POPC   D2A42868  11.992  19.220   6.512
 3262POPC   C3A42869  12.161  19.186   6.928
 3262POPC   C4A42870  11.984  19.352   7.308
 3262POPC   C1B42871  12.429  18.619   6.252
 3262POPC   C2B42872  12.254  18.691   6.683
 3262POPC   C3B42873  11.851  18.772   6.867
 3262POPC   C4B42874  11.701  18.855   7.281
 3263POPC   NC342875   9.281  10.057   5.067
 3263POPC   PO442876   8.866   9.804   5.550
 3263POPC   GL142877   8.868   9.599   5.887
 3263POPC   GL242878   9.212   9.593   5.877
 3263POPC   C1A42879   8.676   9.466   6.258
 3263POPC   D2A42880   8.617   9.704   6.611
 3263POPC   C3A42881   8.862   9.756   6.979
 3263POPC   C4A42882   9.176  10.043   7.136
 3263POPC   C1B42883   9.183   9.476   6.282
 3263POPC   C2B42884   9.064   9.380   6.681
 3263POPC   C3B42885   9.242   9.451   7.109
 3263POPC   C4B42886   9.133   9.674   7.495
 3264POPC   NC342887  37.002  32.726   5.458
 3264POPC   PO442888  36.457  33.191   5.529
 3264POPC   GL142889  36.808  33.063   5.822
 3264POPC   GL242890  37.113  33.277   5.862
 3264POPC   C1A42891  36.918  32.967   6.272
 3264POPC   D2A42892  36.852  33.216   6.659
 3264POPC   C3A42893  36.561  33.092   6.997
 3264POPC   C4A42894  36.517  32.942   7.417
 3264POPC   C1B42895  37.356  33.213   6.210
 3264POPC   C2B42896  37.362  33.100   6.630
 3264POPC   C3B42897  37.196  33.159   7.046
 3264POPC   C4B42898  37.457  33.241   7.378
 3265POPC   NC342899   1.057  30.809   5.530
 3265POPC   PO442900   1.651  30.566   5.356
 3265POPC   GL142901   1.497  30.629   5.803
 3265POPC   GL242902   1.400  30.966   5.897
 3265POPC   C1A42903   1.224  30.561   6.185
 3265POPC   D2A42904   1.061  30.711   6.585
 3265POPC   C3A42905   1.246  30.569   6.978
 3265POPC   C4A42906   1.180  30.687   7.401
 3265POPC   C1B42907   1.352  31.076   6.336
 3265POPC   C2B42908   1.530  30.928   6.727
 3265POPC   C3B42909   1.388  31.065   7.129
 3265POPC   C4B42910   1.441  31.094   7.603
 3266POPC   NC342911  26.533  39.049   5.503
 3266POPC   PO442912  25.864  39.262   5.464
 3266POPC   GL142913  26.072  39.085   5.783
 3266POPC   GL242914  25.741  39.036   5.908
 3266POPC   C1A42915  26.153  39.120   6.210
 3266POPC   D2A42916  26.072  39.399   6.536
 3266POPC   C3A42917  26.153  39.242   6.908
 3266POPC   C4A42918  26.330  39.531   7.175
 3266POPC   C1B42919  25.648  39.174   6.338
 3266POPC   C2B42920  25.647  39.177   6.806
 3266POPC   C3B42921  25.725  39.225   7.247
 3266POPC   C4B42922  25.556  39.228   7.687
 3267POPC   NC342923  39.239  26.255   5.123
 3267POPC   PO442924  39.227  26.953   5.337
 3267POPC   GL142925  39.307  27.007   5.790
 3267POPC   GL242926  39.417  26.685   5.895
 3267POPC   C1A42927  39.254  26.956   6.288
 3267POPC   D2A42928  39.027  26.755   6.647
 3267POPC   C3A42929  39.079  26.746   7.098
 3267POPC   C4A42930  38.814  26.659   7.464
 3267POPC   C1B42931  39.670  26.646   6.202
 3267POPC   C2B42932  39.488  26.544   6.553
 3267POPC   C3B42933  39.609  26.644   6.929
 3267POPC   C4B42934  39.446  26.471   7.283
 3268POPC   NC342935  25.006  33.554   5.462
 3268POPC   PO442936  25.443  34.041   5.394
 3268POPC   GL142937  25.408  33.770   5.752
 3268POPC   GL242938  25.080  33.857   5.854
 3268POPC   C1A42939  25.437  33.734   6.208
 3268POPC   D2A42940  25.383  33.500   6.583
 3268POPC   C3A42941  25.353  33.728   6.956
 3268POPC   C4A42942  25.562  33.656   7.322
 3268POPC   C1B42943  24.854  33.941   6.222
 3268POPC   C2B42944  24.951  33.805   6.617
 3268POPC   C3B42945  24.842  33.780   7.027
 3268POPC   C4B42946  24.938  34.019   7.406
 3269POPC   NC342947  33.087   9.407   5.343
 3269POPC   PO442948  32.937  10.050   5.443
 3269POPC   GL142949  32.854   9.732   5.705
 3269POPC   GL242950  33.195   9.674   5.776
 3269POPC   C1A42951  32.736   9.787   6.142
 3269POPC   D2A42952  32.893   9.952   6.537
 3269POPC   C3A42953  32.949   9.723   6.915
 3269POPC   C4A42954  32.817   9.758   7.345
 3269POPC   C1B42955  33.392   9.568   6.146
 3269POPC   C2B42956  33.267   9.489   6.567
 3269POPC   C3B42957  33.456   9.535   6.959
 3269POPC   C4B42958  33.338   9.784   7.281
 3270POPC   NC342959  32.315  34.514   5.360
 3270POPC   PO442960  31.939  35.035   5.418
 3270POPC   GL142961  31.992  34.704   5.778
 3270POPC   GL242962  32.315  34.492   5.867
 3270POPC   C1A42963  32.020  34.645   6.242
 3270POPC   D2A42964  32.140  34.622   6.672
 3270POPC   C3A42965  31.888  34.759   7.020
 3270POPC   C4A42966  32.029  34.579   7.412
 3270POPC   C1B42967  32.441  34.355   6.303
 3270POPC   C2B42968  32.589  34.387   6.756
 3270POPC   C3B42969  32.436  34.564   7.128
 3270POPC   C4B42970  32.567  34.763   7.541
 3271POPC   NC342971  27.372   6.233   5.464
 3271POPC   PO442972  27.474   6.835   5.118
 3271POPC   GL142973  27.442   6.758   5.620
 3271POPC   GL242974  27.223   7.034   5.761
 3271POPC   C1A42975  27.505   6.493   6.068
 3271POPC   D2A42976  27.381   6.452   6.571
 3271POPC   C3A42977  27.620   6.285   6.997
 3271POPC   C4A42978  27.761   6.348   7.508
 3271POPC   C1B42979  27.173   6.852   6.193
 3271POPC   C2B42980  26.988   6.832   6.606
 3271POPC   C3B42981  27.187   6.793   6.985
 3271POPC   C4B42982  27.390   6.628   7.311
 3272POPC   NC342983  38.212   2.501   5.189
 3272POPC   PO442984  38.709   2.641   5.620
 3272POPC   GL142985  38.589   2.793   6.015
 3272POPC   GL242986  38.248   2.811   6.116
 3272POPC   C1A42987  38.671   2.723   6.438
 3272POPC   D2A42988  38.475   2.373   6.617
 3272POPC   C3A42989  38.320   2.517   7.006
 3272POPC   C4A42990  38.408   2.910   7.194
 3272POPC   C1B42991  38.061   2.451   6.282
 3272POPC   C2B42992  37.950   2.346   6.690
 3272POPC   C3B42993  37.884   2.765   6.859
 3272POPC   C4B42994  37.907   2.870   7.277
 3273POPC   NC342995  19.086  16.699   5.334
 3273POPC   PO442996  18.469  16.572   5.628
 3273POPC   GL142997  18.881  16.729   5.823
 3273POPC   GL242998  19.238  16.544   5.802
 3273POPC   C1A42999  19.160  16.981   6.082
 3273POPC   D2A43000  19.422  17.078   6.411
 3273POPC   C3A43001  19.405  16.972   6.833
 3273POPC   C4A43002  19.156  17.180   7.162
 3273POPC   C1B43003  19.155  16.500   6.261
 3273POPC   C2B43004  19.060  16.598   6.703
 3273POPC   C3B43005  19.139  16.625   7.152
 3273POPC   C4B43006  19.416  16.458   7.481
 3274POPC   NC343007  19.594   2.167   5.194
 3274POPC   PO443008  20.163   1.855   5.389
 3274POPC   GL143009  19.886   1.813   5.726
 3274POPC   GL243010  19.778   2.164   5.676
 3274POPC   C1A43011  19.842   1.746   6.188
 3274POPC   D2A43012  19.659   1.935   6.571
 3274POPC   C3A43013  19.815   1.897   6.988
 3274POPC   C4A43014  19.734   1.817   7.415
 3274POPC   C1B43015  19.949   2.249   6.088
 3274POPC   C2B43016  19.877   2.401   6.492
 3274POPC   C3B43017  19.969   2.372   6.897
 3274POPC   C4B43018  19.883   2.310   7.325
 3275POPC   NC343019  41.412  36.075   5.303
 3275POPC   PO443020  41.586  36.704   5.321
 3275POPC   GL143021  41.376  36.429   5.665
 3275POPC   GL243022  41.633  36.163   5.766
 3275POPC   C1A43023  41.322  36.279   6.141
 3275POPC   D2A43024  41.266  36.047   6.544
 3275POPC   C3A43025  41.413  36.246   6.953
 3275POPC   C4A43026  41.443  36.090   7.383
 3275POPC   C1B43027  41.713  35.913   6.164
 3275POPC   C2B43028  41.893  35.924   6.600
 3275POPC   C3B43029  41.779  35.871   7.043
 3275POPC   C4B43030  42.014  35.905   7.448
 3276POPC   NC343031   2.334  28.562   5.459
 3276POPC   PO443032   2.434  27.952   5.272
 3276POPC   GL143033   2.106  28.131   5.682
 3276POPC   GL243034   2.018  28.496   5.834
 3276POPC   C1A43035   1.850  28.120   6.129
 3276POPC   D2A43036   1.857  27.966   6.589
 3276POPC   C3A43037   2.042  28.162   6.920
 3276POPC   C4A43038   2.063  28.390   7.276
 3276POPC   C1B43039   1.653  28.591   6.089
 3276POPC   C2B43040   1.585  28.575   6.510
 3276POPC   C3B43041   1.792  28.642   6.896
 3276POPC   C4B43042   1.785  28.823   7.267
 3277POPC   NC343043  38.132   6.099   5.387
 3277POPC   PO443044  38.715   5.776   5.495
 3277POPC   GL143045  38.579   5.979   5.869
 3277POPC   GL243046  38.221   5.897   5.862
 3277POPC   C1A43047  38.473   5.865   6.311
 3277POPC   D2A43048  38.426   5.625   6.676
 3277POPC   C3A43049  38.587   5.945   6.921
 3277POPC   C4A43050  38.388   6.101   7.261
 3277POPC   C1B43051  38.029   6.095   6.226
 3277POPC   C2B43052  38.144   6.110   6.669
 3277POPC   C3B43053  38.042   5.837   7.008
 3277POPC   C4B43054  37.996   5.813   7.462
 3278POPC   NC343055  15.024  40.471   5.393
 3278POPC   PO443056  15.385  41.077   5.344
 3278POPC   GL143057  15.182  40.926   5.722
 3278POPC   GL243058  15.291  40.624   5.786
 3278POPC   C1A43059  14.982  40.846   6.139
 3278POPC   D2A43060  14.916  40.653   6.546
 3278POPC   C3A43061  15.031  40.930   6.879
 3278POPC   C4A43062  15.368  40.873   7.123
 3278POPC   C1B43063  15.432  40.504   6.182
 3278POPC   C2B43064  15.405  40.343   6.604
 3278POPC   C3B43065  15.201  40.390   6.984
 3278POPC   C4B43066  15.243  40.278   7.416
 3279POPC   NC343067  18.654  29.402   5.586
 3279POPC   PO443068  18.736  28.764   5.534
 3279POPC   GL143069  18.946  29.039   5.852
 3279POPC   GL243070  19.175  29.360   5.799
 3279POPC   C1A43071  19.209  29.006   6.229
 3279POPC   D2A43072  19.180  29.059   6.677
 3279POPC   C3A43073  18.785  28.958   6.875
 3279POPC   C4A43074  18.884  28.890   7.299
 3279POPC   C1B43075  18.930  29.465   6.188
 3279POPC   C2B43076  18.779  29.449   6.607
 3279POPC   C3B43077  18.936  29.406   7.027
 3279POPC   C4B43078  19.013  29.437   7.451
 3280POPC   NC343079   0.032  34.654   5.287
 3280POPC   PO443080  44.378  35.087   5.265
 3280POPC   GL143081  44.538  34.655   5.539
 3280POPC   GL243082  44.291  34.370   5.641
 3280POPC   C1A43083  44.627  34.600   5.996
 3280POPC   D2A43084  44.498  34.577   6.452
 3280POPC   C3A43085  44.761  34.818   6.752
 3280POPC   C4A43086  44.794  34.897   7.201
 3280POPC   C1B43087  44.295  34.193   6.071
 3280POPC   C2B43088  44.270  34.086   6.529
 3280POPC   C3B43089  44.270  34.317   6.929
 3280POPC   C4B43090  44.311  34.751   7.093
 3281POPC   NC343091  35.170   4.994   5.549
 3281POPC   PO443092  35.514   5.544   5.521
 3281POPC   GL143093  35.501   5.245   5.861
 3281POPC   GL243094  35.143   5.312   5.954
 3281POPC   C1A43095  35.464   5.079   6.283
 3281POPC   D2A43096  35.537   5.302   6.649
 3281POPC   C3A43097  35.401   5.062   6.987
 3281POPC   C4A43098  35.639   4.819   7.245
 3281POPC   C1B43099  34.960   5.231   6.365
 3281POPC   C2B43100  35.054   5.421   6.784
 3281POPC   C3B43101  35.055   5.347   7.232
 3281POPC   C4B43102  35.200   4.975   7.470
 3282POPC   NC343103  37.625  31.101   5.583
 3282POPC   PO443104  37.475  30.496   5.340
 3282POPC   GL143105  37.515  30.583   5.803
 3282POPC   GL243106  37.683  30.286   5.891
 3282POPC   C1A43107  37.681  30.824   6.188
 3282POPC   D2A43108  37.809  30.970   6.586
 3282POPC   C3A43109  37.546  30.912   6.976
 3282POPC   C4A43110  37.575  30.741   7.394
 3282POPC   C1B43111  37.667  30.343   6.320
 3282POPC   C2B43112  37.522  30.491   6.679
 3282POPC   C3B43113  37.712  30.380   7.019
 3282POPC   C4B43114  37.592  30.227   7.375
 3283POPC   NC343115  26.220   0.766   5.173
 3283POPC   PO443116  26.135   1.228   5.637
 3283POPC   GL143117  26.185   1.132   6.051
 3283POPC   GL243118  26.493   0.926   6.123
 3283POPC   C1A43119  25.995   1.197   6.455
 3283POPC   D2A43120  25.842   1.587   6.634
 3283POPC   C3A43121  25.880   1.516   7.046
 3283POPC   C4A43122  25.908   1.170   7.354
 3283POPC   C1B43123  26.374   0.656   6.463
 3283POPC   C2B43124  26.182   0.831   6.822
 3283POPC   C3B43125  26.416   0.836   7.207
 3283POPC   C4B43126  26.307   0.935   7.644
 3284POPC   NC343127  32.513  17.853   5.536
 3284POPC   PO443128  32.242  18.553   5.470
 3284POPC   GL143129  32.346  18.380   5.849
 3284POPC   GL243130  32.660  18.254   5.806
 3284POPC   C1A43131  32.344  18.371   6.302
 3284POPC   D2A43132  32.078  18.354   6.666
 3284POPC   C3A43133  32.249  18.413   7.080
 3284POPC   C4A43134  32.090  18.508   7.497
 3284POPC   C1B43135  32.753  18.088   6.212
 3284POPC   C2B43136  32.503  17.945   6.600
 3284POPC   C3B43137  32.567  18.012   7.073
 3284POPC   C4B43138  32.525  18.228   7.487
 3285POPC   NC343139  19.348   7.195   5.562
 3285POPC   PO443140  19.264   6.535   5.439
 3285POPC   GL143141  19.113   6.756   5.819
 3285POPC   GL243142  18.898   6.473   5.950
 3285POPC   C1A43143  19.183   6.755   6.280
 3285POPC   D2A43144  19.181   6.432   6.570
 3285POPC   C3A43145  19.289   6.598   6.981
 3285POPC   C4A43146  19.275   6.458   7.395
 3285POPC   C1B43147  18.690   6.623   6.341
 3285POPC   C2B43148  18.785   6.676   6.792
 3285POPC   C3B43149  18.813   6.649   7.253
 3285POPC   C4B43150  18.917   6.905   7.658
 3286POPC   NC343151  33.516   7.651   5.499
 3286POPC   PO443152  33.955   7.166   5.608
 3286POPC   GL143153  33.729   7.428   5.906
 3286POPC   GL243154  33.799   7.805   5.910
 3286POPC   C1A43155  33.654   7.341   6.317
 3286POPC   D2A43156  33.839   7.509   6.660
 3286POPC   C3A43157  33.743   7.203   6.985
 3286POPC   C4A43158  34.001   7.031   7.301
 3286POPC   C1B43159  33.472   7.814   6.262
 3286POPC   C2B43160  33.396   7.728   6.728
 3286POPC   C3B43161  33.711   7.705   7.114
 3286POPC   C4B43162  33.748   7.849   7.535
 3287POPC   NC343163  40.213  27.893   5.454
 3287POPC   PO443164  39.950  27.215   5.395
 3287POPC   GL143165  39.979  27.460   5.808
 3287POPC   GL243166  39.880  27.822   5.826
 3287POPC   C1A43167  40.050  27.427   6.273
 3287POPC   D2A43168  40.188  27.181   6.605
 3287POPC   C3A43169  40.018  27.346   6.973
 3287POPC   C4A43170  40.182  27.710   7.148
 3287POPC   C1B43171  40.179  27.900   6.159
 3287POPC   C2B43172  39.940  28.009   6.535
 3287POPC   C3B43173  39.776  27.983   6.956
 3287POPC   C4B43174  39.950  28.091   7.374
 3288POPC   NC343175  27.808  17.995   5.287
 3288POPC   PO443176  27.069  17.906   5.401
 3288POPC   GL143177  27.459  18.170   5.599
 3288POPC   GL243178  27.503  18.526   5.670
 3288POPC   C1A43179  27.582  18.163   6.059
 3288POPC   D2A43180  27.302  18.101   6.443
 3288POPC   C3A43181  27.489  18.177   6.858
 3288POPC   C4A43182  27.687  18.219   7.269
 3288POPC   C1B43183  27.650  18.663   6.102
 3288POPC   C2B43184  27.747  18.521   6.540
 3288POPC   C3B43185  27.656  18.664   6.977
 3288POPC   C4B43186  27.396  18.632   7.344
 3289POPC   NC343187  23.133  24.082   5.199
 3289POPC   PO443188  22.723  23.676   5.575
 3289POPC   GL143189  22.990  23.855   5.898
 3289POPC   GL243190  22.682  23.894   6.093
 3289POPC   C1A43191  23.327  23.820   6.231
 3289POPC   D2A43192  23.385  23.883   6.690
 3289POPC   C3A43193  23.103  23.639   6.964
 3289POPC   C4A43194  22.934  23.719   7.388
 3289POPC   C1B43195  22.879  23.498   6.271
 3289POPC   C2B43196  22.843  23.287   6.688
 3289POPC   C3B43197  22.628  23.491   7.030
 3289POPC   C4B43198  22.484  23.923   7.176
 3290POPC   NC343199  16.224  26.850   5.541
 3290POPC   PO443200  15.745  26.465   5.425
 3290POPC   GL143201  15.812  26.671   5.848
 3290POPC   GL243202  15.860  27.040   5.856
 3290POPC   C1A43203  16.094  26.691   6.235
 3290POPC   D2A43204  16.038  26.600   6.687
 3290POPC   C3A43205  16.052  26.916   7.031
 3290POPC   C4A43206  16.007  26.764   7.469
 3290POPC   C1B43207  15.853  27.144   6.277
 3290POPC   C2B43208  15.665  27.026   6.677
 3290POPC   C3B43209  15.538  27.037   7.101
 3290POPC   C4B43210  15.517  26.960   7.525
 3291POPC   NC343211   9.047  29.435   5.531
 3291POPC   PO443212   8.755  30.115   5.488
 3291POPC   GL143213   8.903  30.172   5.881
 3291POPC   GL243214   9.137  29.897   5.825
 3291POPC   C1A43215   8.988  30.111   6.305
 3291POPC   D2A43216   9.151  29.928   6.630
 3291POPC   C3A43217   8.993  30.096   6.991
 3291POPC   C4A43218   8.699  30.123   7.249
 3291POPC   C1B43219   8.862  29.654   6.118
 3291POPC   C2B43220   8.886  29.493   6.542
 3291POPC   C3B43221   8.990  29.596   6.976
 3291POPC   C4B43222   8.671  29.566   7.272
 3292POPC   NC343223  40.957  42.538   5.577
 3292POPC   PO443224  41.070  43.259   5.477
 3292POPC   GL143225  40.993  43.305   5.872
 3292POPC   GL243226  40.780  42.987   5.853
 3292POPC   C1A43227  40.724  43.364   6.223
 3292POPC   D2A43228  40.532  43.226   6.597
 3292POPC   C3A43229  40.793  43.198   6.937
 3292POPC   C4A43230  40.722  43.309   7.341
 3292POPC   C1B43231  40.768  42.683   6.213
 3292POPC   C2B43232  40.906  42.758   6.638
 3292POPC   C3B43233  40.675  42.685   7.003
 3292POPC   C4B43234  40.517  42.771   7.470
 3293POPC   NC343235  24.365   8.322   5.320
 3293POPC   PO443236  24.939   8.302   5.618
 3293POPC   GL143237  24.626   8.343   5.868
 3293POPC   GL243238  24.438   8.031   5.794
 3293POPC   C1A43239  24.680   8.404   6.296
 3293POPC   D2A43240  24.629   8.230   6.714
 3293POPC   C3A43241  24.610   8.451   7.123
 3293POPC   C4A43242  24.657   8.252   7.530
 3293POPC   C1B43243  24.185   8.223   6.132
 3293POPC   C2B43244  24.117   8.399   6.539
 3293POPC   C3B43245  24.159   8.223   6.946
 3293POPC   C4B43246  24.237   8.043   7.348
 3294POPC   NC343247  19.536  23.483   5.385
 3294POPC   PO443248  19.930  23.977   5.321
 3294POPC   GL143249  19.865  23.771   5.711
 3294POPC   GL243250  19.877  23.420   5.845
 3294POPC   C1A43251  19.848  23.896   6.136
 3294POPC   D2A43252  19.935  24.019   6.565
 3294POPC   C3A43253  19.691  23.856   6.917
 3294POPC   C4A43254  19.757  23.862   7.348
 3294POPC   C1B43255  20.117  23.486   6.275
 3294POPC   C2B43256  20.082  23.533   6.745
 3294POPC   C3B43257  20.119  23.486   7.190
 3294POPC   C4B43258  19.968  23.422   7.612
 3295POPC   NC343259  31.342  21.678   5.505
 3295POPC   PO443260  31.592  20.956   5.485
 3295POPC   GL143261  31.559  21.308   5.799
 3295POPC   GL243262  31.829  21.575   5.808
 3295POPC   C1A43263  31.301  21.398   6.170
 3295POPC   D2A43264  31.326  21.177   6.553
 3295POPC   C3A43265  31.353  21.454   6.881
 3295POPC   C4A43266  31.289  21.530   7.310
 3295POPC   C1B43267  31.817  21.448   6.243
 3295POPC   C2B43268  31.819  21.531   6.680
 3295POPC   C3B43269  31.767  21.569   7.137
 3295POPC   C4B43270  31.813  21.602   7.592
 3296POPC   NC343271  44.853  35.456   5.297
 3296POPC   PO443272   0.529  35.186   5.508
 3296POPC   GL143273   0.621  35.296   5.927
 3296POPC   GL243274   0.908  35.127   5.866
 3296POPC   C1A43275   0.455  35.275   6.353
 3296POPC   D2A43276   0.382  35.055   6.722
 3296POPC   C3A43277   0.502  35.362   7.009
 3296POPC   C4A43278   0.279  35.697   7.202
 3296POPC   C1B43279   0.993  35.148   6.292
 3296POPC   C2B43280   0.894  35.057   6.720
 3296POPC   C3B43281   1.111  35.005   7.098
 3296POPC   C4B43282   0.907  35.196   7.436
 3297POPC   NC343283  30.994  39.999   5.412
 3297POPC   PO443284  30.259  40.242   5.469
 3297POPC   GL143285  30.652  40.189   5.765
 3297POPC   GL243286  30.747  39.823   5.830
 3297POPC   C1A43287  30.825  40.117   6.215
 3297POPC   D2A43288  30.608  40.056   6.580
 3297POPC   C3A43289  30.833  39.879   6.892
 3297POPC   C4A43290  30.791  40.138   7.226
 3297POPC   C1B43291  30.404  39.779   6.149
 3297POPC   C2B43292  30.165  39.784   6.551
 3297POPC   C3B43293  30.336  39.756   6.971
 3297POPC   C4B43294  30.581  39.673   7.320
 3298POPC   NC343295  34.253  40.924   5.605
 3298POPC   PO443296  34.729  40.471   5.486
 3298POPC   GL143297  34.795  40.721   5.828
 3298POPC   GL243298  34.726  41.091   5.755
 3298POPC   C1A43299  34.562  40.769   6.211
 3298POPC   D2A43300  34.284  40.787   6.551
 3298POPC   C3A43301  34.474  40.624   6.898
 3298POPC   C4A43302  34.381  40.720   7.309
 3298POPC   C1B43303  34.964  41.083   6.152
 3298POPC   C2B43304  35.008  40.844   6.527
 3298POPC   C3B43305  34.894  40.893   6.919
 3298POPC   C4B43306  34.876  40.644   7.294
 3299POPC   NC343307  15.737  27.333   5.464
 3299POPC   PO443308  15.357  27.813   5.290
 3299POPC   GL143309  15.350  27.613   5.699
 3299POPC   GL243310  15.009  27.636   5.812
 3299POPC   C1A43311  15.409  27.436   6.130
 3299POPC   D2A43312  15.401  27.623   6.579
 3299POPC   C3A43313  15.189  27.444   6.958
 3299POPC   C4A43314  15.328  27.429   7.378
 3299POPC   C1B43315  14.958  27.650   6.249
 3299POPC   C2B43316  14.724  27.821   6.563
 3299POPC   C3B43317  14.702  27.682   6.992
 3299POPC   C4B43318  14.797  27.453   7.375
 3300POPC   NC343319  34.329  40.249   5.409
 3300POPC   PO443320  33.890  39.748   5.432
 3300POPC   GL143321  33.790  39.904   5.854
 3300POPC   GL243322  34.044  40.181   5.905
 3300POPC   C1A43323  33.467  39.817   6.187
 3300POPC   D2A43324  33.450  39.795   6.640
 3300POPC   C3A43325  33.832  39.831   6.917
 3300POPC   C4A43326  33.720  40.111   7.264
 3300POPC   C1B43327  33.849  40.121   6.334
 3300POPC   C2B43328  33.939  40.310   6.725
 3300POPC   C3B43329  34.154  40.267   7.100
 3300POPC   C4B43330  34.160  40.137   7.540
 3301POPC   NC343331  21.974  19.686   5.442
 3301POPC   PO443332  22.593  19.987   5.502
 3301POPC   GL143333  22.385  19.731   5.821
 3301POPC   GL243334  22.072  19.914   5.908
 3301POPC   C1A43335  22.252  19.608   6.267
 3301POPC   D2A43336  22.214  19.446   6.681
 3301POPC   C3A43337  22.315  19.713   7.020
 3301POPC   C4A43338  22.340  19.726   7.449
 3301POPC   C1B43339  22.271  20.135   6.302
 3301POPC   C2B43340  22.401  20.167   6.782
 3301POPC   C3B43341  22.237  20.199   7.231
 3301POPC   C4B43342  21.974  20.079   7.592
 3302POPC   NC343343  34.690   6.326   5.227
 3302POPC   PO443344  34.331   6.833   5.257
 3302POPC   GL143345  34.528   6.615   5.633
 3302POPC   GL243346  34.282   6.348   5.661
 3302POPC   C1A43347  34.840   6.603   6.023
 3302POPC   D2A43348  34.903   6.480   6.499
 3302POPC   C3A43349  34.754   6.776   6.831
 3302POPC   C4A43350  34.478   6.909   7.154
 3302POPC   C1B43351  34.373   6.456   6.115
 3302POPC   C2B43352  34.347   6.667   6.513
 3302POPC   C3B43353  34.263   6.516   6.912
 3302POPC   C4B43354  34.423   6.422   7.322
 3303POPC   NC343355  21.502  41.064   5.672
 3303POPC   PO443356  21.065  41.530   5.389
 3303POPC   GL143357  21.351  41.561   5.725
 3303POPC   GL243358  21.581  41.826   5.675
 3303POPC   C1A43359  21.377  41.509   6.172
 3303POPC   D2A43360  21.206  41.469   6.591
 3303POPC   C3A43361  21.380  41.573   6.955
 3303POPC   C4A43362  21.191  41.433   7.330
 3303POPC   C1B43363  21.623  41.941   6.123
 3303POPC   C2B43364  21.680  41.860   6.584
 3303POPC   C3B43365  21.808  41.902   7.018
 3303POPC   C4B43366  21.470  41.979   7.284
 3304POPC   NC343367  28.476   5.804   5.268
 3304POPC   PO443368  28.170   6.323   5.622
 3304POPC   GL143369  28.438   6.098   5.914
 3304POPC   GL243370  28.698   5.933   5.729
 3304POPC   C1A43371  28.414   5.813   6.276
 3304POPC   D2A43372  28.202   5.802   6.686
 3304POPC   C3A43373  28.454   5.794   7.046
 3304POPC   C4A43374  28.688   5.501   7.219
 3304POPC   C1B43375  28.906   6.195   6.069
 3304POPC   C2B43376  28.763   6.181   6.489
 3304POPC   C3B43377  28.852   6.088   6.921
 3304POPC   C4B43378  28.709   6.238   7.320
 3305POPC   NC343379  27.336  37.651   5.364
 3305POPC   PO443380  28.001  37.607   5.501
 3305POPC   GL143381  27.690  37.570   5.850
 3305POPC   GL243382  27.321  37.432   5.815
 3305POPC   C1A43383  27.764  37.472   6.305
 3305POPC   D2A43384  27.801  37.803   6.630
 3305POPC   C3A43385  27.796  37.725   7.069
 3305POPC   C4A43386  27.568  37.963   7.376
 3305POPC   C1B43387  27.319  37.681   6.217
 3305POPC   C2B43388  27.344  37.569   6.678
 3305POPC   C3B43389  27.305  37.568   7.150
 3305POPC   C4B43390  27.349  37.608   7.631
 3306POPC   NC343391  41.444   5.855   5.579
 3306POPC   PO443392  42.015   5.421   5.487
 3306POPC   GL143393  41.826   5.676   5.934
 3306POPC   GL243394  41.763   5.999   5.941
 3306POPC   C1A43395  41.554   5.766   6.351
 3306POPC   D2A43396  41.171   5.933   6.618
 3306POPC   C3A43397  41.281   5.796   7.053
 3306POPC   C4A43398  41.726   5.879   7.198
 3306POPC   C1B43399  41.402   6.212   6.190
 3306POPC   C2B43400  41.550   6.304   6.612
 3306POPC   C3B43401  41.439   6.268   7.028
 3306POPC   C4B43402  41.363   6.068   7.497
 3307POPC   NC343403  32.136  30.737   5.434
 3307POPC   PO443404  32.751  30.401   5.606
 3307POPC   GL143405  32.345  30.502   5.805
 3307POPC   GL243406  32.272  30.885   5.895
 3307POPC   C1A43407  32.148  30.516   6.206
 3307POPC   D2A43408  32.393  30.561   6.593
 3307POPC   C3A43409  32.198  30.850   6.862
 3307POPC   C4A43410  32.019  30.873   7.281
 3307POPC   C1B43411  32.559  30.982   6.277
 3307POPC   C2B43412  32.763  31.217   6.618
 3307POPC   C3B43413  32.529  31.285   6.977
 3307POPC   C4B43414  32.527  30.932   7.242
 3308POPC   NC343415  43.097  34.975   5.437
 3308POPC   PO443416  42.943  34.354   5.204
 3308POPC   GL143417  43.093  34.334   5.669
 3308POPC   GL243418  43.015  34.649   5.815
 3308POPC   C1A43419  43.254  34.297   6.115
 3308POPC   D2A43420  43.288  34.570   6.498
 3308POPC   C3A43421  43.338  34.387   6.941
 3308POPC   C4A43422  42.944  34.289   7.175
 3308POPC   C1B43423  42.945  34.940   6.164
 3308POPC   C2B43424  43.155  35.058   6.553
 3308POPC   C3B43425  43.110  34.829   6.935
 3308POPC   C4B43426  42.886  34.795   7.330
 3309POPC   NC343427  22.110  10.793   5.210
 3309POPC   PO443428  22.271  11.530   5.323
 3309POPC   GL143429  22.125  11.313   5.729
 3309POPC   GL243430  21.791  11.328   5.877
 3309POPC   C1A43431  22.204  11.336   6.201
 3309POPC   D2A43432  22.082  11.471   6.633
 3309POPC   C3A43433  22.334  11.280   6.955
 3309POPC   C4A43434  22.358  10.844   7.150
 3309POPC   C1B43435  21.695  11.445   6.293
 3309POPC   C2B43436  21.605  11.194   6.662
 3309POPC   C3B43437  21.824  11.242   7.044
 3309POPC   C4B43438  21.932  11.636   7.132
 3310POPC   NC343439  31.429   4.147   5.290
 3310POPC   PO443440  31.553   4.823   5.456
 3310POPC   GL143441  31.463   4.600   5.826
 3310POPC   GL243442  31.242   4.334   5.759
 3310POPC   C1A43443  31.689   4.361   6.158
 3310POPC   D2A43444  31.825   4.275   6.585
 3310POPC   C3A43445  31.591   4.095   6.919
 3310POPC   C4A43446  31.642   4.288   7.315
 3310POPC   C1B43447  31.171   4.316   6.201
 3310POPC   C2B43448  31.190   4.302   6.657
 3310POPC   C3B43449  31.159   4.383   7.097
 3310POPC   C4B43450  31.161   4.217   7.513
 3311POPC   NC343451   0.336  44.058   5.413
 3311POPC   PO443452   0.659  43.463   5.265
 3311POPC   GL143453   0.521  43.599   5.752
 3311POPC   GL243454   0.532  43.963   5.868
 3311POPC   C1A43455   0.193  43.709   6.146
 3311POPC   D2A43456   0.290  43.835   6.572
 3311POPC   C3A43457   0.244  43.608   6.950
 3311POPC   C4A43458   0.455  43.738   7.343
 3311POPC   C1B43459   0.378  44.221   6.233
 3311POPC   C2B43460   0.270  44.335   6.692
 3311POPC   C3B43461   0.307  44.194   7.153
 3311POPC   C4B43462   0.693  44.199   7.420
 3312POPC   NC343463   0.322  12.331   5.388
 3312POPC   PO443464  44.636  12.175   5.278
 3312POPC   GL143465   0.003  12.123   5.741
 3312POPC   GL243466   0.402  12.088   5.817
 3312POPC   C1A43467   0.141  12.031   6.219
 3312POPC   D2A43468   0.482  11.975   6.557
 3312POPC   C3A43469   0.290  12.108   6.942
 3312POPC   C4A43470  44.985  11.843   7.187
 3312POPC   C1B43471   0.641  12.306   6.171
 3312POPC   C2B43472   0.786  12.387   6.655
 3312POPC   C3B43473   0.746  12.228   7.140
 3312POPC   C4B43474   0.910  12.045   7.591
 3313POPC   NC343475  34.795   8.070   5.066
 3313POPC   PO443476  34.800   8.471   5.570
 3313POPC   GL143477  34.469   8.351   5.844
 3313POPC   GL243478  34.242   8.679   5.845
 3313POPC   C1A43479  34.451   8.085   6.237
 3313POPC   D2A43480  34.515   7.702   6.511
 3313POPC   C3A43481  34.729   7.797   6.882
 3313POPC   C4A43482  34.613   8.143   7.122
 3313POPC   C1B43483  34.361   8.590   6.272
 3313POPC   C2B43484  34.456   8.389   6.679
 3313POPC   C3B43485  34.227   8.491   7.056
 3313POPC   C4B43486  34.233   8.758   7.425
 3314POPC   NC343487  12.194   7.707   5.529
 3314POPC   PO443488  12.156   7.134   5.142
 3314POPC   GL143489  12.233   7.231   5.680
 3314POPC   GL243490  12.203   7.031   5.991
 3314POPC   C1A43491  12.112   7.480   6.139
 3314POPC   D2A43492  11.886   7.517   6.542
 3314POPC   C3A43493  12.146   7.534   6.909
 3314POPC   C4A43494  12.291   7.432   7.329
 3314POPC   C1B43495  11.898   7.008   6.364
 3314POPC   C2B43496  11.801   7.092   6.837
 3314POPC   C3B43497  11.796   7.356   7.246
 3314POPC   C4B43498  11.893   7.297   7.721
 3315POPC   NC343499  20.273   8.768   5.458
 3315POPC   PO443500  20.728   9.291   5.495
 3315POPC   GL143501  20.864   9.059   5.814
 3315POPC   GL243502  20.556   8.914   5.843
 3315POPC   C1A43503  20.750   9.158   6.241
 3315POPC   D2A43504  20.706   9.344   6.661
 3315POPC   C3A43505  20.764   9.051   7.020
 3315POPC   C4A43506  20.789   8.588   7.175
 3315POPC   C1B43507  20.201   8.950   6.127
 3315POPC   C2B43508  20.315   8.991   6.546
 3315POPC   C3B43509  20.148   8.889   6.924
 3315POPC   C4B43510  20.360   8.902   7.296
 3316POPC   NC343511  14.609  38.297   5.519
 3316POPC   PO443512  14.193  38.776   5.245
 3316POPC   GL143513  14.289  38.690   5.680
 3316POPC   GL243514  14.197  38.380   5.816
 3316POPC   C1A43515  14.386  38.706   6.144
 3316POPC   D2A43516  14.435  38.980   6.496
 3316POPC   C3A43517  14.498  38.749   6.897
 3316POPC   C4A43518  14.577  38.558   7.304
 3316POPC   C1B43519  14.008  38.364   6.223
 3316POPC   C2B43520  14.201  38.443   6.624
 3316POPC   C3B43521  14.215  38.249   7.053
 3316POPC   C4B43522  14.155  38.306   7.513
 3317POPC   NC343523  37.957  40.498   5.387
 3317POPC   PO443524  37.404  40.026   5.362
 3317POPC   GL143525  37.575  40.077   5.771
 3317POPC   GL243526  37.939  40.105   5.722
 3317POPC   C1A43527  37.685  39.898   6.164
 3317POPC   D2A43528  37.742  39.703   6.575
 3317POPC   C3A43529  37.734  39.928   6.941
 3317POPC   C4A43530  37.531  39.831   7.314
 3317POPC   C1B43531  38.039  40.282   6.117
 3317POPC   C2B43532  37.908  40.220   6.530
 3317POPC   C3B43533  37.909  40.404   6.927
 3317POPC   C4B43534  37.651  40.323   7.273
 3318POPC   NC343535  10.953  27.847   5.436
 3318POPC   PO443536  11.618  28.080   5.392
 3318POPC   GL143537  11.347  28.237   5.735
 3318POPC   GL243538  11.020  28.394   5.733
 3318POPC   C1A43539  11.427  28.288   6.178
 3318POPC   D2A43540  11.681  28.251   6.561
 3318POPC   C3A43541  11.473  28.235   6.968
 3318POPC   C4A43542  11.227  27.944   7.218
 3318POPC   C1B43543  11.019  28.602   6.156
 3318POPC   C2B43544  11.160  28.498   6.577
 3318POPC   C3B43545  11.067  28.561   6.998
 3318POPC   C4B43546  11.217  28.433   7.387
 3319POPC   NC343547  27.661  39.925   5.571
 3319POPC   PO443548  27.482  40.522   5.416
 3319POPC   GL143549  27.416  40.347   5.842
 3319POPC   GL243550  27.349  39.998   5.958
 3319POPC   C1A43551  27.696  40.242   6.216
 3319POPC   D2A43552  27.797  39.989   6.542
 3319POPC   C3A43553  27.628  40.155   6.905
 3319POPC   C4A43554  27.736  40.028   7.315
 3319POPC   C1B43555  27.126  39.820   6.348
 3319POPC   C2B43556  27.275  39.718   6.792
 3319POPC   C3B43557  27.310  39.703   7.253
 3319POPC   C4B43558  27.180  39.788   7.695
 3320POPC   NC343559   7.808   0.514   5.474
 3320POPC   PO443560   8.359   0.171   5.280
 3320POPC   GL143561   8.229   0.235   5.676
 3320POPC   GL243562   7.957   0.045   5.769
 3320POPC   C1A43563   8.237   0.388   6.069
 3320POPC   D2A43564   8.424   0.513   6.412
 3320POPC   C3A43565   8.151   0.548   6.752
 3320POPC   C4A43566   8.022   0.487   7.174
 3320POPC   C1B43567   7.873   0.036   6.233
 3320POPC   C2B43568   7.844  44.824   6.643
 3320POPC   C3B43569   7.753   0.015   7.018
 3320POPC   C4B43570   7.781   0.106   7.427
 3321POPC   NC343571  31.427  31.441   5.386
 3321POPC   PO443572  32.021  31.694   5.564
 3321POPC   GL143573  31.752  31.372   5.810
 3321POPC   GL243574  31.375  31.464   5.877
 3321POPC   C1A43575  31.729  31.374   6.277
 3321POPC   D2A43576  31.799  31.709   6.592
 3321POPC   C3A43577  31.651  31.665   7.028
 3321POPC   C4A43578  31.619  31.242   7.215
 3321POPC   C1B43579  31.191  31.398   6.248
 3321POPC   C2B43580  31.331  31.504   6.636
 3321POPC   C3B43581  31.183  31.396   7.012
 3321POPC   C4B43582  31.092  31.552   7.401
 3322POPC   NC343583   0.294  18.205   5.464
 3322POPC   PO443584   0.870  18.269   5.668
 3322POPC   GL143585   0.576  18.515   5.895
 3322POPC   GL243586   0.190  18.570   5.848
 3322POPC   C1A43587   0.496  18.404   6.316
 3322POPC   D2A43588   0.631  18.396   6.750
 3322POPC   C3A43589   0.520  18.035   6.996
 3322POPC   C4A43590   0.561  18.044   7.431
 3322POPC   C1B43591   0.020  18.269   6.161
 3322POPC   C2B43592   0.088  18.247   6.625
 3322POPC   C3B43593   0.176  18.403   7.052
 3322POPC   C4B43594   0.055  18.169   7.408
 3323POPC   NC343595   4.061  12.945   5.455
 3323POPC   PO443596   4.578  12.562   5.465
 3323POPC   GL143597   4.422  12.788   5.806
 3323POPC   GL243598   4.363  13.138   5.857
 3323POPC   C1A43599   4.312  12.778   6.230
 3323POPC   D2A43600   4.480  12.781   6.616
 3323POPC   C3A43601   4.306  12.668   7.005
 3323POPC   C4A43602   4.528  12.816   7.351
 3323POPC   C1B43603   4.128  13.278   6.210
 3323POPC   C2B43604   4.087  13.143   6.646
 3323POPC   C3B43605   4.165  13.159   7.097
 3323POPC   C4B43606   3.877  13.380   7.425
 3324POPC   NC343607  37.837   7.559   5.378
 3324POPC   PO443608  37.227   7.594   5.479
 3324POPC   GL143609  37.570   7.608   5.811
 3324POPC   GL243610  37.765   7.318   5.812
 3324POPC   C1A43611  37.477   7.461   6.243
 3324POPC   D2A43612  37.656   7.568   6.631
 3324POPC   C3A43613  37.526   7.358   6.989
 3324POPC   C4A43614  37.280   7.304   7.338
 3324POPC   C1B43615  37.894   7.111   6.164
 3324POPC   C2B43616  37.762   7.072   6.576
 3324POPC   C3B43617  37.917   7.031   6.980
 3324POPC   C4B43618  37.800   7.172   7.393
 3325POPC   NC343619   9.835   1.570   5.516
 3325POPC   PO443620   9.541   0.984   5.661
 3325POPC   GL143621   9.903   1.138   5.923
 3325POPC   GL243622  10.238   0.916   5.959
 3325POPC   C1A43623   9.868   1.300   6.362
 3325POPC   D2A43624   9.576   1.412   6.640
 3325POPC   C3A43625   9.680   1.414   7.056
 3325POPC   C4A43626   9.602   1.263   7.501
 3325POPC   C1B43627   9.945   0.800   6.305
 3325POPC   C2B43628   9.701   0.895   6.686
 3325POPC   C3B43629   9.765   0.926   7.147
 3325POPC   C4B43630   9.956   0.898   7.589
 3326POPC   NC343631   5.307  42.480   5.517
 3326POPC   PO443632   4.675  42.298   5.554
 3326POPC   GL143633   5.044  42.113   5.778
 3326POPC   GL243634   4.825  41.951   5.941
 3326POPC   C1A43635   5.283  42.263   6.166
 3326POPC   D2A43636   5.170  42.664   6.383
 3326POPC   C3A43637   5.183  42.712   6.831
 3326POPC   C4A43638   5.396  42.621   7.208
 3326POPC   C1B43639   4.800  42.129   6.327
 3326POPC   C2B43640   5.112  42.018   6.597
 3326POPC   C3B43641   5.262  42.158   6.977
 3326POPC   C4B43642   5.070  42.096   7.365
 3327POPC   NC343643  19.994  32.108   5.579
 3327POPC   PO443644  19.580  32.674   5.510
 3327POPC   GL143645  19.702  32.464   5.881
 3327POPC   GL243646  19.585  32.123   5.935
 3327POPC   C1A43647  19.622  32.439   6.337
 3327POPC   D2A43648  19.941  32.343   6.658
 3327POPC   C3A43649  19.890  32.348   7.099
 3327POPC   C4A43650  20.102  32.376   7.488
 3327POPC   C1B43651  19.865  31.974   6.268
 3327POPC   C2B43652  19.926  31.812   6.695
 3327POPC   C3B43653  19.869  31.839   7.153
 3327POPC   C4B43654  20.099  31.862   7.602
 3328POPC   NC343655   8.256  32.023   5.357
 3328POPC   PO443656   8.243  32.729   5.318
 3328POPC   GL143657   8.171  32.416   5.679
 3328POPC   GL243658   8.484  32.246   5.751
 3328POPC   C1A43659   8.076  32.143   6.068
 3328POPC   D2A43660   8.287  32.138   6.500
 3328POPC   C3A43661   8.063  32.139   6.906
 3328POPC   C4A43662   8.193  31.866   7.261
 3328POPC   C1B43663   8.438  32.488   6.141
 3328POPC   C2B43664   8.456  32.651   6.561
 3328POPC   C3B43665   8.532  32.421   6.896
 3328POPC   C4B43666   8.379  32.355   7.242
 3329POPC   NC343667  19.294  17.670   5.452
 3329POPC   PO443668  18.896  17.104   5.457
 3329POPC   GL143669  18.817  17.321   5.837
 3329POPC   GL243670  19.145  17.473   5.930
 3329POPC   C1A43671  18.737  17.209   6.262
 3329POPC   D2A43672  18.969  17.187   6.655
 3329POPC   C3A43673  18.934  17.574   6.878
 3329POPC   C4A43674  18.677  17.461   7.157
 3329POPC   C1B43675  19.146  17.573   6.382
 3329POPC   C2B43676  19.419  17.486   6.753
 3329POPC   C3B43677  19.467  17.600   7.199
 3329POPC   C4B43678  19.498  17.799   7.650
 3330POPC   NC343679  33.094  36.788   5.490
 3330POPC   PO443680  32.668  37.237   5.586
 3330POPC   GL143681  33.000  37.148   5.874
 3330POPC   GL243682  33.097  36.836   6.002
 3330POPC   C1A43683  32.802  37.156   6.277
 3330POPC   D2A43684  32.860  36.885   6.566
 3330POPC   C3A43685  32.928  36.909   6.980
 3330POPC   C4A43686  32.643  37.020   7.267
 3330POPC   C1B43687  33.333  37.022   6.317
 3330POPC   C2B43688  33.390  36.938   6.773
 3330POPC   C3B43689  33.349  36.727   7.200
 3330POPC   C4B43690  33.545  36.799   7.628
 3331POPC   NC343691   8.052  16.047   5.522
 3331POPC   PO443692   8.363  15.468   5.371
 3331POPC   GL143693   8.489  15.774   5.755
 3331POPC   GL243694   8.536  16.147   5.825
 3331POPC   C1A43695   8.381  15.856   6.206
 3331POPC   D2A43696   8.119  16.068   6.523
 3331POPC   C3A43697   8.280  15.996   6.929
 3331POPC   C4A43698   8.008  15.864   7.201
 3331POPC   C1B43699   8.398  16.381   6.219
 3331POPC   C2B43700   8.583  16.298   6.635
 3331POPC   C3B43701   8.669  16.424   7.045
 3331POPC   C4B43702   8.285  16.423   7.258
 3332POPC   NC343703  18.416  27.880   5.479
 3332POPC   PO443704  17.992  28.295   5.199
 3332POPC   GL143705  18.302  28.333   5.646
 3332POPC   GL243706  18.348  28.114   5.914
 3332POPC   C1A43707  18.380  28.592   6.073
 3332POPC   D2A43708  18.310  28.521   6.514
 3332POPC   C3A43709  18.540  28.494   6.898
 3332POPC   C4A43710  18.198  28.420   7.179
 3332POPC   C1B43711  18.012  28.245   6.195
 3332POPC   C2B43712  17.976  27.962   6.493
 3332POPC   C3B43713  18.068  27.940   6.904
 3332POPC   C4B43714  18.027  27.920   7.314
 3333POPC   NC343715   8.563  29.696   5.400
 3333POPC   PO443716   7.972  30.033   5.422
 3333POPC   GL143717   7.924  30.019   5.837
 3333POPC   GL243718   8.312  30.037   5.882
 3333POPC   C1A43719   7.940  30.145   6.266
 3333POPC   D2A43720   8.101  30.035   6.664
 3333POPC   C3A43721   7.825  30.014   7.009
 3333POPC   C4A43722   7.870  29.787   7.398
 3333POPC   C1B43723   8.492  29.974   6.319
 3333POPC   C2B43724   8.581  29.865   6.767
 3333POPC   C3B43725   8.297  29.866   7.126
 3333POPC   C4B43726   8.368  29.836   7.588
 3334POPC   NC343727  32.069  12.864   5.509
 3334POPC   PO443728  32.672  12.530   5.422
 3334POPC   GL143729  32.463  12.665   5.804
 3334POPC   GL243730  32.316  12.994   5.923
 3334POPC   C1A43731  32.265  12.543   6.173
 3334POPC   D2A43732  32.437  12.396   6.520
 3334POPC   C3A43733  32.487  12.702   6.819
 3334POPC   C4A43734  32.652  12.640   7.223
 3334POPC   C1B43735  32.338  13.008   6.360
 3334POPC   C2B43736  32.324  13.197   6.731
 3334POPC   C3B43737  32.501  13.128   7.101
 3334POPC   C4B43738  32.183  12.853   7.239
 3335POPC   NC343739   2.463  24.957   5.366
 3335POPC   PO443740   2.934  25.364   5.279
 3335POPC   GL143741   2.662  25.350   5.691
 3335POPC   GL243742   2.343  25.149   5.834
 3335POPC   C1A43743   2.732  25.274   6.147
 3335POPC   D2A43744   2.576  25.417   6.545
 3335POPC   C3A43745   2.700  25.304   6.951
 3335POPC   C4A43746   2.535  25.205   7.352
 3335POPC   C1B43747   2.324  25.002   6.307
 3335POPC   C2B43748   2.544  24.885   6.706
 3335POPC   C3B43749   2.814  24.829   7.107
 3335POPC   C4B43750   2.808  24.565   7.473
 3336POPC   NC343751  14.315  18.743   5.393
 3336POPC   PO443752  13.965  19.392   5.396
 3336POPC   GL143753  14.245  19.154   5.719
 3336POPC   GL243754  14.086  18.822   5.820
 3336POPC   C1A43755  14.286  19.114   6.198
 3336POPC   D2A43756  14.490  19.109   6.621
 3336POPC   C3A43757  14.356  19.309   7.014
 3336POPC   C4A43758  14.461  19.163   7.418
 3336POPC   C1B43759  14.140  18.590   6.168
 3336POPC   C2B43760  14.219  18.665   6.585
 3336POPC   C3B43761  14.072  18.898   6.908
 3336POPC   C4B43762  14.067  18.863   7.329
 3337POPC   NC343763  13.016   6.212   5.322
 3337POPC   PO443764  12.925   5.654   5.234
 3337POPC   GL143765  12.710   5.874   5.686
 3337POPC   GL243766  12.904   5.732   6.026
 3337POPC   C1A43767  12.596   6.085   6.120
 3337POPC   D2A43768  12.621   5.831   6.490
 3337POPC   C3A43769  12.690   6.037   6.875
 3337POPC   C4A43770  12.780   5.890   7.318
 3337POPC   C1B43771  13.107   5.978   6.346
 3337POPC   C2B43772  13.177   5.893   6.777
 3337POPC   C3B43773  13.137   6.192   7.074
 3337POPC   C4B43774  13.121   6.217   7.503
 3338POPC   NC343775  14.230  39.640   5.408
 3338POPC   PO443776  14.643  40.221   5.500
 3338POPC   GL143777  14.496  39.969   5.834
 3338POPC   GL243778  14.811  39.805   5.990
 3338POPC   C1A43779  14.218  39.700   6.115
 3338POPC   D2A43780  14.309  39.543   6.520
 3338POPC   C3A43781  14.139  39.668   6.891
 3338POPC   C4A43782  14.253  39.581   7.282
 3338POPC   C1B43783  14.575  39.958   6.360
 3338POPC   C2B43784  14.548  39.959   6.796
 3338POPC   C3B43785  14.350  40.077   7.184
 3338POPC   C4B43786  14.306  40.483   7.434
 3339POPC   NC343787  28.808  31.859   5.421
 3339POPC   PO443788  29.100  31.255   5.153
 3339POPC   GL143789  29.236  31.310   5.639
 3339POPC   GL243790  29.163  31.623   5.744
 3339POPC   C1A43791  29.146  31.259   6.105
 3339POPC   D2A43792  29.016  31.401   6.519
 3339POPC   C3A43793  29.216  31.229   6.877
 3339POPC   C4A43794  29.159  31.211   7.304
 3339POPC   C1B43795  29.124  31.792   6.172
 3339POPC   C2B43796  29.102  31.901   6.599
 3339POPC   C3B43797  28.952  31.695   6.972
 3339POPC   C4B43798  28.840  32.023   7.291
 3340POPC   NC343799  38.622  14.714   5.425
 3340POPC   PO443800  38.310  14.129   5.174
 3340POPC   GL143801  38.436  14.269   5.651
 3340POPC   GL243802  38.615  14.020   5.853
 3340POPC   C1A43803  38.618  14.485   6.073
 3340POPC   D2A43804  38.634  14.311   6.529
 3340POPC   C3A43805  38.771  14.510   6.914
 3340POPC   C4A43806  38.616  14.656   7.315
 3340POPC   C1B43807  38.300  14.101   6.187
 3340POPC   C2B43808  38.090  14.282   6.554
 3340POPC   C3B43809  38.266  14.352   6.948
 3340POPC   C4B43810  38.567  14.138   7.217
 3341POPC   NC343811  28.518  18.288   5.498
 3341POPC   PO443812  27.860  18.456   5.245
 3341POPC   GL143813  27.967  18.279   5.711
 3341POPC   GL243814  28.065  17.909   5.729
 3341POPC   C1A43815  28.088  18.401   6.179
 3341POPC   D2A43816  28.348  18.521   6.561
 3341POPC   C3A43817  28.535  18.269   6.889
 3341POPC   C4A43818  28.698  18.094   7.273
 3341POPC   C1B43819  28.281  17.941   6.129
 3341POPC   C2B43820  28.166  18.011   6.571
 3341POPC   C3B43821  28.028  18.282   6.907
 3341POPC   C4B43822  28.219  18.356   7.319
 3342POPC   NC343823  24.329  34.288   5.514
 3342POPC   PO443824  24.324  34.902   5.321
 3342POPC   GL143825  24.502  34.759   5.731
 3342POPC   GL243826  24.325  34.510   5.976
 3342POPC   C1A43827  24.752  34.899   6.097
 3342POPC   D2A43828  24.686  35.014   6.518
 3342POPC   C3A43829  24.727  34.668   6.794
 3342POPC   C4A43830  24.717  34.418   7.152
 3342POPC   C1B43831  24.312  34.582   6.432
 3342POPC   C2B43832  24.242  34.535   6.882
 3342POPC   C3B43833  24.239  34.538   7.324
 3342POPC   C4B43834  24.152  34.737   7.767
 3343POPC   NC343835  35.571  24.735   5.583
 3343POPC   PO443836  35.122  24.194   5.379
 3343POPC   GL143837  35.246  24.373   5.763
 3343POPC   GL243838  35.558  24.319   5.945
 3343POPC   C1A43839  35.106  24.483   6.170
 3343POPC   D2A43840  34.963  24.216   6.486
 3343POPC   C3A43841  35.028  24.423   6.844
 3343POPC   C4A43842  35.053  24.734   7.154
 3343POPC   C1B43843  35.767  24.615   6.239
 3343POPC   C2B43844  35.725  24.787   6.679
 3343POPC   C3B43845  35.510  24.566   7.019
 3343POPC   C4B43846  35.340  24.169   7.164
 3344POPC   NC343847   6.733  44.198   5.446
 3344POPC   PO443848   6.686  44.887   5.317
 3344POPC   GL143849   6.551  44.648   5.716
 3344POPC   GL243850   6.299  44.371   5.761
 3344POPC   C1A43851   6.634  44.615   6.180
 3344POPC   D2A43852   6.751  44.804   6.574
 3344POPC   C3A43853   6.564  44.661   6.939
 3344POPC   C4A43854   6.667  44.679   7.372
 3344POPC   C1B43855   6.373  44.156   6.161
 3344POPC   C2B43856   6.341  44.326   6.578
 3344POPC   C3B43857   6.418  44.191   7.015
 3344POPC   C4B43858   6.377  44.193   7.462
 3345POPC   NC343859  25.928   9.289   5.388
 3345POPC   PO443860  26.201   8.605   5.445
 3345POPC   GL143861  26.086   8.890   5.743
 3345POPC   GL243862  26.322   9.127   5.817
 3345POPC   C1A43863  26.012   8.919   6.191
 3345POPC   D2A43864  25.742   8.771   6.521
 3345POPC   C3A43865  25.828   8.952   6.912
 3345POPC   C4A43866  25.746   8.838   7.344
 3345POPC   C1B43867  26.348   9.332   6.257
 3345POPC   C2B43868  26.351   9.152   6.691
 3345POPC   C3B43869  26.203   9.262   7.095
 3345POPC   C4B43870  26.221   9.098   7.536
 3346POPC   NC343871  12.323   9.535   5.532
 3346POPC   PO443872  12.349   8.907   5.324
 3346POPC   GL143873  12.236   9.062   5.752
 3346POPC   GL243874  11.891   9.238   5.730
 3346POPC   C1A43875  12.240   8.907   6.202
 3346POPC   D2A43876  12.115   8.788   6.619
 3346POPC   C3A43877  12.360   8.846   6.974
 3346POPC   C4A43878  12.246   8.763   7.348
 3346POPC   C1B43879  11.786   9.196   6.171
 3346POPC   C2B43880  11.979   9.306   6.571
 3346POPC   C3B43881  11.971   9.167   6.997
 3346POPC   C4B43882  12.277   9.268   7.290
 3347POPC   NC343883  43.521   0.498   5.585
 3347POPC   PO443884  43.858  44.935   5.528
 3347POPC   GL143885  43.909   0.259   5.851
 3347POPC   GL243886  44.050   0.562   5.702
 3347POPC   C1A43887  43.812   0.357   6.277
 3347POPC   D2A43888  43.665   0.515   6.674
 3347POPC   C3A43889  43.834   0.340   7.002
 3347POPC   C4A43890  43.663   0.328   7.382
 3347POPC   C1B43891  44.190   0.685   6.100
 3347POPC   C2B43892  44.029   0.802   6.486
 3347POPC   C3B43893  44.132   0.767   6.916
 3347POPC   C4B43894  44.076   0.640   7.349
 3348POPC   NC343895  31.771  13.698   5.365
 3348POPC   PO443896  31.082  13.573   5.520
 3348POPC   GL143897  31.447  13.744   5.778
 3348POPC   GL243898  31.688  13.459   5.837
 3348POPC   C1A43899  31.572  13.776   6.234
 3348POPC   D2A43900  31.380  13.556   6.594
 3348POPC   C3A43901  31.485  13.649   7.009
 3348POPC   C4A43902  31.352  13.583   7.414
 3348POPC   C1B43903  31.973  13.395   6.209
 3348POPC   C2B43904  31.926  13.503   6.650
 3348POPC   C3B43905  31.918  13.308   7.062
 3348POPC   C4B43906  31.727  13.252   7.484
 3349POPC   NC343907  35.964  37.399   5.401
 3349POPC   PO443908  36.515  37.757   5.215
 3349POPC   GL143909  36.319  37.796   5.640
 3349POPC   GL243910  35.962  37.746   5.784
 3349POPC   C1A43911  36.348  37.857   6.099
 3349POPC   D2A43912  36.372  37.970   6.557
 3349POPC   C3A43913  36.227  37.639   6.854
 3349POPC   C4A43914  36.089  37.441   7.250
 3349POPC   C1B43915  35.780  37.908   6.187
 3349POPC   C2B43916  35.599  37.872   6.613
 3349POPC   C3B43917  35.768  37.797   7.048
 3349POPC   C4B43918  36.067  37.922   7.384
 3350POPC   NC343919   9.252  20.707   5.310
 3350POPC   PO443920   9.789  20.348   5.454
 3350POPC   GL143921   9.541  20.593   5.731
 3350POPC   GL243922   9.841  20.733   5.866
 3350POPC   C1A43923   9.447  20.618   6.153
 3350POPC   D2A43924   9.594  20.907   6.465
 3350POPC   C3A43925   9.514  20.829   6.879
 3350POPC   C4A43926   9.432  20.552   7.231
 3350POPC   C1B43927   9.997  20.612   6.257
 3350POPC   C2B43928  10.011  20.666   6.689
 3350POPC   C3B43929   9.924  20.601   7.070
 3350POPC   C4B43930   9.773  20.913   7.318
 3351POPC   NC343931  44.290  17.982   5.493
 3351POPC   PO443932  44.869  18.374   5.485
 3351POPC   GL143933  44.581  18.309   5.802
 3351POPC   GL243934  44.680  17.974   5.810
 3351POPC   C1A43935  44.537  18.422   6.246
 3351POPC   D2A43936  44.371  18.223   6.635
 3351POPC   C3A43937  44.673  18.249   6.977
 3351POPC   C4A43938  44.533  18.578   7.247
 3351POPC   C1B43939  44.452  17.906   6.188
 3351POPC   C2B43940  44.563  17.741   6.587
 3351POPC   C3B43941  44.369  17.810   6.963
 3351POPC   C4B43942  44.256  18.114   7.236
 3352POPC   NC343943  30.998  37.332   5.506
 3352POPC   PO443944  30.678  37.855   5.426
 3352POPC   GL143945  30.797  37.769   5.865
 3352POPC   GL243946  31.049  37.501   5.992
 3352POPC   C1A43947  30.720  37.717   6.303
 3352POPC   D2A43948  30.870  37.556   6.681
 3352POPC   C3A43949  30.745  37.846   6.979
 3352POPC   C4A43950  30.529  37.736   7.326
 3352POPC   C1B43951  30.829  37.213   6.301
 3352POPC   C2B43952  30.619  37.078   6.709
 3352POPC   C3B43953  30.737  37.288   7.108
 3352POPC   C4B43954  31.155  37.387   7.228
 3353POPC   NC343955  18.098  41.628   4.983
 3353POPC   PO443956  18.144  41.471   5.616
 3353POPC   GL143957  18.449  41.470   5.932
 3353POPC   GL243958  18.430  41.836   5.938
 3353POPC   C1A43959  18.543  41.377   6.393
 3353POPC   D2A43960  18.335  41.187   6.768
 3353POPC   C3A43961  18.346  41.434   7.152
 3353POPC   C4A43962  18.463  41.482   7.594
 3353POPC   C1B43963  18.149  41.693   6.281
 3353POPC   C2B43964  18.221  41.692   6.728
 3353POPC   C3B43965  18.006  41.807   7.126
 3353POPC   C4B43966  18.143  41.888   7.547
 3354POPC   NC343967  22.779  13.847   5.618
 3354POPC   PO443968  23.066  13.293   5.530
 3354POPC   GL143969  22.973  13.460   5.904
 3354POPC   GL243970  23.199  13.755   5.918
 3354POPC   C1A43971  22.632  13.492   6.190
 3354POPC   D2A43972  22.613  13.652   6.598
 3354POPC   C3A43973  22.596  13.464   7.020
 3354POPC   C4A43974  22.806  13.565   7.438
 3354POPC   C1B43975  23.097  13.682   6.348
 3354POPC   C2B43976  23.212  13.892   6.747
 3354POPC   C3B43977  23.031  13.942   7.153
 3354POPC   C4B43978  23.076  14.017   7.617
 3355POPC   NC343979  30.409  11.497   5.167
 3355POPC   PO443980  30.821  11.070   5.504
 3355POPC   GL143981  30.679  11.367   5.793
 3355POPC   GL243982  30.358  11.496   5.683
 3355POPC   C1A43983  30.853  11.452   6.206
 3355POPC   D2A43984  30.950  11.249   6.599
 3355POPC   C3A43985  30.922  11.504   6.961
 3355POPC   C4A43986  31.074  11.463   7.344
 3355POPC   C1B43987  30.373  11.616   6.125
 3355POPC   C2B43988  30.419  11.386   6.520
 3355POPC   C3B43989  30.419  11.537   6.933
 3355POPC   C4B43990  30.438  11.329   7.303
 3356POPC   NC343991  44.008  27.397   5.373
 3356POPC   PO443992  43.851  28.020   5.169
 3356POPC   GL143993  43.788  27.764   5.635
 3356POPC   GL243994  44.112  27.577   5.829
 3356POPC   C1A43995  43.710  27.680   6.101
 3356POPC   D2A43996  43.966  27.580   6.466
 3356POPC   C3A43997  43.857  27.751   6.863
 3356POPC   C4A43998  43.726  27.772   7.287
 3356POPC   C1B43999  44.328  27.325   6.168
 3356POPC   C2B44000  44.187  27.111   6.554
 3356POPC   C3B44001  43.861  27.230   6.828
 3356POPC   C4B44002  44.072  27.402   7.182
 3357POPC   NC344003  25.466   4.304   5.317
 3357POPC   PO444004  26.111   4.599   5.422
 3357POPC   GL144005  25.929   4.413   5.807
 3357POPC   GL244006  26.159   4.161   5.946
 3357POPC   C1A44007  25.848   4.352   6.284
 3357POPC   D2A44008  26.135   4.434   6.634
 3357POPC   C3A44009  25.934   4.360   7.060
 3357POPC   C4A44010  25.875   4.167   7.492
 3357POPC   C1B44011  26.317   4.034   6.351
 3357POPC   C2B44012  26.326   3.971   6.813
 3357POPC   C3B44013  26.368   4.139   7.261
 3357POPC   C4B44014  26.347   4.222   7.719
 3358POPC   NC344015  34.050  17.338   5.483
 3358POPC   PO444016  33.794  17.950   5.281
 3358POPC   GL144017  33.693  17.673   5.625
 3358POPC   GL244018  33.669  17.394   5.840
 3358POPC   C1A44019  33.960  17.743   6.040
 3358POPC   D2A44020  33.922  17.566   6.462
 3358POPC   C3A44021  34.070  17.831   6.792
 3358POPC   C4A44022  34.017  17.648   7.195
 3358POPC   C1B44023  33.630  17.137   6.166
 3358POPC   C2B44024  33.448  17.110   6.565
 3358POPC   C3B44025  33.636  17.312   6.892
 3358POPC   C4B44026  33.846  17.169   7.228
 3359POPC   NC344027  23.130  31.654   5.655
 3359POPC   PO444028  23.744  31.506   5.308
 3359POPC   GL144029  23.823  31.440   5.764
 3359POPC   GL244030  24.082  31.683   5.793
 3359POPC   C1A44031  23.762  31.432   6.229
 3359POPC   D2A44032  23.630  31.247   6.624
 3359POPC   C3A44033  23.670  31.471   7.025
 3359POPC   C4A44034  23.615  31.230   7.409
 3359POPC   C1B44035  24.171  31.764   6.232
 3359POPC   C2B44036  23.987  31.727   6.633
 3359POPC   C3B44037  24.139  31.703   7.031
 3359POPC   C4B44038  23.991  31.578   7.401
 3360POPC   NC344039   6.182  30.092   5.448
 3360POPC   PO444040   5.906  29.572   5.289
 3360POPC   GL144041   5.855  29.566   5.804
 3360POPC   GL244042   6.004  29.901   5.879
 3360POPC   C1A44043   5.957  29.624   6.292
 3360POPC   D2A44044   6.074  29.536   6.744
 3360POPC   C3A44045   5.809  29.809   7.020
 3360POPC   C4A44046   5.701  29.884   7.435
 3360POPC   C1B44047   6.091  30.288   6.137
 3360POPC   C2B44048   5.871  30.462   6.492
 3360POPC   C3B44049   5.792  30.345   6.914
 3360POPC   C4B44050   5.926  30.344   7.332
 3361POPC   NC344051  13.391  40.134   5.377
 3361POPC   PO444052  13.780  39.678   5.363
 3361POPC   GL144053  13.881  39.823   5.765
 3361POPC   GL244054  13.882  40.172   5.745
 3361POPC   C1A44055  13.718  39.967   6.180
 3361POPC   D2A44056  13.602  40.213   6.554
 3361POPC   C3A44057  13.666  39.967   6.884
 3361POPC   C4A44058  13.825  39.860   7.245
 3361POPC   C1B44059  14.144  40.217   6.133
 3361POPC   C2B44060  14.093  40.080   6.574
 3361POPC   C3B44061  13.993  40.354   6.962
 3361POPC   C4B44062  13.802  40.362   7.415
 3362POPC   NC344063  43.851   5.856   5.209
 3362POPC   PO444064  43.522   6.151   5.714
 3362POPC   GL144065  43.878   6.082   5.930
 3362POPC   GL244066  43.972   5.775   5.735
 3362POPC   C1A44067  43.926   6.151   6.385
 3362POPC   D2A44068  43.984   5.963   6.810
 3362POPC   C3A44069  43.785   6.165   7.181
 3362POPC   C4A44070  44.042   6.304   7.580
 3362POPC   C1B44071  43.895   5.613   6.155
 3362POPC   C2B44072  43.623   5.429   6.462
 3362POPC   C3B44073  43.698   5.525   6.866
 3362POPC   C4B44074  43.806   5.654   7.251
 3363POPC   NC344075  17.663  13.874   5.417
 3363POPC   PO444076  17.472  13.264   5.493
 3363POPC   GL144077  17.275  13.477   5.842
 3363POPC   GL244078  17.260  13.825   5.729
 3363POPC   C1A44079  17.286  13.575   6.315
 3363POPC   D2A44080  17.670  13.647   6.589
 3363POPC   C3A44081  17.574  13.739   7.021
 3363POPC   C4A44082  17.210  13.577   7.206
 3363POPC   C1B44083  17.381  14.026   6.089
 3363POPC   C2B44084  17.226  14.090   6.485
 3363POPC   C3B44085  17.115  13.891   6.820
 3363POPC   C4B44086  17.188  14.078   7.220
 3364POPC   NC344087  41.789   4.925   5.444
 3364POPC   PO444088  41.333   5.479   5.328
 3364POPC   GL144089  41.588   5.304   5.749
 3364POPC   GL244090  41.934   5.132   5.892
 3364POPC   C1A44091  41.574   5.275   6.207
 3364POPC   D2A44092  41.494   4.970   6.526
 3364POPC   C3A44093  41.424   5.081   6.948
 3364POPC   C4A44094  41.171   4.849   7.208
 3364POPC   C1B44095  41.987   4.854   6.281
 3364POPC   C2B44096  41.898   4.676   6.691
 3364POPC   C3B44097  41.772   4.760   7.120
 3364POPC   C4B44098  41.783   5.207   7.315
 3365POPC   NC344099  34.381   0.387   5.462
 3365POPC   PO444100  34.838   0.916   5.407
 3365POPC   GL144101  34.794   0.741   5.802
 3365POPC   GL244102  34.450   0.747   5.861
 3365POPC   C1A44103  34.755   0.423   6.160
 3365POPC   D2A44104  34.553   0.228   6.539
 3365POPC   C3A44105  34.643   0.356   6.964
 3365POPC   C4A44106  34.671   0.448   7.414
 3365POPC   C1B44107  34.317   0.640   6.290
 3365POPC   C2B44108  34.155   0.514   6.687
 3365POPC   C3B44109  34.250   0.656   7.054
 3365POPC   C4B44110  34.312   0.806   7.458
 3366POPC   NC344111   6.559  11.089   5.503
 3366POPC   PO444112   6.758  11.670   5.406
 3366POPC   GL144113   6.740  11.439   5.808
 3366POPC   GL244114   6.489  11.548   6.042
 3366POPC   C1A44115   6.797  11.143   6.144
 3366POPC   D2A44116   6.592  11.220   6.509
 3366POPC   C3A44117   6.565  10.899   6.807
 3366POPC   C4A44118   6.525  11.189   7.113
 3366POPC   C1B44119   6.919  11.614   6.251
 3366POPC   C2B44120   7.143  11.585   6.610
 3366POPC   C3B44121   6.959  11.450   6.987
 3366POPC   C4B44122   6.957  11.613   7.384
 3367POPC   NC344123  28.418  44.492   5.328
 3367POPC   PO444124  28.005  44.999   5.480
 3367POPC   GL144125  28.324  44.739   5.772
 3367POPC   GL244126  28.622  44.514   5.807
 3367POPC   C1A44127  28.196  44.494   6.148
 3367POPC   D2A44128  27.949  44.645   6.501
 3367POPC   C3A44129  28.197  44.737   6.862
 3367POPC   C4A44130  28.237  44.699   7.300
 3367POPC   C1B44131  28.682  44.364   6.237
 3367POPC   C2B44132  28.449  44.285   6.631
 3367POPC   C3B44133  28.561  44.363   7.057
 3367POPC   C4B44134  28.557  44.330   7.512
 3368POPC   NC344135  28.769  30.932   5.048
 3368POPC   PO444136  29.258  30.832   5.513
 3368POPC   GL144137  29.304  30.624   5.885
 3368POPC   GL244138  29.017  30.432   5.903
 3368POPC   C1A44139  29.124  30.769   6.281
 3368POPC   D2A44140  28.848  30.921   6.606
 3368POPC   C3A44141  28.958  30.794   7.007
 3368POPC   C4A44142  29.366  30.763   7.145
 3368POPC   C1B44143  28.794  30.327   6.264
 3368POPC   C2B44144  28.576  30.497   6.583
 3368POPC   C3B44145  28.675  30.366   6.972
 3368POPC   C4B44146  28.914  30.416   7.355
 3369POPC   NC344147  20.240  43.289   5.718
 3369POPC   PO444148  20.648  42.817   5.376
 3369POPC   GL144149  20.640  42.952   5.812
 3369POPC   GL244150  20.335  42.771   5.886
 3369POPC   C1A44151  20.782  43.288   6.166
 3369POPC   D2A44152  20.630  43.362   6.655
 3369POPC   C3A44153  20.753  43.236   7.125
 3369POPC   C4A44154  20.855  43.261   7.615
 3369POPC   C1B44155  20.426  42.958   6.285
 3369POPC   C2B44156  20.485  42.854   6.683
 3369POPC   C3B44157  20.518  42.754   7.063
 3369POPC   C4B44158  20.530  42.908   7.461
 3370POPC   NC344159  23.432   0.999   5.483
 3370POPC   PO444160  23.963   1.361   5.477
 3370POPC   GL144161  23.674   1.326   5.793
 3370POPC   GL244162  23.835   1.005   5.834
 3370POPC   C1A44163  23.476   1.175   6.183
 3370POPC   D2A44164  23.615   0.919   6.542
 3370POPC   C3A44165  23.579   1.064   6.963
 3370POPC   C4A44166  23.897   1.306   7.103
 3370POPC   C1B44167  23.999   1.233   6.196
 3370POPC   C2B44168  24.123   1.217   6.634
 3370POPC   C3B44169  24.047   0.863   6.862
 3370POPC   C4B44170  24.074   0.866   7.273
 3371POPC   NC344171  33.865  43.634   5.433
 3371POPC   PO444172  34.037  44.310   5.386
 3371POPC   GL144173  33.905  43.991   5.806
 3371POPC   GL244174  33.704  43.616   5.897
 3371POPC   C1A44175  34.004  43.804   6.251
 3371POPC   D2A44176  34.087  43.994   6.648
 3371POPC   C3A44177  33.987  43.882   7.083
 3371POPC   C4A44178  34.009  44.162   7.462
 3371POPC   C1B44179  33.485  43.744   6.259
 3371POPC   C2B44180  33.628  43.770   6.674
 3371POPC   C3B44181  33.527  43.625   7.078
 3371POPC   C4B44182  33.218  43.820   7.348
 3372POPC   NC344183  20.186  41.799   5.587
 3372POPC   PO444184  19.780  42.321   5.354
 3372POPC   GL144185  19.631  42.287   5.759
 3372POPC   GL244186  19.900  42.222   5.951
 3372POPC   C1A44187  19.517  42.460   6.182
 3372POPC   D2A44188  19.686  42.419   6.593
 3372POPC   C3A44189  19.680  42.743   6.902
 3372POPC   C4A44190  19.689  42.489   7.264
 3372POPC   C1B44191  20.185  42.165   6.302
 3372POPC   C2B44192  20.316  42.382   6.681
 3372POPC   C3B44193  20.203  42.359   7.112
 3372POPC   C4B44194  19.958  42.035   7.246
 3373POPC   NC344195  25.896  28.279   5.385
 3373POPC   PO444196  26.396  27.878   5.404
 3373POPC   GL144197  26.252  28.257   5.742
 3373POPC   GL244198  25.893  28.357   5.881
 3373POPC   C1A44199  26.272  28.441   6.205
 3373POPC   D2A44200  25.998  28.524   6.607
 3373POPC   C3A44201  26.178  28.551   7.063
 3373POPC   C4A44202  26.221  28.381   7.494
 3373POPC   C1B44203  25.634  28.573   6.217
 3373POPC   C2B44204  25.541  28.752   6.651
 3373POPC   C3B44205  25.683  28.543   7.026
 3373POPC   C4B44206  25.545  28.437   7.430
 3374POPC   NC344207  36.573  22.910   5.137
 3374POPC   PO444208  37.005  22.538   5.512
 3374POPC   GL144209  36.970  22.625   5.952
 3374POPC   GL244210  36.775  22.336   6.003
 3374POPC   C1A44211  36.944  22.949   6.297
 3374POPC   D2A44212  36.751  23.287   6.547
 3374POPC   C3A44213  36.760  23.233   6.964
 3374POPC   C4A44214  37.089  23.136   7.239
 3374POPC   C1B44215  36.578  22.547   6.344
 3374POPC   C2B44216  36.622  22.803   6.707
 3374POPC   C3B44217  36.710  22.748   7.148
 3374POPC   C4B44218  36.762  22.392   7.411
 3375POPC   NC344219   9.517  40.262   5.577
 3375POPC   PO444220   9.789  39.747   5.179
 3375POPC   GL144221   9.918  39.936   5.652
 3375POPC   GL244222   9.617  39.911   5.919
 3375POPC   C1A44223   9.992  40.140   6.111
 3375POPC   D2A44224   9.728  40.065   6.507
 3375POPC   C3A44225   9.882  40.149   6.931
 3375POPC   C4A44226   9.653  40.384   7.232
 3375POPC   C1B44227   9.699  39.635   6.219
 3375POPC   C2B44228   9.995  39.627   6.537
 3375POPC   C3B44229   9.805  39.649   6.910
 3375POPC   C4B44230   9.668  39.601   7.285
 3376POPC   NC344231  32.385  21.904   5.404
 3376POPC   PO444232  31.724  21.947   5.462
 3376POPC   GL144233  31.966  22.082   5.847
 3376POPC   GL244234  32.332  22.116   5.856
 3376POPC   C1A44235  32.052  21.945   6.276
 3376POPC   D2A44236  32.397  21.906   6.553
 3376POPC   C3A44237  32.234  22.054   6.924
 3376POPC   C4A44238  32.132  21.881   7.297
 3376POPC   C1B44239  32.272  22.406   6.175
 3376POPC   C2B44240  32.122  22.404   6.573
 3376POPC   C3B44241  32.192  22.582   6.979
 3376POPC   C4B44242  32.099  22.388   7.321
 3377POPC   NC344243  40.011   3.493   5.499
 3377POPC   PO444244  39.301   3.415   5.394
 3377POPC   GL144245  39.621   3.496   5.844
 3377POPC   GL244246  39.910   3.759   5.917
 3377POPC   C1A44247  39.830   3.476   6.304
 3377POPC   D2A44248  40.162   3.341   6.609
 3377POPC   C3A44249  39.940   3.419   7.002
 3377POPC   C4A44250  39.871   3.574   7.421
 3377POPC   C1B44251  40.216   3.799   6.260
 3377POPC   C2B44252  40.137   3.844   6.713
 3377POPC   C3B44253  40.406   3.692   7.056
 3377POPC   C4B44254  40.383   3.632   7.515
 3378POPC   NC344255  24.633  35.972   5.412
 3378POPC   PO444256  24.172  36.496   5.466
 3378POPC   GL144257  24.386  36.280   5.795
 3378POPC   GL244258  24.708  36.322   5.884
 3378POPC   C1A44259  24.373  36.070   6.185
 3378POPC   D2A44260  24.431  36.213   6.604
 3378POPC   C3A44261  24.472  35.871   6.864
 3378POPC   C4A44262  24.385  35.899   7.273
 3378POPC   C1B44263  24.859  36.243   6.281
 3378POPC   C2B44264  24.921  36.117   6.692
 3378POPC   C3B44265  24.759  36.253   7.066
 3378POPC   C4B44266  24.786  36.172   7.478
 3379POPC   NC344267   6.474  24.800   5.584
 3379POPC   PO444268   7.010  25.149   5.469
 3379POPC   GL144269   6.811  25.172   5.857
 3379POPC   GL244270   6.496  25.260   5.785
 3379POPC   C1A44271   6.790  25.241   6.301
 3379POPC   D2A44272   6.943  25.525   6.632
 3379POPC   C3A44273   6.870  25.395   7.051
 3379POPC   C4A44274   7.036  25.391   7.444
 3379POPC   C1B44275   6.380  25.475   6.109
 3379POPC   C2B44276   6.411  25.473   6.556
 3379POPC   C3B44277   6.439  25.657   6.959
 3379POPC   C4B44278   6.188  25.680   7.348
 3380POPC   NC344279  37.712  20.164   5.436
 3380POPC   PO444280  37.425  19.550   5.496
 3380POPC   GL144281  37.690  19.760   5.786
 3380POPC   GL244282  37.539  20.081   5.896
 3380POPC   C1A44283  37.919  19.876   6.167
 3380POPC   D2A44284  37.725  19.798   6.573
 3380POPC   C3A44285  37.898  19.890   6.997
 3380POPC   C4A44286  37.775  19.924   7.468
 3380POPC   C1B44287  37.328  20.090   6.290
 3380POPC   C2B44288  37.231  19.963   6.702
 3380POPC   C3B44289  37.396  19.814   7.087
 3380POPC   C4B44290  37.191  19.825   7.470
 3381POPC   NC344291  23.055   7.161   5.162
 3381POPC   PO444292  23.632   7.512   5.462
 3381POPC   GL144293  23.796   7.203   5.783
 3381POPC   GL244294  23.630   7.432   5.990
 3381POPC   C1A44295  24.024   7.160   6.180
 3381POPC   D2A44296  24.174   7.347   6.570
 3381POPC   C3A44297  23.872   7.339   6.901
 3381POPC   C4A44298  23.826   7.101   7.281
 3381POPC   C1B44299  23.516   7.711   6.323
 3381POPC   C2B44300  23.734   8.011   6.596
 3381POPC   C3B44301  23.783   7.883   7.023
 3381POPC   C4B44302  23.524   7.565   7.241
 3382POPC   NC344303  42.606   7.446   5.218
 3382POPC   PO444304  42.134   7.088   5.463
 3382POPC   GL144305  42.272   7.279   5.829
 3382POPC   GL244306  42.190   7.640   5.909
 3382POPC   C1A44307  42.393   7.311   6.259
 3382POPC   D2A44308  42.195   7.608   6.552
 3382POPC   C3A44309  42.140   7.428   6.945
 3382POPC   C4A44310  42.371   7.243   7.288
 3382POPC   C1B44311  42.528   7.787   6.170
 3382POPC   C2B44312  42.710   7.618   6.582
 3382POPC   C3B44313  42.597   7.656   7.035
 3382POPC   C4B44314  42.489   7.743   7.458
 3383POPC   NC344315  34.615  24.408   5.474
 3383POPC   PO444316  34.059  24.805   5.376
 3383POPC   GL144317  34.260  24.682   5.772
 3383POPC   GL244318  34.244  24.370   5.855
 3383POPC   C1A44319  34.577  24.628   6.149
 3383POPC   D2A44320  34.765  24.756   6.543
 3383POPC   C3A44321  34.577  24.663   6.946
 3383POPC   C4A44322  34.593  24.721   7.374
 3383POPC   C1B44323  34.220  24.289   6.275
 3383POPC   C2B44324  34.468  24.278   6.630
 3383POPC   C3B44325  34.380  24.198   7.050
 3383POPC   C4B44326  34.154  24.481   7.236
 3384POPC   NC344327  30.129  12.684   5.500
 3384POPC   PO444328  29.813  13.311   5.639
 3384POPC   GL144329  30.117  13.091   5.876
 3384POPC   GL244330  29.990  12.769   5.975
 3384POPC   C1A44331  30.295  13.009   6.273
 3384POPC   D2A44332  30.102  12.764   6.579
 3384POPC   C3A44333  30.264  12.843   6.958
 3384POPC   C4A44334  30.087  12.866   7.343
 3384POPC   C1B44335  29.787  12.493   6.260
 3384POPC   C2B44336  29.912  12.290   6.638
 3384POPC   C3B44337  29.944  12.461   7.019
 3384POPC   C4B44338  29.604  12.553   7.236
 3385POPC   NC344339  21.133   7.421   5.395
 3385POPC   PO444340  21.763   7.179   5.301
 3385POPC   GL144341  21.539   7.252   5.738
 3385POPC   GL244342  21.343   7.549   5.845
 3385POPC   C1A44343  21.298   7.104   6.124
 3385POPC   D2A44344  21.145   7.311   6.505
 3385POPC   C3A44345  21.348   7.236   6.910
 3385POPC   C4A44346  21.520   7.411   7.305
 3385POPC   C1B44347  21.670   7.539   6.164
 3385POPC   C2B44348  21.607   7.596   6.601
 3385POPC   C3B44349  21.786   7.714   6.980
 3385POPC   C4B44350  21.994   7.845   7.335
 3386POPC   NC344351  16.166   2.105   5.125
 3386POPC   PO444352  15.557   1.932   5.287
 3386POPC   GL144353  15.859   2.039   5.637
 3386POPC   GL244354  15.726   1.782   5.822
 3386POPC   C1A44355  15.948   2.124   6.132
 3386POPC   D2A44356  15.936   1.911   6.539
 3386POPC   C3A44357  16.034   2.093   6.920
 3386POPC   C4A44358  15.888   2.151   7.306
 3386POPC   C1B44359  15.656   1.626   6.226
 3386POPC   C2B44360  15.604   1.506   6.658
 3386POPC   C3B44361  15.650   1.779   7.015
 3386POPC   C4B44362  15.787   1.677   7.431
 3387POPC   NC344363  42.100  43.707   5.126
 3387POPC   PO444364  42.351  43.188   5.439
 3387POPC   GL144365  42.354  43.135   5.843
 3387POPC   GL244366  41.991  43.085   5.819
 3387POPC   C1A44367  42.614  43.217   6.208
 3387POPC   D2A44368  42.812  43.124   6.607
 3387POPC   C3A44369  42.564  43.129   6.980
 3387POPC   C4A44370  42.460  43.370   7.319
 3387POPC   C1B44371  42.095  42.913   6.206
 3387POPC   C2B44372  41.932  42.813   6.566
 3387POPC   C3B44373  41.956  43.044   6.915
 3387POPC   C4B44374  42.154  42.941   7.244
 3388POPC   NC344375  44.889  41.309   5.731
 3388POPC   PO444376  44.349  41.388   5.320
 3388POPC   GL144377  44.328  41.576   5.806
 3388POPC   GL244378  44.620  41.740   5.865
 3388POPC   C1A44379  44.486  41.543   6.297
 3388POPC   D2A44380  44.593  41.690   6.724
 3388POPC   C3A44381  44.788  41.352   6.964
 3388POPC   C4A44382  44.617  41.068   7.280
 3388POPC   C1B44383  44.800  41.973   6.209
 3388POPC   C2B44384   0.031  41.939   6.589
 3388POPC   C3B44385  44.875  42.058   6.954
 3388POPC   C4B44386  44.747  41.774   7.266
 3389POPC   NC344387  12.486  19.370   5.584
 3389POPC   PO444388  13.082  18.979   5.415
 3389POPC   GL144389  12.859  19.046   5.771
 3389POPC   GL244390  12.985  19.352   5.818
 3389POPC   C1A44391  12.852  18.947   6.226
 3389POPC   D2A44392  12.924  19.147   6.655
 3389POPC   C3A44393  12.636  18.978   6.997
 3389POPC   C4A44394  12.358  19.011   7.372
 3389POPC   C1B44395  13.229  19.316   6.196
 3389POPC   C2B44396  13.460  19.296   6.587
 3389POPC   C3B44397  13.305  19.370   7.010
 3389POPC   C4B44398  13.097  19.612   7.321
 3390POPC   NC344399  37.167  26.828   5.398
 3390POPC   PO444400  36.789  26.311   5.251
 3390POPC   GL144401  36.795  26.589   5.678
 3390POPC   GL244402  36.751  26.940   5.783
 3390POPC   C1A44403  36.995  26.598   6.125
 3390POPC   D2A44404  37.034  26.813   6.536
 3390POPC   C3A44405  36.970  26.621   6.953
 3390POPC   C4A44406  36.773  26.477   7.341
 3390POPC   C1B44407  37.031  27.121   6.084
 3390POPC   C2B44408  37.005  27.322   6.482
 3390POPC   C3B44409  36.878  27.206   6.893
 3390POPC   C4B44410  36.939  27.030   7.273
 3391POPC   NC344411  41.002  28.216   5.483
 3391POPC   PO444412  40.648  28.760   5.546
 3391POPC   GL144413  40.467  28.590   5.894
 3391POPC   GL244414  40.546  28.228   5.924
 3391POPC   C1A44415  40.524  28.605   6.303
 3391POPC   D2A44416  40.631  28.312   6.567
 3391POPC   C3A44417  40.602  28.587   6.886
 3391POPC   C4A44418  40.631  28.792   7.255
 3391POPC   C1B44419  40.953  28.399   6.131
 3391POPC   C2B44420  41.146  28.282   6.529
 3391POPC   C3B44421  40.992  28.253   6.976
 3391POPC   C4B44422  41.009  28.098   7.433
 3392POPC   NC344423  30.002   3.624   5.412
 3392POPC   PO444424  29.416   3.112   5.475
 3392POPC   GL144425  29.587   3.458   5.793
 3392POPC   GL244426  29.783   3.808   5.861
 3392POPC   C1A44427  29.849   3.406   6.184
 3392POPC   D2A44428  30.037   3.461   6.601
 3392POPC   C3A44429  29.749   3.438   6.933
 3392POPC   C4A44430  29.627   3.495   7.327
 3392POPC   C1B44431  30.150   3.822   6.197
 3392POPC   C2B44432  30.224   3.952   6.659
 3392POPC   C3B44433  30.044   3.839   7.079
 3392POPC   C4B44434  29.952   3.797   7.564
 3393POPC   NC344435  39.982  22.578   5.426
 3393POPC   PO444436  40.102  23.227   5.438
 3393POPC   GL144437  39.989  22.936   5.798
 3393POPC   GL244438  40.329  22.714   5.797
 3393POPC   C1A44439  39.683  22.966   6.186
 3393POPC   D2A44440  39.491  22.810   6.590
 3393POPC   C3A44441  39.709  22.803   7.023
 3393POPC   C4A44442  39.595  22.942   7.452
 3393POPC   C1B44443  40.156  22.683   6.215
 3393POPC   C2B44444  40.026  22.848   6.594
 3393POPC   C3B44445  40.240  22.948   6.953
 3393POPC   C4B44446  40.103  23.138   7.311
 3394POPC   NC344447   4.559  27.156   5.470
 3394POPC   PO444448   4.326  27.865   5.546
 3394POPC   GL144449   4.157  27.826   5.917
 3394POPC   GL244450   4.106  27.454   5.834
 3394POPC   C1A44451   4.292  27.944   6.346
 3394POPC   D2A44452   4.697  27.886   6.585
 3394POPC   C3A44453   4.640  27.624   6.882
 3394POPC   C4A44454   4.410  27.688   7.223
 3394POPC   C1B44455   4.019  27.499   6.257
 3394POPC   C2B44456   4.248  27.466   6.606
 3394POPC   C3B44457   4.037  27.443   6.986
 3394POPC   C4B44458   4.124  27.267   7.381
 3395POPC   NC344459   6.552  16.496   5.149
 3395POPC   PO444460   6.738  17.096   5.461
 3395POPC   GL144461   6.813  16.821   5.815
 3395POPC   GL244462   7.128  16.980   5.888
 3395POPC   C1A44463   6.640  16.691   6.253
 3395POPC   D2A44464   6.328  16.811   6.598
 3395POPC   C3A44465   6.442  16.575   6.982
 3395POPC   C4A44466   6.689  16.451   7.338
 3395POPC   C1B44467   6.934  17.124   6.271
 3395POPC   C2B44468   6.726  17.170   6.688
 3395POPC   C3B44469   6.751  17.093   7.135
 3395POPC   C4B44470   6.926  16.885   7.518
 3396POPC   NC344471  41.620  10.162   5.517
 3396POPC   PO444472  41.566  10.831   5.526
 3396POPC   GL144473  41.608  10.566   5.880
 3396POPC   GL244474  41.953  10.367   5.859
 3396POPC   C1A44475  41.485  10.740   6.308
 3396POPC   D2A44476  41.606  10.894   6.746
 3396POPC   C3A44477  41.353  10.695   7.018
 3396POPC   C4A44478  41.435  10.416   7.343
 3396POPC   C1B44479  41.860  10.395   6.281
 3396POPC   C2B44480  41.673  10.403   6.669
 3396POPC   C3B44481  41.842  10.500   7.048
 3396POPC   C4B44482  41.897  10.273   7.462
 3397POPC   NC344483   8.178  21.814   5.380
 3397POPC   PO444484   7.932  22.382   5.486
 3397POPC   GL144485   8.299  22.263   5.782
 3397POPC   GL244486   8.376  21.917   5.850
 3397POPC   C1A44487   8.301  22.274   6.245
 3397POPC   D2A44488   7.943  22.253   6.556
 3397POPC   C3A44489   7.990  22.350   7.014
 3397POPC   C4A44490   7.939  22.201   7.450
 3397POPC   C1B44491   8.499  21.799   6.256
 3397POPC   C2B44492   8.510  21.920   6.693
 3397POPC   C3B44493   8.587  21.926   7.131
 3397POPC   C4B44494   8.438  22.277   7.318
 3398POPC   NC344495   2.816  39.504   5.536
 3398POPC   PO444496   3.221  38.949   5.541
 3398POPC   GL144497   2.908  38.870   5.857
 3398POPC   GL244498   2.628  39.111   5.858
 3398POPC   C1A44499   2.827  38.930   6.311
 3398POPC   D2A44500   2.716  39.216   6.622
 3398POPC   C3A44501   2.790  39.055   7.023
 3398POPC   C4A44502   2.755  39.337   7.374
 3398POPC   C1B44503   2.334  39.126   6.226
 3398POPC   C2B44504   2.235  39.375   6.606
 3398POPC   C3B44505   2.362  39.361   7.026
 3398POPC   C4B44506   2.322  38.978   7.261
 3399POPC   NC344507  34.941  19.737   5.506
 3399POPC   PO444508  34.374  20.036   5.292
 3399POPC   GL144509  34.537  19.985   5.730
 3399POPC   GL244510  34.578  19.627   5.859
 3399POPC   C1A44511  34.464  19.993   6.185
 3399POPC   D2A44512  34.421  19.690   6.499
 3399POPC   C3A44513  34.385  19.947   6.844
 3399POPC   C4A44514  34.523  20.019   7.229
 3399POPC   C1B44515  34.808  19.470   6.236
 3399POPC   C2B44516  34.778  19.388   6.691
 3399POPC   C3B44517  34.686  19.538   7.097
 3399POPC   C4B44518  35.014  19.454   7.372
 3400POPC   NC344519  30.945  24.521   5.469
 3400POPC   PO444520  30.358  24.342   5.421
 3400POPC   GL144521  30.532  24.601   5.757
 3400POPC   GL244522  30.580  24.256   5.930
 3400POPC   C1A44523  30.833  24.667   6.111
 3400POPC   D2A44524  30.919  24.462   6.481
 3400POPC   C3A44525  30.661  24.550   6.831
 3400POPC   C4A44526  30.758  24.686   7.236
 3400POPC   C1B44527  30.414  24.094   6.361
 3400POPC   C2B44528  30.365  24.062   6.832
 3400POPC   C3B44529  30.231  24.236   7.228
 3400POPC   C4B44530  30.217  24.231   7.667
 3401POPC   NC344531   2.582  34.721   5.363
 3401POPC   PO444532   2.576  34.066   5.668
 3401POPC   GL144533   2.764  34.341   5.919
 3401POPC   GL244534   2.695  34.676   5.857
 3401POPC   C1A44535   2.746  34.399   6.352
 3401POPC   D2A44536   2.454  34.433   6.680
 3401POPC   C3A44537   2.656  34.566   7.052
 3401POPC   C4A44538   2.670  34.350   7.425
 3401POPC   C1B44539   2.965  34.831   6.164
 3401POPC   C2B44540   3.072  34.826   6.588
 3401POPC   C3B44541   3.132  34.906   7.015
 3401POPC   C4B44542   3.124  34.576   7.302
 3402POPC   NC344543  15.602   0.136   5.589
 3402POPC   PO444544  15.026   0.066   5.203
 3402POPC   GL144545  15.063   0.096   5.705
 3402POPC   GL244546  15.234   0.364   5.885
 3402POPC   C1A44547  14.938  44.999   6.182
 3402POPC   D2A44548  14.806   0.074   6.648
 3402POPC   C3A44549  15.096   0.348   6.951
 3402POPC   C4A44550  15.301   0.351   7.375
 3402POPC   C1B44551  15.263   0.375   6.338
 3402POPC   C2B44552  15.535   0.335   6.670
 3402POPC   C3B44553  15.628   0.528   7.031
 3402POPC   C4B44554  15.424   0.832   7.224
 3403POPC   NC344555  35.631  31.480   5.323
 3403POPC   PO444556  34.993  31.531   5.525
 3403POPC   GL144557  35.187  31.395   5.855
 3403POPC   GL244558  35.445  31.186   5.724
 3403POPC   C1A44559  35.483  31.469   6.179
 3403POPC   D2A44560  35.620  31.497   6.610
 3403POPC   C3A44561  35.327  31.571   6.990
 3403POPC   C4A44562  35.319  31.804   7.398
 3403POPC   C1B44563  35.252  30.969   6.106
 3403POPC   C2B44564  35.258  31.131   6.528
 3403POPC   C3B44565  35.464  31.086   6.917
 3403POPC   C4B44566  35.320  31.181   7.319
 3404POPC   NC344567   8.863   1.846   5.205
 3404POPC   PO444568   8.843   2.432   5.552
 3404POPC   GL144569   8.955   2.010   5.702
 3404POPC   GL244570   9.209   1.714   5.744
 3404POPC   C1A44571   8.937   1.912   6.146
 3404POPC   D2A44572   9.102   2.100   6.517
 3404POPC   C3A44573   8.868   2.044   6.901
 3404POPC   C4A44574   8.952   2.430   7.125
 3404POPC   C1B44575   9.388   1.684   6.203
 3404POPC   C2B44576   9.122   1.608   6.581
 3404POPC   C3B44577   9.156   1.597   7.031
 3404POPC   C4B44578   8.783   1.564   7.288
 3405POPC   NC344579  44.196  21.322   5.577
 3405POPC   PO444580  43.766  21.809   5.463
 3405POPC   GL144581  43.857  21.614   5.843
 3405POPC   GL244582  43.781  21.249   5.840
 3405POPC   C1A44583  44.010  21.530   6.253
 3405POPC   D2A44584  43.873  21.392   6.631
 3405POPC   C3A44585  43.793  21.641   6.951
 3405POPC   C4A44586  43.585  21.689   7.333
 3405POPC   C1B44587  43.893  21.035   6.208
 3405POPC   C2B44588  43.919  20.861   6.592
 3405POPC   C3B44589  43.952  21.006   6.982
 3405POPC   C4B44590  43.868  21.275   7.307
 3406POPC   NC344591   5.364  43.328   5.329
 3406POPC   PO444592   6.012  42.944   5.409
 3406POPC   GL144593   6.103  42.965   5.842
 3406POPC   GL244594   6.026  43.329   5.883
 3406POPC   C1A44595   5.828  42.982   6.206
 3406POPC   D2A44596   5.876  43.142   6.614
 3406POPC   C3A44597   5.769  42.923   6.979
 3406POPC   C4A44598   5.926  42.967   7.399
 3406POPC   C1B44599   6.009  43.570   6.262
 3406POPC   C2B44600   6.176  43.566   6.685
 3406POPC   C3B44601   5.992  43.387   7.059
 3406POPC   C4B44602   6.138  43.407   7.476
 3407POPC   NC344603  25.532  43.719   5.375
 3407POPC   PO444604  25.070  44.279   5.282
 3407POPC   GL144605  25.203  44.201   5.752
 3407POPC   GL244606  25.388  43.871   5.835
 3407POPC   C1A44607  25.303  44.163   6.221
 3407POPC   D2A44608  25.511  44.013   6.590
 3407POPC   C3A44609  25.178  44.062   6.865
 3407POPC   C4A44610  25.116  43.893   7.241
 3407POPC   C1B44611  25.422  43.641   6.194
 3407POPC   C2B44612  25.134  43.648   6.509
 3407POPC   C3B44613  25.191  43.535   6.901
 3407POPC   C4B44614  25.007  43.338   7.209
 3408POPC   NC344615  26.626  20.791   5.312
 3408POPC   PO444616  27.138  20.386   5.377
 3408POPC   GL144617  26.808  20.445   5.731
 3408POPC   GL244618  26.483  20.631   5.788
 3408POPC   C1A44619  26.844  20.347   6.167
 3408POPC   D2A44620  27.094  20.405   6.559
 3408POPC   C3A44621  26.847  20.334   6.937
 3408POPC   C4A44622  26.945  20.359   7.362
 3408POPC   C1B44623  26.655  20.823   6.158
 3408POPC   C2B44624  26.634  20.645   6.541
 3408POPC   C3B44625  26.605  20.802   6.935
 3408POPC   C4B44626  26.550  20.713   7.323
 3409POPC   NC344627  23.877  23.464   5.464
 3409POPC   PO444628  23.580  23.986   5.163
 3409POPC   GL144629  23.644  23.898   5.668
 3409POPC   GL244630  23.481  23.583   5.781
 3409POPC   C1A44631  23.841  23.752   6.121
 3409POPC   D2A44632  23.783  23.541   6.543
 3409POPC   C3A44633  23.839  23.605   6.968
 3409POPC   C4A44634  23.516  23.791   7.192
 3409POPC   C1B44635  23.486  23.342   6.165
 3409POPC   C2B44636  23.308  23.383   6.533
 3409POPC   C3B44637  23.436  23.276   6.894
 3409POPC   C4B44638  23.523  23.265   7.280
 3410POPC   NC344639  28.030  42.160   5.301
 3410POPC   PO444640  28.592  42.517   5.539
 3410POPC   GL144641  28.198  42.352   5.767
 3410POPC   GL244642  28.134  41.967   5.792
 3410POPC   C1A44643  28.096  42.558   6.164
 3410POPC   D2A44644  28.002  42.448   6.611
 3410POPC   C3A44645  28.144  42.510   7.034
 3410POPC   C4A44646  28.544  42.419   7.269
 3410POPC   C1B44647  28.000  42.044   6.250
 3410POPC   C2B44648  27.883  41.969   6.712
 3410POPC   C3B44649  28.039  42.006   7.177
 3410POPC   C4B44650  28.239  42.173   7.598
 3411POPC   NC344651  12.333   4.768   5.481
 3411POPC   PO444652  12.000   5.274   5.246
 3411POPC   GL144653  11.990   5.145   5.708
 3411POPC   GL244654  11.768   5.409   5.870
 3411POPC   C1A44655  12.211   5.048   6.118
 3411POPC   D2A44656  12.395   4.743   6.442
 3411POPC   C3A44657  12.412   4.842   6.912
 3411POPC   C4A44658  12.463   5.242   7.172
 3411POPC   C1B44659  11.796   5.291   6.298
 3411POPC   C2B44660  12.044   5.100   6.615
 3411POPC   C3B44661  11.973   5.119   7.033
 3411POPC   C4B44662  11.670   5.004   7.344
 3412POPC   NC344663  20.954  27.686   5.431
 3412POPC   PO444664  20.326  27.330   5.356
 3412POPC   GL144665  20.393  27.598   5.725
 3412POPC   GL244666  20.730  27.579   5.868
 3412POPC   C1A44667  20.380  27.652   6.199
 3412POPC   D2A44668  20.634  27.592   6.570
 3412POPC   C3A44669  20.612  27.844   6.920
 3412POPC   C4A44670  20.354  27.794   7.255
 3412POPC   C1B44671  20.887  27.844   6.217
 3412POPC   C2B44672  21.113  27.753   6.623
 3412POPC   C3B44673  20.966  27.487   6.962
 3412POPC   C4B44674  20.797  27.575   7.333
 3413POPC   NC344675  36.877  15.230   5.411
 3413POPC   PO444676  36.484  14.707   5.599
 3413POPC   GL144677  36.742  14.955   5.917
 3413POPC   GL244678  37.051  15.182   5.885
 3413POPC   C1A44679  36.852  15.033   6.375
 3413POPC   D2A44680  37.057  15.234   6.756
 3413POPC   C3A44681  36.908  15.071   7.174
 3413POPC   C4A44682  36.736  15.303   7.532
 3413POPC   C1B44683  37.288  14.887   6.124
 3413POPC   C2B44684  37.263  14.747   6.540
 3413POPC   C3B44685  37.365  14.872   6.931
 3413POPC   C4B44686  37.309  14.744   7.320
 3414POPC   NC344687  27.469   3.482   5.051
 3414POPC   PO444688  27.433   3.216   5.665
 3414POPC   GL144689  27.444   3.600   5.891
 3414POPC   GL244690  27.800   3.650   5.836
 3414POPC   C1A44691  27.276   3.765   6.297
 3414POPC   D2A44692  27.132   3.501   6.651
 3414POPC   C3A44693  27.309   3.542   7.039
 3414POPC   C4A44694  27.605   3.815   7.231
 3414POPC   C1B44695  27.824   3.572   6.251
 3414POPC   C2B44696  27.669   3.650   6.641
 3414POPC   C3B44697  27.807   3.396   6.938
 3414POPC   C4B44698  27.973   3.487   7.312
 3415POPC   NC344699  32.609  10.253   5.196
 3415POPC   PO444700  32.300  10.783   5.472
 3415POPC   GL144701  32.254  10.650   5.857
 3415POPC   GL244702  32.539  10.840   5.922
 3415POPC   C1A44703  32.070  10.447   6.217
 3415POPC   D2A44704  32.062  10.478   6.665
 3415POPC   C3A44705  32.092  10.161   6.956
 3415POPC   C4A44706  32.174  10.501   7.265
 3415POPC   C1B44707  32.476  10.764   6.314
 3415POPC   C2B44708  32.252  10.944   6.568
 3415POPC   C3B44709  32.357  10.894   6.985
 3415POPC   C4B44710  32.564  10.911   7.389
 3416POPC   NC344711  22.415  14.562   5.333
 3416POPC   PO444712  21.863  14.193   5.174
 3416POPC   GL144713  21.996  14.342   5.648
 3416POPC   GL244714  22.330  14.467   5.838
 3416POPC   C1A44715  21.937  14.154   6.094
 3416POPC   D2A44716  21.744  14.285   6.477
 3416POPC   C3A44717  21.847  14.131   6.896
 3416POPC   C4A44718  22.174  14.285   7.205
 3416POPC   C1B44719  22.167  14.557   6.278
 3416POPC   C2B44720  22.182  14.500   6.736
 3416POPC   C3B44721  22.344  14.749   7.086
 3416POPC   C4B44722  22.575  14.666   7.479
 3417POPC   NC344723   0.357  11.280   5.287
 3417POPC   PO444724   0.315  11.860   5.365
 3417POPC   GL144725   0.458  11.576   5.703
 3417POPC   GL244726   0.320  11.234   5.809
 3417POPC   C1A44727   0.431  11.617   6.156
 3417POPC   D2A44728   0.183  11.564   6.541
 3417POPC   C3A44729   0.390  11.606   6.958
 3417POPC   C4A44730   0.292  11.449   7.382
 3417POPC   C1B44731   0.426  11.127   6.300
 3417POPC   C2B44732   0.429  11.116   6.785
 3417POPC   C3B44733   0.351  10.975   7.222
 3417POPC   C4B44734   0.635  10.929   7.594
 3418POPC   NC344735  16.098  28.681   5.621
 3418POPC   PO444736  16.337  27.988   5.379
 3418POPC   GL144737  16.238  28.201   5.755
 3418POPC   GL244738  15.944  28.059   5.924
 3418POPC   C1A44739  16.300  28.318   6.202
 3418POPC   D2A44740  16.094  28.420   6.594
 3418POPC   C3A44741  16.138  28.342   7.011
 3418POPC   C4A44742  15.926  28.052   7.232
 3418POPC   C1B44743  15.717  28.286   6.247
 3418POPC   C2B44744  15.630  28.128   6.666
 3418POPC   C3B44745  15.531  28.346   7.027
 3418POPC   C4B44746  15.778  28.552   7.337
 3419POPC   NC344747  19.381   0.160   5.130
 3419POPC   PO444748  18.930   0.629   5.376
 3419POPC   GL144749  19.121   0.604   5.843
 3419POPC   GL244750  19.031   0.297   6.043
 3419POPC   C1A44751  19.245   0.653   6.304
 3419POPC   D2A44752  18.944   0.477   6.602
 3419POPC   C3A44753  18.996   0.665   7.001
 3419POPC   C4A44754  18.742   0.626   7.339
 3419POPC   C1B44755  19.037   0.005   6.357
 3419POPC   C2B44756  18.879  44.917   6.734
 3419POPC   C3B44757  18.870   0.155   7.081
 3419POPC   C4B44758  19.288   0.283   7.182
 3420POPC   NC344759   4.396  37.352   5.411
 3420POPC   PO444760   4.434  38.081   5.392
 3420POPC   GL144761   4.443  37.820   5.764
 3420POPC   GL244762   4.745  37.611   5.710
 3420POPC   C1A44763   4.380  37.893   6.236
 3420POPC   D2A44764   4.089  37.866   6.616
 3420POPC   C3A44765   4.086  37.501   6.905
 3420POPC   C4A44766   4.051  37.629   7.352
 3420POPC   C1B44767   4.524  37.411   6.072
 3420POPC   C2B44768   4.521  37.253   6.494
 3420POPC   C3B44769   4.585  37.388   6.922
 3420POPC   C4B44770   4.361  37.235   7.261
 3421POPC   NC344771  31.016  17.863   5.278
 3421POPC   PO444772  30.711  17.345   5.641
 3421POPC   GL144773  30.571  17.391   6.025
 3421POPC   GL244774  30.333  17.684   5.972
 3421POPC   C1A44775  30.919  17.463   6.335
 3421POPC   D2A44776  31.069  17.317   6.729
 3421POPC   C3A44777  30.888  17.441   7.107
 3421POPC   C4A44778  30.928  17.617   7.518
 3421POPC   C1B44779  30.511  17.753   6.360
 3421POPC   C2B44780  30.644  17.682   6.738
 3421POPC   C3B44781  30.432  17.653   7.116
 3421POPC   C4B44782  30.483  17.880   7.494
 3422POPC   NC344783  21.855  43.340   5.486
 3422POPC   PO444784  22.309  42.881   5.416
 3422POPC   GL144785  22.104  43.011   5.787
 3422POPC   GL244786  22.176  43.408   5.873
 3422POPC   C1A44787  22.085  42.847   6.185
 3422POPC   D2A44788  22.258  43.083   6.495
 3422POPC   C3A44789  22.284  42.924   6.894
 3422POPC   C4A44790  22.256  43.141   7.296
 3422POPC   C1B44791  21.833  43.295   6.140
 3422POPC   C2B44792  21.739  43.099   6.503
 3422POPC   C3B44793  21.860  43.250   6.888
 3422POPC   C4B44794  21.760  43.287   7.298
 3423POPC   NC344795  15.345  44.357   5.479
 3423POPC   PO444796  15.048  43.905   5.047
 3423POPC   GL144797  15.008  43.930   5.611
 3423POPC   GL244798  15.242  44.107   5.878
 3423POPC   C1A44799  15.093  43.718   6.106
 3423POPC   D2A44800  15.209  43.999   6.497
 3423POPC   C3A44801  15.020  43.934   6.930
 3423POPC   C4A44802  15.027  43.663   7.308
 3423POPC   C1B44803  15.487  44.352   6.141
 3423POPC   C2B44804  15.566  44.460   6.538
 3423POPC   C3B44805  15.512  44.196   6.879
 3423POPC   C4B44806  15.396  44.017   7.261
 3424POPC   NC344807  13.078  44.138   5.642
 3424POPC   PO444808  12.761  44.542   5.175
 3424POPC   GL144809  12.775  44.633   5.626
 3424POPC   GL244810  12.627  44.372   5.817
 3424POPC   C1A44811  12.779  44.770   6.083
 3424POPC   D2A44812  12.993  44.827   6.486
 3424POPC   C3A44813  12.865  44.643   6.890
 3424POPC   C4A44814  12.763  44.873   7.262
 3424POPC   C1B44815  12.865  44.274   6.239
 3424POPC   C2B44816  13.186  44.355   6.562
 3424POPC   C3B44817  13.195  44.252   6.999
 3424POPC   C4B44818  12.898  44.352   7.346
 3425POPC   NC344819  20.527   7.988   5.254
 3425POPC   PO444820  20.724   8.631   5.402
 3425POPC   GL144821  20.681   8.295   5.698
 3425POPC   GL244822  20.391   8.431   5.834
 3425POPC   C1A44823  20.774   8.121   6.126
 3425POPC   D2A44824  20.786   8.283   6.579
 3425POPC   C3A44825  20.739   8.047   6.981
 3425POPC   C4A44826  21.047   8.146   7.300
 3425POPC   C1B44827  20.521   8.568   6.235
 3425POPC   C2B44828  20.299   8.471   6.606
 3425POPC   C3B44829  20.331   8.413   7.024
 3425POPC   C4B44830  20.088   8.494   7.373
 3426POPC   NC344831  19.169  34.276   5.423
 3426POPC   PO444832  18.642  34.665   5.510
 3426POPC   GL144833  18.974  34.521   5.851
 3426POPC   GL244834  19.326  34.311   5.907
 3426POPC   C1A44835  19.069  34.538   6.286
 3426POPC   D2A44836  19.333  34.479   6.651
 3426POPC   C3A44837  19.043  34.408   6.934
 3426POPC   C4A44838  19.027  34.279   7.309
 3426POPC   C1B44839  19.560  34.577   6.193
 3426POPC   C2B44840  19.431  34.943   6.468
 3426POPC   C3B44841  19.316  34.939   6.904
 3426POPC   C4B44842  19.452  34.585   7.156
 3427POPC   NC344843  33.215  41.828   5.409
 3427POPC   PO444844  32.578  41.615   5.438
 3427POPC   GL144845  32.894  41.717   5.779
 3427POPC   GL244846  33.114  41.454   5.857
 3427POPC   C1A44847  32.897  41.723   6.236
 3427POPC   D2A44848  33.115  41.618   6.634
 3427POPC   C3A44849  32.820  41.607   7.008
 3427POPC   C4A44850  32.961  41.630   7.444
 3427POPC   C1B44851  33.312  41.156   6.155
 3427POPC   C2B44852  33.406  41.161   6.612
 3427POPC   C3B44853  33.173  41.238   7.017
 3427POPC   C4B44854  33.233  41.190   7.493
 3428POPC   NC344855   1.561  17.072   5.421
 3428POPC   PO444856   1.038  17.523   5.501
 3428POPC   GL144857   1.181  17.554   5.891
 3428POPC   GL244858   1.492  17.395   5.847
 3428POPC   C1A44859   1.025  17.646   6.284
 3428POPC   D2A44860   1.169  17.463   6.635
 3428POPC   C3A44861   1.277  17.701   6.968
 3428POPC   C4A44862   0.959  17.680   7.267
 3428POPC   C1B44863   1.589  17.393   6.293
 3428POPC   C2B44864   1.673  17.508   6.719
 3428POPC   C3B44865   1.602  17.289   7.125
 3428POPC   C4B44866   1.396  17.463   7.506
 3429POPC   NC344867  26.333  22.444   5.683
 3429POPC   PO444868  26.006  22.076   5.157
 3429POPC   GL144869  25.956  22.105   5.627
 3429POPC   GL244870  25.833  22.378   5.776
 3429POPC   C1A44871  25.938  22.013   6.108
 3429POPC   D2A44872  26.098  22.165   6.507
 3429POPC   C3A44873  25.974  22.097   6.936
 3429POPC   C4A44874  26.263  22.116   7.273
 3429POPC   C1B44875  25.802  22.498   6.214
 3429POPC   C2B44876  25.845  22.621   6.626
 3429POPC   C3B44877  25.575  22.442   6.915
 3429POPC   C4B44878  25.659  22.340   7.309
 3430POPC   NC344879  32.724   5.365   5.396
 3430POPC   PO444880  32.927   6.055   5.378
 3430POPC   GL144881  32.966   5.962   5.785
 3430POPC   GL244882  33.032   5.591   5.765
 3430POPC   C1A44883  32.723   6.028   6.162
 3430POPC   D2A44884  32.716   5.761   6.527
 3430POPC   C3A44885  32.873   5.957   6.899
 3430POPC   C4A44886  32.997   5.818   7.266
 3430POPC   C1B44887  33.111   5.704   6.198
 3430POPC   C2B44888  33.246   5.708   6.612
 3430POPC   C3B44889  33.349   5.529   6.994
 3430POPC   C4B44890  33.410   5.592   7.430
 3431POPC   NC344891  20.769  44.824   5.409
 3431POPC   PO444892  20.239  44.281   5.308
 3431POPC   GL144893  20.297  44.606   5.654
 3431POPC   GL244894  20.631  44.538   5.788
 3431POPC   C1A44895  20.328  44.809   6.094
 3431POPC   D2A44896  20.297  44.640   6.520
 3431POPC   C3A44897  20.483  44.865   6.873
 3431POPC   C4A44898  20.489  44.737   7.301
 3431POPC   C1B44899  20.736  44.478   6.203
 3431POPC   C2B44900  20.890  44.642   6.585
 3431POPC   C3B44901  20.862  44.497   6.992
 3431POPC   C4B44902  20.953  44.520   7.416
 3432POPC   NC344903  32.181  41.145   5.232
 3432POPC   PO444904  32.084  41.725   5.569
 3432POPC   GL144905  32.346  41.542   5.940
 3432POPC   GL244906  32.629  41.316   5.918
 3432POPC   C1A44907  32.365  41.715   6.376
 3432POPC   D2A44908  32.043  41.776   6.709
 3432POPC   C3A44909  32.160  41.873   7.147
 3432POPC   C4A44910  32.066  41.790   7.601
 3432POPC   C1B44911  32.533  41.233   6.355
 3432POPC   C2B44912  32.190  41.240   6.649
 3432POPC   C3B44913  32.084  41.379   7.064
 3432POPC   C4B44914  32.425  41.500   7.347
 3433POPC   NC344915  32.472  41.975   5.716
 3433POPC   PO444916  32.160  42.522   5.394
 3433POPC   GL144917  32.226  42.406   5.832
 3433POPC   GL244918  32.572  42.504   5.816
 3433POPC   C1A44919  32.223  42.222   6.282
 3433POPC   D2A44920  32.400  42.168   6.715
 3433POPC   C3A44921  32.153  42.359   7.038
 3433POPC   C4A44922  31.760  42.585   7.022
 3433POPC   C1B44923  32.474  42.670   6.225
 3433POPC   C2B44924  32.618  42.652   6.664
 3433POPC   C3B44925  32.640  42.565   7.104
 3433POPC   C4B44926  32.544  42.694   7.528
 3434POPC   NC344927  31.200  26.743   5.475
 3434POPC   PO444928  31.628  27.201   5.459
 3434POPC   GL144929  31.451  27.116   5.824
 3434POPC   GL244930  31.531  26.815   5.899
 3434POPC   C1A44931  31.654  27.233   6.192
 3434POPC   D2A44932  31.635  27.072   6.564
 3434POPC   C3A44933  31.580  27.259   6.930
 3434POPC   C4A44934  31.485  26.967   7.196
 3434POPC   C1B44935  31.461  26.583   6.280
 3434POPC   C2B44936  31.383  26.582   6.722
 3434POPC   C3B44937  31.640  26.494   7.089
 3434POPC   C4B44938  31.510  26.558   7.533
 3435POPC   NC344939  37.982  32.488   5.302
 3435POPC   PO444940  37.490  32.107   5.440
 3435POPC   GL144941  37.533  32.311   5.793
 3435POPC   GL244942  37.156  32.264   5.810
 3435POPC   C1A44943  37.813  32.397   6.162
 3435POPC   D2A44944  38.008  32.250   6.562
 3435POPC   C3A44945  37.903  32.384   6.972
 3435POPC   C4A44946  37.787  32.164   7.351
 3435POPC   C1B44947  37.313  32.242   6.240
 3435POPC   C2B44948  37.505  32.190   6.616
 3435POPC   C3B44949  37.406  32.249   7.018
 3435POPC   C4B44950  37.113  32.289   7.288
 3436POPC   NC344951  38.441  20.035   5.247
 3436POPC   PO444952  38.123  19.622   5.545
 3436POPC   GL144953  38.370  19.852   5.847
 3436POPC   GL244954  38.619  19.645   6.061
 3436POPC   C1A44955  38.409  20.066   6.240
 3436POPC   D2A44956  38.695  20.102   6.591
 3436POPC   C3A44957  38.381  20.069   6.931
 3436POPC   C4A44958  38.254  20.026   7.361
 3436POPC   C1B44959  38.273  19.576   6.386
 3436POPC   C2B44960  38.230  19.514   6.855
 3436POPC   C3B44961  38.501  19.637   7.186
 3436POPC   C4B44962  38.629  19.669   7.623
 3437POPC   NC344963  27.762  35.859   5.634
 3437POPC   PO444964  27.707  36.489   5.377
 3437POPC   GL144965  27.563  36.350   5.780
 3437POPC   GL244966  27.301  36.146   5.657
 3437POPC   C1A44967  27.699  36.191   6.203
 3437POPC   D2A44968  27.781  35.980   6.603
 3437POPC   C3A44969  27.742  36.133   7.050
 3437POPC   C4A44970  27.788  35.868   7.453
 3437POPC   C1B44971  27.248  35.996   6.066
 3437POPC   C2B44972  27.251  36.005   6.502
 3437POPC   C3B44973  27.384  35.812   6.876
 3437POPC   C4B44974  27.305  35.939   7.307
 3438POPC   NC344975  15.263  38.079   5.285
 3438POPC   PO444976  14.981  38.557   5.593
 3438POPC   GL144977  15.326  38.368   5.845
 3438POPC   GL244978  15.422  37.988   5.775
 3438POPC   C1A44979  15.438  38.549   6.281
 3438POPC   D2A44980  15.360  38.742   6.723
 3438POPC   C3A44981  14.997  38.527   6.926
 3438POPC   C4A44982  15.008  38.299   7.301
 3438POPC   C1B44983  15.448  38.028   6.237
 3438POPC   C2B44984  15.594  38.193   6.662
 3438POPC   C3B44985  15.476  38.336   7.086
 3438POPC   C4B44986  15.411  38.096   7.513
 3439POPC   NC344987  32.085   1.769   5.230
 3439POPC   PO444988  32.378   2.326   5.514
 3439POPC   GL144989  32.293   1.981   5.744
 3439POPC   GL244990  32.367   1.655   5.663
 3439POPC   C1A44991  32.132   1.929   6.151
 3439POPC   D2A44992  32.147   1.975   6.591
 3439POPC   C3A44993  31.997   1.719   6.905
 3439POPC   C4A44994  31.965   1.992   7.297
 3439POPC   C1B44995  32.594   1.739   6.049
 3439POPC   C2B44996  32.589   1.781   6.470
 3439POPC   C3B44997  32.531   1.804   6.887
 3439POPC   C4B44998  32.342   1.610   7.247
 3440POPC   NC344999  43.652  25.307   5.193
 3440POPC   PO445000  44.266  25.237   5.408
 3440POPC   GL145001  43.938  25.261   5.770
 3440POPC   GL245002  43.661  25.076   5.946
 3440POPC   C1A45003  44.044  25.209   6.228
 3440POPC   D2A45004  44.165  25.401   6.600
 3440POPC   C3A45005  43.935  25.246   6.932
 3440POPC   C4A45006  43.990  25.484   7.275
 3440POPC   C1B45007  43.547  25.395   6.239
 3440POPC   C2B45008  43.575  25.124   6.570
 3440POPC   C3B45009  43.493  24.950   6.952
 3440POPC   C4B45010  43.588  25.133   7.320
 3441POPC   NC345011  29.302  42.865   5.494
 3441POPC   PO445012  28.844  43.352   5.362
 3441POPC   GL145013  29.009  43.237   5.797
 3441POPC   GL245014  29.343  43.327   5.984
 3441POPC   C1A45015  28.958  43.039   6.217
 3441POPC   D2A45016  29.214  43.111   6.590
 3441POPC   C3A45017  29.045  43.113   7.022
 3441POPC   C4A45018  29.133  43.256   7.455
 3441POPC   C1B45019  29.439  42.889   6.165
 3441POPC   C2B45020  29.451  42.649   6.566
 3441POPC   C3B45021  29.479  42.848   6.955
 3441POPC   C4B45022  29.355  42.802   7.349
 3442POPC   NC345023   5.264  37.097   4.985
 3442POPC   PO445024   5.222  36.554   5.457
 3442POPC   GL145025   5.298  36.906   5.734
 3442POPC   GL245026   5.004  37.143   5.621
 3442POPC   C1A45027   5.306  36.810   6.207
 3442POPC   D2A45028   5.135  36.557   6.590
 3442POPC   C3A45029   5.305  36.681   7.021
 3442POPC   C4A45030   5.340  37.139   7.164
 3442POPC   C1B45031   4.898  37.075   6.074
 3442POPC   C2B45032   5.034  37.133   6.518
 3442POPC   C3B45033   4.919  37.003   6.931
 3442POPC   C4B45034   4.872  37.176   7.370
 3443POPC   NC345035   3.074  40.417   5.413
 3443POPC   PO445036   2.684  41.015   5.537
 3443POPC   GL145037   2.803  40.712   5.829
 3443POPC   GL245038   3.061  40.889   5.943
 3443POPC   C1A45039   2.815  40.593   6.290
 3443POPC   D2A45040   2.635  40.839   6.622
 3443POPC   C3A45041   2.796  40.870   7.003
 3443POPC   C4A45042   2.577  40.787   7.323
 3443POPC   C1B45043   2.842  41.123   6.267
 3443POPC   C2B45044   2.892  41.280   6.684
 3443POPC   C3B45045   2.661  41.367   7.032
 3443POPC   C4B45046   2.754  41.250   7.440
 3444POPC   NC345047  13.677   3.947   5.094
 3444POPC   PO445048  13.381   4.482   5.355
 3444POPC   GL145049  13.506   4.618   5.798
 3444POPC   GL245050  13.623   4.315   6.029
 3444POPC   C1A45051  13.345   4.661   6.242
 3444POPC   D2A45052  13.627   4.463   6.529
 3444POPC   C3A45053  13.573   4.495   6.956
 3444POPC   C4A45054  13.864   4.460   7.322
 3444POPC   C1B45055  13.267   4.143   6.254
 3444POPC   C2B45056  13.141   4.209   6.656
 3444POPC   C3B45057  13.243   4.094   7.047
 3444POPC   C4B45058  13.386   4.296   7.391
 3445POPC   NC345059   7.982  36.935   5.499
 3445POPC   PO445060   8.579  36.868   5.425
 3445POPC   GL145061   8.378  37.028   5.820
 3445POPC   GL245062   8.310  37.390   5.759
 3445POPC   C1A45063   8.220  36.901   6.237
 3445POPC   D2A45064   8.342  36.664   6.599
 3445POPC   C3A45065   8.225  36.823   7.004
 3445POPC   C4A45066   8.333  36.769   7.419
 3445POPC   C1B45067   8.014  37.353   6.102
 3445POPC   C2B45068   7.971  37.250   6.538
 3445POPC   C3B45069   7.823  37.204   6.956
 3445POPC   C4B45070   7.938  37.135   7.377
 3446POPC   NC345071  32.884  36.104   5.406
 3446POPC   PO445072  33.431  36.476   5.475
 3446POPC   GL145073  33.262  36.264   5.809
 3446POPC   GL245074  32.959  36.394   5.809
 3446POPC   C1A45075  33.133  36.255   6.258
 3446POPC   D2A45076  33.138  36.483   6.672
 3446POPC   C3A45077  33.239  36.250   7.037
 3446POPC   C4A45078  33.279  35.977   7.425
 3446POPC   C1B45079  32.731  36.541   6.182
 3446POPC   C2B45080  32.626  36.437   6.596
 3446POPC   C3B45081  32.759  36.448   7.045
 3446POPC   C4B45082  32.999  36.413   7.445
 3447POPC   NC345083   8.605  11.300   5.449
 3447POPC   PO445084   8.043  11.664   5.492
 3447POPC   GL145085   8.296  11.434   5.824
 3447POPC   GL245086   8.182  11.087   5.927
 3447POPC   C1A45087   8.457  11.343   6.238
 3447POPC   D2A45088   8.216  11.226   6.594
 3447POPC   C3A45089   8.387  11.296   7.000
 3447POPC   C4A45090   8.405  11.655   7.282
 3447POPC   C1B45091   7.838  11.202   6.200
 3447POPC   C2B45092   7.737  11.042   6.604
 3447POPC   C3B45093   7.859  11.227   6.970
 3447POPC   C4B45094   7.868  11.196   7.357
 3448POPC   NC345095  14.500  13.905   5.616
 3448POPC   PO445096  14.263  13.279   5.414
 3448POPC   GL145097  14.377  13.433   5.831
 3448POPC   GL245098  14.166  13.714   5.970
 3448POPC   C1A45099  14.573  13.521   6.252
 3448POPC   D2A45100  14.709  13.359   6.665
 3448POPC   C3A45101  14.810  13.578   7.066
 3448POPC   C4A45102  14.698  13.630   7.533
 3448POPC   C1B45103  14.232  13.905   6.394
 3448POPC   C2B45104  14.364  13.746   6.812
 3448POPC   C3B45105  14.331  13.461   7.181
 3448POPC   C4B45106  14.197  13.648   7.566
 3449POPC   NC345107  20.914   5.385   5.450
 3449POPC   PO445108  20.668   4.723   5.495
 3449POPC   GL145109  20.841   4.951   5.804
 3449POPC   GL245110  20.591   5.191   5.787
 3449POPC   C1A45111  20.817   4.924   6.231
 3449POPC   D2A45112  20.560   4.990   6.605
 3449POPC   C3A45113  20.747   5.087   7.005
 3449POPC   C4A45114  20.907   5.290   7.367
 3449POPC   C1B45115  20.502   5.342   6.156
 3449POPC   C2B45116  20.316   5.437   6.517
 3449POPC   C3B45117  20.414   5.486   6.905
 3449POPC   C4B45118  20.370   5.302   7.310
 3450POPC   NC345119  40.434  19.105   5.488
 3450POPC   PO445120  39.927  18.642   5.403
 3450POPC   GL145121  39.902  18.900   5.796
 3450POPC   GL245122  40.048  19.249   5.851
 3450POPC   C1A45123  39.732  18.977   6.218
 3450POPC   D2A45124  39.902  18.925   6.651
 3450POPC   C3A45125  39.774  19.243   6.957
 3450POPC   C4A45126  39.865  19.294   7.416
 3450POPC   C1B45127  40.225  19.001   6.216
 3450POPC   C2B45128  40.400  19.024   6.664
 3450POPC   C3B45129  40.253  19.112   7.075
 3450POPC   C4B45130  40.338  19.003   7.481
 3451POPC   NC345131  11.077   2.521   5.500
 3451POPC   PO445132  11.336   3.082   5.710
 3451POPC   GL145133  11.311   2.674   5.914
 3451POPC   GL245134  11.606   2.456   5.817
 3451POPC   C1A45135  11.116   2.657   6.322
 3451POPC   D2A45136  11.170   2.961   6.647
 3451POPC   C3A45137  11.421   2.872   6.994
 3451POPC   C4A45138  11.629   3.200   7.203
 3451POPC   C1B45139  11.641   2.533   6.266
 3451POPC   C2B45140  11.818   2.442   6.670
 3451POPC   C3B45141  11.651   2.377   7.054
 3451POPC   C4B45142  11.227   2.453   7.237
 3452POPC   NC345143  39.735  34.579   5.264
 3452POPC   PO445144  40.339  34.733   5.350
 3452POPC   GL145145  40.192  34.502   5.734
 3452POPC   GL245146  39.817  34.412   5.756
 3452POPC   C1A45147  40.183  34.581   6.197
 3452POPC   D2A45148  40.371  34.695   6.595
 3452POPC   C3A45149  40.120  34.555   6.922
 3452POPC   C4A45150  40.123  34.506   7.365
 3452POPC   C1B45151  39.658  34.385   6.180
 3452POPC   C2B45152  39.764  34.249   6.606
 3452POPC   C3B45153  39.722  34.258   7.055
 3452POPC   C4B45154  39.666  34.217   7.492
 3453POPC   NC345155  39.860  15.752   5.272
 3453POPC   PO445156  40.191  16.144   5.662
 3453POPC   GL145157  39.908  15.927   5.850
 3453POPC   GL245158  40.176  15.777   6.074
 3453POPC   C1A45159  39.709  15.909   6.248
 3453POPC   D2A45160  39.883  16.029   6.652
 3453POPC   C3A45161  40.108  15.719   6.918
 3453POPC   C4A45162  39.992  15.595   7.342
 3453POPC   C1B45163  40.433  16.073   6.324
 3453POPC   C2B45164  40.381  16.174   6.751
 3453POPC   C3B45165  40.446  16.057   7.184
 3453POPC   C4B45166  40.507  15.654   7.264
 3454POPC   NC345167   4.663  39.172   5.540
 3454POPC   PO445168   5.233  39.594   5.477
 3454POPC   GL145169   5.104  39.327   5.827
 3454POPC   GL245170   5.028  38.995   5.865
 3454POPC   C1A45171   5.096  39.447   6.276
 3454POPC   D2A45172   4.957  39.330   6.675
 3454POPC   C3A45173   5.086  39.566   7.029
 3454POPC   C4A45174   4.980  39.495   7.466
 3454POPC   C1B45175   5.313  38.981   6.186
 3454POPC   C2B45176   5.410  39.121   6.586
 3454POPC   C3B45177   5.263  39.049   6.996
 3454POPC   C4B45178   5.480  38.889   7.332
 3455POPC   NC345179   6.625  15.828   5.531
 3455POPC   PO445180   6.973  16.380   5.341
 3455POPC   GL145181   6.785  16.284   5.769
 3455POPC   GL245182   6.449  16.158   5.935
 3455POPC   C1A45183   6.866  16.207   6.220
 3455POPC   D2A45184   6.531  16.226   6.549
 3455POPC   C3A45185   6.613  16.048   6.968
 3455POPC   C4A45186   6.492  15.981   7.404
 3455POPC   C1B45187   6.550  15.790   6.245
 3455POPC   C2B45188   6.532  15.611   6.684
 3455POPC   C3B45189   6.260  15.656   7.050
 3455POPC   C4B45190   6.255  15.535   7.518
 3456POPC   NC345191  39.400   9.942   5.472
 3456POPC   PO445192  39.947   9.503   5.328
 3456POPC   GL145193  39.856   9.583   5.819
 3456POPC   GL245194  39.734   9.916   5.851
 3456POPC   C1A45195  40.148   9.743   6.216
 3456POPC   D2A45196  40.385   9.803   6.629
 3456POPC   C3A45197  40.251   9.970   7.027
 3456POPC   C4A45198  40.237   9.907   7.461
 3456POPC   C1B45199  39.649   9.760   6.251
 3456POPC   C2B45200  39.829   9.602   6.627
 3456POPC   C3B45201  39.761   9.821   7.008
 3456POPC   C4B45202  39.377  10.080   7.140
 3457POPC   NC345203  31.053   0.597   5.346
 3457POPC   PO445204  30.491   0.159   5.208
 3457POPC   GL145205  30.548   0.305   5.661
 3457POPC   GL245206  30.651   0.670   5.690
 3457POPC   C1A45207  30.436   0.351   6.128
 3457POPC   D2A45208  30.324   0.366   6.599
 3457POPC   C3A45209  30.638   0.456   6.879
 3457POPC   C4A45210  30.680   0.560   7.285
 3457POPC   C1B45211  30.595   0.853   6.120
 3457POPC   C2B45212  30.809   0.838   6.540
 3457POPC   C3B45213  31.040   0.782   6.936
 3457POPC   C4B45214  31.056   0.915   7.345
 3458POPC   NC345215  41.834  27.711   5.264
 3458POPC   PO445216  41.636  27.082   5.350
 3458POPC   GL145217  41.561  27.348   5.740
 3458POPC   GL245218  41.567  27.703   5.741
 3458POPC   C1A45219  41.614  27.468   6.181
 3458POPC   D2A45220  41.879  27.352   6.506
 3458POPC   C3A45221  41.675  27.307   6.901
 3458POPC   C4A45222  41.497  27.428   7.268
 3458POPC   C1B45223  41.401  27.941   6.097
 3458POPC   C2B45224  41.372  27.818   6.515
 3458POPC   C3B45225  41.283  27.757   6.931
 3458POPC   C4B45226  41.490  27.930   7.280
 3459POPC   NC345227  41.987   1.822   5.459
 3459POPC   PO445228  42.536   2.267   5.546
 3459POPC   GL145229  42.291   2.057   5.858
 3459POPC   GL245230  42.070   2.322   5.835
 3459POPC   C1A45231  42.325   1.931   6.319
 3459POPC   D2A45232  42.198   1.707   6.694
 3459POPC   C3A45233  42.355   1.805   7.112
 3459POPC   C4A45234  42.412   1.857   7.580
 3459POPC   C1B45235  42.373   2.428   6.202
 3459POPC   C2B45236  42.397   2.375   6.660
 3459POPC   C3B45237  42.362   2.499   7.097
 3459POPC   C4B45238  42.229   2.318   7.461
 3460POPC   NC345239  18.248  22.627   5.448
 3460POPC   PO445240  17.762  22.994   5.373
 3460POPC   GL145241  17.997  22.991   5.778
 3460POPC   GL245242  18.375  22.976   5.812
 3460POPC   C1A45243  18.084  23.141   6.206
 3460POPC   D2A45244  18.138  22.908   6.608
 3460POPC   C3A45245  18.087  23.097   7.030
 3460POPC   C4A45246  18.196  22.988   7.446
 3460POPC   C1B45247  18.323  22.667   6.173
 3460POPC   C2B45248  18.374  22.458   6.613
 3460POPC   C3B45249  18.389  22.686   7.015
 3460POPC   C4B45250  18.627  22.700   7.399
 3461POPC   NC345251  44.298  33.916   5.332
 3461POPC   PO445252  44.869  33.763   5.283
 3461POPC   GL145253  44.668  33.812   5.679
 3461POPC   GL245254  44.975  33.862   5.879
 3461POPC   C1A45255  44.534  33.725   6.102
 3461POPC   D2A45256  44.756  33.713   6.509
 3461POPC   C3A45257  44.568  33.831   6.905
 3461POPC   C4A45258  44.517  33.592   7.308
 3461POPC   C1B45259  44.802  34.152   6.225
 3461POPC   C2B45260  44.834  34.246   6.667
 3461POPC   C3B45261  44.755  34.393   7.068
 3461POPC   C4B45262  44.669  34.073   7.356
 3462POPC   NC345263  39.260   3.797   5.656
 3462POPC   PO445264  39.401   4.292   5.154
 3462POPC   GL145265  39.355   4.295   5.648
 3462POPC   GL245266  39.543   4.111   5.926
 3462POPC   C1A45267  39.109   4.288   6.089
 3462POPC   D2A45268  39.253   4.377   6.504
 3462POPC   C3A45269  39.036   4.321   6.869
 3462POPC   C4A45270  39.145   4.510   7.237
 3462POPC   C1B45271  39.483   3.835   6.275
 3462POPC   C2B45272  39.624   3.734   6.708
 3462POPC   C3B45273  39.585   3.883   7.118
 3462POPC   C4B45274  39.451   3.847   7.557
 3463POPC   NC345275  40.248  26.019   5.224
 3463POPC   PO445276  39.702  26.274   5.163
 3463POPC   GL145277  39.743  26.266   5.689
 3463POPC   GL245278  40.003  26.093   5.818
 3463POPC   C1A45279  39.662  26.157   6.181
 3463POPC   D2A45280  39.897  26.246   6.566
 3463POPC   C3A45281  39.704  26.141   6.960
 3463POPC   C4A45282  39.890  26.179   7.347
 3463POPC   C1B45283  40.127  25.912   6.230
 3463POPC   C2B45284  40.047  25.751   6.641
 3463POPC   C3B45285  40.212  25.992   6.992
 3463POPC   C4B45286  40.382  26.088   7.400
 3464POPC   NC345287  23.086  30.264   5.249
 3464POPC   PO445288  23.148  29.622   5.386
 3464POPC   GL145289  23.013  29.884   5.764
 3464POPC   GL245290  23.103  30.225   5.801
 3464POPC   C1A45291  22.894  29.729   6.179
 3464POPC   D2A45292  22.950  29.887   6.598
 3464POPC   C3A45293  22.631  29.812   6.911
 3464POPC   C4A45294  22.834  29.676   7.296
 3464POPC   C1B45295  22.873  30.237   6.209
 3464POPC   C2B45296  22.754  30.352   6.655
 3464POPC   C3B45297  22.829  30.244   7.110
 3464POPC   C4B45298  22.768  30.106   7.534
 3465POPC   NC345299  44.194  31.972   5.447
 3465POPC   PO445300  43.693  32.394   5.499
 3465POPC   GL145301  43.631  32.242   5.894
 3465POPC   GL245302  43.794  31.944   5.763
 3465POPC   C1A45303  43.729  32.305   6.350
 3465POPC   D2A45304  43.677  32.180   6.802
 3465POPC   C3A45305  43.856  32.453   7.141
 3465POPC   C4A45306  43.929  32.471   7.604
 3465POPC   C1B45307  44.089  32.042   6.095
 3465POPC   C2B45308  44.062  31.938   6.525
 3465POPC   C3B45309  44.139  32.070   6.969
 3465POPC   C4B45310  43.991  32.015   7.390
 3466POPC   NC345311   5.964  21.895   5.186
 3466POPC   PO445312   5.791  22.550   5.282
 3466POPC   GL145313   5.903  22.216   5.618
 3466POPC   GL245314   5.597  22.267   5.782
 3466POPC   C1A45315   6.013  22.243   6.093
 3466POPC   D2A45316   6.005  22.254   6.588
 3466POPC   C3A45317   5.976  22.443   7.041
 3466POPC   C4A45318   6.234  22.455   7.443
 3466POPC   C1B45319   5.577  21.945   6.112
 3466POPC   C2B45320   5.563  21.784   6.546
 3466POPC   C3B45321   5.733  21.977   6.936
 3466POPC   C4B45322   5.706  22.110   7.390
 3467POPC   NC345323  30.040   0.259   5.302
 3467POPC   PO445324  29.899   0.891   5.525
 3467POPC   GL145325  30.031   0.585   5.854
 3467POPC   GL245326  29.946   0.213   5.797
 3467POPC   C1A45327  30.054   0.678   6.307
 3467POPC   D2A45328  29.896   0.650   6.746
 3467POPC   C3A45329  30.172   0.583   7.104
 3467POPC   C4A45330  30.288   0.179   7.229
 3467POPC   C1B45331  29.871   0.212   6.225
 3467POPC   C2B45332  29.933   0.039   6.627
 3467POPC   C3B45333  29.816   0.217   7.011
 3467POPC   C4B45334  29.537   0.180   7.336
 3468POPC   NC345335  39.310  33.903   5.392
 3468POPC   PO445336  39.379  33.302   5.525
 3468POPC   GL145337  39.332  33.627   5.824
 3468POPC   GL245338  39.344  34.044   5.875
 3468POPC   C1A45339  39.130  33.566   6.212
 3468POPC   D2A45340  39.173  33.736   6.623
 3468POPC   C3A45341  39.240  33.483   6.979
 3468POPC   C4A45342  39.076  33.758   7.300
 3468POPC   C1B45343  39.578  33.855   6.209
 3468POPC   C2B45344  39.581  33.477   6.480
 3468POPC   C3B45345  39.660  33.755   6.828
 3468POPC   C4B45346  39.575  33.803   7.232
 3469POPC   NC345347  10.143   9.681   5.528
 3469POPC   PO445348   9.435   9.750   5.384
 3469POPC   GL145349   9.683   9.702   5.750
 3469POPC   GL245350   9.634  10.006   5.901
 3469POPC   C1A45351   9.691   9.521   6.174
 3469POPC   D2A45352   9.581   9.317   6.597
 3469POPC   C3A45353   9.744   9.484   6.990
 3469POPC   C4A45354   9.637   9.617   7.417
 3469POPC   C1B45355   9.429   9.943   6.281
 3469POPC   C2B45356   9.669   9.852   6.637
 3469POPC   C3B45357   9.676   9.997   7.064
 3469POPC   C4B45358   9.839  10.067   7.533
 3470POPC   NC345359  21.135   2.543   5.407
 3470POPC   PO445360  21.274   3.203   5.424
 3470POPC   GL145361  21.249   2.932   5.775
 3470POPC   GL245362  21.465   2.646   5.843
 3470POPC   C1A45363  21.271   2.963   6.221
 3470POPC   D2A45364  21.106   2.962   6.623
 3470POPC   C3A45365  21.463   2.976   6.884
 3470POPC   C4A45366  21.500   2.630   7.157
 3470POPC   C1B45367  21.034   2.534   6.051
 3470POPC   C2B45368  20.901   2.478   6.483
 3470POPC   C3B45369  21.008   2.514   6.895
 3470POPC   C4B45370  21.058   2.427   7.325
 3471POPC   NC345371  15.420   1.521   5.051
 3471POPC   PO445372  14.946   1.371   5.529
 3471POPC   GL145373  14.996   1.361   5.942
 3471POPC   GL245374  15.345   1.318   5.936
 3471POPC   C1A45375  14.830   1.218   6.322
 3471POPC   D2A45376  14.823   1.426   6.690
 3471POPC   C3A45377  14.714   1.235   7.042
 3471POPC   C4A45378  14.924   0.860   7.118
 3471POPC   C1B45379  15.212   0.901   6.174
 3471POPC   C2B45380  15.092   0.871   6.626
 3471POPC   C3B45381  15.226   1.220   6.921
 3471POPC   C4B45382  15.564   1.311   7.165
 3472POPC   NC345383  29.275   7.935   5.354
 3472POPC   PO445384  29.694   8.397   5.222
 3472POPC   GL145385  29.288   8.344   5.647
 3472POPC   GL245386  29.051   8.057   5.794
 3472POPC   C1A45387  29.207   8.359   6.161
 3472POPC   D2A45388  28.906   8.215   6.509
 3472POPC   C3A45389  29.068   8.029   6.865
 3472POPC   C4A45390  29.164   8.019   7.284
 3472POPC   C1B45391  28.941   7.821   6.189
 3472POPC   C2B45392  28.706   7.735   6.603
 3472POPC   C3B45393  28.871   7.593   7.048
 3472POPC   C4B45394  28.818   7.728   7.501
 3473POPC   NC345395  33.139  32.397   5.411
 3473POPC   PO445396  33.219  31.710   5.369
 3473POPC   GL145397  32.946  32.003   5.663
 3473POPC   GL245398  33.097  32.297   5.887
 3473POPC   C1A45399  32.813  31.984   6.119
 3473POPC   D2A45400  32.799  32.171   6.494
 3473POPC   C3A45401  33.068  32.061   6.815
 3473POPC   C4A45402  33.004  32.168   7.230
 3473POPC   C1B45403  33.078  32.536   6.267
 3473POPC   C2B45404  33.029  32.565   6.726
 3473POPC   C3B45405  33.120  32.657   7.150
 3473POPC   C4B45406  33.224  32.570   7.575
 3474POPC   NC345407  28.787  21.541   5.373
 3474POPC   PO445408  29.371  21.205   5.277
 3474POPC   GL145409  29.195  21.289   5.688
 3474POPC   GL245410  29.271  21.617   5.719
 3474POPC   C1A45411  28.993  21.386   6.114
 3474POPC   D2A45412  28.845  21.556   6.536
 3474POPC   C3A45413  29.058  21.436   6.923
 3474POPC   C4A45414  29.246  21.746   7.188
 3474POPC   C1B45415  29.410  21.689   6.136
 3474POPC   C2B45416  29.377  21.647   6.570
 3474POPC   C3B45417  29.577  21.451   6.914
 3474POPC   C4B45418  29.514  21.205   7.302
 3475POPC   NC345419  32.402  42.918   5.412
 3475POPC   PO445420  31.849  43.283   5.390
 3475POPC   GL145421  32.095  43.246   5.742
 3475POPC   GL245422  32.113  42.905   5.831
 3475POPC   C1A45423  32.264  43.286   6.164
 3475POPC   D2A45424  32.349  43.086   6.552
 3475POPC   C3A45425  32.226  43.363   6.886
 3475POPC   C4A45426  32.055  43.550   7.247
 3475POPC   C1B45427  31.961  42.685   6.192
 3475POPC   C2B45428  32.101  42.612   6.604
 3475POPC   C3B45429  32.205  42.849   6.975
 3475POPC   C4B45430  31.881  43.072   7.150
 3476POPC   NC345431  17.999  39.067   5.668
 3476POPC   PO445432  18.458  39.498   5.366
 3476POPC   GL145433  18.375  39.425   5.765
 3476POPC   GL245434  18.066  39.555   5.870
 3476POPC   C1A45435  18.512  39.444   6.170
 3476POPC   D2A45436  18.480  39.224   6.544
 3476POPC   C3A45437  18.552  39.510   6.862
 3476POPC   C4A45438  18.552  39.388   7.268
 3476POPC   C1B45439  17.982  39.291   6.256
 3476POPC   C2B45440  18.015  39.035   6.629
 3476POPC   C3B45441  18.200  39.113   7.036
 3476POPC   C4B45442  18.099  39.288   7.479
 3477POPC   NC345443  29.742  41.275   5.543
 3477POPC   PO445444  30.163  41.846   5.533
 3477POPC   GL145445  29.953  41.644   5.852
 3477POPC   GL245446  30.166  41.362   5.836
 3477POPC   C1A45447  29.837  41.525   6.271
 3477POPC   D2A45448  29.794  41.698   6.676
 3477POPC   C3A45449  29.871  41.563   7.077
 3477POPC   C4A45450  29.753  41.350   7.460
 3477POPC   C1B45451  30.218  41.182   6.238
 3477POPC   C2B45452  30.064  41.246   6.667
 3477POPC   C3B45453  30.015  41.068   7.073
 3477POPC   C4B45454  30.268  41.003   7.425
 3478POPC   NC345455   9.935   0.755   5.560
 3478POPC   PO445456  10.043   0.165   5.271
 3478POPC   GL145457   9.837   0.272   5.719
 3478POPC   GL245458   9.517   0.444   5.688
 3478POPC   C1A45459  10.003   0.315   6.166
 3478POPC   D2A45460   9.854   0.382   6.579
 3478POPC   C3A45461  10.076   0.598   6.886
 3478POPC   C4A45462   9.958   0.473   7.282
 3478POPC   C1B45463   9.505   0.470   6.147
 3478POPC   C2B45464   9.347   0.366   6.564
 3478POPC   C3B45465   9.501   0.497   6.978
 3478POPC   C4B45466   9.508   0.224   7.327
 3479POPC   NC345467   5.493  10.108   5.360
 3479POPC   PO445468   5.972   9.529   5.468
 3479POPC   GL145469   5.837   9.922   5.701
 3479POPC   GL245470   6.129  10.040   5.835
 3479POPC   C1A45471   5.711   9.990   6.150
 3479POPC   D2A45472   5.863   9.709   6.471
 3479POPC   C3A45473   5.862   9.730   6.908
 3479POPC   C4A45474   5.979   9.597   7.305
 3479POPC   C1B45475   6.235   9.991   6.266
 3479POPC   C2B45476   6.280   9.930   6.706
 3479POPC   C3B45477   6.122  10.127   7.088
 3479POPC   C4B45478   5.938  10.095   7.482
 3480POPC   NC345479  35.924  19.897   5.595
 3480POPC   PO445480  36.607  20.041   5.528
 3480POPC   GL145481  36.400  19.809   5.847
 3480POPC   GL245482  36.281  20.107   5.959
 3480POPC   C1A45483  36.111  19.713   6.227
 3480POPC   D2A45484  36.005  19.890   6.631
 3480POPC   C3A45485  36.337  19.784   6.943
 3480POPC   C4A45486  36.352  19.529   7.344
 3480POPC   C1B45487  35.916  20.209   6.202
 3480POPC   C2B45488  35.740  20.353   6.589
 3480POPC   C3B45489  35.879  20.240   6.993
 3480POPC   C4B45490  35.593  20.055   7.250
 3481POPC   NC345491  31.335  37.797   5.149
 3481POPC   PO445492  31.665  37.507   5.665
 3481POPC   GL145493  31.509  37.732   6.014
 3481POPC   GL245494  31.291  37.938   5.809
 3481POPC   C1A45495  31.352  37.567   6.443
 3481POPC   D2A45496  31.616  37.309   6.755
 3481POPC   C3A45497  31.690  37.372   7.212
 3481POPC   C4A45498  31.882  37.692   7.445
 3481POPC   C1B45499  31.133  38.017   6.234
 3481POPC   C2B45500  31.134  38.004   6.679
 3481POPC   C3B45501  31.310  38.153   7.050
 3481POPC   C4B45502  31.427  37.819   7.261
 3482POPC   NC345503  31.803   5.703   5.361
 3482POPC   PO445504  31.256   5.931   5.448
 3482POPC   GL145505  31.428   5.937   5.827
 3482POPC   GL245506  31.517   5.612   5.814
 3482POPC   C1A45507  31.230   6.039   6.221
 3482POPC   D2A45508  31.384   6.144   6.582
 3482POPC   C3A45509  31.309   6.004   6.995
 3482POPC   C4A45510  31.569   5.993   7.401
 3482POPC   C1B45511  31.421   5.514   6.222
 3482POPC   C2B45512  31.491   5.647   6.628
 3482POPC   C3B45513  31.632   5.633   7.050
 3482POPC   C4B45514  31.379   5.513   7.432
 3483POPC   NC345515  23.445  12.200   5.457
 3483POPC   PO445516  23.986  12.282   5.070
 3483POPC   GL145517  23.972  12.191   5.601
 3483POPC   GL245518  23.724  11.944   5.789
 3483POPC   C1A45519  23.912  12.305   6.083
 3483POPC   D2A45520  23.836  12.283   6.536
 3483POPC   C3A45521  23.687  11.974   6.841
 3483POPC   C4A45522  23.590  11.949   7.299
 3483POPC   C1B45523  23.440  12.128   6.139
 3483POPC   C2B45524  23.320  12.283   6.562
 3483POPC   C3B45525  23.255  12.199   7.014
 3483POPC   C4B45526  23.187  12.304   7.448
 3484POPC   NC345527  43.318  25.273   5.637
 3484POPC   PO445528  42.913  24.878   5.363
 3484POPC   GL145529  42.920  25.063   5.846
 3484POPC   GL245530  42.913  25.477   5.869
 3484POPC   C1A45531  43.076  25.133   6.263
 3484POPC   D2A45532  42.849  25.067   6.631
 3484POPC   C3A45533  43.027  25.150   7.005
 3484POPC   C4A45534  43.098  25.165   7.440
 3484POPC   C1B45535  43.068  25.649   6.269
 3484POPC   C2B45536  43.235  25.498   6.655
 3484POPC   C3B45537  43.337  25.535   7.090
 3484POPC   C4B45538  42.914  25.617   7.296
 3485POPC   NC345539  12.212  44.604   5.463
 3485POPC   PO445540  11.574  44.869   5.542
 3485POPC   GL145541  11.938  44.870   5.792
 3485POPC   GL245542  11.843  44.552   5.929
 3485POPC   C1A45543  12.253  44.747   6.150
 3485POPC   D2A45544  12.180  44.836   6.617
 3485POPC   C3A45545  12.107  44.526   6.953
 3485POPC   C4A45546  12.419  44.491   7.268
 3485POPC   C1B45547  11.766  44.871   6.263
 3485POPC   C2B45548  11.656  44.795   6.678
 3485POPC   C3B45549  11.804  44.938   7.061
 3485POPC   C4B45550  12.246  44.995   7.178
 3486POPC   NC345551  40.349  32.778   5.500
 3486POPC   PO445552  41.030  32.958   5.536
 3486POPC   GL145553  40.721  32.949   5.852
 3486POPC   GL245554  40.610  33.265   5.976
 3486POPC   C1A45555  40.865  32.916   6.285
 3486POPC   D2A45556  40.926  32.901   6.720
 3486POPC   C3A45557  40.703  33.102   7.002
 3486POPC   C4A45558  40.776  32.813   7.316
 3486POPC   C1B45559  41.012  33.412   6.134
 3486POPC   C2B45560  41.187  33.407   6.531
 3486POPC   C3B45561  40.983  33.527   6.906
 3486POPC   C4B45562  40.873  33.441   7.327
 3487POPC   NC345563  23.289   3.422   5.720
 3487POPC   PO445564  22.638   3.730   5.545
 3487POPC   GL145565  22.832   3.598   5.870
 3487POPC   GL245566  23.102   3.825   5.949
 3487POPC   C1A45567  22.788   3.447   6.262
 3487POPC   D2A45568  22.941   3.247   6.608
 3487POPC   C3A45569  22.755   3.412   6.963
 3487POPC   C4A45570  22.919   3.393   7.336
 3487POPC   C1B45571  22.802   3.967   6.225
 3487POPC   C2B45572  22.982   3.794   6.603
 3487POPC   C3B45573  23.107   3.800   7.013
 3487POPC   C4B45574  23.098   3.861   7.429
 3488POPC   NC345575  19.906   7.771   5.532
 3488POPC   PO445576  19.800   7.094   5.333
 3488POPC   GL145577  19.879   7.282   5.802
 3488POPC   GL245578  19.904   7.645   6.012
 3488POPC   C1A45579  20.033   7.245   6.271
 3488POPC   D2A45580  19.988   7.627   6.546
 3488POPC   C3A45581  19.677   7.704   6.850
 3488POPC   C4A45582  19.871   7.633   7.241
 3488POPC   C1B45583  19.551   7.680   6.318
 3488POPC   C2B45584  19.170   7.584   6.524
 3488POPC   C3B45585  19.162   7.564   6.959
 3488POPC   C4B45586  19.466   7.316   7.150
 3489POPC   NC345587  38.235  31.615   5.207
 3489POPC   PO445588  38.750  31.184   5.420
 3489POPC   GL145589  38.492  31.347   5.836
 3489POPC   GL245590  38.132  31.550   5.935
 3489POPC   C1A45591  38.571  31.636   6.183
 3489POPC   D2A45592  38.408  31.728   6.573
 3489POPC   C3A45593  38.724  31.849   6.831
 3489POPC   C4A45594  38.584  31.632   7.166
 3489POPC   C1B45595  38.174  31.278   6.291
 3489POPC   C2B45596  38.310  31.052   6.658
 3489POPC   C3B45597  38.278  31.205   7.079
 3489POPC   C4B45598  38.344  31.301   7.502
 3490POPC   NC345599  15.644  36.505   5.375
 3490POPC   PO445600  16.045  35.940   5.507
 3490POPC   GL145601  15.903  35.995   5.915
 3490POPC   GL245602  16.142  35.790   6.059
 3490POPC   C1A45603  15.854  36.134   6.357
 3490POPC   D2A45604  15.914  36.003   6.770
 3490POPC   C3A45605  15.822  36.364   6.994
 3490POPC   C4A45606  15.948  36.593   7.328
 3490POPC   C1B45607  16.363  36.092   6.299
 3490POPC   C2B45608  16.272  36.360   6.662
 3490POPC   C3B45609  16.315  36.319   7.088
 3490POPC   C4B45610  16.081  36.005   7.264
 3491POPC   NC345611  21.581  43.842   5.209
 3491POPC   PO445612  21.125  44.216   5.019
 3491POPC   GL145613  21.224  44.038   5.525
 3491POPC   GL245614  21.359  43.740   5.660
 3491POPC   C1A45615  21.208  44.105   6.021
 3491POPC   D2A45616  21.226  43.909   6.468
 3491POPC   C3A45617  21.246  44.137   6.871
 3491POPC   C4A45618  21.044  44.069   7.266
 3491POPC   C1B45619  21.538  43.709   6.088
 3491POPC   C2B45620  21.639  43.605   6.531
 3491POPC   C3B45621  21.484  43.636   6.964
 3491POPC   C4B45622  21.538  43.925   7.261
 3492POPC   NC345623   2.492  39.888   5.168
 3492POPC   PO445624   3.094  39.936   5.447
 3492POPC   GL145625   2.846  39.962   5.802
 3492POPC   GL245626   2.634  40.237   5.766
 3492POPC   C1A45627   2.859  39.714   6.203
 3492POPC   D2A45628   3.075  39.603   6.593
 3492POPC   C3A45629   2.799  39.636   6.946
 3492POPC   C4A45630   2.768  39.935   7.258
 3492POPC   C1B45631   2.572  40.140   6.210
 3492POPC   C2B45632   2.733  40.047   6.625
 3492POPC   C3B45633   2.768  40.351   6.983
 3492POPC   C4B45634   2.878  40.420   7.437
 3493POPC   NC345635   6.798   4.394   5.613
 3493POPC   PO445636   6.265   4.440   5.182
 3493POPC   GL145637   6.281   4.247   5.722
 3493POPC   GL245638   6.526   3.980   5.822
 3493POPC   C1A45639   6.431   4.302   6.203
 3493POPC   D2A45640   6.620   4.478   6.594
 3493POPC   C3A45641   6.591   4.240   6.966
 3493POPC   C4A45642   6.450   4.041   7.321
 3493POPC   C1B45643   6.861   4.035   6.186
 3493POPC   C2B45644   6.918   3.990   6.645
 3493POPC   C3B45645   6.896   3.834   7.087
 3493POPC   C4B45646   6.959   3.965   7.534
 3494POPC   NC345647  18.368  34.288   5.358
 3494POPC   PO445648  17.899  34.787   5.224
 3494POPC   GL145649  18.092  34.723   5.691
 3494POPC   GL245650  18.230  34.398   5.832
 3494POPC   C1A45651  18.060  34.710   6.188
 3494POPC   D2A45652  18.263  34.529   6.574
 3494POPC   C3A45653  18.176  34.618   7.021
 3494POPC   C4A45654  18.371  34.841   7.377
 3494POPC   C1B45655  18.570  34.363   6.144
 3494POPC   C2B45656  18.712  34.299   6.562
 3494POPC   C3B45657  18.540  34.248   6.971
 3494POPC   C4B45658  18.518  34.369   7.369
 3495POPC   NC345659  34.370  42.203   5.350
 3495POPC   PO445660  34.986  42.046   5.424
 3495POPC   GL145661  34.708  42.227   5.779
 3495POPC   GL245662  34.329  42.302   5.853
 3495POPC   C1A45663  34.723  42.483   6.163
 3495POPC   D2A45664  34.640  42.699   6.570
 3495POPC   C3A45665  34.687  42.554   7.012
 3495POPC   C4A45666  34.798  42.679   7.435
 3495POPC   C1B45667  34.254  42.285   6.303
 3495POPC   C2B45668  34.582  42.194   6.632
 3495POPC   C3B45669  34.534  42.055   7.035
 3495POPC   C4B45670  34.126  42.064   7.149
 3496POPC   NC345671  37.330  29.149   5.157
 3496POPC   PO445672  36.809  29.106   5.592
 3496POPC   GL145673  37.099  29.032   5.962
 3496POPC   GL245674  36.790  28.879   6.075
 3496POPC   C1A45675  37.135  28.942   6.422
 3496POPC   D2A45676  36.747  29.049   6.705
 3496POPC   C3A45677  36.888  29.067   7.121
 3496POPC   C4A45678  37.326  29.198   7.241
 3496POPC   C1B45679  36.833  29.344   6.279
 3496POPC   C2B45680  36.563  29.568   6.582
 3496POPC   C3B45681  36.524  29.439   6.993
 3496POPC   C4B45682  36.313  29.051   7.146
 3497POPC   NC345683  41.129  25.553   5.356
 3497POPC   PO445684  40.453  25.710   5.506
 3497POPC   GL145685  40.570  25.355   5.816
 3497POPC   GL245686  40.875  25.190   5.762
 3497POPC   C1A45687  40.647  25.155   6.221
 3497POPC   D2A45688  40.928  25.179   6.565
 3497POPC   C3A45689  40.703  25.235   6.934
 3497POPC   C4A45690  40.805  25.204   7.341
 3497POPC   C1B45691  41.052  25.480   6.156
 3497POPC   C2B45692  41.065  25.680   6.620
 3497POPC   C3B45693  41.097  25.582   7.115
 3497POPC   C4B45694  40.975  25.589   7.610
 3498POPC   NC345695  25.974   8.203   5.336
 3498POPC   PO445696  26.229   7.649   5.739
 3498POPC   GL145697  26.238   8.078   5.855
 3498POPC   GL245698  25.973   8.350   5.832
 3498POPC   C1A45699  26.099   8.171   6.290
 3498POPC   D2A45700  25.833   8.048   6.602
 3498POPC   C3A45701  26.049   8.189   6.921
 3498POPC   C4A45702  25.974   8.336   7.294
 3498POPC   C1B45703  26.356   8.541   6.066
 3498POPC   C2B45704  26.452   8.708   6.428
 3498POPC   C3B45705  26.235   8.639   6.769
 3498POPC   C4B45706  26.220   8.751   7.167
 3499POPC   NC345707  21.576   0.452   5.270
 3499POPC   PO445708  20.946   0.490   5.405
 3499POPC   GL145709  21.115   0.130   5.712
 3499POPC   GL245710  21.505   0.063   5.734
 3499POPC   C1A45711  21.254   0.167   6.168
 3499POPC   D2A45712  21.226   0.580   6.397
 3499POPC   C3A45713  21.279   0.608   6.861
 3499POPC   C4A45714  21.193   0.254   7.148
 3499POPC   C1B45715  21.762   0.208   6.157
 3499POPC   C2B45716  21.620   0.309   6.588
 3499POPC   C3B45717  21.746   0.421   7.007
 3499POPC   C4B45718  21.659   0.230   7.358
 3500POPC   NC345719  23.011  35.968   5.410
 3500POPC   PO445720  22.471  36.226   5.373
 3500POPC   GL145721  22.684  36.127   5.800
 3500POPC   GL245722  23.054  36.260   5.844
 3500POPC   C1A45723  22.837  35.981   6.226
 3500POPC   D2A45724  22.861  35.781   6.620
 3500POPC   C3A45725  22.787  35.968   7.031
 3500POPC   C4A45726  23.023  36.039   7.418
 3500POPC   C1B45727  23.280  36.273   6.252
 3500POPC   C2B45728  23.093  36.234   6.657
 3500POPC   C3B45729  23.142  36.367   7.073
 3500POPC   C4B45730  22.958  36.527   7.445
 3501POPC   NC345731  41.395  12.942   5.465
 3501POPC   PO445732  41.830  12.394   5.358
 3501POPC   GL145733  41.723  12.626   5.765
 3501POPC   GL245734  41.746  13.021   5.799
 3501POPC   C1A45735  41.544  12.484   6.201
 3501POPC   D2A45736  41.207  12.436   6.543
 3501POPC   C3A45737  41.321  12.616   6.965
 3501POPC   C4A45738  41.749  12.610   7.138
 3501POPC   C1B45739  41.475  12.989   6.182
 3501POPC   C2B45740  41.605  12.840   6.598
 3501POPC   C3B45741  41.695  13.075   6.981
 3501POPC   C4B45742  41.494  13.165   7.342
 3502POPC   NC345743  20.362  17.425   5.467
 3502POPC   PO445744  20.806  17.884   5.542
 3502POPC   GL145745  20.634  17.625   5.846
 3502POPC   GL245746  20.295  17.744   5.889
 3502POPC   C1A45747  20.670  17.291   6.167
 3502POPC   D2A45748  21.013  17.211   6.430
 3502POPC   C3A45749  20.952  17.325   6.868
 3502POPC   C4A45750  20.714  17.521   7.178
 3502POPC   C1B45751  20.529  17.773   6.304
 3502POPC   C2B45752  20.507  17.550   6.690
 3502POPC   C3B45753  20.246  17.664   7.045
 3502POPC   C4B45754  20.339  17.697   7.501
 3503POPC   NC345755   1.961  39.049   5.283
 3503POPC   PO445756   2.378  39.461   5.377
 3503POPC   GL145757   2.141  39.266   5.739
 3503POPC   GL245758   2.178  38.875   5.738
 3503POPC   C1A45759   1.925  39.417   6.132
 3503POPC   D2A45760   1.774  39.569   6.492
 3503POPC   C3A45761   1.893  39.606   6.912
 3503POPC   C4A45762   1.910  39.335   7.254
 3503POPC   C1B45763   1.825  38.937   6.016
 3503POPC   C2B45764   1.795  39.046   6.449
 3503POPC   C3B45765   1.982  39.000   6.840
 3503POPC   C4B45766   1.779  38.857   7.181
 3504POPC   NC345767   3.052  16.852   5.386
 3504POPC   PO445768   2.492  16.523   5.406
 3504POPC   GL145769   2.726  16.680   5.751
 3504POPC   GL245770   2.981  16.435   5.749
 3504POPC   C1A45771   2.926  16.854   6.133
 3504POPC   D2A45772   2.936  17.033   6.552
 3504POPC   C3A45773   2.844  16.749   6.873
 3504POPC   C4A45774   2.890  16.899   7.259
 3504POPC   C1B45775   2.760  16.269   6.089
 3504POPC   C2B45776   2.651  16.400   6.489
 3504POPC   C3B45777   2.449  16.410   6.873
 3504POPC   C4B45778   2.604  16.449   7.282
 3505POPC   NC345779  14.683  20.277   5.433
 3505POPC   PO445780  14.052  20.515   5.556
 3505POPC   GL145781  14.471  20.628   5.795
 3505POPC   GL245782  14.708  20.931   5.644
 3505POPC   C1A45783  14.538  20.653   6.274
 3505POPC   D2A45784  14.493  20.777   6.725
 3505POPC   C3A45785  14.518  20.472   7.075
 3505POPC   C4A45786  14.199  20.313   7.385
 3505POPC   C1B45787  14.717  21.089   6.072
 3505POPC   C2B45788  14.710  21.203   6.535
 3505POPC   C3B45789  14.837  21.058   6.963
 3505POPC   C4B45790  14.828  20.800   7.348
 3506POPC   NC345791   3.407  42.648   5.580
 3506POPC   PO445792   3.478  41.935   5.428
 3506POPC   GL145793   3.592  42.179   5.801
 3506POPC   GL245794   3.261  42.180   5.859
 3506POPC   C1A45795   3.575  42.366   6.247
 3506POPC   D2A45796   3.537  42.577   6.676
 3506POPC   C3A45797   3.787  42.390   7.045
 3506POPC   C4A45798   3.843  42.033   7.370
 3506POPC   C1B45799   3.043  42.165   6.247
 3506POPC   C2B45800   3.060  42.294   6.669
 3506POPC   C3B45801   3.276  42.296   7.042
 3506POPC   C4B45802   3.231  41.992   7.319
 3507POPC   NC345803  32.443  44.573   5.258
 3507POPC   PO445804  31.934  44.880   5.232
 3507POPC   GL145805  32.124  44.665   5.649
 3507POPC   GL245806  31.920  44.484   5.907
 3507POPC   C1A45807  32.306  44.716   6.088
 3507POPC   D2A45808  32.239  44.541   6.504
 3507POPC   C3A45809  32.358  44.891   6.798
 3507POPC   C4A45810  32.556  44.880   7.216
 3507POPC   C1B45811  31.800  44.774   6.236
 3507POPC   C2B45812  31.831  44.755   6.685
 3507POPC   C3B45813  32.091  44.549   7.038
 3507POPC   C4B45814  32.246  44.487   7.458
 3508POPC   NC345815  19.369  32.262   5.457
 3508POPC   PO445816  18.634  32.369   5.316
 3508POPC   GL145817  18.883  32.371   5.690
 3508POPC   GL245818  18.601  32.444   5.854
 3508POPC   C1A45819  19.090  32.163   6.060
 3508POPC   D2A45820  19.341  31.993   6.427
 3508POPC   C3A45821  19.206  32.138   6.842
 3508POPC   C4A45822  19.191  32.487   7.116
 3508POPC   C1B45823  18.882  32.606   6.178
 3508POPC   C2B45824  19.079  32.573   6.559
 3508POPC   C3B45825  18.764  32.593   6.854
 3508POPC   C4B45826  18.698  32.374   7.213
 3509POPC   NC345827  30.633  30.280   5.444
 3509POPC   PO445828  30.977  30.869   5.388
 3509POPC   GL145829  30.873  30.648   5.735
 3509POPC   GL245830  30.533  30.774   5.717
 3509POPC   C1A45831  30.693  30.486   6.132
 3509POPC   D2A45832  30.515  30.603   6.521
 3509POPC   C3A45833  30.631  30.457   6.921
 3509POPC   C4A45834  30.605  30.690   7.264
 3509POPC   C1B45835  30.396  30.990   6.105
 3509POPC   C2B45836  30.463  31.111   6.526
 3509POPC   C3B45837  30.299  30.945   6.909
 3509POPC   C4B45838  30.394  31.159   7.276
 3510POPC   NC345839   7.507  23.510   5.415
 3510POPC   PO445840   7.528  24.149   5.530
 3510POPC   GL145841   7.481  23.834   5.848
 3510POPC   GL245842   7.243  23.571   5.839
 3510POPC   C1A45843   7.587  23.650   6.241
 3510POPC   D2A45844   7.855  23.723   6.601
 3510POPC   C3A45845   7.576  23.665   6.923
 3510POPC   C4A45846   7.428  23.692   7.302
 3510POPC   C1B45847   7.069  23.534   6.232
 3510POPC   C2B45848   7.266  23.367   6.597
 3510POPC   C3B45849   7.085  23.396   7.016
 3510POPC   C4B45850   7.014  23.490   7.468
 3511POPC   NC345851   2.984  34.122   5.467
 3511POPC   PO445852   2.574  33.501   5.379
 3511POPC   GL145853   2.764  33.613   5.814
 3511POPC   GL245854   3.125  33.683   5.821
 3511POPC   C1A45855   2.801  33.499   6.255
 3511POPC   D2A45856   2.659  33.357   6.636
 3511POPC   C3A45857   2.758  33.550   7.020
 3511POPC   C4A45858   2.392  33.685   7.227
 3511POPC   C1B45859   3.012  33.948   6.188
 3511POPC   C2B45860   2.752  33.917   6.583
 3511POPC   C3B45861   2.798  34.061   7.010
 3511POPC   C4B45862   3.197  34.048   7.238
 3512POPC   NC345863   0.770   0.040   5.576
 3512POPC   PO445864   0.346  44.518   5.465
 3512POPC   GL145865   0.467  44.663   5.862
 3512POPC   GL245866   0.359  44.984   5.931
 3512POPC   C1A45867   0.598  44.707   6.290
 3512POPC   D2A45868   0.487  44.807   6.682
 3512POPC   C3A45869   0.649  44.526   6.993
 3512POPC   C4A45870   0.488  44.654   7.401
 3512POPC   C1B45871   0.193   0.110   6.336
 3512POPC   C2B45872   0.196   0.230   6.718
 3512POPC   C3B45873   0.375   0.099   7.091
 3512POPC   C4B45874   0.768  44.994   7.102
 3513POPC   NC345875  17.597  28.120   5.014
 3513POPC   PO445876  17.127  27.895   5.503
 3513POPC   GL145877  17.416  27.672   5.844
 3513POPC   GL245878  17.431  27.335   6.008
 3513POPC   C1A45879  17.533  27.897   6.230
 3513POPC   D2A45880  17.533  27.686   6.625
 3513POPC   C3A45881  17.567  27.882   7.013
 3513POPC   C4A45882  17.586  27.682   7.409
 3513POPC   C1B45883  17.207  27.088   6.300
 3513POPC   C2B45884  17.141  27.320   6.663
 3513POPC   C3B45885  17.354  27.382   7.033
 3513POPC   C4B45886  17.211  27.346   7.438
 3514POPC   NC345887  16.195   9.458   5.397
 3514POPC   PO445888  15.701  10.067   5.407
 3514POPC   GL145889  15.924   9.793   5.750
 3514POPC   GL245890  16.295   9.790   5.796
 3514POPC   C1A45891  16.028   9.588   6.188
 3514POPC   D2A45892  16.122   9.468   6.633
 3514POPC   C3A45893  15.924   9.756   6.936
 3514POPC   C4A45894  15.865   9.992   7.327
 3514POPC   C1B45895  16.385   9.962   6.228
 3514POPC   C2B45896  16.298  10.058   6.689
 3514POPC   C3B45897  16.364   9.952   7.135
 3514POPC   C4B45898  16.289   9.971   7.615
 3515POPC   NC345899  41.968   7.624   5.456
 3515POPC   PO445900  41.432   7.174   5.583
 3515POPC   GL145901  41.721   7.420   5.859
 3515POPC   GL245902  41.862   7.183   6.147
 3515POPC   C1A45903  41.797   7.655   6.241
 3515POPC   D2A45904  41.708   7.390   6.621
 3515POPC   C3A45905  41.638   7.560   7.027
 3515POPC   C4A45906  41.826   7.288   7.326
 3515POPC   C1B45907  41.392   7.214   6.245
 3515POPC   C2B45908  41.134   7.046   6.588
 3515POPC   C3B45909  41.311   7.152   6.980
 3515POPC   C4B45910  41.290   7.356   7.354
 3516POPC   NC345911  10.464  36.558   5.412
 3516POPC   PO445912  10.102  37.080   5.225
 3516POPC   GL145913  10.367  36.999   5.660
 3516POPC   GL245914  10.688  37.105   5.810
 3516POPC   C1A45915  10.395  36.780   6.099
 3516POPC   D2A45916  10.642  36.688   6.536
 3516POPC   C3A45917  10.498  36.832   6.957
 3516POPC   C4A45918  10.451  37.219   7.186
 3516POPC   C1B45919  10.714  37.149   6.276
 3516POPC   C2B45920  10.744  37.229   6.715
 3516POPC   C3B45921  10.943  37.098   7.088
 3516POPC   C4B45922  10.715  36.862   7.427
 3517POPC   NC345923  11.840  37.722   5.398
 3517POPC   PO445924  12.395  37.379   5.485
 3517POPC   GL145925  12.257  37.651   5.798
 3517POPC   GL245926  12.393  37.476   6.061
 3517POPC   C1A45927  12.000  37.817   6.137
 3517POPC   D2A45928  11.972  37.963   6.564
 3517POPC   C3A45929  12.162  37.748   6.924
 3517POPC   C4A45930  11.909  37.566   7.240
 3517POPC   C1B45931  12.307  37.532   6.485
 3517POPC   C2B45932  12.016  37.275   6.752
 3517POPC   C3B45933  11.960  37.036   7.128
 3517POPC   C4B45934  11.662  37.170   7.467
 3518POPC   NC345935  31.570  20.190   5.069
 3518POPC   PO445936  32.168  20.510   5.347
 3518POPC   GL145937  32.144  20.597   5.783
 3518POPC   GL245938  32.457  20.704   5.801
 3518POPC   C1A45939  31.980  20.476   6.230
 3518POPC   D2A45940  32.057  20.554   6.682
 3518POPC   C3A45941  32.085  20.286   7.047
 3518POPC   C4A45942  31.937  20.339   7.480
 3518POPC   C1B45943  32.300  20.935   6.154
 3518POPC   C2B45944  32.425  20.899   6.566
 3518POPC   C3B45945  32.240  20.973   6.939
 3518POPC   C4B45946  32.403  20.699   7.215
 3519POPC   NC345947  37.140   3.242   5.414
 3519POPC   PO445948  36.510   3.416   5.538
 3519POPC   GL145949  36.792   3.554   5.860
 3519POPC   GL245950  37.114   3.641   5.756
 3519POPC   C1A45951  36.874   3.512   6.299
 3519POPC   D2A45952  36.671   3.335   6.670
 3519POPC   C3A45953  36.733   3.503   7.057
 3519POPC   C4A45954  36.701   3.916   7.126
 3519POPC   C1B45955  37.240   3.844   6.142
 3519POPC   C2B45956  37.278   3.679   6.572
 3519POPC   C3B45957  37.220   3.431   6.928
 3519POPC   C4B45958  37.144   3.673   7.303
 3520POPC   NC345959  20.527  22.289   5.350
 3520POPC   PO445960  21.069  21.997   5.389
 3520POPC   GL145961  20.745  21.956   5.714
 3520POPC   GL245962  20.544  22.260   5.851
 3520POPC   C1A45963  20.761  21.916   6.167
 3520POPC   D2A45964  20.639  22.187   6.525
 3520POPC   C3A45965  20.681  22.007   6.925
 3520POPC   C4A45966  20.665  22.206   7.273
 3520POPC   C1B45967  20.262  22.094   6.186
 3520POPC   C2B45968  20.106  22.247   6.613
 3520POPC   C3B45969  20.211  22.162   7.067
 3520POPC   C4B45970  20.311  22.035   7.559
 3521POPC   NC345971   7.125  35.425   5.491
 3521POPC   PO445972   7.557  34.880   5.390
 3521POPC   GL145973   7.387  35.091   5.776
 3521POPC   GL245974   7.476  35.478   5.875
 3521POPC   C1A45975   7.476  35.070   6.210
 3521POPC   D2A45976   7.748  35.341   6.443
 3521POPC   C3A45977   7.649  35.314   6.880
 3521POPC   C4A45978   7.523  35.429   7.281
 3521POPC   C1B45979   7.145  35.453   6.192
 3521POPC   C2B45980   7.153  35.256   6.595
 3521POPC   C3B45981   7.083  35.409   6.993
 3521POPC   C4B45982   7.048  35.639   7.366
 3522POPC   NC345983  37.424  24.394   5.294
 3522POPC   PO445984  36.773  24.431   5.223
 3522POPC   GL145985  36.779  24.399   5.694
 3522POPC   GL245986  36.542  24.167   5.822
 3522POPC   C1A45987  36.773  24.554   6.151
 3522POPC   D2A45988  36.743  24.731   6.616
 3522POPC   C3A45989  36.911  24.616   7.061
 3522POPC   C4A45990  37.025  24.466   7.457
 3522POPC   C1B45991  36.563  24.087   6.255
 3522POPC   C2B45992  36.414  24.281   6.634
 3522POPC   C3B45993  36.490  24.330   7.054
 3522POPC   C4B45994  36.707  24.105   7.334
 3523POPC   NC345995  38.191  21.390   5.479
 3523POPC   PO445996  38.821  21.022   5.427
 3523POPC   GL145997  38.592  21.258   5.792
 3523POPC   GL245998  38.247  21.173   5.929
 3523POPC   C1A45999  38.496  21.530   6.177
 3523POPC   D2A46000  38.341  21.353   6.540
 3523POPC   C3A46001  38.463  21.446   6.940
 3523POPC   C4A46002  38.213  21.663   7.188
 3523POPC   C1B46003  38.528  20.976   6.237
 3523POPC   C2B46004  38.610  20.972   6.695
 3523POPC   C3B46005  38.547  20.983   7.160
 3523POPC   C4B46006  38.746  21.054   7.561
 3524POPC   NC346007  28.171  31.986   5.468
 3524POPC   PO446008  28.721  32.306   5.259
 3524POPC   GL146009  28.573  32.353   5.753
 3524POPC   GL246010  28.230  32.244   5.889
 3524POPC   C1A46011  28.513  32.415   6.254
 3524POPC   D2A46012  28.683  32.313   6.673
 3524POPC   C3A46013  28.702  32.500   7.130
 3524POPC   C4A46014  28.603  32.441   7.577
 3524POPC   C1B46015  28.231  31.980   6.255
 3524POPC   C2B46016  28.092  32.064   6.665
 3524POPC   C3B46017  28.300  32.184   7.024
 3524POPC   C4B46018  28.261  32.100   7.444
 3525POPC   NC346019  42.860  13.283   5.307
 3525POPC   PO446020  43.120  12.687   5.439
 3525POPC   GL146021  43.071  12.774   5.841
 3525POPC   GL246022  43.127  13.123   5.843
 3525POPC   C1A46023  42.873  12.837   6.228
 3525POPC   D2A46024  42.946  13.006   6.614
 3525POPC   C3A46025  43.045  12.729   6.937
 3525POPC   C4A46026  43.069  12.842   7.360
 3525POPC   C1B46027  43.389  12.979   6.210
 3525POPC   C2B46028  43.482  12.791   6.616
 3525POPC   C3B46029  43.515  12.916   7.062
 3525POPC   C4B46030  43.571  12.788   7.482
 3526POPC   NC346031  41.944  34.823   5.622
 3526POPC   PO446032  41.451  34.551   5.237
 3526POPC   GL146033  41.388  34.652   5.687
 3526POPC   GL246034  41.232  34.347   5.821
 3526POPC   C1A46035  41.569  34.657   6.128
 3526POPC   D2A46036  41.827  34.595   6.494
 3526POPC   C3A46037  41.653  34.678   6.900
 3526POPC   C4A46038  41.873  34.960   7.151
 3526POPC   C1B46039  41.130  34.418   6.268
 3526POPC   C2B46040  41.205  34.488   6.706
 3526POPC   C3B46041  41.235  34.448   7.134
 3526POPC   C4B46042  41.310  34.304   7.539
 3527POPC   NC346043  42.636  19.584   5.555
 3527POPC   PO446044  42.255  20.099   5.412
 3527POPC   GL146045  42.328  19.957   5.823
 3527POPC   GL246046  42.224  19.615   5.882
 3527POPC   C1A46047  42.291  19.952   6.264
 3527POPC   D2A46048  42.404  19.856   6.667
 3527POPC   C3A46049  42.344  20.182   6.955
 3527POPC   C4A46050  42.237  20.103   7.362
 3527POPC   C1B46051  42.096  19.467   6.320
 3527POPC   C2B46052  41.821  19.613   6.660
 3527POPC   C3B46053  42.049  19.734   7.053
 3527POPC   C4B46054  42.502  19.689   7.156
 3528POPC   NC346055  16.084   4.704   5.438
 3528POPC   PO446056  16.272   5.350   5.517
 3528POPC   GL146057  16.087   5.043   5.828
 3528POPC   GL246058  15.727   5.100   5.963
 3528POPC   C1A46059  16.100   4.895   6.250
 3528POPC   D2A46060  15.861   5.024   6.611
 3528POPC   C3A46061  16.142   5.083   6.934
 3528POPC   C4A46062  16.108   5.161   7.351
 3528POPC   C1B46063  15.615   4.741   6.248
 3528POPC   C2B46064  15.744   4.531   6.616
 3528POPC   C3B46065  15.873   4.645   7.044
 3528POPC   C4B46066  15.735   4.586   7.463
 3529POPC   NC346067  27.291   8.655   5.418
 3529POPC   PO446068  27.955   8.452   5.528
 3529POPC   GL146069  27.530   8.210   5.685
 3529POPC   GL246070  27.259   8.412   5.851
 3529POPC   C1A46071  27.414   7.972   6.095
 3529POPC   D2A46072  27.664   8.031   6.481
 3529POPC   C3A46073  27.507   7.945   6.883
 3529POPC   C4A46074  27.716   7.962   7.281
 3529POPC   C1B46075  27.564   8.443   6.144
 3529POPC   C2B46076  27.343   8.416   6.510
 3529POPC   C3B46077  27.553   8.455   6.863
 3529POPC   C4B46078  27.471   8.404   7.265
 3530POPC   NC346079  18.054  38.128   5.513
 3530POPC   PO446080  18.330  38.814   5.415
 3530POPC   GL146081  18.407  38.467   5.705
 3530POPC   GL246082  18.090  38.547   5.835
 3530POPC   C1A46083  18.515  38.271   6.124
 3530POPC   D2A46084  18.656  38.427   6.527
 3530POPC   C3A46085  18.379  38.661   6.820
 3530POPC   C4A46086  18.392  38.483   7.247
 3530POPC   C1B46087  18.045  38.644   6.272
 3530POPC   C2B46088  17.751  38.577   6.610
 3530POPC   C3B46089  17.754  38.804   6.994
 3530POPC   C4B46090  17.993  38.781   7.375
 3531POPC   NC346091  19.386   0.952   5.592
 3531POPC   PO446092  19.093   1.492   5.244
 3531POPC   GL146093  19.044   1.371   5.727
 3531POPC   GL246094  18.869   1.046   5.677
 3531POPC   C1A46095  19.285   1.363   6.184
 3531POPC   D2A46096  19.392   1.092   6.569
 3531POPC   C3A46097  19.210   1.145   6.988
 3531POPC   C4A46098  19.439   1.007   7.338
 3531POPC   C1B46099  18.916   1.023   6.126
 3531POPC   C2B46100  18.875   0.995   6.601
 3531POPC   C3B46101  18.677   1.070   7.038
 3531POPC   C4B46102  18.519   1.333   7.399
 3532POPC   NC346103  10.158   2.304   5.556
 3532POPC   PO446104   9.542   2.007   5.472
 3532POPC   GL146105   9.687   1.965   5.877
 3532POPC   GL246106   9.378   2.148   5.968
 3532POPC   C1A46107   9.926   1.813   6.270
 3532POPC   D2A46108  10.071   2.037   6.644
 3532POPC   C3A46109   9.952   1.865   7.043
 3532POPC   C4A46110  10.020   1.962   7.485
 3532POPC   C1B46111   9.583   2.189   6.337
 3532POPC   C2B46112   9.560   1.927   6.691
 3532POPC   C3B46113   9.365   2.110   7.033
 3532POPC   C4B46114   9.095   1.995   7.369
 3533POPC   NC346115   6.604  41.799   5.390
 3533POPC   PO446116   6.910  41.110   5.344
 3533POPC   GL146117   6.682  41.377   5.691
 3533POPC   GL246118   6.748  41.727   5.872
 3533POPC   C1A46119   6.576  41.337   6.126
 3533POPC   D2A46120   6.738  41.460   6.520
 3533POPC   C3A46121   6.614  41.312   6.920
 3533POPC   C4A46122   6.581  41.345   7.353
 3533POPC   C1B46123   6.469  41.847   6.242
 3533POPC   C2B46124   6.476  41.860   6.708
 3533POPC   C3B46125   6.498  41.808   7.170
 3533POPC   C4B46126   6.438  41.773   7.629
 3534POPC   NC346127  32.505   8.599   5.431
 3534POPC   PO446128  32.291   7.855   5.521
 3534POPC   GL146129  32.168   8.055   5.894
 3534POPC   GL246130  32.213   8.381   5.786
 3534POPC   C1A46131  32.261   8.031   6.347
 3534POPC   D2A46132  32.514   7.959   6.720
 3534POPC   C3A46133  32.343   7.943   7.160
 3534POPC   C4A46134  32.080   8.197   7.433
 3534POPC   C1B46135  32.335   8.515   6.174
 3534POPC   C2B46136  32.482   8.452   6.583
 3534POPC   C3B46137  32.317   8.436   6.983
 3534POPC   C4B46138  32.501   8.471   7.376
 3535POPC   NC346139   6.364  16.593   5.655
 3535POPC   PO446140   5.775  16.831   5.414
 3535POPC   GL146141   5.920  16.820   5.873
 3535POPC   GL246142   6.243  16.907   6.032
 3535POPC   C1A46143   5.829  16.899   6.322
 3535POPC   D2A46144   5.707  16.711   6.704
 3535POPC   C3A46145   5.951  16.656   7.094
 3535POPC   C4A46146   5.741  16.538   7.499
 3535POPC   C1B46147   6.139  16.479   6.256
 3535POPC   C2B46148   6.055  16.344   6.689
 3535POPC   C3B46149   6.121  16.162   7.100
 3535POPC   C4B46150   6.210  16.403   7.468
 3536POPC   NC346151  15.490  13.866   5.485
 3536POPC   PO446152  14.847  13.605   5.557
 3536POPC   GL146153  15.161  13.438   5.851
 3536POPC   GL246154  15.482  13.607   5.921
 3536POPC   C1A46155  15.237  13.307   6.292
 3536POPC   D2A46156  15.203  13.472   6.714
 3536POPC   C3A46157  15.452  13.435   7.082
 3536POPC   C4A46158  15.170  13.511   7.423
 3536POPC   C1B46159  15.525  13.998   6.152
 3536POPC   C2B46160  15.425  13.912   6.570
 3536POPC   C3B46161  15.328  13.922   6.985
 3536POPC   C4B46162  15.531  13.919   7.403
 3537POPC   NC346163  31.397  38.759   5.415
 3537POPC   PO446164  31.610  38.160   5.229
 3537POPC   GL146165  31.564  38.349   5.682
 3537POPC   GL246166  31.191  38.491   5.803
 3537POPC   C1A46167  31.534  38.335   6.141
 3537POPC   D2A46168  31.391  38.417   6.555
 3537POPC   C3A46169  31.715  38.366   6.839
 3537POPC   C4A46170  31.743  38.476   7.302
 3537POPC   C1B46171  31.258  38.774   6.188
 3537POPC   C2B46172  31.531  38.910   6.543
 3537POPC   C3B46173  31.491  38.799   6.975
 3537POPC   C4B46174  31.257  38.619   7.307
 3538POPC   NC346175  37.693   0.801   5.500
 3538POPC   PO446176  37.686   1.510   5.533
 3538POPC   GL146177  37.846   1.317   5.877
 3538POPC   GL246178  37.546   1.103   5.876
 3538POPC   C1A46179  37.988   1.530   6.285
 3538POPC   D2A46180  37.891   1.340   6.681
 3538POPC   C3A46181  37.875   1.532   7.067
 3538POPC   C4A46182  37.576   1.399   7.378
 3538POPC   C1B46183  37.682   1.094   6.291
 3538POPC   C2B46184  37.743   0.843   6.624
 3538POPC   C3B46185  37.694   1.023   7.049
 3538POPC   C4B46186  37.511   0.901   7.452
 3539POPC   NC346187  28.086  23.091   5.357
 3539POPC   PO446188  27.488  22.684   5.501
 3539POPC   GL146189  27.836  22.845   5.736
 3539POPC   GL246190  27.705  23.180   5.776
 3539POPC   C1A46191  27.933  22.940   6.164
 3539POPC   D2A46192  27.665  22.870   6.487
 3539POPC   C3A46193  27.874  22.965   6.841
 3539POPC   C4A46194  27.582  22.891   7.137
 3539POPC   C1B46195  27.404  23.165   6.157
 3539POPC   C2B46196  27.155  23.092   6.561
 3539POPC   C3B46197  27.238  23.247   6.986
 3539POPC   C4B46198  27.259  23.151   7.421
 3540POPC   NC346199  33.122  19.532   5.613
 3540POPC   PO446200  32.728  20.040   5.478
 3540POPC   GL146201  32.884  19.916   5.858
 3540POPC   GL246202  33.239  20.011   5.823
 3540POPC   C1A46203  32.793  19.658   6.220
 3540POPC   D2A46204  32.557  19.685   6.593
 3540POPC   C3A46205  32.778  19.659   6.959
 3540POPC   C4A46206  32.831  19.833   7.371
 3540POPC   C1B46207  33.300  19.825   6.229
 3540POPC   C2B46208  33.465  19.963   6.626
 3540POPC   C3B46209  33.658  19.794   6.995
 3540POPC   C4B46210  33.325  19.725   7.260
 3541POPC   NC346211  41.697   1.155   5.509
 3541POPC   PO446212  41.180   0.772   5.781
 3541POPC   GL146213  41.348   1.138   5.924
 3541POPC   GL246214  41.230   1.468   5.847
 3541POPC   C1A46215  41.271   1.312   6.333
 3541POPC   D2A46216  41.461   1.158   6.679
 3541POPC   C3A46217  41.339   1.239   7.063
 3541POPC   C4A46218  41.733   1.179   7.241
 3541POPC   C1B46219  41.669   1.496   6.100
 3541POPC   C2B46220  41.728   1.584   6.524
 3541POPC   C3B46221  41.774   1.616   6.965
 3541POPC   C4B46222  41.511   1.644   7.316
 3542POPC   NC346223  33.138  17.108   5.500
 3542POPC   PO446224  32.856  16.462   5.585
 3542POPC   GL146225  33.115  16.718   5.829
 3542POPC   GL246226  32.882  16.985   5.934
 3542POPC   C1A46227  33.330  16.716   6.212
 3542POPC   D2A46228  33.387  16.472   6.577
 3542POPC   C3A46229  33.272  16.730   6.896
 3542POPC   C4A46230  33.378  16.971   7.212
 3542POPC   C1B46231  32.804  16.637   6.241
 3542POPC   C2B46232  32.847  16.561   6.669
 3542POPC   C3B46233  32.810  16.645   7.123
 3542POPC   C4B46234  32.595  16.774   7.498
 3543POPC   NC346235   6.934  38.489   5.376
 3543POPC   PO446236   6.265  38.204   5.290
 3543POPC   GL146237   6.572  38.254   5.716
 3543POPC   GL246238   6.668  38.603   5.827
 3543POPC   C1A46239   6.723  38.232   6.183
 3543POPC   D2A46240   6.599  38.371   6.606
 3543POPC   C3A46241   6.642  38.101   6.977
 3543POPC   C4A46242   6.557  38.206   7.409
 3543POPC   C1B46243   6.800  38.760   6.265
 3543POPC   C2B46244   7.046  38.622   6.664
 3543POPC   C3B46245   6.826  38.584   7.077
 3543POPC   C4B46246   6.964  38.723   7.480
 3544POPC   NC346247  15.753  30.698   5.521
 3544POPC   PO446248  15.752  31.341   5.233
 3544POPC   GL146249  16.084  31.138   5.614
 3544POPC   GL246250  16.230  30.798   5.736
 3544POPC   C1A46251  16.054  31.047   6.120
 3544POPC   D2A46252  15.901  30.754   6.462
 3544POPC   C3A46253  16.073  30.749   6.900
 3544POPC   C4A46254  15.815  30.747   7.303
 3544POPC   C1B46255  16.211  30.516   6.121
 3544POPC   C2B46256  16.252  30.338   6.554
 3544POPC   C3B46257  16.101  30.232   7.000
 3544POPC   C4B46258  16.222  30.458   7.363
 3545POPC   NC346259  10.830  33.323   5.626
 3545POPC   PO446260  10.475  33.833   5.281
 3545POPC   GL146261  10.497  33.739   5.743
 3545POPC   GL246262  10.177  33.607   5.948
 3545POPC   C1A46263  10.529  33.884   6.160
 3545POPC   D2A46264  10.335  33.892   6.544
 3545POPC   C3A46265  10.426  33.834   6.964
 3545POPC   C4A46266  10.482  34.194   7.175
 3545POPC   C1B46267  10.247  33.422   6.359
 3545POPC   C2B46268  10.545  33.386   6.704
 3545POPC   C3B46269  10.765  33.449   7.088
 3545POPC   C4B46270  10.502  33.504   7.466
 3546POPC   NC346271   4.058  38.266   5.188
 3546POPC   PO446272   3.431  38.158   5.383
 3546POPC   GL146273   3.369  38.242   5.811
 3546POPC   GL246274   3.509  38.593   5.797
 3546POPC   C1A46275   3.544  38.260   6.204
 3546POPC   D2A46276   3.746  38.276   6.558
 3546POPC   C3A46277   3.489  38.234   6.937
 3546POPC   C4A46278   3.625  38.364   7.318
 3546POPC   C1B46279   3.798  38.778   6.088
 3546POPC   C2B46280   3.719  38.836   6.494
 3546POPC   C3B46281   3.768  38.670   6.890
 3546POPC   C4B46282   3.778  38.832   7.290
 3547POPC   NC346283  16.926  16.968   5.385
 3547POPC   PO446284  16.319  16.579   5.527
 3547POPC   GL146285  16.618  16.743   5.819
 3547POPC   GL246286  16.985  16.626   5.767
 3547POPC   C1A46287  16.491  16.840   6.250
 3547POPC   D2A46288  16.695  16.797   6.638
 3547POPC   C3A46289  16.451  16.580   6.915
 3547POPC   C4A46290  16.437  16.736   7.303
 3547POPC   C1B46291  17.007  16.691   6.219
 3547POPC   C2B46292  17.184  16.971   6.526
 3547POPC   C3B46293  17.210  16.821   6.945
 3547POPC   C4B46294  16.915  16.477   7.077
 3548POPC   NC346295  26.770  30.250   5.238
 3548POPC   PO446296  26.882  29.612   5.275
 3548POPC   GL146297  26.712  29.638   5.748
 3548POPC   GL246298  26.643  30.012   5.788
 3548POPC   C1A46299  26.692  29.773   6.234
 3548POPC   D2A46300  26.456  29.920   6.624
 3548POPC   C3A46301  26.679  29.759   7.000
 3548POPC   C4A46302  27.065  29.591   7.196
 3548POPC   C1B46303  26.499  30.249   6.177
 3548POPC   C2B46304  26.379  30.454   6.566
 3548POPC   C3B46305  26.543  30.298   6.972
 3548POPC   C4B46306  26.596  30.080   7.378
 3549POPC   NC346307  11.699  10.895   5.609
 3549POPC   PO446308  12.336  10.761   5.413
 3549POPC   GL146309  12.091  10.555   5.732
 3549POPC   GL246310  11.811  10.319   5.720
 3549POPC   C1A46311  12.141  10.672   6.154
 3549POPC   D2A46312  12.313  10.784   6.552
 3549POPC   C3A46313  12.095  10.620   6.877
 3549POPC   C4A46314  11.838  10.762   7.171
 3549POPC   C1B46315  11.900  10.219   6.155
 3549POPC   C2B46316  12.253  10.262   6.459
 3549POPC   C3B46317  12.268  10.142   6.880
 3549POPC   C4B46318  11.843  10.184   7.064
 3550POPC   NC346319  34.335  20.482   5.227
 3550POPC   PO446320  34.712  20.971   5.519
 3550POPC   GL146321  34.493  20.727   5.833
 3550POPC   GL246322  34.751  20.450   5.923
 3550POPC   C1A46323  34.361  20.518   6.239
 3550POPC   D2A46324  34.638  20.348   6.559
 3550POPC   C3A46325  34.593  20.460   6.995
 3550POPC   C4A46326  34.330  20.524   7.382
 3550POPC   C1B46327  34.826  20.757   6.276
 3550POPC   C2B46328  34.953  20.809   6.736
 3550POPC   C3B46329  34.727  20.928   7.122
 3550POPC   C4B46330  34.727  20.818   7.558
 3551POPC   NC346331  30.359  23.134   5.479
 3551POPC   PO446332  30.633  22.512   5.245
 3551POPC   GL146333  30.653  22.805   5.726
 3551POPC   GL246334  30.896  22.672   5.954
 3551POPC   C1A46335  30.728  23.100   6.143
 3551POPC   D2A46336  30.876  22.991   6.570
 3551POPC   C3A46337  30.641  23.216   6.893
 3551POPC   C4A46338  30.515  23.212   7.323
 3551POPC   C1B46339  30.616  22.610   6.296
 3551POPC   C2B46340  30.465  22.569   6.690
 3551POPC   C3B46341  30.528  22.733   7.059
 3551POPC   C4B46342  30.883  22.630   7.299
 3552POPC   NC346343  14.357  11.713   5.419
 3552POPC   PO446344  14.397  12.429   5.284
 3552POPC   GL146345  14.478  12.211   5.748
 3552POPC   GL246346  14.628  11.868   5.821
 3552POPC   C1A46347  14.304  12.091   6.196
 3552POPC   D2A46348  14.277  11.822   6.602
 3552POPC   C3A46349  14.295  12.023   7.041
 3552POPC   C4A46350  14.193  12.475   7.112
 3552POPC   C1B46351  14.792  11.939   6.230
 3552POPC   C2B46352  14.666  12.149   6.594
 3552POPC   C3B46353  14.770  12.208   7.017
 3552POPC   C4B46354  14.587  12.289   7.424
 3553POPC   NC346355  40.857  29.881   4.960
 3553POPC   PO446356  41.202  29.588   5.462
 3553POPC   GL146357  40.996  29.916   5.734
 3553POPC   GL246358  40.634  29.911   5.891
 3553POPC   C1A46359  41.017  29.916   6.190
 3553POPC   D2A46360  40.731  29.881   6.525
 3553POPC   C3A46361  40.954  29.793   6.889
 3553POPC   C4A46362  40.834  29.980   7.254
 3553POPC   C1B46363  40.464  30.201   6.217
 3553POPC   C2B46364  40.265  30.162   6.617
 3553POPC   C3B46365  40.441  30.253   7.033
 3553POPC   C4B46366  40.461  30.240   7.485
 3554POPC   NC346367  12.667  12.048   5.459
 3554POPC   PO446368  13.352  12.074   5.373
 3554POPC   GL146369  13.037  12.022   5.781
 3554POPC   GL246370  13.065  12.268   5.928
 3554POPC   C1A46371  12.797  11.948   6.207
 3554POPC   D2A46372  12.777  12.132   6.646
 3554POPC   C3A46373  12.992  11.859   6.951
 3554POPC   C4A46374  12.811  11.747   7.384
 3554POPC   C1B46375  13.174  12.292   6.353
 3554POPC   C2B46376  13.382  12.106   6.699
 3554POPC   C3B46377  13.321  12.237   7.125
 3554POPC   C4B46378  13.192  12.243   7.561
 3555POPC   NC346379  24.853   5.856   5.372
 3555POPC   PO446380  24.237   6.088   5.426
 3555POPC   GL146381  24.502   5.896   5.758
 3555POPC   GL246382  24.344   5.613   5.925
 3555POPC   C1A46383  24.792   6.006   6.111
 3555POPC   D2A46384  24.673   6.203   6.510
 3555POPC   C3A46385  24.662   5.933   6.876
 3555POPC   C4A46386  24.538   5.774   7.268
 3555POPC   C1B46387  24.412   5.758   6.364
 3555POPC   C2B46388  24.177   6.017   6.659
 3555POPC   C3B46389  24.268   6.191   7.070
 3555POPC   C4B46390  24.271   6.167   7.541
 3556POPC   NC346391  32.712  15.274   5.439
 3556POPC   PO446392  32.077  15.008   5.414
 3556POPC   GL146393  32.337  15.139   5.771
 3556POPC   GL246394  32.242  15.468   5.726
 3556POPC   C1A46395  32.506  15.061   6.198
 3556POPC   D2A46396  32.403  15.199   6.629
 3556POPC   C3A46397  32.457  14.983   7.012
 3556POPC   C4A46398  32.409  15.099   7.468
 3556POPC   C1B46399  32.168  15.473   6.202
 3556POPC   C2B46400  31.932  15.361   6.601
 3556POPC   C3B46401  32.084  15.460   7.018
 3556POPC   C4B46402  32.227  15.564   7.465
 3557POPC   NC346403   7.135  43.557   5.503
 3557POPC   PO446404   6.428  43.851   5.462
 3557POPC   GL146405   6.636  43.731   5.846
 3557POPC   GL246406   6.970  43.639   5.981
 3557POPC   C1A46407   6.528  43.645   6.269
 3557POPC   D2A46408   6.583  43.883   6.626
 3557POPC   C3A46409   6.845  43.885   6.982
 3557POPC   C4A46410   6.558  43.741   7.251
 3557POPC   C1B46411   6.900  44.032   6.239
 3557POPC   C2B46412   6.857  44.308   6.639
 3557POPC   C3B46413   6.971  44.364   7.092
 3557POPC   C4B46414   6.863  44.244   7.556
 3558POPC   NC346415  17.869   7.810   5.533
 3558POPC   PO446416  18.033   8.480   5.561
 3558POPC   GL146417  18.051   8.208   5.898
 3558POPC   GL246418  18.402   8.236   5.903
 3558POPC   C1A46419  18.143   8.329   6.335
 3558POPC   D2A46420  17.918   8.392   6.708
 3558POPC   C3A46421  18.139   8.222   7.035
 3558POPC   C4A46422  18.040   8.149   7.459
 3558POPC   C1B46423  18.650   8.140   6.269
 3558POPC   C2B46424  18.863   8.085   6.657
 3558POPC   C3B46425  18.632   8.016   7.026
 3558POPC   C4B46426  18.530   8.248   7.383
 3559POPC   NC346427  11.133  44.998   5.575
 3559POPC   PO446428  10.962  44.424   5.618
 3559POPC   GL146429  11.093  44.503   5.974
 3559POPC   GL246430  11.353  44.755   5.979
 3559POPC   C1A46431  11.007  44.482   6.406
 3559POPC   D2A46432  11.138  44.779   6.706
 3559POPC   C3A46433  11.100  44.618   7.112
 3559POPC   C4A46434  11.309  44.789   7.488
 3559POPC   C1B46435  11.486  44.456   6.286
 3559POPC   C2B46436  11.532  44.263   6.675
 3559POPC   C3B46437  11.574  44.461   7.064
 3559POPC   C4B46438  11.661  44.430   7.469
 3560POPC   NC346439  43.363  12.295   5.348
 3560POPC   PO446440  42.753  12.075   5.572
 3560POPC   GL146441  43.106  12.220   5.782
 3560POPC   GL246442  43.356  11.943   5.729
 3560POPC   C1A46443  43.109  12.360   6.206
 3560POPC   D2A46444  42.854  12.151   6.537
 3560POPC   C3A46445  43.044  12.067   6.955
 3560POPC   C4A46446  43.236  12.333   7.283
 3560POPC   C1B46447  43.200  11.750   6.092
 3560POPC   C2B46448  43.208  11.703   6.512
 3560POPC   C3B46449  43.372  11.667   6.902
 3560POPC   C4B46450  43.145  11.690   7.301
 3561POPC   NC346451  21.102  41.989   5.472
 3561POPC   PO446452  21.719  42.185   5.332
 3561POPC   GL146453  21.533  42.429   5.692
 3561POPC   GL246454  21.663  42.775   5.625
 3561POPC   C1A46455  21.270  42.340   6.094
 3561POPC   D2A46456  21.163  41.974   6.392
 3561POPC   C3A46457  21.262  42.080   6.817
 3561POPC   C4A46458  21.266  42.419   7.112
 3561POPC   C1B46459  21.566  42.841   6.062
 3561POPC   C2B46460  21.398  42.714   6.474
 3561POPC   C3B46461  21.525  42.830   6.890
 3561POPC   C4B46462  21.554  42.785   7.332
 3562POPC   NC346463  44.780  29.766   5.522
 3562POPC   PO446464  44.362  30.307   5.465
 3562POPC   GL146465  44.431  30.128   5.860
 3562POPC   GL246466  44.795  30.148   5.882
 3562POPC   C1A46467  44.260  29.828   6.174
 3562POPC   D2A46468  44.399  29.591   6.538
 3562POPC   C3A46469  44.480  29.861   6.897
 3562POPC   C4A46470  44.322  29.710   7.274
 3562POPC   C1B46471  44.766  29.816   6.202
 3562POPC   C2B46472  44.907  29.732   6.627
 3562POPC   C3B46473   0.014  29.813   7.053
 3562POPC   C4B46474  44.808  29.697   7.463
 3563POPC   NC346475  18.710  27.148   5.636
 3563POPC   PO446476  18.521  26.608   5.359
 3563POPC   GL146477  18.202  26.768   5.643
 3563POPC   GL246478  18.173  27.129   5.637
 3563POPC   C1A46479  18.182  26.715   6.108
 3563POPC   D2A46480  18.401  26.598   6.488
 3563POPC   C3A46481  18.117  26.694   6.824
 3563POPC   C4A46482  18.067  26.540   7.227
 3563POPC   C1B46483  18.252  27.213   6.094
 3563POPC   C2B46484  18.278  27.085   6.526
 3563POPC   C3B46485  18.431  27.063   6.944
 3563POPC   C4B46486  18.171  27.043   7.285
 3564POPC   NC346487  14.325  41.363   5.134
 3564POPC   PO446488  14.623  41.665   5.616
 3564POPC   GL146489  14.438  41.567   5.934
 3564POPC   GL246490  14.162  41.802   5.837
 3564POPC   C1A46491  14.598  41.437   6.334
 3564POPC   D2A46492  14.511  41.619   6.732
 3564POPC   C3A46493  14.361  41.350   7.047
 3564POPC   C4A46494  14.688  41.132   7.242
 3564POPC   C1B46495  14.156  41.803   6.291
 3564POPC   C2B46496  14.191  42.011   6.680
 3564POPC   C3B46497  14.261  41.860   7.124
 3564POPC   C4B46498  14.265  41.563   7.498
 3565POPC   NC346499  20.298  15.728   5.555
 3565POPC   PO446500  20.787  16.152   5.332
 3565POPC   GL146501  20.766  16.073   5.810
 3565POPC   GL246502  20.491  15.948   5.947
 3565POPC   C1A46503  20.768  16.082   6.310
 3565POPC   D2A46504  20.784  15.762   6.618
 3565POPC   C3A46505  20.739  16.028   6.941
 3565POPC   C4A46506  20.817  16.044   7.341
 3565POPC   C1B46507  20.357  15.751   6.316
 3565POPC   C2B46508  20.280  15.863   6.741
 3565POPC   C3B46509  20.302  15.821   7.183
 3565POPC   C4B46510  20.116  15.540   7.517
 3566POPC   NC346511  22.678  27.720   5.442
 3566POPC   PO446512  23.255  27.341   5.561
 3566POPC   GL146513  22.931  27.492   5.880
 3566POPC   GL246514  22.674  27.773   5.939
 3566POPC   C1A46515  23.041  27.526   6.312
 3566POPC   D2A46516  23.168  27.254   6.645
 3566POPC   C3A46517  23.106  27.407   7.078
 3566POPC   C4A46518  23.258  27.836   7.203
 3566POPC   C1B46519  22.536  27.667   6.334
 3566POPC   C2B46520  22.721  27.574   6.717
 3566POPC   C3B46521  22.769  27.794   7.076
 3566POPC   C4B46522  22.596  27.499   7.288
 3567POPC   NC346523  15.848  41.192   5.472
 3567POPC   PO446524  16.254  40.625   5.540
 3567POPC   GL146525  16.039  40.654   5.874
 3567POPC   GL246526  15.742  40.823   5.795
 3567POPC   C1A46527  16.191  40.575   6.289
 3567POPC   D2A46528  15.987  40.734   6.640
 3567POPC   C3A46529  15.730  40.551   6.947
 3567POPC   C4A46530  16.025  40.724   7.220
 3567POPC   C1B46531  15.828  40.971   6.215
 3567POPC   C2B46532  15.870  41.270   6.559
 3567POPC   C3B46533  15.797  41.092   6.965
 3567POPC   C4B46534  15.733  41.108   7.420
 3568POPC   NC346535   9.321  14.638   5.466
 3568POPC   PO446536   8.842  14.120   5.433
 3568POPC   GL146537   8.933  14.203   5.822
 3568POPC   GL246538   8.718  13.966   5.938
 3568POPC   C1A46539   9.099  14.214   6.252
 3568POPC   D2A46540   8.911  14.552   6.536
 3568POPC   C3A46541   9.055  14.504   6.950
 3568POPC   C4A46542   9.204  14.155   7.129
 3568POPC   C1B46543   8.599  14.255   6.219
 3568POPC   C2B46544   8.446  14.299   6.584
 3568POPC   C3B46545   8.629  14.207   6.938
 3568POPC   C4B46546   8.696  14.219   7.336
 3569POPC   NC346547  43.598  31.171   5.500
 3569POPC   PO446548  44.140  31.526   5.283
 3569POPC   GL146549  44.091  31.482   5.698
 3569POPC   GL246550  44.047  31.126   5.798
 3569POPC   C1A46551  44.068  31.536   6.138
 3569POPC   D2A46552  44.185  31.322   6.506
 3569POPC   C3A46553  44.052  31.548   6.865
 3569POPC   C4A46554  43.978  31.367   7.237
 3569POPC   C1B46555  43.766  31.128   6.174
 3569POPC   C2B46556  43.675  31.389   6.536
 3569POPC   C3B46557  43.618  31.198   6.930
 3569POPC   C4B46558  43.389  31.238   7.288
 3570POPC   NC346559  35.239   0.693   5.480
 3570POPC   PO446560  35.561   0.051   5.415
 3570POPC   GL146561  35.673   0.176   5.816
 3570POPC   GL246562  35.535   0.522   5.876
 3570POPC   C1A46563  35.606   0.165   6.257
 3570POPC   D2A46564  35.759   0.213   6.674
 3570POPC   C3A46565  35.508   0.388   6.956
 3570POPC   C4A46566  35.577   0.694   7.251
 3570POPC   C1B46567  35.200   0.677   6.183
 3570POPC   C2B46568  35.112   0.555   6.644
 3570POPC   C3B46569  35.075   0.596   7.132
 3570POPC   C4B46570  35.103   0.578   7.633
 3571POPC   NC346571  30.955  16.098   5.542
 3571POPC   PO446572  30.383  16.020   5.236
 3571POPC   GL146573  30.345  15.921   5.742
 3571POPC   GL246574  30.642  15.738   5.784
 3571POPC   C1A46575  30.444  15.989   6.208
 3571POPC   D2A46576  30.439  15.995   6.669
 3571POPC   C3A46577  30.801  16.030   6.897
 3571POPC   C4A46578  31.004  16.233   7.218
 3571POPC   C1B46579  30.631  15.501   6.186
 3571POPC   C2B46580  30.775  15.512   6.595
 3571POPC   C3B46581  30.532  15.539   6.936
 3571POPC   C4B46582  30.651  15.738   7.294
 3572POPC   NC346583  28.103   3.466   5.488
 3572POPC   PO446584  28.753   3.754   5.356
 3572POPC   GL146585  28.495   3.664   5.734
 3572POPC   GL246586  28.235   3.927   5.667
 3572POPC   C1A46587  28.347   3.468   6.144
 3572POPC   D2A46588  28.187   3.326   6.557
 3572POPC   C3A46589  28.322   3.452   6.939
 3572POPC   C4A46590  28.478   3.647   7.271
 3572POPC   C1B46591  28.157   3.945   6.095
 3572POPC   C2B46592  28.169   3.854   6.540
 3572POPC   C3B46593  28.035   3.883   6.958
 3572POPC   C4B46594  28.093   3.986   7.386
 3573POPC   NC346595  28.731  23.187   5.525
 3573POPC   PO446596  28.259  22.642   5.398
 3573POPC   GL146597  28.407  22.844   5.752
 3573POPC   GL246598  28.248  23.154   5.825
 3573POPC   C1A46599  28.575  22.791   6.156
 3573POPC   D2A46600  28.304  22.831   6.516
 3573POPC   C3A46601  28.416  22.869   6.930
 3573POPC   C4A46602  28.122  22.851   7.278
 3573POPC   C1B46603  28.373  23.249   6.225
 3573POPC   C2B46604  28.170  23.336   6.643
 3573POPC   C3B46605  28.224  23.341   7.099
 3573POPC   C4B46606  28.602  23.187   7.292
 3574POPC   NC346607  14.730  16.136   5.110
 3574POPC   PO446608  14.514  15.520   5.355
 3574POPC   GL146609  14.616  15.812   5.738
 3574POPC   GL246610  14.746  16.136   5.643
 3574POPC   C1A46611  14.488  15.953   6.166
 3574POPC   D2A46612  14.282  15.923   6.582
 3574POPC   C3A46613  14.341  16.148   6.955
 3574POPC   C4A46614  14.383  15.822   7.225
 3574POPC   C1B46615  14.876  16.267   6.072
 3574POPC   C2B46616  14.708  16.262   6.515
 3574POPC   C3B46617  14.853  16.138   6.918
 3574POPC   C4B46618  14.821  16.056   7.341
 3575POPC   NC346619  31.050   5.506   5.562
 3575POPC   PO446620  30.599   4.964   5.331
 3575POPC   GL146621  30.773   5.007   5.775
 3575POPC   GL246622  30.962   4.735   5.930
 3575POPC   C1A46623  30.633   5.074   6.205
 3575POPC   D2A46624  30.831   5.185   6.594
 3575POPC   C3A46625  30.540   5.382   6.870
 3575POPC   C4A46626  30.508   5.386   7.292
 3575POPC   C1B46627  30.851   4.651   6.388
 3575POPC   C2B46628  30.804   4.664   6.819
 3575POPC   C3B46629  31.046   4.934   7.048
 3575POPC   C4B46630  30.946   5.152   7.411
 3576POPC   NC346631   7.780  22.789   5.627
 3576POPC   PO446632   7.115  22.685   5.435
 3576POPC   GL146633   7.260  23.040   5.710
 3576POPC   GL246634   7.568  23.175   5.898
 3576POPC   C1A46635   7.116  23.049   6.140
 3576POPC   D2A46636   7.095  22.803   6.509
 3576POPC   C3A46637   7.362  22.926   6.861
 3576POPC   C4A46638   7.443  23.126   7.272
 3576POPC   C1B46639   7.595  22.900   6.291
 3576POPC   C2B46640   7.821  22.741   6.673
 3576POPC   C3B46641   7.846  22.878   7.065
 3576POPC   C4B46642   7.672  22.627   7.333
 3577POPC   NC346643  42.877  42.178   5.459
 3577POPC   PO446644  43.541  42.558   5.403
 3577POPC   GL146645  43.225  42.572   5.693
 3577POPC   GL246646  43.284  42.231   5.744
 3577POPC   C1A46647  43.024  42.482   6.104
 3577POPC   D2A46648  43.034  42.615   6.547
 3577POPC   C3A46649  43.162  42.374   6.944
 3577POPC   C4A46650  43.266  42.591   7.335
 3577POPC   C1B46651  43.381  42.034   6.120
 3577POPC   C2B46652  43.327  42.041   6.546
 3577POPC   C3B46653  43.634  42.210   6.808
 3577POPC   C4B46654  43.581  42.178   7.234
 3578POPC   NC346655  11.322   6.155   5.038
 3578POPC   PO446656  11.073   5.728   5.574
 3578POPC   GL146657  11.333   5.806   5.900
 3578POPC   GL246658  11.143   6.052   6.064
 3578POPC   C1A46659  11.292   5.624   6.293
 3578POPC   D2A46660  10.986   5.478   6.539
 3578POPC   C3A46661  11.156   5.701   6.843
 3578POPC   C4A46662  11.381   5.691   7.210
 3578POPC   C1B46663  11.438   6.153   6.395
 3578POPC   C2B46664  11.488   6.122   6.826
 3578POPC   C3B46665  11.325   6.193   7.222
 3578POPC   C4B46666  10.872   6.205   7.326
 3579POPC   NC346667  28.549  14.123   5.640
 3579POPC   PO446668  28.244  14.731   5.726
 3579POPC   GL146669  28.380  14.473   6.014
 3579POPC   GL246670  28.761  14.436   5.999
 3579POPC   C1A46671  28.140  14.405   6.400
 3579POPC   D2A46672  28.200  14.568   6.788
 3579POPC   C3A46673  28.135  14.300   7.136
 3579POPC   C4A46674  28.145  13.976   7.396
 3579POPC   C1B46675  28.644  14.622   6.414
 3579POPC   C2B46676  28.718  14.587   6.837
 3579POPC   C3B46677  28.669  14.312   7.169
 3579POPC   C4B46678  28.759  14.557   7.523
 3580POPC   NC346679   3.101   7.486   5.226
 3580POPC   PO446680   3.706   7.629   5.461
 3580POPC   GL146681   3.612   7.691   5.885
 3580POPC   GL246682   3.451   7.390   5.868
 3580POPC   C1A46683   3.742   7.659   6.326
 3580POPC   D2A46684   3.691   7.323   6.655
 3580POPC   C3A46685   3.649   7.446   7.088
 3580POPC   C4A46686   3.885   7.444   7.459
 3580POPC   C1B46687   3.268   7.490   6.254
 3580POPC   C2B46688   3.173   7.406   6.621
 3580POPC   C3B46689   2.965   7.612   6.913
 3580POPC   C4B46690   3.170   7.506   7.272
 3581POPC   NC346691   9.107  30.429   5.437
 3581POPC   PO446692   8.571  30.833   5.439
 3581POPC   GL146693   8.683  30.647   5.841
 3581POPC   GL246694   9.055  30.695   5.874
 3581POPC   C1A46695   8.795  30.588   6.297
 3581POPC   D2A46696   8.671  30.362   6.670
 3581POPC   C3A46697   8.791  30.598   7.042
 3581POPC   C4A46698   9.169  30.787   7.237
 3581POPC   C1B46699   9.302  30.507   6.220
 3581POPC   C2B46700   9.181  30.447   6.661
 3581POPC   C3B46701   9.391  30.377   7.060
 3581POPC   C4B46702   9.125  30.340   7.462
 3582POPC   NC346703  16.738  29.378   5.391
 3582POPC   PO446704  16.434  28.749   5.313
 3582POPC   GL146705  16.754  28.926   5.711
 3582POPC   GL246706  17.004  29.233   5.821
 3582POPC   C1A46707  16.743  29.052   6.187
 3582POPC   D2A46708  16.684  29.242   6.571
 3582POPC   C3A46709  16.765  29.008   6.863
 3582POPC   C4A46710  16.730  28.936   7.253
 3582POPC   C1B46711  17.257  29.285   6.223
 3582POPC   C2B46712  17.206  29.210   6.682
 3582POPC   C3B46713  17.140  29.236   7.146
 3582POPC   C4B46714  16.905  29.289   7.568
 3583POPC   NC346715  20.191   1.405   5.526
 3583POPC   PO446716  19.526   1.403   5.587
 3583POPC   GL146717  19.817   1.294   5.881
 3583POPC   GL246718  20.041   0.994   5.824
 3583POPC   C1A46719  19.815   1.250   6.306
 3583POPC   D2A46720  19.798   1.453   6.709
 3583POPC   C3A46721  19.635   1.426   7.118
 3583POPC   C4A46722  19.721   1.334   7.599
 3583POPC   C1B46723  20.102   0.809   6.249
 3583POPC   C2B46724  19.886   0.888   6.642
 3583POPC   C3B46725  19.860   0.992   7.042
 3583POPC   C4B46726  20.028   0.960   7.451
 3584POPC   NC346727  28.001  21.423   5.418
 3584POPC   PO446728  28.579  21.058   5.341
 3584POPC   GL146729  28.474  21.319   5.748
 3584POPC   GL246730  28.125  21.375   5.899
 3584POPC   C1A46731  28.484  21.389   6.222
 3584POPC   D2A46732  28.276  21.492   6.626
 3584POPC   C3A46733  28.549  21.366   6.947
 3584POPC   C4A46734  28.567  21.534   7.352
 3584POPC   C1B46735  27.985  21.198   6.319
 3584POPC   C2B46736  27.944  21.115   6.777
 3584POPC   C3B46737  27.858  20.930   7.184
 3584POPC   C4B46738  27.920  20.938   7.647
 3585POPC   NC346739  44.526  36.396   5.193
 3585POPC   PO446740  44.814  36.827   5.592
 3585POPC   GL146741  44.592  36.855   5.935
 3585POPC   GL246742  44.700  37.194   6.011
 3585POPC   C1A46743  44.700  36.804   6.356
 3585POPC   D2A46744  44.737  36.866   6.761
 3585POPC   C3A46745  44.377  36.935   6.977
 3585POPC   C4A46746  44.325  36.569   7.221
 3585POPC   C1B46747  44.346  37.173   6.286
 3585POPC   C2B46748  44.394  37.368   6.691
 3585POPC   C3B46749  44.741  37.289   7.020
 3585POPC   C4B46750   0.182  37.302   7.155
 3586POPC   NC346751  10.119  28.641   5.297
 3586POPC   PO446752  10.635  28.229   5.423
 3586POPC   GL146753  10.369  28.311   5.745
 3586POPC   GL246754  10.408  28.656   5.745
 3586POPC   C1A46755  10.583  28.339   6.161
 3586POPC   D2A46756  10.682  28.197   6.578
 3586POPC   C3A46757  10.579  28.388   6.969
 3586POPC   C4A46758  10.720  28.450   7.400
 3586POPC   C1B46759  10.165  28.624   6.132
 3586POPC   C2B46760  10.245  28.475   6.559
 3586POPC   C3B46761  10.116  28.600   6.978
 3586POPC   C4B46762  10.326  28.743   7.346
 3587POPC   NC346763   8.645  43.375   5.230
 3587POPC   PO446764   9.199  42.938   5.376
 3587POPC   GL146765   9.076  43.095   5.804
 3587POPC   GL246766   9.005  43.438   5.792
 3587POPC   C1A46767   8.908  43.043   6.245
 3587POPC   D2A46768   8.869  42.807   6.646
 3587POPC   C3A46769   9.060  43.038   6.962
 3587POPC   C4A46770   9.339  42.944   7.304
 3587POPC   C1B46771   9.064  43.535   6.223
 3587POPC   C2B46772   9.230  43.503   6.619
 3587POPC   C3B46773   9.057  43.551   7.012
 3587POPC   C4B46774   9.029  43.335   7.397
 3588POPC   NC346775   6.349  43.276   5.477
 3588POPC   PO446776   7.005  43.045   5.476
 3588POPC   GL146777   6.894  43.136   5.892
 3588POPC   GL246778   6.553  43.228   5.936
 3588POPC   C1A46779   6.853  43.264   6.336
 3588POPC   D2A46780   7.026  43.539   6.658
 3588POPC   C3A46781   6.900  43.371   7.098
 3588POPC   C4A46782   6.658  43.328   7.516
 3588POPC   C1B46783   6.305  43.144   6.309
 3588POPC   C2B46784   6.170  42.725   6.502
 3588POPC   C3B46785   6.289  42.667   6.925
 3588POPC   C4B46786   6.406  43.059   7.155
 3589POPC   NC346787  27.287  14.017   5.540
 3589POPC   PO446788  27.563  14.352   5.100
 3589POPC   GL146789  27.694  14.342   5.583
 3589POPC   GL246790  27.404  14.481   5.741
 3589POPC   C1A46791  27.753  14.479   6.077
 3589POPC   D2A46792  27.546  14.477   6.480
 3589POPC   C3A46793  27.750  14.284   6.809
 3589POPC   C4A46794  27.635  14.496   7.186
 3589POPC   C1B46795  27.290  14.198   6.143
 3589POPC   C2B46796  27.383  13.986   6.567
 3589POPC   C3B46797  27.253  14.210   6.959
 3589POPC   C4B46798  27.131  14.595   7.209
 3590POPC   NC346799   0.821  35.561   5.525
 3590POPC   PO446800   1.301  35.113   5.462
 3590POPC   GL146801   1.357  35.328   5.850
 3590POPC   GL246802   1.255  35.653   5.787
 3590POPC   C1A46803   1.487  35.438   6.234
 3590POPC   D2A46804   1.313  35.413   6.637
 3590POPC   C3A46805   1.493  35.365   7.055
 3590POPC   C4A46806   1.271  35.573   7.413
 3590POPC   C1B46807   1.023  35.680   6.187
 3590POPC   C2B46808   0.818  35.546   6.578
 3590POPC   C3B46809   0.974  35.516   7.006
 3590POPC   C4B46810   0.781  35.705   7.356
 3591POPC   NC346811  25.574   6.177   5.434
 3591POPC   PO446812  25.604   5.432   5.408
 3591POPC   GL146813  25.321   5.741   5.664
 3591POPC   GL246814  24.975   5.619   5.794
 3591POPC   C1A46815  25.316   5.963   6.063
 3591POPC   D2A46816  25.474   6.105   6.443
 3591POPC   C3A46817  25.166   6.061   6.770
 3591POPC   C4A46818  25.185   6.273   7.172
 3591POPC   C1B46819  25.205   5.465   6.120
 3591POPC   C2B46820  25.322   5.556   6.518
 3591POPC   C3B46821  25.250   5.460   6.933
 3591POPC   C4B46822  25.041   5.762   7.203
 3592POPC   NC346823  32.264  20.005   5.409
 3592POPC   PO446824  31.915  19.483   5.305
 3592POPC   GL146825  32.021  19.701   5.751
 3592POPC   GL246826  32.069  20.093   5.867
 3592POPC   C1A46827  32.253  19.739   6.164
 3592POPC   D2A46828  32.167  20.029   6.505
 3592POPC   C3A46829  32.126  19.791   6.873
 3592POPC   C4A46830  32.364  19.732   7.242
 3592POPC   C1B46831  32.443  20.257   6.074
 3592POPC   C2B46832  32.532  20.379   6.492
 3592POPC   C3B46833  32.552  20.141   6.879
 3592POPC   C4B46834  32.541  20.228   7.301
 3593POPC   NC346835  41.882  23.015   5.397
 3593POPC   PO446836  41.349  23.258   5.136
 3593POPC   GL146837  41.355  23.066   5.594
 3593POPC   GL246838  41.568  22.750   5.720
 3593POPC   C1A46839  41.454  23.128   6.062
 3593POPC   D2A46840  41.677  22.931   6.410
 3593POPC   C3A46841  41.623  23.015   6.847
 3593POPC   C4A46842  41.356  23.147   7.197
 3593POPC   C1B46843  41.868  22.567   6.058
 3593POPC   C2B46844  41.899  22.449   6.506
 3593POPC   C3B46845  41.901  22.591   6.951
 3593POPC   C4B46846  42.021  22.752   7.342
 3594POPC   NC346847  35.463  21.579   5.529
 3594POPC   PO446848  35.299  20.922   5.261
 3594POPC   GL146849  35.209  21.135   5.715
 3594POPC   GL246850  35.027  21.440   5.744
 3594POPC   C1A46851  35.334  21.314   6.178
 3594POPC   D2A46852  35.361  21.558   6.623
 3594POPC   C3A46853  35.578  21.447   7.053
 3594POPC   C4A46854  35.671  21.611   7.506
 3594POPC   C1B46855  34.985  21.718   6.133
 3594POPC   C2B46856  34.889  21.906   6.557
 3594POPC   C3B46857  34.952  21.690   6.925
 3594POPC   C4B46858  35.040  21.291   6.963
 3595POPC   NC346859  19.958   4.204   5.415
 3595POPC   PO446860  19.516   4.638   5.594
 3595POPC   GL146861  19.661   4.480   5.924
 3595POPC   GL246862  19.949   4.284   5.930
 3595POPC   C1A46863  19.707   4.530   6.353
 3595POPC   D2A46864  19.962   4.433   6.696
 3595POPC   C3A46865  19.671   4.421   7.024
 3595POPC   C4A46866  19.593   4.094   7.302
 3595POPC   C1B46867  19.906   4.027   6.304
 3595POPC   C2B46868  20.142   3.914   6.680
 3595POPC   C3B46869  20.061   4.068   7.055
 3595POPC   C4B46870  20.128   4.430   7.241
 3596POPC   NC346871  38.463  42.649   5.069
 3596POPC   PO446872  38.533  42.311   5.697
 3596POPC   GL146873  38.486  42.555   6.045
 3596POPC   GL246874  38.147  42.553   6.048
 3596POPC   C1A46875  38.439  42.425   6.449
 3596POPC   D2A46876  38.558  42.080   6.668
 3596POPC   C3A46877  38.621  42.228   7.040
 3596POPC   C4A46878  38.523  42.523   7.324
 3596POPC   C1B46879  38.054  42.174   6.204
 3596POPC   C2B46880  38.028  42.183   6.617
 3596POPC   C3B46881  38.131  42.367   6.997
 3596POPC   C4B46882  38.174  42.159   7.379
 3597POPC   NC346883   8.784  33.177   5.681
 3597POPC   PO446884   9.230  32.671   5.467
 3597POPC   GL146885   9.134  32.778   5.846
 3597POPC   GL246886   8.834  32.606   5.825
 3597POPC   C1A46887   9.275  33.036   6.209
 3597POPC   D2A46888   9.201  33.416   6.480
 3597POPC   C3A46889   9.213  33.324   6.922
 3597POPC   C4A46890   9.080  33.344   7.348
 3597POPC   C1B46891   8.817  32.807   6.237
 3597POPC   C2B46892   8.893  32.981   6.622
 3597POPC   C3B46893   8.892  32.764   7.004
 3597POPC   C4B46894   8.733  32.851   7.411
 3598POPC   NC346895   3.409  19.272   5.407
 3598POPC   PO446896   3.423  18.611   5.506
 3598POPC   GL146897   3.504  18.938   5.808
 3598POPC   GL246898   3.788  19.167   5.759
 3598POPC   C1A46899   3.579  19.134   6.236
 3598POPC   D2A46900   3.397  19.332   6.600
 3598POPC   C3A46901   3.363  19.097   6.989
 3598POPC   C4A46902   3.350  18.892   7.374
 3598POPC   C1B46903   3.924  18.813   6.040
 3598POPC   C2B46904   3.927  18.726   6.485
 3598POPC   C3B46905   3.834  18.994   6.809
 3598POPC   C4B46906   3.848  19.064   7.238
 3599POPC   NC346907   7.666  14.364   5.435
 3599POPC   PO446908   7.032  14.341   5.744
 3599POPC   GL146909   7.397  14.233   5.885
 3599POPC   GL246910   7.538  14.549   5.879
 3599POPC   C1A46911   7.566  14.185   6.288
 3599POPC   D2A46912   7.772  14.037   6.637
 3599POPC   C3A46913   7.685  14.274   6.969
 3599POPC   C4A46914   7.264  14.313   7.058
 3599POPC   C1B46915   7.511  14.735   6.244
 3599POPC   C2B46916   7.429  14.549   6.614
 3599POPC   C3B46917   7.474  14.764   6.924
 3599POPC   C4B46918   7.591  14.664   7.293
 3600POPC   NC346919   7.920   9.839   5.399
 3600POPC   PO446920   8.513  10.010   5.097
 3600POPC   GL146921   8.391   9.961   5.638
 3600POPC   GL246922   8.130   9.725   5.838
 3600POPC   C1A46923   8.398  10.000   6.150
 3600POPC   D2A46924   8.145  10.002   6.543
 3600POPC   C3A46925   8.357   9.982   6.943
 3600POPC   C4A46926   8.411   9.628   7.185
 3600POPC   C1B46927   8.156   9.537   6.272
 3600POPC   C2B46928   8.182   9.514   6.730
 3600POPC   C3B46929   7.932   9.739   7.053
 3600POPC   C4B46930   7.975   9.526   7.423
 3601POPC   NC346931  24.509  25.114   5.259
 3601POPC   PO446932  24.034  25.541   5.550
 3601POPC   GL146933  24.310  25.192   5.718
 3601POPC   GL246934  24.660  25.346   5.716
 3601POPC   C1A46935  24.580  24.984   6.087
 3601POPC   D2A46936  24.465  24.841   6.510
 3601POPC   C3A46937  24.567  25.002   6.894
 3601POPC   C4A46938  24.209  25.105   7.103
 3601POPC   C1B46939  24.450  25.488   6.100
 3601POPC   C2B46940  24.566  25.370   6.482
 3601POPC   C3B46941  24.468  25.496   6.853
 3601POPC   C4B46942  24.599  25.411   7.246
 3602POPC   NC346943  30.034   6.165   5.405
 3602POPC   PO446944  30.175   6.824   5.401
 3602POPC   GL146945  29.983   6.573   5.778
 3602POPC   GL246946  30.209   6.254   5.874
 3602POPC   C1A46947  29.695   6.701   6.148
 3602POPC   D2A46948  29.734   6.958   6.562
 3602POPC   C3A46949  29.789   6.820   7.019
 3602POPC   C4A46950  29.729   6.859   7.512
 3602POPC   C1B46951  29.929   6.257   6.214
 3602POPC   C2B46952  29.672   6.384   6.574
 3602POPC   C3B46953  29.841   6.304   6.996
 3602POPC   C4B46954  30.245   6.165   7.111
 3603POPC   NC346955  21.790  29.207   5.530
 3603POPC   PO446956  21.150  28.832   5.453
 3603POPC   GL146957  21.125  29.031   5.872
 3603POPC   GL246958  21.493  29.052   5.922
 3603POPC   C1A46959  21.165  29.285   6.242
 3603POPC   D2A46960  21.464  29.067   6.506
 3603POPC   C3A46961  21.240  28.927   6.874
 3603POPC   C4A46962  21.227  29.118   7.269
 3603POPC   C1B46963  21.656  29.422   6.156
 3603POPC   C2B46964  21.721  29.504   6.598
 3603POPC   C3B46965  21.441  29.499   6.961
 3603POPC   C4B46966  21.570  29.503   7.380
 3604POPC   NC346967  38.490  38.988   5.305
 3604POPC   PO446968  38.929  39.489   5.481
 3604POPC   GL146969  38.611  39.279   5.739
 3604POPC   GL246970  38.804  39.021   5.708
 3604POPC   C1A46971  38.339  39.297   6.109
 3604POPC   D2A46972  38.382  39.132   6.535
 3604POPC   C3A46973  38.229  39.184   6.952
 3604POPC   C4A46974  38.419  39.461   7.203
 3604POPC   C1B46975  38.724  38.944   6.123
 3604POPC   C2B46976  38.785  38.830   6.539
 3604POPC   C3B46977  38.569  38.781   6.913
 3604POPC   C4B46978  38.547  38.967   7.308
 3605POPC   NC346979  13.383  11.709   5.648
 3605POPC   PO446980  13.411  11.251   5.163
 3605POPC   GL146981  13.617  11.244   5.624
 3605POPC   GL246982  13.846  11.527   5.739
 3605POPC   C1A46983  13.582  11.277   6.119
 3605POPC   D2A46984  13.757  11.074   6.489
 3605POPC   C3A46985  13.622  11.152   6.903
 3605POPC   C4A46986  13.805  11.218   7.287
 3605POPC   C1B46987  13.994  11.601   6.172
 3605POPC   C2B46988  13.810  11.585   6.584
 3605POPC   C3B46989  13.994  11.586   6.975
 3605POPC   C4B46990  13.848  11.712   7.377
 3606POPC   NC346991   6.283  31.507   5.424
 3606POPC   PO446992   5.630  31.628   5.406
 3606POPC   GL146993   5.831  31.433   5.758
 3606POPC   GL246994   5.509  31.517   5.896
 3606POPC   C1A46995   5.923  31.430   6.208
 3606POPC   D2A46996   5.981  31.634   6.593
 3606POPC   C3A46997   6.089  31.375   6.956
 3606POPC   C4A46998   6.262  31.474   7.353
 3606POPC   C1B46999   5.615  31.847   6.192
 3606POPC   C2B47000   5.598  31.960   6.658
 3606POPC   C3B47001   5.665  31.720   7.034
 3606POPC   C4B47002   5.827  31.746   7.473
 3607POPC   NC347003  41.925   9.292   5.415
 3607POPC   PO447004  41.314   9.831   5.395
 3607POPC   GL147005  41.390   9.800   5.839
 3607POPC   GL247006  41.716   9.650   5.786
 3607POPC   C1A47007  41.283   9.644   6.281
 3607POPC   D2A47008  41.163   9.680   6.741
 3607POPC   C3A47009  41.501   9.515   7.021
 3607POPC   C4A47010  41.556   9.442   7.473
 3607POPC   C1B47011  41.761   9.907   6.178
 3607POPC   C2B47012  41.625   9.902   6.619
 3607POPC   C3B47013  41.691  10.002   7.065
 3607POPC   C4B47014  41.961   9.778   7.377
 3608POPC   NC347015   7.687  31.261   5.463
 3608POPC   PO447016   7.122  31.619   5.367
 3608POPC   GL147017   7.318  31.505   5.752
 3608POPC   GL247018   7.605  31.698   5.780
 3608POPC   C1A47019   7.350  31.350   6.168
 3608POPC   D2A47020   7.495  31.452   6.576
 3608POPC   C3A47021   7.423  31.211   6.939
 3608POPC   C4A47022   7.112  31.408   7.194
 3608POPC   C1B47023   7.687  31.789   6.221
 3608POPC   C2B47024   7.903  31.744   6.634
 3608POPC   C3B47025   7.735  31.718   7.100
 3608POPC   C4B47026   7.822  31.777   7.596
 3609POPC   NC347027  31.518   7.358   5.351
 3609POPC   PO447028  31.323   7.945   5.613
 3609POPC   GL147029  31.564   7.566   5.834
 3609POPC   GL247030  31.359   7.278   5.852
 3609POPC   C1A47031  31.828   7.320   6.157
 3609POPC   D2A47032  31.824   7.061   6.530
 3609POPC   C3A47033  31.613   7.278   6.847
 3609POPC   C4A47034  31.527   7.429   7.245
 3609POPC   C1B47035  31.372   7.046   6.245
 3609POPC   C2B47036  31.198   7.011   6.653
 3609POPC   C3B47037  31.363   6.871   7.061
 3609POPC   C4B47038  31.146   7.084   7.374
 3610POPC   NC347039  13.449  28.293   5.458
 3610POPC   PO447040  14.004  28.609   5.234
 3610POPC   GL147041  13.916  28.382   5.671
 3610POPC   GL247042  13.551  28.523   5.883
 3610POPC   C1A47043  13.914  28.277   6.129
 3610POPC   D2A47044  13.729  28.284   6.562
 3610POPC   C3A47045  13.754  28.344   7.014
 3610POPC   C4A47046  13.794  28.011   7.327
 3610POPC   C1B47047  13.383  28.241   6.171
 3610POPC   C2B47048  13.282  28.031   6.575
 3610POPC   C3B47049  13.385  28.002   7.000
 3610POPC   C4B47050  13.298  27.779   7.364
 3611POPC   NC347051   9.707   3.182   5.397
 3611POPC   PO447052  10.235   3.527   5.418
 3611POPC   GL147053   9.971   3.395   5.775
 3611POPC   GL247054   9.778   3.681   5.952
 3611POPC   C1A47055   9.831   3.242   6.198
 3611POPC   D2A47056   9.920   3.470   6.573
 3611POPC   C3A47057   9.882   3.333   6.963
 3611POPC   C4A47058  10.033   3.522   7.328
 3611POPC   C1B47059   9.499   3.628   6.322
 3611POPC   C2B47060   9.497   3.694   6.770
 3611POPC   C3B47061   9.524   3.617   7.202
 3611POPC   C4B47062   9.389   3.783   7.590
 3612POPC   NC347063  33.610  25.010   5.378
 3612POPC   PO447064  33.822  25.627   5.590
 3612POPC   GL147065  33.677  25.308   5.830
 3612POPC   GL247066  33.857  24.997   5.852
 3612POPC   C1A47067  33.538  25.157   6.227
 3612POPC   D2A47068  33.760  25.005   6.592
 3612POPC   C3A47069  33.646  25.107   6.993
 3612POPC   C4A47070  33.836  25.322   7.338
 3612POPC   C1B47071  34.179  24.969   6.183
 3612POPC   C2B47072  34.226  24.742   6.567
 3612POPC   C3B47073  34.117  24.903   6.967
 3612POPC   C4B47074  34.132  24.937   7.427
 3613POPC   NC347075  17.210  11.526   5.378
 3613POPC   PO447076  16.588  11.222   5.420
 3613POPC   GL147077  16.766  11.313   5.804
 3613POPC   GL247078  17.096  11.297   5.818
 3613POPC   C1A47079  16.782  11.339   6.228
 3613POPC   D2A47080  16.906  11.475   6.607
 3613POPC   C3A47081  16.594  11.428   6.869
 3613POPC   C4A47082  16.627  11.309   7.268
 3613POPC   C1B47083  17.146  10.991   6.148
 3613POPC   C2B47084  17.202  10.964   6.596
 3613POPC   C3B47085  17.151  11.207   6.960
 3613POPC   C4B47086  17.070  11.058   7.359
 3614POPC   NC347087   1.493  27.106   5.364
 3614POPC   PO447088   1.006  26.594   5.398
 3614POPC   GL147089   1.300  26.681   5.759
 3614POPC   GL247090   1.394  27.028   5.846
 3614POPC   C1A47091   1.375  26.686   6.225
 3614POPC   D2A47092   1.210  26.985   6.548
 3614POPC   C3A47093   1.003  26.834   6.883
 3614POPC   C4A47094   0.925  27.023   7.237
 3614POPC   C1B47095   1.548  27.170   6.235
 3614POPC   C2B47096   1.705  27.059   6.646
 3614POPC   C3B47097   1.454  27.045   7.028
 3614POPC   C4B47098   1.331  26.662   7.257
 3615POPC   NC347099   7.656  18.733   5.415
 3615POPC   PO447100   7.329  18.105   5.490
 3615POPC   GL147101   7.606  18.297   5.755
 3615POPC   GL247102   7.344  18.566   5.779
 3615POPC   C1A47103   7.717  18.172   6.187
 3615POPC   D2A47104   7.832  18.395   6.572
 3615POPC   C3A47105   7.671  18.221   6.937
 3615POPC   C4A47106   7.370  18.337   7.232
 3615POPC   C1B47107   7.615  18.671   6.127
 3615POPC   C2B47108   7.512  18.828   6.519
 3615POPC   C3B47109   7.537  18.714   6.902
 3615POPC   C4B47110   7.438  18.841   7.274
 3616POPC   NC347111  17.402  12.192   5.491
 3616POPC   PO447112  17.661  11.595   5.272
 3616POPC   GL147113  17.475  11.738   5.743
 3616POPC   GL247114  17.173  11.809   5.879
 3616POPC   C1A47115  17.593  11.897   6.197
 3616POPC   D2A47116  17.603  12.239   6.507
 3616POPC   C3A47117  17.642  12.170   6.922
 3616POPC   C4A47118  17.436  12.310   7.240
 3616POPC   C1B47119  17.189  12.210   6.138
 3616POPC   C2B47120  17.095  12.354   6.568
 3616POPC   C3B47121  17.031  12.176   6.975
 3616POPC   C4B47122  17.096  11.956   7.385
 3617POPC   NC347123  38.698  16.139   5.119
 3617POPC   PO447124  38.091  15.864   5.260
 3617POPC   GL147125  38.274  16.017   5.641
 3617POPC   GL247126  38.613  15.907   5.608
 3617POPC   C1A47127  38.216  15.950   6.108
 3617POPC   D2A47128  38.317  15.756   6.511
 3617POPC   C3A47129  38.134  15.731   6.915
 3617POPC   C4A47130  37.974  16.073   7.185
 3617POPC   C1B47131  38.624  16.227   5.972
 3617POPC   C2B47132  38.492  16.267   6.428
 3617POPC   C3B47133  38.373  16.182   6.861
 3617POPC   C4B47134  38.572  15.876   7.157
 3618POPC   NC347135  39.365   5.170   5.304
 3618POPC   PO447136  38.743   5.009   5.381
 3618POPC   GL147137  38.929   5.268   5.721
 3618POPC   GL247138  39.287   5.202   5.806
 3618POPC   C1A47139  38.949   5.243   6.191
 3618POPC   D2A47140  38.951   4.816   6.425
 3618POPC   C3A47141  39.110   4.828   6.842
 3618POPC   C4A47142  39.114   5.051   7.229
 3618POPC   C1B47143  39.448   5.092   6.215
 3618POPC   C2B47144  39.264   5.249   6.603
 3618POPC   C3B47145  39.417   5.412   6.977
 3618POPC   C4B47146  39.598   5.180   7.315
 3619POPC   NC347147  11.097  10.822   5.071
 3619POPC   PO447148  11.309  10.370   5.546
 3619POPC   GL147149  11.346  10.665   5.886
 3619POPC   GL247150  11.046  10.851   6.022
 3619POPC   C1A47151  11.608  10.645   6.238
 3619POPC   D2A47152  11.681  10.382   6.595
 3619POPC   C3A47153  11.442  10.546   6.923
 3619POPC   C4A47154  11.494  10.434   7.348
 3619POPC   C1B47155  11.100  10.460   6.294
 3619POPC   C2B47156  11.147  10.187   6.653
 3619POPC   C3B47157  11.064  10.232   7.101
 3619POPC   C4B47158  11.033  10.674   7.224
 3620POPC   NC347159  39.047   6.114   5.387
 3620POPC   PO447160  39.537   5.615   5.328
 3620POPC   GL147161  39.454   5.684   5.784
 3620POPC   GL247162  39.102   5.737   5.827
 3620POPC   C1A47163  39.400   5.608   6.251
 3620POPC   D2A47164  39.380   5.945   6.571
 3620POPC   C3A47165  39.258   5.950   7.017
 3620POPC   C4A47166  39.469   6.299   7.218
 3620POPC   C1B47167  38.971   5.881   6.228
 3620POPC   C2B47168  38.950   5.673   6.623
 3620POPC   C3B47169  38.924   5.550   7.049
 3620POPC   C4B47170  38.833   5.842   7.364
 3621POPC   NC347171  34.721   9.911   5.535
 3621POPC   PO447172  34.239   9.569   5.228
 3621POPC   GL147173  34.246   9.689   5.720
 3621POPC   GL247174  34.191  10.000   5.859
 3621POPC   C1A47175  34.391   9.629   6.177
 3621POPC   D2A47176  34.569   9.571   6.545
 3621POPC   C3A47177  34.351   9.730   6.881
 3621POPC   C4A47178  34.343   9.667   7.307
 3621POPC   C1B47179  34.505  10.138   6.171
 3621POPC   C2B47180  34.706  10.089   6.586
 3621POPC   C3B47181  34.993  10.089   6.954
 3621POPC   C4B47182  34.651  10.070   7.230
 3622POPC   NC347183   1.652   0.899   5.454
 3622POPC   PO447184   1.156   1.201   5.374
 3622POPC   GL147185   1.114   1.093   5.831
 3622POPC   GL247186   1.247   0.755   5.788
 3622POPC   C1A47187   1.022   1.261   6.281
 3622POPC   D2A47188   0.939   1.237   6.743
 3622POPC   C3A47189   1.241   1.472   7.025
 3622POPC   C4A47190   1.609   1.548   7.311
 3622POPC   C1B47191   1.243   0.809   6.232
 3622POPC   C2B47192   1.389   0.985   6.628
 3622POPC   C3B47193   1.222   0.959   7.063
 3622POPC   C4B47194   0.895   0.917   7.398
 3623POPC   NC347195  10.033  18.729   5.390
 3623POPC   PO447196   9.745  19.349   5.485
 3623POPC   GL147197   9.989  19.096   5.755
 3623POPC   GL247198   9.751  18.805   5.814
 3623POPC   C1A47199  10.018  19.019   6.196
 3623POPC   D2A47200   9.810  19.328   6.465
 3623POPC   C3A47201   9.746  19.308   6.926
 3623POPC   C4A47202   9.891  19.150   7.332
 3623POPC   C1B47203   9.586  18.786   6.246
 3623POPC   C2B47204   9.786  18.838   6.655
 3623POPC   C3B47205   9.594  18.825   7.060
 3623POPC   C4B47206   9.704  18.685   7.443
 3624POPC   NC347207   7.238  12.384   5.325
 3624POPC   PO447208   7.443  13.070   5.408
 3624POPC   GL147209   7.310  12.892   5.817
 3624POPC   GL247210   7.227  12.520   5.885
 3624POPC   C1A47211   7.535  12.880   6.228
 3624POPC   D2A47212   7.488  13.091   6.618
 3624POPC   C3A47213   7.541  12.915   7.010
 3624POPC   C4A47214   7.914  13.031   7.221
 3624POPC   C1B47215   7.246  12.486   6.361
 3624POPC   C2B47216   7.502  12.486   6.741
 3624POPC   C3B47217   7.353  12.438   7.163
 3624POPC   C4B47218   7.025  12.685   7.375
 3625POPC   NC347219   5.460  27.588   5.487
 3625POPC   PO447220   6.099  27.889   5.504
 3625POPC   GL147221   5.853  27.699   5.812
 3625POPC   GL247222   6.061  27.438   5.939
 3625POPC   C1A47223   5.709  27.675   6.244
 3625POPC   D2A47224   5.606  27.478   6.613
 3625POPC   C3A47225   5.680  27.657   7.015
 3625POPC   C4A47226   5.677  27.521   7.462
 3625POPC   C1B47227   6.190  27.789   6.205
 3625POPC   C2B47228   6.057  27.796   6.643
 3625POPC   C3B47229   6.237  27.732   7.049
 3625POPC   C4B47230   6.161  27.908   7.452
 3626POPC   NC347231   7.617  26.953   5.359
 3626POPC   PO447232   7.251  26.489   5.402
 3626POPC   GL147233   7.422  26.652   5.774
 3626POPC   GL247234   7.073  26.744   5.854
 3626POPC   C1A47235   7.404  26.842   6.219
 3626POPC   D2A47236   7.158  26.835   6.584
 3626POPC   C3A47237   7.420  26.840   6.950
 3626POPC   C4A47238   7.413  26.622   7.314
 3626POPC   C1B47239   6.942  27.080   6.172
 3626POPC   C2B47240   6.956  27.300   6.581
 3626POPC   C3B47241   6.960  27.090   6.985
 3626POPC   C4B47242   7.178  27.093   7.370
 3627POPC   NC347243   1.491  36.246   5.496
 3627POPC   PO447244   0.880  36.019   5.507
 3627POPC   GL147245   1.114  36.199   5.885
 3627POPC   GL247246   1.440  36.094   5.958
 3627POPC   C1A47247   1.187  36.196   6.370
 3627POPC   D2A47248   1.141  35.907   6.721
 3627POPC   C3A47249   1.140  36.041   7.146
 3627POPC   C4A47250   1.130  36.420   7.404
 3627POPC   C1B47251   1.648  35.930   6.269
 3627POPC   C2B47252   1.616  36.057   6.660
 3627POPC   C3B47253   1.607  35.893   7.062
 3627POPC   C4B47254   1.538  35.979   7.504
 3628POPC   NC347255  10.113  41.847   5.606
 3628POPC   PO447256  10.156  41.352   5.172
 3628POPC   GL147257  10.451  41.454   5.614
 3628POPC   GL247258  10.573  41.802   5.802
 3628POPC   C1A47259  10.488  41.368   6.099
 3628POPC   D2A47260  10.456  41.180   6.552
 3628POPC   C3A47261  10.581  41.400   6.974
 3628POPC   C4A47262  10.992  41.586   7.117
 3628POPC   C1B47263  10.362  41.877   6.241
 3628POPC   C2B47264  10.165  41.705   6.653
 3628POPC   C3B47265  10.147  41.739   7.121
 3628POPC   C4B47266  10.410  41.919   7.453
 3629POPC   NC347267   3.359  37.690   5.372
 3629POPC   PO447268   3.933  37.311   5.400
 3629POPC   GL147269   3.786  37.618   5.751
 3629POPC   GL247270   3.420  37.719   5.878
 3629POPC   C1A47271   3.813  37.814   6.185
 3629POPC   D2A47272   3.495  37.833   6.524
 3629POPC   C3A47273   3.661  37.761   6.950
 3629POPC   C4A47274   3.582  37.875   7.381
 3629POPC   C1B47275   3.126  37.526   6.215
 3629POPC   C2B47276   3.118  37.511   6.677
 3629POPC   C3B47277   3.175  37.687   7.088
 3629POPC   C4B47278   3.269  37.486   7.475
 3630POPC   NC347279  23.418  11.367   5.515
 3630POPC   PO447280  24.034  11.214   5.587
 3630POPC   GL147281  23.827  11.407   5.932
 3630POPC   GL247282  23.485  11.542   5.983
 3630POPC   C1A47283  23.787  11.233   6.333
 3630POPC   D2A47284  23.900  11.102   6.724
 3630POPC   C3A47285  23.641  11.054   7.047
 3630POPC   C4A47286  23.601  11.135   7.464
 3630POPC   C1B47287  23.711  11.738   6.343
 3630POPC   C2B47288  23.997  11.598   6.685
 3630POPC   C3B47289  23.837  11.528   7.107
 3630POPC   C4B47290  23.367  11.502   7.162
 3631POPC   NC347291   6.441  28.227   5.337
 3631POPC   PO447292   6.907  28.771   5.390
 3631POPC   GL147293   6.688  28.544   5.780
 3631POPC   GL247294   6.438  28.275   5.837
 3631POPC   C1A47295   6.816  28.403   6.234
 3631POPC   D2A47296   6.733  28.526   6.685
 3631POPC   C3A47297   6.932  28.414   7.103
 3631POPC   C4A47298   6.863  28.595   7.529
 3631POPC   C1B47299   6.323  28.285   6.268
 3631POPC   C2B47300   6.483  28.082   6.581
 3631POPC   C3B47301   6.463  28.187   6.979
 3631POPC   C4B47302   6.646  28.012   7.312
 3632POPC   NC347303   7.604  26.178   5.403
 3632POPC   PO447304   6.990  25.922   5.521
 3632POPC   GL147305   7.122  26.206   5.858
 3632POPC   GL247306   7.472  26.094   5.885
 3632POPC   C1A47307   7.164  26.123   6.313
 3632POPC   D2A47308   7.423  25.827   6.574
 3632POPC   C3A47309   7.320  25.672   6.999
 3632POPC   C4A47310   7.160  25.911   7.348
 3632POPC   C1B47311   7.625  26.386   6.169
 3632POPC   C2B47312   7.481  26.447   6.580
 3632POPC   C3B47313   7.340  26.218   6.925
 3632POPC   C4B47314   7.603  26.143   7.256
 3633POPC   NC347315  42.476  34.407   5.084
 3633POPC   PO447316  42.280  34.986   5.350
 3633POPC   GL147317  42.441  34.767   5.765
 3633POPC   GL247318  42.556  34.395   5.750
 3633POPC   C1A47319  42.233  34.538   6.136
 3633POPC   D2A47320  42.325  34.427   6.550
 3633POPC   C3A47321  42.114  34.497   6.937
 3633POPC   C4A47322  42.243  34.322   7.295
 3633POPC   C1B47323  42.738  34.425   6.187
 3633POPC   C2B47324  42.766  34.683   6.566
 3633POPC   C3B47325  42.604  34.627   6.958
 3633POPC   C4B47326  42.374  34.851   7.255
 3634POPC   NC347327  14.147  15.233   5.335
 3634POPC   PO447328  14.548  14.693   5.374
 3634POPC   GL147329  14.481  14.846   5.808
 3634POPC   GL247330  14.627  15.171   5.858
 3634POPC   C1A47331  14.279  14.907   6.240
 3634POPC   D2A47332  14.332  15.016   6.708
 3634POPC   C3A47333  14.192  15.397   6.956
 3634POPC   C4A47334  14.000  15.497   7.377
 3634POPC   C1B47335  14.801  14.900   6.244
 3634POPC   C2B47336  14.882  14.980   6.719
 3634POPC   C3B47337  14.617  14.880   7.126
 3634POPC   C4B47338  14.678  14.903   7.587
 3635POPC   NC347339  26.276   1.653   5.447
 3635POPC   PO447340  25.771   2.070   5.301
 3635POPC   GL147341  25.839   1.946   5.760
 3635POPC   GL247342  26.181   1.964   5.848
 3635POPC   C1A47343  25.859   2.189   6.184
 3635POPC   D2A47344  25.810   2.367   6.610
 3635POPC   C3A47345  25.736   2.051   6.937
 3635POPC   C4A47346  25.691   2.194   7.359
 3635POPC   C1B47347  26.153   1.726   6.212
 3635POPC   C2B47348  26.145   1.998   6.561
 3635POPC   C3B47349  26.250   2.078   6.966
 3635POPC   C4B47350  26.170   1.819   7.307
 3636POPC   NC347351  36.324  19.010   5.366
 3636POPC   PO447352  35.785  19.475   5.472
 3636POPC   GL147353  35.891  19.262   5.856
 3636POPC   GL247354  35.933  18.924   5.851
 3636POPC   C1A47355  36.113  19.196   6.273
 3636POPC   D2A47356  36.141  19.394   6.679
 3636POPC   C3A47357  36.107  19.182   7.067
 3636POPC   C4A47358  36.377  18.858   7.210
 3636POPC   C1B47359  35.760  18.846   6.263
 3636POPC   C2B47360  35.942  18.847   6.664
 3636POPC   C3B47361  35.783  18.801   7.071
 3636POPC   C4B47362  35.942  18.789   7.463
 3637POPC   NC347363  31.076  44.099   5.432
 3637POPC   PO447364  31.730  44.155   5.585
 3637POPC   GL147365  31.744  43.948   5.917
 3637POPC   GL247366  31.451  43.775   5.862
 3637POPC   C1A47367  31.832  43.657   6.215
 3637POPC   D2A47368  31.572  43.781   6.548
 3637POPC   C3A47369  31.744  43.797   6.939
 3637POPC   C4A47370  31.547  43.897   7.284
 3637POPC   C1B47371  31.169  44.025   6.085
 3637POPC   C2B47372  31.099  44.184   6.491
 3637POPC   C3B47373  31.293  44.116   6.879
 3637POPC   C4B47374  31.060  44.022   7.236
 3638POPC   NC347375  42.342  23.926   5.456
 3638POPC   PO447376  42.145  23.345   5.573
 3638POPC   GL147377  42.322  23.600   5.887
 3638POPC   GL247378  42.642  23.790   5.875
 3638POPC   C1A47379  42.314  23.830   6.273
 3638POPC   D2A47380  42.188  23.906   6.679
 3638POPC   C3A47381  42.247  23.639   7.000
 3638POPC   C4A47382  42.121  23.988   7.252
 3638POPC   C1B47383  42.712  23.478   6.203
 3638POPC   C2B47384  42.630  23.530   6.638
 3638POPC   C3B47385  42.762  23.712   7.010
 3638POPC   C4B47386  42.736  23.472   7.400
 3639POPC   NC347387   8.336  23.434   5.498
 3639POPC   PO447388   8.249  24.076   5.450
 3639POPC   GL147389   7.996  23.896   5.795
 3639POPC   GL247390   7.940  23.556   5.872
 3639POPC   C1A47391   8.106  23.933   6.217
 3639POPC   D2A47392   8.349  23.613   6.428
 3639POPC   C3A47393   8.393  23.675   6.849
 3639POPC   C4A47394   8.122  23.880   7.165
 3639POPC   C1B47395   7.947  23.285   6.248
 3639POPC   C2B47396   7.776  23.235   6.660
 3639POPC   C3B47397   7.999  23.368   7.015
 3639POPC   C4B47398   7.878  23.514   7.401
 3640POPC   NC347399  27.594   0.104   5.658
 3640POPC   PO447400  27.455   0.747   5.434
 3640POPC   GL147401  27.549   0.571   5.845
 3640POPC   GL247402  27.888   0.589   5.769
 3640POPC   C1A47403  27.447   0.528   6.297
 3640POPC   D2A47404  27.327   0.685   6.713
 3640POPC   C3A47405  27.179   0.400   7.015
 3640POPC   C4A47406  27.436   0.309   7.311
 3640POPC   C1B47407  27.937   0.367   6.183
 3640POPC   C2B47408  27.943   0.159   6.591
 3640POPC   C3B47409  27.784   0.407   6.939
 3640POPC   C4B47410  28.016   0.564   7.269
 3641POPC   NC347411  12.643  28.344   5.411
 3641POPC   PO447412  13.160  28.649   5.452
 3641POPC   GL147413  13.034  28.355   5.812
 3641POPC   GL247414  12.713  28.439   5.905
 3641POPC   C1A47415  12.887  28.242   6.321
 3641POPC   D2A47416  12.569  28.318   6.649
 3641POPC   C3A47417  12.614  28.339   7.101
 3641POPC   C4A47418  12.876  28.126   7.434
 3641POPC   C1B47419  13.086  28.682   6.186
 3641POPC   C2B47420  13.268  28.544   6.576
 3641POPC   C3B47421  13.086  28.426   6.927
 3641POPC   C4B47422  13.019  28.605   7.311
 3642POPC   NC347423   3.901  14.652   5.627
 3642POPC   PO447424   3.225  14.600   5.540
 3642POPC   GL147425   3.448  14.580   5.880
 3642POPC   GL247426   3.658  14.289   5.891
 3642POPC   C1A47427   3.351  14.556   6.281
 3642POPC   D2A47428   3.524  14.443   6.633
 3642POPC   C3A47429   3.280  14.169   6.843
 3642POPC   C4A47430   3.237  14.423   7.179
 3642POPC   C1B47431   3.625  14.078   6.279
 3642POPC   C2B47432   3.744  13.989   6.707
 3642POPC   C3B47433   3.744  14.289   7.072
 3642POPC   C4B47434   4.028  14.217   7.393
 3643POPC   NC347435   2.208   8.867   5.419
 3643POPC   PO447436   1.979   9.504   5.450
 3643POPC   GL147437   1.879   9.178   5.784
 3643POPC   GL247438   1.987   8.809   5.864
 3643POPC   C1A47439   1.900   9.111   6.259
 3643POPC   D2A47440   1.747   8.922   6.631
 3643POPC   C3A47441   1.786   9.125   7.051
 3643POPC   C4A47442   1.893   9.245   7.494
 3643POPC   C1B47443   2.074   8.569   6.243
 3643POPC   C2B47444   1.958   8.423   6.640
 3643POPC   C3B47445   1.949   8.633   7.016
 3643POPC   C4B47446   2.150   8.820   7.328
 3644POPC   NC347447   7.683   8.112   5.357
 3644POPC   PO447448   7.032   8.166   5.409
 3644POPC   GL147449   7.353   8.052   5.796
 3644POPC   GL247450   7.720   8.034   5.858
 3644POPC   C1A47451   7.466   8.144   6.269
 3644POPC   D2A47452   7.200   8.129   6.622
 3644POPC   C3A47453   7.345   7.897   6.952
 3644POPC   C4A47454   7.119   8.125   7.267
 3644POPC   C1B47455   7.966   7.979   6.241
 3644POPC   C2B47456   7.880   8.202   6.615
 3644POPC   C3B47457   7.696   8.244   7.017
 3644POPC   C4B47458   7.520   8.539   7.240
 3645POPC   NC347459  24.107  28.288   5.369
 3645POPC   PO447460  23.675  28.789   5.486
 3645POPC   GL147461  23.862  28.495   5.796
 3645POPC   GL247462  24.222  28.357   5.859
 3645POPC   C1A47463  23.756  28.283   6.192
 3645POPC   D2A47464  23.416  28.303   6.517
 3645POPC   C3A47465  23.557  28.421   6.948
 3645POPC   C4A47466  23.440  28.293   7.373
 3645POPC   C1B47467  24.127  28.649   6.202
 3645POPC   C2B47468  23.932  28.596   6.602
 3645POPC   C3B47469  24.102  28.350   6.954
 3645POPC   C4B47470  23.930  28.389   7.337
 3646POPC   NC347471  31.248   2.471   5.406
 3646POPC   PO447472  31.150   3.076   5.472
 3646POPC   GL147473  31.382   2.985   5.841
 3646POPC   GL247474  31.452   2.644   5.877
 3646POPC   C1A47475  31.555   3.056   6.240
 3646POPC   D2A47476  31.701   2.909   6.666
 3646POPC   C3A47477  31.501   3.097   7.021
 3646POPC   C4A47478  31.387   2.906   7.435
 3646POPC   C1B47479  31.547   2.552   6.293
 3646POPC   C2B47480  31.373   2.418   6.681
 3646POPC   C3B47481  31.516   2.558   7.064
 3646POPC   C4B47482  31.710   2.507   7.464
 3647POPC   NC347483  31.387  14.661   5.142
 3647POPC   PO447484  31.730  14.161   5.297
 3647POPC   GL147485  31.426  14.277   5.623
 3647POPC   GL247486  31.603  14.567   5.766
 3647POPC   C1A47487  31.364  14.257   6.097
 3647POPC   D2A47488  31.559  14.394   6.498
 3647POPC   C3A47489  31.473  14.142   6.849
 3647POPC   C4A47490  31.510  14.169   7.286
 3647POPC   C1B47491  31.495  14.786   6.153
 3647POPC   C2B47492  31.373  14.861   6.597
 3647POPC   C3B47493  31.496  14.646   6.987
 3647POPC   C4B47494  31.726  14.623   7.423
 3648POPC   NC347495  33.808   1.417   5.318
 3648POPC   PO447496  33.678   0.857   5.185
 3648POPC   GL147497  33.669   1.050   5.640
 3648POPC   GL247498  33.996   1.201   5.783
 3648POPC   C1A47499  33.555   1.075   6.101
 3648POPC   D2A47500  33.683   1.104   6.579
 3648POPC   C3A47501  33.447   1.116   6.950
 3648POPC   C4A47502  33.652   1.461   7.197
 3648POPC   C1B47503  34.124   1.118   6.237
 3648POPC   C2B47504  34.189   1.040   6.700
 3648POPC   C3B47505  33.947   1.056   7.105
 3648POPC   C4B47506  33.647   1.024   7.434
 3649POPC   NC347507  17.690  16.906   5.076
 3649POPC   PO447508  17.192  16.488   5.203
 3649POPC   GL147509  17.496  16.634   5.573
 3649POPC   GL247510  17.596  16.996   5.692
 3649POPC   C1A47511  17.492  16.620   6.046
 3649POPC   D2A47512  17.436  16.518   6.511
 3649POPC   C3A47513  17.677  16.641   6.858
 3649POPC   C4A47514  17.579  16.653   7.302
 3649POPC   C1B47515  17.589  17.162   6.151
 3649POPC   C2B47516  17.655  17.120   6.612
 3649POPC   C3B47517  17.689  17.104   7.067
 3649POPC   C4B47518  17.914  17.006   7.461
 3650POPC   NC347519  38.936   1.548   5.335
 3650POPC   PO447520  38.999   0.844   5.362
 3650POPC   GL147521  39.098   1.169   5.709
 3650POPC   GL247522  39.402   1.408   5.709
 3650POPC   C1A47523  39.252   1.198   6.158
 3650POPC   D2A47524  39.348   1.019   6.564
 3650POPC   C3A47525  39.236   1.230   6.967
 3650POPC   C4A47526  39.227   1.091   7.405
 3650POPC   C1B47527  39.521   1.628   6.130
 3650POPC   C2B47528  39.465   1.511   6.581
 3650POPC   C3B47529  39.599   1.590   7.032
 3650POPC   C4B47530  39.296   1.578   7.383
 3651POPC   NC347531  35.038  25.576   5.496
 3651POPC   PO447532  35.568  25.191   5.507
 3651POPC   GL147533  35.511  25.284   5.879
 3651POPC   GL247534  35.496  25.667   5.830
 3651POPC   C1A47535  35.442  25.037   6.272
 3651POPC   D2A47536  35.225  24.940   6.691
 3651POPC   C3A47537  35.424  25.063   7.077
 3651POPC   C4A47538  35.531  24.880   7.491
 3651POPC   C1B47539  35.196  25.535   6.193
 3651POPC   C2B47540  35.004  25.397   6.580
 3651POPC   C3B47541  35.161  25.487   6.999
 3651POPC   C4B47542  35.543  25.739   7.086
 3652POPC   NC347543  18.127  35.887   5.296
 3652POPC   PO447544  17.956  36.510   5.533
 3652POPC   GL147545  18.313  36.204   5.716
 3652POPC   GL247546  18.078  36.011   5.818
 3652POPC   C1A47547  18.492  36.018   6.148
 3652POPC   D2A47548  18.555  35.889   6.616
 3652POPC   C3A47549  18.536  36.182   7.008
 3652POPC   C4A47550  18.209  36.503   7.211
 3652POPC   C1B47551  18.110  36.359   6.158
 3652POPC   C2B47552  18.270  36.364   6.581
 3652POPC   C3B47553  18.041  36.150   6.897
 3652POPC   C4B47554  17.771  36.196   7.248
 3653POPC   NC347555  25.795  12.207   5.456
 3653POPC   PO447556  26.397  12.021   5.375
 3653POPC   GL147557  26.181  12.052   5.780
 3653POPC   GL247558  25.866  11.883   5.841
 3653POPC   C1A47559  26.004  12.200   6.202
 3653POPC   D2A47560  25.957  11.929   6.561
 3653POPC   C3A47561  25.847  12.075   6.935
 3653POPC   C4A47562  26.024  12.301   7.226
 3653POPC   C1B47563  25.604  11.811   6.207
 3653POPC   C2B47564  25.529  11.666   6.652
 3653POPC   C3B47565  25.758  11.551   7.026
 3653POPC   C4B47566  25.728  11.647   7.476
 3654POPC   NC347567  36.116  42.190   5.461
 3654POPC   PO447568  36.617  42.610   5.379
 3654POPC   GL147569  36.332  42.565   5.790
 3654POPC   GL247570  35.938  42.528   5.835
 3654POPC   C1A47571  36.249  42.477   6.249
 3654POPC   D2A47572  36.280  42.650   6.647
 3654POPC   C3A47573  36.135  42.397   6.999
 3654POPC   C4A47574  36.263  42.051   7.216
 3654POPC   C1B47575  35.912  42.119   6.104
 3654POPC   C2B47576  35.902  41.981   6.553
 3654POPC   C3B47577  35.780  41.972   7.006
 3654POPC   C4B47578  35.813  42.159   7.430
 3655POPC   NC347579  26.348  31.676   5.668
 3655POPC   PO447580  26.073  32.244   5.430
 3655POPC   GL147581  26.114  32.327   5.831
 3655POPC   GL247582  26.352  32.570   5.805
 3655POPC   C1A47583  26.021  32.466   6.241
 3655POPC   D2A47584  25.959  32.260   6.629
 3655POPC   C3A47585  25.742  32.470   6.943
 3655POPC   C4A47586  25.700  32.288   7.336
 3655POPC   C1B47587  26.547  32.686   6.169
 3655POPC   C2B47588  26.444  32.605   6.581
 3655POPC   C3B47589  26.438  32.455   6.989
 3655POPC   C4B47590  26.147  32.157   7.127
 3656POPC   NC347591  15.093  37.140   5.391
 3656POPC   PO447592  15.189  36.449   5.387
 3656POPC   GL147593  15.360  36.679   5.772
 3656POPC   GL247594  15.269  37.019   5.864
 3656POPC   C1A47595  15.237  36.601   6.217
 3656POPC   D2A47596  15.038  36.522   6.642
 3656POPC   C3A47597  15.181  36.684   7.032
 3656POPC   C4A47598  15.244  36.838   7.440
 3656POPC   C1B47599  15.062  37.076   6.272
 3656POPC   C2B47600  15.128  37.056   6.719
 3656POPC   C3B47601  14.903  37.121   7.167
 3656POPC   C4B47602  14.971  37.195   7.671
 3657POPC   NC347603  18.063  18.880   5.498
 3657POPC   PO447604  18.449  19.425   5.401
 3657POPC   GL147605  18.379  19.247   5.845
 3657POPC   GL247606  18.083  19.058   5.990
 3657POPC   C1A47607  18.437  19.286   6.309
 3657POPC   D2A47608  18.566  18.980   6.629
 3657POPC   C3A47609  18.307  19.068   6.967
 3657POPC   C4A47610  18.430  19.204   7.333
 3657POPC   C1B47611  18.407  18.717   6.168
 3657POPC   C2B47612  18.536  18.452   6.556
 3657POPC   C3B47613  18.485  18.538   7.014
 3657POPC   C4B47614  18.178  18.720   7.335
 3658POPC   NC347615  38.903  43.483   5.386
 3658POPC   PO447616  39.375  43.061   5.593
 3658POPC   GL147617  39.149  43.233   5.887
 3658POPC   GL247618  39.239  43.605   5.878
 3658POPC   C1A47619  39.144  42.995   6.275
 3658POPC   D2A47620  39.361  42.691   6.550
 3658POPC   C3A47621  39.270  42.753   7.002
 3658POPC   C4A47622  39.495  42.876   7.378
 3658POPC   C1B47623  39.471  43.406   6.252
 3658POPC   C2B47624  39.469  43.189   6.649
 3658POPC   C3B47625  39.323  43.272   7.034
 3658POPC   C4B47626  39.122  43.622   7.179
 3659POPC   NC347627   7.756  30.460   5.470
 3659POPC   PO447628   7.313  30.942   5.592
 3659POPC   GL147629   7.657  30.833   5.859
 3659POPC   GL247630   7.556  30.494   5.930
 3659POPC   C1A47631   7.814  30.720   6.301
 3659POPC   D2A47632   7.776  30.753   6.783
 3659POPC   C3A47633   7.450  30.656   7.069
 3659POPC   C4A47634   7.227  30.933   7.353
 3659POPC   C1B47635   7.178  30.552   6.166
 3659POPC   C2B47636   7.197  30.496   6.611
 3659POPC   C3B47637   6.972  30.502   6.969
 3659POPC   C4B47638   7.089  30.448   7.391
 3660POPC   NC347639  29.088  30.105   5.510
 3660POPC   PO447640  28.962  29.467   5.478
 3660POPC   GL147641  29.100  29.712   5.879
 3660POPC   GL247642  29.328  30.012   5.940
 3660POPC   C1A47643  29.099  29.830   6.337
 3660POPC   D2A47644  29.352  29.916   6.681
 3660POPC   C3A47645  29.088  29.783   7.034
 3660POPC   C4A47646  29.119  29.953   7.454
 3660POPC   C1B47647  29.303  30.295   6.293
 3660POPC   C2B47648  29.140  30.413   6.687
 3660POPC   C3B47649  29.313  30.258   7.067
 3660POPC   C4B47650  29.431  30.356   7.475
 3661POPC   NC347651  18.856  10.010   5.293
 3661POPC   PO447652  19.317   9.579   5.253
 3661POPC   GL147653  19.209   9.763   5.674
 3661POPC   GL247654  19.006  10.066   5.801
 3661POPC   C1A47655  19.137   9.649   6.114
 3661POPC   D2A47656  19.049   9.877   6.486
 3661POPC   C3A47657  18.899   9.649   6.835
 3661POPC   C4A47658  19.092   9.651   7.230
 3661POPC   C1B47659  18.978  10.324   6.212
 3661POPC   C2B47660  18.954  10.385   6.683
 3661POPC   C3B47661  18.877  10.113   7.062
 3661POPC   C4B47662  18.623   9.910   7.387
 3662POPC   NC347663   9.365   5.167   5.472
 3662POPC   PO447664   8.788   5.437   5.540
 3662POPC   GL147665   8.960   5.071   5.823
 3662POPC   GL247666   9.258   4.825   5.830
 3662POPC   C1A47667   9.164   5.131   6.239
 3662POPC   D2A47668   9.067   5.324   6.614
 3662POPC   C3A47669   9.074   5.156   7.036
 3662POPC   C4A47670   8.996   5.050   7.472
 3662POPC   C1B47671   9.223   4.628   6.246
 3662POPC   C2B47672   9.292   4.813   6.676
 3662POPC   C3B47673   9.177   4.665   7.119
 3662POPC   C4B47674   8.873   4.569   7.485
 3663POPC   NC347675   5.258  39.168   5.266
 3663POPC   PO447676   5.918  39.049   5.384
 3663POPC   GL147677   5.908  39.164   5.765
 3663POPC   GL247678   5.558  39.133   5.754
 3663POPC   C1A47679   6.049  39.052   6.161
 3663POPC   D2A47680   5.918  39.237   6.543
 3663POPC   C3A47681   5.830  38.988   6.911
 3663POPC   C4A47682   5.906  39.230   7.260
 3663POPC   C1B47683   5.606  39.394   6.123
 3663POPC   C2B47684   5.562  39.616   6.513
 3663POPC   C3B47685   5.591  39.469   6.927
 3663POPC   C4B47686   5.455  39.413   7.365
 3664POPC   NC347687  17.170  21.124   5.482
 3664POPC   PO447688  17.354  21.805   5.401
 3664POPC   GL147689  17.414  21.550   5.775
 3664POPC   GL247690  17.700  21.346   5.646
 3664POPC   C1A47691  17.375  21.564   6.239
 3664POPC   D2A47692  17.443  21.716   6.689
 3664POPC   C3A47693  17.388  21.457   7.075
 3664POPC   C4A47694  17.351  21.482   7.541
 3664POPC   C1B47695  17.725  21.199   6.067
 3664POPC   C2B47696  17.671  21.233   6.520
 3664POPC   C3B47697  17.838  21.256   6.916
 3664POPC   C4B47698  17.814  21.351   7.344
 3665POPC   NC347699  35.437  28.805   5.481
 3665POPC   PO447700  35.137  29.420   5.432
 3665POPC   GL147701  35.161  29.142   5.766
 3665POPC   GL247702  35.515  29.221   5.804
 3665POPC   C1A47703  35.115  29.052   6.203
 3665POPC   D2A47704  35.175  28.898   6.623
 3665POPC   C3A47705  34.979  29.023   7.022
 3665POPC   C4A47706  35.243  29.131   7.380
 3665POPC   C1B47707  35.587  29.327   6.235
 3665POPC   C2B47708  35.578  29.286   6.653
 3665POPC   C3B47709  35.645  29.234   7.090
 3665POPC   C4B47710  35.675  29.399   7.522
 3666POPC   NC347711  38.320  42.696   5.587
 3666POPC   PO447712  38.592  43.188   5.157
 3666POPC   GL147713  38.622  43.179   5.674
 3666POPC   GL247714  38.717  43.501   5.880
 3666POPC   C1A47715  38.627  43.049   6.128
 3666POPC   D2A47716  38.272  42.905   6.417
 3666POPC   C3A47717  38.402  42.780   6.850
 3666POPC   C4A47718  38.389  42.989   7.260
 3666POPC   C1B47719  38.935  43.482   6.298
 3666POPC   C2B47720  38.939  43.221   6.686
 3666POPC   C3B47721  38.837  43.186   7.128
 3666POPC   C4B47722  38.785  43.376   7.562
 3667POPC   NC347723   8.472  31.219   5.672
 3667POPC   PO447724   8.677  31.838   5.447
 3667POPC   GL147725   8.861  31.597   5.808
 3667POPC   GL247726   8.677  31.479   6.085
 3667POPC   C1A47727   9.115  31.719   6.211
 3667POPC   D2A47728   9.123  31.503   6.619
 3667POPC   C3A47729   9.003  31.724   6.989
 3667POPC   C4A47730   9.149  31.631   7.382
 3667POPC   C1B47731   8.861  31.120   6.301
 3667POPC   C2B47732   9.038  30.970   6.706
 3667POPC   C3B47733   9.038  31.227   7.072
 3667POPC   C4B47734   8.926  31.188   7.504
 3668POPC   NC347735  20.213  33.965   5.510
 3668POPC   PO447736  19.774  33.515   5.496
 3668POPC   GL147737  19.941  33.707   5.878
 3668POPC   GL247738  19.828  34.049   5.854
 3668POPC   C1A47739  20.023  33.785   6.337
 3668POPC   D2A47740  20.225  33.706   6.755
 3668POPC   C3A47741  19.903  33.803   7.025
 3668POPC   C4A47742  19.553  33.528   7.130
 3668POPC   C1B47743  19.521  33.861   6.137
 3668POPC   C2B47744  19.513  33.717   6.551
 3668POPC   C3B47745  19.418  33.957   6.878
 3668POPC   C4B47746  19.511  34.096   7.210
 3669POPC   NC347747  17.320  43.363   5.370
 3669POPC   PO447748  17.645  42.790   5.547
 3669POPC   GL147749  17.384  43.088   5.800
 3669POPC   GL247750  17.573  43.421   5.804
 3669POPC   C1A47751  17.273  43.284   6.197
 3669POPC   D2A47752  17.476  43.405   6.588
 3669POPC   C3A47753  17.262  43.374   6.966
 3669POPC   C4A47754  17.426  43.067   7.239
 3669POPC   C1B47755  17.794  43.409   6.190
 3669POPC   C2B47756  17.965  43.207   6.573
 3669POPC   C3B47757  17.814  43.273   6.996
 3669POPC   C4B47758  17.895  43.500   7.384
 3670POPC   NC347759  27.926  36.864   5.539
 3670POPC   PO447760  27.267  37.076   5.417
 3670POPC   GL147761  27.459  36.865   5.779
 3670POPC   GL247762  27.680  37.067   5.947
 3670POPC   C1A47763  27.456  36.656   6.209
 3670POPC   D2A47764  27.630  36.470   6.617
 3670POPC   C3A47765  27.616  36.657   7.022
 3670POPC   C4A47766  27.219  36.801   7.163
 3670POPC   C1B47767  27.339  37.155   6.230
 3670POPC   C2B47768  27.337  37.009   6.652
 3670POPC   C3B47769  27.584  37.174   6.978
 3670POPC   C4B47770  27.651  37.282   7.388
 3671POPC   NC347771  38.454   5.377   5.496
 3671POPC   PO447772  38.116   4.791   5.584
 3671POPC   GL147773  38.349   5.090   5.920
 3671POPC   GL247774  38.524   5.464   5.982
 3671POPC   C1A47775  38.487   5.094   6.362
 3671POPC   D2A47776  38.756   5.203   6.704
 3671POPC   C3A47777  38.614   5.120   7.100
 3671POPC   C4A47778  38.267   4.907   7.274
 3671POPC   C1B47779  38.155   5.467   6.232
 3671POPC   C2B47780  38.072   5.234   6.627
 3671POPC   C3B47781  38.141   5.338   7.035
 3671POPC   C4B47782  38.430   5.575   7.225
 3672POPC   NC347783   2.958  36.838   5.034
 3672POPC   PO447784   2.606  36.967   5.555
 3672POPC   GL147785   2.693  36.901   5.940
 3672POPC   GL247786   2.681  36.533   5.872
 3672POPC   C1A47787   2.816  37.106   6.312
 3672POPC   D2A47788   2.695  37.214   6.729
 3672POPC   C3A47789   2.962  37.222   7.108
 3672POPC   C4A47790   2.859  37.202   7.551
 3672POPC   C1B47791   2.525  36.605   6.280
 3672POPC   C2B47792   2.778  36.704   6.619
 3672POPC   C3B47793   2.702  36.787   7.021
 3672POPC   C4B47794   2.907  36.684   7.356
 3673POPC   NC347795  20.766  30.491   5.261
 3673POPC   PO447796  20.345  30.996   5.461
 3673POPC   GL147797  20.535  30.665   5.694
 3673POPC   GL247798  20.888  30.770   5.703
 3673POPC   C1A47799  20.387  30.530   6.096
 3673POPC   D2A47800  20.304  30.848   6.386
 3673POPC   C3A47801  20.360  30.757   6.810
 3673POPC   C4A47802  20.483  31.058   7.162
 3673POPC   C1B47803  20.893  30.526   6.084
 3673POPC   C2B47804  20.756  30.620   6.510
 3673POPC   C3B47805  20.836  30.683   6.965
 3673POPC   C4B47806  20.921  30.428   7.321
 3674POPC   NC347807  24.885  32.019   5.417
 3674POPC   PO447808  24.373  32.381   5.427
 3674POPC   GL147809  24.565  32.221   5.808
 3674POPC   GL247810  24.909  32.318   5.849
 3674POPC   C1A47811  24.561  32.110   6.257
 3674POPC   D2A47812  24.509  31.924   6.668
 3674POPC   C3A47813  24.393  32.186   7.024
 3674POPC   C4A47814  24.132  32.080   7.388
 3674POPC   C1B47815  24.896  32.510   6.262
 3674POPC   C2B47816  24.814  32.342   6.682
 3674POPC   C3B47817  24.823  32.466   7.089
 3674POPC   C4B47818  24.611  32.745   7.233
 3675POPC   NC347819   9.575  12.952   5.415
 3675POPC   PO447820  10.166  12.527   5.537
 3675POPC   GL147821   9.814  12.608   5.831
 3675POPC   GL247822   9.848  12.935   5.869
 3675POPC   C1A47823   9.443  12.766   6.125
 3675POPC   D2A47824   9.401  12.933   6.563
 3675POPC   C3A47825   9.498  12.700   6.970
 3675POPC   C4A47826   9.384  12.733   7.423
 3675POPC   C1B47827   9.897  12.929   6.310
 3675POPC   C2B47828   9.914  12.874   6.734
 3675POPC   C3B47829   9.849  13.093   7.107
 3675POPC   C4B47830  10.142  12.841   7.301
 3676POPC   NC347831  31.971   4.813   5.696
 3676POPC   PO447832  32.097   4.230   5.460
 3676POPC   GL147833  32.205   4.375   5.879
 3676POPC   GL247834  32.490   4.614   5.853
 3676POPC   C1A47835  32.210   4.135   6.274
 3676POPC   D2A47836  32.377   4.101   6.698
 3676POPC   C3A47837  32.133   4.326   6.996
 3676POPC   C4A47838  32.020   3.953   7.156
 3676POPC   C1B47839  32.650   4.386   6.162
 3676POPC   C2B47840  32.466   4.557   6.504
 3676POPC   C3B47841  32.590   4.546   6.909
 3676POPC   C4B47842  32.541   4.724   7.286
 3677POPC   NC347843  16.716  27.687   5.468
 3677POPC   PO447844  17.179  27.198   5.584
 3677POPC   GL147845  16.894  27.248   5.916
 3677POPC   GL247846  16.915  27.603   5.913
 3677POPC   C1A47847  16.646  27.414   6.292
 3677POPC   D2A47848  16.736  27.669   6.658
 3677POPC   C3A47849  16.779  27.407   7.013
 3677POPC   C4A47850  16.722  27.500   7.399
 3677POPC   C1B47851  17.104  27.656   6.285
 3677POPC   C2B47852  17.135  28.043   6.539
 3677POPC   C3B47853  17.036  28.139   6.936
 3677POPC   C4B47854  17.098  27.802   7.213
 3678POPC   NC347855  16.266  21.549   5.447
 3678POPC   PO447856  16.709  21.042   5.375
 3678POPC   GL147857  16.720  21.381   5.665
 3678POPC   GL247858  16.442  21.249   5.818
 3678POPC   C1A47859  16.802  21.553   6.103
 3678POPC   D2A47860  16.966  21.369   6.496
 3678POPC   C3A47861  16.933  21.582   6.874
 3678POPC   C4A47862  16.917  21.508   7.282
 3678POPC   C1B47863  16.305  21.409   6.207
 3678POPC   C2B47864  16.468  21.491   6.602
 3678POPC   C3B47865  16.439  21.466   7.032
 3678POPC   C4B47866  16.485  21.734   7.391
 3679POPC   NC347867  24.555  27.900   5.546
 3679POPC   PO447868  24.775  27.235   5.446
 3679POPC   GL147869  24.514  27.247   5.846
 3679POPC   GL247870  24.416  27.599   5.941
 3679POPC   C1A47871  24.315  27.237   6.290
 3679POPC   D2A47872  24.484  27.254   6.707
 3679POPC   C3A47873  24.264  27.238   7.082
 3679POPC   C4A47874  24.469  27.309   7.497
 3679POPC   C1B47875  24.196  27.944   6.211
 3679POPC   C2B47876  24.360  28.109   6.580
 3679POPC   C3B47877  24.650  27.904   6.843
 3679POPC   C4B47878  24.496  27.678   7.152
 3680POPC   NC347879   3.972  40.887   5.618
 3680POPC   PO447880   3.508  40.503   5.293
 3680POPC   GL147881   3.515  40.665   5.768
 3680POPC   GL247882   3.555  41.001   5.890
 3680POPC   C1A47883   3.385  40.641   6.242
 3680POPC   D2A47884   3.165  40.805   6.637
 3680POPC   C3A47885   3.224  40.568   7.048
 3680POPC   C4A47886   3.364  40.618   7.491
 3680POPC   C1B47887   3.776  40.997   6.269
 3680POPC   C2B47888   3.734  40.768   6.659
 3680POPC   C3B47889   3.666  40.828   7.101
 3680POPC   C4B47890   3.668  41.025   7.499
 3681POPC   NC347891   6.005   4.660   5.493
 3681POPC   PO447892   5.666   5.255   5.375
 3681POPC   GL147893   5.986   5.215   5.696
 3681POPC   GL247894   5.787   5.433   5.868
 3681POPC   C1A47895   6.119   5.156   6.147
 3681POPC   D2A47896   6.288   4.870   6.476
 3681POPC   C3A47897   6.140   4.965   6.883
 3681POPC   C4A47898   6.220   5.283   7.175
 3681POPC   C1B47899   5.592   5.323   6.261
 3681POPC   C2B47900   5.626   5.499   6.672
 3681POPC   C3B47901   5.733   5.254   7.023
 3681POPC   C4B47902   5.698   4.781   7.043
 3682POPC   NC347903  34.668  26.080   5.192
 3682POPC   PO447904  35.275  25.977   5.443
 3682POPC   GL147905  35.298  26.196   5.847
 3682POPC   GL247906  35.585  26.435   5.940
 3682POPC   C1A47907  35.161  26.055   6.250
 3682POPC   D2A47908  35.297  25.855   6.638
 3682POPC   C3A47909  35.084  25.991   7.047
 3682POPC   C4A47910  35.095  25.765   7.441
 3682POPC   C1B47911  35.651  26.198   6.334
 3682POPC   C2B47912  35.796  26.267   6.767
 3682POPC   C3B47913  35.596  26.258   7.157
 3682POPC   C4B47914  35.462  26.617   7.406
 3683POPC   NC347915  29.759  32.822   5.473
 3683POPC   PO447916  30.297  33.224   5.561
 3683POPC   GL147917  30.062  33.001   5.848
 3683POPC   GL247918  29.707  33.156   5.860
 3683POPC   C1A47919  30.102  33.091   6.247
 3683POPC   D2A47920  29.872  33.133   6.575
 3683POPC   C3A47921  29.946  32.940   6.953
 3683POPC   C4A47922  29.800  33.199   7.237
 3683POPC   C1B47923  29.685  32.822   6.181
 3683POPC   C2B47924  29.721  32.642   6.579
 3683POPC   C3B47925  29.487  32.705   6.919
 3683POPC   C4B47926  29.403  32.894   7.295
 3684POPC   NC347927  10.781  27.138   5.344
 3684POPC   PO447928  10.327  26.703   5.369
 3684POPC   GL147929  10.314  27.016   5.714
 3684POPC   GL247930  10.667  27.096   5.858
 3684POPC   C1A47931  10.239  26.977   6.198
 3684POPC   D2A47932  10.401  26.896   6.654
 3684POPC   C3A47933  10.248  26.825   7.102
 3684POPC   C4A47934  10.331  26.765   7.582
 3684POPC   C1B47935  10.667  27.238   6.327
 3684POPC   C2B47936  10.799  27.188   6.768
 3684POPC   C3B47937  10.724  26.994   7.221
 3684POPC   C4B47938  10.755  27.125   7.648
 3685POPC   NC347939  43.484  26.146   5.486
 3685POPC   PO447940  44.157  26.210   5.610
 3685POPC   GL147941  43.848  26.003   5.864
 3685POPC   GL247942  43.642  26.321   5.930
 3685POPC   C1A47943  43.928  25.757   6.276
 3685POPC   D2A47944  43.714  25.660   6.682
 3685POPC   C3A47945  43.769  25.901   7.082
 3685POPC   C4A47946  43.724  25.858   7.556
 3685POPC   C1B47947  43.914  26.278   6.278
 3685POPC   C2B47948  43.755  26.193   6.649
 3685POPC   C3B47949  43.507  26.341   6.965
 3685POPC   C4B47950  43.688  26.336   7.373
 3686POPC   NC347951  43.553   4.102   5.328
 3686POPC   PO447952  44.105   4.452   5.457
 3686POPC   GL147953  44.076   4.288   5.861
 3686POPC   GL247954  43.793   4.090   5.796
 3686POPC   C1A47955  44.093   4.453   6.285
 3686POPC   D2A47956  43.943   4.241   6.633
 3686POPC   C3A47957  44.115   4.319   6.991
 3686POPC   C4A47958  44.143   4.670   7.200
 3686POPC   C1B47959  43.661   4.159   6.211
 3686POPC   C2B47960  43.443   4.140   6.633
 3686POPC   C3B47961  43.648   4.097   7.032
 3686POPC   C4B47962  43.780   4.353   7.386
 3687POPC   NC347963  16.579  10.368   5.246
 3687POPC   PO447964  16.635   9.710   5.395
 3687POPC   GL147965  16.807   9.598   5.794
 3687POPC   GL247966  16.558   9.345   5.812
 3687POPC   C1A47967  16.875   9.781   6.193
 3687POPC   D2A47968  16.685   9.737   6.597
 3687POPC   C3A47969  16.843   9.964   6.915
 3687POPC   C4A47970  17.061   9.775   7.213
 3687POPC   C1B47971  16.505   9.422   6.237
 3687POPC   C2B47972  16.589   9.228   6.641
 3687POPC   C3B47973  16.627   9.470   7.045
 3687POPC   C4B47974  16.352   9.512   7.392
 3688POPC   NC347975  42.334  32.513   5.149
 3688POPC   PO447976  42.518  33.164   5.434
 3688POPC   GL147977  42.227  33.172   5.788
 3688POPC   GL247978  42.451  33.131   6.016
 3688POPC   C1A47979  41.964  33.176   6.177
 3688POPC   D2A47980  41.742  33.258   6.559
 3688POPC   C3A47981  42.014  33.113   6.901
 3688POPC   C4A47982  42.161  33.086   7.331
 3688POPC   C1B47983  42.637  33.158   6.421
 3688POPC   C2B47984  42.541  33.092   6.857
 3688POPC   C3B47985  42.687  33.241   7.244
 3688POPC   C4B47986  42.642  33.047   7.672
 3689POPC   NC347987   2.337  15.355   5.097
 3689POPC   PO447988   1.899  15.584   5.532
 3689POPC   GL147989   1.898  15.392   5.896
 3689POPC   GL247990   1.846  15.071   5.899
 3689POPC   C1A47991   2.052  15.300   6.285
 3689POPC   D2A47992   2.142  15.036   6.581
 3689POPC   C3A47993   2.140  15.258   6.925
 3689POPC   C4A47994   1.892  15.217   7.273
 3689POPC   C1B47995   1.627  14.919   6.271
 3689POPC   C2B47996   1.406  14.844   6.670
 3689POPC   C3B47997   1.580  14.830   7.096
 3689POPC   C4B47998   1.801  14.740   7.499
 3690POPC   NC347999  16.380   0.040   5.364
 3690POPC   PO448000  16.955   0.468   5.400
 3690POPC   GL148001  16.635   0.399   5.731
 3690POPC   GL248002  16.734   0.700   5.881
 3690POPC   C1A48003  16.456   0.409   6.176
 3690POPC   D2A48004  16.719   0.409   6.534
 3690POPC   C3A48005  16.588   0.505   6.938
 3690POPC   C4A48006  16.614   0.327   7.338
 3690POPC   C1B48007  16.846   0.863   6.264
 3690POPC   C2B48008  16.995   0.816   6.669
 3690POPC   C3B48009  16.889   0.955   7.065
 3690POPC   C4B48010  16.991   0.674   7.358
 3691POPC   NC348011  11.980  31.032   5.323
 3691POPC   PO448012  12.372  30.512   5.524
 3691POPC   GL148013  12.246  30.864   5.769
 3691POPC   GL248014  11.944  30.693   5.798
 3691POPC   C1A48015  12.262  30.934   6.221
 3691POPC   D2A48016  12.113  30.799   6.618
 3691POPC   C3A48017  12.351  31.021   6.897
 3691POPC   C4A48018  12.345  30.900   7.300
 3691POPC   C1B48019  11.912  30.522   6.231
 3691POPC   C2B48020  11.745  30.434   6.644
 3691POPC   C3B48021  12.000  30.469   7.032
 3691POPC   C4B48022  12.131  30.405   7.480
 3692POPC   NC348023   4.651  43.224   5.388
 3692POPC   PO448024   5.203  42.891   5.346
 3692POPC   GL148025   4.966  42.966   5.727
 3692POPC   GL248026   5.040  43.297   5.759
 3692POPC   C1A48027   4.890  43.042   6.190
 3692POPC   D2A48028   4.888  43.210   6.610
 3692POPC   C3A48029   4.762  42.987   6.973
 3692POPC   C4A48030   5.080  43.011   7.289
 3692POPC   C1B48031   5.368  43.159   6.031
 3692POPC   C2B48032   5.386  43.155   6.474
 3692POPC   C3B48033   5.344  43.232   6.907
 3692POPC   C4B48034   5.534  43.277   7.308
 3693POPC   NC348035  13.413  21.651   5.316
 3693POPC   PO448036  13.565  21.023   5.338
 3693POPC   GL148037  13.513  21.310   5.734
 3693POPC   GL248038  13.822  21.480   5.884
 3693POPC   C1A48039  13.502  21.262   6.197
 3693POPC   D2A48040  13.748  21.159   6.557
 3693POPC   C3A48041  13.586  21.075   6.961
 3693POPC   C4A48042  13.332  21.307   7.262
 3693POPC   C1B48043  13.963  21.541   6.257
 3693POPC   C2B48044  13.776  21.668   6.628
 3693POPC   C3B48045  13.756  21.548   7.043
 3693POPC   C4B48046  13.912  21.707   7.426
 3694POPC   NC348047  10.795   1.840   5.439
 3694POPC   PO448048  10.170   1.854   5.650
 3694POPC   GL148049  10.339   1.990   5.973
 3694POPC   GL248050  10.639   2.073   5.875
 3694POPC   C1A48051  10.485   1.896   6.367
 3694POPC   D2A48052  10.344   1.577   6.646
 3694POPC   C3A48053  10.429   1.673   7.050
 3694POPC   C4A48054  10.399   2.096   7.192
 3694POPC   C1B48055  10.889   2.192   6.191
 3694POPC   C2B48056  10.794   2.323   6.577
 3694POPC   C3B48057  10.749   2.017   6.838
 3694POPC   C4B48058  10.901   2.024   7.241
 3695POPC   NC348059  19.360  25.596   5.458
 3695POPC   PO448060  18.906  25.048   5.445
 3695POPC   GL148061  19.098  25.277   5.766
 3695POPC   GL248062  18.889  25.497   5.859
 3695POPC   C1A48063  19.381  25.433   6.118
 3695POPC   D2A48064  19.307  25.587   6.536
 3695POPC   C3A48065  19.481  25.407   6.910
 3695POPC   C4A48066  19.382  25.161   7.301
 3695POPC   C1B48067  18.887  25.419   6.262
 3695POPC   C2B48068  18.788  25.548   6.633
 3695POPC   C3B48069  18.994  25.325   6.924
 3695POPC   C4B48070  18.897  25.257   7.311
 3696POPC   NC348071  29.007  41.118   5.472
 3696POPC   PO448072  29.414  41.700   5.488
 3696POPC   GL148073  29.221  41.569   5.828
 3696POPC   GL248074  28.913  41.731   5.929
 3696POPC   C1A48075  29.327  41.694   6.261
 3696POPC   D2A48076  29.369  41.360   6.539
 3696POPC   C3A48077  29.468  41.294   6.955
 3696POPC   C4A48078  29.343  41.568   7.253
 3696POPC   C1B48079  28.910  41.333   6.155
 3696POPC   C2B48080  28.835  41.184   6.543
 3696POPC   C3B48081  28.949  41.233   6.979
 3696POPC   C4B48082  28.827  41.525   7.298
 3697POPC   NC348083  29.306  20.012   5.441
 3697POPC   PO448084  28.672  19.691   5.618
 3697POPC   GL148085  29.021  19.833   5.814
 3697POPC   GL248086  28.849  20.084   5.860
 3697POPC   C1A48087  29.258  19.962   6.183
 3697POPC   D2A48088  29.320  19.733   6.570
 3697POPC   C3A48089  29.455  20.078   6.795
 3697POPC   C4A48090  29.344  20.166   7.230
 3697POPC   C1B48091  28.750  19.959   6.252
 3697POPC   C2B48092  28.956  20.111   6.597
 3697POPC   C3B48093  28.988  19.883   6.972
 3697POPC   C4B48094  28.864  20.011   7.356
 3698POPC   NC348095  21.279  10.090   5.497
 3698POPC   PO448096  21.618   9.455   5.345
 3698POPC   GL148097  21.426   9.656   5.731
 3698POPC   GL248098  21.113   9.516   5.797
 3698POPC   C1A48099  21.407   9.783   6.180
 3698POPC   D2A48100  21.701   9.947   6.494
 3698POPC   C3A48101  21.580   9.802   6.904
 3698POPC   C4A48102  21.498  10.032   7.293
 3698POPC   C1B48103  21.251   9.287   6.158
 3698POPC   C2B48104  21.225   9.410   6.569
 3698POPC   C3B48105  21.094   9.500   6.966
 3698POPC   C4B48106  21.354   9.507   7.283
 3699POPC   NC348107  20.274   4.965   5.450
 3699POPC   PO448108  19.648   5.042   5.205
 3699POPC   GL148109  19.831   5.040   5.665
 3699POPC   GL248110  19.686   5.290   5.842
 3699POPC   C1A48111  19.991   4.857   6.057
 3699POPC   D2A48112  20.046   4.932   6.506
 3699POPC   C3A48113  19.678   4.875   6.770
 3699POPC   C4A48114  19.599   4.922   7.206
 3699POPC   C1B48115  19.935   5.348   6.190
 3699POPC   C2B48116  19.815   5.383   6.611
 3699POPC   C3B48117  19.974   5.231   6.986
 3699POPC   C4B48118  19.865   5.348   7.390
 3700POPC   NC348119   3.392  28.514   5.055
 3700POPC   PO448120   3.766  28.624   5.637
 3700POPC   GL148121   3.595  28.247   5.831
 3700POPC   GL248122   3.664  28.436   6.128
 3700POPC   C1A48123   3.257  28.133   6.153
 3700POPC   D2A48124   3.305  28.377   6.546
 3700POPC   C3A48125   3.461  28.177   6.925
 3700POPC   C4A48126   3.388  28.036   7.370
 3700POPC   C1B48127   3.794  28.843   6.296
 3700POPC   C2B48128   3.759  28.833   6.716
 3700POPC   C3B48129   3.769  28.564   7.051
 3700POPC   C4B48130   3.755  28.569   7.473
 3701POPC   NC348131  24.540  18.846   5.441
 3701POPC   PO448132  24.171  19.362   5.629
 3701POPC   GL148133  24.395  19.074   5.919
 3701POPC   GL248134  24.772  19.011   5.880
 3701POPC   C1A48135  24.484  19.051   6.385
 3701POPC   D2A48136  24.760  18.960   6.758
 3701POPC   C3A48137  24.485  18.888   7.134
 3701POPC   C4A48138  24.091  19.120   7.257
 3701POPC   C1B48139  24.929  19.255   6.254
 3701POPC   C2B48140  24.724  19.470   6.612
 3701POPC   C3B48141  24.493  19.361   6.978
 3701POPC   C4B48142  24.546  19.341   7.435
 3702POPC   NC348143  12.153   4.000   5.659
 3702POPC   PO448144  11.770   3.490   5.416
 3702POPC   GL148145  11.908   3.561   5.841
 3702POPC   GL248146  12.267   3.538   5.835
 3702POPC   C1A48147  11.808   3.679   6.280
 3702POPC   D2A48148  11.777   3.480   6.694
 3702POPC   C3A48149  11.911   3.696   7.055
 3702POPC   C4A48150  11.875   3.520   7.496
 3702POPC   C1B48151  12.313   3.778   6.231
 3702POPC   C2B48152  12.224   3.726   6.625
 3702POPC   C3B48153  12.458   3.689   6.951
 3702POPC   C4B48154  12.352   3.767   7.335
 3703POPC   NC348155   7.048  17.421   5.615
 3703POPC   PO448156   6.518  17.880   5.546
 3703POPC   GL148157   6.567  17.632   5.902
 3703POPC   GL248158   6.584  17.280   5.900
 3703POPC   C1A48159   6.842  17.626   6.236
 3703POPC   D2A48160   6.963  17.820   6.585
 3703POPC   C3A48161   6.874  17.592   6.976
 3703POPC   C4A48162   6.837  17.843   7.310
 3703POPC   C1B48163   6.419  17.330   6.304
 3703POPC   C2B48164   6.487  17.645   6.631
 3703POPC   C3B48165   6.358  17.677   7.066
 3703POPC   C4B48166   6.244  17.282   7.170
 3704POPC   NC348167   8.563   5.049   5.420
 3704POPC   PO448168   7.954   4.974   5.242
 3704POPC   GL148169   8.112   5.047   5.713
 3704POPC   GL248170   8.448   5.034   5.917
 3704POPC   C1A48171   7.997   4.974   6.166
 3704POPC   D2A48172   8.197   4.804   6.536
 3704POPC   C3A48173   8.209   5.017   6.937
 3704POPC   C4A48174   7.980   5.058   7.303
 3704POPC   C1B48175   8.716   4.840   6.250
 3704POPC   C2B48176   8.780   4.874   6.698
 3704POPC   C3B48177   8.664   4.855   7.115
 3704POPC   C4B48178   8.483   5.041   7.483
 3705POPC   NC348179  28.033   4.246   5.312
 3705POPC   PO448180  28.609   4.655   5.359
 3705POPC   GL148181  28.510   4.426   5.760
 3705POPC   GL248182  28.667   4.117   5.890
 3705POPC   C1A48183  28.409   4.382   6.216
 3705POPC   D2A48184  28.550   4.286   6.614
 3705POPC   C3A48185  28.198   4.359   6.858
 3705POPC   C4A48186  28.180   4.586   7.221
 3705POPC   C1B48187  28.632   3.880   6.298
 3705POPC   C2B48188  28.638   3.804   6.750
 3705POPC   C3B48189  28.547   4.103   7.118
 3705POPC   C4B48190  28.555   4.038   7.594
 3706POPC   NC348191  33.361  40.875   5.410
 3706POPC   PO448192  33.982  40.571   5.466
 3706POPC   GL148193  33.758  40.615   5.822
 3706POPC   GL248194  33.693  40.966   5.844
 3706POPC   C1A48195  33.922  40.622   6.233
 3706POPC   D2A48196  33.756  40.786   6.620
 3706POPC   C3A48197  33.990  40.762   6.970
 3706POPC   C4A48198  33.880  40.602   7.340
 3706POPC   C1B48199  33.826  41.139   6.259
 3706POPC   C2B48200  34.104  41.272   6.587
 3706POPC   C3B48201  33.884  41.258   6.986
 3706POPC   C4B48202  33.572  40.979   7.174
 3707POPC   NC348203  44.418  43.639   5.364
 3707POPC   PO448204   0.075  43.681   5.512
 3707POPC   GL148205  44.741  43.832   5.776
 3707POPC   GL248206  44.598  44.188   5.763
 3707POPC   C1A48207  44.645  43.705   6.208
 3707POPC   D2A48208  44.827  43.525   6.578
 3707POPC   C3A48209  44.720  43.758   6.916
 3707POPC   C4A48210  44.944  43.864   7.305
 3707POPC   C1B48211  44.867  44.177   6.122
 3707POPC   C2B48212  44.792  44.313   6.524
 3707POPC   C3B48213  44.833  44.244   6.965
 3707POPC   C4B48214  44.619  44.272   7.357
 3708POPC   NC348215  26.393  36.369   5.394
 3708POPC   PO448216  25.742  36.588   5.628
 3708POPC   GL148217  26.058  36.305   5.814
 3708POPC   GL248218  26.340  36.045   5.795
 3708POPC   C1A48219  25.991  36.078   6.190
 3708POPC   D2A48220  25.692  36.056   6.532
 3708POPC   C3A48221  25.907  35.974   6.911
 3708POPC   C4A48222  25.676  35.930   7.290
 3708POPC   C1B48223  26.449  36.316   6.178
 3708POPC   C2B48224  26.261  36.313   6.614
 3708POPC   C3B48225  26.450  36.218   7.028
 3708POPC   C4B48226  26.509  36.357   7.462
 3709POPC   NC348227  13.032   5.467   5.631
 3709POPC   PO448228  12.855   4.807   5.471
 3709POPC   GL148229  12.635   5.076   5.781
 3709POPC   GL248230  12.581   4.746   5.944
 3709POPC   C1A48231  12.600   5.357   6.186
 3709POPC   D2A48232  12.562   5.267   6.632
 3709POPC   C3A48233  12.832   5.523   6.912
 3709POPC   C4A48234  12.921   5.412   7.348
 3709POPC   C1B48235  12.929   4.963   6.183
 3709POPC   C2B48236  13.057   5.109   6.588
 3709POPC   C3B48237  12.909   5.027   7.008
 3709POPC   C4B48238  13.057   4.934   7.418
 3710POPC   NC348239  15.319  42.082   5.356
 3710POPC   PO448240  14.863  42.498   5.619
 3710POPC   GL148241  15.217  42.334   5.827
 3710POPC   GL248242  14.980  42.095   5.923
 3710POPC   C1A48243  15.468  42.308   6.224
 3710POPC   D2A48244  15.364  42.516   6.632
 3710POPC   C3A48245  15.474  42.402   7.064
 3710POPC   C4A48246  15.240  42.642   7.395
 3710POPC   C1B48247  14.954  42.344   6.291
 3710POPC   C2B48248  14.835  42.590   6.635
 3710POPC   C3B48249  14.946  42.487   7.026
 3710POPC   C4B48250  15.070  42.102   7.204
 3711POPC   NC348251   1.578  28.932   5.487
 3711POPC   PO448252   2.130  29.267   5.353
 3711POPC   GL148253   2.115  29.007   5.703
 3711POPC   GL248254   2.466  28.979   5.720
 3711POPC   C1A48255   1.936  29.007   6.131
 3711POPC   D2A48256   1.810  29.053   6.580
 3711POPC   C3A48257   2.066  29.099   6.949
 3711POPC   C4A48258   2.088  29.206   7.395
 3711POPC   C1B48259   2.378  28.763   6.113
 3711POPC   C2B48260   2.116  28.653   6.465
 3711POPC   C3B48261   2.293  28.643   6.879
 3711POPC   C4B48262   2.393  28.782   7.273
 3712POPC   NC348263  17.311  15.435   5.600
 3712POPC   PO448264  17.785  15.086   5.361
 3712POPC   GL148265  17.653  15.162   5.829
 3712POPC   GL248266  17.331  15.090   6.036
 3712POPC   C1A48267  17.744  15.285   6.247
 3712POPC   D2A48268  17.534  15.175   6.644
 3712POPC   C3A48269  17.738  15.218   7.059
 3712POPC   C4A48270  17.726  14.947   7.407
 3712POPC   C1B48271  17.142  15.426   6.278
 3712POPC   C2B48272  17.080  15.559   6.703
 3712POPC   C3B48273  17.231  15.504   7.124
 3712POPC   C4B48274  17.446  15.364   7.488
 3713POPC   NC348275  42.572  23.148   5.595
 3713POPC   PO448276  42.104  22.615   5.383
 3713POPC   GL148277  42.224  22.813   5.771
 3713POPC   GL248278  42.573  22.667   5.791
 3713POPC   C1A48279  42.136  23.052   6.177
 3713POPC   D2A48280  42.146  22.886   6.607
 3713POPC   C3A48281  42.128  23.097   6.979
 3713POPC   C4A48282  42.518  23.162   7.076
 3713POPC   C1B48283  42.429  22.634   6.239
 3713POPC   C2B48284  42.400  22.428   6.677
 3713POPC   C3B48285  42.441  22.531   7.126
 3713POPC   C4B48286  42.430  22.598   7.593
 3714POPC   NC348287  36.000  22.303   5.381
 3714POPC   PO448288  36.477  21.789   5.409
 3714POPC   GL148289  36.369  21.957   5.819
 3714POPC   GL248290  36.380  22.299   5.705
 3714POPC   C1A48291  36.073  21.839   6.188
 3714POPC   D2A48292  35.973  21.648   6.610
 3714POPC   C3A48293  36.057  21.914   6.966
 3714POPC   C4A48294  35.857  22.075   7.333
 3714POPC   C1B48295  36.155  22.348   6.106
 3714POPC   C2B48296  36.248  22.176   6.533
 3714POPC   C3B48297  36.420  22.350   6.904
 3714POPC   C4B48298  36.276  22.455   7.300
 3715POPC   NC348299  43.683  43.775   5.541
 3715POPC   PO448300  44.274  44.070   5.390
 3715POPC   GL148301  44.061  43.992   5.792
 3715POPC   GL248302  44.249  43.788   5.857
 3715POPC   C1A48303  43.935  43.759   6.238
 3715POPC   D2A48304  44.083  43.662   6.683
 3715POPC   C3A48305  43.825  43.812   7.019
 3715POPC   C4A48306  43.654  44.076   7.328
 3715POPC   C1B48307  44.340  44.117   6.205
 3715POPC   C2B48308  44.389  44.061   6.649
 3715POPC   C3B48309  44.297  44.006   7.068
 3715POPC   C4B48310  44.137  44.080   7.461
 3716POPC   NC348311  39.837  16.434   5.546
 3716POPC   PO448312  40.310  16.889   5.321
 3716POPC   GL148313  40.109  16.879   5.762
 3716POPC   GL248314  40.124  16.571   5.956
 3716POPC   C1A48315  39.884  16.979   6.161
 3716POPC   D2A48316  39.998  17.010   6.593
 3716POPC   C3A48317  39.695  16.939   6.928
 3716POPC   C4A48318  39.859  16.864   7.307
 3716POPC   C1B48319  40.063  16.445   6.382
 3716POPC   C2B48320  40.010  16.530   6.839
 3716POPC   C3B48321  40.054  16.368   7.250
 3716POPC   C4B48322  40.307  16.338   7.626
 3717POPC   NC348323  37.632  35.486   5.275
 3717POPC   PO448324  37.852  35.929   5.599
 3717POPC   GL148325  37.647  35.600   5.824
 3717POPC   GL248326  37.691  35.230   5.714
 3717POPC   C1A48327  37.589  35.550   6.267
 3717POPC   D2A48328  37.886  35.503   6.603
 3717POPC   C3A48329  37.871  35.739   6.992
 3717POPC   C4A48330  37.669  35.582   7.358
 3717POPC   C1B48331  37.749  35.077   6.136
 3717POPC   C2B48332  37.842  34.973   6.569
 3717POPC   C3B48333  37.704  35.111   6.982
 3717POPC   C4B48334  37.562  35.079   7.412
 3718POPC   NC348335   0.083   7.195   5.599
 3718POPC   PO448336   0.171   6.503   5.372
 3718POPC   GL148337   0.290   6.668   5.787
 3718POPC   GL248338   0.651   6.633   5.820
 3718POPC   C1A48339   0.362   6.512   6.203
 3718POPC   D2A48340   0.665   6.406   6.478
 3718POPC   C3A48341   0.506   6.593   6.824
 3718POPC   C4A48342   0.586   6.420   7.208
 3718POPC   C1B48343   0.810   6.826   6.228
 3718POPC   C2B48344   0.985   6.764   6.642
 3718POPC   C3B48345   0.908   6.789   7.060
 3718POPC   C4B48346   0.510   6.950   7.218
 3719POPC   NC348347   0.029   0.711   5.599
 3719POPC   PO448348   0.456   0.249   5.317
 3719POPC   GL148349   0.473   0.464   5.786
 3719POPC   GL248350   0.790   0.559   5.991
 3719POPC   C1A48351   0.301   0.599   6.228
 3719POPC   D2A48352   0.120   0.736   6.648
 3719POPC   C3A48353   0.314   0.608   7.048
 3719POPC   C4A48354   0.271   0.442   7.456
 3719POPC   C1B48355   0.688   0.234   6.262
 3719POPC   C2B48356   0.664   0.385   6.665
 3719POPC   C3B48357   0.793   0.701   6.932
 3719POPC   C4B48358   0.771   0.455   7.307
 3720POPC   NC348359  16.302  37.256   5.430
 3720POPC   PO448360  15.635  37.038   5.459
 3720POPC   GL148361  15.781  37.054   5.846
 3720POPC   GL248362  16.101  36.954   5.783
 3720POPC   C1A48363  15.731  36.742   6.184
 3720POPC   D2A48364  15.570  36.602   6.615
 3720POPC   C3A48365  15.656  36.888   6.981
 3720POPC   C4A48366  15.745  37.045   7.411
 3720POPC   C1B48367  16.208  36.976   6.199
 3720POPC   C2B48368  16.058  36.811   6.575
 3720POPC   C3B48369  16.187  36.892   6.961
 3720POPC   C4B48370  16.213  37.176   7.309
 3721POPC   NC348371   7.433  42.921   5.595
 3721POPC   PO448372   7.626  43.537   5.505
 3721POPC   GL148373   7.439  43.360   5.877
 3721POPC   GL248374   7.700  43.117   5.963
 3721POPC   C1A48375   7.348  43.266   6.305
 3721POPC   D2A48376   7.225  43.062   6.701
 3721POPC   C3A48377   7.421  43.303   7.054
 3721POPC   C4A48378   7.658  43.282   7.451
 3721POPC   C1B48379   7.624  42.827   6.305
 3721POPC   C2B48380   7.841  42.828   6.685
 3721POPC   C3B48381   7.775  42.914   7.099
 3721POPC   C4B48382   7.860  42.789   7.522
 3722POPC   NC348383   6.321  12.396   5.468
 3722POPC   PO448384   6.840  12.329   5.113
 3722POPC   GL148385   6.815  12.280   5.635
 3722POPC   GL248386   6.774  11.959   5.847
 3722POPC   C1A48387   6.771  12.387   6.121
 3722POPC   D2A48388   6.563  12.438   6.569
 3722POPC   C3A48389   6.817  12.391   6.987
 3722POPC   C4A48390   6.892  12.192   7.419
 3722POPC   C1B48391   6.558  11.966   6.297
 3722POPC   C2B48392   6.615  11.724   6.686
 3722POPC   C3B48393   6.619  11.892   7.101
 3722POPC   C4B48394   6.378  12.263   7.251
 3723POPC   NC348395  35.973  23.407   5.187
 3723POPC   PO448396  36.350  23.925   5.404
 3723POPC   GL148397  36.076  23.737   5.672
 3723POPC   GL248398  36.377  23.684   5.856
 3723POPC   C1A48399  35.936  23.684   6.121
 3723POPC   D2A48400  35.755  23.534   6.506
 3723POPC   C3A48401  35.912  23.616   6.923
 3723POPC   C4A48402  35.840  23.985   7.185
 3723POPC   C1B48403  36.430  23.553   6.240
 3723POPC   C2B48404  36.317  23.760   6.569
 3723POPC   C3B48405  36.562  23.830   6.890
 3723POPC   C4B48406  36.319  23.775   7.225
 3724POPC   NC348407  30.813   5.999   5.335
 3724POPC   PO448408  30.615   5.479   5.705
 3724POPC   GL148409  30.615   5.902   5.827
 3724POPC   GL248410  30.925   5.940   5.837
 3724POPC   C1A48411  30.679   6.068   6.248
 3724POPC   D2A48412  30.499   6.129   6.653
 3724POPC   C3A48413  30.761   6.078   7.020
 3724POPC   C4A48414  30.567   5.875   7.388
 3724POPC   C1B48415  30.928   5.630   6.233
 3724POPC   C2B48416  30.964   5.722   6.675
 3724POPC   C3B48417  30.966   5.613   7.123
 3724POPC   C4B48418  31.071   5.920   7.436
 3725POPC   NC348419  15.289  26.507   5.463
 3725POPC   PO448420  15.303  27.185   5.409
 3725POPC   GL148421  15.357  26.932   5.773
 3725POPC   GL248422  15.093  26.687   5.892
 3725POPC   C1A48423  15.398  26.924   6.221
 3725POPC   D2A48424  15.164  27.099   6.572
 3725POPC   C3A48425  15.178  26.757   6.858
 3725POPC   C4A48426  15.394  26.547   7.215
 3725POPC   C1B48427  14.924  26.711   6.323
 3725POPC   C2B48428  14.645  26.947   6.622
 3725POPC   C3B48429  14.689  26.972   7.068
 3725POPC   C4B48430  15.052  26.995   7.301
 3726POPC   NC348431  19.436  12.255   5.199
 3726POPC   PO448432  19.971  12.014   5.485
 3726POPC   GL148433  19.895  11.953   5.881
 3726POPC   GL248434  19.541  11.935   5.872
 3726POPC   C1A48435  19.951  12.125   6.281
 3726POPC   D2A48436  20.233  12.145   6.640
 3726POPC   C3A48437  20.003  12.179   7.000
 3726POPC   C4A48438  20.143  11.922   7.314
 3726POPC   C1B48439  19.435  12.149   6.237
 3726POPC   C2B48440  19.564  12.305   6.638
 3726POPC   C3B48441  19.443  12.329   7.058
 3726POPC   C4B48442  19.688  12.188   7.419
 3727POPC   NC348443  21.453   3.639   5.387
 3727POPC   PO448444  20.997   4.055   5.451
 3727POPC   GL148445  21.221   3.847   5.819
 3727POPC   GL248446  21.598   3.835   5.830
 3727POPC   C1A48447  21.375   3.870   6.282
 3727POPC   D2A48448  21.082   3.689   6.556
 3727POPC   C3A48449  21.154   3.396   6.880
 3727POPC   C4A48450  21.271   3.518   7.244
 3727POPC   C1B48451  21.418   3.426   6.041
 3727POPC   C2B48452  21.492   3.383   6.500
 3727POPC   C3B48453  21.524   3.745   6.823
 3727POPC   C4B48454  21.733   3.780   7.220
 3728POPC   NC348455  13.315  29.869   5.402
 3728POPC   PO448456  12.785  30.236   5.186
 3728POPC   GL148457  12.837  29.983   5.599
 3728POPC   GL248458  13.112  29.999   5.860
 3728POPC   C1A48459  12.649  29.942   6.059
 3728POPC   D2A48460  12.667  30.029   6.536
 3728POPC   C3A48461  12.680  29.683   6.877
 3728POPC   C4A48462  12.629  29.757   7.326
 3728POPC   C1B48463  13.069  30.252   6.260
 3728POPC   C2B48464  13.016  30.405   6.694
 3728POPC   C3B48465  12.834  30.158   7.040
 3728POPC   C4B48466  12.961  30.112   7.464
 3729POPC   NC348467  44.978  22.598   5.109
 3729POPC   PO448468  44.470  22.858   5.380
 3729POPC   GL148469  44.519  22.781   5.834
 3729POPC   GL248470  44.340  22.442   5.885
 3729POPC   C1A48471  44.571  23.062   6.227
 3729POPC   D2A48472  44.668  23.234   6.653
 3729POPC   C3A48473  44.589  23.040   7.024
 3729POPC   C4A48474  44.940  22.967   7.298
 3729POPC   C1B48475  44.500  22.512   6.292
 3729POPC   C2B48476  44.684  22.578   6.721
 3729POPC   C3B48477  44.661  22.536   7.167
 3729POPC   C4B48478  44.635  22.686   7.577
 3730POPC   NC348479  40.240  18.139   5.326
 3730POPC   PO448480  39.710  17.673   5.290
 3730POPC   GL148481  39.762  17.882   5.723
 3730POPC   GL248482  39.858  18.244   5.723
 3730POPC   C1A48483  40.002  17.999   6.147
 3730POPC   D2A48484  39.844  18.231   6.535
 3730POPC   C3A48485  39.963  18.118   6.942
 3730POPC   C4A48486  40.302  18.124   7.236
 3730POPC   C1B48487  40.126  18.490   6.038
 3730POPC   C2B48488  40.240  18.553   6.480
 3730POPC   C3B48489  40.236  18.577   6.930
 3730POPC   C4B48490  39.877  18.741   7.140
 3731POPC   NC348491  30.595  36.532   5.622
 3731POPC   PO448492  30.352  35.928   5.322
 3731POPC   GL148493  30.419  36.083   5.788
 3731POPC   GL248494  30.799  36.126   5.855
 3731POPC   C1A48495  30.470  35.984   6.222
 3731POPC   D2A48496  30.488  36.265   6.551
 3731POPC   C3A48497  30.558  36.065   6.902
 3731POPC   C4A48498  30.588  36.020   7.325
 3731POPC   C1B48499  30.966  36.200   6.276
 3731POPC   C2B48500  31.043  36.105   6.701
 3731POPC   C3B48501  30.975  36.284   7.081
 3731POPC   C4B48502  31.228  36.528   7.338
 3732POPC   NC348503  20.026  34.758   5.367
 3732POPC   PO448504  19.353  34.678   5.538
 3732POPC   GL148505  19.718  34.825   5.770
 3732POPC   GL248506  19.970  34.551   5.840
 3732POPC   C1A48507  19.873  34.979   6.160
 3732POPC   D2A48508  19.912  34.727   6.547
 3732POPC   C3A48509  19.876  34.842   6.978
 3732POPC   C4A48510  20.071  34.733   7.420
 3732POPC   C1B48511  20.018  34.312   6.243
 3732POPC   C2B48512  19.813  34.215   6.657
 3732POPC   C3B48513  19.946  34.328   7.095
 3732POPC   C4B48514  20.188  34.210   7.482
 3733POPC   NC348515  10.603   6.855   5.106
 3733POPC   PO448516  10.155   6.528   5.541
 3733POPC   GL148517  10.343   6.666   5.921
 3733POPC   GL248518  10.706   6.618   5.805
 3733POPC   C1A48519  10.354   6.659   6.383
 3733POPC   D2A48520  10.300   6.508   6.794
 3733POPC   C3A48521  10.599   6.561   7.061
 3733POPC   C4A48522  10.396   6.827   7.321
 3733POPC   C1B48523  10.764   6.887   6.180
 3733POPC   C2B48524  10.789   6.820   6.626
 3733POPC   C3B48525  10.799   7.023   7.025
 3733POPC   C4B48526  10.864   7.102   7.460
 3734POPC   NC348527  12.748  22.394   5.395
 3734POPC   PO448528  12.707  23.144   5.383
 3734POPC   GL148529  12.910  22.992   5.748
 3734POPC   GL248530  13.201  22.765   5.743
 3734POPC   C1A48531  12.999  23.075   6.176
 3734POPC   D2A48532  12.899  22.862   6.557
 3734POPC   C3A48533  12.889  23.030   6.958
 3734POPC   C4A48534  12.717  22.966   7.359
 3734POPC   C1B48535  13.207  22.596   6.205
 3734POPC   C2B48536  13.371  22.626   6.632
 3734POPC   C3B48537  13.241  22.568   7.066
 3734POPC   C4B48538  13.255  22.285   7.399
 3735POPC   NC348539   7.560  41.930   5.544
 3735POPC   PO448540   7.508  42.562   5.316
 3735POPC   GL148541   7.294  42.392   5.697
 3735POPC   GL248542   7.064  42.643   5.818
 3735POPC   C1A48543   7.376  42.371   6.162
 3735POPC   D2A48544   7.709  42.345   6.521
 3735POPC   C3A48545   7.635  42.132   6.944
 3735POPC   C4A48546   7.829  42.204   7.342
 3735POPC   C1B48547   7.076  42.796   6.228
 3735POPC   C2B48548   7.099  42.555   6.576
 3735POPC   C3B48549   7.399  42.604   6.884
 3735POPC   C4B48550   7.475  42.547   7.295
 3736POPC   NC348551  25.100  34.326   5.502
 3736POPC   PO448552  25.060  34.959   5.509
 3736POPC   GL148553  25.407  34.737   5.726
 3736POPC   GL248554  25.548  34.382   5.776
 3736POPC   C1A48555  25.431  34.721   6.159
 3736POPC   D2A48556  25.111  34.701   6.450
 3736POPC   C3A48557  25.232  34.696   6.883
 3736POPC   C4A48558  25.529  34.646   7.174
 3736POPC   C1B48559  25.295  34.230   6.131
 3736POPC   C2B48560  25.258  34.213   6.564
 3736POPC   C3B48561  25.149  34.202   6.975
 3736POPC   C4B48562  25.424  34.139   7.305
 3737POPC   NC348563  16.395  20.876   5.081
 3737POPC   PO448564  16.636  20.386   5.508
 3737POPC   GL148565  16.772  20.551   5.884
 3737POPC   GL248566  16.861  20.900   5.844
 3737POPC   C1A48567  16.588  20.526   6.283
 3737POPC   D2A48568  16.785  20.481   6.662
 3737POPC   C3A48569  16.569  20.623   7.011
 3737POPC   C4A48570  16.938  20.593   7.216
 3737POPC   C1B48571  16.664  21.038   6.212
 3737POPC   C2B48572  16.571  20.981   6.621
 3737POPC   C3B48573  16.846  21.068   6.936
 3737POPC   C4B48574  16.649  21.067   7.277
 3738POPC   NC348575  36.368  26.425   5.391
 3738POPC   PO448576  36.262  25.821   5.407
 3738POPC   GL148577  36.023  25.906   5.789
 3738POPC   GL248578  36.058  26.242   5.857
 3738POPC   C1A48579  36.074  25.910   6.261
 3738POPC   D2A48580  35.852  25.782   6.653
 3738POPC   C3A48581  36.071  25.719   7.008
 3738POPC   C4A48582  36.018  25.985   7.329
 3738POPC   C1B48583  36.092  26.456   6.286
 3738POPC   C2B48584  36.265  26.470   6.722
 3738POPC   C3B48585  36.129  26.472   7.177
 3738POPC   C4B48586  36.304  26.481   7.600
 3739POPC   NC348587  24.049   7.305   5.343
 3739POPC   PO448588  24.605   7.725   5.370
 3739POPC   GL148589  24.409   7.502   5.697
 3739POPC   GL248590  24.079   7.629   5.757
 3739POPC   C1A48591  24.472   7.435   6.150
 3739POPC   D2A48592  24.698   7.244   6.515
 3739POPC   C3A48593  24.496   7.035   6.867
 3739POPC   C4A48594  24.412   7.236   7.237
 3739POPC   C1B48595  24.031   7.716   6.198
 3739POPC   C2B48596  24.264   7.876   6.548
 3739POPC   C3B48597  24.326   7.698   6.963
 3739POPC   C4B48598  24.050   7.570   7.316
 3740POPC   NC348599  37.594   0.520   5.067
 3740POPC   PO448600  37.932   0.200   5.562
 3740POPC   GL148601  37.694   0.446   5.862
 3740POPC   GL248602  37.893   0.737   5.997
 3740POPC   C1A48603  37.450   0.633   6.218
 3740POPC   D2A48604  37.423   0.410   6.608
 3740POPC   C3A48605  37.649   0.517   7.000
 3740POPC   C4A48606  37.411   0.429   7.341
 3740POPC   C1B48607  37.898   0.395   6.321
 3740POPC   C2B48608  37.973   0.228   6.705
 3740POPC   C3B48609  38.179   0.365   7.029
 3740POPC   C4B48610  38.109   0.771   7.214
 3741POPC   NC348611  12.189  16.095   5.544
 3741POPC   PO448612  12.215  15.448   5.318
 3741POPC   GL148613  12.221  15.578   5.774
 3741POPC   GL248614  12.071  15.875   5.963
 3741POPC   C1A48615  12.255  15.505   6.237
 3741POPC   D2A48616  12.225  15.853   6.531
 3741POPC   C3A48617  12.177  15.676   6.939
 3741POPC   C4A48618  12.113  15.855   7.321
 3741POPC   C1B48619  12.299  16.241   6.168
 3741POPC   C2B48620  12.304  16.412   6.568
 3741POPC   C3B48621  12.237  16.207   6.946
 3741POPC   C4B48622  12.212  16.359   7.360
 3742POPC   NC348623  31.835   5.117   5.214
 3742POPC   PO448624  32.389   5.017   5.564
 3742POPC   GL148625  32.244   5.195   5.899
 3742POPC   GL248626  31.936   5.323   5.695
 3742POPC   C1A48627  32.236   5.029   6.347
 3742POPC   D2A48628  31.996   4.767   6.673
 3742POPC   C3A48629  32.116   4.905   7.079
 3742POPC   C4A48630  32.472   5.219   7.197
 3742POPC   C1B48631  31.917   5.502   6.105
 3742POPC   C2B48632  31.994   5.522   6.534
 3742POPC   C3B48633  32.073   5.410   6.948
 3742POPC   C4B48634  32.074   5.636   7.336
 3743POPC   NC348635  10.267  17.757   5.382
 3743POPC   PO448636  10.596  17.186   5.388
 3743POPC   GL148637  10.525  17.457   5.726
 3743POPC   GL248638  10.828  17.579   5.780
 3743POPC   C1A48639  10.458  17.680   6.136
 3743POPC   D2A48640  10.262  17.777   6.546
 3743POPC   C3A48641  10.434  17.717   6.965
 3743POPC   C4A48642  10.124  17.449   7.148
 3743POPC   C1B48643  10.945  17.536   6.227
 3743POPC   C2B48644  10.763  17.481   6.655
 3743POPC   C3B48645  10.675  17.291   7.107
 3743POPC   C4B48646  10.818  17.313   7.567
 3744POPC   NC348647  38.415   3.615   5.412
 3744POPC   PO448648  38.208   2.969   5.307
 3744POPC   GL148649  38.433   3.187   5.740
 3744POPC   GL248650  38.417   3.544   5.900
 3744POPC   C1A48651  38.452   3.228   6.278
 3744POPC   D2A48652  38.401   3.121   6.729
 3744POPC   C3A48653  38.634   3.420   7.000
 3744POPC   C4A48654  38.602   3.755   7.306
 3744POPC   C1B48655  38.178   3.680   6.268
 3744POPC   C2B48656  38.247   3.647   6.714
 3744POPC   C3B48657  38.086   3.819   7.095
 3744POPC   C4B48658  37.961   4.117   7.426
 3745POPC   NC348659  28.105   5.859   5.614
 3745POPC   PO448660  27.392   5.768   5.525
 3745POPC   GL148661  27.645   5.701   5.865
 3745POPC   GL248662  27.877   5.416   5.805
 3745POPC   C1A48663  27.528   5.916   6.262
 3745POPC   D2A48664  27.201   5.910   6.584
 3745POPC   C3A48665  27.302   5.775   7.010
 3745POPC   C4A48666  27.407   6.017   7.384
 3745POPC   C1B48667  27.927   5.534   6.270
 3745POPC   C2B48668  27.707   5.646   6.675
 3745POPC   C3B48669  27.811   5.795   7.093
 3745POPC   C4B48670  28.099   6.131   7.185
 3746POPC   NC348671  26.561  13.960   5.537
 3746POPC   PO448672  27.068  14.404   5.356
 3746POPC   GL148673  26.901  14.535   5.773
 3746POPC   GL248674  27.094  14.845   5.907
 3746POPC   C1A48675  26.719  14.347   6.142
 3746POPC   D2A48676  26.877  14.176   6.520
 3746POPC   C3A48677  26.604  14.300   6.874
 3746POPC   C4A48678  26.800  14.198   7.232
 3746POPC   C1B48679  27.100  14.668   6.283
 3746POPC   C2B48680  26.781  14.664   6.564
 3746POPC   C3B48681  26.759  14.812   6.931
 3746POPC   C4B48682  26.598  14.694   7.290
 3747POPC   NC348683  19.941  28.932   5.263
 3747POPC   PO448684  19.920  29.585   5.343
 3747POPC   GL148685  19.720  29.250   5.634
 3747POPC   GL248686  19.885  28.918   5.764
 3747POPC   C1A48687  19.646  29.256   6.090
 3747POPC   D2A48688  19.766  29.446   6.497
 3747POPC   C3A48689  19.642  29.229   6.847
 3747POPC   C4A48690  19.356  29.096   7.181
 3747POPC   C1B48691  19.686  28.739   6.132
 3747POPC   C2B48692  19.477  28.640   6.526
 3747POPC   C3B48693  19.590  28.702   6.946
 3747POPC   C4B48694  19.889  28.944   7.184
 3748POPC   NC348695  31.956  26.877   5.448
 3748POPC   PO448696  32.617  26.888   5.469
 3748POPC   GL148697  32.394  26.577   5.803
 3748POPC   GL248698  32.047  26.430   5.753
 3748POPC   C1A48699  32.390  26.492   6.278
 3748POPC   D2A48700  32.377  26.799   6.588
 3748POPC   C3A48701  32.364  26.659   6.997
 3748POPC   C4A48702  32.386  27.055   7.191
 3748POPC   C1B48703  31.952  26.696   6.139
 3748POPC   C2B48704  31.897  26.654   6.594
 3748POPC   C3B48705  31.939  26.913   6.964
 3748POPC   C4B48706  31.924  26.835   7.413
 3749POPC   NC348707  14.267   5.332   5.548
 3749POPC   PO448708  14.592   4.803   5.379
 3749POPC   GL148709  14.359   4.886   5.800
 3749POPC   GL248710  13.984   4.962   5.800
 3749POPC   C1A48711  14.285   5.148   6.183
 3749POPC   D2A48712  14.406   5.378   6.560
 3749POPC   C3A48713  14.461   5.108   6.938
 3749POPC   C4A48714  14.625   5.259   7.336
 3749POPC   C1B48715  13.845   4.848   6.183
 3749POPC   C2B48716  14.060   4.856   6.576
 3749POPC   C3B48717  13.976   4.827   7.000
 3749POPC   C4B48718  14.208   4.928   7.365
 3750POPC   NC348719  28.807   7.461   5.468
 3750POPC   PO448720  29.464   7.514   5.411
 3750POPC   GL148721  29.325   7.609   5.817
 3750POPC   GL248722  29.041   7.417   5.897
 3750POPC   C1A48723  29.392   7.495   6.259
 3750POPC   D2A48724  29.185   7.565   6.628
 3750POPC   C3A48725  29.374   7.628   7.009
 3750POPC   C4A48726  29.244   7.497   7.405
 3750POPC   C1B48727  28.873   7.313   6.284
 3750POPC   C2B48728  28.787   7.221   6.697
 3750POPC   C3B48729  28.759   7.051   7.105
 3750POPC   C4B48730  28.817   7.225   7.519
 3751POPC   NC348731  17.091  26.760   5.465
 3751POPC   PO448732  16.500  26.482   5.444
 3751POPC   GL148733  16.686  26.746   5.802
 3751POPC   GL248734  17.015  26.668   5.955
 3751POPC   C1A48735  16.658  26.897   6.243
 3751POPC   D2A48736  16.439  26.922   6.641
 3751POPC   C3A48737  16.595  26.910   7.070
 3751POPC   C4A48738  16.383  27.120   7.389
 3751POPC   C1B48739  17.018  26.574   6.394
 3751POPC   C2B48740  16.997  26.844   6.748
 3751POPC   C3B48741  17.134  26.845   7.180
 3751POPC   C4B48742  17.085  26.509   7.531
 3752POPC   NC348743  15.525  31.667   5.552
 3752POPC   PO448744  14.942  31.602   5.245
 3752POPC   GL148745  14.994  31.492   5.769
 3752POPC   GL248746  15.020  31.111   5.840
 3752POPC   C1A48747  15.123  31.733   6.237
 3752POPC   D2A48748  15.505  31.708   6.569
 3752POPC   C3A48749  15.381  31.732   7.011
 3752POPC   C4A48750  15.408  31.583   7.464
 3752POPC   C1B48751  15.104  31.239   6.267
 3752POPC   C2B48752  15.223  31.233   6.727
 3752POPC   C3B48753  15.052  31.363   7.136
 3752POPC   C4B48754  14.669  31.590   7.220
 3753POPC   NC348755  30.135  27.268   5.435
 3753POPC   PO448756  29.943  26.721   5.394
 3753POPC   GL148757  30.090  26.864   5.762
 3753POPC   GL248758  29.860  27.141   5.847
 3753POPC   C1A48759  30.227  26.909   6.181
 3753POPC   D2A48760  30.019  27.020   6.568
 3753POPC   C3A48761  30.019  26.686   6.830
 3753POPC   C4A48762  30.088  26.743   7.226
 3753POPC   C1B48763  29.694  26.851   6.181
 3753POPC   C2B48764  29.545  26.809   6.636
 3753POPC   C3B48765  29.658  26.989   7.063
 3753POPC   C4B48766  29.666  26.874   7.525
 3754POPC   NC348767  13.978   2.227   5.314
 3754POPC   PO448768  13.430   1.768   5.506
 3754POPC   GL148769  13.480   2.002   5.870
 3754POPC   GL248770  13.860   2.047   5.827
 3754POPC   C1A48771  13.249   2.158   6.262
 3754POPC   D2A48772  13.235   2.168   6.724
 3754POPC   C3A48773  13.667   2.125   6.874
 3754POPC   C4A48774  13.827   2.356   7.207
 3754POPC   C1B48775  13.766   2.100   6.286
 3754POPC   C2B48776  13.952   1.818   6.557
 3754POPC   C3B48777  14.126   1.811   6.944
 3754POPC   C4B48778  13.927   1.847   7.320
 3755POPC   NC348779  34.578  44.185   5.323
 3755POPC   PO448780  34.316  43.500   5.456
 3755POPC   GL148781  34.354  43.732   5.863
 3755POPC   GL248782  34.622  43.997   5.860
 3755POPC   C1A48783  34.515  43.783   6.312
 3755POPC   D2A48784  34.733  43.623   6.664
 3755POPC   C3A48785  34.519  43.886   6.905
 3755POPC   C4A48786  34.457  43.966   7.291
 3755POPC   C1B48787  34.821  44.178   6.257
 3755POPC   C2B48788  34.931  44.150   6.711
 3755POPC   C3B48789  34.792  44.331   7.107
 3755POPC   C4B48790  34.825  44.161   7.549
 3756POPC   NC348791  19.787   6.611   5.331
 3756POPC   PO448792  19.715   6.010   5.446
 3756POPC   GL148793  19.891   6.309   5.791
 3756POPC   GL248794  19.923   6.719   5.816
 3756POPC   C1A48795  19.854   6.436   6.249
 3756POPC   D2A48796  19.622   6.696   6.567
 3756POPC   C3A48797  19.825   6.661   6.949
 3756POPC   C4A48798  20.255   6.805   7.029
 3756POPC   C1B48799  19.624   6.972   6.129
 3756POPC   C2B48800  19.603   7.222   6.565
 3756POPC   C3B48801  19.907   7.197   6.935
 3756POPC   C4B48802  19.897   6.956   7.358
 3757POPC   NC348803  13.610  31.059   5.472
 3757POPC   PO448804  13.913  30.518   5.223
 3757POPC   GL148805  13.812  30.585   5.743
 3757POPC   GL248806  13.561  30.394   6.038
 3757POPC   C1A48807  13.725  30.853   6.128
 3757POPC   D2A48808  13.774  30.724   6.563
 3757POPC   C3A48809  13.483  30.633   6.886
 3757POPC   C4A48810  13.548  30.752   7.303
 3757POPC   C1B48811  13.895  30.214   6.187
 3757POPC   C2B48812  14.031  30.284   6.594
 3757POPC   C3B48813  13.848  30.210   7.000
 3757POPC   C4B48814  13.909  30.349   7.428
 3758POPC   NC348815  33.000  33.616   5.354
 3758POPC   PO448816  32.929  33.006   5.054
 3758POPC   GL148817  33.035  33.098   5.565
 3758POPC   GL248818  33.021  32.795   5.788
 3758POPC   C1A48819  32.981  33.199   6.073
 3758POPC   D2A48820  33.107  33.019   6.504
 3758POPC   C3A48821  32.955  33.114   6.952
 3758POPC   C4A48822  33.157  33.097   7.399
 3758POPC   C1B48823  32.668  32.795   6.125
 3758POPC   C2B48824  32.630  32.877   6.575
 3758POPC   C3B48825  32.625  32.690   6.987
 3758POPC   C4B48826  32.670  32.822   7.360
 3759POPC   NC348827  14.988  27.510   5.316
 3759POPC   PO448828  14.360  27.759   5.349
 3759POPC   GL148829  14.475  27.520   5.759
 3759POPC   GL248830  14.526  27.731   6.002
 3759POPC   C1A48831  14.541  27.296   6.228
 3759POPC   D2A48832  14.394  27.456   6.659
 3759POPC   C3A48833  14.327  27.329   7.103
 3759POPC   C4A48834  14.439  27.136   7.524
 3759POPC   C1B48835  14.327  28.019   6.274
 3759POPC   C2B48836  14.208  27.950   6.684
 3759POPC   C3B48837  14.250  27.883   7.130
 3759POPC   C4B48838  14.212  27.625   7.510
 3760POPC   NC348839  18.024  35.169   5.453
 3760POPC   PO448840  18.460  35.648   5.492
 3760POPC   GL148841  18.382  35.566   5.898
 3760POPC   GL248842  18.309  35.192   5.880
 3760POPC   C1A48843  18.446  35.459   6.315
 3760POPC   D2A48844  18.414  35.035   6.463
 3760POPC   C3A48845  18.401  35.057   6.901
 3760POPC   C4A48846  18.517  35.339   7.242
 3760POPC   C1B48847  18.006  35.221   6.203
 3760POPC   C2B48848  18.016  35.354   6.610
 3760POPC   C3B48849  17.918  35.206   6.983
 3760POPC   C4B48850  18.009  35.169   7.376
 3761POPC   NC348851  44.398  23.278   5.557
 3761POPC   PO448852  44.827  23.789   5.461
 3761POPC   GL148853  44.515  23.771   5.774
 3761POPC   GL248854  44.611  23.498   5.951
 3761POPC   C1A48855  44.335  23.877   6.195
 3761POPC   D2A48856  44.571  24.039   6.529
 3761POPC   C3A48857  44.626  23.744   6.824
 3761POPC   C4A48858  44.497  23.853   7.243
 3761POPC   C1B48859  44.758  23.607   6.325
 3761POPC   C2B48860   0.102  23.598   6.604
 3761POPC   C3B48861   0.053  23.379   6.971
 3761POPC   C4B48862  44.783  23.451   7.267
 3762POPC   NC348863  15.284   1.683   5.557
 3762POPC   PO448864  14.919   2.327   5.619
 3762POPC   GL148865  15.285   2.130   5.881
 3762POPC   GL248866  15.236   1.825   6.024
 3762POPC   C1A48867  15.465   2.103   6.360
 3762POPC   D2A48868  15.293   2.322   6.759
 3762POPC   C3A48869  15.377   2.185   7.189
 3762POPC   C4A48870  15.171   2.308   7.561
 3762POPC   C1B48871  15.168   1.654   6.405
 3762POPC   C2B48872  15.164   1.788   6.845
 3762POPC   C3B48873  15.201   1.653   7.289
 3762POPC   C4B48874  15.366   1.606   7.729
 3763POPC   NC348875  42.692  27.608   5.156
 3763POPC   PO448876  43.265  27.578   5.443
 3763POPC   GL148877  43.291  27.682   5.814
 3763POPC   GL248878  43.044  27.915   5.768
 3763POPC   C1A48879  43.216  27.476   6.191
 3763POPC   D2A48880  42.949  27.438   6.532
 3763POPC   C3A48881  43.251  27.422   6.875
 3763POPC   C4A48882  43.166  27.295   7.293
 3763POPC   C1B48883  42.843  27.824   6.151
 3763POPC   C2B48884  42.932  27.929   6.580
 3763POPC   C3B48885  42.903  27.772   7.002
 3763POPC   C4B48886  42.903  27.875   7.415
 3764POPC   NC348887  36.375  16.019   5.462
 3764POPC   PO448888  35.711  15.844   5.433
 3764POPC   GL148889  35.987  15.819   5.846
 3764POPC   GL248890  36.298  15.988   5.958
 3764POPC   C1A48891  36.160  15.610   6.250
 3764POPC   D2A48892  36.404  15.781   6.620
 3764POPC   C3A48893  36.191  15.696   7.016
 3764POPC   C4A48894  35.916  15.722   7.402
 3764POPC   C1B48895  36.422  16.396   6.129
 3764POPC   C2B48896  36.262  16.519   6.534
 3764POPC   C3B48897  36.233  16.254   6.895
 3764POPC   C4B48898  36.256  16.096   7.325
 3765POPC   NC348899  32.335  19.008   5.400
 3765POPC   PO448900  31.687  19.029   5.492
 3765POPC   GL148901  32.066  18.928   5.852
 3765POPC   GL248902  32.466  18.865   5.866
 3765POPC   C1A48903  32.165  18.849   6.313
 3765POPC   D2A48904  32.350  18.795   6.741
 3765POPC   C3A48905  32.096  18.908   7.105
 3765POPC   C4A48906  31.950  19.315   7.201
 3765POPC   C1B48907  32.470  19.234   6.138
 3765POPC   C2B48908  32.227  19.313   6.520
 3765POPC   C3B48909  32.374  19.324   6.935
 3765POPC   C4B48910  32.443  19.245   7.364
 3766POPC   NC348911  16.487  16.152   5.510
 3766POPC   PO448912  16.954  15.667   5.396
 3766POPC   GL148913  16.938  15.687   5.861
 3766POPC   GL248914  16.573  15.632   5.892
 3766POPC   C1A48915  16.894  15.902   6.287
 3766POPC   D2A48916  16.857  16.239   6.624
 3766POPC   C3A48917  16.928  15.967   7.013
 3766POPC   C4A48918  16.750  15.647   7.269
 3766POPC   C1B48919  16.368  15.823   6.270
 3766POPC   C2B48920  16.497  15.885   6.708
 3766POPC   C3B48921  16.443  16.095   7.106
 3766POPC   C4B48922  16.298  15.950   7.527
 3767POPC   NC348923  27.001  18.392   5.453
 3767POPC   PO448924  26.457  17.936   5.542
 3767POPC   GL148925  26.754  17.943   5.850
 3767POPC   GL248926  27.086  18.054   5.907
 3767POPC   C1A48927  26.736  18.184   6.236
 3767POPC   D2A48928  26.767  18.407   6.615
 3767POPC   C3A48929  26.770  18.146   6.990
 3767POPC   C4A48930  26.672  18.163   7.432
 3767POPC   C1B48931  27.162  18.482   6.115
 3767POPC   C2B48932  27.249  18.612   6.553
 3767POPC   C3B48933  27.118  18.518   6.965
 3767POPC   C4B48934  27.175  18.176   7.292
 3768POPC   NC348935  33.503  15.429   5.462
 3768POPC   PO448936  33.058  14.961   5.321
 3768POPC   GL148937  33.014  15.029   5.789
 3768POPC   GL248938  32.907  15.357   5.941
 3768POPC   C1A48939  32.997  14.879   6.223
 3768POPC   D2A48940  32.899  15.064   6.612
 3768POPC   C3A48941  33.236  15.067   6.900
 3768POPC   C4A48942  33.246  14.863   7.318
 3768POPC   C1B48943  32.694  15.526   6.343
 3768POPC   C2B48944  32.570  15.692   6.743
 3768POPC   C3B48945  32.581  15.476   7.113
 3768POPC   C4B48946  32.874  15.204   7.248
 3769POPC   NC348947  18.096  20.750   5.531
 3769POPC   PO448948  18.829  20.736   5.385
 3769POPC   GL148949  18.551  20.750   5.789
 3769POPC   GL248950  18.330  20.977   5.961
 3769POPC   C1A48951  18.376  20.517   6.194
 3769POPC   D2A48952  18.128  20.444   6.591
 3769POPC   C3A48953  18.407  20.445   6.969
 3769POPC   C4A48954  18.316  20.486   7.415
 3769POPC   C1B48955  18.086  20.913   6.357
 3769POPC   C2B48956  18.208  20.909   6.807
 3769POPC   C3B48957  18.021  20.849   7.191
 3769POPC   C4B48958  18.095  20.926   7.595
 3770POPC   NC348959  21.465  20.776   5.251
 3770POPC   PO448960  21.819  20.181   5.502
 3770POPC   GL148961  21.530  20.486   5.715
 3770POPC   GL248962  21.202  20.596   5.692
 3770POPC   C1A48963  21.508  20.794   6.103
 3770POPC   D2A48964  21.335  20.832   6.536
 3770POPC   C3A48965  21.593  20.753   6.908
 3770POPC   C4A48966  21.537  20.925   7.317
 3770POPC   C1B48967  21.226  20.344   6.098
 3770POPC   C2B48968  21.031  20.414   6.469
 3770POPC   C3B48969  21.183  20.426   6.842
 3770POPC   C4B48970  21.242  20.479   7.238
 3771POPC   NC348971   7.755  21.200   5.079
 3771POPC   PO448972   8.367  21.379   5.473
 3771POPC   GL148973   8.208  21.425   5.885
 3771POPC   GL248974   7.892  21.573   5.803
 3771POPC   C1A48975   8.228  21.390   6.344
 3771POPC   D2A48976   8.169  21.536   6.754
 3771POPC   C3A48977   8.432  21.440   7.096
 3771POPC   C4A48978   8.398  21.509   7.548
 3771POPC   C1B48979   7.731  21.404   6.211
 3771POPC   C2B48980   7.797  21.188   6.593
 3771POPC   C3B48981   7.751  21.372   7.001
 3771POPC   C4B48982   8.029  21.205   7.304
 3772POPC   NC348983  20.538  39.770   5.221
 3772POPC   PO448984  20.130  39.424   5.648
 3772POPC   GL148985  20.493  39.611   5.877
 3772POPC   GL248986  20.840  39.608   5.725
 3772POPC   C1A48987  20.563  39.436   6.281
 3772POPC   D2A48988  20.392  39.160   6.596
 3772POPC   C3A48989  20.440  39.277   6.996
 3772POPC   C4A48990  20.167  39.338   7.308
 3772POPC   C1B48991  21.031  39.335   6.102
 3772POPC   C2B48992  20.953  39.257   6.570
 3772POPC   C3B48993  20.952  39.422   6.984
 3772POPC   C4B48994  20.691  39.638   7.259
 3773POPC   NC348995  27.177  36.589   5.426
 3773POPC   PO448996  26.694  36.007   5.359
 3773POPC   GL148997  26.842  35.884   5.764
 3773POPC   GL248998  26.825  36.241   5.826
 3773POPC   C1A48999  26.768  35.913   6.229
 3773POPC   D2A49000  26.761  36.177   6.592
 3773POPC   C3A49001  26.871  35.930   6.920
 3773POPC   C4A49002  26.704  35.837   7.316
 3773POPC   C1B49003  26.983  36.429   6.188
 3773POPC   C2B49004  27.130  36.529   6.601
 3773POPC   C3B49005  27.239  36.313   6.944
 3773POPC   C4B49006  26.951  36.299   7.248
 3774POPC   NC349007  42.799  26.063   5.312
 3774POPC   PO449008  43.361  25.661   5.387
 3774POPC   GL149009  43.386  25.749   5.837
 3774POPC   GL249010  43.125  25.985   5.830
 3774POPC   C1A49011  43.464  25.961   6.246
 3774POPC   D2A49012  43.224  26.158   6.564
 3774POPC   C3A49013  43.061  25.965   6.927
 3774POPC   C4A49014  43.307  25.987   7.309
 3774POPC   C1B49015  43.063  26.343   6.112
 3774POPC   C2B49016  42.969  26.595   6.475
 3774POPC   C3B49017  42.920  26.504   6.876
 3774POPC   C4B49018  42.988  26.366   7.264
 3775POPC   NC349019  43.316  21.756   5.382
 3775POPC   PO449020  42.983  21.188   5.470
 3775POPC   GL149021  43.134  21.233   5.853
 3775POPC   GL249022  43.353  21.501   5.818
 3775POPC   C1A49023  43.097  21.099   6.252
 3775POPC   D2A49024  43.002  21.304   6.632
 3775POPC   C3A49025  42.961  21.204   7.031
 3775POPC   C4A49026  42.740  21.519   7.269
 3775POPC   C1B49027  43.520  21.385   6.230
 3775POPC   C2B49028  43.476  21.100   6.568
 3775POPC   C3B49029  43.478  21.235   6.958
 3775POPC   C4B49030  43.363  21.203   7.352
 3776POPC   NC349031   0.008  19.857   5.162
 3776POPC   PO449032   0.626  19.916   5.311
 3776POPC   GL149033   0.458  19.841   5.727
 3776POPC   GL249034   0.739  20.010   5.810
 3776POPC   C1A49035   0.335  19.781   6.155
 3776POPC   D2A49036   0.125  19.857   6.552
 3776POPC   C3A49037   0.315  19.722   6.903
 3776POPC   C4A49038   0.535  19.767   7.235
 3776POPC   C1B49039   0.691  20.181   6.191
 3776POPC   C2B49040   0.650  19.972   6.566
 3776POPC   C3B49041   0.615  20.186   6.962
 3776POPC   C4B49042   0.434  20.343   7.302
 3777POPC   NC349043   5.567  12.765   5.413
 3777POPC   PO449044   5.915  12.194   5.519
 3777POPC   GL149045   5.982  12.293   5.902
 3777POPC   GL249046   6.266  12.046   5.887
 3777POPC   C1A49047   5.782  12.404   6.312
 3777POPC   D2A49048   5.516  12.219   6.654
 3777POPC   C3A49049   5.701  12.094   7.056
 3777POPC   C4A49050   5.864  12.307   7.378
 3777POPC   C1B49051   6.039  11.960   6.271
 3777POPC   C2B49052   6.059  12.113   6.667
 3777POPC   C3B49053   6.135  11.813   6.958
 3777POPC   C4B49054   6.118  11.833   7.363
 3778POPC   NC349055  29.094  20.807   5.277
 3778POPC   PO449056  28.898  20.140   5.243
 3778POPC   GL149057  28.855  20.508   5.627
 3778POPC   GL249058  29.021  20.803   5.766
 3778POPC   C1A49059  28.996  20.464   6.135
 3778POPC   D2A49060  29.326  20.510   6.454
 3778POPC   C3A49061  29.191  20.504   6.868
 3778POPC   C4A49062  28.934  20.481   7.200
 3778POPC   C1B49063  29.240  20.934   6.121
 3778POPC   C2B49064  29.321  21.120   6.495
 3778POPC   C3B49065  29.459  20.945   6.855
 3778POPC   C4B49066  29.110  20.949   7.124
 3779POPC   NC349067  14.543  31.526   5.428
 3779POPC   PO449068  13.931  31.382   5.440
 3779POPC   GL149069  14.218  31.448   5.811
 3779POPC   GL249070  14.497  31.205   5.828
 3779POPC   C1A49071  14.509  31.686   6.092
 3779POPC   D2A49072  14.498  31.741   6.547
 3779POPC   C3A49073  14.276  31.432   6.805
 3779POPC   C4A49074  14.147  31.553   7.196
 3779POPC   C1B49075  14.615  31.069   6.225
 3779POPC   C2B49076  14.723  31.269   6.610
 3779POPC   C3B49077  14.635  31.115   6.992
 3779POPC   C4B49078  14.280  31.078   7.240
 3780POPC   NC349079   2.180  12.990   5.396
 3780POPC   PO449080   1.725  12.528   5.453
 3780POPC   GL149081   1.804  12.830   5.797
 3780POPC   GL249082   2.145  12.925   5.922
 3780POPC   C1A49083   1.752  12.937   6.257
 3780POPC   D2A49084   2.105  13.055   6.552
 3780POPC   C3A49085   2.015  13.038   6.990
 3780POPC   C4A49086   1.639  12.983   7.239
 3780POPC   C1B49087   2.130  12.601   6.286
 3780POPC   C2B49088   1.903  12.501   6.685
 3780POPC   C3B49089   1.960  12.561   7.164
 3780POPC   C4B49090   2.405  12.606   7.366
 3781POPC   NC349091   6.297  21.517   5.537
 3781POPC   PO449092   5.739  21.280   5.328
 3781POPC   GL149093   5.898  21.276   5.751
 3781POPC   GL249094   5.826  21.645   5.764
 3781POPC   C1A49095   6.228  21.298   6.136
 3781POPC   D2A49096   6.384  21.401   6.563
 3781POPC   C3A49097   6.128  21.387   6.902
 3781POPC   C4A49098   6.083  21.171   7.327
 3781POPC   C1B49099   5.745  21.460   6.188
 3781POPC   C2B49100   5.728  21.290   6.582
 3781POPC   C3B49101   5.626  21.476   6.973
 3781POPC   C4B49102   5.901  21.650   7.293
 3782POPC   NC349103   7.452  16.333   5.284
 3782POPC   PO449104   7.698  15.716   5.521
 3782POPC   GL149105   7.555  15.810   5.874
 3782POPC   GL249106   7.273  16.046   5.822
 3782POPC   C1A49107   7.640  15.934   6.249
 3782POPC   D2A49108   7.372  15.957   6.560
 3782POPC   C3A49109   7.616  16.027   6.908
 3782POPC   C4A49110   7.595  16.175   7.317
 3782POPC   C1B49111   7.102  15.733   6.138
 3782POPC   C2B49112   7.024  15.563   6.547
 3782POPC   C3B49113   7.113  15.751   6.961
 3782POPC   C4B49114   6.998  16.002   7.320
 3783POPC   NC349115  36.387  43.698   5.416
 3783POPC   PO449116  35.990  44.153   5.514
 3783POPC   GL149117  36.207  43.948   5.852
 3783POPC   GL249118  36.088  43.624   5.834
 3783POPC   C1A49119  36.194  44.001   6.303
 3783POPC   D2A49120  36.424  44.285   6.583
 3783POPC   C3A49121  36.195  44.143   6.927
 3783POPC   C4A49122  36.245  43.775   7.154
 3783POPC   C1B49123  36.068  43.472   6.242
 3783POPC   C2B49124  36.124  43.532   6.679
 3783POPC   C3B49125  35.879  43.444   7.038
 3783POPC   C4B49126  36.073  43.322   7.399
 3784POPC   NC349127  14.862  14.302   5.066
 3784POPC   PO449128  15.486  14.348   5.358
 3784POPC   GL149129  15.281  14.302   5.768
 3784POPC   GL249130  15.108  13.980   5.821
 3784POPC   C1A49131  15.122  14.370   6.185
 3784POPC   D2A49132  15.069  14.324   6.622
 3784POPC   C3A49133  14.996  14.555   6.991
 3784POPC   C4A49134  15.296  14.379   7.205
 3784POPC   C1B49135  15.036  13.803   6.222
 3784POPC   C2B49136  14.835  13.859   6.608
 3784POPC   C3B49137  14.836  14.067   6.998
 3784POPC   C4B49138  15.012  13.982   7.381
 3785POPC   NC349139  30.057  31.965   5.418
 3785POPC   PO449140  29.586  32.401   5.479
 3785POPC   GL149141  29.862  32.469   5.836
 3785POPC   GL249142  30.145  32.233   5.845
 3785POPC   C1A49143  30.097  32.541   6.228
 3785POPC   D2A49144  30.111  32.253   6.559
 3785POPC   C3A49145  30.042  32.441   6.952
 3785POPC   C4A49146  29.780  32.559   7.306
 3785POPC   C1B49147  29.903  31.986   6.136
 3785POPC   C2B49148  29.927  31.763   6.527
 3785POPC   C3B49149  30.027  31.915   6.930
 3785POPC   C4B49150  29.991  32.093   7.335
 3786POPC   NC349151  18.458   8.676   5.572
 3786POPC   PO449152  17.966   9.137   5.415
 3786POPC   GL149153  18.098   9.017   5.816
 3786POPC   GL249154  18.143   8.713   6.000
 3786POPC   C1A49155  18.360   9.141   6.176
 3786POPC   D2A49156  18.421   9.010   6.607
 3786POPC   C3A49157  18.072   8.893   6.851
 3786POPC   C4A49158  18.150   9.108   7.206
 3786POPC   C1B49159  18.547   8.648   6.233
 3786POPC   C2B49160  18.765   8.605   6.648
 3786POPC   C3B49161  18.535   8.679   7.044
 3786POPC   C4B49162  18.187   8.633   7.306
 3787POPC   NC349163  35.315   1.426   5.665
 3787POPC   PO449164  35.228   1.993   5.281
 3787POPC   GL149165  35.148   2.089   5.718
 3787POPC   GL249166  34.936   1.835   5.840
 3787POPC   C1A49167  35.412   2.154   6.085
 3787POPC   D2A49168  35.642   2.121   6.472
 3787POPC   C3A49169  35.434   2.109   6.863
 3787POPC   C4A49170  35.495   1.818   7.163
 3787POPC   C1B49171  34.935   2.040   6.225
 3787POPC   C2B49172  34.979   1.948   6.652
 3787POPC   C3B49173  35.004   1.806   7.070
 3787POPC   C4B49174  35.102   1.901   7.480
 3788POPC   NC349175  36.800   4.784   5.540
 3788POPC   PO449176  37.260   5.298   5.484
 3788POPC   GL149177  37.001   5.161   5.811
 3788POPC   GL249178  37.205   4.869   5.855
 3788POPC   C1A49179  36.833   5.026   6.210
 3788POPC   D2A49180  36.921   5.214   6.595
 3788POPC   C3A49181  36.638   5.276   6.901
 3788POPC   C4A49182  36.841   5.285   7.272
 3788POPC   C1B49183  37.143   4.615   6.222
 3788POPC   C2B49184  36.960   4.695   6.611
 3788POPC   C3B49185  36.936   4.862   7.005
 3788POPC   C4B49186  37.184   4.661   7.304
 3789POPC   NC349187  11.416  33.104   5.324
 3789POPC   PO449188  10.787  32.892   5.475
 3789POPC   GL149189  11.157  32.971   5.808
 3789POPC   GL249190  11.507  33.066   5.892
 3789POPC   C1A49191  11.153  33.080   6.267
 3789POPC   D2A49192  11.045  33.237   6.681
 3789POPC   C3A49193  11.180  33.066   7.070
 3789POPC   C4A49194  11.346  32.948   7.452
 3789POPC   C1B49195  11.653  32.920   6.326
 3789POPC   C2B49196  11.574  33.130   6.742
 3789POPC   C3B49197  11.673  33.294   7.177
 3789POPC   C4B49198  11.689  33.274   7.664
 3790POPC   NC349199   7.781  32.769   5.495
 3790POPC   PO449200   7.394  33.244   5.202
 3790POPC   GL149201   7.434  33.311   5.741
 3790POPC   GL249202   7.483  32.915   5.864
 3790POPC   C1A49203   7.211  33.186   6.155
 3790POPC   D2A49204   7.233  33.239   6.573
 3790POPC   C3A49205   7.102  32.997   6.919
 3790POPC   C4A49206   7.372  32.933   7.245
 3790POPC   C1B49207   7.479  32.772   6.294
 3790POPC   C2B49208   7.431  32.622   6.718
 3790POPC   C3B49209   7.709  32.609   7.043
 3790POPC   C4B49210   7.802  32.731   7.422
 3791POPC   NC349211  17.669   8.788   5.479
 3791POPC   PO449212  17.346   9.481   5.414
 3791POPC   GL149213  17.551   9.262   5.693
 3791POPC   GL249214  17.293   9.051   5.733
 3791POPC   C1A49215  17.682   9.161   6.100
 3791POPC   D2A49216  17.642   9.355   6.497
 3791POPC   C3A49217  17.541   9.041   6.814
 3791POPC   C4A49218  17.654   9.133   7.216
 3791POPC   C1B49219  17.277   8.786   6.113
 3791POPC   C2B49220  17.175   8.617   6.538
 3791POPC   C3B49221  17.208   8.649   7.000
 3791POPC   C4B49222  17.144   8.946   7.364
 3792POPC   NC349223  44.817  43.339   5.650
 3792POPC   PO449224  44.430  42.878   5.703
 3792POPC   GL149225  44.588  43.027   6.022
 3792POPC   GL249226  44.412  43.329   5.947
 3792POPC   C1A49227  44.553  42.880   6.427
 3792POPC   D2A49228  44.840  42.992   6.692
 3792POPC   C3A49229  44.728  42.991   7.062
 3792POPC   C4A49230  44.792  43.369   7.202
 3792POPC   C1B49231  44.286  43.323   6.353
 3792POPC   C2B49232  44.401  43.273   6.782
 3792POPC   C3B49233  44.257  43.474   7.150
 3792POPC   C4B49234  44.461  43.686   7.497
 3793POPC   NC349235  15.454   9.689   5.256
 3793POPC   PO449236  14.778   9.689   5.336
 3793POPC   GL149237  15.064   9.698   5.746
 3793POPC   GL249238  15.425   9.635   5.754
 3793POPC   C1A49239  15.156   9.451   6.153
 3793POPC   D2A49240  15.095   9.349   6.604
 3793POPC   C3A49241  14.938   9.678   6.879
 3793POPC   C4A49242  14.933   9.590   7.312
 3793POPC   C1B49243  15.560   9.801   6.135
 3793POPC   C2B49244  15.588   9.590   6.538
 3793POPC   C3B49245  15.428   9.608   6.957
 3793POPC   C4B49246  15.421   9.761   7.357
 3794POPC   NC349247  12.634  42.214   5.403
 3794POPC   PO449248  13.328  42.319   5.395
 3794POPC   GL149249  13.002  42.325   5.771
 3794POPC   GL249250  12.722  42.055   5.881
 3794POPC   C1A49251  12.881  42.483   6.193
 3794POPC   D2A49252  12.875  42.681   6.620
 3794POPC   C3A49253  12.892  42.319   6.922
 3794POPC   C4A49254  13.006  42.174   7.347
 3794POPC   C1B49255  12.425  42.403   6.001
 3794POPC   C2B49256  12.384  42.577   6.406
 3794POPC   C3B49257  12.437  42.628   6.877
 3794POPC   C4B49258  12.571  42.505   7.272
 3795POPC   NC349259  20.866  16.552   5.564
 3795POPC   PO449260  20.359  16.997   5.653
 3795POPC   GL149261  20.353  16.806   6.012
 3795POPC   GL249262  20.478  16.492   5.927
 3795POPC   C1A49263  20.286  16.838   6.421
 3795POPC   D2A49264  20.585  17.027   6.630
 3795POPC   C3A49265  20.551  16.974   7.027
 3795POPC   C4A49266  20.329  17.223   7.287
 3795POPC   C1B49267  20.735  16.599   6.302
 3795POPC   C2B49268  20.614  16.514   6.735
 3795POPC   C3B49269  20.829  16.535   7.123
 3795POPC   C4B49270  21.029  16.487   7.511
 3796POPC   NC349271   0.613   6.108   5.418
 3796POPC   PO449272   0.581   5.484   5.600
 3796POPC   GL149273   0.313   5.744   5.780
 3796POPC   GL249274   0.129   5.491   5.913
 3796POPC   C1A49275   0.188   6.037   6.083
 3796POPC   D2A49276   0.117   6.167   6.511
 3796POPC   C3A49277   0.443   6.090   6.817
 3796POPC   C4A49278   0.441   5.874   7.188
 3796POPC   C1B49279   0.357   5.554   6.288
 3796POPC   C2B49280   0.479   5.597   6.715
 3796POPC   C3B49281   0.201   5.454   7.050
 3796POPC   C4B49282   0.052   5.554   7.482
 3797POPC   NC349283   4.370  29.924   5.335
 3797POPC   PO449284   3.697  29.964   5.458
 3797POPC   GL149285   4.131  30.066   5.772
 3797POPC   GL249286   4.524  29.962   5.817
 3797POPC   C1A49287   4.308  30.261   6.169
 3797POPC   D2A49288   4.431  29.998   6.557
 3797POPC   C3A49289   4.349  30.176   6.998
 3797POPC   C4A49290   4.208  30.114   7.445
 3797POPC   C1B49291   4.722  29.660   6.147
 3797POPC   C2B49292   4.700  29.514   6.609
 3797POPC   C3B49293   4.442  29.658   6.960
 3797POPC   C4B49294   4.625  29.861   7.346
 3798POPC   NC349295  35.884  18.120   5.485
 3798POPC   PO449296  35.996  18.726   5.223
 3798POPC   GL149297  36.219  18.552   5.650
 3798POPC   GL249298  36.285  18.197   5.781
 3798POPC   C1A49299  36.163  18.542   6.139
 3798POPC   D2A49300  36.297  18.336   6.514
 3798POPC   C3A49301  36.198  18.473   6.907
 3798POPC   C4A49302  35.976  18.334   7.241
 3798POPC   C1B49303  36.575  18.163   6.129
 3798POPC   C2B49304  36.557  17.869   6.449
 3798POPC   C3B49305  36.417  17.986   6.854
 3798POPC   C4B49306  36.192  17.843   7.206
 3799POPC   NC349307  40.349   9.163   5.347
 3799POPC   PO449308  40.943   8.864   5.331
 3799POPC   GL149309  40.773   8.905   5.740
 3799POPC   GL249310  40.434   8.773   5.810
 3799POPC   C1A49311  40.888   8.714   6.135
 3799POPC   D2A49312  41.073   8.650   6.544
 3799POPC   C3A49313  40.916   8.773   6.958
 3799POPC   C4A49314  40.798   9.058   7.272
 3799POPC   C1B49315  40.457   9.009   6.162
 3799POPC   C2B49316  40.668   8.972   6.535
 3799POPC   C3B49317  40.470   9.040   6.903
 3799POPC   C4B49318  40.273   8.962   7.286
 3800POPC   NC349319   9.598  19.770   5.348
 3800POPC   PO449320  10.246  19.878   5.218
 3800POPC   GL149321  10.013  19.887   5.694
 3800POPC   GL249322   9.697  19.750   5.846
 3800POPC   C1A49323  10.063  19.746   6.169
 3800POPC   D2A49324   9.755  19.834   6.509
 3800POPC   C3A49325   9.915  19.800   6.913
 3800POPC   C4A49326   9.812  19.647   7.326
 3800POPC   C1B49327   9.761  20.166   6.108
 3800POPC   C2B49328   9.649  20.343   6.528
 3800POPC   C3B49329   9.481  20.172   6.888
 3800POPC   C4B49330   9.752  20.142   7.245
 3801POPC   NC349331   7.421   1.117   5.398
 3801POPC   PO449332   7.107   1.440   5.892
 3801POPC   GL149333   7.538   1.324   5.873
 3801POPC   GL249334   7.571   0.942   5.864
 3801POPC   C1A49335   7.735   1.243   6.255
 3801POPC   D2A49336   7.549   1.135   6.622
 3801POPC   C3A49337   7.723   1.239   6.972
 3801POPC   C4A49338   7.554   1.349   7.343
 3801POPC   C1B49339   7.334   0.863   6.238
 3801POPC   C2B49340   7.203   0.762   6.665
 3801POPC   C3B49341   7.245   1.016   7.070
 3801POPC   C4B49342   7.108   0.894   7.542
 3802POPC   NC349343   7.755   7.001   5.400
 3802POPC   PO449344   7.290   6.480   5.168
 3802POPC   GL149345   7.240   6.741   5.664
 3802POPC   GL249346   7.489   6.684   5.895
 3802POPC   C1A49347   7.074   6.738   6.166
 3802POPC   D2A49348   7.165   6.624   6.643
 3802POPC   C3A49349   7.207   6.792   7.087
 3802POPC   C4A49350   7.440   6.727   7.506
 3802POPC   C1B49351   7.514   6.464   6.280
 3802POPC   C2B49352   7.695   6.669   6.629
 3802POPC   C3B49353   7.709   6.683   7.050
 3802POPC   C4B49354   7.781   6.351   7.328
 3803POPC   NC349355  40.380  39.773   5.510
 3803POPC   PO449356  41.056  40.072   5.393
 3803POPC   GL149357  40.875  40.117   5.797
 3803POPC   GL249358  40.560  40.253   5.894
 3803POPC   C1A49359  40.999  40.251   6.190
 3803POPC   D2A49360  40.869  40.327   6.586
 3803POPC   C3A49361  40.774  40.046   6.865
 3803POPC   C4A49362  40.762  40.136   7.255
 3803POPC   C1B49363  40.537  39.983   6.269
 3803POPC   C2B49364  40.465  39.726   6.642
 3803POPC   C3B49365  40.560  39.600   7.079
 3803POPC   C4B49366  40.643  39.713   7.504
 3804POPC   NC349367  33.334  25.796   5.623
 3804POPC   PO449368  33.828  26.238   5.339
 3804POPC   GL149369  33.964  26.259   5.794
 3804POPC   GL249370  33.993  25.915   5.949
 3804POPC   C1A49371  33.870  26.271   6.252
 3804POPC   D2A49372  33.683  26.096   6.609
 3804POPC   C3A49373  33.833  26.177   7.008
 3804POPC   C4A49374  33.504  26.083   7.289
 3804POPC   C1B49375  33.644  25.754   6.221
 3804POPC   C2B49376  33.531  25.514   6.607
 3804POPC   C3B49377  33.633  25.663   7.018
 3804POPC   C4B49378  34.070  25.763   7.181
 3805POPC   NC349379  23.516  26.417   5.351
 3805POPC   PO449380  23.927  26.954   5.455
 3805POPC   GL149381  23.652  26.867   5.792
 3805POPC   GL249382  23.697  26.512   5.888
 3805POPC   C1A49383  23.361  26.841   6.144
 3805POPC   D2A49384  23.336  26.715   6.574
 3805POPC   C3A49385  23.547  26.980   6.865
 3805POPC   C4A49386  23.810  27.053   7.183
 3805POPC   C1B49387  23.776  26.376   6.343
 3805POPC   C2B49388  23.762  26.500   6.802
 3805POPC   C3B49389  23.391  26.516   7.075
 3805POPC   C4B49390  23.303  26.392   7.511
 3806POPC   NC349391   1.066  42.459   5.383
 3806POPC   PO449392   1.496  42.882   5.545
 3806POPC   GL149393   1.326  42.533   5.832
 3806POPC   GL249394   1.135  42.201   5.816
 3806POPC   C1A49395   1.259  42.406   6.267
 3806POPC   D2A49396   1.557  42.319   6.575
 3806POPC   C3A49397   1.318  42.472   6.912
 3806POPC   C4A49398   1.217  42.324   7.265
 3806POPC   C1B49399   0.995  41.958   6.177
 3806POPC   C2B49400   0.979  42.083   6.594
 3806POPC   C3B49401   0.838  42.127   7.001
 3806POPC   C4B49402   0.690  41.807   7.264
 3807POPC   NC349403  30.166  10.534   5.260
 3807POPC   PO449404  29.523  10.211   5.417
 3807POPC   GL149405  29.744  10.442   5.717
 3807POPC   GL249406  30.102  10.543   5.793
 3807POPC   C1A49407  29.755  10.492   6.155
 3807POPC   D2A49408  29.697  10.389   6.575
 3807POPC   C3A49409  29.877  10.707   6.839
 3807POPC   C4A49410  30.125  10.463   7.115
 3807POPC   C1B49411  30.255  10.570   6.226
 3807POPC   C2B49412  30.247  10.898   6.533
 3807POPC   C3B49413  30.409  10.878   6.952
 3807POPC   C4B49414  30.173  10.906   7.320
 3808POPC   NC349415  38.579  19.440   5.602
 3808POPC   PO449416  38.176  18.890   5.517
 3808POPC   GL149417  38.434  19.005   5.863
 3808POPC   GL249418  38.227  19.302   5.951
 3808POPC   C1A49419  38.472  18.774   6.284
 3808POPC   D2A49420  38.410  19.103   6.552
 3808POPC   C3A49421  38.457  19.018   6.957
 3808POPC   C4A49422  38.716  19.211   7.298
 3808POPC   C1B49423  38.030  18.962   6.175
 3808POPC   C2B49424  38.042  18.753   6.604
 3808POPC   C3B49425  37.925  18.952   7.016
 3808POPC   C4B49426  38.184  19.147   7.346
 3809POPC   NC349427  17.957  11.265   5.128
 3809POPC   PO449428  17.383  11.040   5.484
 3809POPC   GL149429  17.628  10.964   5.856
 3809POPC   GL249430  17.582  11.308   5.978
 3809POPC   C1A49431  17.643  10.980   6.327
 3809POPC   D2A49432  17.565  11.313   6.632
 3809POPC   C3A49433  17.694  11.229   7.030
 3809POPC   C4A49434  17.595  11.079   7.436
 3809POPC   C1B49435  17.278  11.498   6.253
 3809POPC   C2B49436  17.242  11.849   6.556
 3809POPC   C3B49437  17.327  11.757   6.957
 3809POPC   C4B49438  17.366  11.514   7.305
 3810POPC   NC349439   2.224  17.854   5.546
 3810POPC   PO449440   1.988  17.254   5.340
 3810POPC   GL149441   1.995  17.416   5.750
 3810POPC   GL249442   2.336  17.405   5.842
 3810POPC   C1A49443   1.983  17.679   6.149
 3810POPC   D2A49444   2.119  17.699   6.534
 3810POPC   C3A49445   2.018  17.847   6.913
 3810POPC   C4A49446   1.829  17.702   7.268
 3810POPC   C1B49447   2.111  17.171   6.182
 3810POPC   C2B49448   1.973  17.121   6.588
 3810POPC   C3B49449   2.099  17.339   6.927
 3810POPC   C4B49450   2.145  17.284   7.292
 3811POPC   NC349451  17.643  33.621   5.441
 3811POPC   PO449452  17.040  33.470   5.438
 3811POPC   GL149453  17.227  33.753   5.769
 3811POPC   GL249454  17.545  33.976   5.786
 3811POPC   C1A49455  17.296  33.846   6.210
 3811POPC   D2A49456  17.406  33.648   6.592
 3811POPC   C3A49457  17.330  33.935   6.944
 3811POPC   C4A49458  17.041  34.275   7.078
 3811POPC   C1B49459  17.786  33.684   6.090
 3811POPC   C2B49460  17.917  33.720   6.525
 3811POPC   C3B49461  17.782  33.543   6.928
 3811POPC   C4B49462  17.705  33.809   7.261
 3812POPC   NC349463  42.466  22.282   5.380
 3812POPC   PO449464  42.217  21.742   5.499
 3812POPC   GL149465  42.268  22.095   5.804
 3812POPC   GL249466  42.624  22.154   5.872
 3812POPC   C1A49467  42.252  22.170   6.247
 3812POPC   D2A49468  42.268  21.935   6.607
 3812POPC   C3A49469  42.053  22.115   6.911
 3812POPC   C4A49470  42.069  22.197   7.315
 3812POPC   C1B49471  42.664  21.895   6.269
 3812POPC   C2B49472  42.851  21.899   6.679
 3812POPC   C3B49473  42.560  21.947   7.037
 3812POPC   C4B49474  42.532  22.104   7.456
 3813POPC   NC349475  44.784  30.500   5.417
 3813POPC   PO449476  44.485  31.063   5.238
 3813POPC   GL149477  44.559  30.993   5.725
 3813POPC   GL249478  44.840  30.764   5.860
 3813POPC   C1A49479  44.577  31.078   6.205
 3813POPC   D2A49480  44.479  30.888   6.626
 3813POPC   C3A49481  44.728  30.855   6.998
 3813POPC   C4A49482  44.648  30.948   7.417
 3813POPC   C1B49483  44.586  30.525   6.173
 3813POPC   C2B49484  44.687  30.221   6.513
 3813POPC   C3B49485  44.726  30.313   6.964
 3813POPC   C4B49486  44.895  30.209   7.366
 3814POPC   NC349487  18.631  26.173   5.427
 3814POPC   PO449488  17.992  25.798   5.458
 3814POPC   GL149489  18.229  26.016   5.750
 3814POPC   GL249490  18.481  25.795   5.747
 3814POPC   C1A49491  18.287  26.225   6.145
 3814POPC   D2A49492  18.023  26.265   6.540
 3814POPC   C3A49493  18.325  26.237   6.889
 3814POPC   C4A49494  18.280  26.040   7.279
 3814POPC   C1B49495  18.554  25.786   6.150
 3814POPC   C2B49496  18.337  25.854   6.501
 3814POPC   C3B49497  18.371  25.736   6.886
 3814POPC   C4B49498  18.696  25.706   7.195
 3815POPC   NC349499  31.010  19.692   5.466
 3815POPC   PO449500  30.518  20.176   5.586
 3815POPC   GL149501  30.633  20.075   5.983
 3815POPC   GL249502  30.789  19.801   5.919
 3815POPC   C1A49503  30.409  19.840   6.318
 3815POPC   D2A49504  30.203  19.966   6.710
 3815POPC   C3A49505  30.563  19.978   7.036
 3815POPC   C4A49506  30.408  19.971   7.464
 3815POPC   C1B49507  30.829  19.506   6.224
 3815POPC   C2B49508  30.844  19.550   6.625
 3815POPC   C3B49509  30.745  19.492   7.025
 3815POPC   C4B49510  30.759  19.631   7.416
 3816POPC   NC349511   3.708  31.383   5.561
 3816POPC   PO449512   3.097  31.314   5.479
 3816POPC   GL149513   3.273  31.443   5.860
 3816POPC   GL249514   3.420  31.764   5.785
 3816POPC   C1A49515   3.301  31.424   6.330
 3816POPC   D2A49516   3.342  31.067   6.631
 3816POPC   C3A49517   3.645  31.102   6.944
 3816POPC   C4A49518   3.599  31.181   7.364
 3816POPC   C1B49519   3.710  31.693   6.159
 3816POPC   C2B49520   3.737  31.547   6.618
 3816POPC   C3B49521   3.587  31.614   7.060
 3816POPC   C4B49522   3.598  31.664   7.532
 3817POPC   NC349523  38.640   7.005   5.590
 3817POPC   PO449524  38.360   6.505   5.280
 3817POPC   GL149525  38.276   6.502   5.733
 3817POPC   GL249526  38.191   6.864   5.813
 3817POPC   C1A49527  38.516   6.474   6.133
 3817POPC   D2A49528  38.724   6.669   6.513
 3817POPC   C3A49529  38.517   6.499   6.883
 3817POPC   C4A49530  38.405   6.592   7.297
 3817POPC   C1B49531  38.389   6.994   6.202
 3817POPC   C2B49532  38.271   6.901   6.608
 3817POPC   C3B49533  38.422   7.039   6.987
 3817POPC   C4B49534  38.278   7.075   7.390
 3818POPC   NC349535  17.887  31.397   5.432
 3818POPC   PO449536  17.219  31.560   5.507
 3818POPC   GL149537  17.456  31.607   5.897
 3818POPC   GL249538  17.782  31.734   5.858
 3818POPC   C1A49539  17.529  31.530   6.349
 3818POPC   D2A49540  17.391  31.781   6.704
 3818POPC   C3A49541  17.415  31.609   7.099
 3818POPC   C4A49542  17.288  31.189   7.208
 3818POPC   C1B49543  17.844  31.927   6.241
 3818POPC   C2B49544  17.898  31.750   6.657
 3818POPC   C3B49545  17.921  31.760   7.124
 3818POPC   C4B49546  17.723  31.625   7.530
 3819POPC   NC349547   3.071  20.211   5.421
 3819POPC   PO449548   3.685  20.383   5.481
 3819POPC   GL149549   3.401  20.351   5.846
 3819POPC   GL249550   3.236  20.035   5.879
 3819POPC   C1A49551   3.540  20.250   6.287
 3819POPC   D2A49552   3.802  20.425   6.632
 3819POPC   C3A49553   3.589  20.521   6.993
 3819POPC   C4A49554   3.283  20.811   7.168
 3819POPC   C1B49555   3.036  20.234   6.254
 3819POPC   C2B49556   3.217  20.337   6.682
 3819POPC   C3B49557   3.143  20.314   7.131
 3819POPC   C4B49558   2.924  20.549   7.460
 3820POPC   NC349559  34.931  28.222   5.540
 3820POPC   PO449560  35.622  28.397   5.592
 3820POPC   GL149561  35.323  28.451   5.865
 3820POPC   GL249562  35.282  28.096   5.904
 3820POPC   C1A49563  35.286  28.509   6.297
 3820POPC   D2A49564  35.484  28.363   6.669
 3820POPC   C3A49565  35.392  28.670   7.030
 3820POPC   C4A49566  35.212  28.631   7.435
 3820POPC   C1B49567  35.052  28.050   6.275
 3820POPC   C2B49568  35.003  28.221   6.695
 3820POPC   C3B49569  35.199  28.210   7.084
 3820POPC   C4B49570  35.062  28.106   7.461
 3821POPC   NC349571  25.039   7.854   5.580
 3821POPC   PO449572  25.495   8.242   5.302
 3821POPC   GL149573  25.455   8.287   5.781
 3821POPC   GL249574  25.159   8.169   6.041
 3821POPC   C1A49575  25.593   8.347   6.233
 3821POPC   D2A49576  25.334   8.182   6.603
 3821POPC   C3A49577  25.529   8.108   7.028
 3821POPC   C4A49578  25.484   8.381   7.402
 3821POPC   C1B49579  24.779   7.909   6.201
 3821POPC   C2B49580  24.768   7.733   6.614
 3821POPC   C3B49581  25.039   7.872   6.924
 3821POPC   C4B49582  25.051   8.202   7.201
 3822POPC   NC349583   8.782  21.147   5.442
 3822POPC   PO449584   8.817  20.506   5.282
 3822POPC   GL149585   8.975  20.505   5.726
 3822POPC   GL249586   9.065  20.818   5.825
 3822POPC   C1A49587   8.963  20.464   6.200
 3822POPC   D2A49588   9.180  20.558   6.599
 3822POPC   C3A49589   8.969  20.563   7.003
 3822POPC   C4A49590   9.024  20.371   7.454
 3822POPC   C1B49591   9.086  20.974   6.257
 3822POPC   C2B49592   8.964  21.030   6.676
 3822POPC   C3B49593   9.118  21.076   7.065
 3822POPC   C4B49594   9.030  20.876   7.402
 3823POPC   NC349595  38.792  44.374   5.248
 3823POPC   PO449596  38.149  44.639   5.391
 3823POPC   GL149597  38.242  44.738   5.816
 3823POPC   GL249598  38.626  44.840   5.857
 3823POPC   C1A49599  38.121  44.784   6.223
 3823POPC   D2A49600  38.377  44.731   6.573
 3823POPC   C3A49601  38.200  44.815   6.966
 3823POPC   C4A49602  38.048  44.562   7.318
 3823POPC   C1B49603  38.763  44.550   6.192
 3823POPC   C2B49604  38.886  44.432   6.616
 3823POPC   C3B49605  38.700  44.649   6.950
 3823POPC   C4B49606  38.559  44.550   7.298
 3824POPC   NC349607  41.775  24.550   5.328
 3824POPC   PO449608  41.312  24.827   5.736
 3824POPC   GL149609  41.373  24.442   5.924
 3824POPC   GL249610  41.733  24.470   5.830
 3824POPC   C1A49611  41.332  24.393   6.382
 3824POPC   D2A49612  41.577  24.640   6.691
 3824POPC   C3A49613  41.377  24.613   7.087
 3824POPC   C4A49614  41.348  24.301   7.354
 3824POPC   C1B49615  41.809  24.386   6.235
 3824POPC   C2B49616  41.742  24.136   6.582
 3824POPC   C3B49617  41.768  24.266   7.004
 3824POPC   C4B49618  41.914  24.642   7.195
 3825POPC   NC349619  10.657   9.780   5.204
 3825POPC   PO449620  10.477   9.594   5.823
 3825POPC   GL149621  10.438   9.984   5.983
 3825POPC   GL249622  10.101   9.888   6.011
 3825POPC   C1A49623  10.632  10.235   6.327
 3825POPC   D2A49624  10.429  10.229   6.738
 3825POPC   C3A49625  10.609   9.991   7.082
 3825POPC   C4A49626  10.554   9.589   7.256
 3825POPC   C1B49627  10.157   9.645   6.389
 3825POPC   C2B49628  10.288   9.680   6.799
 3825POPC   C3B49629  10.114   9.798   7.175
 3825POPC   C4B49630  10.158   9.638   7.591
 3826POPC   NC349631   9.469  33.087   5.496
 3826POPC   PO449632  10.053  32.837   5.314
 3826POPC   GL149633   9.931  32.938   5.749
 3826POPC   GL249634   9.643  32.763   5.833
 3826POPC   C1A49635   9.856  33.048   6.208
 3826POPC   D2A49636   9.839  32.810   6.633
 3826POPC   C3A49637   9.922  33.050   7.015
 3826POPC   C4A49638  10.087  33.468   7.167
 3826POPC   C1B49639   9.560  32.609   6.241
 3826POPC   C2B49640   9.302  32.653   6.630
 3826POPC   C3B49641   9.391  32.857   7.049
 3826POPC   C4B49642   9.655  32.756   7.406
 3827POPC   NC349643  37.348  21.484   5.126
 3827POPC   PO449644  36.905  21.297   5.571
 3827POPC   GL149645  36.990  21.367   5.994
 3827POPC   GL249646  37.206  21.109   6.096
 3827POPC   C1A49647  36.856  21.340   6.431
 3827POPC   D2A49648  36.992  21.577   6.784
 3827POPC   C3A49649  36.877  21.495   7.214
 3827POPC   C4A49650  36.629  21.182   7.386
 3827POPC   C1B49651  37.132  20.901   6.419
 3827POPC   C2B49652  37.240  21.104   6.745
 3827POPC   C3B49653  37.198  21.113   7.142
 3827POPC   C4B49654  37.109  21.101   7.550
 3828POPC   NC349655  12.884  14.189   5.523
 3828POPC   PO449656  12.782  14.819   5.445
 3828POPC   GL149657  12.747  14.556   5.869
 3828POPC   GL249658  12.662  14.174   5.956
 3828POPC   C1A49659  12.705  14.545   6.316
 3828POPC   D2A49660  12.778  14.745   6.692
 3828POPC   C3A49661  12.544  14.684   7.021
 3828POPC   C4A49662  12.788  14.760   7.335
 3828POPC   C1B49663  12.638  14.041   6.345
 3828POPC   C2B49664  12.612  14.228   6.721
 3828POPC   C3B49665  12.361  14.203   7.055
 3828POPC   C4B49666  12.574  14.311   7.405
 3829POPC   NC349667  21.723  11.605   5.462
 3829POPC   PO449668  21.360  11.118   5.376
 3829POPC   GL149669  21.272  11.163   5.782
 3829POPC   GL249670  21.309  11.479   5.801
 3829POPC   C1A49671  21.342  11.090   6.207
 3829POPC   D2A49672  21.138  10.871   6.545
 3829POPC   C3A49673  21.194  11.065   6.939
 3829POPC   C4A49674  21.426  11.086   7.327
 3829POPC   C1B49675  21.233  11.600   6.189
 3829POPC   C2B49676  21.211  11.537   6.616
 3829POPC   C3B49677  21.405  11.531   7.034
 3829POPC   C4B49678  21.559  11.563   7.468
 3830POPC   NC349679  39.459  21.678   5.607
 3830POPC   PO449680  39.687  21.069   5.585
 3830POPC   GL149681  39.455  21.247   5.924
 3830POPC   GL249682  39.107  21.266   5.870
 3830POPC   C1A49683  39.324  21.593   6.258
 3830POPC   D2A49684  39.049  21.846   6.562
 3830POPC   C3A49685  39.208  21.764   6.985
 3830POPC   C4A49686  39.441  21.510   7.293
 3830POPC   C1B49687  38.926  21.283   6.306
 3830POPC   C2B49688  38.932  21.380   6.740
 3830POPC   C3B49689  38.951  21.338   7.171
 3830POPC   C4B49690  39.232  21.040   7.335
 3831POPC   NC349691   5.282   8.247   5.337
 3831POPC   PO449692   4.560   8.384   5.334
 3831POPC   GL149693   4.908   8.334   5.678
 3831POPC   GL249694   4.916   8.014   5.847
 3831POPC   C1A49695   5.097   8.392   6.120
 3831POPC   D2A49696   5.039   8.168   6.523
 3831POPC   C3A49697   5.302   8.353   6.805
 3831POPC   C4A49698   5.214   8.370   7.217
 3831POPC   C1B49699   5.224   7.847   6.191
 3831POPC   C2B49700   5.262   7.705   6.614
 3831POPC   C3B49701   5.146   7.904   6.982
 3831POPC   C4B49702   5.208   7.838   7.398
 3832POPC   NC349703  40.152  10.730   5.360
 3832POPC   PO449704  39.808  10.114   5.330
 3832POPC   GL149705  40.018  10.333   5.712
 3832POPC   GL249706  40.331  10.515   5.792
 3832POPC   C1A49707  39.988  10.249   6.168
 3832POPC   D2A49708  39.962  10.094   6.605
 3832POPC   C3A49709  39.886  10.363   6.981
 3832POPC   C4A49710  39.822  10.828   7.058
 3832POPC   C1B49711  40.341  10.623   6.231
 3832POPC   C2B49712  40.181  10.743   6.664
 3832POPC   C3B49713  40.319  10.679   7.070
 3832POPC   C4B49714  40.494  10.751   7.481
 3833POPC   NC349715   1.176  26.146   5.433
 3833POPC   PO449716   0.711  25.739   5.824
 3833POPC   GL149717   1.052  26.064   5.958
 3833POPC   GL249718   1.403  26.188   5.890
 3833POPC   C1A49719   1.195  26.211   6.366
 3833POPC   D2A49720   1.283  26.015   6.761
 3833POPC   C3A49721   1.170  26.185   7.153
 3833POPC   C4A49722   1.213  26.285   7.591
 3833POPC   C1B49723   1.558  25.888   6.189
 3833POPC   C2B49724   1.745  25.895   6.586
 3833POPC   C3B49725   1.782  26.073   7.009
 3833POPC   C4B49726   1.730  25.821   7.371
 3834POPC   NC349727  14.859   9.273   5.517
 3834POPC   PO449728  15.576   9.270   5.412
 3834POPC   GL149729  15.352   9.052   5.760
 3834POPC   GL249730  15.153   8.733   5.689
 3834POPC   C1A49731  15.476   8.786   6.142
 3834POPC   D2A49732  15.310   8.878   6.550
 3834POPC   C3A49733  15.325   8.763   6.974
 3834POPC   C4A49734  15.220   9.177   7.166
 3834POPC   C1B49735  14.967   8.873   6.096
 3834POPC   C2B49736  14.811   8.776   6.508
 3834POPC   C3B49737  14.794   8.954   6.919
 3834POPC   C4B49738  14.914   8.763   7.297
 3835POPC   NC349739  43.847  38.844   5.396
 3835POPC   PO449740  43.667  38.189   5.431
 3835POPC   GL149741  43.763  38.448   5.766
 3835POPC   GL249742  43.762  38.158   5.957
 3835POPC   C1A49743  43.734  38.590   6.215
 3835POPC   D2A49744  43.908  38.751   6.586
 3835POPC   C3A49745  43.649  38.677   6.931
 3835POPC   C4A49746  44.006  38.601   7.147
 3835POPC   C1B49747  43.977  38.074   6.332
 3835POPC   C2B49748  43.981  38.262   6.725
 3835POPC   C3B49749  44.172  38.128   7.062
 3835POPC   C4B49750  44.011  37.884   7.331
 3836POPC   NC349751  43.220  18.296   4.904
 3836POPC   PO449752  42.979  18.032   5.494
 3836POPC   GL149753  43.104  18.158   5.907
 3836POPC   GL249754  43.041  18.469   5.893
 3836POPC   C1A49755  43.335  18.305   6.295
 3836POPC   D2A49756  43.206  18.348   6.713
 3836POPC   C3A49757  43.456  18.508   7.020
 3836POPC   C4A49758  43.275  18.377   7.413
 3836POPC   C1B49759  42.870  18.527   6.304
 3836POPC   C2B49760  42.731  18.514   6.713
 3836POPC   C3B49761  42.836  18.519   7.162
 3836POPC   C4B49762  42.831  18.522   7.638
 3837POPC   NC349763  20.762  44.212   5.355
 3837POPC   PO449764  20.535  43.571   5.504
 3837POPC   GL149765  20.782  43.840   5.770
 3837POPC   GL249766  20.507  44.048   5.793
 3837POPC   C1A49767  20.746  43.957   6.243
 3837POPC   D2A49768  20.753  44.025   6.720
 3837POPC   C3A49769  20.965  43.674   6.964
 3837POPC   C4A49770  21.166  43.599   7.399
 3837POPC   C1B49771  20.250  43.800   6.130
 3837POPC   C2B49772  20.163  43.628   6.589
 3837POPC   C3B49773  20.409  43.728   6.994
 3837POPC   C4B49774  20.529  44.174   7.214
 3838POPC   NC349775  25.822  29.043   5.419
 3838POPC   PO449776  25.202  29.088   5.646
 3838POPC   GL149777  25.520  29.125   5.879
 3838POPC   GL249778  25.609  29.445   5.738
 3838POPC   C1A49779  25.370  29.062   6.278
 3838POPC   D2A49780  25.146  29.329   6.502
 3838POPC   C3A49781  25.163  29.153   6.875
 3838POPC   C4A49782  25.041  29.233   7.260
 3838POPC   C1B49783  25.699  29.473   6.222
 3838POPC   C2B49784  25.626  29.297   6.673
 3838POPC   C3B49785  25.597  29.442   7.103
 3838POPC   C4B49786  25.534  29.321   7.531
 3839POPC   NC349787   9.197  22.041   5.272
 3839POPC   PO449788   8.607  22.034   5.409
 3839POPC   GL149789   8.932  22.104   5.738
 3839POPC   GL249790   9.203  22.365   5.732
 3839POPC   C1A49791   8.808  22.192   6.149
 3839POPC   D2A49792   8.778  22.337   6.575
 3839POPC   C3A49793   9.000  22.091   6.864
 3839POPC   C4A49794   9.118  21.917   7.251
 3839POPC   C1B49795   9.283  22.370   6.201
 3839POPC   C2B49796   9.266  22.530   6.657
 3839POPC   C3B49797   9.325  22.405   7.115
 3839POPC   C4B49798   9.391  22.458   7.579
 3840POPC   NC349799  26.676  12.397   5.412
 3840POPC   PO449800  27.128  11.756   5.397
 3840POPC   GL149801  27.022  11.873   5.783
 3840POPC   GL249802  26.712  12.005   5.769
 3840POPC   C1A49803  27.054  12.032   6.199
 3840POPC   D2A49804  26.909  12.112   6.614
 3840POPC   C3A49805  27.078  11.814   6.913
 3840POPC   C4A49806  27.014  11.920   7.336
 3840POPC   C1B49807  26.520  12.143   6.172
 3840POPC   C2B49808  26.410  12.311   6.618
 3840POPC   C3B49809  26.495  12.153   7.059
 3840POPC   C4B49810  26.406  12.207   7.533
 3841POPC   NC349811  44.084  34.845   5.533
 3841POPC   PO449812  43.526  35.093   5.315
 3841POPC   GL149813  43.602  34.861   5.774
 3841POPC   GL249814  43.777  34.502   5.756
 3841POPC   C1A49815  43.733  34.785   6.225
 3841POPC   D2A49816  43.963  34.576   6.587
 3841POPC   C3A49817  43.794  34.697   7.000
 3841POPC   C4A49818  43.922  34.802   7.468
 3841POPC   C1B49819  43.780  34.256   6.132
 3841POPC   C2B49820  43.613  34.183   6.528
 3841POPC   C3B49821  43.782  34.118   6.925
 3841POPC   C4B49822  43.809  34.319   7.316
 3842POPC   NC349823  10.222  19.487   5.460
 3842POPC   PO449824  10.700  20.076   5.537
 3842POPC   GL149825  10.499  19.825   5.842
 3842POPC   GL249826  10.469  19.446   5.896
 3842POPC   C1A49827  10.550  19.776   6.282
 3842POPC   D2A49828  10.338  19.696   6.651
 3842POPC   C3A49829  10.626  19.734   6.960
 3842POPC   C4A49830  10.696  20.084   7.202
 3842POPC   C1B49831  10.402  19.293   6.326
 3842POPC   C2B49832  10.224  19.198   6.751
 3842POPC   C3B49833  10.276  19.418   7.148
 3842POPC   C4B49834  10.261  19.846   7.298
 3843POPC   NC349835  31.474   1.241   5.341
 3843POPC   PO449836  31.872   0.776   5.660
 3843POPC   GL149837  31.606   1.071   5.884
 3843POPC   GL249838  31.434   1.388   5.817
 3843POPC   C1A49839  31.659   1.289   6.287
 3843POPC   D2A49840  31.823   1.253   6.715
 3843POPC   C3A49841  31.509   1.028   7.022
 3843POPC   C4A49842  31.541   0.739   7.365
 3843POPC   C1B49843  31.172   1.662   6.046
 3843POPC   C2B49844  31.384   1.690   6.446
 3843POPC   C3B49845  31.355   1.482   6.813
 3843POPC   C4B49846  31.157   1.391   7.193
 3844POPC   NC349847  27.864  22.397   5.471
 3844POPC   PO449848  27.401  21.918   5.394
 3844POPC   GL149849  27.264  21.945   5.806
 3844POPC   GL249850  27.386  22.288   5.889
 3844POPC   C1A49851  27.416  21.892   6.225
 3844POPC   D2A49852  27.578  22.131   6.545
 3844POPC   C3A49853  27.593  22.010   6.964
 3844POPC   C4A49854  27.718  21.902   7.377
 3844POPC   C1B49855  27.739  22.448   6.147
 3844POPC   C2B49856  27.945  22.469   6.549
 3844POPC   C3B49857  27.764  22.478   6.922
 3844POPC   C4B49858  27.791  22.442   7.369
 3845POPC   NC349859  41.854  19.915   5.639
 3845POPC   PO449860  41.388  19.576   5.287
 3845POPC   GL149861  41.420  19.669   5.808
 3845POPC   GL249862  41.724  19.605   6.016
 3845POPC   C1A49863  41.383  19.700   6.344
 3845POPC   D2A49864  41.403  20.038   6.623
 3845POPC   C3A49865  41.538  19.917   6.995
 3845POPC   C4A49866  41.598  19.509   7.127
 3845POPC   C1B49867  41.792  19.997   6.280
 3845POPC   C2B49868  41.931  20.103   6.690
 3845POPC   C3B49869  41.846  20.306   7.092
 3845POPC   C4B49870  41.479  20.301   7.366
 3846POPC   NC349871  19.272  21.091   5.486
 3846POPC   PO449872  18.856  21.640   5.320
 3846POPC   GL149873  18.967  21.510   5.744
 3846POPC   GL249874  18.661  21.681   5.828
 3846POPC   C1A49875  19.197  21.386   6.139
 3846POPC   D2A49876  19.018  21.275   6.542
 3846POPC   C3A49877  19.226  21.198   6.930
 3846POPC   C4A49878  19.358  21.373   7.295
 3846POPC   C1B49879  18.647  21.362   6.152
 3846POPC   C2B49880  18.519  21.224   6.575
 3846POPC   C3B49881  18.729  21.304   6.983
 3846POPC   C4B49882  18.853  21.421   7.383
 3847POPC   NC349883  29.917  20.807   5.416
 3847POPC   PO449884  29.400  20.499   5.458
 3847POPC   GL149885  29.628  20.768   5.841
 3847POPC   GL249886  30.003  20.929   5.900
 3847POPC   C1A49887  29.742  20.808   6.321
 3847POPC   D2A49888  29.896  20.538   6.679
 3847POPC   C3A49889  29.850  20.696   7.105
 3847POPC   C4A49890  29.465  20.643   7.304
 3847POPC   C1B49891  30.350  20.946   6.228
 3847POPC   C2B49892  30.340  20.832   6.675
 3847POPC   C3B49893  30.332  20.864   7.129
 3847POPC   C4B49894  30.311  20.882   7.606
 3848POPC   NC349895  24.604   3.797   5.358
 3848POPC   PO449896  24.395   4.537   5.395
 3848POPC   GL149897  24.501   4.210   5.692
 3848POPC   GL249898  24.522   4.465   5.932
 3848POPC   C1A49899  24.327   4.034   6.114
 3848POPC   D2A49900  24.245   4.236   6.533
 3848POPC   C3A49901  24.420   4.043   6.915
 3848POPC   C4A49902  24.253   3.982   7.320
 3848POPC   C1B49903  24.600   4.807   6.217
 3848POPC   C2B49904  24.820   4.811   6.581
 3848POPC   C3B49905  24.552   4.583   6.824
 3848POPC   C4B49906  24.501   4.465   7.206
 3849POPC   NC349907  16.254   7.095   5.547
 3849POPC   PO449908  15.900   7.622   5.255
 3849POPC   GL149909  15.957   7.576   5.716
 3849POPC   GL249910  16.330   7.598   5.768
 3849POPC   C1A49911  15.749   7.536   6.158
 3849POPC   D2A49912  15.729   7.390   6.620
 3849POPC   C3A49913  15.872   7.412   7.070
 3849POPC   C4A49914  16.236   7.186   7.255
 3849POPC   C1B49915  16.250   7.461   6.191
 3849POPC   C2B49916  16.266   7.420   6.658
 3849POPC   C3B49917  16.336   7.637   7.048
 3849POPC   C4B49918  16.406   7.618   7.479
 3850POPC   NC349919  20.134  21.395   5.412
 3850POPC   PO449920  19.433  21.525   5.502
 3850POPC   GL149921  19.771  21.304   5.786
 3850POPC   GL249922  20.151  21.182   5.862
 3850POPC   C1A49923  19.909  21.583   6.131
 3850POPC   D2A49924  19.697  21.727   6.513
 3850POPC   C3A49925  19.680  21.471   6.895
 3850POPC   C4A49926  19.904  21.288   7.247
 3850POPC   C1B49927  20.073  21.128   6.311
 3850POPC   C2B49928  20.112  21.142   6.763
 3850POPC   C3B49929  20.156  20.844   7.102
 3850POPC   C4B49930  20.081  20.921   7.537
 3851POPC   NC349931  40.309  11.626   5.362
 3851POPC   PO449932  39.854  11.111   5.403
 3851POPC   GL149933  40.065  10.988   5.812
 3851POPC   GL249934  40.207  11.303   5.970
 3851POPC   C1A49935  39.958  10.984   6.278
 3851POPC   D2A49936  40.108  11.265   6.658
 3851POPC   C3A49937  39.960  11.345   7.101
 3851POPC   C4A49938  39.933  11.502   7.542
 3851POPC   C1B49939  40.461  11.106   6.319
 3851POPC   C2B49940  40.641  11.193   6.709
 3851POPC   C3B49941  40.466  11.162   7.110
 3851POPC   C4B49942  40.402  11.399   7.449
 3852POPC   NC349943   8.850  36.475   5.429
 3852POPC   PO449944   9.156  35.846   5.536
 3852POPC   GL149945   9.121  36.098   5.858
 3852POPC   GL249946   8.780  36.187   5.843
 3852POPC   C1A49947   8.951  35.909   6.235
 3852POPC   D2A49948   8.686  35.824   6.584
 3852POPC   C3A49949   8.969  35.882   6.931
 3852POPC   C4A49950   8.874  35.998   7.322
 3852POPC   C1B49951   8.703  36.384   6.237
 3852POPC   C2B49952   8.733  36.337   6.690
 3852POPC   C3B49953   8.533  36.319   7.087
 3852POPC   C4B49954   8.707  36.441   7.501
 3853POPC   NC349955  22.892  12.277   5.142
 3853POPC   PO449956  23.222  11.790   5.488
 3853POPC   GL149957  23.038  12.037   5.817
 3853POPC   GL249958  22.704  12.204   5.809
 3853POPC   C1A49959  22.952  12.005   6.268
 3853POPC   D2A49960  23.089  11.818   6.649
 3853POPC   C3A49961  22.813  11.958   6.977
 3853POPC   C4A49962  22.995  11.827   7.351
 3853POPC   C1B49963  22.529  12.480   6.162
 3853POPC   C2B49964  22.567  12.679   6.600
 3853POPC   C3B49965  22.684  12.549   7.060
 3853POPC   C4B49966  22.673  12.222   7.400
 3854POPC   NC349967  38.722   9.227   5.642
 3854POPC   PO449968  38.255   8.832   5.440
 3854POPC   GL149969  38.422   8.774   5.794
 3854POPC   GL249970  38.658   8.570   5.679
 3854POPC   C1A49971  38.248   8.658   6.190
 3854POPC   D2A49972  38.263   8.851   6.574
 3854POPC   C3A49973  38.360   8.636   6.908
 3854POPC   C4A49974  38.472   8.918   7.197
 3854POPC   C1B49975  38.743   8.554   6.130
 3854POPC   C2B49976  38.747   8.733   6.543
 3854POPC   C3B49977  38.901   8.701   6.951
 3854POPC   C4B49978  38.935   8.870   7.366
 3855POPC   NC349979  26.185  42.962   5.394
 3855POPC   PO449980  25.965  43.517   5.323
 3855POPC   GL149981  26.034  43.285   5.786
 3855POPC   GL249982  26.223  42.937   5.898
 3855POPC   C1A49983  25.861  43.362   6.232
 3855POPC   D2A49984  25.646  43.494   6.649
 3855POPC   C3A49985  25.782  43.308   7.073
 3855POPC   C4A49986  26.215  43.287   7.279
 3855POPC   C1B49987  26.286  43.084   6.335
 3855POPC   C2B49988  25.974  43.085   6.648
 3855POPC   C3B49989  25.853  42.799   6.957
 3855POPC   C4B49990  25.943  42.822   7.389
 3856POPC   NC349991  16.357   7.591   5.246
 3856POPC   PO449992  16.775   7.168   5.426
 3856POPC   GL149993  16.698   7.218   5.837
 3856POPC   GL249994  16.836   7.521   5.896
 3856POPC   C1A49995  16.680   7.204   6.281
 3856POPC   D2A49996  16.818   6.975   6.613
 3856POPC   C3A49997  16.678   7.243   6.942
 3856POPC   C4A49998  16.733   7.243   7.365
 3856POPC   C1B49999  16.686   7.750   6.261
 3856POPC   C2B50000  16.744   7.741   6.721
 3856POPC   C3B50001  16.853   7.694   7.169
 3856POPC   C4B50002  16.834   7.829   7.615
 3857POPC   NC350003  28.112  23.969   5.428
 3857POPC   PO450004  28.489  23.459   5.243
 3857POPC   GL150005  28.479  23.597   5.773
 3857POPC   GL250006  28.280  23.826   5.866
 3857POPC   C1A50007  28.334  23.724   6.336
 3857POPC   D2A50008  28.593  23.900   6.697
 3857POPC   C3A50009  28.480  23.799   7.150
 3857POPC   C4A50010  28.259  23.781   7.553
 3857POPC   C1B50011  27.974  24.012   6.130
 3857POPC   C2B50012  27.961  24.089   6.530
 3857POPC   C3B50013  28.143  24.102   6.901
 3857POPC   C4B50014  28.176  24.220   7.331
 3858POPC   NC350015   4.314  42.582   5.465
 3858POPC   PO450016   4.173  41.927   5.401
 3858POPC   GL150017   4.248  42.150   5.810
 3858POPC   GL250018   4.053  42.467   5.898
 3858POPC   C1A50019   4.293  42.241   6.276
 3858POPC   D2A50020   4.033  42.119   6.633
 3858POPC   C3A50021   4.252  42.159   7.008
 3858POPC   C4A50022   4.393  42.397   7.328
 3858POPC   C1B50023   4.398  42.735   6.132
 3858POPC   C2B50024   4.659  42.626   6.506
 3858POPC   C3B50025   4.740  42.372   6.878
 3858POPC   C4B50026   4.877  42.543   7.267
 3859POPC   NC350027  17.939   1.095   5.556
 3859POPC   PO450028  17.465   1.525   5.421
 3859POPC   GL150029  17.403   1.154   5.708
 3859POPC   GL250030  17.110   1.301   5.829
 3859POPC   C1A50031  17.346   0.966   6.156
 3859POPC   D2A50032  17.360   1.159   6.597
 3859POPC   C3A50033  17.394   0.936   7.011
 3859POPC   C4A50034  17.582   1.105   7.383
 3859POPC   C1B50035  17.007   1.401   6.247
 3859POPC   C2B50036  16.973   1.663   6.623
 3859POPC   C3B50037  17.104   1.440   7.006
 3859POPC   C4B50038  17.091   1.304   7.427
 3860POPC   NC350039  41.939  36.894   5.544
 3860POPC   PO450040  42.570  36.814   5.621
 3860POPC   GL150041  42.445  37.153   5.908
 3860POPC   GL250042  42.133  37.324   5.857
 3860POPC   C1A50043  42.250  37.016   6.294
 3860POPC   D2A50044  42.400  36.690   6.595
 3860POPC   C3A50045  42.518  36.923   6.943
 3860POPC   C4A50046  42.283  37.025   7.301
 3860POPC   C1B50047  41.912  37.415   6.272
 3860POPC   C2B50048  41.789  37.210   6.681
 3860POPC   C3B50049  41.921  37.325   7.112
 3860POPC   C4B50050  41.938  37.241   7.594
 3861POPC   NC350051  37.843  37.884   5.335
 3861POPC   PO450052  37.314  37.516   5.339
 3861POPC   GL150053  37.549  37.410   5.763
 3861POPC   GL250054  37.593  37.756   5.844
 3861POPC   C1A50055  37.863  37.433   6.154
 3861POPC   D2A50056  37.897  37.750   6.543
 3861POPC   C3A50057  37.853  37.638   7.011
 3861POPC   C4A50058  37.656  37.408   7.372
 3861POPC   C1B50059  37.425  37.651   6.280
 3861POPC   C2B50060  37.469  37.486   6.698
 3861POPC   C3B50061  37.297  37.601   7.073
 3861POPC   C4B50062  37.504  37.894   7.303
 3862POPC   NC350063  23.556   8.789   5.465
 3862POPC   PO450064  23.960   9.374   5.498
 3862POPC   GL150065  23.696   9.166   5.768
 3862POPC   GL250066  23.949   8.902   5.787
 3862POPC   C1A50067  23.458   9.131   6.170
 3862POPC   D2A50068  23.584   9.251   6.600
 3862POPC   C3A50069  23.620   8.904   6.843
 3862POPC   C4A50070  23.791   8.810   7.222
 3862POPC   C1B50071  23.950   9.094   6.199
 3862POPC   C2B50072  24.047   9.038   6.584
 3862POPC   C3B50073  24.004   9.237   6.968
 3862POPC   C4B50074  23.656   9.383   7.172
 3863POPC   NC350075  27.986  34.392   5.426
 3863POPC   PO450076  27.391  34.793   5.428
 3863POPC   GL150077  27.466  34.602   5.789
 3863POPC   GL250078  27.769  34.692   5.858
 3863POPC   C1A50079  27.402  34.683   6.220
 3863POPC   D2A50080  27.487  34.485   6.588
 3863POPC   C3A50081  27.318  34.673   6.935
 3863POPC   C4A50082  27.568  34.823   7.206
 3863POPC   C1B50083  27.802  34.269   6.090
 3863POPC   C2B50084  28.070  34.073   6.447
 3863POPC   C3B50085  28.054  34.142   6.915
 3863POPC   C4B50086  27.636  34.312   7.105
 3864POPC   NC350087  10.229  11.263   5.376
 3864POPC   PO450088  10.871  10.994   5.437
 3864POPC   GL150089  10.537  11.092   5.791
 3864POPC   GL250090  10.369  11.440   5.830
 3864POPC   C1A50091  10.354  11.152   6.236
 3864POPC   D2A50092  10.425  11.299   6.661
 3864POPC   C3A50093  10.619  11.019   6.957
 3864POPC   C4A50094  10.630  10.928   7.391
 3864POPC   C1B50095  10.730  11.504   6.138
 3864POPC   C2B50096  10.867  11.617   6.589
 3864POPC   C3B50097  10.785  11.530   7.049
 3864POPC   C4B50098  10.455  11.393   7.327
 3865POPC   NC350099  38.599  13.825   5.374
 3865POPC   PO450100  38.495  13.200   5.494
 3865POPC   GL150101  38.490  13.527   5.793
 3865POPC   GL250102  38.182  13.755   5.822
 3865POPC   C1A50103  38.656  13.654   6.199
 3865POPC   D2A50104  38.713  13.465   6.607
 3865POPC   C3A50105  38.777  13.706   6.973
 3865POPC   C4A50106  38.667  13.669   7.402
 3865POPC   C1B50107  38.149  13.623   6.279
 3865POPC   C2B50108  38.285  13.774   6.717
 3865POPC   C3B50109  38.164  13.725   7.182
 3865POPC   C4B50110  37.938  13.582   7.614
 3866POPC   NC350111  31.838  22.385   5.448
 3866POPC   PO450112  31.216  22.159   5.506
 3866POPC   GL150113  31.445  22.153   5.827
 3866POPC   GL250114  31.242  22.306   6.016
 3866POPC   C1A50115  31.558  21.894   6.155
 3866POPC   D2A50116  31.431  21.851   6.573
 3866POPC   C3A50117  31.720  22.002   6.893
 3866POPC   C4A50118  31.657  22.092   7.316
 3866POPC   C1B50119  31.115  22.510   6.379
 3866POPC   C2B50120  30.996  22.527   6.793
 3866POPC   C3B50121  31.209  22.290   7.103
 3866POPC   C4B50122  31.254  22.366   7.541
 3867POPC   NC350123  29.311  17.680   5.460
 3867POPC   PO450124  28.927  18.218   5.236
 3867POPC   GL150125  28.952  17.999   5.684
 3867POPC   GL250126  29.282  17.984   5.888
 3867POPC   C1A50127  28.844  18.094   6.155
 3867POPC   D2A50128  28.855  18.446   6.512
 3867POPC   C3A50129  29.030  18.405   6.970
 3867POPC   C4A50130  29.383  18.568   7.228
 3867POPC   C1B50131  29.342  18.262   6.208
 3867POPC   C2B50132  29.230  18.091   6.582
 3867POPC   C3B50133  29.379  17.978   6.961
 3867POPC   C4B50134  29.205  18.035   7.354
 3868POPC   NC350135  41.658   4.176   5.432
 3868POPC   PO450136  41.546   4.748   5.791
 3868POPC   GL150137  41.584   4.326   5.931
 3868POPC   GL250138  41.614   3.950   5.876
 3868POPC   C1A50139  41.438   4.196   6.301
 3868POPC   D2A50140  41.369   4.480   6.648
 3868POPC   C3A50141  41.366   4.279   7.022
 3868POPC   C4A50142  41.733   4.239   7.222
 3868POPC   C1B50143  41.809   3.790   6.249
 3868POPC   C2B50144  41.819   3.673   6.672
 3868POPC   C3B50145  41.610   3.778   7.053
 3868POPC   C4B50146  41.629   3.825   7.513
 3869POPC   NC350147  31.167  43.104   5.399
 3869POPC   PO450148  30.512  43.012   5.218
 3869POPC   GL150149  30.667  43.096   5.651
 3869POPC   GL250150  30.812  42.771   5.684
 3869POPC   C1A50151  30.537  43.291   6.083
 3869POPC   D2A50152  30.544  43.557   6.495
 3869POPC   C3A50153  30.574  43.362   6.935
 3869POPC   C4A50154  30.511  42.920   7.132
 3869POPC   C1B50155  30.787  42.820   6.137
 3869POPC   C2B50156  30.744  43.051   6.535
 3869POPC   C3B50157  30.962  43.022   6.925
 3869POPC   C4B50158  30.951  42.698   7.255
 3870POPC   NC350159  10.487  32.781   5.140
 3870POPC   PO450160  10.353  33.258   5.627
 3870POPC   GL150161  10.365  33.079   6.002
 3870POPC   GL250162  10.680  32.976   5.996
 3870POPC   C1A50163  10.243  32.718   6.255
 3870POPC   D2A50164  10.303  32.553   6.625
 3870POPC   C3A50165  10.380  32.905   6.813
 3870POPC   C4A50166  10.433  33.087   7.184
 3870POPC   C1B50167  10.754  32.741   6.370
 3870POPC   C2B50168  10.868  32.754   6.809
 3870POPC   C3B50169  10.761  32.668   7.248
 3870POPC   C4B50170  10.946  32.685   7.693
 3871POPC   NC350171  12.366  33.350   5.134
 3871POPC   PO450172  12.021  32.918   5.201
 3871POPC   GL150173  11.966  32.948   5.671
 3871POPC   GL250174  11.899  32.655   5.888
 3871POPC   C1A50175  12.087  33.069   6.111
 3871POPC   D2A50176  12.012  33.289   6.509
 3871POPC   C3A50177  12.087  33.081   6.907
 3871POPC   C4A50178  12.476  32.904   7.109
 3871POPC   C1B50179  12.154  32.520   6.224
 3871POPC   C2B50180  12.271  32.649   6.638
 3871POPC   C3B50181  12.093  32.584   7.029
 3871POPC   C4B50182  11.700  32.789   7.124
 3872POPC   NC350183   5.228  26.182   5.475
 3872POPC   PO450184   4.585  25.889   5.436
 3872POPC   GL150185   4.787  26.114   5.806
 3872POPC   GL250186   5.134  26.026   5.927
 3872POPC   C1A50187   4.808  26.187   6.259
 3872POPC   D2A50188   4.999  26.136   6.657
 3872POPC   C3A50189   4.798  26.142   7.043
 3872POPC   C4A50190   4.758  26.487   7.308
 3872POPC   C1B50191   5.324  26.161   6.275
 3872POPC   C2B50192   5.402  25.847   6.615
 3872POPC   C3B50193   5.239  25.864   7.058
 3872POPC   C4B50194   5.424  26.049   7.441
 3873POPC   NC350195  31.281  41.965   5.427
 3873POPC   PO450196  31.275  42.660   5.496
 3873POPC   GL150197  31.361  42.438   5.839
 3873POPC   GL250198  31.712  42.365   5.716
 3873POPC   C1A50199  31.139  42.336   6.248
 3873POPC   D2A50200  30.985  42.479   6.654
 3873POPC   C3A50201  31.269  42.383   6.975
 3873POPC   C4A50202  31.398  42.461   7.371
 3873POPC   C1B50203  31.704  42.240   6.152
 3873POPC   C2B50204  31.631  42.336   6.574
 3873POPC   C3B50205  31.697  42.081   6.941
 3873POPC   C4B50206  31.797  42.160   7.353
 3874POPC   NC350207  25.404   2.345   5.228
 3874POPC   PO450208  25.131   1.719   5.107
 3874POPC   GL150209  25.345   1.909   5.536
 3874POPC   GL250210  25.402   1.691   5.734
 3874POPC   C1A50211  25.189   2.046   6.021
 3874POPC   D2A50212  25.431   2.050   6.448
 3874POPC   C3A50213  25.234   2.140   6.851
 3874POPC   C4A50214  25.184   2.317   7.255
 3874POPC   C1B50215  25.375   1.591   6.153
 3874POPC   C2B50216  25.130   1.649   6.515
 3874POPC   C3B50217  25.369   1.640   6.873
 3874POPC   C4B50218  25.343   1.824   7.271
 3875POPC   NC350219  24.411  26.917   5.435
 3875POPC   PO450220  24.629  26.253   5.327
 3875POPC   GL150221  24.742  26.583   5.650
 3875POPC   GL250222  24.387  26.619   5.831
 3875POPC   C1A50223  24.792  26.849   6.034
 3875POPC   D2A50224  24.538  26.789   6.398
 3875POPC   C3A50225  24.646  26.780   6.818
 3875POPC   C4A50226  24.645  26.923   7.206
 3875POPC   C1B50227  24.083  26.770   6.165
 3875POPC   C2B50228  24.075  26.889   6.632
 3875POPC   C3B50229  24.168  26.725   7.052
 3875POPC   C4B50230  24.210  26.849   7.487
 3876POPC   NC350231  20.188   5.960   5.506
 3876POPC   PO450232  20.906   5.864   5.431
 3876POPC   GL150233  20.611   5.724   5.767
 3876POPC   GL250234  20.613   6.063   5.811
 3876POPC   C1A50235  20.371   5.837   6.187
 3876POPC   D2A50236  20.573   5.901   6.607
 3876POPC   C3A50237  20.388   6.004   7.015
 3876POPC   C4A50238  20.606   5.737   7.294
 3876POPC   C1B50239  20.882   5.955   6.181
 3876POPC   C2B50240  20.971   6.225   6.565
 3876POPC   C3B50241  20.893   6.083   7.019
 3876POPC   C4B50242  20.880   6.099   7.503
 3877POPC   NC350243  43.333  22.681   5.081
 3877POPC   PO450244  43.009  22.996   5.551
 3877POPC   GL150245  43.246  22.861   5.888
 3877POPC   GL250246  43.073  22.551   5.891
 3877POPC   C1A50247  43.454  22.659   6.240
 3877POPC   D2A50248  43.309  22.721   6.666
 3877POPC   C3A50249  43.438  23.070   6.904
 3877POPC   C4A50250  43.324  22.982   7.305
 3877POPC   C1B50251  42.929  22.761   6.274
 3877POPC   C2B50252  42.707  22.829   6.669
 3877POPC   C3B50253  42.908  22.780   7.048
 3877POPC   C4B50254  42.818  22.942   7.451
 3878POPC   NC350255  20.829  32.240   5.517
 3878POPC   PO450256  20.210  32.560   5.528
 3878POPC   GL150257  20.401  32.214   5.873
 3878POPC   GL250258  20.702  31.951   5.917
 3878POPC   C1A50259  20.354  32.227   6.345
 3878POPC   D2A50260  20.387  32.605   6.659
 3878POPC   C3A50261  20.408  32.446   7.067
 3878POPC   C4A50262  20.339  32.020   7.166
 3878POPC   C1B50263  20.865  32.202   6.285
 3878POPC   C2B50264  20.784  32.244   6.749
 3878POPC   C3B50265  20.841  32.156   7.207
 3878POPC   C4B50266  21.024  32.071   7.620
 3879POPC   NC350267  15.183  28.491   5.314
 3879POPC   PO450268  15.784  28.363   5.551
 3879POPC   GL150269  15.421  28.368   5.759
 3879POPC   GL250270  15.170  28.117   5.677
 3879POPC   C1A50271  15.192  28.469   6.116
 3879POPC   D2A50272  15.328  28.563   6.526
 3879POPC   C3A50273  15.032  28.539   6.849
 3879POPC   C4A50274  15.073  28.397   7.252
 3879POPC   C1B50275  15.339  27.966   6.076
 3879POPC   C2B50276  15.159  28.081   6.458
 3879POPC   C3B50277  15.106  28.019   6.874
 3879POPC   C4B50278  15.029  27.898   7.301
 3880POPC   NC350279  35.595  29.607   5.444
 3880POPC   PO450280  35.432  30.270   5.369
 3880POPC   GL150281  35.370  30.160   5.794
 3880POPC   GL250282  35.232  29.834   5.743
 3880POPC   C1A50283  35.425  30.074   6.249
 3880POPC   D2A50284  35.448  30.141   6.697
 3880POPC   C3A50285  35.124  29.990   6.967
 3880POPC   C4A50286  35.404  30.149   7.276
 3880POPC   C1B50287  35.184  29.601   6.109
 3880POPC   C2B50288  35.241  29.670   6.545
 3880POPC   C3B50289  35.215  29.478   6.936
 3880POPC   C4B50290  35.293  29.640   7.301
 3881POPC   NC350291  28.389  13.350   5.636
 3881POPC   PO450292  28.045  13.945   5.475
 3881POPC   GL150293  28.133  13.741   5.858
 3881POPC   GL250294  28.150  14.023   6.025
 3881POPC   C1A50295  28.309  13.584   6.273
 3881POPC   D2A50296  28.665  13.635   6.565
 3881POPC   C3A50297  28.581  13.345   6.905
 3881POPC   C4A50298  28.232  13.334   7.227
 3881POPC   C1B50299  28.512  14.068   6.298
 3881POPC   C2B50300  28.445  14.126   6.718
 3881POPC   C3B50301  28.364  13.822   6.966
 3881POPC   C4B50302  28.589  13.692   7.288
 3882POPC   NC350303  30.130  18.307   5.408
 3882POPC   PO450304  29.470  18.107   5.456
 3882POPC   GL150305  29.751  18.372   5.786
 3882POPC   GL250306  30.156  18.427   5.882
 3882POPC   C1A50307  29.821  18.440   6.242
 3882POPC   D2A50308  29.740  18.226   6.591
 3882POPC   C3A50309  29.836  18.395   6.956
 3882POPC   C4A50310  29.718  18.177   7.301
 3882POPC   C1B50311  30.259  18.163   6.227
 3882POPC   C2B50312  30.216  18.024   6.667
 3882POPC   C3B50313  30.277  18.145   7.096
 3882POPC   C4B50314  30.189  18.477   7.348
 3883POPC   NC350315  26.616   8.775   5.527
 3883POPC   PO450316  26.455   9.412   5.368
 3883POPC   GL150317  26.807   9.225   5.695
 3883POPC   GL250318  27.037   8.896   5.783
 3883POPC   C1A50319  26.741   9.039   6.142
 3883POPC   D2A50320  26.981   9.193   6.457
 3883POPC   C3A50321  26.872   9.154   6.876
 3883POPC   C4A50322  26.634   9.049   7.225
 3883POPC   C1B50323  27.240   8.837   6.199
 3883POPC   C2B50324  27.381   8.907   6.654
 3883POPC   C3B50325  27.205   8.804   7.071
 3883POPC   C4B50326  27.018   8.838   7.477
 3884POPC   NC350327  13.222  12.796   5.513
 3884POPC   PO450328  12.699  12.472   5.642
 3884POPC   GL150329  12.804  12.868   5.836
 3884POPC   GL250330  13.132  12.741   6.006
 3884POPC   C1A50331  12.916  13.100   6.234
 3884POPC   D2A50332  13.145  12.874   6.571
 3884POPC   C3A50333  13.040  13.087   6.942
 3884POPC   C4A50334  12.718  13.025   7.173
 3884POPC   C1B50335  12.750  12.603   6.281
 3884POPC   C2B50336  12.630  12.679   6.704
 3884POPC   C3B50337  12.924  12.580   6.989
 3884POPC   C4B50338  12.820  12.246   7.197
 3885POPC   NC350339   3.987   6.204   5.619
 3885POPC   PO450340   4.618   6.107   5.607
 3885POPC   GL150341   4.495   5.775   5.830
 3885POPC   GL250342   4.131   5.779   5.866
 3885POPC   C1A50343   4.550   5.839   6.245
 3885POPC   D2A50344   4.630   5.576   6.536
 3885POPC   C3A50345   4.472   5.718   6.871
 3885POPC   C4A50346   4.347   5.797   7.252
 3885POPC   C1B50347   4.027   5.864   6.306
 3885POPC   C2B50348   4.268   6.128   6.557
 3885POPC   C3B50349   4.351   6.218   6.970
 3885POPC   C4B50350   4.041   6.185   7.273
 3886POPC   NC350351   4.919   3.112   5.247
 3886POPC   PO450352   5.100   3.684   5.385
 3886POPC   GL150353   5.155   3.677   5.819
 3886POPC   GL250354   4.992   3.384   5.850
 3886POPC   C1A50355   5.346   3.505   6.203
 3886POPC   D2A50356   5.243   3.296   6.585
 3886POPC   C3A50357   5.256   3.459   6.993
 3886POPC   C4A50358   5.321   3.678   7.363
 3886POPC   C1B50359   4.854   3.507   6.302
 3886POPC   C2B50360   4.803   3.577   6.782
 3886POPC   C3B50361   4.810   3.516   7.256
 3886POPC   C4B50362   4.751   3.373   7.711
 3887POPC   NC350363  31.644   8.646   5.226
 3887POPC   PO450364  31.260   9.236   5.091
 3887POPC   GL150365  31.374   9.040   5.545
 3887POPC   GL250366  31.684   8.878   5.705
 3887POPC   C1A50367  31.285   8.954   6.017
 3887POPC   D2A50368  31.525   8.875   6.437
 3887POPC   C3A50369  31.430   8.792   6.887
 3887POPC   C4A50370  31.218   8.970   7.247
 3887POPC   C1B50371  31.849   8.664   6.102
 3887POPC   C2B50372  32.004   8.681   6.566
 3887POPC   C3B50373  31.932   8.771   7.036
 3887POPC   C4B50374  32.042   8.702   7.507
 3888POPC   NC350375  18.707  14.616   5.374
 3888POPC   PO450376  18.842  13.949   5.515
 3888POPC   GL150377  18.954  14.329   5.758
 3888POPC   GL250378  19.175  14.626   5.631
 3888POPC   C1A50379  18.962  14.355   6.208
 3888POPC   D2A50380  19.124  14.233   6.598
 3888POPC   C3A50381  18.862  14.309   6.926
 3888POPC   C4A50382  18.895  13.988   7.215
 3888POPC   C1B50383  19.333  14.720   6.050
 3888POPC   C2B50384  19.148  14.777   6.467
 3888POPC   C3B50385  19.227  14.681   6.887
 3888POPC   C4B50386  19.134  14.776   7.340
 3889POPC   NC350387  10.446   3.770   5.068
 3889POPC   PO450388  10.781   3.358   5.478
 3889POPC   GL150389  10.521   3.383   5.896
 3889POPC   GL250390  10.659   3.734   6.085
 3889POPC   C1A50391  10.220   3.568   6.177
 3889POPC   D2A50392  10.338   3.825   6.503
 3889POPC   C3A50393  10.365   3.554   6.850
 3889POPC   C4A50394  10.526   3.554   7.238
 3889POPC   C1B50395  10.875   3.777   6.460
 3889POPC   C2B50396  10.852   3.817   6.900
 3889POPC   C3B50397  10.978   3.739   7.311
 3889POPC   C4B50398  10.860   3.658   7.796
 3890POPC   NC350399  39.248  21.199   5.384
 3890POPC   PO450400  39.164  20.471   5.311
 3890POPC   GL150401  39.163  20.747   5.685
 3890POPC   GL250402  39.453  20.702   5.854
 3890POPC   C1A50403  39.005  20.821   6.101
 3890POPC   D2A50404  38.929  20.609   6.505
 3890POPC   C3A50405  39.035  20.796   6.924
 3890POPC   C4A50406  38.901  20.620   7.327
 3890POPC   C1B50407  39.660  20.605   6.238
 3890POPC   C2B50408  39.695  20.512   6.669
 3890POPC   C3B50409  39.509  20.608   7.065
 3890POPC   C4B50410  39.409  20.613   7.494
 3891POPC   NC350411   9.437  35.483   5.401
 3891POPC   PO450412   9.924  34.956   5.370
 3891POPC   GL150413  10.045  35.074   5.779
 3891POPC   GL250414   9.878  35.377   5.751
 3891POPC   C1A50415   9.865  35.024   6.194
 3891POPC   D2A50416   9.707  35.087   6.604
 3891POPC   C3A50417   9.883  34.930   6.977
 3891POPC   C4A50418   9.766  35.111   7.369
 3891POPC   C1B50419   9.807  35.571   6.148
 3891POPC   C2B50420   9.648  35.584   6.560
 3891POPC   C3B50421   9.862  35.460   6.946
 3891POPC   C4B50422   9.831  35.678   7.330
 3892POPC   NC350423   6.747   8.498   5.548
 3892POPC   PO450424   6.289   7.935   5.514
 3892POPC   GL150425   6.470   8.189   5.833
 3892POPC   GL250426   6.858   8.174   5.916
 3892POPC   C1A50427   6.510   8.347   6.235
 3892POPC   D2A50428   6.836   8.482   6.476
 3892POPC   C3A50429   6.613   8.582   6.806
 3892POPC   C4A50430   6.668   8.245   7.043
 3892POPC   C1B50431   7.044   7.853   6.182
 3892POPC   C2B50432   7.096   7.635   6.573
 3892POPC   C3B50433   6.886   7.709   6.985
 3892POPC   C4B50434   6.674   7.869   7.368
 3893POPC   NC350435  40.604  43.450   5.538
 3893POPC   PO450436  40.981  44.061   5.355
 3893POPC   GL150437  40.885  43.869   5.748
 3893POPC   GL250438  40.546  43.993   5.748
 3893POPC   C1A50439  41.066  43.827   6.174
 3893POPC   D2A50440  41.009  43.612   6.575
 3893POPC   C3A50441  40.829  43.741   6.948
 3893POPC   C4A50442  41.005  43.839   7.332
 3893POPC   C1B50443  40.514  43.850   6.186
 3893POPC   C2B50444  40.400  43.724   6.609
 3893POPC   C3B50445  40.365  43.526   7.012
 3893POPC   C4B50446  40.506  43.770   7.360
 3894POPC   NC350447   3.289  29.908   5.707
 3894POPC   PO450448   2.854  29.586   5.240
 3894POPC   GL150449   2.767  29.797   5.684
 3894POPC   GL250450   2.924  29.833   6.015
 3894POPC   C1A50451   2.437  29.863   6.051
 3894POPC   D2A50452   2.378  29.950   6.525
 3894POPC   C3A50453   2.573  29.709   6.923
 3894POPC   C4A50454   2.691  29.607   7.386
 3894POPC   C1B50455   2.955  30.044   6.402
 3894POPC   C2B50456   3.066  29.818   6.756
 3894POPC   C3B50457   3.089  29.870   7.179
 3894POPC   C4B50458   2.951  29.993   7.566
 3895POPC   NC350459  40.639   8.466   5.419
 3895POPC   PO450460  41.267   8.160   5.573
 3895POPC   GL150461  40.905   8.050   5.862
 3895POPC   GL250462  40.647   8.295   5.890
 3895POPC   C1A50463  40.865   8.135   6.325
 3895POPC   D2A50464  41.058   8.100   6.737
 3895POPC   C3A50465  40.868   8.258   7.104
 3895POPC   C4A50466  41.015   8.251   7.528
 3895POPC   C1B50467  40.455   8.472   6.246
 3895POPC   C2B50468  40.595   8.463   6.656
 3895POPC   C3B50469  40.440   8.558   7.035
 3895POPC   C4B50470  40.603   8.559   7.447
 3896POPC   NC350471  27.401  25.606   5.310
 3896POPC   PO450472  27.649  24.965   5.390
 3896POPC   GL150473  27.566  25.049   5.836
 3896POPC   GL250474  27.886  24.895   5.943
 3896POPC   C1A50475  27.539  25.357   6.210
 3896POPC   D2A50476  27.626  25.667   6.579
 3896POPC   C3A50477  27.366  25.681   6.956
 3896POPC   C4A50478  27.385  25.599   7.419
 3896POPC   C1B50479  27.704  24.892   6.355
 3896POPC   C2B50480  27.558  25.169   6.694
 3896POPC   C3B50481  27.483  25.195   7.116
 3896POPC   C4B50482  27.766  25.234   7.494
 3897POPC   NC350483  13.160  16.742   5.436
 3897POPC   PO450484  12.709  16.317   5.343
 3897POPC   GL150485  12.693  16.577   5.722
 3897POPC   GL250486  12.759  16.931   5.869
 3897POPC   C1A50487  12.781  16.468   6.135
 3897POPC   D2A50488  12.785  16.684   6.523
 3897POPC   C3A50489  12.890  16.523   6.927
 3897POPC   C4A50490  12.685  16.224   7.215
 3897POPC   C1B50491  13.013  17.067   6.240
 3897POPC   C2B50492  13.187  16.975   6.676
 3897POPC   C3B50493  13.168  17.180   7.088
 3897POPC   C4B50494  12.891  16.872   7.326
 3898POPC   NC350495  40.340  44.969   5.185
 3898POPC   PO450496  39.723   0.315   5.413
 3898POPC   GL150497  39.821   0.543   5.781
 3898POPC   GL250498  40.146   0.693   5.795
 3898POPC   C1A50499  39.852   0.434   6.193
 3898POPC   D2A50500  40.048   0.222   6.492
 3898POPC   C3A50501  39.983   0.321   6.891
 3898POPC   C4A50502  39.782   0.471   7.228
 3898POPC   C1B50503  40.350   0.555   6.189
 3898POPC   C2B50504  40.532   0.401   6.561
 3898POPC   C3B50505  40.488   0.266   6.938
 3898POPC   C4B50506  40.334   0.493   7.272
 3899POPC   NC350507   9.122  44.207   5.503
 3899POPC   PO450508   8.613  43.681   5.571
 3899POPC   GL150509   8.808  43.905   5.926
 3899POPC   GL250510   9.157  44.081   5.997
 3899POPC   C1A50511   8.741  43.914   6.371
 3899POPC   D2A50512   8.683  44.193   6.718
 3899POPC   C3A50513   8.833  44.086   7.110
 3899POPC   C4A50514   8.797  43.775   7.404
 3899POPC   C1B50515   9.190  44.139   6.467
 3899POPC   C2B50516   9.359  43.978   6.855
 3899POPC   C3B50517   9.285  43.906   7.280
 3899POPC   C4B50518   9.124  44.131   7.571
 3900POPC   NC350519  22.585  34.184   5.392
 3900POPC   PO450520  22.403  33.449   5.449
 3900POPC   GL150521  22.223  33.738   5.800
 3900POPC   GL250522  22.387  34.043   5.829
 3900POPC   C1A50523  22.081  33.904   6.222
 3900POPC   D2A50524  21.929  33.859   6.647
 3900POPC   C3A50525  22.049  33.936   7.056
 3900POPC   C4A50526  21.986  33.594   7.282
 3900POPC   C1B50527  22.556  34.033   6.220
 3900POPC   C2B50528  22.368  34.153   6.600
 3900POPC   C3B50529  22.509  34.120   7.001
 3900POPC   C4B50530  22.521  33.950   7.416
 3901POPC   NC350531  16.839  23.936   5.482
 3901POPC   PO450532  16.423  23.424   5.669
 3901POPC   GL150533  16.788  23.554   5.853
 3901POPC   GL250534  16.670  23.846   5.944
 3901POPC   C1A50535  16.783  23.491   6.282
 3901POPC   D2A50536  16.518  23.490   6.648
 3901POPC   C3A50537  16.795  23.572   6.965
 3901POPC   C4A50538  16.929  23.392   7.345
 3901POPC   C1B50539  16.700  24.005   6.327
 3901POPC   C2B50540  16.383  24.122   6.609
 3901POPC   C3B50541  16.454  24.115   7.049
 3901POPC   C4B50542  16.616  23.810   7.364
 3902POPC   NC350543  27.428  41.262   5.219
 3902POPC   PO450544  27.774  41.796   5.445
 3902POPC   GL150545  27.646  41.595   5.810
 3902POPC   GL250546  27.664  41.258   5.734
 3902POPC   C1A50547  27.611  41.708   6.248
 3902POPC   D2A50548  27.511  41.504   6.616
 3902POPC   C3A50549  27.723  41.571   6.971
 3902POPC   C4A50550  27.595  41.775   7.317
 3902POPC   C1B50551  27.477  41.215   6.183
 3902POPC   C2B50552  27.299  41.048   6.616
 3902POPC   C3B50553  27.344  41.233   7.079
 3902POPC   C4B50554  27.470  41.315   7.555
 3903POPC   NC350555  37.381  21.227   5.659
 3903POPC   PO450556  37.812  21.499   5.200
 3903POPC   GL150557  37.830  21.523   5.803
 3903POPC   GL250558  37.523  21.520   6.016
 3903POPC   C1A50559  37.929  21.384   6.246
 3903POPC   D2A50560  37.712  21.253   6.611
 3903POPC   C3A50561  37.926  21.263   7.000
 3903POPC   C4A50562  37.661  21.171   7.363
 3903POPC   C1B50563  37.281  21.661   6.319
 3903POPC   C2B50564  37.469  21.740   6.660
 3903POPC   C3B50565  37.474  21.521   7.017
 3903POPC   C4B50566  37.339  21.557   7.416
 3904POPC   NC350567  12.692  20.299   5.485
 3904POPC   PO450568  12.524  21.042   5.475
 3904POPC   GL150569  12.635  20.697   5.830
 3904POPC   GL250570  12.860  20.379   5.940
 3904POPC   C1A50571  12.710  20.669   6.299
 3904POPC   D2A50572  12.901  20.564   6.669
 3904POPC   C3A50573  12.629  20.501   6.998
 3904POPC   C4A50574  12.599  20.614   7.430
 3904POPC   C1B50575  13.184  20.366   6.266
 3904POPC   C2B50576  13.258  20.187   6.690
 3904POPC   C3B50577  13.162  20.326   7.141
 3904POPC   C4B50578  13.202  20.068   7.529
 3905POPC   NC350579  14.766  17.658   5.630
 3905POPC   PO450580  14.116  17.559   5.497
 3905POPC   GL150581  14.236  17.448   5.873
 3905POPC   GL250582  14.491  17.263   5.848
 3905POPC   C1A50583  14.372  17.635   6.249
 3905POPC   D2A50584  14.433  17.724   6.687
 3905POPC   C3A50585  14.071  17.801   6.977
 3905POPC   C4A50586  14.261  17.507   7.279
 3905POPC   C1B50587  14.718  17.248   6.195
 3905POPC   C2B50588  14.841  17.097   6.587
 3905POPC   C3B50589  14.860  17.432   6.829
 3905POPC   C4B50590  14.799  17.557   7.246
 3906POPC   NC350591  10.084  10.603   5.304
 3906POPC   PO450592   9.395  10.421   5.326
 3906POPC   GL150593   9.494  10.493   5.816
 3906POPC   GL250594   9.608  10.838   5.987
 3906POPC   C1A50595   9.646  10.406   6.246
 3906POPC   D2A50596   9.623  10.744   6.556
 3906POPC   C3A50597   9.669  10.658   6.978
 3906POPC   C4A50598   9.518  10.408   7.286
 3906POPC   C1B50599  10.010  10.761   6.224
 3906POPC   C2B50600  10.233  10.757   6.657
 3906POPC   C3B50601  10.116  10.865   7.120
 3906POPC   C4B50602   9.675  10.989   7.362
 3907POPC   NC350603  15.982  10.348   5.659
 3907POPC   PO450604  15.650  10.946   5.429
 3907POPC   GL150605  15.851  10.848   5.805
 3907POPC   GL250606  15.581  10.608   5.840
 3907POPC   C1A50607  16.063  10.808   6.219
 3907POPC   D2A50608  16.288  10.690   6.623
 3907POPC   C3A50609  16.080  10.465   6.956
 3907POPC   C4A50610  16.201  10.393   7.350
 3907POPC   C1B50611  15.616  10.399   6.210
 3907POPC   C2B50612  15.757  10.578   6.572
 3907POPC   C3B50613  15.583  10.714   6.948
 3907POPC   C4B50614  15.702  10.521   7.324
 3908POPC   NC350615  41.784  28.543   5.360
 3908POPC   PO450616  41.406  27.953   5.348
 3908POPC   GL150617  41.526  28.257   5.714
 3908POPC   GL250618  41.887  28.368   5.836
 3908POPC   C1A50619  41.485  28.460   6.145
 3908POPC   D2A50620  41.603  28.594   6.575
 3908POPC   C3A50621  41.512  28.278   6.882
 3908POPC   C4A50622  41.370  28.432   7.263
 3908POPC   C1B50623  42.001  28.345   6.294
 3908POPC   C2B50624  42.020  28.264   6.753
 3908POPC   C3B50625  41.890  28.548   7.105
 3908POPC   C4B50626  41.679  28.767   7.482
 3909POPC   NC350627   4.103  28.937   5.528
 3909POPC   PO450628   4.328  29.465   5.390
 3909POPC   GL150629   4.333  29.289   5.814
 3909POPC   GL250630   4.208  29.567   5.923
 3909POPC   C1A50631   4.298  28.991   6.168
 3909POPC   D2A50632   4.592  29.039   6.507
 3909POPC   C3A50633   4.462  29.120   6.938
 3909POPC   C4A50634   4.173  28.860   7.160
 3909POPC   C1B50635   4.287  29.465   6.335
 3909POPC   C2B50636   4.090  29.191   6.604
 3909POPC   C3B50637   3.891  29.266   6.975
 3909POPC   C4B50638   4.172  29.384   7.285
 3910POPC   NC350639  42.077  35.645   5.593
 3910POPC   PO450640  42.581  35.876   5.276
 3910POPC   GL150641  42.499  36.155   5.708
 3910POPC   GL250642  42.200  36.016   5.918
 3910POPC   C1A50643  42.503  36.352   6.176
 3910POPC   D2A50644  42.418  36.161   6.608
 3910POPC   C3A50645  42.234  36.345   6.998
 3910POPC   C4A50646  41.856  36.340   7.228
 3910POPC   C1B50647  42.173  35.653   6.224
 3910POPC   C2B50648  42.378  35.634   6.588
 3910POPC   C3B50649  42.264  35.801   6.960
 3910POPC   C4B50650  42.464  35.710   7.299
 3911POPC   NC350651  36.064  32.959   5.506
 3911POPC   PO450652  35.479  32.668   5.496
 3911POPC   GL150653  35.841  32.623   5.879
 3911POPC   GL250654  36.246  32.737   5.934
 3911POPC   C1A50655  35.995  32.515   6.336
 3911POPC   D2A50656  36.162  32.819   6.687
 3911POPC   C3A50657  36.070  32.913   7.147
 3911POPC   C4A50658  36.078  32.792   7.588
 3911POPC   C1B50659  36.419  33.092   6.242
 3911POPC   C2B50660  36.260  33.324   6.637
 3911POPC   C3B50661  36.169  33.429   7.090
 3911POPC   C4B50662  36.479  33.449   7.421
 3912POPC   NC350663  38.609  35.650   5.408
 3912POPC   PO450664  38.033  35.316   5.143
 3912POPC   GL150665  38.131  35.481   5.620
 3912POPC   GL250666  38.434  35.347   5.792
 3912POPC   C1A50667  38.113  35.521   6.130
 3912POPC   D2A50668  38.391  35.391   6.526
 3912POPC   C3A50669  38.246  35.348   6.937
 3912POPC   C4A50670  38.089  35.229   7.313
 3912POPC   C1B50671  38.719  35.248   6.136
 3912POPC   C2B50672  38.889  35.197   6.538
 3912POPC   C3B50673  38.782  35.365   6.956
 3912POPC   C4B50674  38.595  35.330   7.369
 3913POPC   NC350675   1.649  15.206   5.450
 3913POPC   PO450676   0.966  15.309   5.299
 3913POPC   GL150677   0.994  15.237   5.771
 3913POPC   GL250678   1.359  15.270   5.861
 3913POPC   C1A50679   1.082  15.087   6.233
 3913POPC   D2A50680   1.156  15.308   6.600
 3913POPC   C3A50681   1.017  15.103   6.959
 3913POPC   C4A50682   1.038  15.312   7.337
 3913POPC   C1B50683   1.524  15.420   6.248
 3913POPC   C2B50684   1.672  15.283   6.655
 3913POPC   C3B50685   1.460  15.330   7.033
 3913POPC   C4B50686   1.491  15.604   7.381
 3914POPC   NC350687  42.212  17.106   5.520
 3914POPC   PO450688  42.593  16.760   5.137
 3914POPC   GL150689  42.499  16.657   5.586
 3914POPC   GL250690  42.136  16.570   5.691
 3914POPC   C1A50691  42.499  16.664   6.054
 3914POPC   D2A50692  42.217  16.658   6.431
 3914POPC   C3A50693  42.357  16.742   6.871
 3914POPC   C4A50694  42.590  16.497   7.176
 3914POPC   C1B50695  41.935  16.372   6.091
 3914POPC   C2B50696  41.965  16.219   6.554
 3914POPC   C3B50697  42.107  16.294   7.005
 3914POPC   C4B50698  42.064  16.640   7.316
 3915POPC   NC350699  26.648  41.504   5.299
 3915POPC   PO450700  27.186  41.339   5.612
 3915POPC   GL150701  26.959  41.590   5.889
 3915POPC   GL250702  26.598  41.557   5.829
 3915POPC   C1A50703  27.050  41.467   6.299
 3915POPC   D2A50704  27.006  41.443   6.737
 3915POPC   C3A50705  26.888  41.656   7.082
 3915POPC   C4A50706  27.119  41.648   7.427
 3915POPC   C1B50707  26.631  41.779   6.266
 3915POPC   C2B50708  26.484  41.675   6.711
 3915POPC   C3B50709  26.452  41.432   7.115
 3915POPC   C4B50710  26.617  41.615   7.543
 3916POPC   NC350711  40.116  42.503   5.364
 3916POPC   PO450712  39.643  42.165   5.681
 3916POPC   GL150713  40.055  42.270   5.871
 3916POPC   GL250714  40.184  42.601   5.859
 3916POPC   C1A50715  40.222  42.376   6.298
 3916POPC   D2A50716  40.197  42.161   6.673
 3916POPC   C3A50717  40.227  42.422   7.010
 3916POPC   C4A50718  40.283  42.116   7.297
 3916POPC   C1B50719  39.807  42.626   6.160
 3916POPC   C2B50720  39.833  42.521   6.614
 3916POPC   C3B50721  39.802  42.739   6.989
 3916POPC   C4B50722  40.006  42.719   7.396
 3917POPC   NC350723  16.181  18.211   5.517
 3917POPC   PO450724  16.899  18.168   5.564
 3917POPC   GL150725  16.567  18.279   5.870
 3917POPC   GL250726  16.413  18.631   5.783
 3917POPC   C1A50727  16.789  18.160   6.242
 3917POPC   D2A50728  17.011  17.936   6.543
 3917POPC   C3A50729  16.841  18.167   6.900
 3917POPC   C4A50730  16.906  18.190   7.330
 3917POPC   C1B50731  16.315  18.615   6.217
 3917POPC   C2B50732  16.445  18.363   6.583
 3917POPC   C3B50733  16.427  18.481   7.042
 3917POPC   C4B50734  16.448  18.391   7.511
 3918POPC   NC350735  27.474  30.957   5.303
 3918POPC   PO450736  27.901  30.546   5.651
 3918POPC   GL150737  27.788  30.915   5.845
 3918POPC   GL250738  27.440  30.930   5.872
 3918POPC   C1A50739  27.761  31.027   6.278
 3918POPC   D2A50740  27.716  30.760   6.642
 3918POPC   C3A50741  27.872  30.832   7.070
 3918POPC   C4A50742  27.914  30.540   7.383
 3918POPC   C1B50743  27.284  30.667   6.258
 3918POPC   C2B50744  27.370  30.383   6.616
 3918POPC   C3B50745  27.620  30.377   6.987
 3918POPC   C4B50746  27.423  30.442   7.387
 3919POPC   NC350747  21.104   4.556   5.578
 3919POPC   PO450748  20.410   4.338   5.274
 3919POPC   GL150749  20.435   4.415   5.811
 3919POPC   GL250750  20.789   4.320   5.876
 3919POPC   C1A50751  20.556   4.453   6.303
 3919POPC   D2A50752  20.806   4.525   6.709
 3919POPC   C3A50753  20.575   4.612   7.090
 3919POPC   C4A50754  20.541   4.490   7.531
 3919POPC   C1B50755  20.901   4.041   6.197
 3919POPC   C2B50756  20.658   3.972   6.554
 3919POPC   C3B50757  20.558   4.103   6.967
 3919POPC   C4B50758  20.449   4.009   7.404
 3920POPC   NC350759  40.739  22.362   5.599
 3920POPC   PO450760  41.240  21.955   5.536
 3920POPC   GL150761  40.973  22.088   5.956
 3920POPC   GL250762  40.577  22.019   5.953
 3920POPC   C1A50763  40.773  22.463   6.228
 3920POPC   D2A50764  40.597  22.750   6.553
 3920POPC   C3A50765  40.714  22.511   6.918
 3920POPC   C4A50766  41.051  22.271   7.133
 3920POPC   C1B50767  40.556  21.813   6.372
 3920POPC   C2B50768  40.489  21.825   6.827
 3920POPC   C3B50769  40.542  22.078   7.200
 3920POPC   C4B50770  40.660  21.819   7.562
 3921POPC   NC350771   9.648  36.967   5.392
 3921POPC   PO450772   9.998  36.385   5.498
 3921POPC   GL150773   9.795  36.625   5.827
 3921POPC   GL250774   9.912  36.958   5.887
 3921POPC   C1A50775   9.681  36.726   6.282
 3921POPC   D2A50776   9.554  36.519   6.688
 3921POPC   C3A50777   9.474  36.801   7.061
 3921POPC   C4A50778   9.533  37.072   7.424
 3921POPC   C1B50779  10.114  37.152   6.270
 3921POPC   C2B50780  10.219  37.173   6.698
 3921POPC   C3B50781   9.982  37.088   7.071
 3921POPC   C4B50782  10.004  37.355   7.425
 3922POPC   NC350783  12.571  15.178   5.658
 3922POPC   PO450784  12.081  14.910   5.234
 3922POPC   GL150785  12.040  15.085   5.670
 3922POPC   GL250786  11.766  15.315   5.769
 3922POPC   C1A50787  12.058  14.943   6.123
 3922POPC   D2A50788  11.936  15.051   6.563
 3922POPC   C3A50789  12.224  15.092   6.923
 3922POPC   C4A50790  12.373  15.036   7.385
 3922POPC   C1B50791  11.755  15.368   6.193
 3922POPC   C2B50792  11.778  15.569   6.574
 3922POPC   C3B50793  11.766  15.372   6.950
 3922POPC   C4B50794  11.969  15.330   7.301
 3923POPC   NC350795  43.165   2.786   5.273
 3923POPC   PO450796  42.829   3.279   5.502
 3923POPC   GL150797  43.155   2.980   5.766
 3923POPC   GL250798  43.194   2.589   5.737
 3923POPC   C1A50799  43.288   2.798   6.206
 3923POPC   D2A50800  43.338   2.551   6.621
 3923POPC   C3A50801  43.269   2.725   7.078
 3923POPC   C4A50802  43.287   2.767   7.546
 3923POPC   C1B50803  42.889   2.498   6.052
 3923POPC   C2B50804  42.813   2.628   6.473
 3923POPC   C3B50805  42.843   2.520   6.901
 3923POPC   C4B50806  42.813   2.653   7.322
 3924POPC   NC350807  11.623  27.627   5.333
 3924POPC   PO450808  11.062  27.408   5.590
 3924POPC   GL150809  11.207  27.741   5.883
 3924POPC   GL250810  11.586  27.800   5.852
 3924POPC   C1A50811  11.024  28.002   6.226
 3924POPC   D2A50812  11.118  27.970   6.692
 3924POPC   C3A50813  11.118  27.554   6.928
 3924POPC   C4A50814  11.151  27.378   7.358
 3924POPC   C1B50815  11.506  27.808   6.338
 3924POPC   C2B50816  11.580  27.755   6.800
 3924POPC   C3B50817  11.610  27.584   7.237
 3924POPC   C4B50818  11.650  27.302   7.629
 3925POPC   NC350819  39.692  32.973   5.609
 3925POPC   PO450820  40.357  33.302   5.527
 3925POPC   GL150821  40.137  33.072   5.885
 3925POPC   GL250822  40.045  32.717   5.909
 3925POPC   C1A50823  39.938  33.025   6.319
 3925POPC   D2A50824  39.731  32.896   6.716
 3925POPC   C3A50825  39.888  33.034   7.147
 3925POPC   C4A50826  39.940  33.098   7.621
 3925POPC   C1B50827  40.386  32.728   6.203
 3925POPC   C2B50828  40.401  32.943   6.609
 3925POPC   C3B50829  40.322  32.769   7.036
 3925POPC   C4B50830  40.021  32.582   7.330
 3926POPC   NC350831  23.080  10.437   5.368
 3926POPC   PO450832  22.470  10.786   5.502
 3926POPC   GL150833  22.860  10.672   5.784
 3926POPC   GL250834  22.980  10.307   5.839
 3926POPC   C1A50835  23.031  10.617   6.230
 3926POPC   D2A50836  22.933  10.333   6.577
 3926POPC   C3A50837  22.739  10.578   6.882
 3926POPC   C4A50838  22.883  10.638   7.263
 3926POPC   C1B50839  22.647  10.243   6.145
 3926POPC   C2B50840  22.446  10.087   6.515
 3926POPC   C3B50841  22.611  10.089   6.926
 3926POPC   C4B50842  22.503  10.288   7.264
 3927POPC   NC350843  21.094  19.256   5.646
 3927POPC   PO450844  20.512  18.942   5.521
 3927POPC   GL150845  20.581  19.314   5.808
 3927POPC   GL250846  20.231  19.450   5.815
 3927POPC   C1A50847  20.781  19.273   6.248
 3927POPC   D2A50848  20.911  18.861   6.461
 3927POPC   C3A50849  20.765  18.718   6.884
 3927POPC   C4A50850  20.720  18.843   7.329
 3927POPC   C1B50851  20.286  19.103   6.162
 3927POPC   C2B50852  20.444  19.035   6.579
 3927POPC   C3B50853  20.313  19.063   6.976
 3927POPC   C4B50854  20.485  19.363   7.155
 3928POPC   NC350855  21.303  33.209   5.391
 3928POPC   PO450856  21.132  32.582   5.601
 3928POPC   GL150857  21.368  32.921   5.852
 3928POPC   GL250858  21.515  33.285   5.854
 3928POPC   C1A50859  21.487  32.946   6.291
 3928POPC   D2A50860  21.575  32.856   6.723
 3928POPC   C3A50861  21.322  33.042   7.060
 3928POPC   C4A50862  21.366  32.980   7.511
 3928POPC   C1B50863  21.289  33.404   6.224
 3928POPC   C2B50864  21.131  33.249   6.625
 3928POPC   C3B50865  21.108  33.501   7.028
 3928POPC   C4B50866  21.361  33.474   7.428
 3929POPC   NC350867  17.235  39.567   5.576
 3929POPC   PO450868  16.719  39.096   5.534
 3929POPC   GL150869  16.666  39.297   5.907
 3929POPC   GL250870  16.953  39.529   6.022
 3929POPC   C1A50871  16.676  39.204   6.331
 3929POPC   D2A50872  17.003  39.329   6.586
 3929POPC   C3A50873  16.794  39.217   6.941
 3929POPC   C4A50874  16.869  38.884   7.177
 3929POPC   C1B50875  17.177  39.763   6.346
 3929POPC   C2B50876  17.089  39.808   6.786
 3929POPC   C3B50877  16.869  39.678   7.144
 3929POPC   C4B50878  16.806  39.355   7.473
 3930POPC   NC350879  18.431  21.749   5.165
 3930POPC   PO450880  18.296  21.200   5.496
 3930POPC   GL150881  18.176  21.450   5.856
 3930POPC   GL250882  18.164  21.799   5.933
 3930POPC   C1A50883  18.126  21.415   6.283
 3930POPC   D2A50884  17.960  21.655   6.578
 3930POPC   C3A50885  18.223  21.571   6.893
 3930POPC   C4A50886  18.300  21.294   7.241
 3930POPC   C1B50887  18.446  21.811   6.316
 3930POPC   C2B50888  18.684  21.703   6.686
 3930POPC   C3B50889  18.596  21.788   7.137
 3930POPC   C4B50890  18.191  21.776   7.363
 3931POPC   NC350891  25.385  18.830   5.315
 3931POPC   PO450892  24.884  19.259   5.333
 3931POPC   GL150893  25.220  19.143   5.673
 3931POPC   GL250894  25.170  19.423   5.837
 3931POPC   C1A50895  25.451  19.095   6.095
 3931POPC   D2A50896  25.305  19.040   6.571
 3931POPC   C3A50897  25.487  18.989   7.021
 3931POPC   C4A50898  25.296  18.812   7.436
 3931POPC   C1B50899  25.346  19.576   6.214
 3931POPC   C2B50900  25.237  19.544   6.639
 3931POPC   C3B50901  25.060  19.316   6.997
 3931POPC   C4B50902  25.130  19.335   7.441
 3932POPC   NC350903  32.722  27.552   5.329
 3932POPC   PO450904  32.160  27.741   5.213
 3932POPC   GL150905  32.146  27.690   5.633
 3932POPC   GL250906  31.981  27.967   5.731
 3932POPC   C1A50907  32.089  27.403   5.972
 3932POPC   D2A50908  32.162  27.269   6.415
 3932POPC   C3A50909  32.047  27.446   6.816
 3932POPC   C4A50910  32.225  27.539   7.234
 3932POPC   C1B50911  32.301  27.894   6.079
 3932POPC   C2B50912  32.287  27.844   6.540
 3932POPC   C3B50913  32.238  27.986   6.984
 3932POPC   C4B50914  32.069  27.972   7.443
 3933POPC   NC350915  19.688  37.482   5.414
 3933POPC   PO450916  20.329  37.612   5.483
 3933POPC   GL150917  19.969  37.769   5.754
 3933POPC   GL250918  19.600  37.945   5.783
 3933POPC   C1A50919  19.876  37.796   6.185
 3933POPC   D2A50920  19.895  37.527   6.528
 3933POPC   C3A50921  19.846  37.690   6.922
 3933POPC   C4A50922  19.811  37.466   7.287
 3933POPC   C1B50923  19.382  37.836   6.216
 3933POPC   C2B50924  19.394  37.666   6.639
 3933POPC   C3B50925  19.387  37.759   7.101
 3933POPC   C4B50926  19.367  37.699   7.570
 3934POPC   NC350927   7.913  27.897   5.504
 3934POPC   PO450928   8.499  27.594   5.519
 3934POPC   GL150929   8.226  27.513   5.851
 3934POPC   GL250930   8.114  27.805   5.970
 3934POPC   C1A50931   8.279  27.322   6.255
 3934POPC   D2A50932   8.085  27.276   6.663
 3934POPC   C3A50933   8.373  27.443   6.981
 3934POPC   C4A50934   8.719  27.238   7.207
 3934POPC   C1B50935   7.894  27.664   6.349
 3934POPC   C2B50936   7.975  27.756   6.795
 3934POPC   C3B50937   7.795  27.824   7.193
 3934POPC   C4B50938   7.928  27.635   7.596
 3935POPC   NC350939  14.805  13.142   5.560
 3935POPC   PO450940  15.359  12.678   5.397
 3935POPC   GL150941  15.239  12.695   5.848
 3935POPC   GL250942  15.031  12.935   5.954
 3935POPC   C1A50943  15.381  12.781   6.295
 3935POPC   D2A50944  15.588  13.051   6.608
 3935POPC   C3A50945  15.490  12.916   6.999
 3935POPC   C4A50946  15.367  13.053   7.410
 3935POPC   C1B50947  14.832  12.974   6.325
 3935POPC   C2B50948  15.059  12.972   6.689
 3935POPC   C3B50949  14.995  13.113   7.087
 3935POPC   C4B50950  14.810  13.138   7.496
 3936POPC   NC350951  15.639  37.495   5.520
 3936POPC   PO450952  16.256  37.731   5.454
 3936POPC   GL150953  16.069  37.495   5.822
 3936POPC   GL250954  15.741  37.578   6.001
 3936POPC   C1A50955  16.207  37.499   6.229
 3936POPC   D2A50956  16.319  37.751   6.548
 3936POPC   C3A50957  16.009  37.782   6.837
 3936POPC   C4A50958  16.114  37.706   7.300
 3936POPC   C1B50959  15.754  37.256   6.311
 3936POPC   C2B50960  15.925  37.277   6.704
 3936POPC   C3B50961  15.765  37.413   7.070
 3936POPC   C4B50962  15.594  37.830   7.126
 3937POPC   NC350963   6.017  33.012   5.317
 3937POPC   PO450964   5.553  33.414   5.549
 3937POPC   GL150965   5.757  33.153   5.882
 3937POPC   GL250966   6.123  33.133   5.790
 3937POPC   C1A50967   5.671  32.878   6.283
 3937POPC   D2A50968   5.930  32.680   6.641
 3937POPC   C3A50969   5.867  32.812   7.090
 3937POPC   C4A50970   5.656  32.867   7.526
 3937POPC   C1B50971   6.152  32.985   6.192
 3937POPC   C2B50972   6.070  33.194   6.567
 3937POPC   C3B50973   6.237  33.227   6.977
 3937POPC   C4B50974   5.998  33.264   7.369
 3938POPC   NC350975  17.201  19.385   5.460
 3938POPC   PO450976  17.621  19.953   5.462
 3938POPC   GL150977  17.593  19.809   5.899
 3938POPC   GL250978  17.294  19.975   5.956
 3938POPC   C1A50979  17.526  19.832   6.379
 3938POPC   D2A50980  17.825  20.005   6.676
 3938POPC   C3A50981  17.775  19.856   7.062
 3938POPC   C4A50982  17.537  19.594   7.295
 3938POPC   C1B50983  17.017  20.165   6.251
 3938POPC   C2B50984  16.985  19.990   6.666
 3938POPC   C3B50985  17.257  19.948   7.035
 3938POPC   C4B50986  17.473  20.099   7.423
 3939POPC   NC350987  26.470  42.477   5.478
 3939POPC   PO450988  26.782  41.910   5.482
 3939POPC   GL150989  26.565  42.101   5.829
 3939POPC   GL250990  26.803  42.391   5.864
 3939POPC   C1A50991  26.477  42.290   6.240
 3939POPC   D2A50992  26.853  42.323   6.493
 3939POPC   C3A50993  26.812  42.120   6.891
 3939POPC   C4A50994  26.727  42.306   7.301
 3939POPC   C1B50995  27.127  42.592   6.116
 3939POPC   C2B50996  27.218  42.711   6.547
 3939POPC   C3B50997  27.099  42.544   6.952
 3939POPC   C4B50998  27.005  42.727   7.357
 3940POPC   NC350999  40.774  40.469   5.417
 3940POPC   PO451000  40.471  41.075   5.423
 3940POPC   GL151001  40.542  40.778   5.804
 3940POPC   GL251002  40.897  40.689   5.863
 3940POPC   C1A51003  40.575  40.604   6.259
 3940POPC   D2A51004  40.709  40.791   6.664
 3940POPC   C3A51005  40.597  40.577   7.047
 3940POPC   C4A51006  40.736  40.627   7.514
 3940POPC   C1B51007  41.117  40.745   6.260
 3940POPC   C2B51008  41.313  40.568   6.642
 3940POPC   C3B51009  41.104  40.613   7.045
 3940POPC   C4B51010  41.219  40.855   7.422
 3941POPC   NC351011  41.186  21.548   5.280
 3941POPC   PO451012  40.560  21.257   5.312
 3941POPC   GL151013  40.706  21.351   5.701
 3941POPC   GL251014  40.856  21.652   5.687
 3941POPC   C1A51015  40.529  21.369   6.092
 3941POPC   D2A51016  40.295  21.339   6.443
 3941POPC   C3A51017  40.484  21.193   6.815
 3941POPC   C4A51018  40.579  21.421   7.183
 3941POPC   C1B51019  40.991  21.575   6.108
 3941POPC   C2B51020  40.937  21.358   6.507
 3941POPC   C3B51021  41.076  21.404   6.932
 3941POPC   C4B51022  40.948  21.776   7.133
 3942POPC   NC351023  35.537   9.619   5.498
 3942POPC   PO451024  35.121  10.182   5.464
 3942POPC   GL151025  35.272   9.948   5.862
 3942POPC   GL251026  35.112   9.659   5.814
 3942POPC   C1A51027  35.394   9.616   6.237
 3942POPC   D2A51028  35.490   9.416   6.673
 3942POPC   C3A51029  35.379   9.683   7.024
 3942POPC   C4A51030  35.537   9.927   7.353
 3942POPC   C1B51031  34.913   9.803   6.204
 3942POPC   C2B51032  35.048   9.704   6.618
 3942POPC   C3B51033  34.833   9.613   6.995
 3942POPC   C4B51034  34.995   9.598   7.381
 3943POPC   NC351035  29.786  40.495   5.537
 3943POPC   PO451036  30.139  41.012   5.453
 3943POPC   GL151037  29.982  40.879   5.838
 3943POPC   GL251038  30.160  40.572   5.871
 3943POPC   C1A51039  29.733  41.014   6.191
 3943POPC   D2A51040  29.661  40.951   6.624
 3943POPC   C3A51041  29.830  40.639   6.853
 3943POPC   C4A51042  29.797  40.630   7.284
 3943POPC   C1B51043  30.104  40.659   6.324
 3943POPC   C2B51044  30.278  40.457   6.684
 3943POPC   C3B51045  30.293  40.580   7.123
 3943POPC   C4B51046  30.594  40.583   7.452
 3944POPC   NC351047  16.955   0.927   5.484
 3944POPC   PO451048  16.702   1.520   5.610
 3944POPC   GL151049  16.589   1.203   5.879
 3944POPC   GL251050  16.311   1.000   5.753
 3944POPC   C1A51051  16.519   1.262   6.295
 3944POPC   D2A51052  16.723   1.229   6.655
 3944POPC   C3A51053  16.591   1.445   6.980
 3944POPC   C4A51054  16.562   1.342   7.386
 3944POPC   C1B51055  16.191   0.862   6.168
 3944POPC   C2B51056  16.412   0.825   6.556
 3944POPC   C3B51057  16.388   0.979   6.970
 3944POPC   C4B51058  16.497   0.840   7.380
 3945POPC   NC351059  44.062  22.953   5.174
 3945POPC   PO451060  43.515  22.801   5.472
 3945POPC   GL151061  43.739  23.001   5.780
 3945POPC   GL251062  44.051  22.925   5.708
 3945POPC   C1A51063  43.692  23.132   6.192
 3945POPC   D2A51064  43.780  22.917   6.562
 3945POPC   C3A51065  43.963  23.105   6.926
 3945POPC   C4A51066  43.766  23.254   7.280
 3945POPC   C1B51067  44.112  22.851   6.153
 3945POPC   C2B51068  44.273  22.858   6.585
 3945POPC   C3B51069  44.221  22.668   6.963
 3945POPC   C4B51070  44.218  22.899   7.343
 3946POPC   NC351071   8.290  28.882   5.629
 3946POPC   PO451072   8.261  28.205   5.540
 3946POPC   GL151073   8.154  28.355   5.919
 3946POPC   GL251074   8.423  28.188   6.070
 3946POPC   C1A51075   7.930  28.211   6.288
 3946POPC   D2A51076   7.737  28.195   6.702
 3946POPC   C3A51077   7.958  28.311   7.103
 3946POPC   C4A51078   8.188  28.071   7.434
 3946POPC   C1B51079   8.370  28.549   6.374
 3946POPC   C2B51080   8.297  28.587   6.836
 3946POPC   C3B51081   8.412  28.567   7.306
 3946POPC   C4B51082   8.514  28.748   7.756
 3947POPC   NC351083  44.095  21.751   5.147
 3947POPC   PO451084  43.771  22.355   5.259
 3947POPC   GL151085  43.865  22.195   5.767
 3947POPC   GL251086  43.821  22.504   5.897
 3947POPC   C1A51087  43.615  21.995   6.120
 3947POPC   D2A51088  43.755  21.932   6.530
 3947POPC   C3A51089  43.557  22.071   6.944
 3947POPC   C4A51090  43.782  22.156   7.306
 3947POPC   C1B51091  43.978  22.360   6.286
 3947POPC   C2B51092  43.833  22.424   6.696
 3947POPC   C3B51093  43.723  22.670   7.050
 3947POPC   C4B51094  43.756  22.754   7.491
 3948POPC   NC351095  17.184   3.432   5.493
 3948POPC   PO451096  16.575   3.858   5.567
 3948POPC   GL151097  16.807   3.765   5.923
 3948POPC   GL251098  17.158   3.858   5.822
 3948POPC   C1A51099  16.768   3.385   6.182
 3948POPC   D2A51100  16.775   3.200   6.578
 3948POPC   C3A51101  16.473   3.307   6.857
 3948POPC   C4A51102  16.464   3.483   7.265
 3948POPC   C1B51103  17.221   3.630   6.217
 3948POPC   C2B51104  17.038   3.709   6.627
 3948POPC   C3B51105  16.913   3.569   7.029
 3948POPC   C4B51106  17.184   3.438   7.357
 3949POPC   NC351107  14.956  15.536   5.488
 3949POPC   PO451108  15.175  16.204   5.224
 3949POPC   GL151109  15.310  16.233   5.659
 3949POPC   GL251110  15.178  15.909   5.777
 3949POPC   C1A51111  15.388  16.252   6.122
 3949POPC   D2A51112  15.188  16.085   6.501
 3949POPC   C3A51113  15.354  16.257   6.890
 3949POPC   C4A51114  15.226  16.358   7.311
 3949POPC   C1B51115  14.973  15.760   6.149
 3949POPC   C2B51116  14.781  15.728   6.566
 3949POPC   C3B51117  14.859  15.622   7.001
 3949POPC   C4B51118  15.238  15.815   7.146
 3950POPC   NC351119  39.246  31.086   5.457
 3950POPC   PO451120  38.919  30.445   5.501
 3950POPC   GL151121  39.009  30.734   5.776
 3950POPC   GL251122  39.358  30.716   5.823
 3950POPC   C1A51123  38.991  30.694   6.204
 3950POPC   D2A51124  39.064  30.864   6.602
 3950POPC   C3A51125  39.077  30.596   6.947
 3950POPC   C4A51126  39.019  30.799   7.303
 3950POPC   C1B51127  39.497  30.882   6.192
 3950POPC   C2B51128  39.536  31.085   6.566
 3950POPC   C3B51129  39.473  30.915   6.957
 3950POPC   C4B51130  39.555  30.600   7.216
 3951POPC   NC351131  13.408  28.989   5.627
 3951POPC   PO451132  12.878  29.447   5.585
 3951POPC   GL151133  12.806  29.218   5.935
 3951POPC   GL251134  12.864  28.908   5.800
 3951POPC   C1A51135  12.878  29.201   6.368
 3951POPC   D2A51136  13.229  29.047   6.635
 3951POPC   C3A51137  13.131  29.155   7.050
 3951POPC   C4A51138  12.762  29.288   7.257
 3951POPC   C1B51139  12.580  28.819   6.183
 3951POPC   C2B51140  12.773  28.764   6.596
 3951POPC   C3B51141  12.715  28.850   7.000
 3951POPC   C4B51142  12.399  28.902   7.301
 3952POPC   NC351143   1.619  19.454   5.508
 3952POPC   PO451144   2.013  18.949   5.305
 3952POPC   GL151145   2.015  18.953   5.775
 3952POPC   GL251146   1.726  19.086   5.885
 3952POPC   C1A51147   2.169  18.783   6.153
 3952POPC   D2A51148   1.911  18.694   6.528
 3952POPC   C3A51149   2.062  18.886   6.924
 3952POPC   C4A51150   1.934  18.930   7.358
 3952POPC   C1B51151   1.879  19.177   6.317
 3952POPC   C2B51152   1.961  19.346   6.749
 3952POPC   C3B51153   1.716  19.330   7.135
 3952POPC   C4B51154   1.596  19.265   7.543
 3953POPC   NC351155   0.127  39.725   5.477
 3953POPC   PO451156   0.517  40.174   5.325
 3953POPC   GL151157   0.544  40.080   5.779
 3953POPC   GL251158   0.731  40.367   5.925
 3953POPC   C1A51159   0.297  39.834   6.119
 3953POPC   D2A51160   0.123  39.885   6.558
 3953POPC   C3A51161   0.126  39.630   6.919
 3953POPC   C4A51162   0.228  39.893   7.242
 3953POPC   C1B51163   0.702  40.075   6.301
 3953POPC   C2B51164   0.631  39.896   6.743
 3953POPC   C3B51165   0.874  40.013   7.133
 3953POPC   C4B51166   0.930  40.462   7.264
 3954POPC   NC351167  15.181  22.446   5.484
 3954POPC   PO451168  14.858  21.867   5.454
 3954POPC   GL151169  15.044  22.062   5.814
 3954POPC   GL251170  15.411  22.135   5.843
 3954POPC   C1A51171  14.976  22.081   6.247
 3954POPC   D2A51172  15.096  22.231   6.657
 3954POPC   C3A51173  15.055  21.930   6.988
 3954POPC   C4A51174  15.177  22.079   7.387
 3954POPC   C1B51175  15.355  22.404   6.224
 3954POPC   C2B51176  15.436  22.645   6.625
 3954POPC   C3B51177  15.477  22.615   7.109
 3954POPC   C4B51178  15.397  22.493   7.566
 3955POPC   NC351179  16.021  34.004   5.423
 3955POPC   PO451180  15.480  33.551   5.400
 3955POPC   GL151181  15.717  33.752   5.754
 3955POPC   GL251182  16.046  33.632   5.808
 3955POPC   C1A51183  15.846  33.892   6.192
 3955POPC   D2A51184  15.823  33.619   6.556
 3955POPC   C3A51185  16.010  33.617   6.934
 3955POPC   C4A51186  16.126  33.975   7.174
 3955POPC   C1B51187  16.273  33.589   6.245
 3955POPC   C2B51188  16.436  33.529   6.685
 3955POPC   C3B51189  16.451  33.575   7.180
 3955POPC   C4B51190  16.101  33.468   7.439
 3956POPC   NC351191  31.765  15.516   5.472
 3956POPC   PO451192  31.406  14.958   5.485
 3956POPC   GL151193  31.504  15.237   5.831
 3956POPC   GL251194  31.836  15.195   5.877
 3956POPC   C1A51195  31.537  15.272   6.285
 3956POPC   D2A51196  31.297  15.386   6.643
 3956POPC   C3A51197  31.525  15.283   6.998
 3956POPC   C4A51198  31.394  15.017   7.291
 3956POPC   C1B51199  31.988  14.968   6.240
 3956POPC   C2B51200  31.882  14.853   6.667
 3956POPC   C3B51201  31.930  14.965   7.096
 3956POPC   C4B51202  31.838  15.246   7.441
 3957POPC   NC351203  29.772   5.361   5.398
 3957POPC   PO451204  30.324   5.823   5.267
 3957POPC   GL151205  30.153   5.730   5.718
 3957POPC   GL251206  29.866   5.843   5.892
 3957POPC   C1A51207  30.236   5.830   6.206
 3957POPC   D2A51208  29.993   5.927   6.603
 3957POPC   C3A51209  30.106   5.697   6.979
 3957POPC   C4A51210  29.921   5.828   7.381
 3957POPC   C1B51211  29.589   5.670   6.210
 3957POPC   C2B51212  29.642   5.518   6.623
 3957POPC   C3B51213  29.620   5.549   7.064
 3957POPC   C4B51214  29.341   5.407   7.352
 3958POPC   NC351215  24.959  31.174   5.360
 3958POPC   PO451216  25.616  31.457   5.490
 3958POPC   GL151217  25.358  31.403   5.849
 3958POPC   GL251218  25.053  31.498   5.759
 3958POPC   C1A51219  25.304  31.528   6.277
 3958POPC   D2A51220  25.107  31.392   6.666
 3958POPC   C3A51221  25.419  31.301   7.011
 3958POPC   C4A51222  25.790  31.373   7.282
 3958POPC   C1B51223  24.936  31.183   6.067
 3958POPC   C2B51224  24.730  31.090   6.455
 3958POPC   C3B51225  24.751  31.115   6.900
 3958POPC   C4B51226  24.967  31.297   7.249
 3959POPC   NC351227  25.248  27.328   5.406
 3959POPC   PO451228  25.404  27.987   5.465
 3959POPC   GL151229  25.257  27.723   5.839
 3959POPC   GL251230  25.009  27.430   5.864
 3959POPC   C1A51231  25.299  27.568   6.284
 3959POPC   D2A51232  25.534  27.682   6.674
 3959POPC   C3A51233  25.320  27.592   7.047
 3959POPC   C4A51234  24.992  27.824   7.239
 3959POPC   C1B51235  24.828  27.312   6.274
 3959POPC   C2B51236  25.003  27.267   6.693
 3959POPC   C3B51237  24.877  27.344   7.124
 3959POPC   C4B51238  24.955  27.214   7.573
 3960POPC   NC351239  29.462  11.271   5.395
 3960POPC   PO451240  30.108  11.140   5.338
 3960POPC   GL151241  29.901  11.256   5.714
 3960POPC   GL251242  29.795  10.940   5.852
 3960POPC   C1A51243  30.015  11.263   6.166
 3960POPC   D2A51244  29.878  11.359   6.565
 3960POPC   C3A51245  30.034  11.223   6.934
 3960POPC   C4A51246  29.965  11.567   7.224
 3960POPC   C1B51247  29.594  10.978   6.290
 3960POPC   C2B51248  29.361  11.234   6.611
 3960POPC   C3B51249  29.547  11.340   6.980
 3960POPC   C4B51250  29.668  11.020   7.250
 3961POPC   NC351251  27.204  32.901   5.322
 3961POPC   PO451252  26.485  32.755   5.336
 3961POPC   GL151253  26.709  32.950   5.721
 3961POPC   GL251254  27.063  32.869   5.810
 3961POPC   C1A51255  26.712  33.183   6.136
 3961POPC   D2A51256  26.850  33.081   6.558
 3961POPC   C3A51257  27.034  33.235   6.913
 3961POPC   C4A51258  26.935  33.141   7.330
 3961POPC   C1B51259  27.066  32.738   6.231
 3961POPC   C2B51260  26.968  32.587   6.635
 3961POPC   C3B51261  26.868  32.741   7.008
 3961POPC   C4B51262  27.091  32.634   7.341
 3962POPC   NC351263   4.556  34.750   5.533
 3962POPC   PO451264   3.913  34.809   5.647
 3962POPC   GL151265   4.193  34.659   5.885
 3962POPC   GL251266   4.237  34.373   5.661
 3962POPC   C1A51267   4.119  34.635   6.315
 3962POPC   D2A51268   3.974  34.479   6.698
 3962POPC   C3A51269   4.106  34.712   7.028
 3962POPC   C4A51270   4.473  34.803   7.211
 3962POPC   C1B51271   4.295  34.206   6.085
 3962POPC   C2B51272   4.465  34.215   6.515
 3962POPC   C3B51273   4.441  34.296   6.965
 3962POPC   C4B51274   4.728  34.341   7.320
 3963POPC   NC351275  29.753  38.284   5.089
 3963POPC   PO451276  30.208  38.611   5.462
 3963POPC   GL151277  29.958  38.451   5.810
 3963POPC   GL251278  29.746  38.243   5.646
 3963POPC   C1A51279  29.941  38.382   6.252
 3963POPC   D2A51280  29.918  38.255   6.689
 3963POPC   C3A51281  30.019  38.488   7.059
 3963POPC   C4A51282  30.414  38.710   7.081
 3963POPC   C1B51283  29.551  38.091   6.032
 3963POPC   C2B51284  29.478  38.141   6.489
 3963POPC   C3B51285  29.541  38.000   6.939
 3963POPC   C4B51286  29.535  38.221   7.355
 3964POPC   NC351287  37.830   3.172   5.144
 3964POPC   PO451288  37.474   3.643   5.392
 3964POPC   GL151289  37.635   3.496   5.757
 3964POPC   GL251290  37.967   3.414   5.590
 3964POPC   C1A51291  37.641   3.537   6.233
 3964POPC   D2A51292  37.772   3.831   6.595
 3964POPC   C3A51293  37.590   3.772   7.031
 3964POPC   C4A51294  37.613   3.408   7.328
 3964POPC   C1B51295  38.010   3.265   6.010
 3964POPC   C2B51296  37.977   3.231   6.464
 3964POPC   C3B51297  37.853   3.337   6.870
 3964POPC   C4B51298  38.145   3.330   7.188
 3965POPC   NC351299  41.489  34.088   5.245
 3965POPC   PO451300  41.588  33.519   5.337
 3965POPC   GL151301  41.395  33.572   5.758
 3965POPC   GL251302  41.512  33.920   5.764
 3965POPC   C1A51303  41.531  33.624   6.217
 3965POPC   D2A51304  41.837  33.760   6.547
 3965POPC   C3A51305  41.763  33.564   6.977
 3965POPC   C4A51306  41.394  33.509   7.212
 3965POPC   C1B51307  41.580  34.136   6.176
 3965POPC   C2B51308  41.394  34.021   6.568
 3965POPC   C3B51309  41.523  34.025   7.004
 3965POPC   C4B51310  41.738  34.320   7.266
 3966POPC   NC351311  31.895   2.205   5.551
 3966POPC   PO451312  31.642   1.819   5.065
 3966POPC   GL151313  31.518   1.849   5.565
 3966POPC   GL251314  31.385   2.146   5.772
 3966POPC   C1A51315  31.650   1.826   6.041
 3966POPC   D2A51316  31.693   2.090   6.426
 3966POPC   C3A51317  31.561   1.970   6.862
 3966POPC   C4A51318  31.582   1.668   7.239
 3966POPC   C1B51319  31.211   2.150   6.229
 3966POPC   C2B51320  31.033   1.981   6.641
 3966POPC   C3B51321  31.103   1.884   7.075
 3966POPC   C4B51322  31.368   2.133   7.321
 3967POPC   NC351323  44.118  19.403   5.117
 3967POPC   PO451324  44.053  19.985   5.503
 3967POPC   GL151325  43.979  19.681   5.786
 3967POPC   GL251326  44.264  19.453   5.779
 3967POPC   C1A51327  43.790  19.759   6.195
 3967POPC   D2A51328  43.523  19.762   6.533
 3967POPC   C3A51329  43.711  19.884   6.884
 3967POPC   C4A51330  43.614  19.723   7.294
 3967POPC   C1B51331  44.290  19.650   6.204
 3967POPC   C2B51332  44.157  19.674   6.622
 3967POPC   C3B51333  44.213  19.899   7.001
 3967POPC   C4B51334  43.949  20.135   7.276
 3968POPC   NC351335   6.002  18.979   5.651
 3968POPC   PO451336   5.431  19.311   5.524
 3968POPC   GL151337   5.668  19.179   5.957
 3968POPC   GL251338   6.057  19.267   6.062
 3968POPC   C1A51339   5.810  18.848   6.269
 3968POPC   D2A51340   5.746  18.560   6.605
 3968POPC   C3A51341   5.846  18.757   6.988
 3968POPC   C4A51342   6.003  18.600   7.403
 3968POPC   C1B51343   5.821  19.507   6.357
 3968POPC   C2B51344   5.668  19.435   6.759
 3968POPC   C3B51345   5.715  19.346   7.195
 3968POPC   C4B51346   6.046  19.095   7.324
 3969POPC   NC351347   5.600  16.140   5.372
 3969POPC   PO451348   6.325  16.186   5.421
 3969POPC   GL151349   6.045  15.969   5.672
 3969POPC   GL251350   5.925  16.296   5.785
 3969POPC   C1A51351   6.003  15.915   6.130
 3969POPC   D2A51352   6.117  15.864   6.562
 3969POPC   C3A51353   5.796  15.809   6.867
 3969POPC   C4A51354   5.796  15.637   7.271
 3969POPC   C1B51355   5.645  16.347   6.150
 3969POPC   C2B51356   5.575  16.192   6.581
 3969POPC   C3B51357   5.634  16.274   7.030
 3969POPC   C4B51358   5.568  16.070   7.453
 3970POPC   NC351359   8.402  31.144   5.129
 3970POPC   PO451360   7.987  31.641   5.355
 3970POPC   GL151361   8.069  31.492   5.767
 3970POPC   GL251362   8.324  31.747   5.811
 3970POPC   C1A51363   7.888  31.300   6.152
 3970POPC   D2A51364   7.944  31.195   6.600
 3970POPC   C3A51365   8.140  31.436   6.955
 3970POPC   C4A51366   8.065  31.373   7.388
 3970POPC   C1B51367   8.235  31.680   6.238
 3970POPC   C2B51368   8.400  31.385   6.499
 3970POPC   C3B51369   8.632  31.368   6.837
 3970POPC   C4B51370   8.582  31.489   7.273
 3971POPC   NC351371  38.683  27.941   5.458
 3971POPC   PO451372  38.319  27.345   5.483
 3971POPC   GL151373  38.458  27.339   5.865
 3971POPC   GL251374  38.321  27.691   5.881
 3971POPC   C1A51375  38.473  27.419   6.288
 3971POPC   D2A51376  38.697  27.469   6.626
 3971POPC   C3A51377  38.422  27.461   6.956
 3971POPC   C4A51378  38.117  27.367   7.259
 3971POPC   C1B51379  38.697  27.844   6.119
 3971POPC   C2B51380  38.831  27.982   6.515
 3971POPC   C3B51381  38.747  27.885   6.912
 3971POPC   C4B51382  38.602  27.839   7.299
 3972POPC   NC351383   5.306  22.516   5.427
 3972POPC   PO451384   5.550  21.884   5.388
 3972POPC   GL151385   5.195  21.949   5.683
 3972POPC   GL251386   4.999  22.234   5.754
 3972POPC   C1A51387   5.066  21.865   6.138
 3972POPC   D2A51388   5.004  21.714   6.574
 3972POPC   C3A51389   5.234  21.827   6.957
 3972POPC   C4A51390   5.224  21.917   7.403
 3972POPC   C1B51391   5.247  22.365   6.146
 3972POPC   C2B51392   5.379  22.258   6.594
 3972POPC   C3B51393   5.369  22.314   7.057
 3972POPC   C4B51394   5.286  22.412   7.497
 3973POPC   NC351395  23.632   3.329   5.289
 3973POPC   PO451396  24.149   3.726   5.527
 3973POPC   GL151397  23.794   3.697   5.805
 3973POPC   GL251398  23.803   3.376   5.846
 3973POPC   C1A51399  23.562   3.725   6.242
 3973POPC   D2A51400  23.460   3.570   6.695
 3973POPC   C3A51401  23.649   3.822   7.081
 3973POPC   C4A51402  23.566   3.785   7.568
 3973POPC   C1B51403  24.056   3.564   6.230
 3973POPC   C2B51404  23.968   3.633   6.684
 3973POPC   C3B51405  23.846   3.284   6.977
 3973POPC   C4B51406  24.102   2.985   7.235
 3974POPC   NC351407  35.895  41.215   5.482
 3974POPC   PO451408  36.337  41.763   5.429
 3974POPC   GL151409  36.127  41.726   5.786
 3974POPC   GL251410  36.290  41.398   5.830
 3974POPC   C1A51411  35.969  41.581   6.175
 3974POPC   D2A51412  36.182  41.376   6.497
 3974POPC   C3A51413  36.172  41.648   6.852
 3974POPC   C4A51414  36.224  41.548   7.259
 3974POPC   C1B51415  36.561  41.172   6.136
 3974POPC   C2B51416  36.575  41.032   6.569
 3974POPC   C3B51417  36.475  41.214   6.940
 3974POPC   C4B51418  36.688  41.333   7.285
 3975POPC   NC351419  18.146   7.071   5.575
 3975POPC   PO451420  18.813   7.170   5.474
 3975POPC   GL151421  18.532   7.275   5.840
 3975POPC   GL251422  18.387   7.635   5.812
 3975POPC   C1A51423  18.283   7.324   6.217
 3975POPC   D2A51424  18.176   7.440   6.614
 3975POPC   C3A51425  18.047   7.229   6.972
 3975POPC   C4A51426  18.107   7.334   7.401
 3975POPC   C1B51427  18.227   7.831   6.204
 3975POPC   C2B51428  18.284   7.938   6.636
 3975POPC   C3B51429  18.212   7.721   7.043
 3975POPC   C4B51430  18.382   7.763   7.448
 3976POPC   NC351431  27.497  33.522   5.378
 3976POPC   PO451432  27.903  33.933   5.452
 3976POPC   GL151433  27.680  33.771   5.836
 3976POPC   GL251434  27.335  33.631   5.860
 3976POPC   C1A51435  27.563  33.845   6.283
 3976POPC   D2A51436  27.619  34.012   6.687
 3976POPC   C3A51437  27.618  33.808   7.081
 3976POPC   C4A51438  27.454  33.880   7.509
 3976POPC   C1B51439  27.142  33.496   6.281
 3976POPC   C2B51440  27.304  33.618   6.703
 3976POPC   C3B51441  27.133  33.673   7.142
 3976POPC   C4B51442  27.108  33.532   7.629
 3977POPC   NC351443  33.457  25.980   5.185
 3977POPC   PO451444  32.875  25.926   5.562
 3977POPC   GL151445  33.088  26.141   5.878
 3977POPC   GL251446  33.454  26.258   5.745
 3977POPC   C1A51447  33.160  25.936   6.286
 3977POPC   D2A51448  33.198  25.885   6.745
 3977POPC   C3A51449  32.908  26.124   7.008
 3977POPC   C4A51450  32.886  26.071   7.452
 3977POPC   C1B51451  33.400  26.429   6.138
 3977POPC   C2B51452  33.243  26.359   6.522
 3977POPC   C3B51453  33.346  26.384   6.907
 3977POPC   C4B51454  33.165  26.469   7.265
 3978POPC   NC351455   0.619  24.759   5.246
 3978POPC   PO451456   0.423  24.145   5.423
 3978POPC   GL151457   0.419  24.495   5.710
 3978POPC   GL251458   0.569  24.279   5.950
 3978POPC   C1A51459   0.282  24.672   6.125
 3978POPC   D2A51460   0.392  24.789   6.599
 3978POPC   C3A51461   0.244  24.609   7.051
 3978POPC   C4A51462   0.292  24.628   7.543
 3978POPC   C1B51463   0.435  24.286   6.398
 3978POPC   C2B51464   0.581  24.069   6.721
 3978POPC   C3B51465   0.448  24.146   7.132
 3978POPC   C4B51466   0.541  24.180   7.568
 3979POPC   NC351467  20.120  43.757   5.341
 3979POPC   PO451468  19.478  43.912   5.336
 3979POPC   GL151469  19.787  43.862   5.719
 3979POPC   GL251470  20.011  44.136   5.784
 3979POPC   C1A51471  19.727  43.734   6.166
 3979POPC   D2A51472  19.512  43.905   6.545
 3979POPC   C3A51473  19.685  43.800   6.941
 3979POPC   C4A51474  19.568  43.911   7.344
 3979POPC   C1B51475  20.195  44.317   6.113
 3979POPC   C2B51476  20.114  44.143   6.498
 3979POPC   C3B51477  20.074  44.135   6.923
 3979POPC   C4B51478  20.091  43.943   7.334
 3980POPC   NC351479  35.560  26.365   5.428
 3980POPC   PO451480  35.148  26.918   5.172
 3980POPC   GL151481  35.209  26.699   5.592
 3980POPC   GL251482  35.523  26.872   5.664
 3980POPC   C1A51483  35.161  26.722   6.066
 3980POPC   D2A51484  35.165  27.105   6.362
 3980POPC   C3A51485  35.192  27.140   6.826
 3980POPC   C4A51486  35.108  26.901   7.200
 3980POPC   C1B51487  35.609  26.967   6.102
 3980POPC   C2B51488  35.696  26.731   6.477
 3980POPC   C3B51489  35.524  26.704   6.882
 3980POPC   C4B51490  35.595  27.026   7.143
 3981POPC   NC351491  10.996  37.193   5.409
 3981POPC   PO451492  10.903  36.584   5.561
 3981POPC   GL151493  11.122  36.823   5.842
 3981POPC   GL251494  10.893  36.701   6.065
 3981POPC   C1A51495  11.223  37.132   6.167
 3981POPC   D2A51496  11.245  37.256   6.602
 3981POPC   C3A51497  11.484  37.066   6.944
 3981POPC   C4A51498  11.490  36.756   7.250
 3981POPC   C1B51499  11.186  36.624   6.337
 3981POPC   C2B51500  11.125  36.759   6.737
 3981POPC   C3B51501  10.984  36.592   7.102
 3981POPC   C4B51502  11.092  36.545   7.538
 3982POPC   NC351503  41.216   2.617   5.047
 3982POPC   PO451504  41.787   2.362   5.381
 3982POPC   GL151505  41.623   2.670   5.709
 3982POPC   GL251506  41.576   2.409   5.920
 3982POPC   C1A51507  41.439   2.849   6.152
 3982POPC   D2A51508  41.153   3.001   6.535
 3982POPC   C3A51509  41.337   3.000   6.949
 3982POPC   C4A51510  41.618   2.930   7.306
 3982POPC   C1B51511  41.434   2.356   6.298
 3982POPC   C2B51512  41.444   2.591   6.634
 3982POPC   C3B51513  41.480   2.518   7.016
 3982POPC   C4B51514  41.754   2.420   7.303
 3983POPC   NC351515  44.171  44.608   5.387
 3983POPC   PO451516  43.473  44.269   5.540
 3983POPC   GL151517  43.778  44.417   5.851
 3983POPC   GL251518  44.150  44.485   5.873
 3983POPC   C1A51519  43.849  44.275   6.255
 3983POPC   D2A51520  44.049  44.434   6.595
 3983POPC   C3A51521  43.916  44.392   7.016
 3983POPC   C4A51522  43.658  44.713   7.235
 3983POPC   C1B51523  43.984  44.788   6.173
 3983POPC   C2B51524  43.870  44.932   6.583
 3983POPC   C3B51525  44.087  44.892   6.956
 3983POPC   C4B51526  44.066   0.035   7.351
 3984POPC   NC351527   6.802  20.770   5.445
 3984POPC   PO451528   6.627  20.143   5.349
 3984POPC   GL151529   6.547  20.441   5.738
 3984POPC   GL251530   6.856  20.586   5.909
 3984POPC   C1A51531   6.418  20.686   6.147
 3984POPC   D2A51532   6.394  20.522   6.578
 3984POPC   C3A51533   6.322  20.696   6.978
 3984POPC   C4A51534   6.636  20.548   7.193
 3984POPC   C1B51535   6.912  20.647   6.347
 3984POPC   C2B51536   7.033  20.638   6.776
 3984POPC   C3B51537   7.105  20.716   7.184
 3984POPC   C4B51538   7.073  20.358   7.429
 3985POPC   NC351539  15.977  23.438   5.581
 3985POPC   PO451540  15.956  22.782   5.399
 3985POPC   GL151541  15.977  22.963   5.813
 3985POPC   GL251542  16.261  22.796   5.871
 3985POPC   C1A51543  15.867  22.993   6.267
 3985POPC   D2A51544  15.651  23.107   6.666
 3985POPC   C3A51545  15.926  23.067   7.047
 3985POPC   C4A51546  15.892  23.358   7.420
 3985POPC   C1B51547  16.180  22.594   6.250
 3985POPC   C2B51548  15.956  22.594   6.667
 3985POPC   C3B51549  16.117  22.595   7.094
 3985POPC   C4B51550  15.898  22.530   7.479
 3986POPC   NC351551  41.186   7.707   5.568
 3986POPC   PO451552  40.690   7.212   5.443
 3986POPC   GL151553  40.772   7.437   5.807
 3986POPC   GL251554  40.522   7.666   5.940
 3986POPC   C1A51555  40.855   7.270   6.207
 3986POPC   D2A51556  40.618   7.180   6.570
 3986POPC   C3A51557  40.572   7.421   6.946
 3986POPC   C4A51558  40.833   7.141   7.172
 3986POPC   C1B51559  40.588   7.673   6.393
 3986POPC   C2B51560  40.975   7.573   6.653
 3986POPC   C3B51561  40.998   7.678   7.096
 3986POPC   C4B51562  40.715   7.861   7.402
 3987POPC   NC351563  32.826   2.324   5.648
 3987POPC   PO451564  33.051   2.945   5.609
 3987POPC   GL151565  32.932   2.746   5.968
 3987POPC   GL251566  32.595   2.719   5.907
 3987POPC   C1A51567  33.148   2.568   6.317
 3987POPC   D2A51568  32.983   2.495   6.712
 3987POPC   C3A51569  33.206   2.556   7.079
 3987POPC   C4A51570  33.304   2.859   7.365
 3987POPC   C1B51571  32.572   2.892   6.341
 3987POPC   C2B51572  32.493   2.836   6.795
 3987POPC   C3B51573  32.703   2.629   7.139
 3987POPC   C4B51574  32.848   2.771   7.534
 3988POPC   NC351575  44.300  35.482   5.530
 3988POPC   PO451576  44.851  35.033   5.472
 3988POPC   GL151577  44.643  35.133   5.786
 3988POPC   GL251578  44.791  35.462   5.846
 3988POPC   C1A51579  44.662  35.078   6.234
 3988POPC   D2A51580  44.365  35.200   6.515
 3988POPC   C3A51581  44.498  35.239   6.916
 3988POPC   C4A51582  44.375  35.213   7.324
 3988POPC   C1B51583  44.990  35.494   6.292
 3988POPC   C2B51584  44.975  35.370   6.778
 3988POPC   C3B51585  44.823  35.475   7.222
 3988POPC   C4B51586  44.999  35.642   7.629
 3989POPC   NC351587  12.498  18.565   5.287
 3989POPC   PO451588  11.883  18.290   5.454
 3989POPC   GL151589  12.013  18.330   5.883
 3989POPC   GL251590  12.142  17.972   5.932
 3989POPC   C1A51591  12.067  18.272   6.353
 3989POPC   D2A51592  12.417  18.188   6.635
 3989POPC   C3A51593  12.234  18.183   7.030
 3989POPC   C4A51594  12.130  18.562   7.218
 3989POPC   C1B51595  11.715  17.981   6.107
 3989POPC   C2B51596  11.639  18.009   6.493
 3989POPC   C3B51597  11.787  18.246   6.812
 3989POPC   C4B51598  11.750  18.225   7.263
 3990POPC   NC351599  23.720  35.458   5.249
 3990POPC   PO451600  23.474  34.855   5.512
 3990POPC   GL151601  23.528  35.228   5.794
 3990POPC   GL251602  23.777  35.541   5.761
 3990POPC   C1A51603  23.605  35.386   6.232
 3990POPC   D2A51604  23.807  35.455   6.637
 3990POPC   C3A51605  23.552  35.548   6.989
 3990POPC   C4A51606  23.455  35.289   7.318
 3990POPC   C1B51607  24.061  35.646   6.138
 3990POPC   C2B51608  24.012  35.903   6.522
 3990POPC   C3B51609  23.976  35.852   6.968
 3990POPC   C4B51610  24.130  35.447   7.103
 3991POPC   NC351611  42.529  40.655   5.542
 3991POPC   PO451612  41.902  40.509   5.559
 3991POPC   GL151613  42.163  40.691   5.939
 3991POPC   GL251614  42.512  40.563   6.022
 3991POPC   C1A51615  42.213  41.002   6.300
 3991POPC   D2A51616  42.375  41.232   6.682
 3991POPC   C3A51617  42.297  41.074   7.086
 3991POPC   C4A51618  42.161  40.665   7.211
 3991POPC   C1B51619  42.458  40.570   6.431
 3991POPC   C2B51620  42.571  40.734   6.798
 3991POPC   C3B51621  42.672  40.690   7.205
 3991POPC   C4B51622  42.527  40.405   7.503
 3992POPC   NC351623  37.103  33.554   5.439
 3992POPC   PO451624  37.875  33.767   5.470
 3992POPC   GL151625  37.735  33.871   5.862
 3992POPC   GL251626  37.436  33.722   5.767
 3992POPC   C1A51627  37.780  34.027   6.274
 3992POPC   D2A51628  37.799  33.907   6.681
 3992POPC   C3A51629  38.004  34.138   6.994
 3992POPC   C4A51630  37.958  33.940   7.350
 3992POPC   C1B51631  37.334  33.727   6.172
 3992POPC   C2B51632  37.371  33.619   6.585
 3992POPC   C3B51633  37.570  33.539   6.968
 3992POPC   C4B51634  37.408  33.763   7.308
 3993POPC   NC351635   4.506  26.362   5.438
 3993POPC   PO451636   4.110  27.033   5.341
 3993POPC   GL151637   4.175  26.944   5.763
 3993POPC   GL251638   4.284  26.618   5.837
 3993POPC   C1A51639   4.300  27.067   6.191
 3993POPC   D2A51640   4.573  26.991   6.559
 3993POPC   C3A51641   4.401  27.077   6.949
 3993POPC   C4A51642   4.071  26.828   7.105
 3993POPC   C1B51643   4.597  26.635   6.178
 3993POPC   C2B51644   4.622  26.480   6.645
 3993POPC   C3B51645   4.344  26.385   7.023
 3993POPC   C4B51646   4.253  26.434   7.476
 3994POPC   NC351647   5.998  44.094   5.437
 3994POPC   PO451648   5.434  43.787   5.370
 3994POPC   GL151649   5.628  43.921   5.746
 3994POPC   GL251650   5.530  43.628   5.900
 3994POPC   C1A51651   5.837  44.168   6.088
 3994POPC   D2A51652   5.803  44.320   6.515
 3994POPC   C3A51653   5.929  44.034   6.836
 3994POPC   C4A51654   6.072  43.858   7.220
 3994POPC   C1B51655   5.554  43.801   6.310
 3994POPC   C2B51656   5.666  43.602   6.682
 3994POPC   C3B51657   5.533  43.715   7.060
 3994POPC   C4B51658   5.625  44.063   7.285
 3995POPC   NC351659  10.873  33.645   5.103
 3995POPC   PO451660  11.282  33.470   5.586
 3995POPC   GL151661  11.147  33.509   5.990
 3995POPC   GL251662  10.989  33.828   5.928
 3995POPC   C1A51663  10.864  33.560   6.338
 3995POPC   D2A51664  10.879  33.800   6.733
 3995POPC   C3A51665  11.246  33.602   6.977
 3995POPC   C4A51666  11.251  33.462   7.404
 3995POPC   C1B51667  10.952  34.135   6.288
 3995POPC   C2B51668  11.161  34.283   6.669
 3995POPC   C3B51669  11.199  34.096   7.049
 3995POPC   C4B51670  10.890  33.897   7.297
 3996POPC   NC351671  13.424  40.980   5.339
 3996POPC   PO451672  13.767  40.419   5.315
 3996POPC   GL151673  13.496  40.557   5.689
 3996POPC   GL251674  13.509  40.922   5.830
 3996POPC   C1A51675  13.658  40.485   6.116
 3996POPC   D2A51676  13.938  40.589   6.471
 3996POPC   C3A51677  13.737  40.841   6.801
 3996POPC   C4A51678  13.875  40.798   7.205
 3996POPC   C1B51679  13.317  40.854   6.222
 3996POPC   C2B51680  13.261  40.654   6.605
 3996POPC   C3B51681  13.206  40.891   6.965
 3996POPC   C4B51682  13.440  40.989   7.332
 3997POPC   NC351683  18.921  11.411   5.049
 3997POPC   PO451684  18.882  11.265   5.700
 3997POPC   GL151685  19.042  11.234   6.058
 3997POPC   GL251686  19.352  11.141   5.941
 3997POPC   C1A51687  18.968  11.380   6.456
 3997POPC   D2A51688  18.992  11.171   6.806
 3997POPC   C3A51689  18.741  11.301   7.122
 3997POPC   C4A51690  18.826  11.375   7.533
 3997POPC   C1B51691  19.421  11.499   6.254
 3997POPC   C2B51692  19.499  11.406   6.677
 3997POPC   C3B51693  19.395  11.273   7.072
 3997POPC   C4B51694  19.310  11.470   7.447
 3998POPC   NC351695   2.804  14.605   5.368
 3998POPC   PO451696   2.276  14.899   5.649
 3998POPC   GL151697   2.562  14.560   5.930
 3998POPC   GL251698   2.392  14.215   5.988
 3998POPC   C1A51699   2.853  14.370   6.246
 3998POPC   D2A51700   2.982  14.577   6.667
 3998POPC   C3A51701   2.749  14.375   7.016
 3998POPC   C4A51702   2.875  14.179   7.430
 3998POPC   C1B51703   2.378  14.221   6.432
 3998POPC   C2B51704   2.446  13.950   6.773
 3998POPC   C3B51705   2.454  13.998   7.199
 3998POPC   C4B51706   2.437  14.124   7.646
 3999POPC   NC351707  20.387  26.863   5.464
 3999POPC   PO451708  20.963  26.568   5.469
 3999POPC   GL151709  20.730  26.699   5.866
 3999POPC   GL251710  20.683  27.066   5.852
 3999POPC   C1A51711  20.790  26.737   6.335
 3999POPC   D2A51712  20.910  26.463   6.694
 3999POPC   C3A51713  20.713  26.633   7.076
 3999POPC   C4A51714  20.789  27.054   7.262
 3999POPC   C1B51715  20.576  27.187   6.270
 3999POPC   C2B51716  20.733  27.103   6.706
 3999POPC   C3B51717  20.464  27.334   6.990
 3999POPC   C4B51718  20.170  27.320   7.288
 4000POPC   NC351719  28.953   4.184   5.491
 4000POPC   PO451720  29.284   4.783   5.595
 4000POPC   GL151721  29.030   4.539   5.861
 4000POPC   GL251722  29.326   4.359   5.945
 4000POPC   C1A51723  28.948   4.294   6.262
 4000POPC   D2A51724  29.076   4.080   6.625
 4000POPC   C3A51725  28.978   4.333   6.973
 4000POPC   C4A51726  29.051   4.729   7.119
 4000POPC   C1B51727  29.514   4.089   6.286
 4000POPC   C2B51728  29.559   3.856   6.690
 4000POPC   C3B51729  29.507   3.935   7.145
 4000POPC   C4B51730  29.497   4.011   7.621
 4001POPC   NC351731  42.315  41.664   5.336
 4001POPC   PO451732  42.388  41.072   5.658
 4001POPC   GL151733  42.152  41.351   5.906
 4001POPC   GL251734  42.145  41.714   5.820
 4001POPC   C1A51735  42.421  41.507   6.248
 4001POPC   D2A51736  42.607  41.704   6.635
 4001POPC   C3A51737  42.442  41.604   7.057
 4001POPC   C4A51738  42.295  41.837   7.411
 4001POPC   C1B51739  42.069  41.884   6.238
 4001POPC   C2B51740  42.067  41.654   6.618
 4001POPC   C3B51741  41.926  41.515   7.016
 4001POPC   C4B51742  42.043  41.376   7.410
 4002POPC   NC351743  36.712   0.611   5.528
 4002POPC   PO451744  37.266   0.237   5.273
 4002POPC   GL151745  37.158   0.399   5.761
 4002POPC   GL251746  37.095   0.791   5.853
 4002POPC   C1A51747  36.988   0.429   6.225
 4002POPC   D2A51748  37.003   0.730   6.572
 4002POPC   C3A51749  37.068   0.538   6.975
 4002POPC   C4A51750  36.793   0.343   7.293
 4002POPC   C1B51751  36.725   0.904   6.161
 4002POPC   C2B51752  36.503   0.891   6.589
 4002POPC   C3B51753  36.640   0.836   7.001
 4002POPC   C4B51754  36.499   0.744   7.397
 4003POPC   NC351755  31.145  10.737   5.288
 4003POPC   PO451756  31.810  10.556   5.123
 4003POPC   GL151757  31.647  10.679   5.594
 4003POPC   GL251758  31.325  10.557   5.746
 4003POPC   C1A51759  31.680  10.795   6.058
 4003POPC   D2A51760  31.598  10.554   6.462
 4003POPC   C3A51761  31.619  10.638   6.915
 4003POPC   C4A51762  31.675  10.298   7.208
 4003POPC   C1B51763  31.250  10.358   6.152
 4003POPC   C2B51764  31.127  10.287   6.582
 4003POPC   C3B51765  31.181  10.313   7.039
 4003POPC   C4B51766  31.079  10.158   7.465
 4004POPC   NC351767   1.136  43.426   5.168
 4004POPC   PO451768   1.517  43.788   5.625
 4004POPC   GL151769   1.366  43.894   5.972
 4004POPC   GL251770   1.030  43.785   5.883
 4004POPC   C1A51771   1.411  43.806   6.383
 4004POPC   D2A51772   1.129  43.793   6.708
 4004POPC   C3A51773   1.250  44.067   7.017
 4004POPC   C4A51774   1.462  43.790   7.269
 4004POPC   C1B51775   0.818  43.866   6.274
 4004POPC   C2B51776   0.742  44.146   6.600
 4004POPC   C3B51777   0.708  43.957   6.963
 4004POPC   C4B51778   0.956  43.726   7.249
 4005POPC   NC351779  39.821   4.471   5.245
 4005POPC   PO451780  39.693   3.857   5.473
 4005POPC   GL151781  39.967   4.198   5.666
 4005POPC   GL251782  39.804   4.520   5.756
 4005POPC   C1A51783  39.996   4.251   6.144
 4005POPC   D2A51784  39.746   4.220   6.539
 4005POPC   C3A51785  39.933   4.298   6.958
 4005POPC   C4A51786  40.073   4.019   7.284
 4005POPC   C1B51787  39.586   4.584   6.165
 4005POPC   C2B51788  39.599   4.772   6.601
 4005POPC   C3B51789  39.604   4.729   7.060
 4005POPC   C4B51790  39.895   4.786   7.421
 4006POPC   NC351791   6.651  14.065   5.159
 4006POPC   PO451792   6.744  13.501   5.484
 4006POPC   GL151793   6.508  13.575   5.828
 4006POPC   GL251794   6.815  13.601   5.995
 4006POPC   C1A51795   6.372  13.858   6.158
 4006POPC   D2A51796   6.205  13.750   6.554
 4006POPC   C3A51797   6.198  13.834   6.954
 4006POPC   C4A51798   6.473  13.852   7.276
 4006POPC   C1B51799   6.987  13.767   6.346
 4006POPC   C2B51800   7.122  14.080   6.607
 4006POPC   C3B51801   6.902  13.917   6.977
 4006POPC   C4B51802   6.876  13.551   7.286
 4007POPC   NC351803  35.156  44.763   5.364
 4007POPC   PO451804  35.000  44.074   5.515
 4007POPC   GL151805  35.123  44.482   5.818
 4007POPC   GL251806  35.476  44.690   5.769
 4007POPC   C1A51807  35.243  44.738   6.206
 4007POPC   D2A51808  35.512  44.756   6.575
 4007POPC   C3A51809  35.252  44.563   6.884
 4007POPC   C4A51810  35.150  44.685   7.289
 4007POPC   C1B51811  35.626  44.407   6.113
 4007POPC   C2B51812  35.487  44.253   6.518
 4007POPC   C3B51813  35.716  44.365   6.896
 4007POPC   C4B51814  35.640  44.435   7.310
 4008POPC   NC351815   9.508  34.687   5.300
 4008POPC   PO451816   9.862  34.096   5.423
 4008POPC   GL151817   9.926  34.511   5.649
 4008POPC   GL251818   9.641  34.737   5.783
 4008POPC   C1A51819   9.987  34.533   6.092
 4008POPC   D2A51820  10.063  34.669   6.520
 4008POPC   C3A51821  10.154  34.346   6.797
 4008POPC   C4A51822   9.985  34.463   7.172
 4008POPC   C1B51823   9.366  34.965   6.077
 4008POPC   C2B51824   9.335  34.786   6.487
 4008POPC   C3B51825   9.348  34.888   6.943
 4008POPC   C4B51826   9.523  34.642   7.278
 4009POPC   NC351827   6.275   8.366   5.313
 4009POPC   PO451828   5.693   8.080   5.186
 4009POPC   GL151829   5.822   8.274   5.644
 4009POPC   GL251830   5.511   8.203   5.858
 4009POPC   C1A51831   5.992   8.103   6.098
 4009POPC   D2A51832   6.184   8.086   6.544
 4009POPC   C3A51833   6.127   8.206   7.000
 4009POPC   C4A51834   5.942   8.497   7.278
 4009POPC   C1B51835   5.545   8.218   6.336
 4009POPC   C2B51836   5.684   7.991   6.716
 4009POPC   C3B51837   5.636   8.106   7.149
 4009POPC   C4B51838   5.517   8.183   7.598
 4010POPC   NC351839  25.821  38.058   5.564
 4010POPC   PO451840  26.227  37.508   5.383
 4010POPC   GL151841  26.149  37.683   5.789
 4010POPC   GL251842  26.426  37.911   5.787
 4010POPC   C1A51843  25.917  37.731   6.213
 4010POPC   D2A51844  25.816  37.874   6.653
 4010POPC   C3A51845  25.944  37.638   7.021
 4010POPC   C4A51846  25.843  37.684   7.488
 4010POPC   C1B51847  26.430  37.696   6.224
 4010POPC   C2B51848  26.360  37.856   6.642
 4010POPC   C3B51849  26.328  37.995   7.071
 4010POPC   C4B51850  26.353  37.607   7.331
 4011POPC   NC351851  21.131  13.108   5.650
 4011POPC   PO451852  21.642  12.696   5.433
 4011POPC   GL151853  21.428  12.748   5.847
 4011POPC   GL251854  21.560  12.433   5.915
 4011POPC   C1A51855  21.221  12.951   6.262
 4011POPC   D2A51856  21.383  13.028   6.694
 4011POPC   C3A51857  21.206  12.933   7.087
 4011POPC   C4A51858  21.005  12.783   7.459
 4011POPC   C1B51859  21.312  12.461   6.262
 4011POPC   C2B51860  21.557  12.531   6.614
 4011POPC   C3B51861  21.477  12.502   7.025
 4011POPC   C4B51862  21.371  12.439   7.441
 4012POPC   NC351863  29.909  14.035   5.314
 4012POPC   PO451864  29.786  14.658   5.467
 4012POPC   GL151865  29.773  14.346   5.779
 4012POPC   GL251866  30.108  14.188   5.778
 4012POPC   C1A51867  29.633  14.447   6.187
 4012POPC   D2A51868  29.511  14.288   6.574
 4012POPC   C3A51869  29.579  14.556   6.922
 4012POPC   C4A51870  29.745  14.552   7.329
 4012POPC   C1B51871  30.094  14.225   6.236
 4012POPC   C2B51872  30.001  14.556   6.551
 4012POPC   C3B51873  30.111  14.583   6.974
 4012POPC   C4B51874  30.119  14.212   7.246
 4013POPC   NC351875  42.893   7.966   5.460
 4013POPC   PO451876  43.314   8.361   5.466
 4013POPC   GL151877  43.150   8.191   5.876
 4013POPC   GL251878  42.772   8.190   5.921
 4013POPC   C1A51879  43.367   8.130   6.298
 4013POPC   D2A51880  43.348   8.085   6.763
 4013POPC   C3A51881  43.174   8.367   7.102
 4013POPC   C4A51882  43.168   8.335   7.567
 4013POPC   C1B51883  42.871   8.096   6.377
 4013POPC   C2B51884  42.838   8.056   6.824
 4013POPC   C3B51885  42.849   8.044   7.281
 4013POPC   C4B51886  42.674   8.158   7.723
 4014POPC   NC351887   6.305  19.088   5.273
 4014POPC   PO451888   6.923  18.794   5.530
 4014POPC   GL151889   6.797  19.105   5.830
 4014POPC   GL251890   6.471  19.057   5.807
 4014POPC   C1A51891   6.720  19.093   6.250
 4014POPC   D2A51892   6.807  18.808   6.536
 4014POPC   C3A51893   6.632  19.045   6.843
 4014POPC   C4A51894   6.699  19.119   7.246
 4014POPC   C1B51895   6.318  18.783   6.185
 4014POPC   C2B51896   6.247  18.762   6.632
 4014POPC   C3B51897   6.467  18.596   7.004
 4014POPC   C4B51898   6.501  18.706   7.454
 4015POPC   NC351899   0.615  14.882   5.418
 4015POPC   PO451900   0.207  14.270   5.415
 4015POPC   GL151901   0.264  14.383   5.808
 4015POPC   GL251902  44.914  14.305   5.858
 4015POPC   C1A51903   0.554  14.425   6.159
 4015POPC   D2A51904   0.616  14.234   6.544
 4015POPC   C3A51905   0.612  14.442   6.909
 4015POPC   C4A51906   0.717  14.393   7.331
 4015POPC   C1B51907   0.040  14.390   6.289
 4015POPC   C2B51908   0.120  14.272   6.722
 4015POPC   C3B51909   0.223  14.262   7.176
 4015POPC   C4B51910   0.271  14.627   7.449
 4016POPC   NC351911  17.810  12.992   5.340
 4016POPC   PO451912  17.206  12.621   5.418
 4016POPC   GL151913  17.350  12.615   5.812
 4016POPC   GL251914  17.585  12.897   5.817
 4016POPC   C1A51915  17.682  12.486   6.077
 4016POPC   D2A51916  17.809  12.758   6.416
 4016POPC   C3A51917  17.568  12.693   6.819
 4016POPC   C4A51918  17.594  12.786   7.255
 4016POPC   C1B51919  17.599  13.181   6.170
 4016POPC   C2B51920  17.437  13.157   6.587
 4016POPC   C3B51921  17.556  13.227   6.998
 4016POPC   C4B51922  17.697  13.261   7.416
 4017POPC   NC351923  12.985  20.931   5.514
 4017POPC   PO451924  12.909  21.586   5.352
 4017POPC   GL151925  13.018  21.438   5.767
 4017POPC   GL251926  12.765  21.194   5.904
 4017POPC   C1A51927  13.009  21.495   6.229
 4017POPC   D2A51928  12.678  21.267   6.484
 4017POPC   C3A51929  12.599  21.511   6.861
 4017POPC   C4A51930  12.838  21.368   7.173
 4017POPC   C1B51931  13.073  20.992   6.178
 4017POPC   C2B51932  13.179  21.127   6.601
 4017POPC   C3B51933  13.076  20.921   6.994
 4017POPC   C4B51934  12.975  20.963   7.419
 4018POPC   NC351935   7.782   2.967   5.112
 4018POPC   PO451936   7.229   3.048   5.569
 4018POPC   GL151937   7.290   2.825   5.943
 4018POPC   GL251938   7.585   2.612   5.918
 4018POPC   C1A51939   7.447   2.849   6.364
 4018POPC   D2A51940   7.654   3.035   6.705
 4018POPC   C3A51941   7.571   3.147   7.118
 4018POPC   C4A51942   7.260   3.124   7.426
 4018POPC   C1B51943   7.652   2.366   6.321
 4018POPC   C2B51944   7.558   2.504   6.716
 4018POPC   C3B51945   7.323   2.688   7.008
 4018POPC   C4B51946   7.471   2.668   7.378
 4019POPC   NC351947  38.376  37.093   5.635
 4019POPC   PO451948  38.393  36.633   5.118
 4019POPC   GL151949  38.649  36.665   5.554
 4019POPC   GL251950  38.413  36.593   5.789
 4019POPC   C1A51951  38.754  36.769   6.076
 4019POPC   D2A51952  38.624  37.027   6.459
 4019POPC   C3A51953  38.728  36.950   6.896
 4019POPC   C4A51954  38.799  36.992   7.363
 4019POPC   C1B51955  38.319  36.472   6.207
 4019POPC   C2B51956  38.504  36.517   6.592
 4019POPC   C3B51957  38.243  36.780   6.811
 4019POPC   C4B51958  38.327  36.874   7.213
 4020POPC   NC351959  23.365  43.539   5.490
 4020POPC   PO451960  22.723  43.603   5.383
 4020POPC   GL151961  22.950  43.689   5.791
 4020POPC   GL251962  22.936  44.064   5.780
 4020POPC   C1A51963  23.230  43.571   6.179
 4020POPC   D2A51964  23.457  43.527   6.596
 4020POPC   C3A51965  23.177  43.637   6.895
 4020POPC   C4A51966  22.833  43.527   7.167
 4020POPC   C1B51967  22.815  44.197   6.201
 4020POPC   C2B51968  22.637  44.129   6.616
 4020POPC   C3B51969  22.844  44.037   7.025
 4020POPC   C4B51970  22.832  44.052   7.475
 4021POPC   NC351971   5.376   1.476   5.535
 4021POPC   PO451972   4.709   1.392   5.385
 4021POPC   GL151973   4.889   1.130   5.716
 4021POPC   GL251974   5.228   1.000   5.807
 4021POPC   C1A51975   4.858   1.148   6.147
 4021POPC   D2A51976   5.004   1.365   6.541
 4021POPC   C3A51977   4.928   1.304   7.005
 4021POPC   C4A51978   5.043   1.176   7.441
 4021POPC   C1B51979   5.358   1.086   6.254
 4021POPC   C2B51980   5.394   1.119   6.722
 4021POPC   C3B51981   5.455   1.203   7.135
 4021POPC   C4B51982   5.562   1.175   7.581
 4022POPC   NC351983  22.701  24.137   5.566
 4022POPC   PO451984  22.568  24.875   5.468
 4022POPC   GL151985  22.853  24.719   5.863
 4022POPC   GL251986  22.878  24.373   5.978
 4022POPC   C1A51987  23.118  24.705   6.258
 4022POPC   D2A51988  23.268  24.557   6.663
 4022POPC   C3A51989  23.018  24.729   7.010
 4022POPC   C4A51990  23.025  24.965   7.384
 4022POPC   C1B51991  22.998  24.181   6.353
 4022POPC   C2B51992  22.791  23.917   6.651
 4022POPC   C3B51993  22.948  24.110   7.003
 4022POPC   C4B51994  23.307  24.313   7.122
 4023POPC   NC351995  26.356  24.373   5.183
 4023POPC   PO451996  25.734  24.438   5.501
 4023POPC   GL151997  26.031  24.383   5.802
 4023POPC   GL251998  26.294  24.645   5.686
 4023POPC   C1A51999  25.947  24.263   6.256
 4023POPC   D2A52000  25.748  24.397   6.672
 4023POPC   C3A52001  25.976  24.515   7.067
 4023POPC   C4A52002  26.067  24.483   7.526
 4023POPC   C1B52003  26.227  24.713   6.136
 4023POPC   C2B52004  26.224  24.638   6.586
 4023POPC   C3B52005  26.468  24.442   6.923
 4023POPC   C4B52006  26.528  24.616   7.325
 4024POPC   NC352007  19.292  43.450   5.443
 4024POPC   PO452008  19.144  42.682   5.355
 4024POPC   GL152009  19.177  42.958   5.677
 4024POPC   GL252010  18.828  42.863   5.747
 4024POPC   C1A52011  19.246  43.139   6.085
 4024POPC   D2A52012  19.099  43.178   6.509
 4024POPC   C3A52013  19.210  43.062   6.956
 4024POPC   C4A52014  19.065  43.193   7.378
 4024POPC   C1B52015  18.717  43.051   6.136
 4024POPC   C2B52016  18.697  42.896   6.543
 4024POPC   C3B52017  18.601  43.011   6.961
 4024POPC   C4B52018  18.769  42.757   7.263
 4025POPC   NC352019  44.077  17.798   5.034
 4025POPC   PO452020  43.701  17.996   5.546
 4025POPC   GL152021  43.934  17.693   5.755
 4025POPC   GL252022  43.682  17.431   5.816
 4025POPC   C1A52023  44.076  17.502   6.141
 4025POPC   D2A52024  44.223  17.353   6.525
 4025POPC   C3A52025  44.054  17.419   6.895
 4025POPC   C4A52026  43.974  17.222   7.262
 4025POPC   C1B52027  43.446  17.343   6.194
 4025POPC   C2B52028  43.661  17.431   6.561
 4025POPC   C3B52029  43.563  17.516   6.962
 4025POPC   C4B52030  43.504  17.463   7.364
 4026POPC   NC352031  12.813  30.628   5.421
 4026POPC   PO452032  13.440  30.274   5.583
 4026POPC   GL152033  13.112  30.521   5.823
 4026POPC   GL252034  12.768  30.405   5.867
 4026POPC   C1A52035  12.977  30.761   6.217
 4026POPC   D2A52036  13.152  30.950   6.609
 4026POPC   C3A52037  12.878  30.864   6.950
 4026POPC   C4A52038  13.075  30.594   7.206
 4026POPC   C1B52039  12.519  30.460   6.204
 4026POPC   C2B52040  12.586  30.634   6.577
 4026POPC   C3B52041  12.497  30.527   6.976
 4026POPC   C4B52042  12.629  30.483   7.391
 4027POPC   NC352043  14.226  44.920   5.036
 4027POPC   PO452044  14.407   0.462   5.443
 4027POPC   GL152045  14.354   0.265   5.827
 4027POPC   GL252046  14.694   0.378   5.933
 4027POPC   C1A52047  14.306   0.334   6.241
 4027POPC   D2A52048  14.208   0.532   6.581
 4027POPC   C3A52049  14.276   0.184   6.810
 4027POPC   C4A52050  14.280   0.135   7.211
 4027POPC   C1B52051  14.761   0.537   6.385
 4027POPC   C2B52052  14.644   0.530   6.840
 4027POPC   C3B52053  14.669   0.475   7.304
 4027POPC   C4B52054  14.970   0.704   7.598
 4028POPC   NC352055  34.086  28.386   5.633
 4028POPC   PO452056  33.494  28.573   5.347
 4028POPC   GL152057  33.586  28.417   5.784
 4028POPC   GL252058  33.462  28.107   5.821
 4028POPC   C1A52059  33.752  28.481   6.228
 4028POPC   D2A52060  33.650  28.299   6.638
 4028POPC   C3A52061  33.783  28.497   6.990
 4028POPC   C4A52062  33.509  28.574   7.249
 4028POPC   C1B52063  33.646  27.986   6.209
 4028POPC   C2B52064  34.059  28.090   6.427
 4028POPC   C3B52065  34.088  28.099   6.881
 4028POPC   C4B52066  33.754  27.996   7.212
 4029POPC   NC352067  25.052  37.516   5.389
 4029POPC   PO452068  25.369  38.091   5.495
 4029POPC   GL152069  25.386  37.692   5.741
 4029POPC   GL252070  25.045  37.570   5.884
 4029POPC   C1A52071  25.462  37.465   6.138
 4029POPC   D2A52072  25.226  37.454   6.533
 4029POPC   C3A52073  25.443  37.536   6.927
 4029POPC   C4A52074  25.530  37.913   7.135
 4029POPC   C1B52075  25.168  37.881   6.189
 4029POPC   C2B52076  25.309  37.979   6.609
 4029POPC   C3B52077  25.054  37.894   6.962
 4029POPC   C4B52078  24.931  37.906   7.381
 4030POPC   NC352079  24.356  22.882   5.273
 4030POPC   PO452080  24.303  23.439   5.647
 4030POPC   GL152081  24.499  23.102   5.826
 4030POPC   GL252082  24.351  22.806   5.766
 4030POPC   C1A52083  24.658  22.874   6.189
 4030POPC   D2A52084  24.909  22.824   6.529
 4030POPC   C3A52085  24.727  23.040   6.853
 4030POPC   C4A52086  24.589  22.996   7.251
 4030POPC   C1B52087  24.151  22.854   6.152
 4030POPC   C2B52088  24.191  22.728   6.559
 4030POPC   C3B52089  24.300  22.653   6.959
 4030POPC   C4B52090  24.166  22.736   7.365
 4031POPC   NC352091  38.346  24.769   5.390
 4031POPC   PO452092  38.070  24.158   5.576
 4031POPC   GL152093  38.366  24.350   5.842
 4031POPC   GL252094  38.307  24.711   5.914
 4031POPC   C1A52095  38.517  24.174   6.219
 4031POPC   D2A52096  38.499  24.054   6.660
 4031POPC   C3A52097  38.346  24.434   6.878
 4031POPC   C4A52098  38.284  24.727   7.236
 4031POPC   C1B52099  38.683  24.676   6.181
 4031POPC   C2B52100  38.854  24.839   6.596
 4031POPC   C3B52101  38.775  24.678   7.006
 4031POPC   C4B52102  38.916  24.450   7.339
 4032POPC   NC352103  22.695  33.399   5.091
 4032POPC   PO452104  23.067  33.980   5.316
 4032POPC   GL152105  22.941  33.956   5.772
 4032POPC   GL252106  22.739  33.648   5.805
 4032POPC   C1A52107  23.008  33.809   6.226
 4032POPC   D2A52108  22.863  33.979   6.647
 4032POPC   C3A52109  22.965  33.942   7.121
 4032POPC   C4A52110  22.971  34.198   7.533
 4032POPC   C1B52111  22.491  33.517   6.176
 4032POPC   C2B52112  22.407  33.648   6.593
 4032POPC   C3B52113  22.453  33.609   7.034
 4032POPC   C4B52114  22.777  33.513   7.350
 4033POPC   NC352115  35.296  30.576   5.056
 4033POPC   PO452116  35.808  31.020   5.268
 4033POPC   GL152117  35.530  30.703   5.617
 4033POPC   GL252118  35.168  30.654   5.681
 4033POPC   C1A52119  35.597  30.557   6.073
 4033POPC   D2A52120  35.395  30.643   6.502
 4033POPC   C3A52121  35.571  30.591   6.940
 4033POPC   C4A52122  35.361  30.673   7.317
 4033POPC   C1B52123  35.092  30.459   6.099
 4033POPC   C2B52124  35.006  30.306   6.519
 4033POPC   C3B52125  35.078  30.489   6.929
 4033POPC   C4B52126  34.958  30.369   7.369
 4034POPC   NC352127   6.156   4.011   5.309
 4034POPC   PO452128   5.563   4.443   5.391
 4034POPC   GL152129   5.749   4.212   5.696
 4034POPC   GL252130   5.579   3.893   5.591
 4034POPC   C1A52131   5.939   4.272   6.143
 4034POPC   D2A52132   6.141   4.165   6.615
 4034POPC   C3A52133   6.120   4.426   7.034
 4034POPC   C4A52134   6.017   4.666   7.419
 4034POPC   C1B52135   5.576   3.924   6.064
 4034POPC   C2B52136   5.640   4.048   6.482
 4034POPC   C3B52137   5.674   4.311   6.804
 4034POPC   C4B52138   5.671   4.255   7.229
 4035POPC   NC352139  27.026  15.649   5.488
 4035POPC   PO452140  26.567  16.133   5.310
 4035POPC   GL152141  26.818  16.091   5.764
 4035POPC   GL252142  26.920  15.778   5.953
 4035POPC   C1A52143  27.025  16.167   6.246
 4035POPC   D2A52144  27.100  16.057   6.727
 4035POPC   C3A52145  26.805  16.154   7.090
 4035POPC   C4A52146  26.838  16.357   7.543
 4035POPC   C1B52147  26.852  15.690   6.401
 4035POPC   C2B52148  26.765  15.505   6.797
 4035POPC   C3B52149  26.973  15.682   7.115
 4035POPC   C4B52150  26.938  15.858   7.499
 4036POPC   NC352151  41.767  25.302   5.461
 4036POPC   PO452152  41.204  25.113   5.231
 4036POPC   GL152153  41.353  25.318   5.748
 4036POPC   GL252154  41.576  25.528   5.903
 4036POPC   C1A52155  41.454  25.194   6.261
 4036POPC   D2A52156  41.420  25.321   6.721
 4036POPC   C3A52157  41.609  25.064   7.041
 4036POPC   C4A52158  41.849  25.115   7.406
 4036POPC   C1B52159  41.923  25.437   6.209
 4036POPC   C2B52160  41.938  25.439   6.677
 4036POPC   C3B52161  41.783  25.546   7.116
 4036POPC   C4B52162  41.865  25.599   7.592
 4037POPC   NC352163  24.344   1.102   5.592
 4037POPC   PO452164  24.889   1.571   5.599
 4037POPC   GL152165  24.575   1.450   5.921
 4037POPC   GL252166  24.223   1.576   5.852
 4037POPC   C1A52167  24.509   1.211   6.305
 4037POPC   D2A52168  24.516   0.849   6.608
 4037POPC   C3A52169  24.528   0.957   7.044
 4037POPC   C4A52170  24.570   0.845   7.490
 4037POPC   C1B52171  24.259   1.682   6.274
 4037POPC   C2B52172  24.475   1.632   6.637
 4037POPC   C3B52173  24.334   1.567   7.029
 4037POPC   C4B52174  24.322   1.308   7.375
 4038POPC   NC352175  21.059  26.124   5.515
 4038POPC   PO452176  20.494  25.688   5.388
 4038POPC   GL152177  20.679  25.766   5.772
 4038POPC   GL252178  20.639  26.123   5.809
 4038POPC   C1A52179  20.530  25.774   6.202
 4038POPC   D2A52180  20.721  25.878   6.575
 4038POPC   C3A52181  20.667  26.070   6.925
 4038POPC   C4A52182  20.747  25.835   7.270
 4038POPC   C1B52183  20.672  26.261   6.234
 4038POPC   C2B52184  20.400  26.435   6.553
 4038POPC   C3B52185  20.270  26.371   6.955
 4038POPC   C4B52186  20.469  26.268   7.392
 4039POPC   NC352187  23.959  22.015   5.229
 4039POPC   PO452188  23.493  22.230   5.709
 4039POPC   GL152189  23.877  22.102   5.864
 4039POPC   GL252190  23.977  22.454   5.827
 4039POPC   C1A52191  23.826  21.881   6.289
 4039POPC   D2A52192  23.454  21.927   6.560
 4039POPC   C3A52193  23.518  21.958   7.000
 4039POPC   C4A52194  23.772  21.939   7.377
 4039POPC   C1B52195  23.926  22.395   6.277
 4039POPC   C2B52196  23.976  22.261   6.708
 4039POPC   C3B52197  23.835  22.393   7.116
 4039POPC   C4B52198  23.906  22.364   7.593
 4040POPC   NC352199  32.325  28.155   5.344
 4040POPC   PO452200  31.924  28.757   5.392
 4040POPC   GL152201  31.959  28.480   5.768
 4040POPC   GL252202  32.308  28.373   5.822
 4040POPC   C1A52203  31.943  28.248   6.169
 4040POPC   D2A52204  32.156  28.345   6.525
 4040POPC   C3A52205  31.913  28.368   6.876
 4040POPC   C4A52206  32.155  28.438   7.227
 4040POPC   C1B52207  32.618  28.307   6.167
 4040POPC   C2B52208  32.667  28.250   6.611
 4040POPC   C3B52209  32.648  28.358   7.032
 4040POPC   C4B52210  32.545  28.107   7.419
 4041POPC   NC352211   8.078  25.305   5.522
 4041POPC   PO452212   8.716  25.280   5.383
 4041POPC   GL152213   8.489  25.118   5.767
 4041POPC   GL252214   8.500  25.465   5.885
 4041POPC   C1A52215   8.427  25.118   6.254
 4041POPC   D2A52216   8.355  25.409   6.629
 4041POPC   C3A52217   8.217  25.351   7.054
 4041POPC   C4A52218   8.042  24.985   7.230
 4041POPC   C1B52219   8.138  25.544   6.173
 4041POPC   C2B52220   7.931  25.714   6.576
 4041POPC   C3B52221   7.847  25.750   7.030
 4041POPC   C4B52222   7.906  25.564   7.444
 4042POPC   NC352223  13.926  42.672   5.635
 4042POPC   PO452224  13.387  43.019   5.377
 4042POPC   GL152225  13.544  43.236   5.766
 4042POPC   GL252226  13.620  42.949   5.925
 4042POPC   C1A52227  13.767  43.347   6.204
 4042POPC   D2A52228  13.693  43.524   6.634
 4042POPC   C3A52229  13.699  43.290   7.021
 4042POPC   C4A52230  13.441  43.342   7.382
 4042POPC   C1B52231  13.830  42.778   6.276
 4042POPC   C2B52232  13.869  42.904   6.690
 4042POPC   C3B52233  13.791  42.730   7.069
 4042POPC   C4B52234  13.531  42.850   7.333
 4043POPC   NC352235  15.885  14.621   5.376
 4043POPC   PO452236  16.284  14.075   5.477
 4043POPC   GL152237  15.962  14.255   5.766
 4043POPC   GL252238  16.046  14.619   5.881
 4043POPC   C1A52239  16.019  14.217   6.213
 4043POPC   D2A52240  16.108  14.427   6.588
 4043POPC   C3A52241  16.260  14.220   6.945
 4043POPC   C4A52242  16.078  14.078   7.300
 4043POPC   C1B52243  15.640  14.531   6.104
 4043POPC   C2B52244  15.578  14.384   6.524
 4043POPC   C3B52245  15.744  14.361   6.950
 4043POPC   C4B52246  16.044  14.669   7.135
 4044POPC   NC352247  14.917  36.285   5.054
 4044POPC   PO452248  15.578  36.077   5.190
 4044POPC   GL152249  15.447  36.097   5.673
 4044POPC   GL252250  15.129  36.227   5.845
 4044POPC   C1A52251  15.422  35.959   6.146
 4044POPC   D2A52252  15.436  35.875   6.625
 4044POPC   C3A52253  15.341  36.219   6.905
 4044POPC   C4A52254  15.440  36.363   7.335
 4044POPC   C1B52255  14.922  36.200   6.249
 4044POPC   C2B52256  14.925  36.012   6.669
 4044POPC   C3B52257  14.759  36.195   7.028
 4044POPC   C4B52258  14.938  36.383   7.342
 4045POPC   NC352259  43.878  36.280   5.368
 4045POPC   PO452260  43.556  35.660   5.221
 4045POPC   GL152261  43.669  35.907   5.659
 4045POPC   GL252262  43.975  35.774   5.827
 4045POPC   C1A52263  43.642  36.145   6.081
 4045POPC   D2A52264  43.840  36.364   6.452
 4045POPC   C3A52265  43.698  36.252   6.896
 4045POPC   C4A52266  43.591  36.090   7.321
 4045POPC   C1B52267  44.139  36.105   6.108
 4045POPC   C2B52268  44.295  36.100   6.512
 4045POPC   C3B52269  44.376  36.134   6.921
 4045POPC   C4B52270  44.088  36.117   7.222
 4046POPC   NC352271  44.891  15.572   5.392
 4046POPC   PO452272  44.496  14.972   5.458
 4046POPC   GL152273  44.531  15.206   5.830
 4046POPC   GL252274  44.870  15.204   5.803
 4046POPC   C1A52275  44.611  15.184   6.280
 4046POPC   D2A52276  44.400  15.001   6.633
 4046POPC   C3A52277  44.672  15.114   6.920
 4046POPC   C4A52278  44.756  15.406   7.229
 4046POPC   C1B52279   0.075  15.002   6.135
 4046POPC   C2B52280   0.120  15.231   6.505
 4046POPC   C3B52281   0.150  15.273   6.918
 4046POPC   C4B52282   0.229  15.155   7.301
 4047POPC   NC352283  24.791  22.021   5.402
 4047POPC   PO452284  24.231  22.415   5.219
 4047POPC   GL152285  24.427  22.301   5.650
 4047POPC   GL252286  24.384  21.988   5.862
 4047POPC   C1A52287  24.433  22.421   6.119
 4047POPC   D2A52288  24.612  22.417   6.553
 4047POPC   C3A52289  24.465  22.149   6.878
 4047POPC   C4A52290  24.258  22.204   7.266
 4047POPC   C1B52291  24.323  21.980   6.364
 4047POPC   C2B52292  24.140  21.770   6.763
 4047POPC   C3B52293  24.284  21.705   7.193
 4047POPC   C4B52294  24.669  21.913   7.310
 4048POPC   NC352295  20.430   2.207   5.580
 4048POPC   PO452296  20.958   1.737   5.376
 4048POPC   GL152297  20.823   1.896   5.766
 4048POPC   GL252298  20.503   1.734   5.777
 4048POPC   C1A52299  20.787   2.026   6.207
 4048POPC   D2A52300  20.677   1.840   6.618
 4048POPC   C3A52301  20.734   2.027   7.016
 4048POPC   C4A52302  20.338   2.117   7.201
 4048POPC   C1B52303  20.372   1.651   6.204
 4048POPC   C2B52304  20.167   1.789   6.591
 4048POPC   C3B52305  20.276   1.658   6.990
 4048POPC   C4B52306  20.151   1.487   7.372
 4049POPC   NC352307  37.617   4.992   5.540
 4049POPC   PO452308  37.961   5.621   5.502
 4049POPC   GL152309  37.840   5.353   5.854
 4049POPC   GL252310  37.488   5.330   5.936
 4049POPC   C1A52311  37.873   5.018   6.202
 4049POPC   D2A52312  37.863   4.757   6.616
 4049POPC   C3A52313  37.795   4.965   7.054
 4049POPC   C4A52314  37.718   5.085   7.528
 4049POPC   C1B52315  37.354   5.098   6.310
 4049POPC   C2B52316  37.374   4.997   6.753
 4049POPC   C3B52317  37.326   5.136   7.192
 4049POPC   C4B52318  37.238   5.344   7.592
 4050POPC   NC352319  37.094  16.899   5.457
 4050POPC   PO452320  36.578  16.432   5.402
 4050POPC   GL152321  36.759  16.666   5.770
 4050POPC   GL252322  37.093  16.535   5.809
 4050POPC   C1A52323  36.937  16.912   6.149
 4050POPC   D2A52324  36.671  16.832   6.513
 4050POPC   C3A52325  36.692  16.656   6.921
 4050POPC   C4A52326  36.662  16.915   7.289
 4050POPC   C1B52327  36.988  16.416   6.216
 4050POPC   C2B52328  37.107  16.567   6.610
 4050POPC   C3B52329  37.103  16.349   6.979
 4050POPC   C4B52330  37.102  16.627   7.300
 4051POPC   NC352331  37.706  44.820   5.425
 4051POPC   PO452332  37.659  44.177   5.458
 4051POPC   GL152333  37.759  44.503   5.826
 4051POPC   GL252334  37.742  44.900   5.917
 4051POPC   C1A52335  37.608  44.568   6.270
 4051POPC   D2A52336  37.814  44.770   6.614
 4051POPC   C3A52337  37.692  44.596   6.962
 4051POPC   C4A52338  37.289  44.524   7.099
 4051POPC   C1B52339  37.448   0.064   6.218
 4051POPC   C2B52340  37.321  44.864   6.616
 4051POPC   C3B52341  37.489   0.046   6.969
 4051POPC   C4B52342  37.839   0.039   7.254
 4052POPC   NC352343  32.026  20.973   5.335
 4052POPC   PO452344  32.436  21.466   5.236
 4052POPC   GL152345  32.343  21.414   5.665
 4052POPC   GL252346  32.592  21.205   5.807
 4052POPC   C1A52347  32.325  21.538   6.111
 4052POPC   D2A52348  32.282  21.374   6.523
 4052POPC   C3A52349  32.258  21.527   6.946
 4052POPC   C4A52350  32.136  21.292   7.324
 4052POPC   C1B52351  32.823  21.297   6.150
 4052POPC   C2B52352  32.796  21.486   6.541
 4052POPC   C3B52353  32.678  21.246   6.885
 4052POPC   C4B52354  32.621  21.405   7.311
 4053POPC   NC352355  24.225  43.762   5.031
 4053POPC   PO452356  23.673  43.917   5.389
 4053POPC   GL152357  23.756  43.887   5.799
 4053POPC   GL252358  23.434  43.989   5.904
 4053POPC   C1A52359  23.739  43.689   6.203
 4053POPC   D2A52360  23.931  43.758   6.614
 4053POPC   C3A52361  23.742  43.720   7.020
 4053POPC   C4A52362  23.812  43.814   7.473
 4053POPC   C1B52363  23.360  44.040   6.349
 4053POPC   C2B52364  23.529  44.118   6.746
 4053POPC   C3B52365  23.344  44.032   7.146
 4053POPC   C4B52366  23.334  44.026   7.563
 4054POPC   NC352367  30.493  42.567   5.317
 4054POPC   PO452368  30.740  41.983   5.055
 4054POPC   GL152369  30.700  42.111   5.549
 4054POPC   GL252370  30.417  42.301   5.750
 4054POPC   C1A52371  30.789  42.002   6.018
 4054POPC   D2A52372  30.628  42.100   6.454
 4054POPC   C3A52373  30.780  42.025   6.884
 4054POPC   C4A52374  30.907  42.193   7.286
 4054POPC   C1B52375  30.341  42.439   6.197
 4054POPC   C2B52376  30.475  42.565   6.648
 4054POPC   C3B52377  30.444  42.404   7.084
 4054POPC   C4B52378  30.548  42.479   7.526
 4055POPC   NC352379  44.155  26.675   5.573
 4055POPC   PO452380  43.667  27.049   5.372
 4055POPC   GL152381  43.670  27.245   5.795
 4055POPC   GL252382  43.989  27.080   5.863
 4055POPC   C1A52383  43.702  27.158   6.287
 4055POPC   D2A52384  43.698  26.767   6.615
 4055POPC   C3A52385  43.807  26.796   7.068
 4055POPC   C4A52386  43.646  27.147   7.313
 4055POPC   C1B52387  44.042  26.767   6.209
 4055POPC   C2B52388  44.153  26.571   6.625
 4055POPC   C3B52389  44.084  26.377   7.040
 4055POPC   C4B52390  44.117  26.595   7.454
 4056POPC   NC352391  22.308  10.303   5.590
 4056POPC   PO452392  21.780  10.473   5.205
 4056POPC   GL152393  21.911  10.628   5.665
 4056POPC   GL252394  21.684  10.841   5.824
 4056POPC   C1A52395  22.078  10.541   6.132
 4056POPC   D2A52396  22.396  10.591   6.482
 4056POPC   C3A52397  22.210  10.417   6.867
 4056POPC   C4A52398  21.976  10.264   7.260
 4056POPC   C1B52399  21.840  10.963   6.250
 4056POPC   C2B52400  22.037  10.919   6.666
 4056POPC   C3B52401  21.854  10.741   7.040
 4056POPC   C4B52402  21.877  10.888   7.449
 4057POPC   NC352403  14.812  32.367   5.529
 4057POPC   PO452404  14.138  32.159   5.450
 4057POPC   GL152405  14.238  32.216   5.881
 4057POPC   GL252406  14.462  32.514   5.916
 4057POPC   C1A52407  14.093  32.188   6.310
 4057POPC   D2A52408  14.346  32.224   6.669
 4057POPC   C3A52409  14.367  31.998   7.034
 4057POPC   C4A52410  14.752  32.106   7.261
 4057POPC   C1B52411  14.573  32.631   6.350
 4057POPC   C2B52412  14.510  32.694   6.796
 4057POPC   C3B52413  14.285  32.505   7.131
 4057POPC   C4B52414  14.149  32.754   7.497
 4058POPC   NC352415  42.251   2.657   5.378
 4058POPC   PO452416  42.861   2.483   5.133
 4058POPC   GL152417  42.716   2.759   5.600
 4058POPC   GL252418  42.362   2.789   5.831
 4058POPC   C1A52419  42.724   2.980   6.083
 4058POPC   D2A52420  42.371   2.897   6.411
 4058POPC   C3A52421  42.488   2.935   6.855
 4058POPC   C4A52422  42.610   3.110   7.272
 4058POPC   C1B52423  41.975   2.756   6.086
 4058POPC   C2B52424  41.932   2.557   6.479
 4058POPC   C3B52425  41.939   2.712   6.903
 4058POPC   C4B52426  42.124   2.948   7.245
 4059POPC   NC352427  33.828  27.456   5.371
 4059POPC   PO452428  33.790  28.110   5.402
 4059POPC   GL152429  33.884  27.837   5.759
 4059POPC   GL252430  33.620  27.581   5.837
 4059POPC   C1A52431  34.026  27.648   6.180
 4059POPC   D2A52432  33.831  27.645   6.602
 4059POPC   C3A52433  34.066  27.610   6.981
 4059POPC   C4A52434  33.990  27.506   7.376
 4059POPC   C1B52435  33.661  27.286   6.202
 4059POPC   C2B52436  33.564  27.198   6.642
 4059POPC   C3B52437  33.581  27.403   7.072
 4059POPC   C4B52438  33.631  27.158   7.448
 4060POPC   NC352439  37.623  14.699   5.377
 4060POPC   PO452440  37.291  14.138   5.443
 4060POPC   GL152441  37.534  14.325   5.780
 4060POPC   GL252442  37.920  14.317   5.796
 4060POPC   C1A52443  37.373  14.379   6.198
 4060POPC   D2A52444  37.551  14.327   6.610
 4060POPC   C3A52445  37.292  14.380   6.944
 4060POPC   C4A52446  37.385  14.254   7.341
 4060POPC   C1B52447  37.784  14.055   6.176
 4060POPC   C2B52448  37.782  13.873   6.611
 4060POPC   C3B52449  37.817  14.090   7.016
 4060POPC   C4B52450  37.833  14.058   7.471
 4061POPC   NC352451  13.369  39.476   5.391
 4061POPC   PO452452  14.054  39.229   5.561
 4061POPC   GL152453  13.707  39.330   5.761
 4061POPC   GL252454  13.461  39.109   5.747
 4061POPC   C1A52455  13.587  39.475   6.139
 4061POPC   D2A52456  13.803  39.610   6.513
 4061POPC   C3A52457  13.671  39.455   6.904
 4061POPC   C4A52458  13.496  39.451   7.253
 4061POPC   C1B52459  13.406  38.986   6.140
 4061POPC   C2B52460  13.471  39.149   6.540
 4061POPC   C3B52461  13.397  39.012   6.943
 4061POPC   C4B52462  13.521  38.879   7.311
 4062POPC   NC352463  22.042   8.300   5.117
 4062POPC   PO452464  22.369   7.943   5.524
 4062POPC   GL152465  22.402   8.302   5.729
 4062POPC   GL252466  22.081   8.261   5.840
 4062POPC   C1A52467  22.469   8.282   6.187
 4062POPC   D2A52468  22.253   8.269   6.599
 4062POPC   C3A52469  22.436   8.315   7.045
 4062POPC   C4A52470  22.442   8.082   7.426
 4062POPC   C1B52471  21.867   8.057   6.185
 4062POPC   C2B52472  21.721   8.109   6.603
 4062POPC   C3B52473  21.921   8.215   6.986
 4062POPC   C4B52474  22.018   8.362   7.368
 4063POPC   NC352475  23.432   7.993   5.463
 4063POPC   PO452476  23.936   8.465   5.453
 4063POPC   GL152477  23.781   8.397   5.837
 4063POPC   GL252478  23.751   8.027   5.887
 4063POPC   C1A52479  23.740   8.612   6.230
 4063POPC   D2A52480  23.405   8.552   6.542
 4063POPC   C3A52481  23.543   8.376   6.937
 4063POPC   C4A52482  23.808   8.325   7.306
 4063POPC   C1B52483  23.409   8.188   6.157
 4063POPC   C2B52484  23.190   8.072   6.550
 4063POPC   C3B52485  23.270   7.886   6.928
 4063POPC   C4B52486  23.387   8.059   7.310
 4064POPC   NC352487  39.078  15.464   5.558
 4064POPC   PO452488  39.499  16.089   5.483
 4064POPC   GL152489  39.419  15.755   5.794
 4064POPC   GL252490  39.069  15.908   5.853
 4064POPC   C1A52491  39.274  15.635   6.215
 4064POPC   D2A52492  39.234  15.949   6.523
 4064POPC   C3A52493  39.294  15.862   6.947
 4064POPC   C4A52494  39.694  15.941   7.117
 4064POPC   C1B52495  38.773  15.790   6.225
 4064POPC   C2B52496  38.765  15.875   6.680
 4064POPC   C3B52497  38.899  16.215   6.930
 4064POPC   C4B52498  39.077  16.168   7.353
 4065POPC   NC352499  27.236  24.751   5.472
 4065POPC   PO452500  27.705  24.224   5.408
 4065POPC   GL152501  27.601  24.182   5.837
 4065POPC   GL252502  27.549  24.528   5.814
 4065POPC   C1A52503  27.597  24.365   6.287
 4065POPC   D2A52504  27.365  24.300   6.641
 4065POPC   C3A52505  27.669  24.268   6.931
 4065POPC   C4A52506  27.665  24.296   7.300
 4065POPC   C1B52507  27.274  24.727   6.117
 4065POPC   C2B52508  27.231  24.803   6.551
 4065POPC   C3B52509  27.479  24.725   6.940
 4065POPC   C4B52510  27.556  24.777   7.393
 4066POPC   NC352511  41.864  37.673   5.530
 4066POPC   PO452512  41.244  37.478   5.352
 4066POPC   GL152513  41.403  37.667   5.791
 4066POPC   GL252514  41.563  37.978   5.816
 4066POPC   C1A52515  41.498  37.712   6.256
 4066POPC   D2A52516  41.368  37.890   6.660
 4066POPC   C3A52517  41.457  37.573   6.976
 4066POPC   C4A52518  41.615  37.614   7.378
 4066POPC   C1B52519  41.940  37.944   6.130
 4066POPC   C2B52520  41.898  37.917   6.571
 4066POPC   C3B52521  41.945  37.834   7.001
 4066POPC   C4B52522  41.901  38.038   7.381
 4067POPC   NC352523  21.996   1.374   5.122
 4067POPC   PO452524  22.546   1.090   5.403
 4067POPC   GL152525  22.251   1.291   5.723
 4067POPC   GL252526  21.920   1.174   5.687
 4067POPC   C1A52527  22.058   1.386   6.150
 4067POPC   D2A52528  21.933   1.270   6.583
 4067POPC   C3A52529  22.229   1.051   6.850
 4067POPC   C4A52530  22.244   1.195   7.258
 4067POPC   C1B52531  21.940   0.881   6.085
 4067POPC   C2B52532  21.948   0.731   6.542
 4067POPC   C3B52533  21.759   0.910   6.950
 4067POPC   C4B52534  21.786   0.978   7.406
 4068POPC   NC352535  29.736   2.744   5.439
 4068POPC   PO452536  29.609   2.181   5.787
 4068POPC   GL152537  29.790   2.589   5.942
 4068POPC   GL252538  29.697   2.959   5.894
 4068POPC   C1A52539  30.057   2.824   6.231
 4068POPC   D2A52540  30.353   2.613   6.475
 4068POPC   C3A52541  30.108   2.622   6.809
 4068POPC   C4A52542  30.213   2.530   7.186
 4068POPC   C1B52543  29.553   3.007   6.302
 4068POPC   C2B52544  29.766   2.988   6.700
 4068POPC   C3B52545  29.925   2.977   7.143
 4068POPC   C4B52546  29.735   3.076   7.560
 4069POPC   NC352547  43.276  14.904   5.355
 4069POPC   PO452548  42.994  14.303   5.187
 4069POPC   GL152549  42.992  14.441   5.664
 4069POPC   GL252550  43.202  14.715   5.816
 4069POPC   C1A52551  43.042  14.364   6.154
 4069POPC   D2A52552  43.254  14.140   6.533
 4069POPC   C3A52553  43.075  14.240   6.961
 4069POPC   C4A52554  42.860  14.544   7.225
 4069POPC   C1B52555  43.514  14.826   6.114
 4069POPC   C2B52556  43.413  14.662   6.509
 4069POPC   C3B52557  43.257  14.738   6.903
 4069POPC   C4B52558  43.414  14.544   7.261
 4070POPC   NC352559   4.533  14.671   5.463
 4070POPC   PO452560   3.960  14.236   5.442
 4070POPC   GL152561   4.198  14.240   5.814
 4070POPC   GL252562   4.412  14.536   5.932
 4070POPC   C1A52563   4.089  14.314   6.259
 4070POPC   D2A52564   4.386  14.433   6.579
 4070POPC   C3A52565   4.242  14.464   6.990
 4070POPC   C4A52566   4.411  14.582   7.373
 4070POPC   C1B52567   4.580  14.176   6.168
 4070POPC   C2B52568   4.654  13.947   6.546
 4070POPC   C3B52569   4.670  14.158   6.940
 4070POPC   C4B52570   4.502  14.078   7.365
 4071POPC   NC352571  21.369  40.120   5.369
 4071POPC   PO452572  21.821  39.702   5.525
 4071POPC   GL152573  21.545  40.033   5.845
 4071POPC   GL252574  21.175  40.050   5.834
 4071POPC   C1A52575  21.304  40.157   6.304
 4071POPC   D2A52576  21.460  40.144   6.746
 4071POPC   C3A52577  21.506  40.075   7.230
 4071POPC   C4A52578  21.567  39.894   7.668
 4071POPC   C1B52579  20.951  39.822   6.175
 4071POPC   C2B52580  21.043  39.783   6.609
 4071POPC   C3B52581  21.048  39.943   7.039
 4071POPC   C4B52582  21.135  39.776   7.448
 4072POPC   NC352583   4.264  39.211   5.010
 4072POPC   PO452584   4.215  39.036   5.595
 4072POPC   GL152585   4.328  39.228   5.945
 4072POPC   GL252586   4.639  39.346   6.043
 4072POPC   C1A52587   4.278  39.053   6.322
 4072POPC   D2A52588   4.087  39.132   6.656
 4072POPC   C3A52589   4.213  38.912   6.996
 4072POPC   C4A52590   4.273  39.250   7.226
 4072POPC   C1B52591   4.782  39.004   6.308
 4072POPC   C2B52592   4.672  38.916   6.749
 4072POPC   C3B52593   4.751  39.171   7.124
 4072POPC   C4B52594   4.629  39.158   7.595
 4073POPC   NC352595  32.676  11.122   5.290
 4073POPC   PO452596  33.151  11.657   5.331
 4073POPC   GL152597  33.107  11.421   5.750
 4073POPC   GL252598  32.980  11.069   5.765
 4073POPC   C1A52599  33.329  11.368   6.179
 4073POPC   D2A52600  33.498  11.225   6.598
 4073POPC   C3A52601  33.251  11.375   6.927
 4073POPC   C4A52602  33.322  11.506   7.344
 4073POPC   C1B52603  32.851  11.132   6.216
 4073POPC   C2B52604  32.771  11.039   6.664
 4073POPC   C3B52605  32.765  11.254   7.076
 4073POPC   C4B52606  32.910  11.307   7.524
 4074POPC   NC352607  25.967   2.393   5.566
 4074POPC   PO452608  26.376   2.908   5.452
 4074POPC   GL152609  26.237   2.756   5.857
 4074POPC   GL252610  26.516   2.528   5.849
 4074POPC   C1A52611  26.024   2.745   6.281
 4074POPC   D2A52612  25.797   2.884   6.675
 4074POPC   C3A52613  25.888   2.609   7.069
 4074POPC   C4A52614  26.098   2.782   7.494
 4074POPC   C1B52615  26.373   2.328   6.211
 4074POPC   C2B52616  26.334   2.479   6.635
 4074POPC   C3B52617  26.376   2.565   7.073
 4074POPC   C4B52618  26.198   2.317   7.401
 4075POPC   NC352619  16.157  25.322   5.371
 4075POPC   PO452620  15.514  25.181   5.594
 4075POPC   GL152621  15.883  25.139   5.836
 4075POPC   GL252622  16.132  24.890   5.644
 4075POPC   C1A52623  15.798  25.356   6.256
 4075POPC   D2A52624  15.690  25.305   6.704
 4075POPC   C3A52625  15.942  25.428   7.056
 4075POPC   C4A52626  15.798  25.161   7.371
 4075POPC   C1B52627  16.158  24.798   6.126
 4075POPC   C2B52628  16.036  24.984   6.512
 4075POPC   C3B52629  15.985  24.917   6.945
 4075POPC   C4B52630  16.295  25.029   7.272
 4076POPC   NC352631  13.253   4.923   5.250
 4076POPC   PO452632  13.850   5.217   5.377
 4076POPC   GL152633  13.514   5.152   5.691
 4076POPC   GL252634  13.525   5.492   5.732
 4076POPC   C1A52635  13.421   5.169   6.176
 4076POPC   D2A52636  13.561   4.974   6.597
 4076POPC   C3A52637  13.427   5.081   6.999
 4076POPC   C4A52638  13.540   4.841   7.348
 4076POPC   C1B52639  13.839   5.418   6.031
 4076POPC   C2B52640  13.891   5.337   6.450
 4076POPC   C3B52641  13.984   5.310   6.863
 4076POPC   C4B52642  13.835   5.258   7.266
 4077POPC   NC352643  24.196  40.755   5.414
 4077POPC   PO452644  24.690  41.114   5.608
 4077POPC   GL152645  24.592  41.080   5.999
 4077POPC   GL252646  24.424  40.774   5.950
 4077POPC   C1A52647  24.426  41.063   6.401
 4077POPC   D2A52648  24.458  40.759   6.704
 4077POPC   C3A52649  24.337  40.961   7.063
 4077POPC   C4A52650  24.669  41.008   7.302
 4077POPC   C1B52651  24.482  40.443   6.279
 4077POPC   C2B52652  24.479  40.243   6.701
 4077POPC   C3B52653  24.481  40.279   7.157
 4077POPC   C4B52654  24.697  40.276   7.577
 4078POPC   NC352655   4.863   5.760   5.428
 4078POPC   PO452656   4.936   6.343   5.158
 4078POPC   GL152657   5.123   6.110   5.658
 4078POPC   GL252658   5.367   5.781   5.684
 4078POPC   C1A52659   5.014   5.802   6.056
 4078POPC   D2A52660   5.139   5.594   6.454
 4078POPC   C3A52661   4.987   5.796   6.841
 4078POPC   C4A52662   4.845   5.657   7.261
 4078POPC   C1B52663   5.505   5.810   6.153
 4078POPC   C2B52664   5.436   5.985   6.574
 4078POPC   C3B52665   5.556   5.905   7.003
 4078POPC   C4B52666   5.258   5.954   7.296
 4079POPC   NC352667  11.979  41.857   5.455
 4079POPC   PO452668  11.660  41.235   5.372
 4079POPC   GL152669  11.781  41.424   5.777
 4079POPC   GL252670  12.117  41.590   5.853
 4079POPC   C1A52671  11.711  41.211   6.168
 4079POPC   D2A52672  11.510  41.389   6.539
 4079POPC   C3A52673  11.787  41.390   6.872
 4079POPC   C4A52674  11.960  41.305   7.250
 4079POPC   C1B52675  11.965  41.612   6.296
 4079POPC   C2B52676  12.136  41.700   6.680
 4079POPC   C3B52677  12.367  41.508   6.984
 4079POPC   C4B52678  12.501  41.619   7.402
 4080POPC   NC352679  13.565   9.382   5.457
 4080POPC   PO452680  13.939   8.800   5.436
 4080POPC   GL152681  13.749   9.007   5.805
 4080POPC   GL252682  13.959   9.308   5.845
 4080POPC   C1A52683  13.486   8.962   6.208
 4080POPC   D2A52684  13.298   8.880   6.643
 4080POPC   C3A52685  13.403   8.803   7.069
 4080POPC   C4A52686  13.485   8.424   7.297
 4080POPC   C1B52687  13.839   9.362   6.288
 4080POPC   C2B52688  13.481   9.345   6.558
 4080POPC   C3B52689  13.368   9.318   6.973
 4080POPC   C4B52690  13.700   9.207   7.200
 4081POPC   NC352691  43.049   4.931   5.242
 4081POPC   PO452692  43.525   5.250   5.586
 4081POPC   GL152693  43.186   5.044   5.807
 4081POPC   GL252694  42.955   4.765   5.719
 4081POPC   C1A52695  43.192   5.100   6.247
 4081POPC   D2A52696  43.347   5.009   6.635
 4081POPC   C3A52697  43.237   5.306   6.894
 4081POPC   C4A52698  43.457   5.282   7.260
 4081POPC   C1B52699  42.840   4.739   6.173
 4081POPC   C2B52700  42.824   4.915   6.601
 4081POPC   C3B52701  42.999   4.867   7.027
 4081POPC   C4B52702  43.019   4.768   7.478
 4082POPC   NC352703  40.545   2.651   5.430
 4082POPC   PO452704  41.160   3.051   5.244
 4082POPC   GL152705  41.157   2.945   5.708
 4082POPC   GL252706  41.108   2.577   5.764
 4082POPC   C1A52707  40.888   2.893   6.108
 4082POPC   D2A52708  40.608   3.012   6.475
 4082POPC   C3A52709  40.531   2.727   6.830
 4082POPC   C4A52710  40.602   2.756   7.268
 4082POPC   C1B52711  40.954   2.355   6.117
 4082POPC   C2B52712  40.943   2.523   6.519
 4082POPC   C3B52713  40.908   2.379   6.920
 4082POPC   C4B52714  41.038   2.513   7.256
 4083POPC   NC352715  38.178  15.507   5.570
 4083POPC   PO452716  38.040  14.893   5.228
 4083POPC   GL152717  37.860  15.067   5.659
 4083POPC   GL252718  37.723  14.802   5.863
 4083POPC   C1A52719  37.773  15.262   6.097
 4083POPC   D2A52720  37.873  15.459   6.519
 4083POPC   C3A52721  37.688  15.264   6.888
 4083POPC   C4A52722  37.367  15.276   7.247
 4083POPC   C1B52723  37.815  14.596   6.240
 4083POPC   C2B52724  37.826  14.749   6.656
 4083POPC   C3B52725  37.783  14.599   7.062
 4083POPC   C4B52726  37.780  14.957   7.289
 4084POPC   NC352727  44.089  13.609   5.347
 4084POPC   PO452728  43.415  13.433   5.443
 4084POPC   GL152729  43.655  13.682   5.792
 4084POPC   GL252730  44.033  13.694   5.846
 4084POPC   C1A52731  43.746  13.820   6.249
 4084POPC   D2A52732  43.670  13.696   6.689
 4084POPC   C3A52733  43.804  13.731   7.130
 4084POPC   C4A52734  43.588  13.670   7.563
 4084POPC   C1B52735  44.242  13.693   6.264
 4084POPC   C2B52736  44.157  13.908   6.677
 4084POPC   C3B52737  44.319  13.906   7.106
 4084POPC   C4B52738  44.266  13.492   7.291
 4085POPC   NC352739  37.553  39.599   5.224
 4085POPC   PO452740  38.134  39.309   5.419
 4085POPC   GL152741  37.826  39.531   5.734
 4085POPC   GL252742  37.423  39.543   5.760
 4085POPC   C1A52743  37.844  39.400   6.175
 4085POPC   D2A52744  37.863  39.202   6.598
 4085POPC   C3A52745  37.785  39.427   7.027
 4085POPC   C4A52746  37.975  39.599   7.421
 4085POPC   C1B52747  37.349  39.475   6.244
 4085POPC   C2B52748  37.381  39.375   6.720
 4085POPC   C3B52749  37.268  39.403   7.181
 4085POPC   C4B52750  37.527  39.360   7.564
 4086POPC   NC352751  34.013  29.907   5.432
 4086POPC   PO452752  33.344  29.977   5.624
 4086POPC   GL152753  33.728  29.980   5.852
 4086POPC   GL252754  33.885  29.647   5.838
 4086POPC   C1A52755  33.884  29.967   6.257
 4086POPC   D2A52756  34.049  30.109   6.610
 4086POPC   C3A52757  33.825  30.210   6.960
 4086POPC   C4A52758  34.140  30.122   7.244
 4086POPC   C1B52759  33.855  29.456   6.219
 4086POPC   C2B52760  34.012  29.504   6.629
 4086POPC   C3B52761  33.790  29.476   7.009
 4086POPC   C4B52762  33.771  29.803   7.302
 4087POPC   NC352763   1.746  44.885   5.423
 4087POPC   PO452764   2.085  44.330   5.437
 4087POPC   GL152765   2.175  44.576   5.785
 4087POPC   GL252766   2.307  44.313   5.961
 4087POPC   C1A52767   2.010  44.649   6.230
 4087POPC   D2A52768   1.985  44.950   6.567
 4087POPC   C3A52769   1.955  44.816   6.996
 4087POPC   C4A52770   2.014   0.027   7.378
 4087POPC   C1B52771   2.283  44.219   6.370
 4087POPC   C2B52772   2.176  44.447   6.733
 4087POPC   C3B52773   2.240  44.401   7.170
 4087POPC   C4B52774   2.516  44.458   7.537
 4088POPC   NC352775  13.833  17.934   5.662
 4088POPC   PO452776  14.398  18.280   5.326
 4088POPC   GL152777  14.463  18.408   5.795
 4088POPC   GL252778  14.596  18.743   5.835
 4088POPC   C1A52779  14.532  18.234   6.269
 4088POPC   D2A52780  14.452  18.231   6.749
 4088POPC   C3A52781  14.528  17.975   7.132
 4088POPC   C4A52782  14.189  17.989   7.440
 4088POPC   C1B52783  14.636  18.735   6.272
 4088POPC   C2B52784  14.728  18.642   6.690
 4088POPC   C3B52785  14.564  18.787   7.056
 4088POPC   C4B52786  14.338  18.437   7.221
 4089POPC   NC352787  21.041  29.289   5.458
 4089POPC   PO452788  20.429  29.088   5.208
 4089POPC   GL152789  20.529  29.210   5.635
 4089POPC   GL252790  20.217  29.333   5.772
 4089POPC   C1A52791  20.639  29.172   6.087
 4089POPC   D2A52792  20.518  29.324   6.520
 4089POPC   C3A52793  20.752  29.182   6.914
 4089POPC   C4A52794  20.742  29.266   7.358
 4089POPC   C1B52795  20.128  29.104   6.171
 4089POPC   C2B52796  20.067  29.019   6.615
 4089POPC   C3B52797  20.235  29.237   6.976
 4089POPC   C4B52798  20.259  29.180   7.469
 4090POPC   NC352799  11.070   8.317   5.483
 4090POPC   PO452800  10.515   7.958   5.363
 4090POPC   GL152801  10.634   8.013   5.802
 4090POPC   GL252802  10.689   8.368   5.836
 4090POPC   C1A52803  10.580   8.109   6.270
 4090POPC   D2A52804  10.327   8.344   6.554
 4090POPC   C3A52805  10.396   8.244   6.989
 4090POPC   C4A52806  10.262   7.860   7.229
 4090POPC   C1B52807  10.806   8.592   6.236
 4090POPC   C2B52808  10.768   8.562   6.690
 4090POPC   C3B52809  10.905   8.334   7.016
 4090POPC   C4B52810  10.795   8.434   7.411
 4091POPC   NC352811   0.651  41.361   5.432
 4091POPC   PO452812   0.906  42.010   5.403
 4091POPC   GL152813   0.771  41.739   5.779
 4091POPC   GL252814   0.404  41.718   5.831
 4091POPC   C1A52815   0.706  41.357   6.102
 4091POPC   D2A52816   0.505  41.238   6.544
 4091POPC   C3A52817   0.615  41.312   7.013
 4091POPC   C4A52818   0.565  41.356   7.482
 4091POPC   C1B52819   0.511  41.805   6.289
 4091POPC   C2B52820   0.507  41.756   6.749
 4091POPC   C3B52821   0.223  41.672   7.082
 4091POPC   C4B52822   0.207  41.749   7.532
 4092POPC   NC352823  35.904  15.434   5.518
 4092POPC   PO452824  36.225  15.038   5.139
 4092POPC   GL152825  36.127  15.032   5.679
 4092POPC   GL252826  35.779  15.000   5.820
 4092POPC   C1A52827  36.163  15.016   6.153
 4092POPC   D2A52828  35.883  14.932   6.521
 4092POPC   C3A52829  36.083  14.953   6.944
 4092POPC   C4A52830  36.419  15.242   7.110
 4092POPC   C1B52831  35.720  15.304   6.184
 4092POPC   C2B52832  35.839  15.437   6.629
 4092POPC   C3B52833  35.763  15.381   7.075
 4092POPC   C4B52834  35.603  15.361   7.526
 4093POPC   NC352835  34.508  14.032   5.136
 4093POPC   PO452836  34.703  14.602   5.491
 4093POPC   GL152837  34.481  14.428   5.847
 4093POPC   GL252838  34.458  14.054   5.852
 4093POPC   C1A52839  34.376  14.608   6.244
 4093POPC   D2A52840  34.474  14.914   6.534
 4093POPC   C3A52841  34.573  14.784   6.934
 4093POPC   C4A52842  34.416  14.560   7.233
 4093POPC   C1B52843  34.622  14.152   6.283
 4093POPC   C2B52844  34.535  14.325   6.696
 4093POPC   C3B52845  34.496  14.098   7.068
 4093POPC   C4B52846  34.765  13.833   7.286
 4094POPC   NC352847  10.903  10.570   5.630
 4094POPC   PO452848  10.355  10.142   5.350
 4094POPC   GL152849  10.347  10.427   5.728
 4094POPC   GL252850  10.016  10.391   5.861
 4094POPC   C1A52851  10.484  10.668   6.107
 4094POPC   D2A52852  10.734  10.860   6.442
 4094POPC   C3A52853  10.816  10.575   6.767
 4094POPC   C4A52854  10.548  10.503   7.142
 4094POPC   C1B52855  10.129  10.281   6.309
 4094POPC   C2B52856   9.922  10.312   6.706
 4094POPC   C3B52857  10.064  10.333   7.144
 4094POPC   C4B52858  10.336  10.138   7.483
 4095POPC   NC352859   8.813  12.897   5.439
 4095POPC   PO452860   9.294  13.395   5.337
 4095POPC   GL152861   9.183  13.089   5.751
 4095POPC   GL252862   8.975  12.757   5.896
 4095POPC   C1A52863   9.063  13.135   6.209
 4095POPC   D2A52864   9.005  13.304   6.643
 4095POPC   C3A52865   9.133  13.070   6.992
 4095POPC   C4A52866   8.885  12.909   7.281
 4095POPC   C1B52867   8.691  12.747   6.273
 4095POPC   C2B52868   8.688  12.803   6.724
 4095POPC   C3B52869   8.748  12.486   7.025
 4095POPC   C4B52870   9.135  12.388   7.153
 4096POPC   NC352871  36.490  27.441   4.991
 4096POPC   PO452872  35.936  27.468   5.402
 4096POPC   GL152873  36.128  27.697   5.749
 4096POPC   GL252874  36.269  27.479   6.015
 4096POPC   C1A52875  36.056  27.915   6.144
 4096POPC   D2A52876  35.842  27.880   6.548
 4096POPC   C3A52877  36.058  27.616   6.848
 4096POPC   C4A52878  36.160  27.686   7.282
 4096POPC   C1B52879  36.549  27.248   6.230
 4096POPC   C2B52880  36.498  27.419   6.609
 4096POPC   C3B52881  36.566  27.611   6.953
 4096POPC   C4B52882  36.600  27.430   7.334
 4097POPC   NC352883  25.283   1.365   5.367
 4097POPC   PO452884  25.795   0.973   5.150
 4097POPC   GL152885  25.631   1.249   5.691
 4097POPC   GL252886  25.228   1.214   5.845
 4097POPC   C1A52887  25.608   1.106   6.140
 4097POPC   D2A52888  25.469   1.252   6.525
 4097POPC   C3A52889  25.606   1.114   6.910
 4097POPC   C4A52890  25.416   1.309   7.251
 4097POPC   C1B52891  25.018   1.212   6.273
 4097POPC   C2B52892  24.852   1.264   6.732
 4097POPC   C3B52893  24.906   1.254   7.204
 4097POPC   C4B52894  25.051   1.001   7.576
 4098POPC   NC352895   9.119  18.323   5.353
 4098POPC   PO452896   8.925  17.777   5.671
 4098POPC   GL152897   8.869  18.139   5.912
 4098POPC   GL252898   9.101  18.420   5.876
 4098POPC   C1A52899   8.859  18.127   6.342
 4098POPC   D2A52900   9.021  18.263   6.717
 4098POPC   C3A52901   8.706  18.328   6.992
 4098POPC   C4A52902   8.503  18.313   7.372
 4098POPC   C1B52903   9.113  18.614   6.321
 4098POPC   C2B52904   9.170  18.746   6.780
 4098POPC   C3B52905   9.217  18.464   7.175
 4098POPC   C4B52906   8.961  18.445   7.570
 4099POPC   NC352907  10.541  41.080   5.248
 4099POPC   PO452908  10.750  40.487   5.275
 4099POPC   GL152909  10.652  40.747   5.657
 4099POPC   GL252910  10.317  40.663   5.766
 4099POPC   C1A52911  10.650  40.788   6.146
 4099POPC   D2A52912  10.627  40.619   6.585
 4099POPC   C3A52913  10.745  40.916   6.903
 4099POPC   C4A52914  10.812  41.013   7.320
 4099POPC   C1B52915  10.149  40.628   6.187
 4099POPC   C2B52916  10.137  40.781   6.617
 4099POPC   C3B52917  10.286  40.767   7.049
 4099POPC   C4B52918  10.321  41.085   7.356
 4100POPC   NC352919  11.451  14.017   5.519
 4100POPC   PO452920  10.998  13.497   5.424
 4100POPC   GL152921  11.250  13.526   5.834
 4100POPC   GL252922  11.519  13.234   5.836
 4100POPC   C1A52923  11.372  13.841   6.192
 4100POPC   D2A52924  11.673  13.820   6.564
 4100POPC   C3A52925  11.468  13.793   6.962
 4100POPC   C4A52926  11.336  13.700   7.395
 4100POPC   C1B52927  11.564  13.381   6.255
 4100POPC   C2B52928  11.290  13.477   6.579
 4100POPC   C3B52929  11.129  13.408   6.972
 4100POPC   C4B52930  11.435  13.240   7.195
 4101POPC   NC352931   7.902  24.373   5.685
 4101POPC   PO452932   7.559  24.762   5.226
 4101POPC   GL152933   7.486  24.705   5.749
 4101POPC   GL252934   7.383  24.399   5.923
 4101POPC   C1A52935   7.609  24.695   6.237
 4101POPC   D2A52936   7.739  24.846   6.634
 4101POPC   C3A52937   7.608  24.677   7.030
 4101POPC   C4A52938   7.648  24.780   7.471
 4101POPC   C1B52939   7.603  24.170   6.279
 4101POPC   C2B52940   7.657  24.173   6.743
 4101POPC   C3B52941   7.513  24.169   7.145
 4101POPC   C4B52942   7.401  24.355   7.557
 4102POPC   NC352943   8.385  27.130   5.528
 4102POPC   PO452944   7.934  26.552   5.353
 4102POPC   GL152945   7.962  26.742   5.790
 4102POPC   GL252946   7.921  27.097   5.774
 4102POPC   C1A52947   8.228  26.804   6.206
 4102POPC   D2A52948   8.484  26.951   6.603
 4102POPC   C3A52949   8.438  26.747   7.052
 4102POPC   C4A52950   8.281  26.725   7.512
 4102POPC   C1B52951   7.822  27.123   6.217
 4102POPC   C2B52952   7.848  26.823   6.591
 4102POPC   C3B52953   7.926  26.839   7.058
 4102POPC   C4B52954   7.735  27.017   7.433
 4103POPC   NC352955  24.022  21.386   5.332
 4103POPC   PO452956  23.341  21.477   5.409
 4103POPC   GL152957  23.486  21.298   5.811
 4103POPC   GL252958  23.802  21.100   5.720
 4103POPC   C1A52959  23.509  21.411   6.274
 4103POPC   D2A52960  23.765  21.452   6.643
 4103POPC   C3A52961  23.727  21.499   7.093
 4103POPC   C4A52962  23.513  21.513   7.497
 4103POPC   C1B52963  23.925  21.061   6.160
 4103POPC   C2B52964  23.904  20.966   6.594
 4103POPC   C3B52965  23.761  20.974   6.999
 4103POPC   C4B52966  23.814  21.100   7.408
 4104POPC   NC352967  15.603  16.422   5.128
 4104POPC   PO452968  16.043  15.978   5.496
 4104POPC   GL152969  15.998  15.900   5.904
 4104POPC   GL252970  15.670  15.877   5.876
 4104POPC   C1A52971  15.888  16.086   6.305
 4104POPC   D2A52972  16.115  16.272   6.644
 4104POPC   C3A52973  15.945  16.075   6.982
 4104POPC   C4A52974  15.658  16.092   7.281
 4104POPC   C1B52975  15.485  15.731   6.258
 4104POPC   C2B52976  15.526  15.778   6.716
 4104POPC   C3B52977  15.720  15.611   7.073
 4104POPC   C4B52978  15.875  15.675   7.487
 4105POPC   NC352979  17.956  42.570   5.288
 4105POPC   PO452980  17.413  42.145   5.512
 4105POPC   GL152981  17.562  42.345   5.828
 4105POPC   GL252982  17.374  42.615   6.012
 4105POPC   C1A52983  17.553  42.183   6.223
 4105POPC   D2A52984  17.425  42.300   6.613
 4105POPC   C3A52985  17.676  42.259   6.934
 4105POPC   C4A52986  17.654  42.141   7.331
 4105POPC   C1B52987  17.669  42.895   6.212
 4105POPC   C2B52988  17.796  42.700   6.565
 4105POPC   C3B52989  17.530  42.745   6.882
 4105POPC   C4B52990  17.318  42.559   7.222
 4106POPC   NC352991   4.760  36.420   5.416
 4106POPC   PO452992   4.372  35.865   5.369
 4106POPC   GL152993   4.551  36.055   5.760
 4106POPC   GL252994   4.427  36.415   5.810
 4106POPC   C1A52995   4.511  35.906   6.203
 4106POPC   D2A52996   4.252  35.930   6.582
 4106POPC   C3A52997   4.392  36.008   7.004
 4106POPC   C4A52998   4.112  36.025   7.380
 4106POPC   C1B52999   4.240  36.346   6.236
 4106POPC   C2B53000   4.228  36.451   6.678
 4106POPC   C3B53001   4.189  36.465   7.129
 4106POPC   C4B53002   4.376  36.437   7.582
 4107POPC   NC353003  35.094  14.853   5.439
 4107POPC   PO453004  35.645  14.432   5.366
 4107POPC   GL153005  35.450  14.593   5.775
 4107POPC   GL253006  35.075  14.590   5.864
 4107POPC   C1A53007  35.426  14.467   6.226
 4107POPC   D2A53008  35.491  14.595   6.658
 4107POPC   C3A53009  35.367  14.404   7.044
 4107POPC   C4A53010  35.228  14.051   7.356
 4107POPC   C1B53011  34.914  14.647   6.275
 4107POPC   C2B53012  35.036  14.353   6.563
 4107POPC   C3B53013  34.993  14.083   6.876
 4107POPC   C4B53014  34.885  14.410   7.141
 4108POPC   NC353015  28.954  33.345   5.335
 4108POPC   PO453016  29.100  34.037   5.453
 4108POPC   GL153017  28.965  33.669   5.742
 4108POPC   GL253018  29.305  33.532   5.827
 4108POPC   C1A53019  28.946  33.489   6.195
 4108POPC   D2A53020  28.933  33.791   6.535
 4108POPC   C3A53021  29.117  33.733   6.923
 4108POPC   C4A53022  28.893  33.756   7.289
 4108POPC   C1B53023  29.207  33.926   6.117
 4108POPC   C2B53024  29.334  34.120   6.541
 4108POPC   C3B53025  29.542  34.031   6.942
 4108POPC   C4B53026  29.800  34.140   7.275
 4109POPC   NC353027  22.968   4.050   5.502
 4109POPC   PO453028  22.955   4.717   5.544
 4109POPC   GL153029  22.779   4.464   5.885
 4109POPC   GL253030  23.072   4.331   5.939
 4109POPC   C1A53031  22.815   4.462   6.362
 4109POPC   D2A53032  22.626   4.718   6.676
 4109POPC   C3A53033  22.879   4.640   7.027
 4109POPC   C4A53034  22.847   4.258   7.245
 4109POPC   C1B53035  23.258   4.171   6.326
 4109POPC   C2B53036  23.160   4.260   6.769
 4109POPC   C3B53037  23.351   4.235   7.186
 4109POPC   C4B53038  23.371   4.237   7.654
 4110POPC   NC353039  39.585  26.651   5.422
 4110POPC   PO453040  40.232  26.430   5.475
 4110POPC   GL153041  40.089  26.629   5.839
 4110POPC   GL253042  39.876  26.893   5.775
 4110POPC   C1A53043  40.151  26.806   6.252
 4110POPC   D2A53044  40.391  26.710   6.638
 4110POPC   C3A53045  40.167  26.847   7.018
 4110POPC   C4A53046  39.908  26.690   7.354
 4110POPC   C1B53047  39.694  27.135   6.094
 4110POPC   C2B53048  39.687  27.063   6.537
 4110POPC   C3B53049  39.378  27.103   6.855
 4110POPC   C4B53050  39.502  27.002   7.285
 4111POPC   NC353051  22.757  19.454   5.470
 4111POPC   PO453052  22.984  18.811   5.324
 4111POPC   GL153053  22.958  19.049   5.735
 4111POPC   GL253054  22.606  19.031   5.762
 4111POPC   C1A53055  23.094  19.083   6.190
 4111POPC   D2A53056  23.212  19.146   6.637
 4111POPC   C3A53057  23.018  19.098   7.052
 4111POPC   C4A53058  23.050  18.860   7.457
 4111POPC   C1B53059  22.647  19.312   6.124
 4111POPC   C2B53060  22.675  19.235   6.591
 4111POPC   C3B53061  22.520  19.229   7.045
 4111POPC   C4B53062  22.727  19.267   7.450
 4112POPC   NC353063  44.836  11.772   5.434
 4112POPC   PO453064  44.983  11.037   5.358
 4112POPC   GL153065  44.767  11.348   5.704
 4112POPC   GL253066  44.965  11.620   5.906
 4112POPC   C1A53067  44.520  11.461   6.126
 4112POPC   D2A53068  44.677  11.532   6.588
 4112POPC   C3A53069  44.464  11.406   6.984
 4112POPC   C4A53070  44.431  11.305   7.437
 4112POPC   C1B53071  44.953  11.230   6.167
 4112POPC   C2B53072  44.962  11.096   6.577
 4112POPC   C3B53073  44.974  11.304   6.963
 4112POPC   C4B53074  44.863  11.108   7.301
 4113POPC   NC353075  38.500  28.706   5.363
 4113POPC   PO453076  38.165  28.081   5.345
 4113POPC   GL153077  38.314  28.194   5.759
 4113POPC   GL253078  38.461  28.502   5.839
 4113POPC   C1A53079  38.316  28.187   6.220
 4113POPC   D2A53080  38.459  28.401   6.599
 4113POPC   C3A53081  38.429  28.265   7.010
 4113POPC   C4A53082  38.830  28.314   7.193
 4113POPC   C1B53083  38.307  28.718   6.226
 4113POPC   C2B53084  38.117  28.815   6.637
 4113POPC   C3B53085  38.233  28.726   7.069
 4113POPC   C4B53086  38.024  28.565   7.451
 4114POPC   NC353087  22.795  22.827   5.350
 4114POPC   PO453088  23.362  23.106   5.585
 4114POPC   GL153089  23.082  23.016   5.890
 4114POPC   GL253090  22.803  22.768   5.855
 4114POPC   C1A53091  23.126  22.951   6.308
 4114POPC   D2A53092  22.879  22.785   6.618
 4114POPC   C3A53093  23.066  22.908   7.001
 4114POPC   C4A53094  23.017  23.227   7.296
 4114POPC   C1B53095  22.625  23.031   6.186
 4114POPC   C2B53096  22.399  22.994   6.573
 4114POPC   C3B53097  22.563  22.978   6.995
 4114POPC   C4B53098  22.674  22.852   7.430
 4115POPC   NC353099  22.604  11.256   5.518
 4115POPC   PO453100  23.218  10.953   5.460
 4115POPC   GL153101  23.086  11.157   5.855
 4115POPC   GL253102  22.977  11.497   5.819
 4115POPC   C1A53103  23.153  11.341   6.289
 4115POPC   D2A53104  23.401  11.343   6.661
 4115POPC   C3A53105  23.153  11.067   6.923
 4115POPC   C4A53106  23.088  11.089   7.343
 4115POPC   C1B53107  22.686  11.570   6.162
 4115POPC   C2B53108  22.618  11.603   6.621
 4115POPC   C3B53109  22.823  11.455   7.017
 4115POPC   C4B53110  22.718  11.392   7.447
 4116POPC   NC353111   5.697  20.821   5.396
 4116POPC   PO453112   5.859  20.185   5.518
 4116POPC   GL153113   6.043  20.434   5.828
 4116POPC   GL253114   6.128  20.787   5.712
 4116POPC   C1A53115   6.026  20.370   6.258
 4116POPC   D2A53116   5.870  20.519   6.622
 4116POPC   C3A53117   5.982  20.304   6.975
 4116POPC   C4A53118   5.631  20.305   7.217
 4116POPC   C1B53119   5.932  20.881   6.121
 4116POPC   C2B53120   6.117  20.959   6.531
 4116POPC   C3B53121   5.891  20.942   6.914
 4116POPC   C4B53122   5.863  20.726   7.277
 4117POPC   NC353123  37.751  28.301   5.432
 4117POPC   PO453124  38.125  28.822   5.608
 4117POPC   GL153125  37.927  28.530   5.909
 4117POPC   GL253126  37.804  28.189   5.914
 4117POPC   C1A53127  37.880  28.435   6.346
 4117POPC   D2A53128  37.977  28.219   6.690
 4117POPC   C3A53129  37.781  28.417   7.019
 4117POPC   C4A53130  37.519  28.433   7.370
 4117POPC   C1B53131  37.506  28.052   6.232
 4117POPC   C2B53132  37.491  27.981   6.669
 4117POPC   C3B53133  37.337  28.060   7.069
 4117POPC   C4B53134  37.371  27.885   7.503
 4118POPC   NC353135  41.360  30.035   5.193
 4118POPC   PO453136  42.008  29.672   5.195
 4118POPC   GL153137  41.718  29.786   5.586
 4118POPC   GL253138  41.590  30.145   5.667
 4118POPC   C1A53139  41.512  29.773   6.016
 4118POPC   D2A53140  41.569  29.865   6.464
 4118POPC   C3A53141  41.579  29.555   6.819
 4118POPC   C4A53142  41.577  29.712   7.230
 4118POPC   C1B53143  41.393  30.262   6.108
 4118POPC   C2B53144  41.198  30.213   6.551
 4118POPC   C3B53145  41.217  30.261   7.000
 4118POPC   C4B53146  41.623  30.219   7.225
 4119POPC   NC353147  21.543  28.567   5.459
 4119POPC   PO453148  21.559  27.925   5.362
 4119POPC   GL153149  21.452  28.186   5.781
 4119POPC   GL253150  21.299  28.545   5.892
 4119POPC   C1A53151  21.282  28.167   6.212
 4119POPC   D2A53152  21.492  28.128   6.576
 4119POPC   C3A53153  21.269  28.151   6.966
 4119POPC   C4A53154  21.187  27.920   7.334
 4119POPC   C1B53155  21.629  28.631   6.228
 4119POPC   C2B53156  21.710  28.583   6.691
 4119POPC   C3B53157  21.537  28.583   7.131
 4119POPC   C4B53158  21.089  28.580   7.276
 4120POPC   NC353159  42.615  28.077   5.538
 4120POPC   PO453160  42.313  28.723   5.276
 4120POPC   GL153161  42.453  28.653   5.743
 4120POPC   GL253162  42.413  28.324   5.941
 4120POPC   C1A53163  42.418  28.744   6.221
 4120POPC   D2A53164  42.536  28.467   6.615
 4120POPC   C3A53165  42.406  28.404   7.079
 4120POPC   C4A53166  42.573  28.672   7.409
 4120POPC   C1B53167  42.414  28.042   6.321
 4120POPC   C2B53168  42.467  27.985   6.763
 4120POPC   C3B53169  42.412  27.897   7.182
 4120POPC   C4B53170  42.065  27.985   7.462
 4121POPC   NC353171  38.809  36.295   5.216
 4121POPC   PO453172  39.433  36.400   5.373
 4121POPC   GL153173  39.276  36.070   5.662
 4121POPC   GL253174  38.928  36.032   5.693
 4121POPC   C1A53175  39.257  35.995   6.130
 4121POPC   D2A53176  39.388  36.215   6.529
 4121POPC   C3A53177  39.343  36.029   6.935
 4121POPC   C4A53178  39.428  36.352   7.195
 4121POPC   C1B53179  38.775  36.232   6.088
 4121POPC   C2B53180  38.862  36.137   6.529
 4121POPC   C3B53181  38.879  36.256   6.961
 4121POPC   C4B53182  38.723  36.516   7.246
 4122POPC   NC353183   6.498  37.825   5.444
 4122POPC   PO453184   6.635  37.292   5.113
 4122POPC   GL153185   6.795  37.428   5.617
 4122POPC   GL253186   6.767  37.775   5.850
 4122POPC   C1A53187   6.790  37.361   6.110
 4122POPC   D2A53188   6.679  37.673   6.473
 4122POPC   C3A53189   6.806  37.576   6.904
 4122POPC   C4A53190   6.974  37.680   7.297
 4122POPC   C1B53191   6.381  37.877   6.103
 4122POPC   C2B53192   6.252  37.983   6.525
 4122POPC   C3B53193   6.309  37.710   6.893
 4122POPC   C4B53194   6.468  37.695   7.291
 4123POPC   NC353195  22.521  44.085   5.450
 4123POPC   PO453196  21.890  43.791   5.529
 4123POPC   GL153197  22.109  43.971   5.818
 4123POPC   GL253198  22.455  43.883   5.916
 4123POPC   C1A53199  22.039  43.789   6.227
 4123POPC   D2A53200  22.157  43.593   6.594
 4123POPC   C3A53201  21.955  43.795   6.923
 4123POPC   C4A53202  22.015  43.751   7.333
 4123POPC   C1B53203  22.290  44.235   6.202
 4123POPC   C2B53204  22.107  44.186   6.615
 4123POPC   C3B53205  22.339  44.113   7.041
 4123POPC   C4B53206  22.315  44.180   7.495
 4124POPC   NC353207  21.780   4.833   5.271
 4124POPC   PO453208  21.155   4.993   5.399
 4124POPC   GL153209  21.413   4.956   5.772
 4124POPC   GL253210  21.635   5.258   5.762
 4124POPC   C1A53211  21.350   4.980   6.238
 4124POPC   D2A53212  21.097   4.977   6.644
 4124POPC   C3A53213  21.279   5.099   7.042
 4124POPC   C4A53214  21.730   5.051   7.144
 4124POPC   C1B53215  21.546   5.469   6.177
 4124POPC   C2B53216  21.479   5.358   6.625
 4124POPC   C3B53217  21.525   5.538   7.043
 4124POPC   C4B53218  21.523   5.465   7.483
 4125POPC   NC353219   7.293  15.474   5.558
 4125POPC   PO453220   7.580  14.851   5.447
 4125POPC   GL153221   7.366  15.030   5.799
 4125POPC   GL253222   7.604  15.285   5.933
 4125POPC   C1A53223   7.126  15.118   6.158
 4125POPC   D2A53224   7.197  15.007   6.561
 4125POPC   C3A53225   7.160  15.231   6.911
 4125POPC   C4A53226   7.463  15.170   7.218
 4125POPC   C1B53227   7.488  15.438   6.354
 4125POPC   C2B53228   7.568  15.524   6.805
 4125POPC   C3B53229   7.531  15.667   7.255
 4125POPC   C4B53230   7.582  15.417   7.642
 4126POPC   NC353231  37.879  24.560   5.682
 4126POPC   PO453232  37.223  24.670   5.616
 4126POPC   GL153233  37.468  24.393   5.937
 4126POPC   GL253234  37.828  24.198   6.024
 4126POPC   C1A53235  37.532  24.462   6.374
 4126POPC   D2A53236  37.278  24.613   6.711
 4126POPC   C3A53237  37.410  24.504   7.110
 4126POPC   C4A53238  37.665  24.848   7.135
 4126POPC   C1B53239  38.052  24.418   6.374
 4126POPC   C2B53240  37.845  24.480   6.801
 4126POPC   C3B53241  37.896  24.405   7.257
 4126POPC   C4B53242  37.978  24.397   7.705
 4127POPC   NC353243  22.511  18.626   5.330
 4127POPC   PO453244  22.259  19.284   5.444
 4127POPC   GL153245  22.157  19.263   5.877
 4127POPC   GL253246  22.106  18.925   5.859
 4127POPC   C1A53247  22.244  19.072   6.319
 4127POPC   D2A53248  22.336  18.846   6.702
 4127POPC   C3A53249  22.108  18.912   7.071
 4127POPC   C4A53250  21.962  19.333   7.131
 4127POPC   C1B53251  21.828  18.786   6.171
 4127POPC   C2B53252  21.852  18.594   6.567
 4127POPC   C3B53253  21.636  18.691   6.924
 4127POPC   C4B53254  21.645  18.916   7.278
 4128POPC   NC353255   9.956  29.374   5.449
 4128POPC   PO453256   9.483  28.915   5.315
 4128POPC   GL153257   9.628  28.875   5.728
 4128POPC   GL253258   9.978  28.945   5.775
 4128POPC   C1A53259   9.573  28.920   6.171
 4128POPC   D2A53260   9.598  29.082   6.585
 4128POPC   C3A53261   9.673  28.895   6.997
 4128POPC   C4A53262   9.594  28.996   7.450
 4128POPC   C1B53263  10.035  29.101   6.237
 4128POPC   C2B53264  10.106  28.993   6.658
 4128POPC   C3B53265  10.100  29.127   7.107
 4128POPC   C4B53266  10.008  29.342   7.513
 4129POPC   NC353267  38.522   4.609   5.414
 4129POPC   PO453268  38.128   3.966   5.331
 4129POPC   GL153269  38.213   4.029   5.780
 4129POPC   GL253270  38.310   4.398   5.873
 4129POPC   C1A53271  38.546   4.016   6.112
 4129POPC   D2A53272  38.728   4.224   6.462
 4129POPC   C3A53273  38.642   3.991   6.839
 4129POPC   C4A53274  38.412   4.187   7.137
 4129POPC   C1B53275  38.312   4.598   6.312
 4129POPC   C2B53276  38.414   4.737   6.749
 4129POPC   C3B53277  38.669   4.623   7.106
 4129POPC   C4B53278  38.753   4.799   7.527
 4130POPC   NC353279  34.566  31.659   5.448
 4130POPC   PO453280  34.336  31.043   5.743
 4130POPC   GL153281  34.514  31.415   5.965
 4130POPC   GL253282  34.771  31.699   5.952
 4130POPC   C1A53283  34.534  31.485   6.395
 4130POPC   D2A53284  34.409  31.246   6.732
 4130POPC   C3A53285  34.557  31.245   7.122
 4130POPC   C4A53286  34.512  31.425   7.498
 4130POPC   C1B53287  35.014  31.545   6.326
 4130POPC   C2B53288  34.899  31.442   6.766
 4130POPC   C3B53289  34.866  31.646   7.195
 4130POPC   C4B53290  34.862  32.074   7.338
 4131POPC   NC353291  13.775  10.954   5.198
 4131POPC   PO453292  13.298  10.588   5.396
 4131POPC   GL153293  13.593  10.688   5.667
 4131POPC   GL253294  13.384  10.478   5.888
 4131POPC   C1A53295  13.768  10.772   6.062
 4131POPC   D2A53296  13.843  10.541   6.436
 4131POPC   C3A53297  13.623  10.656   6.785
 4131POPC   C4A53298  13.775  10.703   7.201
 4131POPC   C1B53299  13.440  10.265   6.282
 4131POPC   C2B53300  13.221  10.259   6.651
 4131POPC   C3B53301  13.422  10.272   7.029
 4131POPC   C4B53302  13.338  10.526   7.382
 4132POPC   NC353303  35.252   5.938   5.422
 4132POPC   PO453304  35.894   6.098   5.706
 4132POPC   GL153305  35.540   5.943   5.966
 4132POPC   GL253306  35.186   5.851   5.910
 4132POPC   C1A53307  35.357   6.168   6.330
 4132POPC   D2A53308  35.545   6.184   6.749
 4132POPC   C3A53309  35.436   5.868   7.074
 4132POPC   C4A53310  35.584   5.961   7.515
 4132POPC   C1B53311  35.103   5.724   6.327
 4132POPC   C2B53312  34.966   5.968   6.674
 4132POPC   C3B53313  34.941   5.834   7.088
 4132POPC   C4B53314  35.112   5.787   7.492
 4133POPC   NC353315  23.389  20.061   5.550
 4133POPC   PO453316  23.948  19.753   5.239
 4133POPC   GL153317  23.869  19.730   5.783
 4133POPC   GL253318  24.156  19.919   5.970
 4133POPC   C1A53319  23.798  19.778   6.291
 4133POPC   D2A53320  23.540  19.896   6.677
 4133POPC   C3A53321  23.676  19.859   7.112
 4133POPC   C4A53322  23.707  19.485   7.398
 4133POPC   C1B53323  24.082  20.195   6.356
 4133POPC   C2B53324  24.050  20.012   6.748
 4133POPC   C3B53325  24.110  20.121   7.145
 4133POPC   C4B53326  23.763  20.350   7.272
 4134POPC   NC353327  41.657  11.296   5.357
 4134POPC   PO453328  41.052  11.452   5.564
 4134POPC   GL153329  41.437  11.377   5.811
 4134POPC   GL253330  41.818  11.519   5.807
 4134POPC   C1A53331  41.494  11.545   6.202
 4134POPC   D2A53332  41.506  11.333   6.551
 4134POPC   C3A53333  41.637  11.394   6.974
 4134POPC   C4A53334  41.336  11.651   7.184
 4134POPC   C1B53335  41.887  11.215   6.175
 4134POPC   C2B53336  42.028  11.228   6.623
 4134POPC   C3B53337  42.011  11.039   7.055
 4134POPC   C4B53338  41.731  10.875   7.372
 4135POPC   NC353339  11.669  28.567   5.446
 4135POPC   PO453340  12.334  28.682   5.473
 4135POPC   GL153341  12.211  28.354   5.744
 4135POPC   GL253342  11.864  28.261   5.824
 4135POPC   C1A53343  12.263  28.374   6.183
 4135POPC   D2A53344  12.098  28.613   6.490
 4135POPC   C3A53345  12.261  28.660   6.878
 4135POPC   C4A53346  12.134  28.441   7.241
 4135POPC   C1B53347  11.775  28.627   6.092
 4135POPC   C2B53348  11.606  28.754   6.507
 4135POPC   C3B53349  11.757  28.660   6.883
 4135POPC   C4B53350  11.650  28.630   7.267
 4136POPC   NC353351  28.281  10.159   5.514
 4136POPC   PO453352  28.785  10.498   5.265
 4136POPC   GL153353  28.458  10.603   5.710
 4136POPC   GL253354  28.512  10.972   5.802
 4136POPC   C1A53355  28.095  10.462   6.072
 4136POPC   D2A53356  27.967  10.313   6.523
 4136POPC   C3A53357  28.349  10.262   6.774
 4136POPC   C4A53358  28.541  10.319   7.191
 4136POPC   C1B53359  28.202  10.958   6.134
 4136POPC   C2B53360  28.092  10.807   6.541
 4136POPC   C3B53361  28.356  10.773   6.894
 4136POPC   C4B53362  28.235  10.738   7.292
 4137POPC   NC353363  40.070  15.471   5.681
 4137POPC   PO453364  40.348  14.796   5.488
 4137POPC   GL153365  40.124  14.966   5.829
 4137POPC   GL253366  39.780  14.970   5.896
 4137POPC   C1A53367  40.115  15.075   6.251
 4137POPC   D2A53368  40.102  15.322   6.577
 4137POPC   C3A53369  40.113  14.994   6.866
 4137POPC   C4A53370  40.000  15.098   7.242
 4137POPC   C1B53371  39.699  15.360   6.210
 4137POPC   C2B53372  39.606  15.557   6.633
 4137POPC   C3B53373  39.610  15.410   7.071
 4137POPC   C4B53374  39.622  15.294   7.544
 4138POPC   NC353375  26.055   5.496   5.526
 4138POPC   PO453376  26.061   6.155   5.382
 4138POPC   GL153377  25.995   6.126   5.847
 4138POPC   GL253378  25.803   5.841   5.820
 4138POPC   C1A53379  26.048   5.996   6.332
 4138POPC   D2A53380  26.229   5.800   6.743
 4138POPC   C3A53381  26.050   6.005   7.118
 4138POPC   C4A53382  26.153   6.037   7.566
 4138POPC   C1B53383  25.703   5.660   6.208
 4138POPC   C2B53384  25.737   5.761   6.684
 4138POPC   C3B53385  25.548   5.871   7.080
 4138POPC   C4B53386  25.693   5.812   7.493
 4139POPC   NC353387  12.631  39.468   5.464
 4139POPC   PO453388  13.159  39.045   5.346
 4139POPC   GL153389  12.941  39.128   5.714
 4139POPC   GL253390  13.040  39.439   5.791
 4139POPC   C1A53391  12.902  39.105   6.190
 4139POPC   D2A53392  12.759  39.212   6.615
 4139POPC   C3A53393  12.862  38.971   7.001
 4139POPC   C4A53394  12.684  38.976   7.440
 4139POPC   C1B53395  13.097  39.630   6.184
 4139POPC   C2B53396  13.295  39.630   6.562
 4139POPC   C3B53397  13.104  39.432   6.916
 4139POPC   C4B53398  12.657  39.438   7.096
 4140POPC   NC353399  26.640  29.223   5.416
 4140POPC   PO453400  26.116  28.690   5.468
 4140POPC   GL153401  25.969  28.862   5.884
 4140POPC   GL253402  26.030  29.215   5.899
 4140POPC   C1A53403  25.872  28.996   6.319
 4140POPC   D2A53404  26.097  29.048   6.669
 4140POPC   C3A53405  25.934  29.026   7.031
 4140POPC   C4A53406  26.024  29.262   7.388
 4140POPC   C1B53407  26.366  29.407   6.092
 4140POPC   C2B53408  26.446  29.416   6.522
 4140POPC   C3B53409  26.347  29.379   6.960
 4140POPC   C4B53410  26.652  29.301   7.303
 4141POPC   NC353411  43.221  19.255   5.176
 4141POPC   PO453412  43.094  18.581   5.253
 4141POPC   GL153413  43.096  18.906   5.626
 4141POPC   GL253414  43.376  19.176   5.717
 4141POPC   C1A53415  43.195  18.897   6.102
 4141POPC   D2A53416  43.370  18.791   6.505
 4141POPC   C3A53417  43.106  18.863   6.869
 4141POPC   C4A53418  43.186  18.864   7.307
 4141POPC   C1B53419  43.424  19.359   6.181
 4141POPC   C2B53420  43.297  19.306   6.645
 4141POPC   C3B53421  43.388  19.290   7.107
 4141POPC   C4B53422  43.066  19.450   7.410
 4142POPC   NC353423  14.730  29.665   5.167
 4142POPC   PO453424  14.423  30.182   5.422
 4142POPC   GL153425  14.280  30.056   5.812
 4142POPC   GL253426  14.246  29.743   5.709
 4142POPC   C1A53427  14.392  30.188   6.191
 4142POPC   D2A53428  14.538  30.344   6.570
 4142POPC   C3A53429  14.377  30.213   6.955
 4142POPC   C4A53430  14.603  30.147   7.313
 4142POPC   C1B53431  14.455  29.656   6.138
 4142POPC   C2B53432  14.357  29.844   6.557
 4142POPC   C3B53433  14.146  29.762   6.927
 4142POPC   C4B53434  14.138  29.913   7.312
 4143POPC   NC353435   4.589   8.841   5.495
 4143POPC   PO453436   5.270   8.956   5.404
 4143POPC   GL153437   5.112   9.130   5.792
 4143POPC   GL253438   4.932   8.819   5.865
 4143POPC   C1A53439   5.142   9.063   6.256
 4143POPC   D2A53440   5.350   9.025   6.646
 4143POPC   C3A53441   5.180   9.260   6.998
 4143POPC   C4A53442   4.756   9.232   7.158
 4143POPC   C1B53443   4.719   8.726   6.246
 4143POPC   C2B53444   4.958   8.662   6.572
 4143POPC   C3B53445   4.960   8.767   6.960
 4143POPC   C4B53446   5.092   8.867   7.325
 4144POPC   NC353447   4.611   6.529   5.423
 4144POPC   PO453448   3.952   6.662   5.523
 4144POPC   GL153449   4.305   6.557   5.857
 4144POPC   GL253450   4.287   6.228   6.026
 4144POPC   C1A53451   4.498   6.567   6.303
 4144POPC   D2A53452   4.264   6.630   6.676
 4144POPC   C3A53453   4.599   6.662   6.958
 4144POPC   C4A53454   4.751   6.632   7.385
 4144POPC   C1B53455   3.962   6.476   6.262
 4144POPC   C2B53456   3.721   6.686   6.613
 4144POPC   C3B53457   3.933   6.930   6.944
 4144POPC   C4B53458   4.193   6.676   7.226
 4145POPC   NC353459  30.820  12.376   5.401
 4145POPC   PO453460  30.337  11.915   5.363
 4145POPC   GL153461  30.527  11.980   5.782
 4145POPC   GL253462  30.865  11.844   5.865
 4145POPC   C1A53463  30.603  12.055   6.239
 4145POPC   D2A53464  30.717  11.801   6.564
 4145POPC   C3A53465  30.685  11.969   6.955
 4145POPC   C4A53466  30.657  11.785   7.353
 4145POPC   C1B53467  31.101  12.021   6.216
 4145POPC   C2B53468  30.942  12.272   6.591
 4145POPC   C3B53469  31.089  12.256   7.003
 4145POPC   C4B53470  30.849  12.238   7.389
 4146POPC   NC353471  42.437  35.409   5.241
 4146POPC   PO453472  41.836  35.257   5.525
 4146POPC   GL153473  42.127  35.225   5.881
 4146POPC   GL253474  42.447  35.306   5.752
 4146POPC   C1A53475  42.242  35.031   6.275
 4146POPC   D2A53476  42.251  34.929   6.710
 4146POPC   C3A53477  42.272  35.278   6.974
 4146POPC   C4A53478  42.051  35.423   7.293
 4146POPC   C1B53479  42.607  35.361   6.149
 4146POPC   C2B53480  42.666  35.208   6.568
 4146POPC   C3B53481  42.761  35.191   7.004
 4146POPC   C4B53482  42.699  35.270   7.446
 4147POPC   NC353483  16.959  31.321   5.207
 4147POPC   PO453484  17.028  30.701   5.242
 4147POPC   GL153485  16.843  30.775   5.672
 4147POPC   GL253486  16.627  31.036   5.539
 4147POPC   C1A53487  16.727  30.604   6.114
 4147POPC   D2A53488  16.817  30.592   6.584
 4147POPC   C3A53489  16.558  30.496   6.948
 4147POPC   C4A53490  16.727  30.406   7.368
 4147POPC   C1B53491  16.563  31.083   6.012
 4147POPC   C2B53492  16.442  30.945   6.447
 4147POPC   C3B53493  16.586  31.020   6.873
 4147POPC   C4B53494  16.438  30.892   7.255
 4148POPC   NC353495  38.301  38.174   5.507
 4148POPC   PO453496  38.768  38.600   5.347
 4148POPC   GL153497  38.522  38.597   5.744
 4148POPC   GL253498  38.258  38.867   5.773
 4148POPC   C1A53499  38.499  38.497   6.196
 4148POPC   D2A53500  38.631  38.353   6.603
 4148POPC   C3A53501  38.322  38.310   6.911
 4148POPC   C4A53502  38.475  38.399   7.327
 4148POPC   C1B53503  38.105  38.835   6.225
 4148POPC   C2B53504  38.097  38.735   6.695
 4148POPC   C3B53505  38.132  38.708   7.169
 4148POPC   C4B53506  38.216  38.749   7.645
 4149POPC   NC353507   1.584  36.929   5.260
 4149POPC   PO453508   0.922  36.986   5.382
 4149POPC   GL153509   1.293  37.074   5.651
 4149POPC   GL253510   1.365  36.716   5.688
 4149POPC   C1A53511   1.455  37.186   6.059
 4149POPC   D2A53512   1.301  37.017   6.460
 4149POPC   C3A53513   1.351  37.093   6.915
 4149POPC   C4A53514   1.032  36.881   7.146
 4149POPC   C1B53515   1.402  36.619   6.120
 4149POPC   C2B53516   1.563  36.560   6.551
 4149POPC   C3B53517   1.416  36.499   6.973
 4149POPC   C4B53518   1.492  36.757   7.355
 4150POPC   NC353519  43.465  40.437   5.810
 4150POPC   PO453520  43.301  39.904   5.526
 4150POPC   GL153521  43.127  39.963   5.901
 4150POPC   GL253522  42.946  40.258   5.909
 4150POPC   C1A53523  43.174  40.057   6.331
 4150POPC   D2A53524  43.145  39.843   6.697
 4150POPC   C3A53525  43.331  40.041   7.027
 4150POPC   C4A53526  43.215  39.873   7.397
 4150POPC   C1B53527  42.678  40.129   6.253
 4150POPC   C2B53528  42.768  40.227   6.693
 4150POPC   C3B53529  42.872  40.223   7.142
 4150POPC   C4B53530  43.104  40.367   7.525
 4151POPC   NC353531  40.476  38.334   5.073
 4151POPC   PO453532  41.067  38.528   5.399
 4151POPC   GL153533  40.895  38.472   5.751
 4151POPC   GL253534  40.545  38.461   5.598
 4151POPC   C1A53535  40.989  38.275   6.146
 4151POPC   D2A53536  40.867  38.453   6.534
 4151POPC   C3A53537  40.987  38.259   6.925
 4151POPC   C4A53538  40.766  38.529   7.227
 4151POPC   C1B53539  40.478  38.350   6.017
 4151POPC   C2B53540  40.420  38.199   6.430
 4151POPC   C3B53541  40.461  38.269   6.879
 4151POPC   C4B53542  40.652  38.031   7.244
 4152POPC   NC353543  18.397  13.946   5.410
 4152POPC   PO453544  18.017  13.424   5.307
 4152POPC   GL153545  18.076  13.664   5.693
 4152POPC   GL253546  18.431  13.576   5.804
 4152POPC   C1A53547  18.051  13.705   6.147
 4152POPC   D2A53548  18.310  13.585   6.501
 4152POPC   C3A53549  18.161  13.608   6.926
 4152POPC   C4A53550  18.406  13.827   7.235
 4152POPC   C1B53551  18.611  13.256   6.105
 4152POPC   C2B53552  18.694  13.258   6.556
 4152POPC   C3B53553  18.537  13.231   6.979
 4152POPC   C4B53554  18.685  13.441   7.388
 4153POPC   NC353555  16.883   9.298   5.387
 4153POPC   PO453556  17.067   8.648   5.366
 4153POPC   GL153557  16.823   8.876   5.734
 4153POPC   GL253558  16.553   8.689   5.892
 4153POPC   C1A53559  16.902   9.132   6.110
 4153POPC   D2A53560  17.152   9.176   6.483
 4153POPC   C3A53561  17.011   9.135   6.917
 4153POPC   C4A53562  16.652   8.975   7.198
 4153POPC   C1B53563  16.658   8.723   6.315
 4153POPC   C2B53564  16.720   8.714   6.742
 4153POPC   C3B53565  16.441   8.553   6.998
 4153POPC   C4B53566  16.321   8.598   7.401
 4154POPC   NC353567  36.834  14.270   5.437
 4154POPC   PO453568  37.174  14.848   5.388
 4154POPC   GL153569  37.076  14.568   5.777
 4154POPC   GL253570  37.037  14.172   5.883
 4154POPC   C1A53571  36.883  14.540   6.187
 4154POPC   D2A53572  36.925  14.337   6.559
 4154POPC   C3A53573  36.859  14.643   6.873
 4154POPC   C4A53574  36.839  14.556   7.298
 4154POPC   C1B53575  36.702  14.017   6.161
 4154POPC   C2B53576  36.471  14.077   6.546
 4154POPC   C3B53577  36.655  14.138   6.984
 4154POPC   C4B53578  36.584  13.966   7.391
 4155POPC   NC353579  13.880  29.139   5.145
 4155POPC   PO453580  13.850  28.877   5.718
 4155POPC   GL153581  13.660  29.213   6.004
 4155POPC   GL253582  13.310  29.131   6.101
 4155POPC   C1A53583  13.630  29.351   6.442
 4155POPC   D2A53584  13.897  29.306   6.797
 4155POPC   C3A53585  13.626  29.261   7.154
 4155POPC   C4A53586  13.693  29.322   7.579
 4155POPC   C1B53587  13.599  28.829   6.322
 4155POPC   C2B53588  13.716  28.811   6.746
 4155POPC   C3B53589  13.459  28.759   7.068
 4155POPC   C4B53590  13.485  28.842   7.468
 4156POPC   NC353591  18.532   2.407   5.498
 4156POPC   PO453592  18.588   3.045   5.333
 4156POPC   GL153593  18.436   2.873   5.717
 4156POPC   GL253594  18.154   2.601   5.756
 4156POPC   C1A53595  18.536   2.710   6.117
 4156POPC   D2A53596  18.471   2.515   6.514
 4156POPC   C3A53597  18.458   2.817   6.864
 4156POPC   C4A53598  18.289   2.888   7.277
 4156POPC   C1B53599  18.043   2.494   6.180
 4156POPC   C2B53600  17.977   2.398   6.628
 4156POPC   C3B53601  18.053   2.523   7.056
 4156POPC   C4B53602  18.049   2.444   7.519
 4157POPC   NC353603  29.682  38.749   5.493
 4157POPC   PO453604  30.048  39.308   5.389
 4157POPC   GL153605  29.875  39.255   5.766
 4157POPC   GL253606  30.050  38.961   5.803
 4157POPC   C1A53607  29.987  39.423   6.183
 4157POPC   D2A53608  30.082  39.270   6.592
 4157POPC   C3A53609  29.920  39.468   6.952
 4157POPC   C4A53610  29.685  39.385   7.280
 4157POPC   C1B53611  29.831  38.918   6.175
 4157POPC   C2B53612  29.831  38.772   6.582
 4157POPC   C3B53613  29.776  38.972   6.963
 4157POPC   C4B53614  29.983  38.929   7.328
 4158POPC   NC353615  12.296   1.403   5.429
 4158POPC   PO453616  11.916   0.802   5.429
 4158POPC   GL153617  12.097   1.083   5.779
 4158POPC   GL253618  12.083   1.460   5.883
 4158POPC   C1A53619  12.033   1.109   6.246
 4158POPC   D2A53620  12.009   0.842   6.620
 4158POPC   C3A53621  11.854   1.048   6.997
 4158POPC   C4A53622  11.996   1.115   7.407
 4158POPC   C1B53623  12.128   1.656   6.278
 4158POPC   C2B53624  11.979   1.449   6.663
 4158POPC   C3B53625  12.089   1.509   7.120
 4158POPC   C4B53626  11.974   1.600   7.598
 4159POPC   NC353627  44.715  42.635   5.427
 4159POPC   PO453628  44.957  41.944   5.532
 4159POPC   GL153629  44.659  42.234   5.749
 4159POPC   GL253630  44.925  42.452   5.856
 4159POPC   C1A53631  44.523  42.406   6.167
 4159POPC   D2A53632  44.761  42.400   6.556
 4159POPC   C3A53633  44.531  42.479   6.918
 4159POPC   C4A53634  44.456  42.189   7.257
 4159POPC   C1B53635   0.008  42.694   6.214
 4159POPC   C2B53636   0.210  42.677   6.607
 4159POPC   C3B53637   0.025  42.554   7.002
 4159POPC   C4B53638  44.723  42.603   7.376
 4160POPC   NC353639  15.657  24.065   5.336
 4160POPC   PO453640  16.387  24.024   5.347
 4160POPC   GL153641  16.196  23.911   5.767
 4160POPC   GL253642  15.824  23.895   5.796
 4160POPC   C1A53643  16.244  23.756   6.228
 4160POPC   D2A53644  16.031  23.427   6.491
 4160POPC   C3A53645  15.878  23.547   6.889
 4160POPC   C4A53646  16.109  23.762   7.199
 4160POPC   C1B53647  15.733  23.745   6.203
 4160POPC   C2B53648  15.867  23.977   6.578
 4160POPC   C3B53649  15.729  24.025   7.016
 4160POPC   C4B53650  15.505  23.690   7.239
 4161POPC   NC353651  39.537   6.963   5.585
 4161POPC   PO453652  39.067   7.336   5.252
 4161POPC   GL153653  39.134   7.411   5.740
 4161POPC   GL253654  38.803   7.520   5.815
 4161POPC   C1A53655  39.409   7.364   6.138
 4161POPC   D2A53656  39.507   7.628   6.506
 4161POPC   C3A53657  39.473   7.533   6.950
 4161POPC   C4A53658  39.175   7.387   7.247
 4161POPC   C1B53659  38.899   7.297   6.225
 4161POPC   C2B53660  39.063   7.353   6.653
 4161POPC   C3B53661  38.932   7.052   6.962
 4161POPC   C4B53662  38.771   6.958   7.366
 4162POPC   NC353663   9.233  10.089   5.625
 4162POPC   PO453664   9.034  10.713   5.563
 4162POPC   GL153665   8.972  10.472   5.911
 4162POPC   GL253666   8.809  10.159   5.910
 4162POPC   C1A53667   9.153  10.406   6.305
 4162POPC   D2A53668   9.376  10.309   6.706
 4162POPC   C3A53669   9.144  10.570   7.017
 4162POPC   C4A53670   8.987  10.417   7.457
 4162POPC   C1B53671   8.916   9.945   6.270
 4162POPC   C2B53672   8.884  10.151   6.663
 4162POPC   C3B53673   8.736  10.295   7.027
 4162POPC   C4B53674   8.437  10.366   7.290
 4163POPC   NC353675  26.917  10.446   5.334
 4163POPC   PO453676  26.733  10.973   5.660
 4163POPC   GL153677  26.647  10.593   5.896
 4163POPC   GL253678  26.960  10.403   5.873
 4163POPC   C1A53679  26.684  10.475   6.352
 4163POPC   D2A53680  27.089  10.562   6.554
 4163POPC   C3A53681  27.155  10.725   6.964
 4163POPC   C4A53682  26.893  10.647   7.292
 4163POPC   C1B53683  27.043  10.147   6.237
 4163POPC   C2B53684  26.958  10.031   6.664
 4163POPC   C3B53685  26.936  10.174   7.097
 4163POPC   C4B53686  27.023  10.235   7.542
 4164POPC   NC353687  44.106  38.093   5.560
 4164POPC   PO453688  44.055  37.402   5.569
 4164POPC   GL153689  43.833  37.452   5.928
 4164POPC   GL253690  43.643  37.694   5.781
 4164POPC   C1A53691  43.971  37.538   6.358
 4164POPC   D2A53692  43.939  37.726   6.767
 4164POPC   C3A53693  44.022  37.431   7.089
 4164POPC   C4A53694  44.230  37.462   7.487
 4164POPC   C1B53695  43.537  37.787   6.231
 4164POPC   C2B53696  43.507  38.043   6.607
 4164POPC   C3B53697  43.615  38.037   7.032
 4164POPC   C4B53698  43.536  37.659   7.271
 4165POPC   NC353699   1.050  20.089   5.396
 4165POPC   PO453700   1.661  19.929   5.413
 4165POPC   GL153701   1.342  19.829   5.757
 4165POPC   GL253702   1.451  19.536   5.970
 4165POPC   C1A53703   1.080  19.826   6.146
 4165POPC   D2A53704   1.198  19.911   6.570
 4165POPC   C3A53705   0.970  19.831   6.933
 4165POPC   C4A53706   0.949  20.024   7.341
 4165POPC   C1B53707   1.344  19.399   6.373
 4165POPC   C2B53708   1.411  19.518   6.793
 4165POPC   C3B53709   1.428  19.796   7.147
 4165POPC   C4B53710   1.291  19.685   7.572
 4166POPC   NC353711  17.959  16.254   5.572
 4166POPC   PO453712  18.420  15.780   5.342
 4166POPC   GL153713  18.280  15.915   5.795
 4166POPC   GL253714  17.941  15.952   5.981
 4166POPC   C1A53715  18.385  16.062   6.229
 4166POPC   D2A53716  18.586  16.311   6.545
 4166POPC   C3A53717  18.336  16.201   6.897
 4166POPC   C4A53718  18.387  16.026   7.281
 4166POPC   C1B53719  17.849  16.225   6.330
 4166POPC   C2B53720  17.797  16.157   6.759
 4166POPC   C3B53721  17.895  16.255   7.164
 4166POPC   C4B53722  18.015  16.465   7.527
 4167POPC   NC353723  31.634  40.346   5.482
 4167POPC   PO453724  31.399  39.716   5.393
 4167POPC   GL153725  31.448  39.894   5.775
 4167POPC   GL253726  31.203  40.145   5.862
 4167POPC   C1A53727  31.553  39.839   6.216
 4167POPC   D2A53728  31.555  39.991   6.642
 4167POPC   C3A53729  31.378  39.710   6.940
 4167POPC   C4A53730  31.109  39.693   7.277
 4167POPC   C1B53731  31.294  40.317   6.285
 4167POPC   C2B53732  31.117  40.237   6.691
 4167POPC   C3B53733  31.275  40.180   7.082
 4167POPC   C4B53734  31.723  40.015   7.149
 4168POPC   NC353735  22.670   8.102   5.217
 4168POPC   PO453736  23.238   8.431   5.446
 4168POPC   GL153737  23.034   8.335   5.822
 4168POPC   GL253738  22.841   8.066   5.741
 4168POPC   C1A53739  22.966   8.453   6.263
 4168POPC   D2A53740  22.788   8.379   6.670
 4168POPC   C3A53741  23.022   8.363   7.074
 4168POPC   C4A53742  22.805   8.461   7.489
 4168POPC   C1B53743  22.877   7.957   6.152
 4168POPC   C2B53744  22.634   7.925   6.526
 4168POPC   C3B53745  22.767   7.936   6.951
 4168POPC   C4B53746  22.915   7.925   7.359
 4169POPC   NC353747  44.094  24.813   5.521
 4169POPC   PO453748  43.730  24.184   5.430
 4169POPC   GL153749  43.787  24.482   5.758
 4169POPC   GL253750  44.142  24.368   5.811
 4169POPC   C1A53751  43.831  24.654   6.185
 4169POPC   D2A53752  43.606  24.558   6.578
 4169POPC   C3A53753  43.829  24.567   6.980
 4169POPC   C4A53754  44.024  24.862   7.283
 4169POPC   C1B53755  43.889  24.136   6.139
 4169POPC   C2B53756  43.926  23.953   6.566
 4169POPC   C3B53757  44.158  24.069   6.917
 4169POPC   C4B53758  44.225  24.375   7.234
 4170POPC   NC353759  15.591  20.680   5.546
 4170POPC   PO453760  15.153  20.197   5.504
 4170POPC   GL153761  14.995  20.503   5.793
 4170POPC   GL253762  15.176  20.795   5.834
 4170POPC   C1A53763  15.039  20.534   6.240
 4170POPC   D2A53764  15.052  20.812   6.566
 4170POPC   C3A53765  15.014  20.553   6.933
 4170POPC   C4A53766  14.991  20.148   7.172
 4170POPC   C1B53767  15.461  20.836   6.180
 4170POPC   C2B53768  15.575  20.790   6.586
 4170POPC   C3B53769  15.403  20.909   6.951
 4170POPC   C4B53770  15.333  20.705   7.302
 4171POPC   NC353771  24.000   1.819   5.426
 4171POPC   PO453772  23.371   2.160   5.581
 4171POPC   GL153773  23.736   2.043   5.811
 4171POPC   GL253774  23.879   2.358   5.892
 4171POPC   C1A53775  23.776   1.707   6.123
 4171POPC   D2A53776  23.723   1.511   6.544
 4171POPC   C3A53777  23.860   1.766   6.902
 4171POPC   C4A53778  23.571   1.928   7.206
 4171POPC   C1B53779  23.749   2.201   6.311
 4171POPC   C2B53780  23.686   2.224   6.758
 4171POPC   C3B53781  23.949   2.270   7.130
 4171POPC   C4B53782  23.837   2.180   7.579
 4172POPC   NC353783  43.474   8.780   5.431
 4172POPC   PO453784  43.111   9.343   5.432
 4172POPC   GL153785  43.198   9.082   5.812
 4172POPC   GL253786  43.212   8.718   5.852
 4172POPC   C1A53787  43.134   9.044   6.290
 4172POPC   D2A53788  42.807   8.868   6.591
 4172POPC   C3A53789  42.970   8.905   7.031
 4172POPC   C4A53790  43.148   9.299   7.168
 4172POPC   C1B53791  43.038   8.553   6.218
 4172POPC   C2B53792  43.201   8.552   6.622
 4172POPC   C3B53793  43.455   8.751   6.940
 4172POPC   C4B53794  43.496   8.691   7.371
 4173POPC   NC353795  18.803   3.612   5.454
 4173POPC   PO453796  19.348   3.225   5.563
 4173POPC   GL153797  19.089   3.407   5.867
 4173POPC   GL253798  19.163   3.757   5.858
 4173POPC   C1A53799  18.934   3.553   6.274
 4173POPC   D2A53800  18.952   3.967   6.486
 4173POPC   C3A53801  18.801   3.916   6.903
 4173POPC   C4A53802  18.816   3.582   7.211
 4173POPC   C1B53803  19.397   3.772   6.262
 4173POPC   C2B53804  19.305   3.631   6.675
 4173POPC   C3B53805  19.277   3.756   7.079
 4173POPC   C4B53806  19.217   3.809   7.500
 4174POPC   NC353807  29.846   1.782   5.585
 4174POPC   PO453808  29.640   2.330   5.264
 4174POPC   GL153809  30.074   2.240   5.630
 4174POPC   GL253810  30.007   1.985   6.012
 4174POPC   C1A53811  30.256   2.395   6.031
 4174POPC   D2A53812  29.923   2.336   6.407
 4174POPC   C3A53813  30.035   2.126   6.829
 4174POPC   C4A53814  29.859   2.152   7.237
 4174POPC   C1B53815  29.706   1.648   6.197
 4174POPC   C2B53816  29.460   1.525   6.544
 4174POPC   C3B53817  29.641   1.495   6.926
 4174POPC   C4B53818  29.661   1.702   7.305
 4175POPC   NC353819  28.552   8.578   5.526
 4175POPC   PO453820  28.305   9.166   5.344
 4175POPC   GL153821  28.285   8.950   5.768
 4175POPC   GL253822  28.600   8.968   5.865
 4175POPC   C1A53823  28.256   8.947   6.241
 4175POPC   D2A53824  28.146   9.286   6.537
 4175POPC   C3A53825  28.148   9.185   6.997
 4175POPC   C4A53826  28.231   8.859   7.290
 4175POPC   C1B53827  28.748   9.081   6.281
 4175POPC   C2B53828  28.548   9.026   6.685
 4175POPC   C3B53829  28.688   8.975   7.077
 4175POPC   C4B53830  28.617   9.174   7.455
 4176POPC   NC353831  17.632   6.816   5.262
 4176POPC   PO453832  17.248   6.350   5.521
 4176POPC   GL153833  17.570   6.595   5.763
 4176POPC   GL253834  17.677   6.926   5.763
 4176POPC   C1A53835  17.750   6.584   6.185
 4176POPC   D2A53836  17.498   6.565   6.579
 4176POPC   C3A53837  17.694   6.404   6.965
 4176POPC   C4A53838  17.707   6.481   7.438
 4176POPC   C1B53839  17.776   7.109   6.161
 4176POPC   C2B53840  17.853   6.934   6.564
 4176POPC   C3B53841  17.641   6.922   6.931
 4176POPC   C4B53842  17.716   7.021   7.325
 4177POPC   NC353843  42.481  15.273   5.461
 4177POPC   PO453844  42.185  14.664   5.350
 4177POPC   GL153845  42.153  14.948   5.759
 4177POPC   GL253846  42.504  15.074   5.913
 4177POPC   C1A53847  42.074  15.226   6.149
 4177POPC   D2A53848  42.095  15.369   6.564
 4177POPC   C3A53849  42.326  15.135   6.810
 4177POPC   C4A53850  42.292  15.141   7.234
 4177POPC   C1B53851  42.818  14.837   6.188
 4177POPC   C2B53852  42.803  14.765   6.648
 4177POPC   C3B53853  42.778  15.027   7.043
 4177POPC   C4B53854  42.697  14.990   7.503
 4178POPC   NC353855  29.666   9.702   5.437
 4178POPC   PO453856  30.188  10.157   5.503
 4178POPC   GL153857  29.989  10.008   5.866
 4178POPC   GL253858  29.920   9.651   5.873
 4178POPC   C1A53859  30.097   9.923   6.298
 4178POPC   D2A53860  30.144  10.159   6.703
 4178POPC   C3A53861  29.882  10.007   7.056
 4178POPC   C4A53862  29.935   9.573   7.196
 4178POPC   C1B53863  29.603   9.484   6.134
 4178POPC   C2B53864  29.562   9.356   6.555
 4178POPC   C3B53865  29.738   9.181   6.913
 4178POPC   C4B53866  29.545   9.254   7.296
 4179POPC   NC353867   2.237   7.156   5.407
 4179POPC   PO453868   1.743   7.543   5.487
 4179POPC   GL153869   2.077   7.404   5.814
 4179POPC   GL253870   2.228   7.661   5.967
 4179POPC   C1A53871   2.080   7.252   6.246
 4179POPC   D2A53872   1.695   7.310   6.520
 4179POPC   C3A53873   1.713   7.150   6.934
 4179POPC   C4A53874   2.081   7.124   7.166
 4179POPC   C1B53875   1.851   7.703   6.224
 4179POPC   C2B53876   1.936   7.756   6.677
 4179POPC   C3B53877   1.959   7.609   7.111
 4179POPC   C4B53878   2.241   7.493   7.495
 4180POPC   NC353879   1.329  33.394   5.411
 4180POPC   PO453880   1.120  32.790   5.146
 4180POPC   GL153881   1.300  32.767   5.614
 4180POPC   GL253882   1.037  32.847   5.877
 4180POPC   C1A53883   1.527  32.927   6.027
 4180POPC   D2A53884   1.267  33.035   6.441
 4180POPC   C3A53885   1.340  32.979   6.909
 4180POPC   C4A53886   1.514  32.717   7.263
 4180POPC   C1B53887   0.832  32.718   6.290
 4180POPC   C2B53888   0.896  32.775   6.739
 4180POPC   C3B53889   0.772  32.909   7.157
 4180POPC   C4B53890   0.613  32.571   7.434
 4181POPC   NC353891  24.283   4.986   5.282
 4181POPC   PO453892  23.690   5.302   5.487
 4181POPC   GL153893  23.837   5.331   5.883
 4181POPC   GL253894  23.748   4.971   5.917
 4181POPC   C1A53895  23.671   5.289   6.296
 4181POPC   D2A53896  23.650   5.049   6.668
 4181POPC   C3A53897  23.824   5.168   7.092
 4181POPC   C4A53898  23.735   5.410   7.498
 4181POPC   C1B53899  23.923   4.740   6.280
 4181POPC   C2B53900  24.040   4.704   6.729
 4181POPC   C3B53901  24.041   4.685   7.186
 4181POPC   C4B53902  23.947   4.941   7.559
 4182POPC   NC353903  37.237   1.427   5.290
 4182POPC   PO453904  36.645   1.173   5.510
 4182POPC   GL153905  36.874   1.318   5.842
 4182POPC   GL253906  37.189   1.465   5.815
 4182POPC   C1A53907  36.825   1.523   6.228
 4182POPC   D2A53908  36.840   1.280   6.597
 4182POPC   C3A53909  36.839   1.517   6.953
 4182POPC   C4A53910  36.695   1.272   7.285
 4182POPC   C1B53911  37.187   1.164   6.225
 4182POPC   C2B53912  37.322   1.117   6.683
 4182POPC   C3B53913  37.171   1.129   7.124
 4182POPC   C4B53914  37.117   1.213   7.596
 4183POPC   NC353915  21.636  30.904   5.528
 4183POPC   PO453916  21.194  30.472   5.391
 4183POPC   GL153917  21.356  30.570   5.810
 4183POPC   GL253918  21.678  30.469   5.973
 4183POPC   C1A53919  21.313  30.808   6.196
 4183POPC   D2A53920  21.200  30.891   6.631
 4183POPC   C3A53921  21.355  30.599   6.954
 4183POPC   C4A53922  21.232  30.849   7.267
 4183POPC   C1B53923  21.846  30.839   6.228
 4183POPC   C2B53924  21.714  31.010   6.658
 4183POPC   C3B53925  21.721  30.946   7.107
 4183POPC   C4B53926  21.687  30.806   7.513
 4184POPC   NC353927  24.674  35.223   5.434
 4184POPC   PO453928  24.171  35.679   5.407
 4184POPC   GL153929  24.477  35.590   5.763
 4184POPC   GL253930  24.719  35.809   5.930
 4184POPC   C1A53931  24.501  35.356   6.159
 4184POPC   D2A53932  24.321  35.400   6.600
 4184POPC   C3A53933  24.429  35.075   6.944
 4184POPC   C4A53934  24.345  35.042   7.378
 4184POPC   C1B53935  24.698  35.752   6.409
 4184POPC   C2B53936  24.790  35.484   6.782
 4184POPC   C3B53937  24.685  35.470   7.209
 4184POPC   C4B53938  24.797  35.699   7.596
 4185POPC   NC353939  37.033  28.696   5.591
 4185POPC   PO453940  36.596  28.204   5.481
 4185POPC   GL153941  36.865  28.286   5.881
 4185POPC   GL253942  37.236  28.300   5.847
 4185POPC   C1A53943  37.010  28.252   6.334
 4185POPC   D2A53944  36.911  28.557   6.681
 4185POPC   C3A53945  36.825  28.538   7.125
 4185POPC   C4A53946  37.017  28.266   7.417
 4185POPC   C1B53947  37.412  28.569   6.157
 4185POPC   C2B53948  37.443  28.533   6.617
 4185POPC   C3B53949  37.302  28.738   7.004
 4185POPC   C4B53950  37.144  28.764   7.451
 4186POPC   NC353951   0.514   6.945   5.427
 4186POPC   PO453952   0.953   6.425   5.439
 4186POPC   GL153953   1.165   6.573   5.803
 4186POPC   GL253954   1.057   6.945   5.786
 4186POPC   C1A53955   1.218   6.514   6.248
 4186POPC   D2A53956   1.347   6.290   6.612
 4186POPC   C3A53957   1.102   6.303   6.992
 4186POPC   C4A53958   1.256   6.469   7.356
 4186POPC   C1B53959   1.294   7.041   6.168
 4186POPC   C2B53960   1.464   6.866   6.529
 4186POPC   C3B53961   1.414   6.730   6.936
 4186POPC   C4B53962   1.300   7.015   7.273
 4187POPC   NC353963  33.563  18.343   5.351
 4187POPC   PO453964  34.191  18.615   5.435
 4187POPC   GL153965  33.872  18.470   5.744
 4187POPC   GL253966  33.706  18.137   5.795
 4187POPC   C1A53967  33.734  18.419   6.192
 4187POPC   D2A53968  33.683  18.113   6.508
 4187POPC   C3A53969  33.807  18.309   6.892
 4187POPC   C4A53970  34.058  18.155   7.212
 4187POPC   C1B53971  33.459  17.820   6.093
 4187POPC   C2B53972  33.433  17.648   6.538
 4187POPC   C3B53973  33.565  17.827   6.945
 4187POPC   C4B53974  33.427  18.158   7.217
 4188POPC   NC353975  17.058  22.143   5.590
 4188POPC   PO453976  16.387  21.961   5.603
 4188POPC   GL153977  16.457  22.280   5.930
 4188POPC   GL253978  16.679  22.507   5.837
 4188POPC   C1A53979  16.744  22.192   6.238
 4188POPC   D2A53980  16.756  21.906   6.532
 4188POPC   C3A53981  16.852  22.089   6.918
 4188POPC   C4A53982  16.821  22.137   7.367
 4188POPC   C1B53983  16.679  22.688   6.254
 4188POPC   C2B53984  16.785  22.552   6.656
 4188POPC   C3B53985  16.619  22.519   7.059
 4188POPC   C4B53986  16.506  22.536   7.503
 4189POPC   NC353987  42.250  13.448   5.509
 4189POPC   PO453988  42.741  13.970   5.659
 4189POPC   GL153989  42.378  13.801   5.920
 4189POPC   GL253990  42.026  13.780   5.850
 4189POPC   C1A53991  42.284  13.488   6.260
 4189POPC   D2A53992  42.492  13.253   6.631
 4189POPC   C3A53993  42.367  13.360   7.067
 4189POPC   C4A53994  42.484  13.691   7.384
 4189POPC   C1B53995  41.904  13.889   6.243
 4189POPC   C2B53996  41.960  13.672   6.626
 4189POPC   C3B53997  42.136  13.822   7.000
 4189POPC   C4B53998  41.983  13.958   7.395
 4190POPC   NC353999  10.920  12.345   5.438
 4190POPC   PO454000  10.519  11.754   5.417
 4190POPC   GL154001  10.507  11.928   5.829
 4190POPC   GL254002  10.536  12.254   5.765
 4190POPC   C1A54003  10.330  11.831   6.238
 4190POPC   D2A54004  10.283  12.080   6.619
 4190POPC   C3A54005  10.646  12.013   6.909
 4190POPC   C4A54006  10.520  11.956   7.317
 4190POPC   C1B54007  10.475  12.354   6.201
 4190POPC   C2B54008  10.639  12.444   6.640
 4190POPC   C3B54009  10.414  12.449   7.058
 4190POPC   C4B54010  10.411  12.465   7.526
 4191POPC   NC354011  24.342  26.062   4.990
 4191POPC   PO454012  24.669  25.609   5.271
 4191POPC   GL154013  24.829  25.837   5.647
 4191POPC   GL254014  24.612  26.129   5.833
 4191POPC   C1A54015  24.850  25.808   6.117
 4191POPC   D2A54016  24.567  25.887   6.460
 4191POPC   C3A54017  24.748  25.909   6.859
 4191POPC   C4A54018  24.508  25.916   7.207
 4191POPC   C1B54019  24.382  26.301   6.205
 4191POPC   C2B54020  24.237  26.392   6.591
 4191POPC   C3B54021  24.445  26.327   6.939
 4191POPC   C4B54022  24.573  26.448   7.324
 4192POPC   NC354023  43.422   5.696   5.678
 4192POPC   PO454024  43.398   6.154   5.178
 4192POPC   GL154025  43.039   6.048   5.659
 4192POPC   GL254026  43.107   5.859   6.015
 4192POPC   C1A54027  42.825   6.242   6.083
 4192POPC   D2A54028  42.916   6.212   6.584
 4192POPC   C3A54029  42.881   5.820   6.874
 4192POPC   C4A54030  43.031   5.583   7.262
 4192POPC   C1B54031  43.464   5.909   6.315
 4192POPC   C2B54032  43.495   6.102   6.695
 4192POPC   C3B54033  43.377   5.886   7.030
 4192POPC   C4B54034  43.337   6.007   7.411
 4193POPC   NC354035  17.934  24.330   5.286
 4193POPC   PO454036  17.522  24.762   5.245
 4193POPC   GL154037  17.835  24.707   5.693
 4193POPC   GL254038  17.783  24.357   5.850
 4193POPC   C1A54039  17.788  24.753   6.219
 4193POPC   D2A54040  17.849  24.795   6.717
 4193POPC   C3A54041  17.556  24.541   7.004
 4193POPC   C4A54042  17.134  24.646   7.154
 4193POPC   C1B54043  17.699  24.120   6.241
 4193POPC   C2B54044  17.505  24.078   6.680
 4193POPC   C3B54045  17.658  24.019   7.115
 4193POPC   C4B54046  17.851  24.231   7.478
 4194POPC   NC354047  29.242  37.955   5.422
 4194POPC   PO454048  28.877  37.390   5.598
 4194POPC   GL154049  29.109  37.704   5.857
 4194POPC   GL254050  29.019  38.076   5.893
 4194POPC   C1A54051  29.219  37.756   6.276
 4194POPC   D2A54052  29.400  37.599   6.633
 4194POPC   C3A54053  29.187  37.510   7.010
 4194POPC   C4A54054  29.356  37.570   7.413
 4194POPC   C1B54055  28.995  38.240   6.319
 4194POPC   C2B54056  29.041  38.006   6.723
 4194POPC   C3B54057  29.083  37.984   7.175
 4194POPC   C4B54058  29.141  37.997   7.625
 4195POPC   NC354059  40.352   7.530   5.466
 4195POPC   PO454060  39.741   7.587   5.499
 4195POPC   GL154061  39.956   7.582   5.860
 4195POPC   GL254062  40.158   7.294   5.864
 4195POPC   C1A54063  39.975   7.597   6.286
 4195POPC   D2A54064  40.167   7.417   6.618
 4195POPC   C3A54065  39.976   7.433   6.995
 4195POPC   C4A54066  39.885   7.666   7.390
 4195POPC   C1B54067  39.870   7.109   6.151
 4195POPC   C2B54068  39.687   7.144   6.546
 4195POPC   C3B54069  39.649   7.002   6.946
 4195POPC   C4B54070  39.668   7.190   7.320
 4196POPC   NC354071  29.401  44.620   5.440
 4196POPC   PO454072  28.716  44.859   5.423
 4196POPC   GL154073  29.035  44.906   5.776
 4196POPC   GL254074  29.424  44.986   5.800
 4196POPC   C1A54075  29.119  44.682   6.163
 4196POPC   D2A54076  28.990  44.729   6.597
 4196POPC   C3A54077  29.262  44.550   6.916
 4196POPC   C4A54078  29.042  44.401   7.264
 4196POPC   C1B54079  29.366   0.129   6.229
 4196POPC   C2B54080  29.424   0.012   6.693
 4196POPC   C3B54081  29.143   0.017   7.073
 4196POPC   C4B54082  29.089   0.042   7.554
 4197POPC   NC354083   8.113  16.927   5.051
 4197POPC   PO454084   8.287  16.455   5.510
 4197POPC   GL154085   8.200  16.712   5.850
 4197POPC   GL254086   8.376  17.061   5.856
 4197POPC   C1A54087   7.961  16.689   6.226
 4197POPC   D2A54088   8.151  16.608   6.641
 4197POPC   C3A54089   7.976  16.820   6.972
 4197POPC   C4A54090   7.843  16.677   7.346
 4197POPC   C1B54091   8.400  16.919   6.274
 4197POPC   C2B54092   8.617  16.799   6.615
 4197POPC   C3B54093   8.506  16.913   6.997
 4197POPC   C4B54094   8.332  16.929   7.361
 4198POPC   NC354095  11.856  15.296   5.044
 4198POPC   PO454096  11.275  15.373   5.534
 4198POPC   GL154097  11.344  14.993   5.828
 4198POPC   GL254098  11.286  15.233   6.047
 4198POPC   C1A54099  11.537  14.867   6.254
 4198POPC   D2A54100  11.431  15.158   6.609
 4198POPC   C3A54101  11.423  14.999   7.036
 4198POPC   C4A54102  11.493  15.189   7.454
 4198POPC   C1B54103  11.278  15.577   6.315
 4198POPC   C2B54104  11.297  15.703   6.724
 4198POPC   C3B54105  11.315  15.524   7.105
 4198POPC   C4B54106  11.141  15.614   7.505
 4199POPC   NC354107  29.235  12.354   5.470
 4199POPC   PO454108  29.416  11.690   5.617
 4199POPC   GL154109  29.165  11.999   5.941
 4199POPC   GL254110  28.922  12.281   5.878
 4199POPC   C1A54111  29.159  12.179   6.369
 4199POPC   D2A54112  29.401  12.300   6.729
 4199POPC   C3A54113  29.191  12.180   7.113
 4199POPC   C4A54114  29.067  12.035   7.521
 4199POPC   C1B54115  28.720  12.398   6.296
 4199POPC   C2B54116  28.742  12.391   6.830
 4199POPC   C3B54117  28.775  12.411   7.313
 4199POPC   C4B54118  28.775  12.363   7.797
 4200POPC   NC354119  30.646  44.724   5.231
 4200POPC   PO454120  31.272  44.535   5.189
 4200POPC   GL154121  31.033  44.605   5.607
 4200POPC   GL254122  30.723  44.784   5.717
 4200POPC   C1A54123  30.934  44.479   6.069
 4200POPC   D2A54124  30.831  44.634   6.493
 4200POPC   C3A54125  30.891  44.470   6.923
 4200POPC   C4A54126  30.600  44.266   7.196
 4200POPC   C1B54127  30.851   0.007   6.072
 4200POPC   C2B54128  30.772   0.137   6.489
 4200POPC   C3B54129  30.618  44.939   6.878
 4200POPC   C4B54130  30.771   0.030   7.292
 4201POPC   NC354131  16.348  39.450   5.463
 4201POPC   PO454132  15.728  39.209   5.461
 4201POPC   GL154133  15.749  39.386   5.862
 4201POPC   GL254134  16.113  39.385   5.902
 4201POPC   C1A54135  15.629  39.326   6.290
 4201POPC   D2A54136  15.785  39.234   6.685
 4201POPC   C3A54137  15.654  39.419   7.038
 4201POPC   C4A54138  15.629  39.044   7.248
 4201POPC   C1B54139  16.147  39.182   6.287
 4201POPC   C2B54140  16.295  39.152   6.702
 4201POPC   C3B54141  16.107  39.154   7.095
 4201POPC   C4B54142  16.426  39.081   7.321
 4202POPC   NC354143  31.510  44.921   5.064
 4202POPC   PO454144  31.478   0.608   5.166
 4202POPC   GL154145  31.401   0.573   5.705
 4202POPC   GL254146  31.076   0.363   5.788
 4202POPC   C1A54147  31.464   0.342   6.136
 4202POPC   D2A54148  31.650   0.211   6.552
 4202POPC   C3A54149  31.557   0.393   6.985
 4202POPC   C4A54150  31.580   0.233   7.437
 4202POPC   C1B54151  30.979   0.518   6.171
 4202POPC   C2B54152  31.179   0.443   6.566
 4202POPC   C3B54153  31.089   0.209   6.925
 4202POPC   C4B54154  31.141   0.405   7.325
 4203POPC   NC354155  26.249  40.602   5.469
 4203POPC   PO454156  25.631  40.791   5.617
 4203POPC   GL154157  26.006  40.879   5.854
 4203POPC   GL254158  26.361  41.021   5.767
 4203POPC   C1A54159  25.908  40.710   6.255
 4203POPC   D2A54160  25.786  40.537   6.654
 4203POPC   C3A54161  25.841  40.761   7.004
 4203POPC   C4A54162  26.133  40.540   7.253
 4203POPC   C1B54163  26.406  40.784   6.178
 4203POPC   C2B54164  26.256  40.785   6.621
 4203POPC   C3B54165  26.328  40.933   7.024
 4203POPC   C4B54166  26.058  41.102   7.311
 4204POPC   NC354167  23.847  30.332   5.273
 4204POPC   PO454168  23.295  30.605   5.499
 4204POPC   GL154169  23.657  30.721   5.776
 4204POPC   GL254170  23.947  30.484   5.811
 4204POPC   C1A54171  23.772  30.891   6.192
 4204POPC   D2A54172  23.658  30.710   6.596
 4204POPC   C3A54173  23.614  30.905   7.018
 4204POPC   C4A54174  23.964  30.829   7.345
 4204POPC   C1B54175  23.719  30.358   6.209
 4204POPC   C2B54176  23.728  30.199   6.673
 4204POPC   C3B54177  23.845  30.459   6.996
 4204POPC   C4B54178  23.587  30.460   7.356
 4205POPC   NC354179  28.540  10.878   5.298
 4205POPC   PO454180  28.197  11.525   5.271
 4205POPC   GL154181  28.286  11.486   5.707
 4205POPC   GL254182  28.066  11.769   5.771
 4205POPC   C1A54183  28.511  11.387   6.127
 4205POPC   D2A54184  28.390  11.233   6.551
 4205POPC   C3A54185  28.511  11.459   6.932
 4205POPC   C4A54186  28.471  11.186   7.243
 4205POPC   C1B54187  28.128  11.702   6.185
 4205POPC   C2B54188  28.321  11.742   6.527
 4205POPC   C3B54189  28.051  11.659   6.861
 4205POPC   C4B54190  28.119  11.562   7.285
 4206POPC   NC354191  41.914  18.949   5.419
 4206POPC   PO454192  42.373  19.418   5.220
 4206POPC   GL154193  42.311  19.173   5.642
 4206POPC   GL254194  42.442  18.841   5.686
 4206POPC   C1A54195  42.139  19.002   6.069
 4206POPC   D2A54196  42.000  18.929   6.514
 4206POPC   C3A54197  42.097  19.229   6.853
 4206POPC   C4A54198  42.183  19.223   7.303
 4206POPC   C1B54199  42.657  18.922   6.057
 4206POPC   C2B54200  42.512  18.929   6.497
 4206POPC   C3B54201  42.411  18.833   6.942
 4206POPC   C4B54202  42.700  19.025   7.227
 4207POPC   NC354203  31.231  40.968   5.488
 4207POPC   PO454204  31.964  40.836   5.564
 4207POPC   GL154205  31.592  40.939   5.869
 4207POPC   GL254206  31.432  40.622   5.884
 4207POPC   C1A54207  31.270  40.924   6.235
 4207POPC   D2A54208  31.288  40.718   6.650
 4207POPC   C3A54209  31.434  40.932   7.010
 4207POPC   C4A54210  31.705  41.117   7.280
 4207POPC   C1B54211  31.769  40.537   6.181
 4207POPC   C2B54212  31.918  40.397   6.594
 4207POPC   C3B54213  31.672  40.477   6.948
 4207POPC   C4B54214  31.529  40.504   7.374
 4208POPC   NC354215   5.232  14.389   5.401
 4208POPC   PO454216   4.589  14.207   5.449
 4208POPC   GL154217   4.872  14.276   5.769
 4208POPC   GL254218   4.951  14.579   5.794
 4208POPC   C1A54219   5.077  14.263   6.193
 4208POPC   D2A54220   4.901  14.464   6.550
 4208POPC   C3A54221   5.109  14.438   6.931
 4208POPC   C4A54222   4.887  14.413   7.323
 4208POPC   C1B54223   5.230  14.751   6.119
 4208POPC   C2B54224   5.381  14.657   6.528
 4208POPC   C3B54225   5.456  14.833   6.927
 4208POPC   C4B54226   5.294  14.713   7.314
 4209POPC   NC354227  11.882   2.202   5.366
 4209POPC   PO454228  11.826   1.474   5.453
 4209POPC   GL154229  11.809   1.864   5.736
 4209POPC   GL254230  12.166   1.992   5.759
 4209POPC   C1A54231  11.841   2.079   6.127
 4209POPC   D2A54232  11.766   1.957   6.529
 4209POPC   C3A54233  12.067   1.932   6.823
 4209POPC   C4A54234  11.927   1.973   7.240
 4209POPC   C1B54235  12.315   2.272   6.127
 4209POPC   C2B54236  12.316   2.340   6.591
 4209POPC   C3B54237  12.193   2.369   7.043
 4209POPC   C4B54238  12.092   2.492   7.462
 4210POPC   NC354239  27.870  18.886   5.442
 4210POPC   PO454240  27.164  18.857   5.441
 4210POPC   GL154241  27.385  19.015   5.800
 4210POPC   GL254242  27.743  19.128   5.892
 4210POPC   C1A54243  27.293  19.014   6.237
 4210POPC   D2A54244  27.575  19.023   6.587
 4210POPC   C3A54245  27.373  19.124   6.977
 4210POPC   C4A54246  27.060  18.988   7.227
 4210POPC   C1B54247  28.045  18.975   6.236
 4210POPC   C2B54248  28.064  18.905   6.677
 4210POPC   C3B54249  28.157  18.788   7.076
 4210POPC   C4B54250  27.991  19.097   7.339
 4211POPC   NC354251   7.151  36.461   5.513
 4211POPC   PO454252   7.416  35.855   5.516
 4211POPC   GL154253   7.503  36.063   5.890
 4211POPC   GL254254   7.758  36.317   5.907
 4211POPC   C1A54255   7.455  35.883   6.289
 4211POPC   D2A54256   7.394  35.699   6.670
 4211POPC   C3A54257   7.122  35.920   6.920
 4211POPC   C4A54258   7.145  36.151   7.264
 4211POPC   C1B54259   7.752  36.303   6.378
 4211POPC   C2B54260   7.544  36.213   6.750
 4211POPC   C3B54261   7.649  36.150   7.155
 4211POPC   C4B54262   7.541  36.364   7.544
 4212POPC   NC354263  33.200  24.101   5.455
 4212POPC   PO454264  32.690  23.640   5.572
 4212POPC   GL154265  33.012  23.743   5.915
 4212POPC   GL254266  33.271  23.497   5.986
 4212POPC   C1A54267  33.076  23.725   6.387
 4212POPC   D2A54268  32.897  23.775   6.802
 4212POPC   C3A54269  33.145  24.015   7.092
 4212POPC   C4A54270  33.063  24.002   7.547
 4212POPC   C1B54271  33.304  23.217   6.326
 4212POPC   C2B54272  33.260  23.358   6.748
 4212POPC   C3B54273  33.220  23.527   7.172
 4212POPC   C4B54274  33.105  23.491   7.620
 4213POPC   NC354275  33.907  24.359   5.435
 4213POPC   PO454276  33.452  24.702   5.669
 4213POPC   GL154277  33.722  24.481   5.890
 4213POPC   GL254278  33.495  24.186   5.873
 4213POPC   C1A54279  33.816  24.620   6.274
 4213POPC   D2A54280  33.677  24.480   6.680
 4213POPC   C3A54281  33.677  24.603   7.112
 4213POPC   C4A54282  33.478  24.310   7.396
 4213POPC   C1B54283  33.736  24.121   6.269
 4213POPC   C2B54284  33.970  24.059   6.674
 4213POPC   C3B54285  33.862  24.097   7.132
 4213POPC   C4B54286  33.948  24.068   7.620
 4214POPC   NC354287  13.891  13.546   5.527
 4214POPC   PO454288  13.282  13.971   5.423
 4214POPC   GL154289  13.511  13.769   5.812
 4214POPC   GL254290  13.576  13.394   5.904
 4214POPC   C1A54291  13.724  13.827   6.228
 4214POPC   D2A54292  13.776  13.995   6.673
 4214POPC   C3A54293  13.399  14.000   6.932
 4214POPC   C4A54294  13.321  13.791   7.316
 4214POPC   C1B54295  13.973  13.290   6.154
 4214POPC   C2B54296  14.194  13.289   6.566
 4214POPC   C3B54297  13.918  13.458   6.882
 4214POPC   C4B54298  13.824  13.778   7.171
 4215POPC   NC354299  26.815  38.166   5.548
 4215POPC   PO454300  26.997  38.913   5.509
 4215POPC   GL154301  26.889  38.607   5.801
 4215POPC   GL254302  26.541  38.476   5.821
 4215POPC   C1A54303  26.847  38.560   6.222
 4215POPC   D2A54304  27.112  38.570   6.554
 4215POPC   C3A54305  26.922  38.786   6.871
 4215POPC   C4A54306  26.661  38.756   7.253
 4215POPC   C1B54307  26.512  38.193   6.212
 4215POPC   C2B54308  26.680  38.275   6.630
 4215POPC   C3B54309  26.790  38.288   7.055
 4215POPC   C4B54310  26.619  38.268   7.461
 4216POPC   NC354311  26.310  21.727   5.158
 4216POPC   PO454312  25.804  21.631   5.617
 4216POPC   GL154313  25.888  21.395   5.978
 4216POPC   GL254314  26.138  21.168   6.007
 4216POPC   C1A54315  26.143  21.606   6.339
 4216POPC   D2A54316  26.339  21.730   6.725
 4216POPC   C3A54317  26.138  21.618   7.117
 4216POPC   C4A54318  26.337  21.631   7.530
 4216POPC   C1B54319  25.976  21.148   6.423
 4216POPC   C2B54320  25.919  21.158   6.837
 4216POPC   C3B54321  26.129  20.939   7.114
 4216POPC   C4B54322  26.208  21.141   7.469
 4217POPC   NC354323  24.190  32.783   5.549
 4217POPC   PO454324  24.675  33.216   5.465
 4217POPC   GL154325  24.489  33.077   5.841
 4217POPC   GL254326  24.645  32.752   5.804
 4217POPC   C1A54327  24.662  33.006   6.249
 4217POPC   D2A54328  24.692  32.840   6.669
 4217POPC   C3A54329  24.576  33.161   6.960
 4217POPC   C4A54330  24.648  33.198   7.422
 4217POPC   C1B54331  24.379  32.588   6.141
 4217POPC   C2B54332  24.163  32.785   6.471
 4217POPC   C3B54333  24.239  32.681   6.881
 4217POPC   C4B54334  24.117  32.571   7.281
 4218POPC   NC354335   4.947  12.841   5.446
 4218POPC   PO454336   5.513  13.207   5.576
 4218POPC   GL154337   5.262  12.897   5.868
 4218POPC   GL254338   5.452  12.561   5.876
 4218POPC   C1A54339   4.948  12.888   6.270
 4218POPC   D2A54340   4.897  13.051   6.711
 4218POPC   C3A54341   5.140  12.962   7.049
 4218POPC   C4A54342   5.086  12.955   7.474
 4218POPC   C1B54343   5.256  12.486   6.269
 4218POPC   C2B54344   5.108  12.578   6.665
 4218POPC   C3B54345   4.814  12.584   6.974
 4218POPC   C4B54346   4.951  12.493   7.356
 4219POPC   NC354347  10.953  15.464   5.185
 4219POPC   PO454348  10.484  14.889   5.159
 4219POPC   GL154349  10.546  14.871   5.635
 4219POPC   GL254350  10.850  15.081   5.691
 4219POPC   C1A54351  10.463  14.974   6.110
 4219POPC   D2A54352  10.437  15.179   6.559
 4219POPC   C3A54353  10.459  15.135   7.033
 4219POPC   C4A54354  10.162  15.418   7.277
 4219POPC   C1B54355  10.807  15.348   6.073
 4219POPC   C2B54356  10.939  15.220   6.473
 4219POPC   C3B54357  10.897  15.366   6.877
 4219POPC   C4B54358  10.993  15.167   7.261
 4220POPC   NC354359   8.522  17.965   5.566
 4220POPC   PO454360   8.010  18.375   5.375
 4220POPC   GL154361   8.157  18.326   5.752
 4220POPC   GL254362   8.061  18.016   5.842
 4220POPC   C1A54363   8.160  18.414   6.179
 4220POPC   D2A54364   8.388  18.304   6.576
 4220POPC   C3A54365   8.169  18.299   6.980
 4220POPC   C4A54366   7.906  18.592   7.229
 4220POPC   C1B54367   8.293  17.928   6.240
 4220POPC   C2B54368   8.192  17.813   6.685
 4220POPC   C3B54369   8.266  17.815   7.153
 4220POPC   C4B54370   8.228  17.927   7.595
 4221POPC   NC354371  10.358  40.283   5.402
 4221POPC   PO454372  10.744  39.789   5.437
 4221POPC   GL154373  10.518  39.948   5.778
 4221POPC   GL254374  10.714  40.257   5.815
 4221POPC   C1A54375  10.320  39.759   6.152
 4221POPC   D2A54376  10.482  39.834   6.563
 4221POPC   C3A54377  10.305  39.771   6.962
 4221POPC   C4A54378  10.560  39.942   7.303
 4221POPC   C1B54379  10.498  40.262   6.204
 4221POPC   C2B54380  10.219  40.270   6.556
 4221POPC   C3B54381  10.394  40.277   6.936
 4221POPC   C4B54382  10.701  40.472   7.172
 4222POPC   NC354383   4.837  41.049   5.606
 4222POPC   PO454384   5.226  40.465   5.700
 4222POPC   GL154385   5.014  40.736   5.991
 4222POPC   GL254386   5.210  41.034   5.952
 4222POPC   C1A54387   5.041  40.739   6.447
 4222POPC   D2A54388   5.238  40.526   6.822
 4222POPC   C3A54389   5.033  40.507   7.232
 4222POPC   C4A54390   4.853  40.814   7.512
 4222POPC   C1B54391   5.181  41.223   6.344
 4222POPC   C2B54392   5.271  41.091   6.768
 4222POPC   C3B54393   4.993  41.154   7.120
 4222POPC   C4B54394   4.938  41.539   7.356
 4223POPC   NC354395  31.273  28.900   5.177
 4223POPC   PO454396  31.514  29.433   5.424
 4223POPC   GL154397  31.375  29.397   5.841
 4223POPC   GL254398  31.152  29.105   5.859
 4223POPC   C1A54399  31.547  29.357   6.264
 4223POPC   D2A54400  31.581  29.066   6.619
 4223POPC   C3A54401  31.504  29.218   7.041
 4223POPC   C4A54402  31.717  29.533   7.269
 4223POPC   C1B54403  31.148  28.922   6.271
 4223POPC   C2B54404  31.168  28.791   6.703
 4223POPC   C3B54405  31.053  28.961   7.081
 4223POPC   C4B54406  31.184  28.897   7.477
 4224POPC   NC354407  26.353   7.307   5.454
 4224POPC   PO454408  26.995   7.402   5.432
 4224POPC   GL154409  26.783   7.309   5.817
 4224POPC   GL254410  26.665   7.585   5.972
 4224POPC   C1A54411  26.809   7.202   6.278
 4224POPC   D2A54412  26.653   7.275   6.703
 4224POPC   C3A54413  26.815   7.155   7.105
 4224POPC   C4A54414  26.697   7.223   7.557
 4224POPC   C1B54415  27.012   7.676   6.241
 4224POPC   C2B54416  27.130   7.587   6.649
 4224POPC   C3B54417  26.779   7.749   6.878
 4224POPC   C4B54418  26.681   7.664   7.268
 4225POPC   NC354419  36.265  27.208   5.602
 4225POPC   PO454420  35.947  26.612   5.489
 4225POPC   GL154421  36.015  26.765   5.859
 4225POPC   GL254422  36.335  26.663   5.875
 4225POPC   C1A54423  36.103  26.993   6.217
 4225POPC   D2A54424  36.055  27.155   6.574
 4225POPC   C3A54425  36.021  26.896   6.895
 4225POPC   C4A54426  36.156  27.188   7.178
 4225POPC   C1B54427  36.536  26.732   6.261
 4225POPC   C2B54428  36.521  26.912   6.645
 4225POPC   C3B54429  36.507  26.824   7.060
 4225POPC   C4B54430  36.480  26.928   7.475
 4226POPC   NC354431  36.014  13.748   5.332
 4226POPC   PO454432  36.097  13.167   5.667
 4226POPC   GL154433  36.075  13.597   5.836
 4226POPC   GL254434  35.891  13.534   6.142
 4226POPC   C1A54435  36.126  13.976   6.124
 4226POPC   D2A54436  35.956  13.951   6.542
 4226POPC   C3A54437  36.153  14.014   6.937
 4226POPC   C4A54438  36.010  13.672   7.177
 4226POPC   C1B54439  36.296  13.582   6.403
 4226POPC   C2B54440  36.420  13.593   6.859
 4226POPC   C3B54441  36.399  13.379   7.303
 4226POPC   C4B54442  36.343  13.256   7.768
 4227POPC   NC354443  28.976  29.185   5.134
 4227POPC   PO454444  29.349  28.868   5.526
 4227POPC   GL154445  29.240  29.041   5.954
 4227POPC   GL254446  29.605  29.090   6.006
 4227POPC   C1A54447  28.962  29.344   6.242
 4227POPC   D2A54448  28.792  29.549   6.660
 4227POPC   C3A54449  28.893  29.289   7.032
 4227POPC   C4A54450  28.914  29.087   7.471
 4227POPC   C1B54451  29.468  29.470   6.247
 4227POPC   C2B54452  29.292  29.421   6.666
 4227POPC   C3B54453  29.422  29.313   7.079
 4227POPC   C4B54454  29.487  29.019   7.404
 4228POPC   NC354455   4.097  31.047   5.188
 4228POPC   PO454456   4.330  30.411   5.389
 4228POPC   GL154457   4.219  30.656   5.764
 4228POPC   GL254458   4.058  30.995   5.713
 4228POPC   C1A54459   4.129  30.771   6.194
 4228POPC   D2A54460   4.289  30.631   6.590
 4228POPC   C3A54461   4.140  30.849   6.932
 4228POPC   C4A54462   4.085  30.564   7.243
 4228POPC   C1B54463   4.457  31.099   5.975
 4228POPC   C2B54464   4.493  31.108   6.464
 4228POPC   C3B54465   4.592  31.180   6.907
 4228POPC   C4B54466   4.433  31.069   7.326
 4229POPC   NC354467  28.809  43.804   5.471
 4229POPC   PO454468  29.425  44.157   5.484
 4229POPC   GL154469  29.268  43.897   5.886
 4229POPC   GL254470  28.924  43.737   5.955
 4229POPC   C1A54471  29.089  44.057   6.323
 4229POPC   D2A54472  28.964  44.165   6.760
 4229POPC   C3A54473  29.296  44.031   7.046
 4229POPC   C4A54474  29.617  43.755   7.148
 4229POPC   C1B54475  29.039  43.547   6.333
 4229POPC   C2B54476  29.186  43.617   6.727
 4229POPC   C3B54477  29.018  43.612   7.102
 4229POPC   C4B54478  28.805  43.941   7.256
 4230POPC   NC354479  10.430  21.741   5.351
 4230POPC   PO454480  10.494  22.417   5.416
 4230POPC   GL154481  10.400  22.090   5.736
 4230POPC   GL254482  10.067  21.889   5.703
 4230POPC   C1A54483  10.623  22.023   6.132
 4230POPC   D2A54484  10.593  21.779   6.498
 4230POPC   C3A54485  10.643  22.075   6.803
 4230POPC   C4A54486  10.696  22.086   7.217
 4230POPC   C1B54487  10.115  21.909   6.171
 4230POPC   C2B54488  10.178  22.111   6.591
 4230POPC   C3B54489  10.207  22.168   7.052
 4230POPC   C4B54490  10.286  22.295   7.519
 4231POPC   NC354491  34.427   7.254   5.492
 4231POPC   PO454492  34.418   7.960   5.348
 4231POPC   GL154493  34.355   7.798   5.814
 4231POPC   GL254494  34.690   7.679   6.030
 4231POPC   C1A54495  34.170   7.540   6.169
 4231POPC   D2A54496  34.221   7.213   6.512
 4231POPC   C3A54497  34.258   7.385   6.943
 4231POPC   C4A54498  34.605   7.400   7.216
 4231POPC   C1B54499  34.973   7.503   6.390
 4231POPC   C2B54500  34.941   7.304   6.842
 4231POPC   C3B54501  34.978   7.033   7.261
 4231POPC   C4B54502  35.170   6.935   7.741
 4232POPC   NC354503  35.693   3.255   5.426
 4232POPC   PO454504  35.210   3.697   5.502
 4232POPC   GL154505  35.201   3.714   5.900
 4232POPC   GL254506  35.286   3.340   5.867
 4232POPC   C1A54507  35.147   3.619   6.318
 4232POPC   D2A54508  35.355   3.479   6.667
 4232POPC   C3A54509  35.195   3.591   7.084
 4232POPC   C4A54510  35.360   3.688   7.499
 4232POPC   C1B54511  35.351   3.053   6.207
 4232POPC   C2B54512  35.217   2.965   6.625
 4232POPC   C3B54513  35.371   3.117   7.046
 4232POPC   C4B54514  35.226   3.208   7.467
 4233POPC   NC354515   4.776  23.154   5.617
 4233POPC   PO454516   5.059  23.674   5.330
 4233POPC   GL154517   5.162  23.761   5.787
 4233POPC   GL254518   4.917  23.542   5.913
 4233POPC   C1A54519   5.122  23.881   6.251
 4233POPC   D2A54520   5.228  24.173   6.570
 4233POPC   C3A54521   5.092  24.099   6.962
 4233POPC   C4A54522   4.671  24.001   7.081
 4233POPC   C1B54523   4.780  23.484   6.335
 4233POPC   C2B54524   4.847  23.675   6.728
 4233POPC   C3B54525   5.097  23.626   7.089
 4233POPC   C4B54526   5.558  23.573   7.209
 4234POPC   NC354527  16.084  31.631   5.404
 4234POPC   PO454528  15.591  31.205   5.705
 4234POPC   GL154529  15.855  31.495   5.912
 4234POPC   GL254530  15.575  31.607   6.066
 4234POPC   C1A54531  16.033  31.508   6.332
 4234POPC   D2A54532  16.087  31.763   6.684
 4234POPC   C3A54533  15.869  31.560   7.014
 4234POPC   C4A54534  16.037  31.188   7.192
 4234POPC   C1B54535  15.608  31.226   6.356
 4234POPC   C2B54536  15.720  31.126   6.775
 4234POPC   C3B54537  15.534  31.169   7.183
 4234POPC   C4B54538  15.679  31.119   7.643
 4235POPC   NC354539   9.575  13.746   5.461
 4235POPC   PO454540   9.942  13.250   5.326
 4235POPC   GL154541   9.633  13.365   5.756
 4235POPC   GL254542   9.750  13.708   5.932
 4235POPC   C1A54543   9.550  13.322   6.218
 4235POPC   D2A54544   9.716  13.335   6.650
 4235POPC   C3A54545   9.866  13.624   6.982
 4235POPC   C4A54546   9.952  13.616   7.412
 4235POPC   C1B54547   9.666  13.987   6.290
 4235POPC   C2B54548   9.711  14.057   6.724
 4235POPC   C3B54549   9.714  14.131   7.156
 4235POPC   C4B54550   9.490  14.204   7.568
 4236POPC   NC354551   7.708   3.036   5.633
 4236POPC   PO454552   7.757   2.468   5.287
 4236POPC   GL154553   8.039   2.621   5.645
 4236POPC   GL254554   8.290   2.898   5.786
 4236POPC   C1A54555   8.061   2.588   6.094
 4236POPC   D2A54556   8.001   2.703   6.515
 4236POPC   C3A54557   8.155   2.425   6.831
 4236POPC   C4A54558   8.230   2.449   7.293
 4236POPC   C1B54559   8.083   3.096   6.157
 4236POPC   C2B54560   8.104   3.211   6.576
 4236POPC   C3B54561   8.102   2.970   6.966
 4236POPC   C4B54562   7.961   2.916   7.400
 4237POPC   NC354563  19.347   5.059   5.561
 4237POPC   PO454564  18.724   4.758   5.461
 4237POPC   GL154565  18.943   4.939   5.843
 4237POPC   GL254566  19.278   4.833   6.010
 4237POPC   C1A54567  18.897   5.069   6.294
 4237POPC   D2A54568  18.847   4.963   6.744
 4237POPC   C3A54569  19.005   5.216   7.117
 4237POPC   C4A54570  18.881   5.170   7.581
 4237POPC   C1B54571  19.518   5.028   6.299
 4237POPC   C2B54572  19.314   5.227   6.658
 4237POPC   C3B54573  19.478   5.384   7.033
 4237POPC   C4B54574  19.360   5.303   7.470
 4238POPC   NC354575  36.253   7.189   5.408
 4238POPC   PO454576  35.820   7.650   5.229
 4238POPC   GL154577  35.914   7.589   5.707
 4238POPC   GL254578  36.259   7.488   5.841
 4238POPC   C1A54579  35.887   7.341   6.136
 4238POPC   D2A54580  35.931   7.488   6.571
 4238POPC   C3A54581  35.957   7.287   6.996
 4238POPC   C4A54582  35.932   7.407   7.459
 4238POPC   C1B54583  36.391   7.494   6.307
 4238POPC   C2B54584  36.418   7.498   6.787
 4238POPC   C3B54585  36.380   7.551   7.256
 4238POPC   C4B54586  36.452   7.399   7.707
 4239POPC   NC354587   1.554  27.934   5.553
 4239POPC   PO454588   1.062  27.400   5.433
 4239POPC   GL154589   1.085  27.451   5.850
 4239POPC   GL254590   1.419  27.547   5.858
 4239POPC   C1A54591   1.116  27.643   6.252
 4239POPC   D2A54592   0.967  27.711   6.645
 4239POPC   C3A54593   1.070  27.367   6.868
 4239POPC   C4A54594   1.216  27.486   7.260
 4239POPC   C1B54595   1.632  27.664   6.237
 4239POPC   C2B54596   1.501  27.551   6.649
 4239POPC   C3B54597   1.617  27.745   7.033
 4239POPC   C4B54598   1.487  27.886   7.452
 4240POPC   NC354599  26.816  16.608   5.410
 4240POPC   PO454600  27.295  16.143   5.554
 4240POPC   GL154601  27.087  16.514   5.860
 4240POPC   GL254602  26.703  16.589   5.925
 4240POPC   C1A54603  26.979  16.673   6.330
 4240POPC   D2A54604  26.824  16.539   6.735
 4240POPC   C3A54605  27.003  16.616   7.139
 4240POPC   C4A54606  26.942  16.860   7.512
 4240POPC   C1B54607  26.583  16.977   6.250
 4240POPC   C2B54608  26.625  17.178   6.680
 4240POPC   C3B54609  26.609  16.925   7.069
 4240POPC   C4B54610  26.476  16.525   7.197
 4241POPC   NC354611  28.114  36.436   5.112
 4241POPC   PO454612  28.396  36.935   5.463
 4241POPC   GL154613  28.347  36.734   5.839
 4241POPC   GL254614  28.188  37.012   5.988
 4241POPC   C1A54615  28.521  36.612   6.243
 4241POPC   D2A54616  28.512  36.868   6.621
 4241POPC   C3A54617  28.500  36.795   7.065
 4241POPC   C4A54618  28.656  37.184   7.220
 4241POPC   C1B54619  27.999  36.648   6.240
 4241POPC   C2B54620  28.119  36.551   6.682
 4241POPC   C3B54621  28.047  36.958   6.901
 4241POPC   C4B54622  28.145  37.209   7.285
 4242POPC   NC354623   6.958   3.425   5.425
 4242POPC   PO454624   7.638   3.424   5.366
 4242POPC   GL154625   7.384   3.522   5.739
 4242POPC   GL254626   7.686   3.581   5.881
 4242POPC   C1A54627   7.287   3.738   6.151
 4242POPC   D2A54628   7.148   3.549   6.517
 4242POPC   C3A54629   7.296   3.546   6.931
 4242POPC   C4A54630   7.299   3.623   7.359
 4242POPC   C1B54631   7.652   3.385   6.294
 4242POPC   C2B54632   7.748   3.547   6.703
 4242POPC   C3B54633   7.759   3.668   7.139
 4242POPC   C4B54634   7.684   3.855   7.589
 4243POPC   NC354635  43.274  24.287   5.475
 4243POPC   PO454636  43.593  24.948   5.475
 4243POPC   GL154637  43.305  24.721   5.801
 4243POPC   GL254638  42.963  24.530   5.804
 4243POPC   C1A54639  43.173  24.622   6.253
 4243POPC   D2A54640  43.136  24.296   6.581
 4243POPC   C3A54641  43.275  24.458   6.964
 4243POPC   C4A54642  43.138  24.717   7.253
 4243POPC   C1B54643  42.784  24.254   6.168
 4243POPC   C2B54644  42.672  24.070   6.594
 4243POPC   C3B54645  42.796  24.234   7.007
 4243POPC   C4B54646  43.022  24.258   7.396
 4244POPC   NC354647  42.760  34.021   5.469
 4244POPC   PO454648  43.256  33.669   5.307
 4244POPC   GL154649  43.079  33.696   5.749
 4244POPC   GL254650  42.869  33.967   5.958
 4244POPC   C1A54651  42.967  33.508   6.148
 4244POPC   D2A54652  43.212  33.603   6.518
 4244POPC   C3A54653  43.149  33.924   6.824
 4244POPC   C4A54654  43.079  33.714   7.217
 4244POPC   C1B54655  42.809  33.922   6.417
 4244POPC   C2B54656  42.713  33.651   6.812
 4244POPC   C3B54657  42.597  33.888   7.227
 4244POPC   C4B54658  42.875  34.000   7.601
 4245POPC   NC354659  14.873   8.417   5.333
 4245POPC   PO454660  15.405   8.105   5.316
 4245POPC   GL154661  15.172   7.998   5.683
 4245POPC   GL254662  15.487   7.874   5.856
 4245POPC   C1A54663  15.019   8.100   6.104
 4245POPC   D2A54664  14.984   8.006   6.545
 4245POPC   C3A54665  14.942   8.380   6.807
 4245POPC   C4A54666  15.038   8.284   7.176
 4245POPC   C1B54667  15.516   8.256   6.088
 4245POPC   C2B54668  15.342   8.373   6.475
 4245POPC   C3B54669  15.453   8.228   6.890
 4245POPC   C4B54670  15.519   8.399   7.316
 4246POPC   NC354671  36.423  21.307   5.463
 4246POPC   PO454672  35.690  21.178   5.489
 4246POPC   GL154673  35.772  21.300   5.881
 4246POPC   GL254674  36.087  21.490   5.812
 4246POPC   C1A54675  35.998  21.235   6.270
 4246POPC   D2A54676  36.302  21.224   6.602
 4246POPC   C3A54677  36.064  21.207   6.985
 4246POPC   C4A54678  35.862  21.153   7.386
 4246POPC   C1B54679  36.445  21.495   6.133
 4246POPC   C2B54680  36.491  21.694   6.556
 4246POPC   C3B54681  36.439  21.557   6.979
 4246POPC   C4B54682  36.197  21.531   7.365
 4247POPC   NC354683  25.794  39.715   5.400
 4247POPC   PO454684  26.259  40.167   5.293
 4247POPC   GL154685  26.258  40.123   5.754
 4247POPC   GL254686  26.154  39.765   5.834
 4247POPC   C1A54687  26.103  40.202   6.175
 4247POPC   D2A54688  25.924  40.049   6.573
 4247POPC   C3A54689  26.253  39.905   6.830
 4247POPC   C4A54690  26.517  40.236   7.051
 4247POPC   C1B54691  25.838  39.700   6.184
 4247POPC   C2B54692  25.624  39.651   6.609
 4247POPC   C3B54693  25.829  39.686   7.034
 4247POPC   C4B54694  26.061  40.019   7.278
 4248POPC   NC354695  36.011   0.286   5.368
 4248POPC   PO454696  36.611   0.197   5.727
 4248POPC   GL154697  36.201   0.207   5.897
 4248POPC   GL254698  36.056   0.508   5.830
 4248POPC   C1A54699  36.140   0.139   6.340
 4248POPC   D2A54700  36.471   0.354   6.604
 4248POPC   C3A54701  36.359   0.386   7.022
 4248POPC   C4A54702  35.956   0.259   7.192
 4248POPC   C1B54703  36.193   0.632   6.250
 4248POPC   C2B54704  36.053   0.641   6.697
 4248POPC   C3B54705  36.062   0.776   7.112
 4248POPC   C4B54706  36.023   0.648   7.533
 4249POPC   NC354707  23.813  29.836   4.936
 4249POPC   PO454708  24.107  30.059   5.554
 4249POPC   GL154709  23.882  29.922   5.896
 4249POPC   GL254710  23.533  29.763   5.832
 4249POPC   C1A54711  23.899  29.897   6.327
 4249POPC   D2A54712  23.644  29.675   6.631
 4249POPC   C3A54713  23.682  29.799   7.065
 4249POPC   C4A54714  23.933  30.074   7.282
 4249POPC   C1B54715  23.359  29.974   6.223
 4249POPC   C2B54716  23.265  30.326   6.525
 4249POPC   C3B54717  23.319  30.260   6.967
 4249POPC   C4B54718  23.257  30.009   7.337
 4250POPC   NC354719  44.376   2.150   5.146
 4250POPC   PO454720  44.968   1.944   5.336
 4250POPC   GL154721  44.607   1.921   5.678
 4250POPC   GL254722  44.384   2.219   5.777
 4250POPC   C1A54723  44.694   1.999   6.154
 4250POPC   D2A54724  44.893   1.769   6.540
 4250POPC   C3A54725  44.731   1.884   6.962
 4250POPC   C4A54726  44.899   2.172   7.253
 4250POPC   C1B54727  44.271   2.268   6.263
 4250POPC   C2B54728  44.295   2.184   6.729
 4250POPC   C3B54729  44.341   2.192   7.174
 4250POPC   C4B54730  44.526   2.175   7.609
 4251POPC   NC354731  32.188  32.090   5.376
 4251POPC   PO454732  32.698  32.524   5.522
 4251POPC   GL154733  32.339  32.422   5.787
 4251POPC   GL254734  31.955  32.359   5.737
 4251POPC   C1A54735  32.419  32.335   6.198
 4251POPC   D2A54736  32.377  32.452   6.608
 4251POPC   C3A54737  32.539  32.175   6.938
 4251POPC   C4A54738  32.414  32.327   7.313
 4251POPC   C1B54739  31.913  32.271   6.182
 4251POPC   C2B54740  31.861  32.462   6.589
 4251POPC   C3B54741  31.997  32.289   6.982
 4251POPC   C4B54742  31.908  32.029   7.347
 4252POPC   NC354743  43.439  22.362   5.590
 4252POPC   PO454744  42.903  22.014   5.396
 4252POPC   GL154745  43.103  21.987   5.788
 4252POPC   GL254746  42.904  21.711   5.879
 4252POPC   C1A54747  43.092  22.159   6.192
 4252POPC   D2A54748  43.321  22.218   6.526
 4252POPC   C3A54749  43.101  22.310   6.913
 4252POPC   C4A54750  43.348  22.429   7.263
 4252POPC   C1B54751  43.110  21.655   6.261
 4252POPC   C2B54752  43.354  21.660   6.641
 4252POPC   C3B54753  43.184  21.677   7.034
 4252POPC   C4B54754  43.008  21.981   7.302
 4253POPC   NC354755  36.069  14.650   5.352
 4253POPC   PO454756  36.427  14.046   5.323
 4253POPC   GL154757  36.396  14.206   5.738
 4253POPC   GL254758  36.046  14.307   5.724
 4253POPC   C1A54759  36.384  14.414   6.155
 4253POPC   D2A54760  36.454  14.703   6.455
 4253POPC   C3A54761  36.366  14.516   6.800
 4253POPC   C4A54762  36.337  14.505   7.192
 4253POPC   C1B54763  35.907  14.560   6.073
 4253POPC   C2B54764  35.966  14.444   6.501
 4253POPC   C3B54765  35.875  14.441   6.960
 4253POPC   C4B54766  35.704  14.066   7.159
 4254POPC   NC354767  14.503  37.434   5.355
 4254POPC   PO454768  15.219  37.610   5.379
 4254POPC   GL154769  15.171  37.519   5.784
 4254POPC   GL254770  14.810  37.566   5.756
 4254POPC   C1A54771  15.296  37.532   6.222
 4254POPC   D2A54772  15.526  37.656   6.605
 4254POPC   C3A54773  15.264  37.490   6.928
 4254POPC   C4A54774  15.326  37.347   7.329
 4254POPC   C1B54775  14.961  37.903   6.054
 4254POPC   C2B54776  15.003  37.878   6.511
 4254POPC   C3B54777  15.162  37.986   6.899
 4254POPC   C4B54778  15.043  37.786   7.291
 4255POPC   NC354779  27.868  14.829   5.483
 4255POPC   PO454780  27.332  15.281   5.516
 4255POPC   GL154781  27.535  15.106   5.851
 4255POPC   GL254782  27.756  15.376   5.971
 4255POPC   C1A54783  27.442  15.108   6.302
 4255POPC   D2A54784  27.715  15.368   6.574
 4255POPC   C3A54785  27.646  15.323   7.040
 4255POPC   C4A54786  27.472  14.983   7.346
 4255POPC   C1B54787  27.913  15.014   6.217
 4255POPC   C2B54788  27.824  14.871   6.643
 4255POPC   C3B54789  27.926  14.903   7.085
 4255POPC   C4B54790  27.941  14.817   7.543
 4256POPC   NC354791   5.532  19.840   5.501
 4256POPC   PO454792   6.159  19.439   5.560
 4256POPC   GL154793   5.906  19.707   5.849
 4256POPC   GL254794   5.530  19.659   5.961
 4256POPC   C1A54795   6.141  19.880   6.196
 4256POPC   D2A54796   6.300  20.019   6.595
 4256POPC   C3A54797   6.151  19.731   6.870
 4256POPC   C4A54798   6.134  19.612   7.265
 4256POPC   C1B54799   5.633  20.009   6.203
 4256POPC   C2B54800   5.779  19.992   6.612
 4256POPC   C3B54801   5.675  19.854   7.027
 4256POPC   C4B54802   5.701  19.834   7.453
 4257POPC   NC354803  35.468   7.843   5.454
 4257POPC   PO454804  34.891   7.518   5.575
 4257POPC   GL154805  35.227   7.493   5.863
 4257POPC   GL254806  35.216   7.830   5.943
 4257POPC   C1A54807  35.392   7.238   6.227
 4257POPC   D2A54808  35.428   7.438   6.649
 4257POPC   C3A54809  35.415   7.221   7.022
 4257POPC   C4A54810  35.366   7.307   7.471
 4257POPC   C1B54811  35.544   7.728   6.234
 4257POPC   C2B54812  35.642   7.936   6.588
 4257POPC   C3B54813  35.360   7.909   6.928
 4257POPC   C4B54814  35.591   7.667   7.190
 4258POPC   NC354815  39.696  43.401   5.494
 4258POPC   PO454816  39.733  42.753   5.217
 4258POPC   GL154817  39.900  42.945   5.621
 4258POPC   GL254818  40.257  43.080   5.693
 4258POPC   C1A54819  39.875  43.130   6.057
 4258POPC   D2A54820  39.934  43.019   6.490
 4258POPC   C3A54821  39.944  43.319   6.799
 4258POPC   C4A54822  39.790  43.234   7.191
 4258POPC   C1B54823  40.350  42.970   6.165
 4258POPC   C2B54824  40.359  42.752   6.599
 4258POPC   C3B54825  40.267  42.972   6.994
 4258POPC   C4B54826  40.243  43.176   7.378
 4259POPC   NC354827  33.072  29.643   5.444
 4259POPC   PO454828  32.696  29.001   5.344
 4259POPC   GL154829  32.716  29.279   5.679
 4259POPC   GL254830  33.032  29.169   5.782
 4259POPC   C1A54831  32.661  29.236   6.129
 4259POPC   D2A54832  32.934  29.161   6.496
 4259POPC   C3A54833  32.751  29.286   6.905
 4259POPC   C4A54834  33.003  29.205   7.266
 4259POPC   C1B54835  33.354  29.301   6.101
 4259POPC   C2B54836  33.473  29.303   6.547
 4259POPC   C3B54837  33.247  29.478   6.890
 4259POPC   C4B54838  33.363  29.528   7.310
 4260POPC   NC354839  19.588   8.277   5.066
 4260POPC   PO454840  19.918   8.515   5.602
 4260POPC   GL154841  19.950   8.162   5.829
 4260POPC   GL254842  20.302   7.931   5.786
 4260POPC   C1A54843  19.712   8.152   6.191
 4260POPC   D2A54844  19.889   8.144   6.580
 4260POPC   C3A54845  19.767   8.357   6.950
 4260POPC   C4A54846  19.737   8.131   7.333
 4260POPC   C1B54847  20.263   8.094   6.216
 4260POPC   C2B54848  20.385   7.954   6.601
 4260POPC   C3B54849  20.154   7.939   6.952
 4260POPC   C4B54850  20.239   8.016   7.338
 4261POPC   NC354851   5.010  40.099   5.531
 4261POPC   PO454852   4.685  39.547   5.223
 4261POPC   GL154853   4.769  39.696   5.703
 4261POPC   GL254854   5.106  39.815   5.921
 4261POPC   C1A54855   4.675  39.885   6.152
 4261POPC   D2A54856   4.792  39.797   6.591
 4261POPC   C3A54857   4.847  40.012   7.004
 4261POPC   C4A54858   4.940  39.988   7.420
 4261POPC   C1B54859   5.150  40.069   6.292
 4261POPC   C2B54860   5.266  39.989   6.710
 4261POPC   C3B54861   5.349  40.109   7.106
 4261POPC   C4B54862   5.514  40.378   7.420
 4262POPC   NC354863  44.438   5.322   4.961
 4262POPC   PO454864  44.798   5.027   5.505
 4262POPC   GL154865  44.517   5.015   5.809
 4262POPC   GL254866  44.680   5.261   5.999
 4262POPC   C1A54867  44.414   4.879   6.227
 4262POPC   D2A54868  44.613   5.092   6.566
 4262POPC   C3A54869  44.468   5.038   6.966
 4262POPC   C4A54870  44.818   5.142   7.209
 4262POPC   C1B54871  44.356   5.407   6.261
 4262POPC   C2B54872  44.132   5.380   6.632
 4262POPC   C3B54873  44.242   5.518   7.024
 4262POPC   C4B54874  44.632   5.625   7.194
 4263POPC   NC354875  37.915  18.494   5.475
 4263POPC   PO454876  37.422  18.026   5.403
 4263POPC   GL154877  37.532  18.263   5.753
 4263POPC   GL254878  37.877  18.144   5.848
 4263POPC   C1A54879  37.473  18.166   6.166
 4263POPC   D2A54880  37.704  18.004   6.501
 4263POPC   C3A54881  37.401  18.026   6.840
 4263POPC   C4A54882  37.368  18.235   7.244
 4263POPC   C1B54883  37.806  18.517   6.147
 4263POPC   C2B54884  37.605  18.508   6.584
 4263POPC   C3B54885  37.787  18.445   7.012
 4263POPC   C4B54886  37.808  18.577   7.474
 4264POPC   NC354887  23.038  32.427   5.182
 4264POPC   PO454888  22.777  31.777   5.380
 4264POPC   GL154889  22.899  32.151   5.617
 4264POPC   GL254890  22.703  32.361   5.833
 4264POPC   C1A54891  23.111  32.177   6.038
 4264POPC   D2A54892  23.294  32.160   6.452
 4264POPC   C3A54893  23.043  32.226   6.788
 4264POPC   C4A54894  23.171  32.043   7.153
 4264POPC   C1B54895  22.556  32.199   6.218
 4264POPC   C2B54896  22.567  32.419   6.596
 4264POPC   C3B54897  22.773  32.661   6.878
 4264POPC   C4B54898  22.848  32.421   7.235
 4265POPC   NC354899  42.078   5.878   5.537
 4265POPC   PO454900  42.683   5.742   5.369
 4265POPC   GL154901  42.586   5.821   5.826
 4265POPC   GL254902  42.323   5.596   5.943
 4265POPC   C1A54903  42.613   5.844   6.310
 4265POPC   D2A54904  42.415   5.665   6.677
 4265POPC   C3A54905  42.383   5.938   7.037
 4265POPC   C4A54906  42.754   6.183   7.216
 4265POPC   C1B54907  42.100   5.871   6.303
 4265POPC   C2B54908  41.929   5.850   6.717
 4265POPC   C3B54909  42.065   5.531   7.035
 4265POPC   C4B54910  42.057   5.615   7.471
 4266POPC   NC354911  33.960  41.677   5.467
 4266POPC   PO454912  33.338  41.354   5.414
 4266POPC   GL154913  33.614  41.479   5.784
 4266POPC   GL254914  33.990  41.419   5.896
 4266POPC   C1A54915  33.535  41.613   6.190
 4266POPC   D2A54916  33.713  41.576   6.578
 4266POPC   C3A54917  33.755  41.755   6.956
 4266POPC   C4A54918  33.485  41.558   7.243
 4266POPC   C1B54919  34.166  41.681   6.238
 4266POPC   C2B54920  34.184  41.856   6.634
 4266POPC   C3B54921  34.287  41.617   6.941
 4266POPC   C4B54922  34.172  41.522   7.313
 4267POPC   NC354923  41.284  13.868   5.104
 4267POPC   PO454924  40.737  13.898   5.426
 4267POPC   GL154925  40.750  13.673   5.789
 4267POPC   GL254926  40.423  13.546   5.837
 4267POPC   C1A54927  40.842  13.558   6.218
 4267POPC   D2A54928  40.944  13.728   6.616
 4267POPC   C3A54929  40.869  13.486   6.994
 4267POPC   C4A54930  41.063  13.420   7.410
 4267POPC   C1B54931  40.454  13.909   6.131
 4267POPC   C2B54932  40.479  14.078   6.529
 4267POPC   C3B54933  40.701  14.092   6.901
 4267POPC   C4B54934  40.709  13.856   7.295
 4268POPC   NC354935  12.746  41.216   5.424
 4268POPC   PO454936  12.506  41.755   5.483
 4268POPC   GL154937  12.626  41.506   5.862
 4268POPC   GL254938  12.979  41.356   5.845
 4268POPC   C1A54939  12.496  41.652   6.293
 4268POPC   D2A54940  12.597  41.920   6.686
 4268POPC   C3A54941  12.854  41.776   7.055
 4268POPC   C4A54942  13.313  41.769   7.190
 4268POPC   C1B54943  12.841  41.228   6.252
 4268POPC   C2B54944  12.764  41.417   6.654
 4268POPC   C3B54945  12.808  41.259   7.037
 4268POPC   C4B54946  13.077  41.321   7.317
 4269POPC   NC354947  10.231  16.084   5.492
 4269POPC   PO454948  10.858  15.925   5.336
 4269POPC   GL154949  10.719  16.062   5.758
 4269POPC   GL254950  10.530  16.366   5.805
 4269POPC   C1A54951  10.706  16.020   6.219
 4269POPC   D2A54952  10.636  15.642   6.499
 4269POPC   C3A54953  10.500  15.694   6.938
 4269POPC   C4A54954  10.509  16.087   7.176
 4269POPC   C1B54955  10.266  16.310   6.185
 4269POPC   C2B54956  10.330  16.071   6.590
 4269POPC   C3B54957  10.068  15.988   6.940
 4269POPC   C4B54958  10.044  16.251   7.328
 4270POPC   NC354959   2.741  31.147   5.243
 4270POPC   PO454960   2.614  31.780   5.157
 4270POPC   GL154961   2.692  31.471   5.718
 4270POPC   GL254962   2.453  31.552   5.938
 4270POPC   C1A54963   2.841  31.353   6.139
 4270POPC   D2A54964   2.760  31.500   6.529
 4270POPC   C3A54965   3.100  31.502   6.813
 4270POPC   C4A54966   3.138  31.382   7.232
 4270POPC   C1B54967   2.356  31.212   6.252
 4270POPC   C2B54968   2.314  31.317   6.711
 4270POPC   C3B54969   2.666  31.241   6.975
 4270POPC   C4B54970   2.706  31.133   7.380
 4271POPC   NC354971   7.231  24.470   5.380
 4271POPC   PO454972   6.522  24.357   5.417
 4271POPC   GL154973   6.691  24.421   5.837
 4271POPC   GL254974   6.960  24.675   5.801
 4271POPC   C1A54975   6.521  24.347   6.243
 4271POPC   D2A54976   6.736  24.174   6.593
 4271POPC   C3A54977   6.632  24.440   6.954
 4271POPC   C4A54978   6.748  24.858   7.104
 4271POPC   C1B54979   7.015  24.521   6.249
 4271POPC   C2B54980   7.210  24.414   6.656
 4271POPC   C3B54981   7.124  24.484   7.096
 4271POPC   C4B54982   6.890  24.496   7.482
 4272POPC   NC354983  14.855  41.283   5.552
 4272POPC   PO454984  14.900  41.945   5.232
 4272POPC   GL154985  15.125  41.708   5.636
 4272POPC   GL254986  15.369  41.443   5.690
 4272POPC   C1A54987  15.080  41.647   6.116
 4272POPC   D2A54988  15.172  41.905   6.491
 4272POPC   C3A54989  15.010  41.704   6.885
 4272POPC   C4A54990  14.720  41.706   7.252
 4272POPC   C1B54991  15.373  41.225   6.107
 4272POPC   C2B54992  15.382  41.428   6.527
 4272POPC   C3B54993  15.389  41.374   6.975
 4272POPC   C4B54994  15.113  41.390   7.310
 4273POPC   NC354995   7.995  39.393   5.617
 4273POPC   PO454996   8.462  38.983   5.382
 4273POPC   GL154997   8.481  38.839   5.777
 4273POPC   GL254998   8.111  38.858   5.859
 4273POPC   C1A54999   8.560  39.074   6.172
 4273POPC   D2A55000   8.436  39.348   6.518
 4273POPC   C3A55001   8.527  39.206   6.973
 4273POPC   C4A55002   8.246  38.908   7.197
 4273POPC   C1B55003   8.049  38.824   6.333
 4273POPC   C2B55004   8.063  39.077   6.752
 4273POPC   C3B55005   8.066  39.381   7.119
 4273POPC   C4B55006   7.925  39.183   7.517
 4274POPC   NC355007  33.250  43.334   5.647
 4274POPC   PO455008  32.575  43.317   5.536
 4274POPC   GL155009  32.630  43.040   5.851
 4274POPC   GL255010  32.949  42.873   5.799
 4274POPC   C1A55011  32.745  43.088   6.240
 4274POPC   D2A55012  32.890  43.081   6.628
 4274POPC   C3A55013  32.664  43.088   6.986
 4274POPC   C4A55014  32.919  42.971   7.320
 4274POPC   C1B55015  33.139  42.750   6.193
 4274POPC   C2B55016  33.191  42.650   6.620
 4274POPC   C3B55017  33.297  42.949   6.945
 4274POPC   C4B55018  33.451  42.991   7.356
 4275POPC   NC355019  17.136  32.804   5.498
 4275POPC   PO455020  17.777  32.872   5.429
 4275POPC   GL155021  17.498  33.131   5.712
 4275POPC   GL255022  17.433  32.834   5.925
 4275POPC   C1A55023  17.399  33.316   6.143
 4275POPC   D2A55024  17.501  33.128   6.571
 4275POPC   C3A55025  17.327  33.281   6.987
 4275POPC   C4A55026  17.477  33.390   7.412
 4275POPC   C1B55027  17.837  32.869   6.173
 4275POPC   C2B55028  17.885  32.734   6.608
 4275POPC   C3B55029  17.757  32.862   7.023
 4275POPC   C4B55030  17.883  32.642   7.413
 4276POPC   NC355031   9.650  27.858   5.432
 4276POPC   PO455032  10.086  27.440   5.373
 4276POPC   GL155033   9.884  27.539   5.764
 4276POPC   GL255034   9.509  27.601   5.837
 4276POPC   C1A55035   9.877  27.674   6.179
 4276POPC   D2A55036   9.616  27.544   6.496
 4276POPC   C3A55037   9.881  27.577   6.804
 4276POPC   C4A55038   9.899  27.645   7.187
 4276POPC   C1B55039   9.462  27.962   6.134
 4276POPC   C2B55040   9.669  28.066   6.527
 4276POPC   C3B55041   9.519  27.910   6.894
 4276POPC   C4B55042   9.371  27.795   7.243
 4277POPC   NC355043  42.354  42.753   5.324
 4277POPC   PO455044  42.173  42.105   5.373
 4277POPC   GL155045  42.177  42.382   5.767
 4277POPC   GL255046  42.524  42.511   5.831
 4277POPC   C1A55047  42.131  42.402   6.247
 4277POPC   D2A55048  42.326  42.174   6.610
 4277POPC   C3A55049  42.090  42.023   6.966
 4277POPC   C4A55050  41.950  42.219   7.327
 4277POPC   C1B55051  42.582  42.716   6.243
 4277POPC   C2B55052  42.425  42.745   6.673
 4277POPC   C3B55053  42.319  42.491   7.043
 4277POPC   C4B55054  42.631  42.177   7.224
 4278POPC   NC355055   6.756  25.539   5.458
 4278POPC   PO455056   6.336  26.088   5.435
 4278POPC   GL155057   6.517  25.856   5.783
 4278POPC   GL255058   6.595  26.153   5.943
 4278POPC   C1A55059   6.795  25.755   6.168
 4278POPC   D2A55060   6.663  25.959   6.549
 4278POPC   C3A55061   6.859  25.958   6.949
 4278POPC   C4A55062   6.660  25.874   7.375
 4278POPC   C1B55063   6.306  26.422   6.219
 4278POPC   C2B55064   6.361  26.374   6.643
 4278POPC   C3B55065   6.521  26.352   7.029
 4278POPC   C4B55066   6.286  26.449   7.379
 4279POPC   NC355067  27.839   1.038   5.398
 4279POPC   PO455068  27.352   1.517   5.436
 4279POPC   GL155069  27.554   1.410   5.836
 4279POPC   GL255070  27.607   1.068   5.838
 4279POPC   C1A55071  27.455   1.248   6.278
 4279POPC   D2A55072  27.227   1.205   6.651
 4279POPC   C3A55073  27.530   1.200   6.956
 4279POPC   C4A55074  27.561   0.816   7.187
 4279POPC   C1B55075  27.864   0.897   6.180
 4279POPC   C2B55076  27.788   0.896   6.627
 4279POPC   C3B55077  28.001   1.012   7.018
 4279POPC   C4B55078  27.985   1.019   7.503
 4280POPC   NC355079   6.896  21.629   5.359
 4280POPC   PO455080   6.475  21.104   5.479
 4280POPC   GL155081   6.735  21.167   5.823
 4280POPC   GL255082   6.721  21.531   5.833
 4280POPC   C1A55083   6.698  21.118   6.270
 4280POPC   D2A55084   6.653  20.965   6.694
 4280POPC   C3A55085   6.566  21.168   7.099
 4280POPC   C4A55086   6.402  21.551   7.288
 4280POPC   C1B55087   6.712  21.666   6.239
 4280POPC   C2B55088   6.878  21.496   6.595
 4280POPC   C3B55089   6.763  21.653   6.957
 4280POPC   C4B55090   6.915  21.661   7.366
 4281POPC   NC355091  17.396  38.225   5.296
 4281POPC   PO455092  17.647  38.847   5.418
 4281POPC   GL155093  17.554  38.598   5.811
 4281POPC   GL255094  17.667  38.253   5.834
 4281POPC   C1A55095  17.413  38.436   6.240
 4281POPC   D2A55096  17.360  38.210   6.656
 4281POPC   C3A55097  17.160  38.514   6.942
 4281POPC   C4A55098  17.357  38.771   7.292
 4281POPC   C1B55099  18.009  38.144   6.163
 4281POPC   C2B55100  18.167  38.212   6.593
 4281POPC   C3B55101  17.987  38.356   6.994
 4281POPC   C4B55102  17.578  38.333   7.134
 4282POPC   NC355103  13.946  37.930   5.235
 4282POPC   PO455104  14.629  37.879   5.328
 4282POPC   GL155105  14.299  37.803   5.667
 4282POPC   GL255106  14.495  37.963   5.864
 4282POPC   C1A55107  14.267  37.650   6.156
 4282POPC   D2A55108  14.286  37.493   6.590
 4282POPC   C3A55109  14.647  37.565   6.892
 4282POPC   C4A55110  14.401  37.617   7.247
 4282POPC   C1B55111  14.463  38.140   6.247
 4282POPC   C2B55112  14.457  37.983   6.644
 4282POPC   C3B55113  14.678  38.071   6.990
 4282POPC   C4B55114  14.586  38.052   7.394
 4283POPC   NC355115  14.391  21.838   5.414
 4283POPC   PO455116  14.087  22.500   5.385
 4283POPC   GL155117  14.225  22.244   5.756
 4283POPC   GL255118  14.008  21.984   5.854
 4283POPC   C1A55119  14.472  22.049   6.122
 4283POPC   D2A55120  14.589  22.246   6.545
 4283POPC   C3A55121  14.560  22.079   6.983
 4283POPC   C4A55122  14.648  22.077   7.448
 4283POPC   C1B55123  13.982  22.047   6.283
 4283POPC   C2B55124  14.240  21.876   6.597
 4283POPC   C3B55125  14.069  21.945   6.992
 4283POPC   C4B55126  14.165  22.165   7.354
 4284POPC   NC355127  37.687  26.426   5.395
 4284POPC   PO455128  38.034  25.849   5.283
 4284POPC   GL155129  37.740  25.888   5.631
 4284POPC   GL255130  37.920  26.160   5.779
 4284POPC   C1A55131  37.580  25.914   6.092
 4284POPC   D2A55132  37.709  25.873   6.549
 4284POPC   C3A55133  37.449  25.907   6.934
 4284POPC   C4A55134  37.366  26.312   7.165
 4284POPC   C1B55135  38.136  25.997   6.145
 4284POPC   C2B55136  38.179  26.178   6.537
 4284POPC   C3B55137  38.079  26.019   6.904
 4284POPC   C4B55138  37.830  26.150   7.219
 4285POPC   NC355139  26.567  25.057   5.306
 4285POPC   PO455140  26.949  25.588   5.314
 4285POPC   GL155141  26.981  25.210   5.660
 4285POPC   GL255142  26.702  24.982   5.803
 4285POPC   C1A55143  27.047  25.183   6.151
 4285POPC   D2A55144  27.143  25.428   6.545
 4285POPC   C3A55145  27.006  25.299   6.951
 4285POPC   C4A55146  26.722  25.036   7.126
 4285POPC   C1B55147  26.551  25.082   6.240
 4285POPC   C2B55148  26.444  25.237   6.680
 4285POPC   C3B55149  26.384  25.470   7.072
 4285POPC   C4B55150  26.408  25.400   7.544
 4286POPC   NC355151  40.976  32.418   5.727
 4286POPC   PO455152  40.329  32.321   5.594
 4286POPC   GL155153  40.489  32.084   5.933
 4286POPC   GL255154  40.807  31.923   5.884
 4286POPC   C1A55155  40.670  32.222   6.304
 4286POPC   D2A55156  40.629  32.478   6.649
 4286POPC   C3A55157  40.657  32.245   7.010
 4286POPC   C4A55158  40.500  32.387   7.365
 4286POPC   C1B55159  41.123  31.948   6.244
 4286POPC   C2B55160  40.995  32.008   6.656
 4286POPC   C3B55161  41.137  32.058   7.052
 4286POPC   C4B55162  41.010  32.325   7.413
 4287POPC   NC355163   0.276  25.838   5.656
 4287POPC   PO455164   0.813  25.839   5.274
 4287POPC   GL155165   0.690  26.212   5.612
 4287POPC   GL255166   0.391  26.409   5.667
 4287POPC   C1A55167   0.609  26.310   6.109
 4287POPC   D2A55168   0.418  26.101   6.505
 4287POPC   C3A55169   0.756  26.006   6.816
 4287POPC   C4A55170   0.809  25.816   7.219
 4287POPC   C1B55171   0.123  26.476   6.060
 4287POPC   C2B55172  44.988  26.436   6.480
 4287POPC   C3B55173   0.076  26.255   6.894
 4287POPC   C4B55174   0.407  26.156   7.185
 4288POPC   NC355175  20.767  31.242   5.503
 4288POPC   PO455176  20.330  31.766   5.552
 4288POPC   GL155177  20.466  31.480   5.886
 4288POPC   GL255178  20.849  31.411   5.953
 4288POPC   C1A55179  20.549  31.627   6.307
 4288POPC   D2A55180  20.460  31.821   6.691
 4288POPC   C3A55181  20.658  31.624   7.036
 4288POPC   C4A55182  20.620  31.702   7.458
 4288POPC   C1B55183  20.833  31.076   6.244
 4288POPC   C2B55184  20.719  31.109   6.665
 4288POPC   C3B55185  20.942  31.200   6.999
 4288POPC   C4B55186  20.953  31.247   7.428
 4289POPC   NC355187  19.174  11.614   5.670
 4289POPC   PO455188  18.995  12.204   5.373
 4289POPC   GL155189  18.785  12.330   5.736
 4289POPC   GL255190  19.034  12.108   5.885
 4289POPC   C1A55191  18.713  12.352   6.193
 4289POPC   D2A55192  19.032  12.340   6.545
 4289POPC   C3A55193  18.930  12.149   6.959
 4289POPC   C4A55194  18.776  11.800   7.244
 4289POPC   C1B55195  18.989  11.883   6.256
 4289POPC   C2B55196  19.236  11.848   6.602
 4289POPC   C3B55197  19.187  11.709   6.974
 4289POPC   C4B55198  19.251  11.952   7.329
 4290POPC   NC355199  33.063  12.829   5.402
 4290POPC   PO455200  33.602  13.169   5.531
 4290POPC   GL155201  33.229  13.021   5.849
 4290POPC   GL255202  33.121  12.639   5.862
 4290POPC   C1A55203  32.848  12.940   6.162
 4290POPC   D2A55204  32.805  13.088   6.585
 4290POPC   C3A55205  32.973  12.919   6.957
 4290POPC   C4A55206  32.976  13.066   7.367
 4290POPC   C1B55207  32.862  12.441   6.171
 4290POPC   C2B55208  32.929  12.561   6.588
 4290POPC   C3B55209  33.113  12.424   6.961
 4290POPC   C4B55210  33.209  12.606   7.343
 4291POPC   NC355211  16.263  32.441   5.591
 4291POPC   PO455212  15.818  32.023   5.428
 4291POPC   GL155213  15.727  32.081   5.846
 4291POPC   GL255214  15.929  32.384   5.989
 4291POPC   C1A55215  15.854  31.980   6.268
 4291POPC   D2A55216  15.890  32.275   6.598
 4291POPC   C3A55217  15.793  32.073   6.946
 4291POPC   C4A55218  15.701  31.974   7.323
 4291POPC   C1B55219  16.300  32.254   6.272
 4291POPC   C2B55220  16.389  32.185   6.725
 4291POPC   C3B55221  16.177  32.402   7.088
 4291POPC   C4B55222  16.281  32.409   7.560
 4292POPC   NC355223  42.418  32.741   5.586
 4292POPC   PO455224  42.240  32.100   5.395
 4292POPC   GL155225  42.300  32.287   5.792
 4292POPC   GL255226  42.010  32.444   5.909
 4292POPC   C1A55227  42.315  32.216   6.255
 4292POPC   D2A55228  42.186  32.205   6.698
 4292POPC   C3A55229  42.511  32.245   7.020
 4292POPC   C4A55230  42.324  32.311   7.406
 4292POPC   C1B55231  42.228  32.713   6.180
 4292POPC   C2B55232  42.408  32.670   6.555
 4292POPC   C3B55233  42.260  32.671   6.953
 4292POPC   C4B55234  42.531  32.752   7.282
 4293POPC   NC355235   6.113   3.095   5.318
 4293POPC   PO455236   5.867   2.476   5.402
 4293POPC   GL155237   5.820   2.724   5.774
 4293POPC   GL255238   5.750   3.034   5.683
 4293POPC   C1A55239   5.945   2.736   6.193
 4293POPC   D2A55240   6.216   2.752   6.525
 4293POPC   C3A55241   6.015   2.818   6.893
 4293POPC   C4A55242   5.778   2.769   7.259
 4293POPC   C1B55243   5.567   3.072   6.091
 4293POPC   C2B55244   5.688   3.043   6.521
 4293POPC   C3B55245   5.529   3.030   6.916
 4293POPC   C4B55246   5.590   3.238   7.314
 4294POPC   NC355247  29.062  39.487   5.314
 4294POPC   PO455248  29.250  38.898   5.461
 4294POPC   GL155249  29.268  39.220   5.724
 4294POPC   GL255250  28.907  39.183   5.780
 4294POPC   C1A55251  29.481  39.313   6.114
 4294POPC   D2A55252  29.574  39.215   6.555
 4294POPC   C3A55253  29.336  39.438   6.900
 4294POPC   C4A55254  28.855  39.410   6.993
 4294POPC   C1B55255  29.067  39.023   6.165
 4294POPC   C2B55256  29.071  39.169   6.558
 4294POPC   C3B55257  29.203  38.967   6.928
 4294POPC   C4B55258  28.892  38.908   7.194
 4295POPC   NC355259  15.036  19.345   5.365
 4295POPC   PO455260  14.693  19.857   5.224
 4295POPC   GL155261  14.909  19.737   5.679
 4295POPC   GL255262  14.919  20.009   5.931
 4295POPC   C1A55263  15.156  19.593   6.098
 4295POPC   D2A55264  15.172  19.770   6.540
 4295POPC   C3A55265  15.445  19.749   6.921
 4295POPC   C4A55266  15.214  19.662   7.293
 4295POPC   C1B55267  15.333  20.106   6.175
 4295POPC   C2B55268  15.367  20.299   6.611
 4295POPC   C3B55269  15.514  20.285   7.058
 4295POPC   C4B55270  15.404  20.161   7.507
 4296POPC   NC355271   7.943  15.280   5.485
 4296POPC   PO455272   8.576  15.006   5.537
 4296POPC   GL155273   8.348  15.263   5.887
 4296POPC   GL255274   8.058  15.547   5.909
 4296POPC   C1A55275   8.022  15.105   6.207
 4296POPC   D2A55276   7.753  15.061   6.593
 4296POPC   C3A55277   7.961  14.918   6.969
 4296POPC   C4A55278   8.243  14.975   7.306
 4296POPC   C1B55279   7.985  15.577   6.382
 4296POPC   C2B55280   8.081  15.479   6.813
 4296POPC   C3B55281   7.938  15.366   7.220
 4296POPC   C4B55282   8.105  15.452   7.618
 4297POPC   NC355283  11.244  13.074   5.418
 4297POPC   PO455284  11.363  12.426   5.366
 4297POPC   GL155285  11.459  12.710   5.758
 4297POPC   GL255286  11.151  12.837   5.878
 4297POPC   C1A55287  11.530  12.842   6.218
 4297POPC   D2A55288  11.475  13.002   6.649
 4297POPC   C3A55289  11.562  12.703   6.977
 4297POPC   C4A55290  11.371  12.484   7.317
 4297POPC   C1B55291  11.102  13.151   6.208
 4297POPC   C2B55292  10.958  13.067   6.640
 4297POPC   C3B55293  11.085  12.888   7.040
 4297POPC   C4B55294  11.094  12.990   7.475
 4298POPC   NC355295  31.077  27.940   5.378
 4298POPC   PO455296  30.470  27.571   5.414
 4298POPC   GL155297  30.768  27.500   5.758
 4298POPC   GL255298  30.941  27.175   5.746
 4298POPC   C1A55299  30.715  27.601   6.222
 4298POPC   D2A55300  30.875  27.542   6.645
 4298POPC   C3A55301  30.796  27.840   6.999
 4298POPC   C4A55302  30.430  27.801   7.207
 4298POPC   C1B55303  30.710  27.093   6.152
 4298POPC   C2B55304  30.483  27.225   6.529
 4298POPC   C3B55305  30.481  27.324   6.966
 4298POPC   C4B55306  30.868  27.307   7.148
 4299POPC   NC355307  38.133  26.962   5.622
 4299POPC   PO455308  37.610  26.881   5.293
 4299POPC   GL155309  37.590  26.827   5.740
 4299POPC   GL255310  37.861  26.657   5.921
 4299POPC   C1A55311  37.544  27.015   6.156
 4299POPC   D2A55312  37.632  26.873   6.575
 4299POPC   C3A55313  37.352  26.959   6.924
 4299POPC   C4A55314  37.367  26.772   7.357
 4299POPC   C1B55315  37.773  26.380   6.279
 4299POPC   C2B55316  37.700  26.356   6.732
 4299POPC   C3B55317  37.760  26.647   7.052
 4299POPC   C4B55318  37.910  26.770   7.442
 4300POPC   NC355319  32.338   2.835   5.461
 4300POPC   PO455320  31.698   2.603   5.442
 4300POPC   GL155321  31.914   2.843   5.793
 4300POPC   GL255322  32.109   2.545   5.875
 4300POPC   C1A55323  32.025   2.802   6.276
 4300POPC   D2A55324  32.002   2.482   6.602
 4300POPC   C3A55325  32.026   2.640   7.018
 4300POPC   C4A55326  32.257   2.710   7.388
 4300POPC   C1B55327  32.386   2.379   6.240
 4300POPC   C2B55328  32.516   2.304   6.690
 4300POPC   C3B55329  32.377   2.242   7.136
 4300POPC   C4B55330  32.573   2.328   7.563
 4301POPC   NC355331  19.001  34.984   5.562
 4301POPC   PO455332  19.198  35.610   5.544
 4301POPC   GL155333  19.095  35.362   5.919
 4301POPC   GL255334  19.268  34.999   5.989
 4301POPC   C1A55335  18.953  35.538   6.332
 4301POPC   D2A55336  18.786  35.346   6.710
 4301POPC   C3A55337  19.008  35.408   7.093
 4301POPC   C4A55338  18.978  35.457   7.544
 4301POPC   C1B55339  18.932  35.028   6.302
 4301POPC   C2B55340  18.819  34.801   6.679
 4301POPC   C3B55341  18.816  34.836   7.119
 4301POPC   C4B55342  19.108  34.998   7.379
 4302POPC   NC355343  24.294  36.905   5.329
 4302POPC   PO455344  24.793  37.184   5.588
 4302POPC   GL155345  24.572  36.803   5.803
 4302POPC   GL255346  24.251  36.855   5.857
 4302POPC   C1A55347  24.433  36.582   6.236
 4302POPC   D2A55348  24.278  36.783   6.629
 4302POPC   C3A55349  24.371  36.581   7.024
 4302POPC   C4A55350  24.354  36.421   7.452
 4302POPC   C1B55351  24.493  37.084   6.217
 4302POPC   C2B55352  24.660  37.136   6.643
 4302POPC   C3B55353  24.431  37.108   7.022
 4302POPC   C4B55354  23.997  36.926   7.123
 4303POPC   NC355355   7.029  42.583   5.303
 4303POPC   PO455356   6.470  42.239   5.245
 4303POPC   GL155357   6.663  42.360   5.649
 4303POPC   GL255358   6.571  42.731   5.701
 4303POPC   C1A55359   6.800  42.290   6.112
 4303POPC   D2A55360   6.572  42.368   6.532
 4303POPC   C3A55361   6.665  42.285   6.975
 4303POPC   C4A55362   7.071  42.260   7.162
 4303POPC   C1B55363   6.566  42.744   6.145
 4303POPC   C2B55364   6.664  42.865   6.582
 4303POPC   C3B55365   6.847  42.779   6.962
 4303POPC   C4B55366   7.128  42.921   7.250
 4304POPC   NC355367  10.962  18.931   5.082
 4304POPC   PO455368  10.384  19.051   5.365
 4304POPC   GL155369  10.515  18.930   5.791
 4304POPC   GL255370  10.282  18.687   5.863
 4304POPC   C1A55371  10.800  18.972   6.190
 4304POPC   D2A55372  10.717  19.066   6.659
 4304POPC   C3A55373  10.848  19.266   7.072
 4304POPC   C4A55374  11.009  19.250   7.546
 4304POPC   C1B55375  10.392  18.683   6.312
 4304POPC   C2B55376  10.363  18.706   6.746
 4304POPC   C3B55377  10.662  18.773   7.100
 4304POPC   C4B55378  10.555  19.064   7.449
 4305POPC   NC355379  12.884  32.260   5.356
 4305POPC   PO455380  13.364  32.496   5.442
 4305POPC   GL155381  13.120  32.265   5.803
 4305POPC   GL255382  12.764  32.210   5.846
 4305POPC   C1A55383  13.163  32.268   6.239
 4305POPC   D2A55384  12.965  32.381   6.624
 4305POPC   C3A55385  13.085  32.253   7.042
 4305POPC   C4A55386  13.216  31.981   7.356
 4305POPC   C1B55387  12.604  32.211   6.274
 4305POPC   C2B55388  12.486  32.189   6.731
 4305POPC   C3B55389  12.592  32.393   7.151
 4305POPC   C4B55390  12.757  32.687   7.487
 4306POPC   NC355391   7.048   0.066   5.060
 4306POPC   PO455392   7.344   0.580   5.440
 4306POPC   GL155393   7.286   0.517   5.862
 4306POPC   GL255394   7.501   0.247   5.836
 4306POPC   C1A55395   7.269   0.344   6.281
 4306POPC   D2A55396   7.419   0.108   6.620
 4306POPC   C3A55397   7.329   0.300   6.991
 4306POPC   C4A55398   7.025   0.563   7.101
 4306POPC   C1B55399   7.731   0.515   6.117
 4306POPC   C2B55400   7.688   0.595   6.532
 4306POPC   C3B55401   7.666   0.737   6.930
 4306POPC   C4B55402   7.499   0.652   7.321
 4307POPC   NC355403  30.568  25.446   5.492
 4307POPC   PO455404  31.255  25.633   5.364
 4307POPC   GL155405  31.067  25.385   5.743
 4307POPC   GL255406  30.847  25.051   5.724
 4307POPC   C1A55407  30.901  25.354   6.200
 4307POPC   D2A55408  30.653  25.457   6.594
 4307POPC   C3A55409  30.780  25.494   7.060
 4307POPC   C4A55410  30.663  25.490   7.548
 4307POPC   C1B55411  30.514  25.048   6.074
 4307POPC   C2B55412  30.431  24.976   6.520
 4307POPC   C3B55413  30.387  25.158   6.899
 4307POPC   C4B55414  30.461  25.122   7.282
 4308POPC   NC355415  16.867  25.846   5.125
 4308POPC   PO455416  16.365  25.702   5.537
 4308POPC   GL155417  16.791  25.864   5.659
 4308POPC   GL255418  16.914  26.232   5.648
 4308POPC   C1A55419  16.925  25.840   6.083
 4308POPC   D2A55420  16.918  26.082   6.455
 4308POPC   C3A55421  16.685  25.949   6.803
 4308POPC   C4A55422  16.902  25.788   7.129
 4308POPC   C1B55423  16.671  26.288   6.048
 4308POPC   C2B55424  16.504  26.427   6.437
 4308POPC   C3B55425  16.665  26.466   6.812
 4308POPC   C4B55426  16.796  26.297   7.180
 4309POPC   NC355427  18.404  13.203   5.421
 4309POPC   PO455428  18.187  12.599   5.362
 4309POPC   GL155429  18.220  12.847   5.770
 4309POPC   GL255430  18.035  13.162   5.788
 4309POPC   C1A55431  18.342  12.734   6.215
 4309POPC   D2A55432  18.355  12.868   6.636
 4309POPC   C3A55433  18.450  12.669   7.030
 4309POPC   C4A55434  18.570  12.906   7.383
 4309POPC   C1B55435  18.111  13.188   6.233
 4309POPC   C2B55436  17.956  13.197   6.653
 4309POPC   C3B55437  18.043  13.018   7.054
 4309POPC   C4B55438  18.209  13.286   7.369
 4310POPC   NC355439  15.018  39.730   5.459
 4310POPC   PO455440  15.417  40.218   5.461
 4310POPC   GL155441  15.255  40.084   5.843
 4310POPC   GL255442  14.973  40.258   5.885
 4310POPC   C1A55443  15.458  39.968   6.236
 4310POPC   D2A55444  15.583  39.760   6.603
 4310POPC   C3A55445  15.516  39.971   6.996
 4310POPC   C4A55446  15.465  39.791   7.384
 4310POPC   C1B55447  15.013  40.193   6.320
 4310POPC   C2B55448  15.079  39.938   6.701
 4310POPC   C3B55449  14.926  39.961   7.142
 4310POPC   C4B55450  14.746  40.220   7.469
 4311POPC   NC355451  41.200  44.461   5.225
 4311POPC   PO455452  41.743  44.753   5.419
 4311POPC   GL155453  41.529  44.893   5.822
 4311POPC   GL255454  41.145  44.933   5.816
 4311POPC   C1A55455  41.587  44.770   6.267
 4311POPC   D2A55456  41.850  44.768   6.658
 4311POPC   C3A55457  41.677  44.707   7.082
 4311POPC   C4A55458  41.712  44.918   7.476
 4311POPC   C1B55459  41.087  44.790   6.252
 4311POPC   C2B55460  41.300  44.817   6.680
 4311POPC   C3B55461  41.167  44.640   7.057
 4311POPC   C4B55462  41.176  44.865   7.425
 4312POPC   NC355463  43.468   6.548   5.470
 4312POPC   PO455464  43.952   6.971   5.334
 4312POPC   GL155465  43.983   6.729   5.741
 4312POPC   GL255466  43.691   6.594   5.932
 4312POPC   C1A55467  44.160   6.806   6.157
 4312POPC   D2A55468  44.087   7.049   6.537
 4312POPC   C3A55469  44.181   6.850   6.908
 4312POPC   C4A55470  44.186   6.466   7.116
 4312POPC   C1B55471  43.719   6.679   6.369
 4312POPC   C2B55472  43.809   6.517   6.761
 4312POPC   C3B55473  43.706   6.684   7.155
 4312POPC   C4B55474  43.581   6.476   7.526
 4313POPC   NC355475  23.824  20.645   5.378
 4313POPC   PO455476  23.739  20.212   5.793
 4313POPC   GL155477  23.686  20.626   5.920
 4313POPC   GL255478  23.396  20.793   5.785
 4313POPC   C1A55479  23.592  20.666   6.341
 4313POPC   D2A55480  23.638  20.402   6.688
 4313POPC   C3A55481  24.001  20.524   6.857
 4313POPC   C4A55482  24.131  20.707   7.253
 4313POPC   C1B55483  23.229  20.991   6.174
 4313POPC   C2B55484  23.385  21.043   6.630
 4313POPC   C3B55485  23.328  20.718   6.962
 4313POPC   C4B55486  23.427  20.707   7.386
 4314POPC   NC355487  32.731   4.743   5.432
 4314POPC   PO455488  33.188   5.292   5.355
 4314POPC   GL155489  33.262   5.107   5.746
 4314POPC   GL255490  32.907   5.042   5.804
 4314POPC   C1A55491  33.223   5.217   6.179
 4314POPC   D2A55492  33.173   5.182   6.627
 4314POPC   C3A55493  32.870   5.420   6.896
 4314POPC   C4A55494  32.985   5.320   7.320
 4314POPC   C1B55495  32.824   4.872   6.225
 4314POPC   C2B55496  32.690   4.992   6.658
 4314POPC   C3B55497  32.928   4.923   7.037
 4314POPC   C4B55498  32.998   4.807   7.494
 4315POPC   NC355499  30.457  36.579   5.132
 4315POPC   PO455500  30.868  36.907   5.598
 4315POPC   GL155501  30.753  36.819   6.003
 4315POPC   GL255502  30.578  36.512   6.116
 4315POPC   C1A55503  30.988  36.718   6.352
 4315POPC   D2A55504  30.828  36.590   6.704
 4315POPC   C3A55505  30.904  36.801   7.061
 4315POPC   C4A55506  30.955  36.963   7.479
 4315POPC   C1B55507  30.329  36.799   6.334
 4315POPC   C2B55508  30.109  36.614   6.640
 4315POPC   C3B55509  30.393  36.592   6.989
 4315POPC   C4B55510  30.468  36.895   7.299
 4316POPC   NC355511  12.195   5.676   5.125
 4316POPC   PO455512  12.137   6.259   5.346
 4316POPC   GL155513  12.014   6.033   5.745
 4316POPC   GL255514  11.706   6.162   5.917
 4316POPC   C1A55515  12.232   5.718   6.035
 4316POPC   D2A55516  12.173   5.572   6.467
 4316POPC   C3A55517  12.327   5.663   6.885
 4316POPC   C4A55518  12.304   5.986   7.201
 4316POPC   C1B55519  11.761   5.804   6.225
 4316POPC   C2B55520  11.665   5.645   6.665
 4316POPC   C3B55521  11.863   5.717   7.085
 4316POPC   C4B55522  11.993   5.440   7.429
 4317POPC   NC355523   0.907  34.826   5.435
 4317POPC   PO455524   1.460  34.352   5.372
 4317POPC   GL155525   1.361  34.674   5.725
 4317POPC   GL255526   1.062  34.632   5.903
 4317POPC   C1A55527   1.424  34.888   6.147
 4317POPC   D2A55528   1.297  34.782   6.581
 4317POPC   C3A55529   1.581  34.810   6.945
 4317POPC   C4A55530   1.538  34.654   7.364
 4317POPC   C1B55531   1.306  34.364   6.188
 4317POPC   C2B55532   1.234  34.265   6.613
 4317POPC   C3B55533   1.243  34.422   6.982
 4317POPC   C4B55534   1.015  34.544   7.310
 4318POPC   NC355535   2.307  16.951   5.490
 4318POPC   PO455536   1.673  16.584   5.570
 4318POPC   GL155537   1.927  16.801   5.868
 4318POPC   GL255538   2.208  16.589   5.839
 4318POPC   C1A55539   1.966  16.675   6.331
 4318POPC   D2A55540   1.685  16.583   6.710
 4318POPC   C3A55541   1.823  16.563   7.137
 4318POPC   C4A55542   1.906  16.884   7.455
 4318POPC   C1B55543   2.436  16.769   6.170
 4318POPC   C2B55544   2.406  16.847   6.606
 4318POPC   C3B55545   2.259  16.843   7.050
 4318POPC   C4B55546   2.432  16.883   7.475
 4319POPC   NC355547  14.390  23.054   5.421
 4319POPC   PO455548  14.989  22.839   5.651
 4319POPC   GL155549  14.686  23.023   5.856
 4319POPC   GL255550  14.488  22.715   5.824
 4319POPC   C1A55551  14.529  23.025   6.265
 4319POPC   D2A55552  14.288  23.295   6.505
 4319POPC   C3A55553  14.228  23.093   6.892
 4319POPC   C4A55554  14.227  23.027   7.334
 4319POPC   C1B55555  14.294  22.519   6.196
 4319POPC   C2B55556  14.287  22.660   6.623
 4319POPC   C3B55557  14.264  22.576   7.068
 4319POPC   C4B55558  14.480  22.606   7.494
 4320POPC   NC355559  27.397   2.758   5.464
 4320POPC   PO455560  27.881   2.322   5.622
 4320POPC   GL155561  27.767   2.694   5.854
 4320POPC   GL255562  27.923   3.003   5.694
 4320POPC   C1A55563  27.497   2.808   6.216
 4320POPC   D2A55564  27.370   2.575   6.603
 4320POPC   C3A55565  27.367   2.734   7.036
 4320POPC   C4A55566  27.206   2.464   7.373
 4320POPC   C1B55567  27.990   3.065   6.144
 4320POPC   C2B55568  27.855   2.940   6.561
 4320POPC   C3B55569  27.916   2.883   6.994
 4320POPC   C4B55570  27.672   3.060   7.302
 4321POPC   NC355571  19.045  15.533   5.164
 4321POPC   PO455572  19.251  16.184   5.290
 4321POPC   GL155573  19.143  16.040   5.753
 4321POPC   GL255574  19.426  16.022   6.019
 4321POPC   C1A55575  18.911  16.064   6.177
 4321POPC   D2A55576  19.074  16.067   6.631
 4321POPC   C3A55577  18.840  16.213   7.022
 4321POPC   C4A55578  18.857  16.023   7.456
 4321POPC   C1B55579  19.227  15.670   6.251
 4321POPC   C2B55580  19.087  15.522   6.670
 4321POPC   C3B55581  19.025  15.732   7.064
 4321POPC   C4B55582  19.333  16.087   7.134
 4322POPC   NC355583   2.544  37.716   5.235
 4322POPC   PO455584   3.074  37.237   5.260
 4322POPC   GL155585   2.827  37.463   5.642
 4322POPC   GL255586   2.926  37.830   5.789
 4322POPC   C1A55587   2.611  37.521   6.084
 4322POPC   D2A55588   2.698  37.763   6.488
 4322POPC   C3A55589   2.665  37.659   6.952
 4322POPC   C4A55590   2.697  37.682   7.431
 4322POPC   C1B55591   3.071  38.028   6.221
 4322POPC   C2B55592   3.052  38.069   6.702
 4322POPC   C3B55593   2.863  38.079   7.132
 4322POPC   C4B55594   3.096  37.957   7.551
 4323POPC   NC355595   4.791  27.930   5.492
 4323POPC   PO455596   5.065  27.307   5.454
 4323POPC   GL155597   5.035  27.598   5.783
 4323POPC   GL255598   5.331  27.798   5.932
 4323POPC   C1A55599   4.863  27.749   6.131
 4323POPC   D2A55600   5.201  27.750   6.429
 4323POPC   C3A55601   5.169  27.754   6.876
 4323POPC   C4A55602   4.932  27.763   7.270
 4323POPC   C1B55603   5.341  27.347   6.122
 4323POPC   C2B55604   5.355  27.046   6.481
 4323POPC   C3B55605   5.482  27.101   6.930
 4323POPC   C4B55606   5.275  27.378   7.215
 4324POPC   NC355607  41.932  29.318   5.464
 4324POPC   PO455608  41.472  28.862   5.483
 4324POPC   GL155609  41.514  29.078   5.870
 4324POPC   GL255610  41.768  29.344   5.923
 4324POPC   C1A55611  41.361  28.950   6.269
 4324POPC   D2A55612  41.312  29.112   6.668
 4324POPC   C3A55613  41.564  28.948   6.995
 4324POPC   C4A55614  41.426  29.182   7.320
 4324POPC   C1B55615  41.649  29.372   6.312
 4324POPC   C2B55616  41.804  29.145   6.589
 4324POPC   C3B55617  42.002  29.231   6.920
 4324POPC   C4B55618  41.894  29.336   7.289
 4325POPC   NC355619  16.383  13.575   5.469
 4325POPC   PO455620  15.694  13.411   5.472
 4325POPC   GL155621  15.974  13.443   5.790
 4325POPC   GL255622  16.184  13.156   5.720
 4325POPC   C1A55623  15.978  13.701   6.174
 4325POPC   D2A55624  16.112  13.882   6.584
 4325POPC   C3A55625  15.838  13.819   6.923
 4325POPC   C4A55626  15.919  13.596   7.290
 4325POPC   C1B55627  16.327  13.308   6.140
 4325POPC   C2B55628  16.125  13.363   6.557
 4325POPC   C3B55629  16.307  13.459   6.967
 4325POPC   C4B55630  16.359  13.203   7.341
 4326POPC   NC355631  18.745   1.719   5.475
 4326POPC   PO455632  18.166   2.141   5.403
 4326POPC   GL155633  18.312   2.102   5.865
 4326POPC   GL255634  18.542   1.809   5.986
 4326POPC   C1A55635  18.185   2.011   6.300
 4326POPC   D2A55636  18.342   1.871   6.677
 4326POPC   C3A55637  18.404   2.191   6.931
 4326POPC   C4A55638  18.082   2.041   7.191
 4326POPC   C1B55639  18.709   2.058   6.364
 4326POPC   C2B55640  18.865   1.904   6.769
 4326POPC   C3B55641  18.860   1.565   7.059
 4326POPC   C4B55642  18.510   1.770   7.173
 4327POPC   NC355643  34.110   8.306   5.491
 4327POPC   PO455644  33.458   8.098   5.593
 4327POPC   GL155645  33.637   8.317   5.959
 4327POPC   GL255646  33.984   8.276   6.032
 4327POPC   C1A55647  33.504   8.303   6.422
 4327POPC   D2A55648  33.713   8.109   6.801
 4327POPC   C3A55649  33.613   8.205   7.195
 4327POPC   C4A55650  33.267   7.988   7.199
 4327POPC   C1B55651  33.978   7.971   6.391
 4327POPC   C2B55652  34.187   7.928   6.824
 4327POPC   C3B55653  34.129   8.035   7.263
 4327POPC   C4B55654  33.933   8.356   7.557
 4328POPC   NC355655  11.007  36.116   5.414
 4328POPC   PO455656  11.560  35.847   5.404
 4328POPC   GL155657  11.408  36.017   5.851
 4328POPC   GL255658  11.178  36.292   5.873
 4328POPC   C1A55659  11.391  36.132   6.336
 4328POPC   D2A55660  11.509  36.426   6.690
 4328POPC   C3A55661  11.401  36.294   7.113
 4328POPC   C4A55662  11.626  36.294   7.530
 4328POPC   C1B55663  10.952  36.016   6.124
 4328POPC   C2B55664  10.914  36.214   6.539
 4328POPC   C3B55665  10.854  36.131   6.931
 4328POPC   C4B55666  10.964  36.121   7.317
 4329POPC   NC355667  39.600  33.328   5.130
 4329POPC   PO455668  39.269  32.797   5.419
 4329POPC   GL155669  39.231  32.964   5.856
 4329POPC   GL255670  38.940  32.771   5.828
 4329POPC   C1A55671  39.359  33.016   6.303
 4329POPC   D2A55672  39.203  32.812   6.689
 4329POPC   C3A55673  39.389  32.947   7.093
 4329POPC   C4A55674  39.550  32.777   7.501
 4329POPC   C1B55675  38.860  33.092   6.168
 4329POPC   C2B55676  38.924  33.254   6.595
 4329POPC   C3B55677  38.907  33.089   7.011
 4329POPC   C4B55678  39.040  33.278   7.426
 4330POPC   NC355679  44.599  31.483   5.407
 4330POPC   PO455680   0.253  31.627   5.492
 4330POPC   GL155681  44.946  31.482   5.819
 4330POPC   GL255682  44.567  31.492   5.901
 4330POPC   C1A55683   0.041  31.486   6.259
 4330POPC   D2A55684   0.006  31.779   6.604
 4330POPC   C3A55685  44.912  31.664   7.026
 4330POPC   C4A55686  44.976  31.272   7.223
 4330POPC   C1B55687  44.557  31.621   6.294
 4330POPC   C2B55688  44.677  31.369   6.661
 4330POPC   C3B55689  44.488  31.339   7.058
 4330POPC   C4B55690  44.386  31.727   7.246
 4331POPC   NC355691  10.090  17.050   5.488
 4331POPC   PO455692   9.349  16.853   5.424
 4331POPC   GL155693   9.637  16.722   5.795
 4331POPC   GL255694   9.959  16.808   5.929
 4331POPC   C1A55695   9.648  16.561   6.249
 4331POPC   D2A55696   9.574  16.787   6.646
 4331POPC   C3A55697   9.713  16.616   7.056
 4331POPC   C4A55698   9.461  16.588   7.439
 4331POPC   C1B55699  10.035  16.998   6.336
 4331POPC   C2B55700   9.961  17.334   6.649
 4331POPC   C3B55701   9.751  17.138   6.992
 4331POPC   C4B55702   9.753  17.003   7.393
 4332POPC   NC355703  29.085  40.301   5.607
 4332POPC   PO455704  29.477  40.859   5.550
 4332POPC   GL155705  29.262  41.035   5.907
 4332POPC   GL255706  28.906  40.879   5.912
 4332POPC   C1A55707  29.241  40.921   6.332
 4332POPC   D2A55708  29.323  40.563   6.618
 4332POPC   C3A55709  29.356  40.759   7.031
 4332POPC   C4A55710  29.314  40.607   7.470
 4332POPC   C1B55711  28.856  40.624   6.285
 4332POPC   C2B55712  28.862  40.735   6.750
 4332POPC   C3B55713  28.877  40.775   7.193
 4332POPC   C4B55714  28.933  41.067   7.505
 4333POPC   NC355715  11.978  38.711   5.440
 4333POPC   PO455716  12.185  38.047   5.415
 4333POPC   GL155717  12.278  38.171   5.825
 4333POPC   GL255718  12.238  38.527   5.847
 4333POPC   C1A55719  12.314  38.228   6.264
 4333POPC   D2A55720  12.188  38.415   6.660
 4333POPC   C3A55721  11.995  38.216   7.022
 4333POPC   C4A55722  12.331  38.101   7.271
 4333POPC   C1B55723  12.021  38.692   6.209
 4333POPC   C2B55724  11.909  38.856   6.623
 4333POPC   C3B55725  11.980  38.724   7.046
 4333POPC   C4B55726  12.100  38.513   7.460
 4334POPC   NC355727   0.976   5.330   5.408
 4334POPC   PO455728   1.647   5.137   5.384
 4334POPC   GL155729   1.294   5.101   5.739
 4334POPC   GL255730   1.181   5.445   5.864
 4334POPC   C1A55731   1.129   5.042   6.209
 4334POPC   D2A55732   1.096   4.927   6.685
 4334POPC   C3A55733   1.491   4.898   6.946
 4334POPC   C4A55734   1.609   4.960   7.376
 4334POPC   C1B55735   1.023   5.555   6.282
 4334POPC   C2B55736   1.044   5.479   6.699
 4334POPC   C3B55737   1.209   5.362   7.077
 4334POPC   C4B55738   1.087   5.029   7.299
 4335POPC   NC355739  17.978   3.723   5.489
 4335POPC   PO455740  17.615   3.270   5.371
 4335POPC   GL155741  17.562   3.345   5.823
 4335POPC   GL255742  17.628   3.647   5.871
 4335POPC   C1A55743  17.576   3.250   6.263
 4335POPC   D2A55744  17.274   3.251   6.594
 4335POPC   C3A55745  17.478   3.240   6.980
 4335POPC   C4A55746  17.808   3.359   7.203
 4335POPC   C1B55747  17.719   3.759   6.264
 4335POPC   C2B55748  17.632   3.626   6.666
 4335POPC   C3B55749  17.412   3.760   7.023
 4335POPC   C4B55750  17.560   3.808   7.434
 4336POPC   NC355751  41.058  29.138   5.515
 4336POPC   PO455752  40.599  29.582   5.188
 4336POPC   GL155753  40.644  29.430   5.680
 4336POPC   GL255754  40.476  29.134   5.866
 4336POPC   C1A55755  40.689  29.491   6.159
 4336POPC   D2A55756  40.883  29.372   6.555
 4336POPC   C3A55757  40.651  29.161   6.880
 4336POPC   C4A55758  40.413  29.250   7.261
 4336POPC   C1B55759  40.829  28.988   6.168
 4336POPC   C2B55760  40.957  28.759   6.558
 4336POPC   C3B55761  41.066  28.818   7.009
 4336POPC   C4B55762  40.934  29.188   7.301
 4337POPC   NC355763  30.667  35.707   5.573
 4337POPC   PO455764  31.009  35.177   5.394
 4337POPC   GL155765  30.900  35.157   5.862
 4337POPC   GL255766  30.553  35.051   5.878
 4337POPC   C1A55767  30.988  35.342   6.314
 4337POPC   D2A55768  30.782  35.672   6.612
 4337POPC   C3A55769  30.727  35.594   7.071
 4337POPC   C4A55770  30.864  35.615   7.532
 4337POPC   C1B55771  30.699  34.903   6.291
 4337POPC   C2B55772  30.611  35.174   6.646
 4337POPC   C3B55773  30.368  35.242   7.007
 4337POPC   C4B55774  30.620  35.172   7.363
 4338POPC   NC355775  36.209  23.248   5.631
 4338POPC   PO455776  36.162  22.717   5.240
 4338POPC   GL155777  36.094  22.735   5.720
 4338POPC   GL255778  36.424  22.780   5.893
 4338POPC   C1A55779  35.915  22.816   6.172
 4338POPC   D2A55780  35.926  22.574   6.578
 4338POPC   C3A55781  36.152  22.810   6.924
 4338POPC   C4A55782  36.088  22.911   7.384
 4338POPC   C1B55783  36.380  23.025   6.286
 4338POPC   C2B55784  36.243  23.256   6.657
 4338POPC   C3B55785  36.273  23.287   7.098
 4338POPC   C4B55786  36.309  23.347   7.546
 4339POPC   NC355787   0.621  19.447   5.446
 4339POPC   PO455788   0.441  18.731   5.417
 4339POPC   GL155789   0.457  19.009   5.759
 4339POPC   GL255790   0.130  19.137   5.842
 4339POPC   C1A55791   0.422  18.905   6.213
 4339POPC   D2A55792   0.268  18.758   6.621
 4339POPC   C3A55793   0.477  18.897   6.997
 4339POPC   C4A55794   0.565  19.265   7.250
 4339POPC   C1B55795   0.110  19.312   6.276
 4339POPC   C2B55796   0.094  19.272   6.744
 4339POPC   C3B55797   0.056  19.387   7.196
 4339POPC   C4B55798   0.274  19.429   7.640
 4340POPC   NC355799  31.354  36.765   5.467
 4340POPC   PO455800  31.310  37.342   5.177
 4340POPC   GL155801  31.359  37.145   5.774
 4340POPC   GL255802  31.604  36.871   5.871
 4340POPC   C1A55803  31.362  37.073   6.268
 4340POPC   D2A55804  31.155  37.074   6.703
 4340POPC   C3A55805  31.402  36.951   7.094
 4340POPC   C4A55806  31.443  37.036   7.568
 4340POPC   C1B55807  31.855  36.784   6.194
 4340POPC   C2B55808  31.757  36.831   6.616
 4340POPC   C3B55809  31.794  36.615   6.990
 4340POPC   C4B55810  31.705  36.635   7.428
 4341POPC   NC355811  17.218  16.030   5.197
 4341POPC   PO455812  17.779  15.787   5.528
 4341POPC   GL155813  17.449  15.927   5.781
 4341POPC   GL255814  17.497  15.662   6.006
 4341POPC   C1A55815  17.355  16.124   6.197
 4341POPC   D2A55816  17.312  16.025   6.660
 4341POPC   C3A55817  17.379  16.173   7.115
 4341POPC   C4A55818  17.210  15.886   7.490
 4341POPC   C1B55819  17.666  15.754   6.403
 4341POPC   C2B55820  17.639  15.662   6.834
 4341POPC   C3B55821  17.677  15.776   7.263
 4341POPC   C4B55822  17.985  15.940   7.551
 4342POPC   NC355823  17.245  41.084   5.222
 4342POPC   PO455824  17.718  40.652   5.232
 4342POPC   GL155825  17.632  40.742   5.709
 4342POPC   GL255826  17.298  40.928   5.783
 4342POPC   C1A55827  17.515  40.674   6.174
 4342POPC   D2A55828  17.610  40.912   6.551
 4342POPC   C3A55829  17.418  40.772   6.909
 4342POPC   C4A55830  17.674  40.780   7.277
 4342POPC   C1B55831  17.367  41.186   6.209
 4342POPC   C2B55832  17.337  41.317   6.698
 4342POPC   C3B55833  17.371  41.200   7.177
 4342POPC   C4B55834  17.278  40.986   7.567
 4343POPC   NC355835  17.744   5.232   5.618
 4343POPC   PO455836  17.174   4.885   5.542
 4343POPC   GL155837  17.391   5.010   5.912
 4343POPC   GL255838  17.632   4.772   5.905
 4343POPC   C1A55839  17.549   5.128   6.351
 4343POPC   D2A55840  17.398   5.116   6.806
 4343POPC   C3A55841  17.628   5.357   7.162
 4343POPC   C4A55842  17.560   5.474   7.622
 4343POPC   C1B55843  17.849   4.721   6.261
 4343POPC   C2B55844  17.933   4.910   6.633
 4343POPC   C3B55845  17.795   4.887   7.015
 4343POPC   C4B55846  17.862   4.622   7.312
 4344POPC   NC355847  42.828  41.235   5.690
 4344POPC   PO455848  43.357  40.836   5.582
 4344POPC   GL155849  42.982  40.772   5.903
 4344POPC   GL255850  42.723  41.005   6.123
 4344POPC   C1A55851  42.969  40.574   6.332
 4344POPC   D2A55852  43.230  40.431   6.697
 4344POPC   C3A55853  43.187  40.657   7.094
 4344POPC   C4A55854  43.369  40.808   7.494
 4344POPC   C1B55855  43.144  41.100   6.296
 4344POPC   C2B55856  43.316  41.018   6.709
 4344POPC   C3B55857  43.193  41.190   7.128
 4344POPC   C4B55858  42.755  41.204   7.280
 4345POPC   NC355859  11.832  39.368   5.553
 4345POPC   PO455860  12.396  38.951   5.427
 4345POPC   GL155861  12.184  39.058   5.828
 4345POPC   GL255862  12.473  39.249   5.926
 4345POPC   C1A55863  11.842  39.193   6.171
 4345POPC   D2A55864  11.728  39.585   6.400
 4345POPC   C3A55865  11.789  39.577   6.831
 4345POPC   C4A55866  11.778  39.231   7.099
 4345POPC   C1B55867  12.314  39.166   6.355
 4345POPC   C2B55868  12.227  39.292   6.799
 4345POPC   C3B55869  12.253  39.094   7.234
 4345POPC   C4B55870  12.243  38.935   7.690
 4346POPC   NC355871  35.592  17.165   5.393
 4346POPC   PO455872  35.555  17.804   5.525
 4346POPC   GL155873  35.490  17.470   5.767
 4346POPC   GL255874  35.158  17.426   5.687
 4346POPC   C1A55875  35.620  17.301   6.139
 4346POPC   D2A55876  35.689  17.562   6.498
 4346POPC   C3A55877  35.396  17.496   6.840
 4346POPC   C4A55878  35.492  17.390   7.264
 4346POPC   C1B55879  35.206  17.621   6.142
 4346POPC   C2B55880  34.980  17.735   6.505
 4346POPC   C3B55881  34.968  17.802   6.940
 4346POPC   C4B55882  34.945  17.479   7.243
 4347POPC   NC355883  43.323  37.879   5.428
 4347POPC   PO455884  43.288  37.307   5.783
 4347POPC   GL155885  43.139  37.708   5.896
 4347POPC   GL255886  43.261  38.053   5.885
 4347POPC   C1A55887  43.033  37.707   6.311
 4347POPC   D2A55888  43.268  37.531   6.655
 4347POPC   C3A55889  42.969  37.351   6.948
 4347POPC   C4A55890  42.995  37.427   7.360
 4347POPC   C1B55891  43.152  38.207   6.270
 4347POPC   C2B55892  42.963  38.078   6.651
 4347POPC   C3B55893  43.118  37.862   7.022
 4347POPC   C4B55894  43.132  37.940   7.463
 4348POPC   NC355895  36.260  31.198   5.322
 4348POPC   PO455896  35.959  31.750   5.497
 4348POPC   GL155897  35.915  31.441   5.783
 4348POPC   GL255898  36.247  31.326   5.834
 4348POPC   C1A55899  35.969  31.594   6.200
 4348POPC   D2A55900  36.137  31.583   6.598
 4348POPC   C3A55901  35.965  31.352   6.939
 4348POPC   C4A55902  35.749  31.491   7.274
 4348POPC   C1B55903  36.230  31.159   6.247
 4348POPC   C2B55904  36.441  31.188   6.639
 4348POPC   C3B55905  36.469  31.427   6.991
 4348POPC   C4B55906  36.307  31.125   7.257
 4349POPC   NC355907  32.830  31.452   5.345
 4349POPC   PO455908  33.398  31.081   5.509
 4349POPC   GL155909  33.130  31.225   5.825
 4349POPC   GL255910  32.992  31.539   5.839
 4349POPC   C1A55911  33.149  31.330   6.269
 4349POPC   D2A55912  33.155  31.613   6.591
 4349POPC   C3A55913  33.216  31.356   6.934
 4349POPC   C4A55914  32.980  31.171   7.239
 4349POPC   C1B55915  32.688  31.521   6.220
 4349POPC   C2B55916  32.650  31.716   6.665
 4349POPC   C3B55917  32.812  31.698   7.099
 4349POPC   C4B55918  32.814  31.839   7.582
 4350POPC   NC355919  37.684   4.065   5.439
 4350POPC   PO455920  37.285   4.625   5.384
 4350POPC   GL155921  37.417   4.389   5.817
 4350POPC   GL255922  37.790   4.386   5.871
 4350POPC   C1A55923  37.498   4.263   6.307
 4350POPC   D2A55924  37.414   4.468   6.737
 4350POPC   C3A55925  37.551   4.299   7.160
 4350POPC   C4A55926  37.482   4.366   7.624
 4350POPC   C1B55927  38.011   4.173   6.242
 4350POPC   C2B55928  38.151   4.211   6.683
 4350POPC   C3B55929  38.030   4.493   7.036
 4350POPC   C4B55930  37.861   4.622   7.429
 4351POPC   NC355931  26.251  21.533   5.650
 4351POPC   PO455932  26.754  21.290   5.287
 4351POPC   GL155933  26.784  21.454   5.697
 4351POPC   GL255934  26.596  21.159   5.782
 4351POPC   C1A55935  26.989  21.605   6.092
 4351POPC   D2A55936  26.844  21.648   6.542
 4351POPC   C3A55937  26.961  21.396   6.895
 4351POPC   C4A55938  26.853  21.625   7.271
 4351POPC   C1B55939  26.568  21.335   6.217
 4351POPC   C2B55940  26.460  21.208   6.637
 4351POPC   C3B55941  26.507  21.284   7.080
 4351POPC   C4B55942  26.689  21.190   7.485
 4352POPC   NC355943  32.170  31.275   5.477
 4352POPC   PO455944  32.503  31.768   5.246
 4352POPC   GL155945  32.493  31.589   5.713
 4352POPC   GL255946  32.443  31.914   5.791
 4352POPC   C1A55947  32.233  31.354   6.094
 4352POPC   D2A55948  32.255  31.425   6.532
 4352POPC   C3A55949  31.985  31.304   6.860
 4352POPC   C4A55950  32.112  31.374   7.292
 4352POPC   C1B55951  32.277  31.849   6.187
 4352POPC   C2B55952  32.211  31.986   6.574
 4352POPC   C3B55953  32.184  31.778   6.951
 4352POPC   C4B55954  32.375  31.815   7.323
 4353POPC   NC355955  32.123  35.449   5.361
 4353POPC   PO455956  32.518  35.849   5.497
 4353POPC   GL155957  32.371  35.519   5.795
 4353POPC   GL255958  32.625  35.590   6.015
 4353POPC   C1A55959  32.086  35.214   6.049
 4353POPC   D2A55960  31.947  35.084   6.474
 4353POPC   C3A55961  32.258  35.103   6.812
 4353POPC   C4A55962  32.247  35.050   7.240
 4353POPC   C1B55963  32.243  35.651   6.294
 4353POPC   C2B55964  31.987  35.558   6.643
 4353POPC   C3B55965  32.115  35.524   7.080
 4353POPC   C4B55966  32.383  35.744   7.373
 4354POPC   NC355967  21.986  41.815   5.287
 4354POPC   PO455968  21.858  41.197   5.410
 4354POPC   GL155969  21.865  41.420   5.821
 4354POPC   GL255970  22.151  41.647   5.819
 4354POPC   C1A55971  21.898  41.527   6.270
 4354POPC   D2A55972  22.180  41.639   6.633
 4354POPC   C3A55973  22.082  41.454   7.035
 4354POPC   C4A55974  21.719  41.459   7.315
 4354POPC   C1B55975  22.398  41.437   6.189
 4354POPC   C2B55976  22.596  41.343   6.610
 4354POPC   C3B55977  22.533  41.193   7.055
 4354POPC   C4B55978  22.653  41.359   7.474
 4355POPC   NC355979  44.807  27.400   5.351
 4355POPC   PO455980  44.299  27.809   5.424
 4355POPC   GL155981  44.636  27.928   5.686
 4355POPC   GL255982  44.643  27.583   5.795
 4355POPC   C1A55983  44.698  27.945   6.138
 4355POPC   D2A55984  44.509  27.700   6.502
 4355POPC   C3A55985  44.508  27.589   6.931
 4355POPC   C4A55986  44.467  27.668   7.393
 4355POPC   C1B55987  44.837  27.457   6.177
 4355POPC   C2B55988  44.740  27.250   6.566
 4355POPC   C3B55989   0.006  27.353   6.908
 4355POPC   C4B55990  44.882  27.465   7.235
 4356POPC   NC355991   2.405  40.550   5.401
 4356POPC   PO455992   1.897  41.022   5.343
 4356POPC   GL155993   2.192  40.898   5.712
 4356POPC   GL255994   2.106  40.544   5.820
 4356POPC   C1A55995   2.396  40.870   6.136
 4356POPC   D2A55996   2.136  40.877   6.509
 4356POPC   C3A55997   2.226  40.895   6.947
 4356POPC   C4A55998   1.836  41.009   7.182
 4356POPC   C1B55999   2.159  40.427   6.255
 4356POPC   C2B56000   2.372  40.413   6.665
 4356POPC   C3B56001   2.271  40.394   7.127
 4356POPC   C4B56002   2.428  40.203   7.524
 4357POPC   NC356003  27.457  30.441   5.691
 4357POPC   PO456004  27.664  29.914   5.295
 4357POPC   GL156005  27.767  30.032   5.751
 4357POPC   GL256006  27.815  29.710   5.900
 4357POPC   C1A56007  27.618  30.104   6.233
 4357POPC   D2A56008  27.408  29.845   6.583
 4357POPC   C3A56009  27.422  29.925   7.048
 4357POPC   C4A56010  27.711  30.031   7.399
 4357POPC   C1B56011  27.992  29.777   6.325
 4357POPC   C2B56012  27.886  29.965   6.726
 4357POPC   C3B56013  27.898  29.705   7.071
 4357POPC   C4B56014  27.555  29.417   7.169
 4358POPC   NC356015  21.736  13.893   5.518
 4358POPC   PO456016  21.180  13.567   5.599
 4358POPC   GL156017  21.502  13.417   5.885
 4358POPC   GL256018  21.673  13.722   5.991
 4358POPC   C1A56019  21.546  13.360   6.335
 4358POPC   D2A56020  21.397  13.568   6.709
 4358POPC   C3A56021  21.456  13.388   7.118
 4358POPC   C4A56022  21.226  13.351   7.508
 4358POPC   C1B56023  21.387  13.963   6.255
 4358POPC   C2B56024  21.330  14.078   6.690
 4358POPC   C3B56025  21.315  13.892   7.105
 4358POPC   C4B56026  21.445  13.814   7.523
 4359POPC   NC356027  11.772   0.286   5.482
 4359POPC   PO456028  11.001   0.405   5.427
 4359POPC   GL156029  11.350   0.388   5.783
 4359POPC   GL256030  11.520   0.696   5.786
 4359POPC   C1A56031  11.393   0.246   6.232
 4359POPC   D2A56032  11.450   0.264   6.693
 4359POPC   C3A56033  11.321   0.114   7.098
 4359POPC   C4A56034  11.589   0.237   7.502
 4359POPC   C1B56035  11.157   0.714   6.112
 4359POPC   C2B56036  11.206   0.724   6.565
 4359POPC   C3B56037  11.448   0.709   6.950
 4359POPC   C4B56038  11.247   0.566   7.303
 4360POPC   NC356039  32.360   3.842   5.481
 4360POPC   PO456040  32.102   3.230   5.474
 4360POPC   GL156041  32.226   3.441   5.801
 4360POPC   GL256042  32.309   3.144   5.963
 4360POPC   C1A56043  32.405   3.639   6.151
 4360POPC   D2A56044  32.548   3.407   6.498
 4360POPC   C3A56045  32.407   3.600   6.883
 4360POPC   C4A56046  32.374   3.559   7.295
 4360POPC   C1B56047  32.025   3.303   6.273
 4360POPC   C2B56048  32.087   3.241   6.682
 4360POPC   C3B56049  32.143   3.140   7.091
 4360POPC   C4B56050  31.857   3.032   7.379
 4361POPC   NC356051  33.643  21.915   5.241
 4361POPC   PO456052  34.161  22.415   5.361
 4361POPC   GL156053  33.958  22.235   5.703
 4361POPC   GL256054  34.154  22.005   5.947
 4361POPC   C1A56055  33.710  22.289   6.062
 4361POPC   D2A56056  33.840  22.131   6.446
 4361POPC   C3A56057  33.569  22.087   6.783
 4361POPC   C4A56058  33.534  22.337   7.108
 4361POPC   C1B56059  34.201  22.422   6.183
 4361POPC   C2B56060  34.113  22.529   6.628
 4361POPC   C3B56061  34.046  22.359   7.043
 4361POPC   C4B56062  33.981  22.552   7.475
 4362POPC   NC356063   8.462  44.354   5.312
 4362POPC   PO456064   8.260  43.748   5.144
 4362POPC   GL156065   8.274  44.016   5.662
 4362POPC   GL256066   8.254  43.769   5.960
 4362POPC   C1A56067   8.387  44.210   6.120
 4362POPC   D2A56068   8.242  43.969   6.522
 4362POPC   C3A56069   8.418  43.801   6.927
 4362POPC   C4A56070   8.323  43.901   7.353
 4362POPC   C1B56071   7.893  43.540   6.137
 4362POPC   C2B56072   7.832  43.293   6.491
 4362POPC   C3B56073   8.078  43.282   6.863
 4362POPC   C4B56074   8.091  43.467   7.257
 4363POPC   NC356075   5.485   2.382   5.631
 4363POPC   PO456076   5.800   1.961   5.139
 4363POPC   GL156077   5.775   1.787   5.634
 4363POPC   GL256078   5.963   1.956   5.864
 4363POPC   C1A56079   5.599   1.752   6.139
 4363POPC   D2A56080   5.636   1.964   6.597
 4363POPC   C3A56081   5.841   1.832   6.987
 4363POPC   C4A56082   5.623   1.632   7.351
 4363POPC   C1B56083   5.864   2.220   6.202
 4363POPC   C2B56084   6.053   2.257   6.603
 4363POPC   C3B56085   5.887   2.330   6.988
 4363POPC   C4B56086   6.225   2.399   7.194
 4364POPC   NC356087  13.420  37.943   5.462
 4364POPC   PO456088  14.004  37.461   5.397
 4364POPC   GL156089  13.724  37.658   5.744
 4364POPC   GL256090  13.768  37.455   6.018
 4364POPC   C1A56091  13.350  37.801   6.114
 4364POPC   D2A56092  13.400  38.055   6.554
 4364POPC   C3A56093  13.478  37.919   7.025
 4364POPC   C4A56094  13.549  37.537   7.315
 4364POPC   C1B56095  13.831  37.889   6.196
 4364POPC   C2B56096  13.937  38.001   6.599
 4364POPC   C3B56097  13.997  37.780   6.965
 4364POPC   C4B56098  13.901  37.894   7.371
 4365POPC   NC356099   1.355  38.600   5.509
 4365POPC   PO456100   1.197  37.945   5.311
 4365POPC   GL156101   1.290  38.153   5.757
 4365POPC   GL256102   1.059  38.433   5.904
 4365POPC   C1A56103   1.355  38.190   6.231
 4365POPC   D2A56104   1.125  38.380   6.594
 4365POPC   C3A56105   1.331  38.272   6.988
 4365POPC   C4A56106   1.593  38.410   7.315
 4365POPC   C1B56107   1.327  38.719   6.224
 4365POPC   C2B56108   1.504  38.714   6.696
 4365POPC   C3B56109   1.282  38.782   7.101
 4365POPC   C4B56110   0.926  38.905   7.342
 4366POPC   NC356111  44.269  11.952   5.100
 4366POPC   PO456112  43.647  11.929   5.304
 4366POPC   GL156113  43.847  12.178   5.670
 4366POPC   GL256114  43.946  11.872   5.757
 4366POPC   C1A56115  44.113  12.194   6.115
 4366POPC   D2A56116  44.213  12.027   6.554
 4366POPC   C3A56117  44.165  12.311   6.939
 4366POPC   C4A56118  43.764  12.413   7.163
 4366POPC   C1B56119  43.677  11.940   6.131
 4366POPC   C2B56120  43.734  11.763   6.534
 4366POPC   C3B56121  43.835  11.921   6.942
 4366POPC   C4B56122  43.580  11.942   7.293
 4367POPC   NC356123  41.078  19.341   5.035
 4367POPC   PO456124  40.854  18.846   5.451
 4367POPC   GL156125  40.899  18.955   5.857
 4367POPC   GL256126  41.192  18.758   5.856
 4367POPC   C1A56127  40.706  19.083   6.257
 4367POPC   D2A56128  40.554  19.487   6.472
 4367POPC   C3A56129  40.661  19.414   6.908
 4367POPC   C4A56130  40.761  19.011   7.105
 4367POPC   C1B56131  41.152  18.847   6.286
 4367POPC   C2B56132  40.973  18.768   6.684
 4367POPC   C3B56133  41.199  18.698   7.075
 4367POPC   C4B56134  41.140  18.939   7.449
 4368POPC   NC356135  30.559  41.636   5.380
 4368POPC   PO456136  30.799  41.028   5.344
 4368POPC   GL156137  30.914  41.241   5.771
 4368POPC   GL256138  30.668  41.484   5.857
 4368POPC   C1A56139  31.056  41.409   6.176
 4368POPC   D2A56140  30.871  41.650   6.493
 4368POPC   C3A56141  30.897  41.500   6.918
 4368POPC   C4A56142  30.811  41.677   7.319
 4368POPC   C1B56143  30.407  41.676   6.170
 4368POPC   C2B56144  30.344  41.664   6.593
 4368POPC   C3B56145  30.389  41.692   7.019
 4368POPC   C4B56146  30.244  41.518   7.409
 4369POPC   NC356147  36.839  22.059   5.538
 4369POPC   PO456148  37.416  21.675   5.536
 4369POPC   GL156149  37.170  21.860   5.862
 4369POPC   GL256150  37.256  22.211   5.810
 4369POPC   C1A56151  36.825  21.853   6.184
 4369POPC   D2A56152  36.773  22.113   6.568
 4369POPC   C3A56153  36.748  21.970   6.996
 4369POPC   C4A56154  36.437  21.980   7.309
 4369POPC   C1B56155  37.188  22.222   6.257
 4369POPC   C2B56156  37.056  22.523   6.574
 4369POPC   C3B56157  37.071  22.372   6.986
 4369POPC   C4B56158  37.374  22.081   7.187
 4370POPC   NC356159  13.263  23.237   5.419
 4370POPC   PO456160  13.404  23.931   5.423
 4370POPC   GL156161  13.334  23.617   5.762
 4370POPC   GL256162  13.616  23.392   5.805
 4370POPC   C1A56163  13.316  23.533   6.212
 4370POPC   D2A56164  13.612  23.767   6.478
 4370POPC   C3A56165  13.618  23.782   6.933
 4370POPC   C4A56166  13.591  24.001   7.342
 4370POPC   C1B56167  13.830  23.397   6.212
 4370POPC   C2B56168  13.820  23.365   6.667
 4370POPC   C3B56169  13.824  23.342   7.067
 4370POPC   C4B56170  13.942  23.620   7.314
 4371POPC   NC356171  33.769   2.004   5.558
 4371POPC   PO456172  33.364   1.458   5.437
 4371POPC   GL156173  33.637   1.561   5.829
 4371POPC   GL256174  34.000   1.742   5.918
 4371POPC   C1A56175  33.765   1.517   6.283
 4371POPC   D2A56176  33.803   1.893   6.527
 4371POPC   C3A56177  33.762   1.891   6.968
 4371POPC   C4A56178  34.030   1.798   7.352
 4371POPC   C1B56179  34.096   2.160   6.161
 4371POPC   C2B56180  34.039   2.337   6.591
 4371POPC   C3B56181  34.146   2.195   6.989
 4371POPC   C4B56182  34.049   2.313   7.396
 4372POPC   NC356183  19.564  38.472   5.353
 4372POPC   PO456184  20.221  38.457   5.411
 4372POPC   GL156185  19.853  38.428   5.767
 4372POPC   GL256186  19.628  38.739   5.829
 4372POPC   C1A56187  19.608  38.313   6.159
 4372POPC   D2A56188  19.691  38.074   6.571
 4372POPC   C3A56189  19.727  38.220   7.006
 4372POPC   C4A56190  19.630  38.088   7.429
 4372POPC   C1B56191  19.787  38.870   6.268
 4372POPC   C2B56192  19.858  38.877   6.759
 4372POPC   C3B56193  20.137  38.826   7.156
 4372POPC   C4B56194  20.307  38.599   7.564
 4373POPC   NC356195  16.989  31.944   5.612
 4373POPC   PO456196  16.687  31.663   5.088
 4373POPC   GL156197  16.697  31.530   5.615
 4373POPC   GL256198  16.377  31.513   5.829
 4373POPC   C1A56199  16.894  31.490   6.095
 4373POPC   D2A56200  17.082  31.325   6.526
 4373POPC   C3A56201  16.930  31.446   6.944
 4373POPC   C4A56202  16.811  31.222   7.332
 4373POPC   C1B56203  16.470  31.734   6.236
 4373POPC   C2B56204  16.523  31.476   6.615
 4373POPC   C3B56205  16.421  31.535   7.060
 4373POPC   C4B56206  16.195  31.901   7.207
 4374POPC   NC356207  14.260   8.474   5.549
 4374POPC   PO456208  14.650   8.020   5.316
 4374POPC   GL156209  14.619   8.131   5.760
 4374POPC   GL256210  14.682   8.486   5.875
 4374POPC   C1A56211  14.505   8.014   6.211
 4374POPC   D2A56212  14.495   8.172   6.661
 4374POPC   C3A56213  14.423   8.011   7.100
 4374POPC   C4A56214  14.726   7.828   7.403
 4374POPC   C1B56215  14.396   8.541   6.260
 4374POPC   C2B56216  14.118   8.499   6.667
 4374POPC   C3B56217  14.367   8.551   7.083
 4374POPC   C4B56218  14.178   8.498   7.521
 4375POPC   NC356219  15.460   7.645   5.403
 4375POPC   PO456220  14.971   7.209   5.403
 4375POPC   GL156221  15.121   7.469   5.751
 4375POPC   GL256222  15.165   7.170   5.910
 4375POPC   C1A56223  15.216   7.623   6.199
 4375POPC   D2A56224  15.494   7.856   6.494
 4375POPC   C3A56225  15.388   7.682   6.913
 4375POPC   C4A56226  15.027   7.497   7.140
 4375POPC   C1B56227  15.413   7.151   6.261
 4375POPC   C2B56228  15.247   7.238   6.657
 4375POPC   C3B56229  15.409   7.155   7.052
 4375POPC   C4B56230  15.129   7.074   7.410
 4376POPC   NC356231  32.631  40.334   5.292
 4376POPC   PO456232  32.020  40.069   5.526
 4376POPC   GL156233  32.218  39.949   5.886
 4376POPC   GL256234  32.578  40.081   5.829
 4376POPC   C1A56235  32.083  39.736   6.273
 4376POPC   D2A56236  32.044  39.867   6.700
 4376POPC   C3A56237  32.087  39.637   7.082
 4376POPC   C4A56238  32.045  39.824   7.501
 4376POPC   C1B56239  32.529  40.038   6.290
 4376POPC   C2B56240  32.450  40.203   6.705
 4376POPC   C3B56241  32.170  40.225   7.056
 4376POPC   C4B56242  32.043  40.538   7.355
 4377POPC   NC356243  16.906  10.881   5.535
 4377POPC   PO456244  16.251  10.633   5.427
 4377POPC   GL156245  16.541  10.594   5.773
 4377POPC   GL256246  16.404  10.941   5.831
 4377POPC   C1A56247  16.835  10.415   6.148
 4377POPC   D2A56248  16.926  10.503   6.630
 4377POPC   C3A56249  16.602  10.410   6.966
 4377POPC   C4A56250  16.694  10.250   7.384
 4377POPC   C1B56251  16.597  10.864   6.214
 4377POPC   C2B56252  16.708  10.991   6.601
 4377POPC   C3B56253  16.732  10.903   6.989
 4377POPC   C4B56254  16.554  10.769   7.370
 4378POPC   NC356255   0.821  38.224   5.313
 4378POPC   PO456256   0.173  38.347   5.283
 4378POPC   GL156257   0.427  38.477   5.687
 4378POPC   GL256258   0.143  38.523   5.896
 4378POPC   C1A56259   0.576  38.568   6.149
 4378POPC   D2A56260   0.302  38.494   6.537
 4378POPC   C3A56261   0.499  38.598   6.942
 4378POPC   C4A56262   0.860  38.451   7.122
 4378POPC   C1B56263   0.283  38.140   6.136
 4378POPC   C2B56264   0.253  37.964   6.540
 4378POPC   C3B56265   0.254  38.145   6.941
 4378POPC   C4B56266   0.416  38.231   7.323
 4379POPC   NC356267  22.798   9.441   5.465
 4379POPC   PO456268  22.689  10.111   5.408
 4379POPC   GL156269  22.718   9.861   5.770
 4379POPC   GL256270  23.076   9.797   5.749
 4379POPC   C1A56271  22.658   9.716   6.199
 4379POPC   D2A56272  22.864   9.805   6.593
 4379POPC   C3A56273  22.748   9.609   6.990
 4379POPC   C4A56274  22.843   9.888   7.362
 4379POPC   C1B56275  23.088   9.473   6.060
 4379POPC   C2B56276  23.119   9.392   6.489
 4379POPC   C3B56277  23.266   9.567   6.885
 4379POPC   C4B56278  23.119   9.451   7.307
 4380POPC   NC356279   5.940  24.704   5.243
 4380POPC   PO456280   5.490  24.292   5.422
 4380POPC   GL156281   5.781  24.332   5.787
 4380POPC   GL256282   6.000  24.626   5.759
 4380POPC   C1A56283   5.877  24.200   6.239
 4380POPC   D2A56284   5.655  24.426   6.586
 4380POPC   C3A56285   5.786  24.547   6.977
 4380POPC   C4A56286   6.128  24.325   7.129
 4380POPC   C1B56287   5.890  24.699   6.209
 4380POPC   C2B56288   6.156  24.583   6.593
 4380POPC   C3B56289   6.242  24.802   6.988
 4380POPC   C4B56290   5.974  24.885   7.338
 4381POPC   NC356291  10.613   9.303   5.507
 4381POPC   PO456292  10.953   8.751   5.573
 4381POPC   GL156293  10.518   8.824   5.708
 4381POPC   GL256294  10.382   9.093   5.896
 4381POPC   C1A56295  10.309   8.657   6.104
 4381POPC   D2A56296  10.433   8.888   6.473
 4381POPC   C3A56297  10.313   8.772   6.893
 4381POPC   C4A56298  10.570   8.857   7.242
 4381POPC   C1B56299  10.768   9.105   6.136
 4381POPC   C2B56300  10.683   9.362   6.489
 4381POPC   C3B56301  10.554   9.237   6.886
 4381POPC   C4B56302  10.178   9.272   7.165
 4382POPC   NC356303   4.139  28.285   5.679
 4382POPC   PO456304   4.581  28.831   5.582
 4382POPC   GL156305   4.507  28.562   5.940
 4382POPC   GL256306   4.592  28.187   5.941
 4382POPC   C1A56307   4.158  28.500   6.260
 4382POPC   D2A56308   3.955  28.330   6.604
 4382POPC   C3A56309   4.281  28.148   6.893
 4382POPC   C4A56310   4.190  28.278   7.339
 4382POPC   C1B56311   4.604  28.348   6.406
 4382POPC   C2B56312   4.390  28.619   6.706
 4382POPC   C3B56313   4.562  28.552   7.086
 4382POPC   C4B56314   4.686  28.299   7.428
 4383POPC   NC356315  22.361  12.020   5.445
 4383POPC   PO456316  21.941  11.814   5.798
 4383POPC   GL156317  22.242  12.018   5.946
 4383POPC   GL256318  22.177  12.327   5.789
 4383POPC   C1A56319  22.438  12.001   6.300
 4383POPC   D2A56320  22.480  12.181   6.658
 4383POPC   C3A56321  22.272  11.893   6.868
 4383POPC   C4A56322  22.413  11.759   7.261
 4383POPC   C1B56323  21.994  12.409   6.166
 4383POPC   C2B56324  21.970  12.208   6.506
 4383POPC   C3B56325  22.070  12.473   6.817
 4383POPC   C4B56326  22.247  12.291   7.155
 4384POPC   NC356327  41.845  30.871   5.451
 4384POPC   PO456328  41.251  30.468   5.352
 4384POPC   GL156329  41.366  30.633   5.749
 4384POPC   GL256330  41.717  30.608   5.859
 4384POPC   C1A56331  41.335  30.781   6.179
 4384POPC   D2A56332  41.157  30.723   6.572
 4384POPC   C3A56333  41.300  30.902   6.960
 4384POPC   C4A56334  41.362  30.648   7.321
 4384POPC   C1B56335  41.792  30.553   6.282
 4384POPC   C2B56336  41.693  30.767   6.655
 4384POPC   C3B56337  41.822  30.664   7.066
 4384POPC   C4B56338  42.028  30.810   7.424
 4385POPC   NC356339   4.773  10.306   5.405
 4385POPC   PO456340   5.282  10.546   5.368
 4385POPC   GL156341   5.202  10.318   5.752
 4385POPC   GL256342   4.918  10.099   5.847
 4385POPC   C1A56343   5.181  10.544   6.170
 4385POPC   D2A56344   4.980  10.488   6.578
 4385POPC   C3A56345   5.110  10.740   6.911
 4385POPC   C4A56346   4.965  10.681   7.301
 4385POPC   C1B56347   5.200  10.049   6.194
 4385POPC   C2B56348   5.376  10.157   6.587
 4385POPC   C3B56349   5.141  10.227   7.016
 4385POPC   C4B56350   4.881  10.123   7.407
 4386POPC   NC356351  25.743  33.665   5.356
 4386POPC   PO456352  26.390  34.063   5.448
 4386POPC   GL156353  26.262  33.898   5.845
 4386POPC   GL256354  25.997  33.667   5.800
 4386POPC   C1A56355  26.011  33.936   6.246
 4386POPC   D2A56356  25.715  33.934   6.600
 4386POPC   C3A56357  25.863  33.674   6.917
 4386POPC   C4A56358  26.038  33.775   7.319
 4386POPC   C1B56359  26.240  33.477   6.138
 4386POPC   C2B56360  26.299  33.657   6.576
 4386POPC   C3B56361  26.342  33.495   6.974
 4386POPC   C4B56362  26.040  33.280   7.208
 4387POPC   NC356363  43.234   3.476   5.413
 4387POPC   PO456364  42.778   4.002   5.335
 4387POPC   GL156365  42.952   3.768   5.716
 4387POPC   GL256366  43.342   3.827   5.770
 4387POPC   C1A56367  42.853   3.558   6.120
 4387POPC   D2A56368  42.683   3.576   6.543
 4387POPC   C3A56369  42.889   3.401   6.920
 4387POPC   C4A56370  42.844   3.612   7.300
 4387POPC   C1B56371  43.253   3.864   6.218
 4387POPC   C2B56372  43.214   3.687   6.640
 4387POPC   C3B56373  43.313   3.712   7.094
 4387POPC   C4B56374  43.693   3.744   7.408
 4388POPC   NC356375   7.536  22.118   5.409
 4388POPC   PO456376   6.921  21.983   5.645
 4388POPC   GL156377   7.224  22.282   5.766
 4388POPC   GL256378   7.114  22.574   5.950
 4388POPC   C1A56379   7.548  22.293   6.085
 4388POPC   D2A56380   7.449  22.441   6.484
 4388POPC   C3A56381   7.476  22.384   6.908
 4388POPC   C4A56382   7.204  22.570   7.200
 4388POPC   C1B56383   7.048  22.215   6.237
 4388POPC   C2B56384   7.072  21.976   6.615
 4388POPC   C3B56385   7.004  22.113   7.040
 4388POPC   C4B56386   7.096  22.132   7.486
 4389POPC   NC356387  21.813  17.087   5.410
 4389POPC   PO456388  21.297  16.675   5.520
 4389POPC   GL156389  21.312  16.862   5.922
 4389POPC   GL256390  21.636  17.021   5.900
 4389POPC   C1A56391  21.263  16.775   6.372
 4389POPC   D2A56392  21.057  16.832   6.779
 4389POPC   C3A56393  21.330  16.727   7.118
 4389POPC   C4A56394  21.536  16.502   7.435
 4389POPC   C1B56395  21.716  17.055   6.367
 4389POPC   C2B56396  21.690  16.907   6.802
 4389POPC   C3B56397  21.848  16.912   7.259
 4389POPC   C4B56398  21.906  17.077   7.708
 4390POPC   NC356399   8.828  38.710   5.327
 4390POPC   PO456400   9.240  38.304   5.564
 4390POPC   GL156401   8.964  38.533   5.790
 4390POPC   GL256402   8.760  38.261   5.865
 4390POPC   C1A56403   9.000  38.755   6.164
 4390POPC   D2A56404   8.947  38.625   6.579
 4390POPC   C3A56405   9.205  38.588   6.953
 4390POPC   C4A56406   8.991  38.499   7.340
 4390POPC   C1B56407   9.017  38.221   6.263
 4390POPC   C2B56408   8.980  38.148   6.742
 4390POPC   C3B56409   8.694  38.119   7.067
 4390POPC   C4B56410   8.741  38.059   7.493
 4391POPC   NC356411   2.229  41.358   5.459
 4391POPC   PO456412   1.757  41.921   5.409
 4391POPC   GL156413   1.850  41.700   5.756
 4391POPC   GL256414   2.187  41.703   5.855
 4391POPC   C1A56415   1.766  41.534   6.152
 4391POPC   D2A56416   1.921  41.623   6.555
 4391POPC   C3A56417   1.642  41.506   6.930
 4391POPC   C4A56418   1.832  41.512   7.336
 4391POPC   C1B56419   2.275  41.370   6.148
 4391POPC   C2B56420   2.387  41.341   6.576
 4391POPC   C3B56421   2.168  41.419   6.966
 4391POPC   C4B56422   2.266  41.213   7.354
 4392POPC   NC356423  25.858  14.658   5.396
 4392POPC   PO456424  26.128  14.066   5.306
 4392POPC   GL156425  26.076  14.291   5.695
 4392POPC   GL256426  26.343  14.549   5.852
 4392POPC   C1A56427  25.995  14.299   6.119
 4392POPC   D2A56428  26.235  14.139   6.475
 4392POPC   C3A56429  26.062  14.141   6.869
 4392POPC   C4A56430  26.194  14.385   7.214
 4392POPC   C1B56431  26.307  14.629   6.353
 4392POPC   C2B56432  26.248  14.696   6.821
 4392POPC   C3B56433  26.014  14.848   7.238
 4392POPC   C4B56434  25.790  14.551   7.536
 4393POPC   NC356435  13.173   0.856   5.371
 4393POPC   PO456436  12.662   1.155   5.325
 4393POPC   GL156437  12.829   1.058   5.734
 4393POPC   GL256438  12.828   1.407   5.781
 4393POPC   C1A56439  12.987   1.104   6.191
 4393POPC   D2A56440  12.749   0.928   6.575
 4393POPC   C3A56441  12.921   1.066   6.977
 4393POPC   C4A56442  13.149   1.215   7.351
 4393POPC   C1B56443  12.516   1.296   6.091
 4393POPC   C2B56444  12.462   1.352   6.527
 4393POPC   C3B56445  12.585   1.465   6.944
 4393POPC   C4B56446  12.495   1.247   7.323
 4394POPC   NC356447   7.820   6.401   5.611
 4394POPC   PO456448   8.197   6.865   5.338
 4394POPC   GL156449   8.283   6.539   5.776
 4394POPC   GL256450   7.991   6.467   6.070
 4394POPC   C1A56451   8.456   6.514   6.231
 4394POPC   D2A56452   8.239   6.687   6.594
 4394POPC   C3A56453   8.395   6.704   7.021
 4394POPC   C4A56454   8.516   7.062   7.275
 4394POPC   C1B56455   7.980   6.270   6.449
 4394POPC   C2B56456   8.041   6.325   6.888
 4394POPC   C3B56457   8.276   6.274   7.286
 4394POPC   C4B56458   8.261   6.246   7.742
 4395POPC   NC356459  39.199  22.588   5.285
 4395POPC   PO456460  39.144  21.990   5.519
 4395POPC   GL156461  39.238  22.329   5.780
 4395POPC   GL256462  39.555  22.474   5.695
 4395POPC   C1A56463  39.228  22.176   6.196
 4395POPC   D2A56464  39.264  22.340   6.580
 4395POPC   C3A56465  39.015  22.238   6.933
 4395POPC   C4A56466  39.112  22.352   7.358
 4395POPC   C1B56467  39.671  22.457   6.133
 4395POPC   C2B56468  39.783  22.371   6.565
 4395POPC   C3B56469  39.572  22.316   6.983
 4395POPC   C4B56470  39.592  22.441   7.406
 4396POPC   NC356471  11.047  40.159   5.421
 4396POPC   PO456472  11.499  39.671   5.379
 4396POPC   GL156473  11.407  39.915   5.755
 4396POPC   GL256474  11.060  39.851   5.853
 4396POPC   C1A56475  11.424  39.990   6.223
 4396POPC   D2A56476  11.300  39.856   6.651
 4396POPC   C3A56477  11.555  39.997   7.020
 4396POPC   C4A56478  11.697  39.725   7.358
 4396POPC   C1B56479  10.909  39.971   6.279
 4396POPC   C2B56480  10.869  40.159   6.718
 4396POPC   C3B56481  11.042  40.095   7.159
 4396POPC   C4B56482  10.943  40.041   7.628
 4397POPC   NC356483  27.830  19.881   5.351
 4397POPC   PO456484  27.169  19.705   5.435
 4397POPC   GL156485  27.402  19.780   5.850
 4397POPC   GL256486  27.328  19.483   6.021
 4397POPC   C1A56487  27.588  19.920   6.294
 4397POPC   D2A56488  27.921  20.205   6.530
 4397POPC   C3A56489  28.105  19.986   6.864
 4397POPC   C4A56490  27.965  19.588   7.036
 4397POPC   C1B56491  27.340  19.476   6.473
 4397POPC   C2B56492  27.482  19.615   6.857
 4397POPC   C3B56493  27.589  20.013   6.994
 4397POPC   C4B56494  27.433  20.165   7.370
 4398POPC   NC356495   7.879  13.071   5.646
 4398POPC   PO456496   8.328  12.622   5.538
 4398POPC   GL156497   8.362  12.833   5.898
 4398POPC   GL256498   8.599  13.100   5.882
 4398POPC   C1A56499   8.085  12.793   6.248
 4398POPC   D2A56500   7.908  12.794   6.632
 4398POPC   C3A56501   8.229  12.977   6.833
 4398POPC   C4A56502   8.390  12.835   7.190
 4398POPC   C1B56503   8.426  13.204   6.293
 4398POPC   C2B56504   8.505  13.422   6.671
 4398POPC   C3B56505   8.575  13.296   7.091
 4398POPC   C4B56506   8.290  13.285   7.457
 4399POPC   NC356507  16.321  19.092   5.108
 4399POPC   PO456508  16.998  18.978   5.310
 4399POPC   GL156509  16.796  18.982   5.715
 4399POPC   GL256510  16.912  18.645   5.855
 4399POPC   C1A56511  16.584  19.090   6.137
 4399POPC   D2A56512  16.428  19.194   6.588
 4399POPC   C3A56513  16.753  19.200   6.949
 4399POPC   C4A56514  17.140  19.308   7.188
 4399POPC   C1B56515  16.815  18.666   6.294
 4399POPC   C2B56516  16.765  18.739   6.720
 4399POPC   C3B56517  16.841  18.721   7.157
 4399POPC   C4B56518  16.540  18.881   7.424
 4400POPC   NC356519  38.618  41.953   5.421
 4400POPC   PO456520  38.054  41.481   5.412
 4400POPC   GL156521  38.309  41.646   5.772
 4400POPC   GL256522  38.570  41.397   5.758
 4400POPC   C1A56523  38.421  41.816   6.215
 4400POPC   D2A56524  38.238  41.688   6.614
 4400POPC   C3A56525  38.277  41.801   7.045
 4400POPC   C4A56526  38.353  41.513   7.418
 4400POPC   C1B56527  38.740  41.418   6.167
 4400POPC   C2B56528  38.809  41.610   6.587
 4400POPC   C3B56529  38.775  41.742   7.019
 4400POPC   C4B56530  38.639  41.931   7.450
 4401POPC   NC356531  28.922   5.023   5.451
 4401POPC   PO456532  28.914   5.664   5.331
 4401POPC   GL156533  28.924   5.434   5.724
 4401POPC   GL256534  29.299   5.308   5.713
 4401POPC   C1A56535  29.007   5.197   6.120
 4401POPC   D2A56536  29.174   5.293   6.539
 4401POPC   C3A56537  28.930   5.165   6.918
 4401POPC   C4A56538  28.922   5.097   7.411
 4401POPC   C1B56539  29.519   5.162   6.116
 4401POPC   C2B56540  29.625   5.009   6.533
 4401POPC   C3B56541  29.457   5.081   6.948
 4401POPC   C4B56542  29.483   4.916   7.362
 4402POPC   NC356543   7.475  37.958   5.607
 4402POPC   PO456544   7.797  37.429   5.421
 4402POPC   GL156545   7.627  37.553   5.834
 4402POPC   GL256546   7.251  37.531   5.837
 4402POPC   C1A56547   7.521  37.504   6.267
 4402POPC   D2A56548   7.146  37.448   6.545
 4402POPC   C3A56549   7.335  37.552   6.929
 4402POPC   C4A56550   7.474  37.403   7.299
 4402POPC   C1B56551   7.117  37.808   6.200
 4402POPC   C2B56552   7.273  37.953   6.604
 4402POPC   C3B56553   7.173  38.069   7.012
 4402POPC   C4B56554   7.062  38.231   7.399
 4403POPC   NC356555  15.647  12.143   5.428
 4403POPC   PO456556  16.225  12.222   5.191
 4403POPC   GL156557  16.058  12.157   5.702
 4403POPC   GL256558  16.300  12.189   5.914
 4403POPC   C1A56559  15.929  11.907   6.109
 4403POPC   D2A56560  15.959  11.690   6.522
 4403POPC   C3A56561  15.730  11.897   6.834
 4403POPC   C4A56562  15.639  11.802   7.246
 4403POPC   C1B56563  16.181  12.363   6.302
 4403POPC   C2B56564  16.153  12.178   6.707
 4403POPC   C3B56565  16.127  12.043   7.143
 4403POPC   C4B56566  16.297  12.189   7.509
 4404POPC   NC356567  24.888  41.477   5.385
 4404POPC   PO456568  25.516  41.780   5.526
 4404POPC   GL156569  25.235  41.670   5.858
 4404POPC   GL256570  24.979  41.428   5.916
 4404POPC   C1A56571  25.362  41.523   6.255
 4404POPC   D2A56572  25.315  41.306   6.613
 4404POPC   C3A56573  25.528  41.489   6.917
 4404POPC   C4A56574  25.587  41.179   7.182
 4404POPC   C1B56575  24.884  41.299   6.350
 4404POPC   C2B56576  24.869  41.091   6.764
 4404POPC   C3B56577  25.074  41.270   7.140
 4404POPC   C4B56578  25.226  41.137   7.574
 4405POPC   NC356579   9.796  30.116   5.552
 4405POPC   PO456580   9.463  29.575   5.401
 4405POPC   GL156581   9.615  29.682   5.812
 4405POPC   GL256582   9.715  29.368   5.921
 4405POPC   C1A56583   9.492  29.934   6.209
 4405POPC   D2A56584   9.630  30.099   6.646
 4405POPC   C3A56585   9.481  29.880   7.040
 4405POPC   C4A56586   9.559  30.053   7.455
 4405POPC   C1B56587   9.922  29.617   6.246
 4405POPC   C2B56588  10.036  29.702   6.678
 4405POPC   C3B56589  10.016  29.995   7.034
 4405POPC   C4B56590  10.015  29.846   7.458
 4406POPC   NC356591  37.062   8.931   5.343
 4406POPC   PO456592  36.584   9.338   5.353
 4406POPC   GL156593  36.815   9.134   5.765
 4406POPC   GL256594  37.131   8.857   5.835
 4406POPC   C1A56595  36.866   9.037   6.233
 4406POPC   D2A56596  36.988   8.863   6.625
 4406POPC   C3A56597  36.928   9.109   6.975
 4406POPC   C4A56598  36.745   9.390   7.259
 4406POPC   C1B56599  37.334   8.740   6.243
 4406POPC   C2B56600  37.463   8.654   6.689
 4406POPC   C3B56601  37.173   8.670   7.076
 4406POPC   C4B56602  37.212   9.009   7.389
 4407POPC   NC356603  15.596  18.088   5.277
 4407POPC   PO456604  16.086  18.663   5.388
 4407POPC   GL156605  15.949  18.445   5.875
 4407POPC   GL256606  15.768  18.086   5.818
 4407POPC   C1A56607  16.052  18.179   6.227
 4407POPC   D2A56608  15.916  18.283   6.605
 4407POPC   C3A56609  16.136  18.098   6.897
 4407POPC   C4A56610  16.007  18.310   7.273
 4407POPC   C1B56611  15.572  17.967   6.195
 4407POPC   C2B56612  15.449  18.068   6.612
 4407POPC   C3B56613  15.660  17.978   7.018
 4407POPC   C4B56614  15.668  18.004   7.477
 4408POPC   NC356615  21.830  23.043   5.367
 4408POPC   PO456616  22.442  23.137   5.194
 4408POPC   GL156617  22.327  22.926   5.649
 4408POPC   GL256618  22.027  22.702   5.672
 4408POPC   C1A56619  22.119  23.003   6.099
 4408POPC   D2A56620  21.968  23.281   6.460
 4408POPC   C3A56621  22.004  23.109   6.902
 4408POPC   C4A56622  22.189  22.998   7.312
 4408POPC   C1B56623  21.868  22.560   6.069
 4408POPC   C2B56624  22.108  22.486   6.468
 4408POPC   C3B56625  22.191  22.615   6.895
 4408POPC   C4B56626  21.862  22.629   7.210
 4409POPC   NC356627  26.089   3.308   5.406
 4409POPC   PO456628  25.763   3.963   5.471
 4409POPC   GL156629  26.018   3.687   5.800
 4409POPC   GL256630  26.130   3.301   5.904
 4409POPC   C1A56631  25.989   3.632   6.258
 4409POPC   D2A56632  26.132   3.265   6.512
 4409POPC   C3A56633  26.155   3.437   6.924
 4409POPC   C4A56634  25.970   3.805   7.143
 4409POPC   C1B56635  25.745   3.197   6.146
 4409POPC   C2B56636  25.501   3.367   6.513
 4409POPC   C3B56637  25.608   3.403   6.946
 4409POPC   C4B56638  25.855   3.103   7.180
 4410POPC   NC356639  39.374  42.606   5.481
 4410POPC   PO456640  38.786  42.354   5.202
 4410POPC   GL156641  39.007  42.378   5.702
 4410POPC   GL256642  39.160  42.095   5.884
 4410POPC   C1A56643  38.982  42.510   6.178
 4410POPC   D2A56644  38.892  42.525   6.646
 4410POPC   C3A56645  39.133  42.252   6.922
 4410POPC   C4A56646  39.009  42.396   7.327
 4410POPC   C1B56647  39.385  42.199   6.306
 4410POPC   C2B56648  39.612  42.045   6.683
 4410POPC   C3B56649  39.784  42.138   7.084
 4410POPC   C4B56650  39.515  42.377   7.341
 4411POPC   NC356651  14.236  40.398   5.381
 4411POPC   PO456652  14.548  41.015   5.331
 4411POPC   GL156653  14.550  40.962   5.795
 4411POPC   GL256654  14.707  40.668   5.758
 4411POPC   C1A56655  14.466  40.932   6.256
 4411POPC   D2A56656  14.562  41.020   6.692
 4411POPC   C3A56657  14.345  40.821   7.039
 4411POPC   C4A56658  14.242  41.008   7.486
 4411POPC   C1B56659  14.594  40.453   6.156
 4411POPC   C2B56660  14.444  40.454   6.596
 4411POPC   C3B56661  14.680  40.434   6.988
 4411POPC   C4B56662  14.906  40.669   7.306
 4412POPC   NC356663  12.896  31.624   5.465
 4412POPC   PO456664  12.293  31.333   5.474
 4412POPC   GL156665  12.561  31.393   5.801
 4412POPC   GL256666  12.555  31.733   5.879
 4412POPC   C1A56667  12.830  31.299   6.141
 4412POPC   D2A56668  12.689  31.120   6.512
 4412POPC   C3A56669  12.759  31.363   6.870
 4412POPC   C4A56670  12.564  31.356   7.244
 4412POPC   C1B56671  12.968  31.808   6.090
 4412POPC   C2B56672  13.142  31.829   6.506
 4412POPC   C3B56673  13.102  31.740   6.931
 4412POPC   C4B56674  12.695  31.871   7.156
 4413POPC   NC356675  35.615   8.476   5.467
 4413POPC   PO456676  35.610   9.152   5.486
 4413POPC   GL156677  35.464   9.255   5.883
 4413POPC   GL256678  35.128   9.153   5.886
 4413POPC   C1A56679  35.434   9.081   6.304
 4413POPC   D2A56680  35.645   8.806   6.588
 4413POPC   C3A56681  35.507   8.825   7.027
 4413POPC   C4A56682  35.624   9.233   7.209
 4413POPC   C1B56683  34.959   9.301   6.246
 4413POPC   C2B56684  34.927   9.222   6.652
 4413POPC   C3B56685  35.146   9.211   6.994
 4413POPC   C4B56686  35.081   8.952   7.271
 4414POPC   NC356687   3.127   0.691   5.285
 4414POPC   PO456688   2.545   0.171   5.243
 4414POPC   GL156689   2.520   0.112   5.724
 4414POPC   GL256690   2.871   0.094   5.843
 4414POPC   C1A56691   2.553   0.353   6.157
 4414POPC   D2A56692   2.778   0.447   6.565
 4414POPC   C3A56693   2.666   0.328   6.997
 4414POPC   C4A56694   2.779   0.705   7.270
 4414POPC   C1B56695   2.960   0.036   6.273
 4414POPC   C2B56696   2.984  44.984   6.711
 4414POPC   C3B56697   3.150   0.254   7.022
 4414POPC   C4B56698   3.065   0.078   7.376
 4415POPC   NC356699  16.916   6.763   5.196
 4415POPC   PO456700  16.351   6.730   5.294
 4415POPC   GL156701  16.616   6.731   5.667
 4415POPC   GL256702  16.978   6.757   5.716
 4415POPC   C1A56703  16.601   6.718   6.113
 4415POPC   D2A56704  16.484   6.586   6.522
 4415POPC   C3A56705  16.366   6.847   6.851
 4415POPC   C4A56706  16.560   6.771   7.233
 4415POPC   C1B56707  17.116   6.660   6.150
 4415POPC   C2B56708  16.980   6.453   6.543
 4415POPC   C3B56709  17.003   6.619   6.955
 4415POPC   C4B56710  17.301   6.717   7.250
 4416POPC   NC356711  14.571  10.108   5.247
 4416POPC   PO456712  14.096   9.630   5.457
 4416POPC   GL156713  14.266   9.749   5.835
 4416POPC   GL256714  14.569   9.574   5.825
 4416POPC   C1A56715  14.311   9.560   6.261
 4416POPC   D2A56716  14.551   9.419   6.643
 4416POPC   C3A56717  14.448   9.646   7.016
 4416POPC   C4A56718  14.164   9.940   7.176
 4416POPC   C1B56719  14.765   9.805   6.195
 4416POPC   C2B56720  14.773  10.081   6.578
 4416POPC   C3B56721  14.588  10.175   6.967
 4416POPC   C4B56722  14.632  10.172   7.397
 4417POPC   NC356723  23.339  34.398   5.426
 4417POPC   PO456724  22.682  34.657   5.354
 4417POPC   GL156725  22.889  34.480   5.746
 4417POPC   GL256726  23.251  34.590   5.889
 4417POPC   C1A56727  22.933  34.364   6.193
 4417POPC   D2A56728  23.096  34.593   6.532
 4417POPC   C3A56729  22.871  34.437   6.879
 4417POPC   C4A56730  22.695  34.556   7.237
 4417POPC   C1B56731  23.328  34.931   6.191
 4417POPC   C2B56732  23.491  35.036   6.599
 4417POPC   C3B56733  23.429  34.860   7.002
 4417POPC   C4B56734  23.214  34.565   7.247
 4418POPC   NC356735   7.017   6.131   5.392
 4418POPC   PO456736   6.418   5.660   5.382
 4418POPC   GL156737   6.687   5.868   5.681
 4418POPC   GL256738   7.006   5.760   5.778
 4418POPC   C1A56739   6.608   5.919   6.107
 4418POPC   D2A56740   6.414   5.892   6.493
 4418POPC   C3A56741   6.484   6.011   6.887
 4418POPC   C4A56742   6.549   5.843   7.280
 4418POPC   C1B56743   7.093   5.991   6.175
 4418POPC   C2B56744   6.910   5.790   6.543
 4418POPC   C3B56745   6.974   5.887   6.960
 4418POPC   C4B56746   7.014   6.009   7.368
 4419POPC   NC356747  39.940   8.296   5.419
 4419POPC   PO456748  40.497   7.984   5.493
 4419POPC   GL156749  40.191   8.039   5.854
 4419POPC   GL256750  40.132   8.346   5.877
 4419POPC   C1A56751  40.087   8.101   6.336
 4419POPC   D2A56752  39.902   7.898   6.724
 4419POPC   C3A56753  40.236   7.864   7.028
 4419POPC   C4A56754  40.331   8.157   7.310
 4419POPC   C1B56755  39.711   8.335   6.084
 4419POPC   C2B56756  39.747   8.519   6.522
 4419POPC   C3B56757  39.971   8.412   6.873
 4419POPC   C4B56758  39.838   8.213   7.231
 4420POPC   NC356759  23.160   6.422   5.424
 4420POPC   PO456760  22.860   7.073   5.574
 4420POPC   GL156761  23.013   6.713   5.821
 4420POPC   GL256762  22.882   6.367   5.836
 4420POPC   C1A56763  23.164   6.684   6.258
 4420POPC   D2A56764  23.122   6.881   6.678
 4420POPC   C3A56765  23.065   6.678   7.066
 4420POPC   C4A56766  23.087   6.713   7.529
 4420POPC   C1B56767  22.647   6.264   6.178
 4420POPC   C2B56768  22.763   6.418   6.579
 4420POPC   C3B56769  22.809   6.230   6.961
 4420POPC   C4B56770  22.812   6.334   7.360
 4421POPC   NC356771   7.446  25.193   5.340
 4421POPC   PO456772   7.952  24.840   5.596
 4421POPC   GL156773   7.728  25.147   5.864
 4421POPC   GL256774   7.363  25.212   5.836
 4421POPC   C1A56775   7.628  25.417   6.220
 4421POPC   D2A56776   7.418  25.305   6.578
 4421POPC   C3A56777   7.694  25.276   6.910
 4421POPC   C4A56778   7.549  25.256   7.290
 4421POPC   C1B56779   7.210  24.990   6.162
 4421POPC   C2B56780   7.075  24.914   6.590
 4421POPC   C3B56781   7.226  25.019   6.974
 4421POPC   C4B56782   7.173  24.909   7.385
 4422POPC   NC356783   5.959  38.576   5.324
 4422POPC   PO456784   5.601  38.044   5.315
 4422POPC   GL156785   5.710  38.320   5.698
 4422POPC   GL256786   6.091  38.437   5.794
 4422POPC   C1A56787   5.678  38.663   5.999
 4422POPC   D2A56788   5.732  38.757   6.429
 4422POPC   C3A56789   5.567  38.554   6.780
 4422POPC   C4A56790   5.683  38.448   7.194
 4422POPC   C1B56791   6.208  38.479   6.246
 4422POPC   C2B56792   6.099  38.507   6.701
 4422POPC   C3B56793   6.212  38.454   7.133
 4422POPC   C4B56794   6.049  38.302   7.541
 4423POPC   NC356795   3.839  41.728   5.676
 4423POPC   PO456796   4.169  41.225   5.292
 4423POPC   GL156797   4.290  41.509   5.729
 4423POPC   GL256798   4.198  41.330   6.079
 4423POPC   C1A56799   4.404  41.770   6.135
 4423POPC   D2A56800   4.465  41.823   6.607
 4423POPC   C3A56801   4.124  41.675   6.912
 4423POPC   C4A56802   4.181  41.648   7.361
 4423POPC   C1B56803   4.575  41.184   6.341
 4423POPC   C2B56804   4.448  41.293   6.710
 4423POPC   C3B56805   4.542  41.437   7.074
 4423POPC   C4B56806   4.544  41.226   7.444
 4424POPC   NC356807  15.888   5.675   5.575
 4424POPC   PO456808  16.352   6.273   5.604
 4424POPC   GL156809  16.091   6.047   5.876
 4424POPC   GL256810  16.287   5.728   5.901
 4424POPC   C1A56811  15.803   5.996   6.241
 4424POPC   D2A56812  15.968   6.028   6.650
 4424POPC   C3A56813  15.698   5.972   6.973
 4424POPC   C4A56814  15.895   6.045   7.296
 4424POPC   C1B56815  16.034   5.463   6.199
 4424POPC   C2B56816  15.846   5.534   6.608
 4424POPC   C3B56817  16.031   5.589   7.010
 4424POPC   C4B56818  15.766   5.545   7.329
 4425POPC   NC356819   8.707  40.794   5.330
 4425POPC   PO456820   9.358  40.639   5.300
 4425POPC   GL156821   9.091  40.592   5.674
 4425POPC   GL256822   8.726  40.494   5.744
 4425POPC   C1A56823   9.229  40.604   6.099
 4425POPC   D2A56824   9.151  40.794   6.506
 4425POPC   C3A56825   9.278  40.702   6.942
 4425POPC   C4A56826   9.151  40.388   7.247
 4425POPC   C1B56827   8.722  40.754   6.117
 4425POPC   C2B56828   8.648  40.925   6.514
 4425POPC   C3B56829   8.785  40.678   6.872
 4425POPC   C4B56830   8.707  40.624   7.293
 4426POPC   NC356831   0.310  33.699   5.395
 4426POPC   PO456832   0.951  33.671   5.283
 4426POPC   GL156833   0.695  33.674   5.732
 4426POPC   GL256834   0.485  33.968   5.793
 4426POPC   C1A56835   0.368  33.592   6.108
 4426POPC   D2A56836   0.260  33.511   6.570
 4426POPC   C3A56837   0.493  33.718   6.943
 4426POPC   C4A56838   0.376  33.679   7.394
 4426POPC   C1B56839   0.327  34.110   6.219
 4426POPC   C2B56840   0.351  34.146   6.666
 4426POPC   C3B56841   0.164  34.088   7.082
 4426POPC   C4B56842   0.152  34.131   7.520
 4427POPC   NC356843  23.571   2.585   5.551
 4427POPC   PO456844  24.005   3.045   5.363
 4427POPC   GL156845  23.943   2.874   5.812
 4427POPC   GL256846  23.590   2.920   5.933
 4427POPC   C1A56847  23.891   2.697   6.268
 4427POPC   D2A56848  24.022   2.600   6.687
 4427POPC   C3A56849  23.718   2.735   6.999
 4427POPC   C4A56850  23.706   2.654   7.434
 4427POPC   C1B56851  23.645   3.167   6.304
 4427POPC   C2B56852  23.416   3.000   6.649
 4427POPC   C3B56853  23.235   3.090   7.021
 4427POPC   C4B56854  23.394   3.429   7.208
 4428POPC   NC356855  15.432  44.909   5.074
 4428POPC   PO456856  14.947  44.622   5.500
 4428POPC   GL156857  15.080  44.595   5.895
 4428POPC   GL256858  15.375  44.732   5.835
 4428POPC   C1A56859  15.037  44.488   6.338
 4428POPC   D2A56860  14.929  44.497   6.775
 4428POPC   C3A56861  15.234  44.537   7.106
 4428POPC   C4A56862  15.176  44.805   7.450
 4428POPC   C1B56863  15.448  44.881   6.231
 4428POPC   C2B56864  15.284  44.880   6.644
 4428POPC   C3B56865  15.443  44.985   7.035
 4428POPC   C4B56866  15.676  44.888   7.383
 4429POPC   NC356867  44.562   4.531   5.509
 4429POPC   PO456868  44.735   3.935   5.341
 4429POPC   GL156869  44.547   4.066   5.734
 4429POPC   GL256870  44.843   4.257   5.842
 4429POPC   C1A56871  44.483   4.147   6.175
 4429POPC   D2A56872  44.623   4.313   6.567
 4429POPC   C3A56873  44.593   4.143   6.975
 4429POPC   C4A56874  44.503   4.292   7.339
 4429POPC   C1B56875  44.846   4.586   6.161
 4429POPC   C2B56876  44.964   4.702   6.584
 4429POPC   C3B56877  44.812   4.622   7.011
 4429POPC   C4B56878   0.053   4.647   7.382
 4430POPC   NC356879   3.974  24.501   5.131
 4430POPC   PO456880   4.517  24.488   5.537
 4430POPC   GL156881   4.507  24.523   5.932
 4430POPC   GL256882   4.556  24.853   5.932
 4430POPC   C1A56883   4.382  24.524   6.343
 4430POPC   D2A56884   4.121  24.424   6.672
 4430POPC   C3A56885   4.219  24.544   7.058
 4430POPC   C4A56886   4.071  24.490   7.482
 4430POPC   C1B56887   4.737  24.923   6.347
 4430POPC   C2B56888   4.821  24.952   6.808
 4430POPC   C3B56889   4.566  24.892   7.184
 4430POPC   C4B56890   4.457  24.826   7.611
 4431POPC   NC356891  31.749  29.821   5.538
 4431POPC   PO456892  31.111  30.088   5.467
 4431POPC   GL156893  31.297  29.913   5.791
 4431POPC   GL256894  31.490  30.198   5.841
 4431POPC   C1A56895  31.345  29.861   6.234
 4431POPC   D2A56896  31.176  30.024   6.634
 4431POPC   C3A56897  31.337  29.844   7.030
 4431POPC   C4A56898  31.425  29.901   7.468
 4431POPC   C1B56899  31.658  30.305   6.231
 4431POPC   C2B56900  31.520  30.420   6.650
 4431POPC   C3B56901  31.508  30.315   7.102
 4431POPC   C4B56902  31.792  30.298   7.446
 4432POPC   NC356903  35.051  39.042   5.528
 4432POPC   PO456904  34.508  39.408   5.294
 4432POPC   GL156905  34.606  39.273   5.713
 4432POPC   GL256906  34.510  38.919   5.720
 4432POPC   C1A56907  34.382  39.267   6.116
 4432POPC   D2A56908  34.261  39.428   6.518
 4432POPC   C3A56909  34.524  39.273   6.861
 4432POPC   C4A56910  34.427  39.149   7.278
 4432POPC   C1B56911  34.775  38.939   6.109
 4432POPC   C2B56912  34.725  38.907   6.571
 4432POPC   C3B56913  34.862  38.931   7.042
 4432POPC   C4B56914  34.804  38.922   7.524
 4433POPC   NC356915  33.555  11.540   5.518
 4433POPC   PO456916  34.154  11.234   5.517
 4433POPC   GL156917  33.836  11.247   5.817
 4433POPC   GL256918  33.882  11.598   5.916
 4433POPC   C1A56919  33.748  11.016   6.203
 4433POPC   D2A56920  34.051  10.916   6.520
 4433POPC   C3A56921  33.982  11.126   6.887
 4433POPC   C4A56922  33.639  11.122   7.137
 4433POPC   C1B56923  33.634  11.802   6.208
 4433POPC   C2B56924  33.389  11.759   6.584
 4433POPC   C3B56925  33.564  11.812   7.002
 4433POPC   C4B56926  33.821  11.565   7.295
 4434POPC   NC356927  23.443  40.852   5.341
 4434POPC   PO456928  23.964  40.427   5.594
 4434POPC   GL156929  23.918  40.788   5.857
 4434POPC   GL256930  23.597  40.943   5.847
 4434POPC   C1A56931  24.021  40.753   6.293
 4434POPC   D2A56932  23.985  40.927   6.699
 4434POPC   C3A56933  23.836  40.694   7.075
 4434POPC   C4A56934  23.858  40.348   7.409
 4434POPC   C1B56935  23.731  41.180   6.234
 4434POPC   C2B56936  23.618  41.246   6.673
 4434POPC   C3B56937  23.774  41.209   7.107
 4434POPC   C4B56938  23.601  41.247   7.523
 4435POPC   NC356939  13.678  20.210   5.508
 4435POPC   PO456940  13.202  19.606   5.428
 4435POPC   GL156941  13.448  19.626   5.837
 4435POPC   GL256942  13.787  19.808   5.854
 4435POPC   C1A56943  13.483  19.760   6.293
 4435POPC   D2A56944  13.678  19.782   6.692
 4435POPC   C3A56945  13.463  19.879   7.073
 4435POPC   C4A56946  13.596  19.741   7.485
 4435POPC   C1B56947  13.707  20.200   6.150
 4435POPC   C2B56948  13.750  20.294   6.572
 4435POPC   C3B56949  13.876  20.186   6.993
 4435POPC   C4B56950  13.677  20.257   7.409
 4436POPC   NC356951   1.741  35.369   5.538
 4436POPC   PO456952   2.232  35.024   5.315
 4436POPC   GL156953   2.192  34.991   5.764
 4436POPC   GL256954   2.198  35.352   5.843
 4436POPC   C1A56955   1.931  35.023   6.148
 4436POPC   D2A56956   1.712  35.100   6.532
 4436POPC   C3A56957   1.975  35.136   6.869
 4436POPC   C4A56958   1.885  35.082   7.290
 4436POPC   C1B56959   1.997  35.551   6.222
 4436POPC   C2B56960   1.820  35.590   6.677
 4436POPC   C3B56961   1.983  35.569   7.136
 4436POPC   C4B56962   2.417  35.470   7.237
 4437POPC   NC356963  29.092  24.188   5.377
 4437POPC   PO456964  29.478  24.821   5.377
 4437POPC   GL156965  29.272  24.605   5.776
 4437POPC   GL256966  28.923  24.494   5.736
 4437POPC   C1A56967  29.353  24.430   6.225
 4437POPC   D2A56968  29.110  24.396   6.625
 4437POPC   C3A56969  29.314  24.495   7.031
 4437POPC   C4A56970  29.407  24.091   7.126
 4437POPC   C1B56971  28.854  24.545   6.162
 4437POPC   C2B56972  28.798  24.793   6.512
 4437POPC   C3B56973  28.876  24.727   6.962
 4437POPC   C4B56974  28.960  24.602   7.391
 4438POPC   NC356975  23.772  12.645   4.843
 4438POPC   PO456976  23.994  13.132   5.354
 4438POPC   GL156977  23.856  12.959   5.755
 4438POPC   GL256978  23.617  12.677   5.665
 4438POPC   C1A56979  23.838  13.049   6.202
 4438POPC   D2A56980  23.803  13.240   6.623
 4438POPC   C3A56981  23.538  13.060   6.964
 4438POPC   C4A56982  23.631  12.961   7.361
 4438POPC   C1B56983  23.512  12.665   6.117
 4438POPC   C2B56984  23.600  12.744   6.563
 4438POPC   C3B56985  23.685  12.541   6.979
 4438POPC   C4B56986  23.667  12.456   7.431
 4439POPC   NC356987  37.394  37.058   5.415
 4439POPC   PO456988  38.005  36.820   5.532
 4439POPC   GL156989  37.906  36.979   5.881
 4439POPC   GL256990  37.588  36.900   5.871
 4439POPC   C1A56991  37.933  36.892   6.315
 4439POPC   D2A56992  37.870  37.196   6.639
 4439POPC   C3A56993  37.920  37.101   7.064
 4439POPC   C4A56994  37.834  36.943   7.501
 4439POPC   C1B56995  37.453  37.131   6.215
 4439POPC   C2B56996  37.301  37.015   6.599
 4439POPC   C3B56997  37.437  37.059   7.025
 4439POPC   C4B56998  37.294  37.062   7.429
 4440POPC   NC356999   3.906  19.973   5.397
 4440POPC   PO457000   3.257  19.761   5.394
 4440POPC   GL157001   3.593  19.689   5.729
 4440POPC   GL257002   3.768  20.000   5.867
 4440POPC   C1A57003   3.524  19.707   6.209
 4440POPC   D2A57004   3.254  19.840   6.534
 4440POPC   C3A57005   3.445  19.950   6.925
 4440POPC   C4A57006   3.551  19.906   7.339
 4440POPC   C1B57007   4.000  20.068   6.219
 4440POPC   C2B57008   3.884  19.930   6.642
 4440POPC   C3B57009   3.945  20.120   7.069
 4440POPC   C4B57010   3.997  20.024   7.524
 4441POPC   NC357011  44.082  16.158   5.431
 4441POPC   PO457012  43.769  15.631   5.514
 4441POPC   GL157013  43.832  15.922   5.818
 4441POPC   GL257014  43.596  16.188   5.718
 4441POPC   C1A57015  44.114  16.010   6.186
 4441POPC   D2A57016  44.272  15.811   6.577
 4441POPC   C3A57017  44.041  15.818   6.969
 4441POPC   C4A57018  43.705  15.532   7.072
 4441POPC   C1B57019  43.606  16.174   6.182
 4441POPC   C2B57020  43.759  15.985   6.569
 4441POPC   C3B57021  43.582  16.048   6.982
 4441POPC   C4B57022  43.587  16.210   7.399
 4442POPC   NC357023   6.976   6.796   5.249
 4442POPC   PO457024   6.582   6.312   5.413
 4442POPC   GL157025   6.739   6.596   5.712
 4442POPC   GL257026   6.924   6.345   5.853
 4442POPC   C1A57027   6.591   6.903   6.050
 4442POPC   D2A57028   6.478   6.968   6.502
 4442POPC   C3A57029   6.474   6.765   6.929
 4442POPC   C4A57030   6.336   6.953   7.335
 4442POPC   C1B57031   6.669   6.412   6.208
 4442POPC   C2B57032   6.788   6.282   6.583
 4442POPC   C3B57033   6.845   6.386   6.995
 4442POPC   C4B57034   6.507   6.361   7.262
 4443POPC   NC357035   6.287  27.397   5.501
 4443POPC   PO457036   6.739  27.851   5.255
 4443POPC   GL157037   6.580  27.792   5.684
 4443POPC   GL257038   6.738  27.470   5.754
 4443POPC   C1A57039   6.688  27.901   6.123
 4443POPC   D2A57040   6.978  27.824   6.479
 4443POPC   C3A57041   6.795  27.784   6.891
 4443POPC   C4A57042   6.806  27.487   7.251
 4443POPC   C1B57043   6.535  27.409   6.138
 4443POPC   C2B57044   6.517  27.564   6.530
 4443POPC   C3B57045   6.510  27.325   6.877
 4443POPC   C4B57046   6.358  27.277   7.313
 4444POPC   NC357047  31.492  35.164   5.421
 4444POPC   PO457048  31.798  35.792   5.348
 4444POPC   GL157049  31.725  35.519   5.715
 4444POPC   GL257050  31.883  35.677   5.945
 4444POPC   C1A57051  31.552  35.254   6.096
 4444POPC   D2A57052  31.451  35.184   6.556
 4444POPC   C3A57053  31.098  35.298   6.848
 4444POPC   C4A57054  31.132  35.262   7.287
 4444POPC   C1B57055  31.460  35.760   6.154
 4444POPC   C2B57056  31.311  35.674   6.585
 4444POPC   C3B57057  31.571  35.518   6.947
 4444POPC   C4B57058  31.722  35.748   7.298
 4445POPC   NC357059  23.601  25.515   5.381
 4445POPC   PO457060  23.492  24.822   5.278
 4445POPC   GL157061  23.807  24.902   5.675
 4445POPC   GL257062  23.726  25.217   5.806
 4445POPC   C1A57063  24.064  24.983   6.116
 4445POPC   D2A57064  24.085  25.198   6.556
 4445POPC   C3A57065  23.757  25.105   6.874
 4445POPC   C4A57066  23.775  25.181   7.355
 4445POPC   C1B57067  23.801  25.445   6.196
 4445POPC   C2B57068  23.583  25.550   6.582
 4445POPC   C3B57069  23.689  25.611   7.011
 4445POPC   C4B57070  24.095  25.602   7.171
 4446POPC   NC357071  44.047  31.070   5.110
 4446POPC   PO457072  43.604  30.714   5.513
 4446POPC   GL157073  43.802  30.642   5.881
 4446POPC   GL257074  44.174  30.611   5.839
 4446POPC   C1A57075  43.639  30.535   6.263
 4446POPC   D2A57076  43.719  30.371   6.671
 4446POPC   C3A57077  43.612  30.671   7.001
 4446POPC   C4A57078  43.755  30.898   7.362
 4446POPC   C1B57079  44.132  30.802   6.259
 4446POPC   C2B57080  43.971  30.879   6.694
 4446POPC   C3B57081  44.202  30.907   7.120
 4446POPC   C4B57082  44.199  31.085   7.585
 4447POPC   NC357083  35.381  32.233   5.369
 4447POPC   PO457084  34.649  32.439   5.498
 4447POPC   GL157085  35.020  32.203   5.752
 4447POPC   GL257086  35.313  32.399   5.875
 4447POPC   C1A57087  35.273  31.962   6.122
 4447POPC   D2A57088  35.302  31.888   6.591
 4447POPC   C3A57089  35.666  31.918   6.936
 4447POPC   C4A57090  35.683  32.186   7.317
 4447POPC   C1B57091  35.491  32.419   6.277
 4447POPC   C2B57092  35.510  32.330   6.703
 4447POPC   C3B57093  35.256  32.196   7.031
 4447POPC   C4B57094  35.195  32.449   7.388
 4448POPC   NC357095  40.307  33.775   5.427
 4448POPC   PO457096  39.716  33.771   5.171
 4448POPC   GL157097  39.826  33.568   5.566
 4448POPC   GL257098  39.821  33.893   5.721
 4448POPC   C1A57099  39.915  33.508   6.038
 4448POPC   D2A57100  40.020  33.707   6.446
 4448POPC   C3A57101  40.040  33.422   6.819
 4448POPC   C4A57102  39.994  33.511   7.272
 4448POPC   C1B57103  40.096  34.074   6.067
 4448POPC   C2B57104  40.257  34.155   6.499
 4448POPC   C3B57105  40.135  33.973   6.884
 4448POPC   C4B57106  40.095  34.000   7.311
 4449POPC   NC357107  35.505  27.316   5.315
 4449POPC   PO457108  34.980  27.749   5.486
 4449POPC   GL157109  35.265  27.575   5.812
 4449POPC   GL257110  35.617  27.690   5.792
 4449POPC   C1A57111  35.286  27.604   6.273
 4449POPC   D2A57112  35.339  27.840   6.677
 4449POPC   C3A57113  35.102  27.708   7.041
 4449POPC   C4A57114  35.236  27.405   7.343
 4449POPC   C1B57115  35.776  27.458   6.172
 4449POPC   C2B57116  35.600  27.358   6.587
 4449POPC   C3B57117  35.593  27.510   6.999
 4449POPC   C4B57118  35.753  27.395   7.422
 4450POPC   NC357119   4.239  40.664   5.236
 4450POPC   PO457120   4.398  41.021   5.761
 4450POPC   GL157121   4.332  40.602   5.893
 4450POPC   GL257122   3.966  40.569   6.030
 4450POPC   C1A57123   4.639  40.423   6.207
 4450POPC   D2A57124   4.810  40.313   6.620
 4450POPC   C3A57125   4.548  40.410   7.031
 4450POPC   C4A57126   4.124  40.588   7.038
 4450POPC   C1B57127   4.228  40.754   6.366
 4450POPC   C2B57128   4.562  40.761   6.651
 4450POPC   C3B57129   4.530  40.917   7.048
 4450POPC   C4B57130   4.113  41.128   7.163
 4451POPC   NC357131  39.392  39.523   5.390
 4451POPC   PO457132  39.589  38.839   5.527
 4451POPC   GL157133  39.326  39.043   5.876
 4451POPC   GL257134  39.176  39.364   5.895
 4451POPC   C1A57135  39.231  38.941   6.292
 4451POPC   D2A57136  39.384  39.054   6.704
 4451POPC   C3A57137  39.051  38.963   6.990
 4451POPC   C4A57138  39.031  38.921   7.413
 4451POPC   C1B57139  39.550  39.527   6.094
 4451POPC   C2B57140  39.664  39.457   6.500
 4451POPC   C3B57141  39.548  39.541   6.922
 4451POPC   C4B57142  39.265  39.349   7.242
 4452POPC   NC357143   5.540  25.245   5.633
 4452POPC   PO457144   6.138  25.078   5.434
 4452POPC   GL157145   6.005  25.409   5.768
 4452POPC   GL257146   6.024  25.107   5.934
 4452POPC   C1A57147   5.900  25.455   6.268
 4452POPC   D2A57148   5.646  25.407   6.669
 4452POPC   C3A57149   5.626  25.050   6.960
 4452POPC   C4A57150   5.636  25.270   7.355
 4452POPC   C1B57151   6.291  25.007   6.276
 4452POPC   C2B57152   6.043  25.094   6.625
 4452POPC   C3B57153   6.062  25.308   7.010
 4452POPC   C4B57154   6.418  25.216   7.260
 4453POPC   NC357155  32.697  16.019   5.511
 4453POPC   PO457156  32.039  15.894   5.481
 4453POPC   GL157157  32.284  15.980   5.840
 4453POPC   GL257158  32.582  15.770   5.929
 4453POPC   C1A57159  32.129  16.040   6.240
 4453POPC   D2A57160  32.110  15.845   6.610
 4453POPC   C3A57161  31.977  16.108   6.913
 4453POPC   C4A57162  32.123  16.020   7.284
 4453POPC   C1B57163  32.639  16.118   6.213
 4453POPC   C2B57164  32.475  16.214   6.621
 4453POPC   C3B57165  32.611  16.123   7.035
 4453POPC   C4B57166  32.613  15.912   7.416
 4454POPC   NC357167   9.163  11.852   5.437
 4454POPC   PO457168   9.194  12.609   5.442
 4454POPC   GL157169   9.127  12.284   5.803
 4454POPC   GL257170   9.039  11.944   5.922
 4454POPC   C1A57171   8.997  12.326   6.258
 4454POPC   D2A57172   8.608  12.244   6.522
 4454POPC   C3A57173   8.619  11.994   6.923
 4454POPC   C4A57174   8.781  12.018   7.367
 4454POPC   C1B57175   9.272  11.885   6.308
 4454POPC   C2B57176   9.194  11.920   6.768
 4454POPC   C3B57177   9.273  11.926   7.231
 4454POPC   C4B57178   9.160  11.774   7.654
 4455POPC   NC357179  34.629  18.806   5.373
 4455POPC   PO457180  34.319  19.325   5.525
 4455POPC   GL157181  34.576  19.106   5.794
 4455POPC   GL257182  34.317  18.927   5.893
 4455POPC   C1A57183  34.932  18.966   6.034
 4455POPC   D2A57184  35.114  19.086   6.417
 4455POPC   C3A57185  34.904  18.900   6.752
 4455POPC   C4A57186  34.819  19.017   7.168
 4455POPC   C1B57187  34.506  19.053   6.324
 4455POPC   C2B57188  34.399  18.995   6.770
 4455POPC   C3B57189  34.335  19.138   7.202
 4455POPC   C4B57190  34.204  18.936   7.590
 4456POPC   NC357191  40.606  44.352   5.282
 4456POPC   PO457192  40.661  44.991   5.536
 4456POPC   GL157193  40.679  44.679   5.844
 4456POPC   GL257194  40.944  44.423   5.730
 4456POPC   C1A57195  40.575  44.724   6.298
 4456POPC   D2A57196  40.792  44.698   6.690
 4456POPC   C3A57197  40.609  44.752   7.104
 4456POPC   C4A57198  40.722  44.656   7.543
 4456POPC   C1B57199  40.820  44.283   6.152
 4456POPC   C2B57200  40.798  44.101   6.566
 4456POPC   C3B57201  40.795  44.259   6.990
 4456POPC   C4B57202  40.495  44.293   7.295
 4457POPC   NC357203  13.913  44.342   5.481
 4457POPC   PO457204  13.425  44.299   5.873
 4457POPC   GL157205  13.585  44.715   5.904
 4457POPC   GL257206  13.951  44.688   5.903
 4457POPC   C1A57207  13.485  44.787   6.321
 4457POPC   D2A57208  13.657  44.556   6.648
 4457POPC   C3A57209  13.421  44.713   6.966
 4457POPC   C4A57210  13.527  44.732   7.372
 4457POPC   C1B57211  13.930  44.993   6.261
 4457POPC   C2B57212  13.794   0.048   6.702
 4457POPC   C3B57213  13.935  44.804   7.075
 4457POPC   C4B57214  14.017  44.864   7.566
 4458POPC   NC357215  22.311  26.843   5.266
 4458POPC   PO457216  21.758  26.526   5.184
 4458POPC   GL157217  21.918  26.722   5.625
 4458POPC   GL257218  22.266  26.689   5.769
 4458POPC   C1A57219  21.927  26.826   6.118
 4458POPC   D2A57220  22.244  26.920   6.489
 4458POPC   C3A57221  22.228  27.008   6.947
 4458POPC   C4A57222  22.020  26.816   7.297
 4458POPC   C1B57223  22.463  26.585   6.192
 4458POPC   C2B57224  22.499  26.422   6.623
 4458POPC   C3B57225  22.417  26.556   7.032
 4458POPC   C4B57226  22.456  26.652   7.486
 4459POPC   NC357227  43.541  10.620   5.247
 4459POPC   PO457228  44.171  10.505   5.119
 4459POPC   GL157229  43.837  10.470   5.615
 4459POPC   GL257230  44.027  10.704   5.910
 4459POPC   C1A57231  43.637  10.461   6.063
 4459POPC   D2A57232  43.798  10.575   6.457
 4459POPC   C3A57233  43.528  10.706   6.767
 4459POPC   C4A57234  43.568  10.556   7.181
 4459POPC   C1B57235  44.249  10.482   6.256
 4459POPC   C2B57236  44.281  10.505   6.687
 4459POPC   C3B57237  44.122  10.453   7.111
 4459POPC   C4B57238  44.342  10.428   7.542
 4460POPC   NC357239  18.621  23.851   5.600
 4460POPC   PO457240  19.095  23.424   5.280
 4460POPC   GL157241  19.106  23.633   5.735
 4460POPC   GL257242  19.029  24.005   5.874
 4460POPC   C1A57243  18.984  23.583   6.200
 4460POPC   D2A57244  18.881  23.372   6.620
 4460POPC   C3A57245  19.151  23.548   6.956
 4460POPC   C4A57246  19.255  23.902   7.245
 4460POPC   C1B57247  18.758  24.067   6.258
 4460POPC   C2B57248  18.864  23.894   6.654
 4460POPC   C3B57249  18.736  23.835   7.070
 4460POPC   C4B57250  18.797  24.069   7.406
 4461POPC   NC357251  11.042  39.418   5.380
 4461POPC   PO457252  11.574  38.956   5.544
 4461POPC   GL157253  11.342  39.307   5.778
 4461POPC   GL257254  10.989  39.162   5.837
 4461POPC   C1A57255  11.270  39.499   6.193
 4461POPC   D2A57256  11.354  39.322   6.636
 4461POPC   C3A57257  11.332  39.510   7.053
 4461POPC   C4A57258  11.418  39.286   7.467
 4461POPC   C1B57259  10.980  39.083   6.311
 4461POPC   C2B57260  11.180  38.838   6.668
 4461POPC   C3B57261  11.184  39.014   7.075
 4461POPC   C4B57262  10.816  38.980   7.308
 4462POPC   NC357263  16.116  11.093   5.407
 4462POPC   PO457264  15.841  11.719   5.482
 4462POPC   GL157265  15.895  11.393   5.773
 4462POPC   GL257266  16.252  11.443   5.762
 4462POPC   C1A57267  15.828  11.280   6.212
 4462POPC   D2A57268  15.754  11.092   6.636
 4462POPC   C3A57269  15.685  11.321   7.035
 4462POPC   C4A57270  15.772  11.371   7.504
 4462POPC   C1B57271  16.305  11.504   6.184
 4462POPC   C2B57272  16.254  11.202   6.526
 4462POPC   C3B57273  16.196  11.116   6.980
 4462POPC   C4B57274  16.145  11.535   7.178
 4463POPC   NC357275  23.752  19.369   5.421
 4463POPC   PO457276  23.980  18.724   5.371
 4463POPC   GL157277  23.851  18.997   5.792
 4463POPC   GL257278  23.478  19.137   5.793
 4463POPC   C1A57279  23.982  19.174   6.245
 4463POPC   D2A57280  24.071  19.076   6.712
 4463POPC   C3A57281  23.688  19.033   6.938
 4463POPC   C4A57282  23.516  19.019   7.317
 4463POPC   C1B57283  23.507  19.390   6.165
 4463POPC   C2B57284  23.642  19.409   6.607
 4463POPC   C3B57285  23.376  19.465   7.011
 4463POPC   C4B57286  23.206  19.397   7.461
 4464POPC   NC357287  11.457  30.240   5.007
 4464POPC   PO457288  11.110  29.885   5.470
 4464POPC   GL157289  11.353  29.872   5.820
 4464POPC   GL257290  11.184  30.172   5.902
 4464POPC   C1A57291  11.583  29.973   6.229
 4464POPC   D2A57292  11.456  29.982   6.624
 4464POPC   C3A57293  11.669  30.045   6.983
 4464POPC   C4A57294  11.426  29.928   7.297
 4464POPC   C1B57295  11.066  29.906   6.235
 4464POPC   C2B57296  10.957  30.050   6.594
 4464POPC   C3B57297  11.055  30.027   6.976
 4464POPC   C4B57298  11.115  30.359   7.237
 4465POPC   NC357299  12.592  37.811   5.453
 4465POPC   PO457300  13.121  37.844   5.127
 4465POPC   GL157301  13.045  37.688   5.705
 4465POPC   GL257302  12.809  37.487   5.780
 4465POPC   C1A57303  12.736  37.866   6.135
 4465POPC   D2A57304  12.570  37.969   6.620
 4465POPC   C3A57305  12.711  37.743   7.030
 4465POPC   C4A57306  13.070  37.743   7.356
 4465POPC   C1B57307  12.964  37.427   6.210
 4465POPC   C2B57308  13.020  37.699   6.568
 4465POPC   C3B57309  13.167  37.500   6.935
 4465POPC   C4B57310  12.912  37.205   7.218
 4466POPC   NC357311  10.402   3.066   5.490
 4466POPC   PO457312  10.639   2.368   5.474
 4466POPC   GL157313  10.468   2.655   5.788
 4466POPC   GL257314  10.772   2.611   5.944
 4466POPC   C1A57315  10.458   2.929   6.204
 4466POPC   D2A57316  10.665   2.838   6.636
 4466POPC   C3A57317  10.593   3.031   7.084
 4466POPC   C4A57318  10.513   2.877   7.532
 4466POPC   C1B57319  10.425   2.419   6.227
 4466POPC   C2B57320  10.244   2.523   6.619
 4466POPC   C3B57321  10.344   2.586   7.035
 4466POPC   C4B57322  10.721   2.509   7.247
 4467POPC   NC357323   0.111  28.185   5.460
 4467POPC   PO457324   0.799  28.158   5.500
 4467POPC   GL157325   0.466  28.227   5.829
 4467POPC   GL257326   0.322  28.566   5.774
 4467POPC   C1A57327   0.393  28.386   6.272
 4467POPC   D2A57328   0.163  28.372   6.659
 4467POPC   C3A57329   0.339  28.288   7.067
 4467POPC   C4A57330   0.691  28.003   7.161
 4467POPC   C1B57331   0.757  28.615   6.004
 4467POPC   C2B57332   0.817  28.805   6.403
 4467POPC   C3B57333   0.654  28.613   6.768
 4467POPC   C4B57334   0.800  28.509   7.183
 4468POPC   NC357335  39.154  38.693   5.579
 4468POPC   PO457336  39.201  38.079   5.611
 4468POPC   GL157337  39.260  38.285   5.945
 4468POPC   GL257338  39.536  38.509   5.902
 4468POPC   C1A57339  39.043  38.436   6.292
 4468POPC   D2A57340  39.185  38.570   6.691
 4468POPC   C3A57341  38.934  38.445   7.013
 4468POPC   C4A57342  38.966  38.396   7.409
 4468POPC   C1B57343  39.561  38.524   6.338
 4468POPC   C2B57344  39.556  38.234   6.687
 4468POPC   C3B57345  39.467  38.376   7.109
 4468POPC   C4B57346  39.503  38.721   7.371
 4469POPC   NC357347  12.709  21.884   5.636
 4469POPC   PO457348  13.301  22.340   5.406
 4469POPC   GL157349  13.039  22.260   5.795
 4469POPC   GL257350  12.796  22.516   5.926
 4469POPC   C1A57351  12.990  22.136   6.233
 4469POPC   D2A57352  12.946  22.350   6.638
 4469POPC   C3A57353  13.032  22.086   6.983
 4469POPC   C4A57354  12.907  21.833   7.325
 4469POPC   C1B57355  12.563  22.529   6.323
 4469POPC   C2B57356  12.454  22.575   6.771
 4469POPC   C3B57357  12.533  22.504   7.233
 4469POPC   C4B57358  12.470  22.630   7.690
 4470POPC   NC357359  13.997  27.491   5.451
 4470POPC   PO457360  13.411  27.843   5.483
 4470POPC   GL157361  13.680  27.945   5.822
 4470POPC   GL257362  14.024  27.818   5.850
 4470POPC   C1A57363  13.674  27.838   6.271
 4470POPC   D2A57364  13.395  27.538   6.475
 4470POPC   C3A57365  13.386  27.483   6.931
 4470POPC   C4A57366  13.429  27.281   7.365
 4470POPC   C1B57367  14.095  27.563   6.252
 4470POPC   C2B57368  13.879  27.565   6.679
 4470POPC   C3B57369  13.849  27.524   7.142
 4470POPC   C4B57370  13.930  27.196   7.474
 4471POPC   NC357371   9.363   3.647   5.673
 4471POPC   PO457372   8.706   3.656   5.447
 4471POPC   GL157373   8.904   3.480   5.830
 4471POPC   GL257374   8.959   3.826   5.925
 4471POPC   C1A57375   9.053   3.358   6.265
 4471POPC   D2A57376   9.019   3.527   6.681
 4471POPC   C3A57377   9.084   3.419   7.058
 4471POPC   C4A57378   9.188   3.342   7.490
 4471POPC   C1B57379   8.687   3.773   6.251
 4471POPC   C2B57380   8.657   3.909   6.675
 4471POPC   C3B57381   8.663   3.772   7.081
 4471POPC   C4B57382   8.943   3.799   7.389
 4472POPC   NC357383  11.223  15.841   5.594
 4472POPC   PO457384  11.758  16.242   5.642
 4472POPC   GL157385  11.451  16.130   5.952
 4472POPC   GL257386  11.571  15.780   5.962
 4472POPC   C1A57387  11.207  16.086   6.377
 4472POPC   D2A57388  10.862  16.041   6.718
 4472POPC   C3A57389  10.962  15.884   7.095
 4472POPC   C4A57390  11.276  16.062   7.309
 4472POPC   C1B57391  11.756  16.023   6.323
 4472POPC   C2B57392  11.638  16.137   6.705
 4472POPC   C3B57393  11.689  15.883   7.037
 4472POPC   C4B57394  11.648  15.689   7.433
 4473POPC   NC357395   1.318  14.225   5.375
 4473POPC   PO457396   0.781  14.464   5.527
 4473POPC   GL157397   1.021  14.263   5.880
 4473POPC   GL257398   1.358  14.094   5.881
 4473POPC   C1A57399   1.138  14.549   6.252
 4473POPC   D2A57400   0.911  14.734   6.604
 4473POPC   C3A57401   1.093  14.598   7.022
 4473POPC   C4A57402   1.120  14.760   7.452
 4473POPC   C1B57403   1.280  14.065   6.308
 4473POPC   C2B57404   1.352  14.285   6.675
 4473POPC   C3B57405   1.622  14.297   6.999
 4473POPC   C4B57406   1.460  14.405   7.349
 4474POPC   NC357407  30.793  27.304   5.225
 4474POPC   PO457408  30.729  26.688   5.403
 4474POPC   GL157409  30.683  26.713   5.816
 4474POPC   GL257410  31.036  26.714   5.962
 4474POPC   C1A57411  30.648  26.533   6.221
 4474POPC   D2A57412  30.837  26.717   6.561
 4474POPC   C3A57413  30.529  26.818   6.871
 4474POPC   C4A57414  30.583  26.904   7.295
 4474POPC   C1B57415  31.192  27.019   6.278
 4474POPC   C2B57416  31.136  27.107   6.714
 4474POPC   C3B57417  31.030  26.826   7.035
 4474POPC   C4B57418  31.073  26.899   7.461
 4475POPC   NC357419   6.380  41.060   5.384
 4475POPC   PO457420   6.726  40.573   5.666
 4475POPC   GL157421   6.758  40.903   5.878
 4475POPC   GL257422   6.401  40.933   5.869
 4475POPC   C1A57423   6.682  40.891   6.315
 4475POPC   D2A57424   6.608  40.644   6.634
 4475POPC   C3A57425   6.826  40.807   6.981
 4475POPC   C4A57426   6.684  40.531   7.256
 4475POPC   C1B57427   6.152  40.971   6.213
 4475POPC   C2B57428   6.283  41.064   6.613
 4475POPC   C3B57429   6.324  40.887   6.997
 4475POPC   C4B57430   6.192  41.031   7.323
 4476POPC   NC357431  42.097  27.131   5.435
 4476POPC   PO457432  42.300  27.827   5.292
 4476POPC   GL157433  42.438  27.615   5.696
 4476POPC   GL257434  42.813  27.454   5.738
 4476POPC   C1A57435  42.121  27.639   6.066
 4476POPC   D2A57436  41.913  27.856   6.435
 4476POPC   C3A57437  42.022  27.718   6.869
 4476POPC   C4A57438  42.075  27.499   7.269
 4476POPC   C1B57439  42.571  27.398   6.129
 4476POPC   C2B57440  42.382  27.537   6.500
 4476POPC   C3B57441  42.507  27.493   6.890
 4476POPC   C4B57442  42.620  27.385   7.292
 4477POPC   NC357443  25.444  35.265   5.490
 4477POPC   PO457444  24.927  35.622   5.453
 4477POPC   GL157445  24.990  35.374   5.852
 4477POPC   GL257446  25.307  35.187   5.964
 4477POPC   C1A57447  25.008  35.359   6.318
 4477POPC   D2A57448  25.169  35.159   6.682
 4477POPC   C3A57449  25.282  35.369   7.056
 4477POPC   C4A57450  25.223  35.432   7.501
 4477POPC   C1B57451  25.571  35.181   6.351
 4477POPC   C2B57452  25.654  35.006   6.756
 4477POPC   C3B57453  25.716  35.128   7.176
 4477POPC   C4B57454  25.535  35.031   7.577
 4478POPC   NC357455  34.988  42.526   5.481
 4478POPC   PO457456  35.663  42.421   5.401
 4478POPC   GL157457  35.364  42.295   5.751
 4478POPC   GL257458  35.242  42.596   5.941
 4478POPC   C1A57459  35.134  42.121   6.122
 4478POPC   D2A57460  35.067  42.361   6.531
 4478POPC   C3A57461  35.048  42.139   6.936
 4478POPC   C4A57462  35.340  42.035   7.286
 4478POPC   C1B57463  35.536  42.431   6.272
 4478POPC   C2B57464  35.734  42.489   6.698
 4478POPC   C3B57465  35.591  42.518   7.154
 4478POPC   C4B57466  35.707  42.616   7.614
 4479POPC   NC357467  43.714   4.836   5.449
 4479POPC   PO457468  44.086   5.439   5.297
 4479POPC   GL157469  44.018   5.195   5.755
 4479POPC   GL257470  44.057   4.812   5.825
 4479POPC   C1A57471  43.941   5.091   6.231
 4479POPC   D2A57472  44.041   4.865   6.642
 4479POPC   C3A57473  43.911   5.088   7.038
 4479POPC   C4A57474  44.192   5.152   7.391
 4479POPC   C1B57475  43.682   4.672   6.067
 4479POPC   C2B57476  43.619   4.607   6.480
 4479POPC   C3B57477  43.662   4.600   6.912
 4479POPC   C4B57478  43.473   4.767   7.255
 4480POPC   NC357479  11.583   5.259   5.038
 4480POPC   PO457480  11.107   4.835   5.139
 4480POPC   GL157481  11.140   4.913   5.636
 4480POPC   GL257482  11.466   4.974   5.811
 4480POPC   C1A57483  11.088   4.726   6.073
 4480POPC   D2A57484  11.084   4.737   6.525
 4480POPC   C3A57485  11.409   4.651   6.815
 4480POPC   C4A57486  11.257   4.710   7.223
 4480POPC   C1B57487  11.333   5.121   6.251
 4480POPC   C2B57488  11.400   5.191   6.717
 4480POPC   C3B57489  11.225   5.215   7.168
 4480POPC   C4B57490  11.280   5.315   7.630
 4481POPC   NC357491  44.233   8.131   5.409
 4481POPC   PO457492  44.847   8.322   5.250
 4481POPC   GL157493  44.620   8.272   5.680
 4481POPC   GL257494  44.659   7.977   5.775
 4481POPC   C1A57495  44.499   8.177   6.187
 4481POPC   D2A57496  44.665   8.288   6.593
 4481POPC   C3A57497  44.743   8.032   6.968
 4481POPC   C4A57498  44.435   7.976   7.254
 4481POPC   C1B57499  44.925   8.408   6.025
 4481POPC   C2B57500   0.081   8.580   6.402
 4481POPC   C3B57501   0.000   8.584   6.843
 4481POPC   C4B57502   0.141   8.347   7.176
 4482POPC   NC357503  35.096  20.629   5.556
 4482POPC   PO457504  35.630  20.186   5.375
 4482POPC   GL157505  35.518  20.404   5.766
 4482POPC   GL257506  35.546  20.766   5.785
 4482POPC   C1A57507  35.409  20.302   6.189
 4482POPC   D2A57508  35.171  20.351   6.570
 4482POPC   C3A57509  35.367  20.446   6.977
 4482POPC   C4A57510  35.085  20.508   7.329
 4482POPC   C1B57511  35.328  20.801   6.164
 4482POPC   C2B57512  35.466  20.798   6.586
 4482POPC   C3B57513  35.426  20.959   6.995
 4482POPC   C4B57514  35.169  21.008   7.359
 4483POPC   NC357515   4.604  13.762   5.260
 4483POPC   PO457516   5.270  13.972   5.195
 4483POPC   GL157517   5.103  13.855   5.607
 4483POPC   GL257518   5.023  13.489   5.681
 4483POPC   C1A57519   5.250  13.803   6.046
 4483POPC   D2A57520   5.398  13.808   6.462
 4483POPC   C3A57521   5.150  13.956   6.798
 4483POPC   C4A57522   5.257  14.047   7.244
 4483POPC   C1B57523   5.092  13.338   6.123
 4483POPC   C2B57524   4.991  13.523   6.523
 4483POPC   C3B57525   5.094  13.477   6.964
 4483POPC   C4B57526   4.840  13.753   7.190
 4484POPC   NC357527  43.398  23.297   5.540
 4484POPC   PO457528  42.980  23.891   5.506
 4484POPC   GL157529  43.137  23.979   5.905
 4484POPC   GL257530  43.302  23.668   5.901
 4484POPC   C1A57531  43.069  23.825   6.343
 4484POPC   D2A57532  43.215  23.651   6.732
 4484POPC   C3A57533  43.248  23.951   7.058
 4484POPC   C4A57534  43.611  24.179   7.238
 4484POPC   C1B57535  43.221  23.329   6.196
 4484POPC   C2B57536  43.042  23.191   6.573
 4484POPC   C3B57537  43.001  23.273   7.007
 4484POPC   C4B57538  43.298  23.484   7.246
 4485POPC   NC357539  41.067   6.920   5.437
 4485POPC   PO457540  40.826   6.339   5.377
 4485POPC   GL157541  40.727   6.498   5.792
 4485POPC   GL257542  40.776   6.880   5.856
 4485POPC   C1A57543  40.486   6.490   6.177
 4485POPC   D2A57544  40.594   6.664   6.576
 4485POPC   C3A57545  40.570   6.486   6.978
 4485POPC   C4A57546  40.760   6.630   7.353
 4485POPC   C1B57547  40.963   6.701   6.212
 4485POPC   C2B57548  41.074   6.482   6.586
 4485POPC   C3B57549  41.109   6.670   6.985
 4485POPC   C4B57550  41.249   6.541   7.410
 4486POPC   NC357551   4.150  25.719   5.417
 4486POPC   PO457552   4.042  26.389   5.412
 4486POPC   GL157553   4.212  26.113   5.774
 4486POPC   GL257554   4.376  25.807   5.896
 4486POPC   C1A57555   4.301  26.198   6.217
 4486POPC   D2A57556   4.486  25.893   6.521
 4486POPC   C3A57557   4.371  25.866   6.949
 4486POPC   C4A57558   3.992  26.034   7.215
 4486POPC   C1B57559   4.088  25.735   6.236
 4486POPC   C2B57560   3.949  25.802   6.680
 4486POPC   C3B57561   4.005  25.543   7.106
 4486POPC   C4B57562   4.072  25.653   7.600
 4487POPC   NC357563  39.497  29.431   5.125
 4487POPC   PO457564  39.817  29.119   5.606
 4487POPC   GL157565  39.959  29.155   5.943
 4487POPC   GL257566  40.066  29.512   5.850
 4487POPC   C1A57567  39.980  28.896   6.296
 4487POPC   D2A57568  40.296  28.970   6.587
 4487POPC   C3A57569  40.168  28.872   6.988
 4487POPC   C4A57570  39.779  28.966   7.188
 4487POPC   C1B57571  39.794  29.499   6.261
 4487POPC   C2B57572  39.757  29.256   6.636
 4487POPC   C3B57573  40.006  29.381   6.972
 4487POPC   C4B57574  39.915  29.436   7.391
 4488POPC   NC357575  23.371  29.210   5.447
 4488POPC   PO457576  23.973  29.424   5.175
 4488POPC   GL157577  23.934  29.407   5.690
 4488POPC   GL257578  23.893  29.041   5.868
 4488POPC   C1A57579  23.841  29.431   6.165
 4488POPC   D2A57580  23.771  29.170   6.551
 4488POPC   C3A57581  23.866  29.316   6.993
 4488POPC   C4A57582  23.879  29.406   7.445
 4488POPC   C1B57583  23.608  28.817   6.175
 4488POPC   C2B57584  23.408  28.810   6.587
 4488POPC   C3B57585  23.403  29.094   6.954
 4488POPC   C4B57586  23.616  28.976   7.342
 4489POPC   NC357587  22.689  29.640   5.461
 4489POPC   PO457588  22.920  28.957   5.571
 4489POPC   GL157589  23.157  29.042   5.891
 4489POPC   GL257590  23.082  29.385   5.843
 4489POPC   C1A57591  23.036  29.044   6.290
 4489POPC   D2A57592  22.961  29.012   6.699
 4489POPC   C3A57593  22.774  29.326   6.861
 4489POPC   C4A57594  22.927  29.183   7.225
 4489POPC   C1B57595  23.337  29.446   6.188
 4489POPC   C2B57596  23.202  29.439   6.580
 4489POPC   C3B57597  23.214  29.604   6.969
 4489POPC   C4B57598  23.361  29.470   7.363
 4490POPC   NC357599   3.212  13.217   5.256
 4490POPC   PO457600   3.630  12.775   5.436
 4490POPC   GL157601   3.553  13.159   5.690
 4490POPC   GL257602   3.862  13.297   5.778
 4490POPC   C1A57603   3.427  13.229   6.150
 4490POPC   D2A57604   3.495  13.042   6.590
 4490POPC   C3A57605   3.308  12.707   6.844
 4490POPC   C4A57606   3.339  12.740   7.298
 4490POPC   C1B57607   3.821  12.902   6.090
 4490POPC   C2B57608   3.882  12.688   6.513
 4490POPC   C3B57609   3.808  12.782   6.958
 4490POPC   C4B57610   3.872  12.873   7.404
 4491POPC   NC357611  36.194   4.683   5.721
 4491POPC   PO457612  35.912   4.089   5.489
 4491POPC   GL157613  36.116   4.170   5.821
 4491POPC   GL257614  35.814   4.353   5.954
 4491POPC   C1A57615  36.224   4.152   6.229
 4491POPC   D2A57616  35.933   4.216   6.548
 4491POPC   C3A57617  36.052   4.043   6.912
 4491POPC   C4A57618  36.315   4.253   7.188
 4491POPC   C1B57619  35.587   4.526   6.320
 4491POPC   C2B57620  35.674   4.747   6.667
 4491POPC   C3B57621  35.992   4.601   6.928
 4491POPC   C4B57622  35.810   4.348   7.250
 4492POPC   NC357623   4.454  32.970   5.292
 4492POPC   PO457624   3.925  33.117   5.514
 4492POPC   GL157625   4.282  33.144   5.776
 4492POPC   GL257626   4.459  32.846   5.796
 4492POPC   C1A57627   4.473  33.300   6.167
 4492POPC   D2A57628   4.568  33.156   6.571
 4492POPC   C3A57629   4.229  33.272   6.835
 4492POPC   C4A57630   4.337  33.338   7.272
 4492POPC   C1B57631   4.319  32.815   6.207
 4492POPC   C2B57632   4.489  32.643   6.576
 4492POPC   C3B57633   4.410  32.795   6.961
 4492POPC   C4B57634   4.011  32.913   7.112
 4493POPC   NC357635  23.961   0.219   5.504
 4493POPC   PO457636  23.300   0.570   5.383
 4493POPC   GL157637  23.613   0.563   5.712
 4493POPC   GL257638  23.543   0.273   5.879
 4493POPC   C1A57639  23.790   0.611   6.157
 4493POPC   D2A57640  23.633   0.392   6.535
 4493POPC   C3A57641  23.612   0.548   6.958
 4493POPC   C4A57642  23.825   0.421   7.340
 4493POPC   C1B57643  23.696   0.002   6.211
 4493POPC   C2B57644  23.882  44.929   6.631
 4493POPC   C3B57645  23.628   0.024   7.007
 4493POPC   C4B57646  23.649  44.969   7.462
 4494POPC   NC357647  26.215  35.181   5.517
 4494POPC   PO457648  25.758  35.685   5.495
 4494POPC   GL157649  25.972  35.589   5.885
 4494POPC   GL257650  25.846  35.258   5.919
 4494POPC   C1A57651  25.880  35.604   6.351
 4494POPC   D2A57652  25.718  35.514   6.770
 4494POPC   C3A57653  26.057  35.490   7.073
 4494POPC   C4A57654  26.248  35.301   7.442
 4494POPC   C1B57655  26.144  35.181   6.282
 4494POPC   C2B57656  26.179  35.119   6.737
 4494POPC   C3B57657  26.404  34.961   7.112
 4494POPC   C4B57658  26.453  34.837   7.575
 4495POPC   NC357659  22.463  31.481   5.636
 4495POPC   PO457660  21.917  31.271   5.440
 4495POPC   GL157661  21.965  31.334   5.861
 4495POPC   GL257662  22.015  31.689   5.913
 4495POPC   C1A57663  21.866  31.364   6.293
 4495POPC   D2A57664  22.029  31.560   6.650
 4495POPC   C3A57665  21.916  31.428   7.069
 4495POPC   C4A57666  21.961  31.242   7.483
 4495POPC   C1B57667  22.362  31.646   6.262
 4495POPC   C2B57668  22.604  31.411   6.566
 4495POPC   C3B57669  22.426  31.476   6.960
 4495POPC   C4B57670  22.403  31.628   7.364
 4496POPC   NC357671  31.917  10.968   5.293
 4496POPC   PO457672  32.304  11.548   5.085
 4496POPC   GL157673  32.261  11.312   5.557
 4496POPC   GL257674  32.545  11.353   5.823
 4496POPC   C1A57675  32.097  11.143   6.005
 4496POPC   D2A57676  31.908  11.313   6.410
 4496POPC   C3A57677  31.892  11.159   6.855
 4496POPC   C4A57678  31.883  10.951   7.249
 4496POPC   C1B57679  32.426  11.428   6.296
 4496POPC   C2B57680  32.370  11.395   6.767
 4496POPC   C3B57681  32.260  11.335   7.222
 4496POPC   C4B57682  32.434  11.345   7.655
 4497POPC   NC357683  17.429  36.396   5.528
 4497POPC   PO457684  17.640  35.744   5.361
 4497POPC   GL157685  17.564  35.948   5.738
 4497POPC   GL257686  17.235  35.995   5.857
 4497POPC   C1A57687  17.650  36.101   6.145
 4497POPC   D2A57688  17.738  36.308   6.525
 4497POPC   C3A57689  17.439  36.206   6.860
 4497POPC   C4A57690  17.374  35.872   7.204
 4497POPC   C1B57691  17.189  36.367   6.167
 4497POPC   C2B57692  17.055  36.560   6.564
 4497POPC   C3B57693  17.200  36.673   6.989
 4497POPC   C4B57694  17.325  36.418   7.337
 4498POPC   NC357695  10.784  16.744   5.370
 4498POPC   PO457696  10.148  16.573   5.504
 4498POPC   GL157697  10.449  16.868   5.801
 4498POPC   GL257698  10.782  17.028   5.826
 4498POPC   C1A57699  10.643  16.693   6.189
 4498POPC   D2A57700  10.866  16.498   6.509
 4498POPC   C3A57701  10.692  16.519   6.909
 4498POPC   C4A57702  10.886  16.407   7.285
 4498POPC   C1B57703  10.558  17.185   6.233
 4498POPC   C2B57704  10.421  17.078   6.689
 4498POPC   C3B57705  10.259  16.949   7.130
 4498POPC   C4B57706  10.386  16.960   7.586
 4499POPC   NC357707  32.562  13.658   5.153
 4499POPC   PO457708  32.082  13.348   5.529
 4499POPC   GL157709  32.376  13.491   5.855
 4499POPC   GL257710  32.226  13.773   5.946
 4499POPC   C1A57711  32.489  13.517   6.324
 4499POPC   D2A57712  32.668  13.552   6.743
 4499POPC   C3A57713  32.351  13.620   7.037
 4499POPC   C4A57714  32.459  14.010   7.193
 4499POPC   C1B57715  32.424  14.042   6.263
 4499POPC   C2B57716  32.355  13.996   6.692
 4499POPC   C3B57717  31.954  13.919   6.945
 4499POPC   C4B57718  31.851  13.728   7.362
 4500POPC   NC357719  15.345   6.917   5.506
 4500POPC   PO457720  14.780   6.445   5.475
 4500POPC   GL157721  14.998   6.666   5.792
 4500POPC   GL257722  15.350   6.504   5.818
 4500POPC   C1A57723  15.104   6.759   6.200
 4500POPC   D2A57724  15.132   6.600   6.562
 4500POPC   C3A57725  15.121   6.780   6.893
 4500POPC   C4A57726  15.163   6.605   7.223
 4500POPC   C1B57727  15.565   6.498   6.220
 4500POPC   C2B57728  15.534   6.313   6.618
 4500POPC   C3B57729  15.603   6.463   7.025
 4500POPC   C4B57730  15.509   6.316   7.437
 4501POPC   NC357731  13.909  30.142   5.479
 4501POPC   PO457732  13.666  29.550   5.252
 4501POPC   GL157733  13.759  29.602   5.686
 4501POPC   GL257734  13.638  29.886   5.826
 4501POPC   C1A57735  13.940  29.639   6.131
 4501POPC   D2A57736  13.853  29.815   6.531
 4501POPC   C3A57737  13.615  29.722   6.901
 4501POPC   C4A57738  13.653  29.788   7.348
 4501POPC   C1B57739  13.467  29.911   6.223
 4501POPC   C2B57740  13.500  30.197   6.579
 4501POPC   C3B57741  13.338  30.142   7.001
 4501POPC   C4B57742  13.421  30.263   7.383
 4502POPC   NC357743  24.883  43.900   5.495
 4502POPC   PO457744  24.199  43.957   5.443
 4502POPC   GL157745  24.419  43.795   5.789
 4502POPC   GL257746  24.166  43.597   5.942
 4502POPC   C1A57747  24.568  43.762   6.246
 4502POPC   D2A57748  24.443  43.578   6.658
 4502POPC   C3A57749  24.669  43.699   7.036
 4502POPC   C4A57750  24.670  44.090   7.274
 4502POPC   C1B57751  24.129  44.024   6.171
 4502POPC   C2B57752  24.311  44.092   6.596
 4502POPC   C3B57753  24.217  43.987   7.032
 4502POPC   C4B57754  24.208  44.132   7.477
 4503POPC   NC357755  13.938  23.889   5.477
 4503POPC   PO457756  14.594  23.492   5.452
 4503POPC   GL157757  14.489  23.509   5.853
 4503POPC   GL257758  14.427  23.860   5.854
 4503POPC   C1A57759  14.678  23.520   6.249
 4503POPC   D2A57760  14.554  23.736   6.626
 4503POPC   C3A57761  14.292  23.597   6.927
 4503POPC   C4A57762  14.489  23.429   7.226
 4503POPC   C1B57763  14.206  23.761   6.244
 4503POPC   C2B57764  14.058  23.936   6.638
 4503POPC   C3B57765  14.105  24.059   7.075
 4503POPC   C4B57766  14.398  23.899   7.381
 4504POPC   NC357767  41.816  32.191   5.524
 4504POPC   PO457768  41.207  32.019   5.603
 4504POPC   GL157769  41.527  31.935   5.882
 4504POPC   GL257770  41.481  32.270   5.980
 4504POPC   C1A57771  41.810  32.010   6.246
 4504POPC   D2A57772  41.680  32.310   6.544
 4504POPC   C3A57773  41.688  32.201   6.974
 4504POPC   C4A57774  41.955  31.975   7.240
 4504POPC   C1B57775  41.222  32.446   6.327
 4504POPC   C2B57776  41.226  32.475   6.762
 4504POPC   C3B57777  41.256  32.676   7.139
 4504POPC   C4B57778  41.435  32.610   7.534
 4505POPC   NC357779  27.034  13.196   5.440
 4505POPC   PO457780  26.434  12.797   5.431
 4505POPC   GL157781  26.770  12.787   5.793
 4505POPC   GL257782  26.942  12.455   5.850
 4505POPC   C1A57783  27.066  12.945   6.160
 4505POPC   D2A57784  27.117  13.175   6.593
 4505POPC   C3A57785  27.014  13.048   7.014
 4505POPC   C4A57786  26.977  12.888   7.442
 4505POPC   C1B57787  26.839  12.514   6.268
 4505POPC   C2B57788  27.041  12.646   6.631
 4505POPC   C3B57789  26.810  12.573   6.973
 4505POPC   C4B57790  26.831  12.418   7.348
 4506POPC   NC357791  26.218  34.501   5.539
 4506POPC   PO457792  25.797  34.972   5.480
 4506POPC   GL157793  25.908  34.751   5.897
 4506POPC   GL257794  26.039  34.394   5.993
 4506POPC   C1A57795  25.892  34.734   6.355
 4506POPC   D2A57796  25.707  34.495   6.684
 4506POPC   C3A57797  25.997  34.678   6.958
 4506POPC   C4A57798  25.996  34.762   7.374
 4506POPC   C1B57799  26.465  34.243   6.159
 4506POPC   C2B57800  26.557  34.114   6.583
 4506POPC   C3B57801  26.223  34.058   6.919
 4506POPC   C4B57802  25.911  34.256   7.218
 4507POPC   NC357803  38.749  22.225   5.597
 4507POPC   PO457804  38.269  21.830   5.634
 4507POPC   GL157805  38.430  22.156   5.966
 4507POPC   GL257806  38.360  22.538   5.879
 4507POPC   C1A57807  38.723  22.382   6.249
 4507POPC   D2A57808  38.583  22.388   6.667
 4507POPC   C3A57809  38.551  21.952   6.773
 4507POPC   C4A57810  38.697  21.873   7.164
 4507POPC   C1B57811  38.167  22.440   6.301
 4507POPC   C2B57812  38.088  22.216   6.695
 4507POPC   C3B57813  38.267  22.202   7.117
 4507POPC   C4B57814  38.243  22.437   7.509
 4508POPC   NC357815  13.514   8.566   5.526
 4508POPC   PO457816  14.039   8.078   5.648
 4508POPC   GL157817  13.704   8.263   5.918
 4508POPC   GL257818  13.398   8.068   5.847
 4508POPC   C1A57819  13.643   8.470   6.343
 4508POPC   D2A57820  13.607   8.425   6.797
 4508POPC   C3A57821  13.926   8.258   7.126
 4508POPC   C4A57822  13.820   8.161   7.588
 4508POPC   C1B57823  13.246   7.897   6.254
 4508POPC   C2B57824  13.243   8.049   6.668
 4508POPC   C3B57825  13.463   7.977   7.065
 4508POPC   C4B57826  13.338   7.964   7.481
 4509POPC   NC357827  32.805  41.213   5.426
 4509POPC   PO457828  33.006  40.567   5.460
 4509POPC   GL157829  33.020  40.921   5.774
 4509POPC   GL257830  33.243  40.706   5.895
 4509POPC   C1A57831  32.872  40.892   6.197
 4509POPC   D2A57832  32.918  41.007   6.618
 4509POPC   C3A57833  32.692  41.058   6.998
 4509POPC   C4A57834  32.976  40.814   7.252
 4509POPC   C1B57835  33.411  40.609   6.259
 4509POPC   C2B57836  33.414  40.327   6.593
 4509POPC   C3B57837  33.517  40.490   6.982
 4509POPC   C4B57838  33.378  40.493   7.392
 4510POPC   NC357839  16.594  40.343   5.386
 4510POPC   PO457840  17.112  40.001   5.497
 4510POPC   GL157841  16.816  40.064   5.800
 4510POPC   GL257842  16.596  39.794   5.798
 4510POPC   C1A57843  16.743  40.050   6.231
 4510POPC   D2A57844  16.395  40.070   6.490
 4510POPC   C3A57845  16.650  40.099   6.860
 4510POPC   C4A57846  16.871  40.182   7.245
 4510POPC   C1B57847  16.444  39.646   6.196
 4510POPC   C2B57848  16.589  39.613   6.636
 4510POPC   C3B57849  16.402  39.567   7.030
 4510POPC   C4B57850  16.414  39.940   7.280
 4511POPC   NC357851  29.552  23.716   5.585
 4511POPC   PO457852  30.194  23.563   5.443
 4511POPC   GL157853  30.057  23.538   5.833
 4511POPC   GL257854  30.152  23.894   5.921
 4511POPC   C1A57855  30.050  23.371   6.247
 4511POPC   D2A57856  30.158  23.659   6.579
 4511POPC   C3A57857  30.221  23.522   6.997
 4511POPC   C4A57858  29.865  23.452   7.288
 4511POPC   C1B57859  29.779  23.791   6.197
 4511POPC   C2B57860  29.665  23.880   6.630
 4511POPC   C3B57861  29.877  23.892   7.001
 4511POPC   C4B57862  29.808  24.014   7.406
 4512POPC   NC357863  21.648   6.789   5.579
 4512POPC   PO457864  20.921   6.864   5.457
 4512POPC   GL157865  21.162   6.686   5.829
 4512POPC   GL257866  21.009   6.392   5.965
 4512POPC   C1A57867  21.426   6.552   6.207
 4512POPC   D2A57868  21.626   6.794   6.533
 4512POPC   C3A57869  21.583   6.651   6.963
 4512POPC   C4A57870  21.432   6.887   7.314
 4512POPC   C1B57871  20.942   6.702   6.312
 4512POPC   C2B57872  21.120   6.750   6.719
 4512POPC   C3B57873  21.092   6.546   7.111
 4512POPC   C4B57874  21.254   6.411   7.486
 4513POPC   NC357875  37.552  43.307   5.492
 4513POPC   PO457876  37.999  42.950   5.784
 4513POPC   GL157877  37.622  42.982   5.987
 4513POPC   GL257878  37.454  43.274   6.000
 4513POPC   C1A57879  37.677  43.025   6.436
 4513POPC   D2A57880  37.860  42.696   6.692
 4513POPC   C3A57881  37.922  42.845   7.105
 4513POPC   C4A57882  37.974  43.279   7.252
 4513POPC   C1B57883  37.217  43.387   6.363
 4513POPC   C2B57884  37.396  43.392   6.708
 4513POPC   C3B57885  37.510  43.142   7.008
 4513POPC   C4B57886  37.493  43.287   7.379
 4514POPC   NC357887  26.878   9.539   5.201
 4514POPC   PO457888  27.175  10.085   5.536
 4514POPC   GL157889  26.955   9.860   5.845
 4514POPC   GL257890  26.720   9.735   5.696
 4514POPC   C1A57891  26.791   9.656   6.222
 4514POPC   D2A57892  26.654   9.562   6.635
 4514POPC   C3A57893  26.739   9.646   7.063
 4514POPC   C4A57894  26.520   9.510   7.441
 4514POPC   C1B57895  26.549  10.077   6.010
 4514POPC   C2B57896  26.464  10.003   6.450
 4514POPC   C3B57897  26.474  10.057   6.884
 4514POPC   C4B57898  26.489  10.435   7.082
 4515POPC   NC357899   9.440  24.078   5.423
 4515POPC   PO457900   9.064  24.513   5.121
 4515POPC   GL157901   9.165  24.456   5.665
 4515POPC   GL257902   9.378  24.251   5.873
 4515POPC   C1A57903   8.997  24.391   6.156
 4515POPC   D2A57904   8.829  24.474   6.601
 4515POPC   C3A57905   9.029  24.677   6.933
 4515POPC   C4A57906   9.047  24.486   7.311
 4515POPC   C1B57907   9.483  24.207   6.226
 4515POPC   C2B57908   9.344  24.385   6.590
 4515POPC   C3B57909   9.376  24.264   6.991
 4515POPC   C4B57910   9.711  24.119   7.238
 4516POPC   NC357911  15.701  34.827   5.577
 4516POPC   PO457912  15.596  34.218   5.509
 4516POPC   GL157913  15.940  34.294   5.824
 4516POPC   GL257914  16.141  34.603   5.754
 4516POPC   C1A57915  15.957  34.418   6.244
 4516POPC   D2A57916  15.840  34.481   6.658
 4516POPC   C3A57917  16.083  34.465   7.013
 4516POPC   C4A57918  15.753  34.691   7.211
 4516POPC   C1B57919  16.330  34.738   6.117
 4516POPC   C2B57920  16.290  34.725   6.544
 4516POPC   C3B57921  16.095  34.963   6.877
 4516POPC   C4B57922  16.223  34.906   7.312
 4517POPC   NC357923  16.066   3.785   5.578
 4517POPC   PO457924  15.685   3.291   5.410
 4517POPC   GL157925  15.863   3.365   5.839
 4517POPC   GL257926  15.835   3.680   6.071
 4517POPC   C1A57927  16.051   3.226   6.236
 4517POPC   D2A57928  16.014   3.501   6.603
 4517POPC   C3A57929  16.007   3.365   7.031
 4517POPC   C4A57930  16.001   3.382   7.467
 4517POPC   C1B57931  16.294   3.663   6.172
 4517POPC   C2B57932  16.527   3.725   6.532
 4517POPC   C3B57933  16.330   3.800   6.896
 4517POPC   C4B57934  16.092   3.845   7.237
 4518POPC   NC357935  22.814   8.628   5.449
 4518POPC   PO457936  23.185   9.167   5.447
 4518POPC   GL157937  22.875   9.025   5.786
 4518POPC   GL257938  22.677   8.705   5.923
 4518POPC   C1A57939  22.965   8.986   6.215
 4518POPC   D2A57940  22.974   8.844   6.606
 4518POPC   C3A57941  23.102   9.095   6.909
 4518POPC   C4A57942  23.321   9.001   7.235
 4518POPC   C1B57943  22.508   8.762   6.339
 4518POPC   C2B57944  22.423   8.723   6.747
 4518POPC   C3B57945  22.730   8.776   7.048
 4518POPC   C4B57946  22.741   9.119   7.321
 4519POPC   NC357947   2.577  13.513   5.287
 4519POPC   PO457948   2.715  14.179   5.538
 4519POPC   GL157949   2.822  13.941   5.892
 4519POPC   GL257950   2.527  13.704   5.876
 4519POPC   C1A57951   2.753  13.858   6.332
 4519POPC   D2A57952   2.596  13.493   6.581
 4519POPC   C3A57953   2.743  13.530   6.990
 4519POPC   C4A57954   2.920  13.873   7.039
 4519POPC   C1B57955   2.264  13.749   6.268
 4519POPC   C2B57956   2.084  13.578   6.659
 4519POPC   C3B57957   2.254  13.491   7.085
 4519POPC   C4B57958   2.412  13.140   7.364
 4520POPC   NC357959  13.802   5.752   5.361
 4520POPC   PO457960  13.209   5.923   5.669
 4520POPC   GL157961  13.637   5.934   5.941
 4520POPC   GL257962  13.995   5.880   5.835
 4520POPC   C1A57963  13.615   5.786   6.353
 4520POPC   D2A57964  13.428   5.474   6.615
 4520POPC   C3A57965  13.577   5.594   6.990
 4520POPC   C4A57966  13.712   5.991   7.135
 4520POPC   C1B57967  14.135   5.757   6.271
 4520POPC   C2B57968  13.995   5.807   6.717
 4520POPC   C3B57969  14.143   5.721   7.155
 4520POPC   C4B57970  14.082   6.004   7.512
 4521POPC   NC357971  38.384  43.608   5.025
 4521POPC   PO457972  38.665  43.864   5.522
 4521POPC   GL157973  38.572  44.003   5.889
 4521POPC   GL257974  38.553  44.340   5.741
 4521POPC   C1A57975  38.470  43.799   6.256
 4521POPC   D2A57976  38.102  43.806   6.520
 4521POPC   C3A57977  38.246  43.797   6.936
 4521POPC   C4A57978  38.440  43.497   7.194
 4521POPC   C1B57979  38.306  44.326   6.141
 4521POPC   C2B57980  38.433  44.223   6.535
 4521POPC   C3B57981  38.321  44.311   6.923
 4521POPC   C4B57982  38.295  44.124   7.326
 4522POPC   NC357983  24.737  23.555   5.572
 4522POPC   PO457984  24.154  23.967   5.561
 4522POPC   GL157985  24.435  23.875   5.916
 4522POPC   GL257986  24.577  23.560   6.049
 4522POPC   C1A57987  24.339  23.922   6.319
 4522POPC   D2A57988  24.261  23.715   6.672
 4522POPC   C3A57989  24.440  23.902   6.990
 4522POPC   C4A57990  24.459  23.903   7.414
 4522POPC   C1B57991  24.643  23.344   6.409
 4522POPC   C2B57992  24.750  23.554   6.749
 4522POPC   C3B57993  24.693  23.491   7.140
 4522POPC   C4B57994  24.278  23.449   7.224
 4523POPC   NC357995   8.389  22.614   5.406
 4523POPC   PO457996   7.917  23.214   5.499
 4523POPC   GL157997   8.185  23.088   5.836
 4523POPC   GL257998   8.260  22.776   5.860
 4523POPC   C1A57999   8.452  23.158   6.195
 4523POPC   D2A58000   8.287  23.112   6.621
 4523POPC   C3A58001   8.500  23.197   6.987
 4523POPC   C4A58002   8.339  23.193   7.392
 4523POPC   C1B58003   8.117  22.758   6.267
 4523POPC   C2B58004   8.323  22.599   6.653
 4523POPC   C3B58005   8.322  22.732   7.059
 4523POPC   C4B58006   8.145  22.655   7.472
 4524POPC   NC358007  14.309  28.243   5.261
 4524POPC   PO458008  14.806  28.661   5.521
 4524POPC   GL158009  14.495  28.446   5.742
 4524POPC   GL258010  14.412  28.134   5.740
 4524POPC   C1A58011  14.359  28.531   6.135
 4524POPC   D2A58012  14.078  28.656   6.428
 4524POPC   C3A58013  14.198  28.441   6.766
 4524POPC   C4A58014  14.211  28.453   7.194
 4524POPC   C1B58015  14.773  28.167   6.070
 4524POPC   C2B58016  14.699  28.332   6.495
 4524POPC   C3B58017  14.626  28.196   6.915
 4524POPC   C4B58018  14.613  28.204   7.340
 4525POPC   NC358019  39.187  41.088   5.470
 4525POPC   PO458020  39.350  40.406   5.562
 4525POPC   GL158021  39.217  40.717   5.829
 4525POPC   GL258022  39.552  40.883   5.786
 4525POPC   C1A58023  38.961  40.681   6.195
 4525POPC   D2A58024  38.930  40.354   6.514
 4525POPC   C3A58025  39.053  40.595   6.860
 4525POPC   C4A58026  39.054  40.841   7.231
 4525POPC   C1B58027  39.586  40.816   6.217
 4525POPC   C2B58028  39.411  40.913   6.609
 4525POPC   C3B58029  39.499  40.971   7.034
 4525POPC   C4B58030  39.471  41.115   7.449
 4526POPC   NC358031  38.178   1.585   5.589
 4526POPC   PO458032  38.638   1.927   5.293
 4526POPC   GL158033  38.563   1.948   5.737
 4526POPC   GL258034  38.318   2.220   5.773
 4526POPC   C1A58035  38.694   2.151   6.150
 4526POPC   D2A58036  38.737   1.909   6.545
 4526POPC   C3A58037  38.628   2.034   6.955
 4526POPC   C4A58038  38.641   2.295   7.337
 4526POPC   C1B58039  38.229   1.980   6.192
 4526POPC   C2B58040  38.219   1.877   6.646
 4526POPC   C3B58041  38.143   1.983   7.089
 4526POPC   C4B58042  38.004   2.310   7.345
 4527POPC   NC358043   9.462  37.942   5.424
 4527POPC   PO458044  10.046  38.310   5.489
 4527POPC   GL158045   9.894  37.964   5.768
 4527POPC   GL258046   9.640  37.703   5.851
 4527POPC   C1A58047   9.995  37.866   6.197
 4527POPC   D2A58048   9.988  37.595   6.518
 4527POPC   C3A58049   9.841  37.829   6.812
 4527POPC   C4A58050   9.797  37.762   7.208
 4527POPC   C1B58051   9.651  37.348   6.165
 4527POPC   C2B58052   9.690  37.158   6.603
 4527POPC   C3B58053   9.560  37.348   6.996
 4527POPC   C4B58054   9.379  37.551   7.368
 4528POPC   NC358055  29.623  25.273   5.453
 4528POPC   PO458056  30.277  25.059   5.453
 4528POPC   GL158057  30.070  24.951   5.844
 4528POPC   GL258058  29.722  24.849   5.830
 4528POPC   C1A58059  30.036  25.193   6.233
 4528POPC   D2A58060  30.115  25.465   6.601
 4528POPC   C3A58061  29.959  25.383   7.044
 4528POPC   C4A58062  30.161  25.521   7.440
 4528POPC   C1B58063  29.811  24.737   6.252
 4528POPC   C2B58064  29.886  24.931   6.652
 4528POPC   C3B58065  29.716  24.896   7.039
 4528POPC   C4B58066  29.908  25.007   7.400
 4529POPC   NC358067  35.385  43.792   5.432
 4529POPC   PO458068  35.375  44.399   5.180
 4529POPC   GL158069  35.500  44.208   5.658
 4529POPC   GL258070  35.678  43.928   5.836
 4529POPC   C1A58071  35.275  44.052   6.089
 4529POPC   D2A58072  35.184  43.772   6.441
 4529POPC   C3A58073  35.329  43.874   6.850
 4529POPC   C4A58074  35.261  44.153   7.182
 4529POPC   C1B58075  35.691  43.817   6.285
 4529POPC   C2B58076  35.809  43.904   6.709
 4529POPC   C3B58077  35.742  43.923   7.169
 4529POPC   C4B58078  35.646  43.609   7.474
 4530POPC   NC358079  32.015  23.068   5.427
 4530POPC   PO458080  32.299  22.437   5.435
 4530POPC   GL158081  32.210  22.727   5.786
 4530POPC   GL258082  32.494  22.977   5.844
 4530POPC   C1A58083  32.014  22.862   6.188
 4530POPC   D2A58084  31.923  22.861   6.644
 4530POPC   C3A58085  32.128  23.103   6.999
 4530POPC   C4A58086  32.234  22.943   7.430
 4530POPC   C1B58087  32.584  22.830   6.268
 4530POPC   C2B58088  32.495  22.919   6.703
 4530POPC   C3B58089  32.650  22.809   7.125
 4530POPC   C4B58090  32.642  22.649   7.544
 4531POPC   NC358091   4.317   7.998   5.260
 4531POPC   PO458092   3.967   8.494   5.524
 4531POPC   GL158093   4.211   8.296   5.841
 4531POPC   GL258094   4.467   8.512   5.861
 4531POPC   C1A58095   4.153   8.014   6.203
 4531POPC   D2A58096   4.277   7.865   6.634
 4531POPC   C3A58097   4.256   8.126   7.031
 4531POPC   C4A58098   4.323   8.230   7.477
 4531POPC   C1B58099   4.613   8.229   6.195
 4531POPC   C2B58100   4.554   8.301   6.625
 4531POPC   C3B58101   4.764   8.277   6.993
 4531POPC   C4B58102   4.714   8.522   7.344
 4532POPC   NC358103   9.435   9.294   5.501
 4532POPC   PO458104  10.148   9.168   5.440
 4532POPC   GL158105   9.888   9.214   5.785
 4532POPC   GL258106   9.671   8.939   5.791
 4532POPC   C1A58107   9.989   9.118   6.224
 4532POPC   D2A58108  10.080   9.202   6.659
 4532POPC   C3A58109   9.814   8.980   6.939
 4532POPC   C4A58110   9.574   9.063   7.291
 4532POPC   C1B58111   9.745   8.667   6.128
 4532POPC   C2B58112   9.962   8.683   6.491
 4532POPC   C3B58113   9.876   8.500   6.832
 4532POPC   C4B58114   9.502   8.540   7.082
 4533POPC   NC358115  36.954  39.596   5.434
 4533POPC   PO458116  36.735  40.191   5.284
 4533POPC   GL158117  36.791  40.224   5.737
 4533POPC   GL258118  37.046  39.983   5.745
 4533POPC   C1A58119  36.676  40.183   6.191
 4533POPC   D2A58120  36.796  39.944   6.566
 4533POPC   C3A58121  36.607  40.025   6.961
 4533POPC   C4A58122  36.686  40.333   7.244
 4533POPC   C1B58123  37.165  40.027   6.138
 4533POPC   C2B58124  37.299  39.916   6.506
 4533POPC   C3B58125  37.228  39.841   6.888
 4533POPC   C4B58126  37.021  39.913   7.230
 4534POPC   NC358127  19.605  15.048   5.456
 4534POPC   PO458128  19.823  15.672   5.552
 4534POPC   GL158129  20.028  15.331   5.797
 4534POPC   GL258130  19.822  15.046   5.919
 4534POPC   C1A58131  20.157  15.273   6.226
 4534POPC   D2A58132  19.923  15.296   6.613
 4534POPC   C3A58133  20.006  15.404   7.021
 4534POPC   C4A58134  20.030  15.055   7.304
 4534POPC   C1B58135  19.804  14.879   6.341
 4534POPC   C2B58136  19.806  14.813   6.814
 4534POPC   C3B58137  19.715  14.659   7.239
 4534POPC   C4B58138  19.586  14.833   7.610
 4535POPC   NC358139  23.122   1.732   5.548
 4535POPC   PO458140  22.541   2.111   5.483
 4535POPC   GL158141  22.692   1.922   5.839
 4535POPC   GL258142  22.945   2.148   5.867
 4535POPC   C1A58143  22.786   1.901   6.288
 4535POPC   D2A58144  23.065   2.149   6.543
 4535POPC   C3A58145  23.111   1.987   6.964
 4535POPC   C4A58146  23.148   2.137   7.382
 4535POPC   C1B58147  22.710   2.395   6.179
 4535POPC   C2B58148  22.587   2.320   6.590
 4535POPC   C3B58149  22.772   2.366   6.991
 4535POPC   C4B58150  22.660   2.061   7.296
 4536POPC   NC358151  36.572  38.938   5.415
 4536POPC   PO458152  37.273  39.136   5.362
 4536POPC   GL158153  36.973  39.083   5.693
 4536POPC   GL258154  36.776  39.345   5.822
 4536POPC   C1A58155  36.883  38.934   6.112
 4536POPC   D2A58156  37.157  39.016   6.436
 4536POPC   C3A58157  37.023  39.017   6.866
 4536POPC   C4A58158  36.876  39.046   7.277
 4536POPC   C1B58159  36.860  39.601   6.159
 4536POPC   C2B58160  36.912  39.448   6.562
 4536POPC   C3B58161  36.810  39.535   6.974
 4536POPC   C4B58162  36.778  39.510   7.430
 4537POPC   NC358163  26.257  44.095   5.342
 4537POPC   PO458164  25.648  44.150   5.517
 4537POPC   GL158165  25.919  43.985   5.845
 4537POPC   GL258166  26.193  43.783   5.743
 4537POPC   C1A58167  25.956  43.895   6.305
 4537POPC   D2A58168  26.045  44.178   6.673
 4537POPC   C3A58169  25.780  44.181   7.031
 4537POPC   C4A58170  25.585  43.796   7.098
 4537POPC   C1B58171  26.324  43.561   6.116
 4537POPC   C2B58172  26.298  43.546   6.560
 4537POPC   C3B58173  26.436  43.639   6.970
 4537POPC   C4B58174  26.204  43.945   7.203
 4538POPC   NC358175  12.796   4.303   5.405
 4538POPC   PO458176  13.266   3.804   5.329
 4538POPC   GL158177  13.029   3.980   5.775
 4538POPC   GL258178  13.045   4.368   5.851
 4538POPC   C1A58179  12.776   3.991   6.149
 4538POPC   D2A58180  12.709   3.934   6.557
 4538POPC   C3A58181  12.688   4.167   6.911
 4538POPC   C4A58182  12.813   4.034   7.302
 4538POPC   C1B58183  12.855   4.467   6.278
 4538POPC   C2B58184  12.865   4.632   6.684
 4538POPC   C3B58185  12.977   4.529   7.120
 4538POPC   C4B58186  12.637   4.608   7.425
 4539POPC   NC358187   5.264  34.809   5.481
 4539POPC   PO458188   4.764  34.371   5.356
 4539POPC   GL158189   4.731  34.355   5.815
 4539POPC   GL258190   4.984  34.592   5.838
 4539POPC   C1A58191   4.627  34.621   6.206
 4539POPC   D2A58192   4.502  34.769   6.643
 4539POPC   C3A58193   4.842  34.625   6.898
 4539POPC   C4A58194   5.183  34.426   7.104
 4539POPC   C1B58195   5.162  34.791   6.195
 4539POPC   C2B58196   5.287  34.651   6.617
 4539POPC   C3B58197   5.296  34.901   6.990
 4539POPC   C4B58198   5.467  34.787   7.385
 4540POPC   NC358199   8.638  14.577   5.338
 4540POPC   PO458200   8.087  14.154   5.348
 4540POPC   GL158201   8.286  14.210   5.781
 4540POPC   GL258202   8.481  14.533   5.824
 4540POPC   C1A58203   8.077  14.220   6.220
 4540POPC   D2A58204   7.953  14.526   6.583
 4540POPC   C3A58205   8.166  14.452   6.992
 4540POPC   C4A58206   8.194  14.155   7.296
 4540POPC   C1B58207   8.318  14.681   6.249
 4540POPC   C2B58208   8.442  14.795   6.695
 4540POPC   C3B58209   8.618  14.694   7.123
 4540POPC   C4B58210   8.536  14.622   7.602
 4541POPC   NC358211  44.039  42.726   5.514
 4541POPC   PO458212  44.018  43.433   5.484
 4541POPC   GL158213  43.945  43.128   5.822
 4541POPC   GL258214  43.615  42.953   5.816
 4541POPC   C1A58215  43.961  42.917   6.226
 4541POPC   D2A58216  43.918  43.070   6.641
 4541POPC   C3A58217  44.107  42.941   7.068
 4541POPC   C4A58218  43.954  43.114   7.480
 4541POPC   C1B58219  43.562  43.304   6.162
 4541POPC   C2B58220  43.613  43.492   6.607
 4541POPC   C3B58221  43.719  43.302   7.032
 4541POPC   C4B58222  43.455  43.091   7.337
 4542POPC   NC358223  44.631  40.545   5.492
 4542POPC   PO458224  44.487  41.106   5.809
 4542POPC   GL158225  44.379  40.723   5.984
 4542POPC   GL258226  44.605  40.461   5.980
 4542POPC   C1A58227  44.429  40.627   6.437
 4542POPC   D2A58228  44.649  40.759   6.839
 4542POPC   C3A58229  44.511  40.565   7.232
 4542POPC   C4A58230  44.399  40.701   7.639
 4542POPC   C1B58231  44.923  40.736   6.145
 4542POPC   C2B58232   0.209  40.803   6.491
 4542POPC   C3B58233   0.165  40.711   6.909
 4542POPC   C4B58234  44.999  40.747   7.302
 4543POPC   NC358235   6.072  14.613   5.352
 4543POPC   PO458236   5.583  14.203   5.638
 4543POPC   GL158237   5.992  14.304   5.859
 4543POPC   GL258238   6.045  14.658   5.860
 4543POPC   C1A58239   6.049  14.294   6.327
 4543POPC   D2A58240   5.795  14.080   6.651
 4543POPC   C3A58241   5.692  14.291   7.026
 4543POPC   C4A58242   6.080  14.250   7.266
 4543POPC   C1B58243   5.811  14.765   6.219
 4543POPC   C2B58244   5.876  14.711   6.648
 4543POPC   C3B58245   5.973  14.721   7.076
 4543POPC   C4B58246   5.767  14.659   7.472
 4544POPC   NC358247  42.626   0.319   5.681
 4544POPC   PO458248  43.254   0.171   5.767
 4544POPC   GL158249  43.173   0.589   5.950
 4544POPC   GL258250  42.825   0.602   6.072
 4544POPC   C1A58251  43.280   0.658   6.380
 4544POPC   D2A58252  43.169   0.316   6.641
 4544POPC   C3A58253  43.314   0.291   7.010
 4544POPC   C4A58254  43.196   0.536   7.306
 4544POPC   C1B58255  42.790   0.197   6.329
 4544POPC   C2B58256  42.713  44.969   6.737
 4544POPC   C3B58257  42.652   0.005   7.190
 4544POPC   C4B58258  42.813   0.258   7.540
 4545POPC   NC358259  30.890  14.066   5.508
 4545POPC   PO458260  30.907  14.703   5.124
 4545POPC   GL158261  30.803  14.627   5.620
 4545POPC   GL258262  31.093  14.700   5.816
 4545POPC   C1A58263  30.594  14.421   6.055
 4545POPC   D2A58264  30.576  14.151   6.484
 4545POPC   C3A58265  30.567  14.296   6.947
 4545POPC   C4A58266  30.684  14.327   7.396
 4545POPC   C1B58267  31.016  14.627   6.263
 4545POPC   C2B58268  31.051  14.401   6.624
 4545POPC   C3B58269  31.054  14.413   7.049
 4545POPC   C4B58270  30.856  14.781   7.228
 4546POPC   NC358271   2.412  29.629   5.366
 4546POPC   PO458272   1.933  29.972   5.302
 4546POPC   GL158273   1.827  29.835   5.736
 4546POPC   GL258274   2.007  29.516   5.798
 4546POPC   C1A58275   1.945  29.847   6.198
 4546POPC   D2A58276   1.833  29.945   6.613
 4546POPC   C3A58277   2.115  30.040   6.963
 4546POPC   C4A58278   1.859  30.028   7.340
 4546POPC   C1B58279   2.227  29.414   6.200
 4546POPC   C2B58280   2.092  29.499   6.621
 4546POPC   C3B58281   1.921  29.584   7.042
 4546POPC   C4B58282   2.222  29.693   7.335
 4547POPC   NC358283  20.323  24.084   5.526
 4547POPC   PO458284  20.779  23.530   5.416
 4547POPC   GL158285  20.704  23.681   5.797
 4547POPC   GL258286  20.357  23.623   5.805
 4547POPC   C1A58287  20.753  23.511   6.213
 4547POPC   D2A58288  20.960  23.646   6.607
 4547POPC   C3A58289  20.733  23.495   6.951
 4547POPC   C4A58290  20.581  23.654   7.332
 4547POPC   C1B58291  20.390  23.917   6.158
 4547POPC   C2B58292  20.472  23.793   6.556
 4547POPC   C3B58293  20.360  23.909   6.944
 4547POPC   C4B58294  20.227  24.004   7.337
 4548POPC   NC358295  36.408   6.330   5.520
 4548POPC   PO458296  35.938   6.872   5.536
 4548POPC   GL158297  36.273   6.742   5.817
 4548POPC   GL258298  36.509   7.045   5.858
 4548POPC   C1A58299  36.233   6.467   6.220
 4548POPC   D2A58300  36.170   6.256   6.661
 4548POPC   C3A58301  36.162   6.523   7.052
 4548POPC   C4A58302  35.830   6.492   7.337
 4548POPC   C1B58303  36.287   7.001   6.244
 4548POPC   C2B58304  36.229   6.820   6.625
 4548POPC   C3B58305  36.413   6.986   6.976
 4548POPC   C4B58306  36.265   7.045   7.379
 4549POPC   NC358307  29.236  40.195   5.044
 4549POPC   PO458308  28.950  39.858   5.564
 4549POPC   GL158309  29.066  39.667   5.907
 4549POPC   GL258310  29.235  39.990   5.980
 4549POPC   C1A58311  29.156  39.645   6.336
 4549POPC   D2A58312  29.275  40.029   6.516
 4549POPC   C3A58313  29.114  39.876   6.839
 4549POPC   C4A58314  29.085  39.819   7.236
 4549POPC   C1B58315  28.840  40.064   6.215
 4549POPC   C2B58316  28.815  40.241   6.616
 4549POPC   C3B58317  29.035  40.332   7.003
 4549POPC   C4B58318  28.783  40.250   7.308
 4550POPC   NC358319  20.879  24.658   5.456
 4550POPC   PO458320  20.226  24.545   5.487
 4550POPC   GL158321  20.543  24.468   5.790
 4550POPC   GL258322  20.799  24.193   5.738
 4550POPC   C1A58323  20.588  24.412   6.208
 4550POPC   D2A58324  20.349  24.304   6.569
 4550POPC   C3A58325  20.563  24.375   6.959
 4550POPC   C4A58326  20.554  24.663   7.250
 4550POPC   C1B58327  20.915  24.008   6.149
 4550POPC   C2B58328  20.842  24.143   6.577
 4550POPC   C3B58329  20.878  23.983   6.990
 4550POPC   C4B58330  20.721  24.131   7.406
 4551POPC   NC358331  34.089  19.705   5.426
 4551POPC   PO458332  33.530  19.447   5.404
 4551POPC   GL158333  33.663  19.589   5.779
 4551POPC   GL258334  33.962  19.399   5.882
 4551POPC   C1A58335  33.809  19.827   6.130
 4551POPC   D2A58336  33.943  19.820   6.541
 4551POPC   C3A58337  33.935  20.193   6.774
 4551POPC   C4A58338  33.990  20.180   7.213
 4551POPC   C1B58339  34.035  19.313   6.337
 4551POPC   C2B58340  34.084  19.401   6.797
 4551POPC   C3B58341  34.156  19.640   7.182
 4551POPC   C4B58342  34.233  19.470   7.605
 4552POPC   NC358343  17.055  17.741   5.433
 4552POPC   PO458344  16.641  17.278   5.187
 4552POPC   GL158345  16.725  17.404   5.651
 4552POPC   GL258346  16.488  17.240   5.823
 4552POPC   C1A58347  16.675  17.658   6.092
 4552POPC   D2A58348  16.493  17.809   6.519
 4552POPC   C3A58349  16.702  17.674   6.907
 4552POPC   C4A58350  16.535  17.482   7.256
 4552POPC   C1B58351  16.841  17.174   6.118
 4552POPC   C2B58352  16.828  17.327   6.553
 4552POPC   C3B58353  16.824  17.156   6.986
 4552POPC   C4B58354  16.912  16.908   7.354
 4553POPC   NC358355  25.589  44.578   5.352
 4553POPC   PO458356  25.081  44.959   5.186
 4553POPC   GL158357  25.069  44.724   5.579
 4553POPC   GL258358  25.169   0.020   5.778
 4553POPC   C1A58359  25.057  44.598   6.049
 4553POPC   D2A58360  24.964  44.478   6.488
 4553POPC   C3A58361  25.223  44.596   6.887
 4553POPC   C4A58362  25.348  44.357   7.256
 4553POPC   C1B58363  25.046   0.114   6.220
 4553POPC   C2B58364  24.961  44.976   6.646
 4553POPC   C3B58365  25.062   0.114   7.056
 4553POPC   C4B58366  25.289  44.850   7.357
 4554POPC   NC358367  18.702  10.911   5.474
 4554POPC   PO458368  19.172  10.358   5.397
 4554POPC   GL158369  19.276  10.523   5.787
 4554POPC   GL258370  18.989  10.744   5.895
 4554POPC   C1A58371  19.426  10.644   6.178
 4554POPC   D2A58372  19.336  10.972   6.467
 4554POPC   C3A58373  19.352  10.798   6.881
 4554POPC   C4A58374  19.214  10.489   7.140
 4554POPC   C1B58375  18.858  10.824   6.351
 4554POPC   C2B58376  18.601  10.872   6.757
 4554POPC   C3B58377  18.786  10.789   7.172
 4554POPC   C4B58378  18.737  10.876   7.638
 4555POPC   NC358379   7.747  19.500   5.370
 4555POPC   PO458380   8.211  20.021   5.364
 4555POPC   GL158381   8.049  19.891   5.782
 4555POPC   GL258382   7.890  19.558   5.865
 4555POPC   C1A58383   8.260  19.994   6.189
 4555POPC   D2A58384   8.349  20.183   6.564
 4555POPC   C3A58385   8.415  19.953   6.922
 4555POPC   C4A58386   8.219  19.934   7.290
 4555POPC   C1B58387   8.115  19.514   6.268
 4555POPC   C2B58388   8.056  19.723   6.652
 4555POPC   C3B58389   7.872  19.647   7.073
 4555POPC   C4B58390   7.861  19.704   7.583
 4556POPC   NC358391   8.976  39.541   5.474
 4556POPC   PO458392   9.272  38.953   5.394
 4556POPC   GL158393   9.107  39.162   5.809
 4556POPC   GL258394   9.230  39.531   5.907
 4556POPC   C1A58395   9.045  39.249   6.269
 4556POPC   D2A58396   8.884  39.125   6.612
 4556POPC   C3A58397   9.096  39.272   6.935
 4556POPC   C4A58398   9.147  39.007   7.272
 4556POPC   C1B58399   8.808  39.670   6.129
 4556POPC   C2B58400   8.857  39.649   6.569
 4556POPC   C3B58401   8.911  39.759   6.969
 4556POPC   C4B58402   8.830  39.503   7.300
 4557POPC   NC358403  44.728  25.047   5.384
 4557POPC   PO458404  44.872  25.617   5.656
 4557POPC   GL158405  44.764  25.248   5.880
 4557POPC   GL258406  44.984  24.956   5.823
 4557POPC   C1A58407  44.583  25.217   6.306
 4557POPC   D2A58408  44.452  24.975   6.671
 4557POPC   C3A58409  44.427  25.169   7.101
 4557POPC   C4A58410  44.528  25.525   7.353
 4557POPC   C1B58411   0.092  25.110   6.249
 4557POPC   C2B58412  44.967  25.113   6.657
 4557POPC   C3B58413  44.956  25.277   7.048
 4557POPC   C4B58414   0.128  25.057   7.337
 4558POPC   NC358415  12.965  13.635   5.316
 4558POPC   PO458416  12.632  13.134   5.378
 4558POPC   GL158417  12.781  13.407   5.766
 4558POPC   GL258418  12.963  13.759   5.815
 4558POPC   C1A58419  12.706  13.559   6.217
 4558POPC   D2A58420  12.482  13.609   6.599
 4558POPC   C3A58421  12.696  13.522   6.964
 4558POPC   C4A58422  12.917  13.491   7.321
 4558POPC   C1B58423  13.171  13.762   6.237
 4558POPC   C2B58424  12.982  13.835   6.670
 4558POPC   C3B58425  12.903  14.014   7.109
 4558POPC   C4B58426  12.953  13.982   7.604
 4559POPC   NC358427  33.514  20.959   5.542
 4559POPC   PO458428  34.115  20.902   5.195
 4559POPC   GL158429  33.993  20.777   5.649
 4559POPC   GL258430  33.713  20.513   5.715
 4559POPC   C1A58431  33.912  20.750   6.118
 4559POPC   D2A58432  33.975  20.687   6.569
 4559POPC   C3A58433  33.714  20.797   6.931
 4559POPC   C4A58434  33.857  20.772   7.348
 4559POPC   C1B58435  33.464  20.437   6.125
 4559POPC   C2B58436  33.495  20.469   6.593
 4559POPC   C3B58437  33.511  20.318   7.036
 4559POPC   C4B58438  33.552  20.222   7.480
 4560POPC   NC358439  11.052   9.098   5.277
 4560POPC   PO458440  11.523   8.656   5.284
 4560POPC   GL158441  11.424   8.860   5.727
 4560POPC   GL258442  11.332   9.212   5.791
 4560POPC   C1A58443  11.266   8.888   6.199
 4560POPC   D2A58444  11.011   8.994   6.590
 4560POPC   C3A58445  11.139   8.841   7.005
 4560POPC   C4A58446  11.590   8.856   7.124
 4560POPC   C1B58447  11.306   9.395   6.247
 4560POPC   C2B58448  11.475   9.253   6.670
 4560POPC   C3B58449  11.360   9.351   7.092
 4560POPC   C4B58450  10.934   9.244   7.245
 4561POPC   NC358451   8.768   9.313   5.460
 4561POPC   PO458452   9.245   8.880   5.496
 4561POPC   GL158453   9.146   9.063   5.871
 4561POPC   GL258454   8.795   9.090   5.912
 4561POPC   C1A58455   9.403   9.020   6.224
 4561POPC   D2A58456   9.470   8.761   6.582
 4561POPC   C3A58457   9.281   8.965   6.895
 4561POPC   C4A58458   9.045   9.012   7.259
 4561POPC   C1B58459   8.900   8.983   6.329
 4561POPC   C2B58460   8.797   8.915   6.745
 4561POPC   C3B58461   8.690   9.253   7.006
 4561POPC   C4B58462   8.740   9.374   7.457
 4562POPC   NC358463  30.274  33.678   5.514
 4562POPC   PO458464  29.866  33.998   5.098
 4562POPC   GL158465  29.787  33.697   5.619
 4562POPC   GL258466  30.061  33.527   5.930
 4562POPC   C1A58467  29.685  33.797   6.093
 4562POPC   D2A58468  29.451  33.599   6.462
 4562POPC   C3A58469  29.716  33.547   6.827
 4562POPC   C4A58470  29.942  33.677   7.175
 4562POPC   C1B58471  30.061  33.596   6.402
 4562POPC   C2B58472  30.014  33.942   6.706
 4562POPC   C3B58473  30.254  34.076   7.061
 4562POPC   C4B58474  30.274  33.905   7.489
 4563POPC   NC358475   5.507   6.973   5.409
 4563POPC   PO458476   5.779   6.396   5.155
 4563POPC   GL158477   5.858   6.678   5.631
 4563POPC   GL258478   5.597   6.719   5.842
 4563POPC   C1A58479   6.048   6.777   6.102
 4563POPC   D2A58480   5.968   6.999   6.542
 4563POPC   C3A58481   5.959   6.795   6.990
 4563POPC   C4A58482   6.054   6.555   7.422
 4563POPC   C1B58483   5.555   6.969   6.214
 4563POPC   C2B58484   5.458   6.926   6.661
 4563POPC   C3B58485   5.501   7.077   7.084
 4563POPC   C4B58486   5.681   6.879   7.420
 4564POPC   NC358487  43.379  18.328   5.516
 4564POPC   PO458488  44.003  18.238   5.190
 4564POPC   GL158489  44.009  18.366   5.717
 4564POPC   GL258490  43.663  18.319   5.923
 4564POPC   C1A58491  44.045  18.311   6.225
 4564POPC   D2A58492  43.772  18.328   6.619
 4564POPC   C3A58493  44.007  18.499   7.022
 4564POPC   C4A58494  44.096  18.496   7.528
 4564POPC   C1B58495  43.717  17.918   6.190
 4564POPC   C2B58496  44.001  17.844   6.530
 4564POPC   C3B58497  43.881  17.942   6.922
 4564POPC   C4B58498  43.898  17.749   7.270
 4565POPC   NC358499  41.230  19.145   5.507
 4565POPC   PO458500  41.849  19.446   5.557
 4565POPC   GL158501  41.669  19.108   5.821
 4565POPC   GL258502  41.409  19.194   5.987
 4565POPC   C1A58503  41.665  18.782   6.154
 4565POPC   D2A58504  41.516  18.701   6.606
 4565POPC   C3A58505  41.769  18.798   6.970
 4565POPC   C4A58506  41.601  19.029   7.300
 4565POPC   C1B58507  41.072  19.381   6.124
 4565POPC   C2B58508  41.042  19.347   6.554
 4565POPC   C3B58509  41.260  19.170   6.879
 4565POPC   C4B58510  41.118  19.376   7.204
 4566POPC   NC358511   5.925  25.855   5.433
 4566POPC   PO458512   5.616  26.472   5.465
 4566POPC   GL158513   5.675  26.139   5.789
 4566POPC   GL258514   6.060  26.146   5.865
 4566POPC   C1A58515   5.746  25.937   6.202
 4566POPC   D2A58516   5.841  26.248   6.550
 4566POPC   C3A58517   5.630  26.158   6.939
 4566POPC   C4A58518   5.720  25.715   7.098
 4566POPC   C1B58519   6.235  25.923   6.263
 4566POPC   C2B58520   6.031  25.792   6.656
 4566POPC   C3B58521   6.117  26.052   6.996
 4566POPC   C4B58522   5.913  26.131   7.364
 4567POPC   NC358523   0.084  37.973   5.538
 4567POPC   PO458524   0.540  37.506   5.485
 4567POPC   GL158525   0.508  37.756   5.848
 4567POPC   GL258526   0.695  38.064   5.805
 4567POPC   C1A58527   0.542  37.625   6.275
 4567POPC   D2A58528   0.321  37.461   6.626
 4567POPC   C3A58529   0.492  37.673   6.955
 4567POPC   C4A58530   0.570  37.664   7.355
 4567POPC   C1B58531   0.806  38.082   6.256
 4567POPC   C2B58532   0.732  38.070   6.719
 4567POPC   C3B58533   0.925  37.955   7.123
 4567POPC   C4B58534   0.837  38.084   7.557
 4568POPC   NC358535   2.257  33.914   5.381
 4568POPC   PO458536   1.782  33.510   5.352
 4568POPC   GL158537   1.904  33.727   5.764
 4568POPC   GL258538   2.256  33.655   5.842
 4568POPC   C1A58539   1.800  33.828   6.231
 4568POPC   D2A58540   1.676  33.554   6.613
 4568POPC   C3A58541   1.922  33.613   6.997
 4568POPC   C4A58542   1.911  33.897   7.331
 4568POPC   C1B58543   2.341  33.784   6.279
 4568POPC   C2B58544   2.233  33.947   6.722
 4568POPC   C3B58545   2.288  34.182   7.129
 4568POPC   C4B58546   2.322  34.037   7.589
 4569POPC   NC358547  22.106  13.870   4.945
 4569POPC   PO458548  22.179  13.409   5.377
 4569POPC   GL158549  22.320  13.601   5.776
 4569POPC   GL258550  22.309  13.958   5.770
 4569POPC   C1A58551  22.147  13.674   6.195
 4569POPC   D2A58552  21.823  13.772   6.484
 4569POPC   C3A58553  21.903  13.537   6.846
 4569POPC   C4A58554  21.842  13.735   7.216
 4569POPC   C1B58555  22.442  14.095   6.188
 4569POPC   C2B58556  22.253  14.036   6.565
 4569POPC   C3B58557  22.356  13.901   6.965
 4569POPC   C4B58558  22.326  13.748   7.370
 4570POPC   NC358559  19.201  26.458   5.561
 4570POPC   PO458560  18.901  25.800   5.440
 4570POPC   GL158561  18.996  25.995   5.832
 4570POPC   GL258562  18.749  26.215   5.922
 4570POPC   C1A58563  19.016  25.945   6.288
 4570POPC   D2A58564  18.815  26.058   6.691
 4570POPC   C3A58565  19.114  25.845   6.936
 4570POPC   C4A58566  19.234  25.652   7.278
 4570POPC   C1B58567  18.861  26.438   6.308
 4570POPC   C2B58568  19.234  26.380   6.582
 4570POPC   C3B58569  19.211  26.330   7.008
 4570POPC   C4B58570  18.818  26.196   7.232
 4571POPC   NC358571  17.767  26.220   5.349
 4571POPC   PO458572  17.313  25.710   5.220
 4571POPC   GL158573  17.347  25.927   5.656
 4571POPC   GL258574  17.675  26.035   5.809
 4571POPC   C1A58575  17.260  26.211   6.043
 4571POPC   D2A58576  17.453  26.218   6.462
 4571POPC   C3A58577  17.185  26.309   6.833
 4571POPC   C4A58578  17.339  26.118   7.211
 4571POPC   C1B58579  17.895  25.909   6.179
 4571POPC   C2B58580  17.813  25.778   6.579
 4571POPC   C3B58581  17.861  25.958   6.955
 4571POPC   C4B58582  17.829  25.704   7.274
 4572POPC   NC358583  41.073   0.375   5.536
 4572POPC   PO458584  40.412   0.494   5.356
 4572POPC   GL158585  40.632   0.473   5.771
 4572POPC   GL258586  40.681   0.799   5.891
 4572POPC   C1A58587  40.788   0.222   6.150
 4572POPC   D2A58588  41.036   0.230   6.550
 4572POPC   C3A58589  40.969   0.104   6.985
 4572POPC   C4A58590  40.747   0.175   7.377
 4572POPC   C1B58591  40.848   0.722   6.318
 4572POPC   C2B58592  41.232   0.694   6.585
 4572POPC   C3B58593  41.073   0.600   6.994
 4572POPC   C4B58594  40.796   0.691   7.363
 4573POPC   NC358595  26.953  19.283   5.427
 4573POPC   PO458596  26.510  18.730   5.494
 4573POPC   GL158597  26.599  19.030   5.823
 4573POPC   GL258598  26.909  19.175   5.915
 4573POPC   C1A58599  26.658  18.938   6.308
 4573POPC   D2A58600  26.870  18.917   6.727
 4573POPC   C3A58601  26.655  18.717   7.093
 4573POPC   C4A58602  26.612  18.987   7.458
 4573POPC   C1B58603  26.865  19.403   6.289
 4573POPC   C2B58604  26.896  19.431   6.736
 4573POPC   C3B58605  26.843  19.449   7.163
 4573POPC   C4B58606  27.203  19.460   7.405
 4574POPC   NC358607  36.101   9.208   5.378
 4574POPC   PO458608  36.033   8.507   5.272
 4574POPC   GL158609  35.976   8.793   5.677
 4574POPC   GL258610  36.290   8.961   5.797
 4574POPC   C1A58611  35.920   8.850   6.147
 4574POPC   D2A58612  36.161   8.816   6.560
 4574POPC   C3A58613  35.981   8.961   6.953
 4574POPC   C4A58614  35.923   8.835   7.378
 4574POPC   C1B58615  36.349   9.158   6.219
 4574POPC   C2B58616  36.530   9.151   6.651
 4574POPC   C3B58617  36.456   8.991   7.084
 4574POPC   C4B58618  36.251   9.253   7.393
 4575POPC   NC358619  30.148  16.338   5.475
 4575POPC   PO458620  29.857  17.049   5.553
 4575POPC   GL158621  29.781  16.731   5.870
 4575POPC   GL258622  30.125  16.653   5.883
 4575POPC   C1A58623  29.825  16.802   6.327
 4575POPC   D2A58624  30.067  16.992   6.645
 4575POPC   C3A58625  29.994  16.818   7.037
 4575POPC   C4A58626  30.198  16.656   7.360
 4575POPC   C1B58627  30.167  16.420   6.248
 4575POPC   C2B58628  30.142  16.478   6.663
 4575POPC   C3B58629  30.406  16.389   7.000
 4575POPC   C4B58630  30.284  16.098   7.287
 4576POPC   NC358631  28.711   0.309   5.554
 4576POPC   PO458632  29.230   0.686   5.296
 4576POPC   GL158633  29.157   0.432   5.746
 4576POPC   GL258634  29.517   0.501   5.743
 4576POPC   C1A58635  28.870   0.249   6.155
 4576POPC   D2A58636  28.998   0.272   6.581
 4576POPC   C3A58637  28.806   0.390   6.941
 4576POPC   C4A58638  28.983   0.461   7.318
 4576POPC   C1B58639  29.566   0.676   6.144
 4576POPC   C2B58640  29.449   0.523   6.538
 4576POPC   C3B58641  29.359   0.500   6.960
 4576POPC   C4B58642  29.679   0.663   7.235
 4577POPC   NC358643  27.515  32.582   5.715
 4577POPC   PO458644  27.660  33.084   5.302
 4577POPC   GL158645  27.529  33.131   5.773
 4577POPC   GL258646  27.559  32.867   6.107
 4577POPC   C1A58647  27.609  33.348   6.177
 4577POPC   D2A58648  27.449  33.138   6.571
 4577POPC   C3A58649  27.660  33.316   6.927
 4577POPC   C4A58650  27.475  33.376   7.320
 4577POPC   C1B58651  27.953  32.586   6.214
 4577POPC   C2B58652  28.071  32.580   6.642
 4577POPC   C3B58653  27.786  32.818   6.900
 4577POPC   C4B58654  27.396  32.923   7.092
 4578POPC   NC358655  11.791   3.068   5.651
 4578POPC   PO458656  12.155   2.568   5.471
 4578POPC   GL158657  12.077   2.691   5.890
 4578POPC   GL258658  12.222   3.033   5.921
 4578POPC   C1A58659  12.083   2.769   6.343
 4578POPC   D2A58660  11.771   2.951   6.628
 4578POPC   C3A58661  11.946   2.829   7.029
 4578POPC   C4A58662  12.388   2.830   7.172
 4578POPC   C1B58663  12.139   3.285   6.299
 4578POPC   C2B58664  12.207   3.209   6.734
 4578POPC   C3B58665  12.192   3.295   7.158
 4578POPC   C4B58666  12.361   3.312   7.593
 4579POPC   NC358667  19.992  16.996   5.367
 4579POPC   PO458668  19.750  17.624   5.488
 4579POPC   GL158669  19.664  17.406   5.837
 4579POPC   GL258670  19.990  17.286   5.825
 4579POPC   C1A58671  19.663  17.502   6.275
 4579POPC   D2A58672  19.868  17.249   6.613
 4579POPC   C3A58673  19.852  17.317   7.043
 4579POPC   C4A58674  19.901  17.405   7.479
 4579POPC   C1B58675  20.170  17.387   6.231
 4579POPC   C2B58676  20.050  17.731   6.531
 4579POPC   C3B58677  19.781  17.836   6.878
 4579POPC   C4B58678  19.868  17.886   7.327
 4580POPC   NC358679  25.560  21.227   5.592
 4580POPC   PO458680  25.111  21.658   5.310
 4580POPC   GL158681  25.125  21.441   5.727
 4580POPC   GL258682  25.379  21.642   5.907
 4580POPC   C1A58683  25.241  21.217   6.160
 4580POPC   D2A58684  25.443  21.255   6.581
 4580POPC   C3A58685  25.188  21.307   6.944
 4580POPC   C4A58686  25.220  21.224   7.384
 4580POPC   C1B58687  25.625  21.635   6.307
 4580POPC   C2B58688  25.771  21.646   6.740
 4580POPC   C3B58689  25.626  21.492   7.168
 4580POPC   C4B58690  25.458  21.595   7.619
 4581POPC   NC358691  36.992  16.222   5.358
 4581POPC   PO458692  36.696  15.677   5.476
 4581POPC   GL158693  37.001  15.871   5.767
 4581POPC   GL258694  36.770  16.138   5.812
 4581POPC   C1A58695  37.189  15.776   6.210
 4581POPC   D2A58696  37.030  15.849   6.653
 4581POPC   C3A58697  37.181  15.734   7.073
 4581POPC   C4A58698  37.351  15.845   7.499
 4581POPC   C1B58699  36.721  15.986   6.232
 4581POPC   C2B58700  36.686  16.225   6.605
 4581POPC   C3B58701  36.684  16.035   7.003
 4581POPC   C4B58702  36.703  16.312   7.303
 4582POPC   NC358703  30.138  15.654   5.384
 4582POPC   PO458704  29.637  16.105   5.402
 4582POPC   GL158705  29.821  15.914   5.739
 4582POPC   GL258706  29.876  16.192   5.900
 4582POPC   C1A58707  30.010  15.743   6.108
 4582POPC   D2A58708  29.972  15.998   6.498
 4582POPC   C3A58709  30.033  15.802   6.931
 4582POPC   C4A58710  30.179  15.578   7.316
 4582POPC   C1B58711  29.650  16.329   6.258
 4582POPC   C2B58712  29.647  16.378   6.696
 4582POPC   C3B58713  29.871  16.323   7.078
 4582POPC   C4B58714  29.699  16.394   7.481
 4583POPC   NC358715   3.749  16.644   5.332
 4583POPC   PO458716   3.384  17.184   5.237
 4583POPC   GL158717   3.489  16.947   5.657
 4583POPC   GL258718   3.250  17.064   5.822
 4583POPC   C1A58719   3.374  16.614   6.039
 4583POPC   D2A58720   3.154  16.554   6.480
 4583POPC   C3A58721   3.328  16.589   6.925
 4583POPC   C4A58722   3.534  16.593   7.363
 4583POPC   C1B58723   3.412  17.058   6.270
 4583POPC   C2B58724   3.412  17.164   6.705
 4583POPC   C3B58725   3.397  17.051   7.112
 4583POPC   C4B58726   3.622  17.193   7.441
 4584POPC   NC358727  11.080  38.711   5.498
 4584POPC   PO458728  11.348  38.224   5.118
 4584POPC   GL158729  11.529  38.296   5.567
 4584POPC   GL258730  11.290  38.407   5.838
 4584POPC   C1A58731  11.738  38.256   6.013
 4584POPC   D2A58732  11.559  38.449   6.409
 4584POPC   C3A58733  11.502  38.362   6.855
 4584POPC   C4A58734  11.607  38.465   7.275
 4584POPC   C1B58735  11.102  38.610   6.194
 4584POPC   C2B58736  10.738  38.641   6.472
 4584POPC   C3B58737  10.746  38.619   6.916
 4584POPC   C4B58738  11.087  38.526   7.178
 4585POPC   NC358739  44.977  24.215   5.582
 4585POPC   PO458740  44.525  24.637   5.487
 4585POPC   GL158741  44.654  24.562   5.884
 4585POPC   GL258742  44.630  24.232   5.982
 4585POPC   C1A58743  44.760  24.720   6.280
 4585POPC   D2A58744  44.917  24.588   6.653
 4585POPC   C3A58745  44.769  24.789   7.030
 4585POPC   C4A58746  44.798  24.662   7.444
 4585POPC   C1B58747  44.329  24.422   6.295
 4585POPC   C2B58748  44.421  24.476   6.751
 4585POPC   C3B58749  44.696  24.285   7.081
 4585POPC   C4B58750  44.567  24.224   7.578
 4586POPC   NC358751  33.305  19.168   5.114
 4586POPC   PO458752  32.787  19.063   5.500
 4586POPC   GL158753  33.000  18.955   5.870
 4586POPC   GL258754  32.913  18.627   6.024
 4586POPC   C1A58755  33.045  19.171   6.241
 4586POPC   D2A58756  33.238  19.047   6.643
 4586POPC   C3A58757  33.153  19.320   6.987
 4586POPC   C4A58758  32.926  19.364   7.365
 4586POPC   C1B58759  32.686  18.799   6.337
 4586POPC   C2B58760  32.717  19.141   6.620
 4586POPC   C3B58761  32.769  18.993   7.026
 4586POPC   C4B58762  33.084  18.896   7.336
 4587POPC   NC358763  33.252  17.707   5.224
 4587POPC   PO458764  32.718  17.238   5.377
 4587POPC   GL158765  32.824  17.474   5.717
 4587POPC   GL258766  33.186  17.557   5.741
 4587POPC   C1A58767  32.688  17.531   6.121
 4587POPC   D2A58768  32.948  17.681   6.439
 4587POPC   C3A58769  32.905  17.697   6.869
 4587POPC   C4A58770  32.740  17.547   7.256
 4587POPC   C1B58771  33.175  17.341   6.139
 4587POPC   C2B58772  32.942  17.103   6.466
 4587POPC   C3B58773  33.010  17.188   6.913
 4587POPC   C4B58774  33.250  17.488   7.191
 4588POPC   NC358775  30.978  16.894   5.522
 4588POPC   PO458776  30.568  16.356   5.670
 4588POPC   GL158777  30.610  16.839   5.873
 4588POPC   GL258778  30.959  17.042   5.994
 4588POPC   C1A58779  30.415  16.881   6.270
 4588POPC   D2A58780  30.623  16.564   6.564
 4588POPC   C3A58781  30.838  16.674   6.956
 4588POPC   C4A58782  30.734  16.666   7.407
 4588POPC   C1B58783  30.897  16.963   6.401
 4588POPC   C2B58784  30.585  17.133   6.693
 4588POPC   C3B58785  30.486  17.037   7.102
 4588POPC   C4B58786  30.697  17.164   7.478
 4589POPC   NC358787  29.883  35.842   5.490
 4589POPC   PO458788  30.183  36.394   5.451
 4589POPC   GL158789  29.938  36.251   5.792
 4589POPC   GL258790  29.596  36.242   5.750
 4589POPC   C1A58791  30.060  36.299   6.212
 4589POPC   D2A58792  30.054  36.017   6.540
 4589POPC   C3A58793  30.067  36.199   6.929
 4589POPC   C4A58794  30.064  35.991   7.303
 4589POPC   C1B58795  29.604  36.045   6.160
 4589POPC   C2B58796  29.582  36.149   6.595
 4589POPC   C3B58797  29.664  35.885   6.939
 4589POPC   C4B58798  29.553  35.850   7.363
 4590POPC   NC358799   1.511  30.125   5.376
 4590POPC   PO458800   0.893  30.110   5.586
 4590POPC   GL158801   1.201  29.872   5.765
 4590POPC   GL258802   1.413  30.119   5.871
 4590POPC   C1A58803   1.249  29.722   6.165
 4590POPC   D2A58804   1.309  29.934   6.543
 4590POPC   C3A58805   1.162  29.716   6.927
 4590POPC   C4A58806   0.927  29.795   7.288
 4590POPC   C1B58807   1.646  30.253   6.195
 4590POPC   C2B58808   1.544  30.398   6.587
 4590POPC   C3B58809   1.510  30.126   6.971
 4590POPC   C4B58810   1.387  30.220   7.370
 4591POPC   NC358811  23.330   4.979   5.574
 4591POPC   PO458812  22.820   5.390   5.423
 4591POPC   GL158813  22.968   5.260   5.817
 4591POPC   GL258814  23.317   5.395   5.875
 4591POPC   C1A58815  22.941   4.911   6.155
 4591POPC   D2A58816  23.125   4.886   6.577
 4591POPC   C3A58817  22.877   5.153   6.847
 4591POPC   C4A58818  22.635   5.051   7.221
 4591POPC   C1B58819  23.166   5.335   6.285
 4591POPC   C2B58820  23.301   5.454   6.649
 4591POPC   C3B58821  23.351   5.289   7.017
 4591POPC   C4B58822  23.169   5.016   7.237
 4592POPC   NC358823  17.527  34.670   5.480
 4592POPC   PO458824  17.122  34.273   5.586
 4592POPC   GL158825  17.349  34.465   5.945
 4592POPC   GL258826  17.709  34.453   5.901
 4592POPC   C1A58827  17.517  34.596   6.372
 4592POPC   D2A58828  17.453  34.526   6.829
 4592POPC   C3A58829  17.686  34.776   7.132
 4592POPC   C4A58830  17.611  34.900   7.565
 4592POPC   C1B58831  17.778  34.173   6.244
 4592POPC   C2B58832  17.862  34.211   6.686
 4592POPC   C3B58833  17.811  34.276   7.126
 4592POPC   C4B58834  17.955  34.504   7.492
 4593POPC   NC358835   3.903  32.026   5.261
 4593POPC   PO458836   4.254  32.554   5.420
 4593POPC   GL158837   4.190  32.407   5.805
 4593POPC   GL258838   4.236  32.055   5.741
 4593POPC   C1A58839   4.387  32.312   6.188
 4593POPC   D2A58840   4.570  32.043   6.503
 4593POPC   C3A58841   4.410  32.206   6.893
 4593POPC   C4A58842   4.514  32.086   7.300
 4593POPC   C1B58843   4.184  31.865   6.165
 4593POPC   C2B58844   4.023  31.990   6.584
 4593POPC   C3B58845   4.051  31.861   7.035
 4593POPC   C4B58846   3.957  32.030   7.441
 4594POPC   NC358847  14.581  42.125   5.514
 4594POPC   PO458848  14.158  42.616   5.243
 4594POPC   GL158849  14.374  42.514   5.752
 4594POPC   GL258850  14.415  42.213   5.981
 4594POPC   C1A58851  14.542  42.656   6.193
 4594POPC   D2A58852  14.293  42.572   6.566
 4594POPC   C3A58853  14.279  42.745   6.960
 4594POPC   C4A58854  14.196  42.547   7.351
 4594POPC   C1B58855  14.644  41.947   6.280
 4594POPC   C2B58856  14.721  42.088   6.686
 4594POPC   C3B58857  14.491  42.291   6.966
 4594POPC   C4B58858  14.588  42.207   7.333
 4595POPC   NC358859   6.124  18.149   5.490
 4595POPC   PO458860   5.697  18.693   5.455
 4595POPC   GL158861   5.875  18.476   5.800
 4595POPC   GL258862   5.729  18.120   5.801
 4595POPC   C1A58863   5.993  18.329   6.201
 4595POPC   D2A58864   6.272  18.271   6.535
 4595POPC   C3A58865   6.058  18.288   6.919
 4595POPC   C4A58866   5.940  17.978   7.194
 4595POPC   C1B58867   5.527  17.967   6.157
 4595POPC   C2B58868   5.595  18.077   6.542
 4595POPC   C3B58869   5.487  18.075   6.938
 4595POPC   C4B58870   5.612  18.358   7.213
 4596POPC   NC358871  20.688   0.711   5.703
 4596POPC   PO458872  20.402   0.134   5.354
 4596POPC   GL158873  20.587   0.112   5.780
 4596POPC   GL258874  20.415   0.343   5.962
 4596POPC   C1A58875  20.770   0.025   6.222
 4596POPC   D2A58876  21.002   0.169   6.620
 4596POPC   C3A58877  20.783   0.453   6.880
 4596POPC   C4A58878  20.574   0.277   7.206
 4596POPC   C1B58879  20.570   0.528   6.361
 4596POPC   C2B58880  20.370   0.729   6.709
 4596POPC   C3B58881  20.202   0.609   7.122
 4596POPC   C4B58882  20.423   0.640   7.548
 4597POPC   NC358883  35.029  13.277   5.261
 4597POPC   PO458884  35.678  13.443   5.224
 4597POPC   GL158885  35.569  13.617   5.675
 4597POPC   GL258886  35.219  13.434   5.724
 4597POPC   C1A58887  35.591  13.945   6.086
 4597POPC   D2A58888  35.463  14.069   6.552
 4597POPC   C3A58889  35.498  13.737   6.849
 4597POPC   C4A58890  35.492  13.595   7.288
 4597POPC   C1B58891  35.028  13.352   6.134
 4597POPC   C2B58892  35.056  13.655   6.496
 4597POPC   C3B58893  35.037  13.574   6.930
 4597POPC   C4B58894  35.042  13.351   7.273
 4598POPC   NC358895  42.482   9.972   5.047
 4598POPC   PO458896  42.369  10.475   5.543
 4598POPC   GL158897  42.493  10.562   5.920
 4598POPC   GL258898  42.825  10.460   5.882
 4598POPC   C1A58899  42.343  10.583   6.328
 4598POPC   D2A58900  42.089  10.714   6.635
 4598POPC   C3A58901  42.345  10.656   6.968
 4598POPC   C4A58902  42.222  10.636   7.360
 4598POPC   C1B58903  42.795  10.334   6.296
 4598POPC   C2B58904  42.648  10.330   6.695
 4598POPC   C3B58905  42.741  10.279   7.111
 4598POPC   C4B58906  42.851  10.332   7.560
 4599POPC   NC358907   1.353   8.523   5.376
 4599POPC   PO458908   0.974   7.978   5.439
 4599POPC   GL158909   1.241   8.009   5.807
 4599POPC   GL258910   1.382   8.336   5.843
 4599POPC   C1A58911   1.221   8.093   6.270
 4599POPC   D2A58912   1.021   8.084   6.680
 4599POPC   C3A58913   1.170   8.162   7.061
 4599POPC   C4A58914   1.496   7.974   7.264
 4599POPC   C1B58915   0.950   8.417   5.987
 4599POPC   C2B58916   0.964   8.515   6.416
 4599POPC   C3B58917   0.952   8.571   6.836
 4599POPC   C4B58918   1.023   8.626   7.275
 4600POPC   NC358919  21.502  35.558   5.405
 4600POPC   PO458920  21.072  35.063   5.663
 4600POPC   GL158921  21.201  35.460   5.856
 4600POPC   GL258922  21.582  35.476   5.903
 4600POPC   C1A58923  21.185  35.376   6.298
 4600POPC   D2A58924  21.287  35.008   6.528
 4600POPC   C3A58925  21.311  35.163   6.935
 4600POPC   C4A58926  21.179  35.448   7.224
 4600POPC   C1B58927  21.694  35.245   6.263
 4600POPC   C2B58928  21.898  35.373   6.620
 4600POPC   C3B58929  21.779  35.554   7.014
 4600POPC   C4B58930  21.648  35.334   7.369
 4601POPC   NC358931  16.368  24.501   5.333
 4601POPC   PO458932  15.691  24.541   5.343
 4601POPC   GL158933  15.968  24.385   5.670
 4601POPC   GL258934  15.782  24.610   5.885
 4601POPC   C1A58935  16.105  24.273   6.119
 4601POPC   D2A58936  15.927  24.486   6.488
 4601POPC   C3A58937  16.045  24.388   6.883
 4601POPC   C4A58938  16.081  24.531   7.271
 4601POPC   C1B58939  15.622  24.843   6.236
 4601POPC   C2B58940  15.535  24.804   6.673
 4601POPC   C3B58941  15.587  24.549   7.038
 4601POPC   C4B58942  15.625  24.674   7.449
 4602POPC   NC358943  41.298  12.287   5.417
 4602POPC   PO458944  41.485  11.696   5.190
 4602POPC   GL158945  41.474  11.860   5.629
 4602POPC   GL258946  41.760  12.062   5.760
 4602POPC   C1A58947  41.345  12.019   6.064
 4602POPC   D2A58948  41.365  11.924   6.519
 4602POPC   C3A58949  41.606  12.190   6.802
 4602POPC   C4A58950  41.434  12.178   7.203
 4602POPC   C1B58951  41.863  11.910   6.204
 4602POPC   C2B58952  41.839  11.749   6.656
 4602POPC   C3B58953  41.839  11.839   7.158
 4602POPC   C4B58954  41.994  11.803   7.621
 4603POPC   NC358955  16.378  42.710   5.531
 4603POPC   PO458956  17.010  43.024   5.441
 4603POPC   GL158957  16.814  42.981   5.824
 4603POPC   GL258958  16.486  43.172   5.803
 4603POPC   C1A58959  16.940  42.831   6.224
 4603POPC   D2A58960  17.146  42.984   6.602
 4603POPC   C3A58961  16.991  42.905   7.011
 4603POPC   C4A58962  16.953  43.181   7.362
 4603POPC   C1B58963  16.446  43.034   6.248
 4603POPC   C2B58964  16.456  43.162   6.702
 4603POPC   C3B58965  16.514  43.031   7.147
 4603POPC   C4B58966  16.453  43.250   7.552
 4604POPC   NC358967  22.055  17.751   5.165
 4604POPC   PO458968  22.241  17.231   5.504
 4604POPC   GL158969  21.996  17.407   5.844
 4604POPC   GL258970  21.890  17.762   5.983
 4604POPC   C1A58971  22.102  17.413   6.280
 4604POPC   D2A58972  21.875  17.560   6.610
 4604POPC   C3A58973  21.955  17.327   6.959
 4604POPC   C4A58974  22.216  17.312   7.326
 4604POPC   C1B58975  22.250  17.909   6.269
 4604POPC   C2B58976  22.441  17.842   6.655
 4604POPC   C3B58977  22.188  17.779   7.007
 4604POPC   C4B58978  21.972  17.939   7.363
 4605POPC   NC358979  41.156  27.469   5.426
 4605POPC   PO458980  40.668  27.899   5.520
 4605POPC   GL158981  40.698  27.607   5.841
 4605POPC   GL258982  41.057  27.605   5.913
 4605POPC   C1A58983  40.555  27.509   6.264
 4605POPC   D2A58984  40.346  27.684   6.628
 4605POPC   C3A58985  40.531  27.415   6.903
 4605POPC   C4A58986  40.456  27.308   7.300
 4605POPC   C1B58987  40.895  27.898   6.233
 4605POPC   C2B58988  40.836  27.855   6.665
 4605POPC   C3B58989  40.783  27.796   7.089
 4605POPC   C4B58990  40.992  27.477   7.276
 4606POPC   NC358991  30.670   7.807   5.466
 4606POPC   PO458992  31.029   7.334   5.303
 4606POPC   GL158993  30.858   7.320   5.745
 4606POPC   GL258994  30.553   7.474   5.901
 4606POPC   C1A58995  30.939   7.349   6.203
 4606POPC   D2A58996  30.549   7.371   6.451
 4606POPC   C3A58997  30.590   7.290   6.888
 4606POPC   C4A58998  30.866   7.471   7.199
 4606POPC   C1B58999  30.321   7.769   6.210
 4606POPC   C2B59000  30.218   7.760   6.680
 4606POPC   C3B59001  30.367   7.691   7.144
 4606POPC   C4B59002  30.457   7.392   7.510
 4607POPC   NC359003  26.250  11.575   5.349
 4607POPC   PO459004  25.841  11.100   5.609
 4607POPC   GL159005  25.759  11.390   5.892
 4607POPC   GL259006  26.141  11.446   5.851
 4607POPC   C1A59007  25.850  11.384   6.327
 4607POPC   D2A59008  26.227  11.340   6.543
 4607POPC   C3A59009  26.191  11.172   6.946
 4607POPC   C4A59010  26.089  11.294   7.344
 4607POPC   C1B59011  26.211  11.723   6.176
 4607POPC   C2B59012  26.460  11.803   6.552
 4607POPC   C3B59013  26.253  11.701   6.918
 4607POPC   C4B59014  26.183  11.809   7.302
 4608POPC   NC359015  18.633  24.680   5.321
 4608POPC   PO459016  18.318  24.053   5.270
 4608POPC   GL159017  18.258  24.375   5.673
 4608POPC   GL259018  18.459  24.628   5.812
 4608POPC   C1A59019  18.159  24.415   6.183
 4608POPC   D2A59020  17.975  24.264   6.642
 4608POPC   C3A59021  18.064  24.424   7.040
 4608POPC   C4A59022  18.320  24.773   7.031
 4608POPC   C1B59023  18.634  24.602   6.218
 4608POPC   C2B59024  18.485  24.393   6.596
 4608POPC   C3B59025  18.568  24.319   7.013
 4608POPC   C4B59026  18.618  24.536   7.410
 4609POPC   NC359027  15.374  11.493   5.515
 4609POPC   PO459028  14.701  11.256   5.489
 4609POPC   GL159029  14.997  11.264   5.864
 4609POPC   GL259030  15.323  11.058   5.826
 4609POPC   C1A59031  15.144  11.537   6.230
 4609POPC   D2A59032  15.447  11.529   6.586
 4609POPC   C3A59033  15.229  11.564   6.996
 4609POPC   C4A59034  15.278  11.438   7.440
 4609POPC   C1B59035  15.360  11.069   6.282
 4609POPC   C2B59036  15.104  11.139   6.649
 4609POPC   C3B59037  15.171  11.061   7.080
 4609POPC   C4B59038  15.503  10.981   7.383
 4610POPC   NC359039  37.835  21.878   5.467
 4610POPC   PO459040  37.856  22.542   5.515
 4610POPC   GL159041  37.938  22.201   5.870
 4610POPC   GL259042  37.685  21.991   5.941
 4610POPC   C1A59043  38.096  21.894   6.257
 4610POPC   D2A59044  38.001  21.693   6.673
 4610POPC   C3A59045  37.816  21.899   6.999
 4610POPC   C4A59046  37.882  22.031   7.390
 4610POPC   C1B59047  37.683  22.158   6.337
 4610POPC   C2B59048  37.537  22.242   6.723
 4610POPC   C3B59049  37.762  22.406   7.085
 4610POPC   C4B59050  37.710  22.458   7.572
 4611POPC   NC359051  26.599   4.783   5.427
 4611POPC   PO459052  27.143   5.197   5.386
 4611POPC   GL159053  26.883   5.118   5.759
 4611POPC   GL259054  26.686   5.400   5.903
 4611POPC   C1A59055  27.031   4.988   6.187
 4611POPC   D2A59056  27.266   4.792   6.531
 4611POPC   C3A59057  27.124   4.976   6.908
 4611POPC   C4A59058  27.018   5.339   7.135
 4611POPC   C1B59059  26.527   5.072   6.193
 4611POPC   C2B59060  26.693   4.893   6.611
 4611POPC   C3B59061  26.638   4.987   7.078
 4611POPC   C4B59062  26.612   5.117   7.552
 4612POPC   NC359063  33.731   0.425   5.033
 4612POPC   PO459064  34.107   0.791   5.488
 4612POPC   GL159065  33.941   0.702   5.936
 4612POPC   GL259066  33.731   0.366   5.987
 4612POPC   C1A59067  33.819   0.695   6.341
 4612POPC   D2A59068  33.635   0.441   6.608
 4612POPC   C3A59069  33.700   0.641   6.973
 4612POPC   C4A59070  33.867   0.567   7.363
 4612POPC   C1B59071  34.033   0.212   6.259
 4612POPC   C2B59072  33.947   0.043   6.647
 4612POPC   C3B59073  33.905   0.168   7.039
 4612POPC   C4B59074  34.256   0.209   7.289
 4613POPC   NC359075  13.772   1.452   5.531
 4613POPC   PO459076  13.540   0.781   5.623
 4613POPC   GL159077  13.647   1.087   5.873
 4613POPC   GL259078  13.360   1.326   5.838
 4613POPC   C1A59079  13.556   1.097   6.297
 4613POPC   D2A59080  13.289   1.235   6.593
 4613POPC   C3A59081  13.442   1.069   6.945
 4613POPC   C4A59082  13.830   0.951   7.153
 4613POPC   C1B59083  13.588   1.592   6.155
 4613POPC   C2B59084  13.442   1.739   6.536
 4613POPC   C3B59085  13.639   1.595   6.883
 4613POPC   C4B59086  13.642   1.434   7.232
 4614POPC   NC359087   0.631  14.027   5.515
 4614POPC   PO459088   0.177  13.510   5.574
 4614POPC   GL159089   0.257  13.853   5.836
 4614POPC   GL259090   0.607  13.695   5.924
 4614POPC   C1A59091   0.304  13.940   6.270
 4614POPC   D2A59092   0.486  13.697   6.611
 4614POPC   C3A59093   0.234  13.573   6.940
 4614POPC   C4A59094   0.293  13.635   7.341
 4614POPC   C1B59095   0.889  13.729   6.290
 4614POPC   C2B59096   0.961  13.910   6.703
 4614POPC   C3B59097   0.634  13.955   7.035
 4614POPC   C4B59098   0.718  13.886   7.469
 4615POPC   NC359099   2.102   7.878   5.526
 4615POPC   PO459100   1.828   8.538   5.436
 4615POPC   GL159101   1.898   8.288   5.835
 4615POPC   GL259102   2.257   8.212   5.893
 4615POPC   C1A59103   1.714   8.188   6.258
 4615POPC   D2A59104   1.571   8.090   6.733
 4615POPC   C3A59105   1.919   8.131   7.063
 4615POPC   C4A59106   2.005   8.346   7.461
 4615POPC   C1B59107   2.212   8.054   6.315
 4615POPC   C2B59108   2.453   8.003   6.676
 4615POPC   C3B59109   2.363   7.891   7.065
 4615POPC   C4B59110   2.371   8.011   7.479
 4616POPC   NC359111  37.558   8.512   5.499
 4616POPC   PO459112  37.982   8.011   5.374
 4616POPC   GL159113  37.785   8.120   5.782
 4616POPC   GL259114  37.975   8.452   5.801
 4616POPC   C1A59115  37.607   7.967   6.223
 4616POPC   D2A59116  37.470   8.037   6.693
 4616POPC   C3A59117  37.738   7.859   7.048
 4616POPC   C4A59118  37.949   8.033   7.420
 4616POPC   C1B59119  37.765   8.442   6.188
 4616POPC   C2B59120  37.940   8.471   6.597
 4616POPC   C3B59121  37.793   8.370   6.976
 4616POPC   C4B59122  37.442   8.268   7.188
 4617POPC   NC359123  18.504  27.027   5.126
 4617POPC   PO459124  19.091  26.912   5.533
 4617POPC   GL159125  18.992  26.765   5.919
 4617POPC   GL259126  18.645  26.706   5.887
 4617POPC   C1A59127  19.208  26.829   6.322
 4617POPC   D2A59128  19.358  26.873   6.756
 4617POPC   C3A59129  19.084  26.837   7.111
 4617POPC   C4A59130  19.154  26.525   7.469
 4617POPC   C1B59131  18.686  26.967   6.258
 4617POPC   C2B59132  18.814  26.885   6.645
 4617POPC   C3B59133  18.740  26.553   6.873
 4617POPC   C4B59134  18.567  26.637   7.264
 4618POPC   NC359135   0.793   4.347   5.407
 4618POPC   PO459136   0.494   3.840   5.502
 4618POPC   GL159137   0.355   4.152   5.868
 4618POPC   GL259138   0.554   4.476   5.865
 4618POPC   C1A59139   0.283   4.351   6.331
 4618POPC   D2A59140   0.114   4.250   6.790
 4618POPC   C3A59141   0.387   4.318   7.187
 4618POPC   C4A59142   0.470   3.954   7.499
 4618POPC   C1B59143   0.717   4.677   6.258
 4618POPC   C2B59144   0.564   4.685   6.691
 4618POPC   C3B59145   0.688   4.735   7.140
 4618POPC   C4B59146   0.545   4.740   7.546
 4619POPC   NC359147  24.563  24.159   5.519
 4619POPC   PO459148  24.288  24.687   5.246
 4619POPC   GL159149  24.356  24.626   5.730
 4619POPC   GL259150  24.723  24.534   5.823
 4619POPC   C1A59151  24.382  24.462   6.192
 4619POPC   D2A59152  24.352  24.316   6.645
 4619POPC   C3A59153  24.278  24.586   6.990
 4619POPC   C4A59154  24.032  24.677   7.371
 4619POPC   C1B59155  24.817  24.182   6.155
 4619POPC   C2B59156  24.782  24.045   6.602
 4619POPC   C3B59157  24.767  24.277   7.007
 4619POPC   C4B59158  24.917  24.165   7.417
 4620POPC   NC359159   3.004  41.922   5.498
 4620POPC   PO459160   2.939  42.581   5.534
 4620POPC   GL159161   2.856  42.501   5.915
 4620POPC   GL259162   3.191  42.637   6.043
 4620POPC   C1A59163   2.562  42.338   6.262
 4620POPC   D2A59164   2.544  42.337   6.734
 4620POPC   C3A59165   2.768  42.199   7.105
 4620POPC   C4A59166   2.494  42.195   7.459
 4620POPC   C1B59167   2.933  42.683   6.366
 4620POPC   C2B59168   2.867  42.813   6.703
 4620POPC   C3B59169   2.945  42.683   7.067
 4620POPC   C4B59170   2.688  42.674   7.399
 4621POPC   NC359171  44.725  38.271   5.160
 4621POPC   PO459172  44.237  38.615   5.514
 4621POPC   GL159173  44.647  38.568   5.711
 4621POPC   GL259174  44.720  38.223   5.803
 4621POPC   C1A59175  44.692  38.592   6.170
 4621POPC   D2A59176  44.385  38.419   6.450
 4621POPC   C3A59177  44.453  38.525   6.869
 4621POPC   C4A59178  44.466  38.461   7.313
 4621POPC   C1B59179  44.777  38.083   6.234
 4621POPC   C2B59180  44.833  38.237   6.638
 4621POPC   C3B59181  44.737  38.136   7.048
 4621POPC   C4B59182  44.910  38.281   7.432
 4622POPC   NC359183  27.493  38.637   5.421
 4622POPC   PO459184  27.142  38.054   5.251
 4622POPC   GL159185  27.279  38.258   5.715
 4622POPC   GL259186  27.622  38.211   5.787
 4622POPC   C1A59187  27.383  38.604   6.083
 4622POPC   D2A59188  27.643  38.667   6.492
 4622POPC   C3A59189  27.450  38.680   6.910
 4622POPC   C4A59190  27.263  38.443   7.253
 4622POPC   C1B59191  27.797  38.235   6.208
 4622POPC   C2B59192  27.968  38.285   6.618
 4622POPC   C3B59193  27.735  38.264   7.006
 4622POPC   C4B59194  27.729  38.432   7.459
 4623POPC   NC359195  30.314  29.379   5.196
 4623POPC   PO459196  30.917  29.109   5.400
 4623POPC   GL159197  30.643  29.181   5.770
 4623POPC   GL259198  30.449  29.442   5.695
 4623POPC   C1A59199  30.607  29.141   6.225
 4623POPC   D2A59200  30.758  29.109   6.645
 4623POPC   C3A59201  30.568  28.856   6.958
 4623POPC   C4A59202  30.681  28.745   7.364
 4623POPC   C1B59203  30.473  29.617   6.139
 4623POPC   C2B59204  30.374  29.529   6.574
 4623POPC   C3B59205  30.508  29.519   7.006
 4623POPC   C4B59206  30.663  29.246   7.321
 4624POPC   NC359207  31.741  25.902   5.505
 4624POPC   PO459208  31.622  26.556   5.478
 4624POPC   GL159209  31.467  26.292   5.822
 4624POPC   GL259210  31.313  25.933   5.791
 4624POPC   C1A59211  31.647  26.068   6.189
 4624POPC   D2A59212  31.632  25.757   6.537
 4624POPC   C3A59213  31.493  25.991   6.894
 4624POPC   C4A59214  31.478  26.079   7.339
 4624POPC   C1B59215  31.259  25.714   6.181
 4624POPC   C2B59216  31.109  25.709   6.638
 4624POPC   C3B59217  31.020  25.940   7.050
 4624POPC   C4B59218  31.060  25.812   7.485
 4625POPC   NC359219  44.337  12.415   5.539
 4625POPC   PO459220  44.367  11.734   5.486
 4625POPC   GL159221  44.519  11.948   5.844
 4625POPC   GL259222  44.582  12.311   5.950
 4625POPC   C1A59223  44.647  11.933   6.272
 4625POPC   D2A59224  44.863  12.027   6.654
 4625POPC   C3A59225  44.542  11.938   6.944
 4625POPC   C4A59226  44.497  11.796   7.338
 4625POPC   C1B59227  44.813  12.436   6.296
 4625POPC   C2B59228  44.868  12.574   6.723
 4625POPC   C3B59229  44.852  12.346   7.074
 4625POPC   C4B59230  44.503  12.322   7.325
 4626POPC   NC359231   5.484  23.824   5.379
 4626POPC   PO459232   6.099  23.509   5.293
 4626POPC   GL159233   5.850  23.479   5.713
 4626POPC   GL259234   5.703  23.804   5.848
 4626POPC   C1A59235   6.030  23.412   6.153
 4626POPC   D2A59236   6.219  23.277   6.565
 4626POPC   C3A59237   6.025  23.531   6.903
 4626POPC   C4A59238   6.004  23.843   7.258
 4626POPC   C1B59239   5.630  23.745   6.287
 4626POPC   C2B59240   5.472  23.738   6.706
 4626POPC   C3B59241   5.596  24.058   7.004
 4626POPC   C4B59242   5.479  24.037   7.426
 4627POPC   NC359243  38.777  27.048   5.516
 4627POPC   PO459244  38.261  26.523   5.590
 4627POPC   GL159245  38.508  26.742   5.890
 4627POPC   GL259246  38.890  26.714   5.908
 4627POPC   C1A59247  38.267  26.842   6.265
 4627POPC   D2A59248  38.114  26.681   6.655
 4627POPC   C3A59249  38.187  26.928   7.010
 4627POPC   C4A59250  38.385  26.906   7.388
 4627POPC   C1B59251  38.755  27.001   6.251
 4627POPC   C2B59252  38.561  26.985   6.661
 4627POPC   C3B59253  38.708  27.073   7.064
 4627POPC   C4B59254  38.597  27.357   7.444
 4628POPC   NC359255  22.437   3.291   5.496
 4628POPC   PO459256  21.882   3.624   5.208
 4628POPC   GL159257  22.063   3.623   5.680
 4628POPC   GL259258  21.985   3.259   5.784
 4628POPC   C1A59259  22.318   3.759   6.113
 4628POPC   D2A59260  22.479   3.752   6.557
 4628POPC   C3A59261  22.299   3.695   6.992
 4628POPC   C4A59262  22.501   3.900   7.356
 4628POPC   C1B59263  21.901   3.494   6.172
 4628POPC   C2B59264  21.969   3.596   6.603
 4628POPC   C3B59265  21.843   3.349   6.987
 4628POPC   C4B59266  21.958   3.291   7.446
 4629POPC   NC359267  32.489  30.073   5.437
 4629POPC   PO459268  31.839  30.375   5.502
 4629POPC   GL159269  32.010  30.100   5.887
 4629POPC   GL259270  32.377  30.007   5.939
 4629POPC   C1A59271  32.026  29.718   6.195
 4629POPC   D2A59272  32.426  29.577   6.426
 4629POPC   C3A59273  32.537  29.776   6.827
 4629POPC   C4A59274  32.417  29.614   7.232
 4629POPC   C1B59275  32.334  30.080   6.376
 4629POPC   C2B59276  31.993  30.216   6.619
 4629POPC   C3B59277  32.039  30.384   7.015
 4629POPC   C4B59278  32.368  30.137   7.224
 4630POPC   NC359279  16.900  36.662   5.260
 4630POPC   PO459280  16.770  37.327   5.468
 4630POPC   GL159281  16.781  36.919   5.746
 4630POPC   GL259282  17.066  36.671   5.772
 4630POPC   C1A59283  16.715  36.633   6.134
 4630POPC   D2A59284  16.580  36.750   6.536
 4630POPC   C3A59285  16.687  36.609   6.936
 4630POPC   C4A59286  16.496  36.764   7.328
 4630POPC   C1B59287  17.152  36.921   6.176
 4630POPC   C2B59288  17.007  37.119   6.591
 4630POPC   C3B59289  16.774  37.097   6.997
 4630POPC   C4B59290  16.977  36.941   7.392
 4631POPC   NC359291  25.304   3.722   5.454
 4631POPC   PO459292  25.614   3.100   5.354
 4631POPC   GL159293  25.605   3.386   5.697
 4631POPC   GL259294  25.267   3.325   5.789
 4631POPC   C1A59295  25.493   3.676   6.090
 4631POPC   D2A59296  25.179   3.805   6.450
 4631POPC   C3A59297  25.323   3.867   6.883
 4631POPC   C4A59298  25.236   3.649   7.266
 4631POPC   C1B59299  25.086   3.360   6.175
 4631POPC   C2B59300  24.961   3.326   6.589
 4631POPC   C3B59301  25.084   3.237   6.987
 4631POPC   C4B59302  25.354   3.147   7.313
 4632POPC   NC359303  33.536   4.927   5.327
 4632POPC   PO459304  34.151   5.172   5.325
 4632POPC   GL159305  33.852   5.091   5.692
 4632POPC   GL259306  33.689   4.751   5.772
 4632POPC   C1A59307  33.803   5.139   6.131
 4632POPC   D2A59308  33.625   5.397   6.434
 4632POPC   C3A59309  33.752   5.277   6.815
 4632POPC   C4A59310  33.631   5.177   7.207
 4632POPC   C1B59311  33.443   4.769   6.124
 4632POPC   C2B59312  33.567   4.853   6.529
 4632POPC   C3B59313  33.417   4.828   6.926
 4632POPC   C4B59314  33.465   4.685   7.319
 4633POPC   NC359315  23.034  24.838   5.399
 4633POPC   PO459316  22.879  25.511   5.406
 4633POPC   GL159317  22.875  25.213   5.744
 4633POPC   GL259318  23.219  25.094   5.812
 4633POPC   C1A59319  22.831  25.124   6.198
 4633POPC   D2A59320  22.672  25.315   6.588
 4633POPC   C3A59321  22.803  25.258   7.014
 4633POPC   C4A59322  22.968  25.564   7.310
 4633POPC   C1B59323  23.368  25.158   6.244
 4633POPC   C2B59324  23.231  25.127   6.688
 4633POPC   C3B59325  23.329  25.258   7.118
 4633POPC   C4B59326  23.337  25.331   7.597
 4634POPC   NC359327   6.798  26.343   5.467
 4634POPC   PO459328   6.421  26.946   5.414
 4634POPC   GL159329   6.567  26.978   5.827
 4634POPC   GL259330   6.564  26.644   5.848
 4634POPC   C1A59331   6.443  26.927   6.275
 4634POPC   D2A59332   6.631  26.845   6.647
 4634POPC   C3A59333   6.378  26.848   6.995
 4634POPC   C4A59334   6.639  26.805   7.317
 4634POPC   C1B59335   6.815  26.537   6.238
 4634POPC   C2B59336   6.905  26.402   6.653
 4634POPC   C3B59337   6.984  26.568   7.033
 4634POPC   C4B59338   6.880  26.327   7.392
 4635POPC   NC359339  33.084  23.400   5.531
 4635POPC   PO459340  33.255  22.733   5.446
 4635POPC   GL159341  33.097  22.750   5.825
 4635POPC   GL259342  33.030  23.053   5.899
 4635POPC   C1A59343  33.105  22.689   6.258
 4635POPC   D2A59344  33.010  22.893   6.629
 4635POPC   C3A59345  33.253  22.772   6.948
 4635POPC   C4A59346  33.074  22.500   7.235
 4635POPC   C1B59347  32.810  23.301   6.165
 4635POPC   C2B59348  32.773  23.336   6.569
 4635POPC   C3B59349  32.814  23.264   7.006
 4635POPC   C4B59350  33.097  23.056   7.328
 4636POPC   NC359351   7.977  42.638   5.121
 4636POPC   PO459352   8.426  42.184   5.194
 4636POPC   GL159353   8.357  42.166   5.694
 4636POPC   GL259354   8.506  41.874   5.907
 4636POPC   C1A59355   8.131  42.388   6.065
 4636POPC   D2A59356   8.233  42.537   6.500
 4636POPC   C3A59357   8.058  42.438   6.921
 4636POPC   C4A59358   8.254  42.471   7.325
 4636POPC   C1B59359   8.319  41.969   6.302
 4636POPC   C2B59360   8.056  41.928   6.668
 4636POPC   C3B59361   8.214  41.973   7.062
 4636POPC   C4B59362   8.586  42.000   7.231
 4637POPC   NC359363   5.604  40.432   5.431
 4637POPC   PO459364   5.960  40.903   5.238
 4637POPC   GL159365   5.896  40.904   5.712
 4637POPC   GL259366   5.657  41.172   5.731
 4637POPC   C1A59367   5.815  40.602   6.094
 4637POPC   D2A59368   5.638  40.666   6.527
 4637POPC   C3A59369   5.747  40.430   6.922
 4637POPC   C4A59370   5.958  40.587   7.299
 4637POPC   C1B59371   5.654  41.302   6.157
 4637POPC   C2B59372   5.791  41.173   6.568
 4637POPC   C3B59373   5.809  40.956   6.944
 4637POPC   C4B59374   5.463  40.835   7.194
 4638POPC   NC359375  32.518  17.467   5.024
 4638POPC   PO459376  32.118  17.591   5.507
 4638POPC   GL159377  32.098  17.675   5.914
 4638POPC   GL259378  32.324  17.902   6.020
 4638POPC   C1A59379  32.202  17.473   6.304
 4638POPC   D2A59380  32.547  17.410   6.598
 4638POPC   C3A59381  32.374  17.530   6.914
 4638POPC   C4A59382  32.009  17.312   6.967
 4638POPC   C1B59383  31.993  17.965   6.319
 4638POPC   C2B59384  31.948  17.751   6.660
 4638POPC   C3B59385  32.085  17.939   6.964
 4638POPC   C4B59386  32.175  17.739   7.331
 4639POPC   NC359387  27.641  16.436   5.442
 4639POPC   PO459388  27.166  16.921   5.259
 4639POPC   GL159389  27.412  16.886   5.698
 4639POPC   GL259390  27.803  16.885   5.754
 4639POPC   C1A59391  27.439  16.734   6.155
 4639POPC   D2A59392  27.376  16.457   6.557
 4639POPC   C3A59393  27.475  16.621   6.972
 4639POPC   C4A59394  27.355  16.955   7.245
 4639POPC   C1B59395  27.886  16.548   6.074
 4639POPC   C2B59396  27.872  16.553   6.535
 4639POPC   C3B59397  27.942  16.823   6.933
 4639POPC   C4B59398  27.804  16.809   7.356
 4640POPC   NC359399  18.062  19.756   5.432
 4640POPC   PO459400  18.370  20.344   5.562
 4640POPC   GL159401  18.118  20.089   5.892
 4640POPC   GL259402  18.111  19.700   5.939
 4640POPC   C1A59403  18.223  20.014   6.335
 4640POPC   D2A59404  18.436  19.733   6.641
 4640POPC   C3A59405  18.684  19.905   7.021
 4640POPC   C4A59406  18.635  19.690   7.420
 4640POPC   C1B59407  17.974  19.568   6.355
 4640POPC   C2B59408  17.990  19.455   6.784
 4640POPC   C3B59409  18.222  19.606   7.115
 4640POPC   C4B59410  18.249  20.012   7.261
 4641POPC   NC359411  20.108  40.833   5.340
 4641POPC   PO459412  19.479  40.876   5.031
 4641POPC   GL159413  19.706  40.748   5.599
 4641POPC   GL259414  19.907  40.962   5.784
 4641POPC   C1A59415  19.576  40.856   6.138
 4641POPC   D2A59416  19.446  41.083   6.545
 4641POPC   C3A59417  19.563  40.866   6.960
 4641POPC   C4A59418  19.885  40.986   7.260
 4641POPC   C1B59419  20.084  40.912   6.214
 4641POPC   C2B59420  19.933  40.785   6.627
 4641POPC   C3B59421  20.136  40.603   7.020
 4641POPC   C4B59422  20.256  40.354   7.410
 4642POPC   NC359423  28.559  15.460   5.503
 4642POPC   PO459424  27.981  15.230   5.293
 4642POPC   GL159425  28.215  15.236   5.803
 4642POPC   GL259426  28.491  15.503   6.002
 4642POPC   C1A59427  28.398  15.086   6.244
 4642POPC   D2A59428  28.227  15.215   6.629
 4642POPC   C3A59429  28.408  15.021   6.916
 4642POPC   C4A59430  28.377  14.732   7.231
 4642POPC   C1B59431  28.127  15.584   6.293
 4642POPC   C2B59432  28.063  15.694   6.743
 4642POPC   C3B59433  28.399  15.562   7.030
 4642POPC   C4B59434  28.810  15.693   7.177
 4643POPC   NC359435   3.296  28.741   5.664
 4643POPC   PO459436   3.573  28.932   5.008
 4643POPC   GL159437   3.577  29.135   5.575
 4643POPC   GL259438   3.819  29.195   5.856
 4643POPC   C1A59439   3.393  29.107   6.149
 4643POPC   D2A59440   3.250  28.894   6.570
 4643POPC   C3A59441   3.391  29.005   7.024
 4643POPC   C4A59442   3.356  28.957   7.495
 4643POPC   C1B59443   3.789  29.391   6.254
 4643POPC   C2B59444   3.507  29.380   6.585
 4643POPC   C3B59445   3.484  29.591   6.941
 4643POPC   C4B59446   3.500  29.431   7.318
 4644POPC   NC359447   2.215  38.094   5.438
 4644POPC   PO459448   1.818  38.634   5.420
 4644POPC   GL159449   1.742  38.456   5.826
 4644POPC   GL259450   2.090  38.366   5.861
 4644POPC   C1A59451   1.789  38.502   6.273
 4644POPC   D2A59452   2.129  38.562   6.531
 4644POPC   C3A59453   1.996  38.472   6.937
 4644POPC   C4A59454   2.102  38.491   7.373
 4644POPC   C1B59455   2.387  38.096   6.090
 4644POPC   C2B59456   2.271  38.044   6.513
 4644POPC   C3B59457   2.414  38.166   6.897
 4644POPC   C4B59458   2.335  38.028   7.306
 4645POPC   NC359459  32.131   6.945   5.396
 4645POPC   PO459460  31.945   6.240   5.424
 4645POPC   GL159461  31.924   6.563   5.726
 4645POPC   GL259462  32.263   6.582   5.746
 4645POPC   C1A59463  31.959   6.738   6.152
 4645POPC   D2A59464  31.984   6.469   6.528
 4645POPC   C3A59465  32.085   6.611   6.953
 4645POPC   C4A59466  32.222   6.530   7.367
 4645POPC   C1B59467  32.390   6.442   6.171
 4645POPC   C2B59468  32.488   6.604   6.587
 4645POPC   C3B59469  32.606   6.542   7.009
 4645POPC   C4B59470  32.889   6.794   7.260
 4646POPC   NC359471   8.646  19.925   5.262
 4646POPC   PO459472   9.171  19.572   5.328
 4646POPC   GL159473   9.186  19.736   5.789
 4646POPC   GL259474   9.315  20.108   5.855
 4646POPC   C1A59475   8.953  19.655   6.203
 4646POPC   D2A59476   8.602  19.684   6.501
 4646POPC   C3A59477   8.799  19.604   6.884
 4646POPC   C4A59478   8.641  19.654   7.293
 4646POPC   C1B59479   9.260  20.063   6.330
 4646POPC   C2B59480   8.888  20.121   6.638
 4646POPC   C3B59481   8.896  20.061   7.084
 4646POPC   C4B59482   9.278  19.877   7.290
 4647POPC   NC359483  19.700  20.379   5.476
 4647POPC   PO459484  20.094  20.934   5.370
 4647POPC   GL159485  19.975  20.702   5.757
 4647POPC   GL259486  20.170  20.359   5.776
 4647POPC   C1A59487  19.711  20.749   6.141
 4647POPC   D2A59488  19.861  20.734   6.574
 4647POPC   C3A59489  19.674  20.950   6.900
 4647POPC   C4A59490  19.569  20.913   7.288
 4647POPC   C1B59491  20.033  20.362   6.221
 4647POPC   C2B59492  19.799  20.245   6.611
 4647POPC   C3B59493  19.808  20.462   7.046
 4647POPC   C4B59494  19.786  20.531   7.520
 4648POPC   NC359495  20.339  23.271   5.389
 4648POPC   PO459496  20.753  22.699   5.409
 4648POPC   GL159497  20.683  22.807   5.797
 4648POPC   GL259498  20.648  23.162   5.790
 4648POPC   C1A59499  20.655  22.614   6.189
 4648POPC   D2A59500  20.712  22.758   6.572
 4648POPC   C3A59501  20.534  22.551   6.897
 4648POPC   C4A59502  20.619  22.705   7.284
 4648POPC   C1B59503  20.419  23.076   6.164
 4648POPC   C2B59504  20.473  23.230   6.578
 4648POPC   C3B59505  20.422  23.086   6.992
 4648POPC   C4B59506  20.695  23.184   7.386
 4649POPC   NC359507  44.956  17.314   5.161
 4649POPC   PO459508  44.356  17.537   5.296
 4649POPC   GL159509  44.489  17.407   5.720
 4649POPC   GL259510  44.847  17.468   5.702
 4649POPC   C1A59511  44.603  17.401   6.173
 4649POPC   D2A59512  44.722  17.244   6.590
 4649POPC   C3A59513  44.560  17.344   7.010
 4649POPC   C4A59514  44.507  17.177   7.432
 4649POPC   C1B59515   0.016  17.714   6.061
 4649POPC   C2B59516   0.115  17.674   6.492
 4649POPC   C3B59517  44.978  17.631   6.903
 4649POPC   C4B59518  44.777  17.777   7.262
 4650POPC   NC359519  33.248   1.025   5.279
 4650POPC   PO459520  32.613   1.372   5.329
 4650POPC   GL159521  32.717   1.270   5.797
 4650POPC   GL259522  33.077   1.145   5.780
 4650POPC   C1A59523  32.781   1.336   6.268
 4650POPC   D2A59524  32.951   1.478   6.663
 4650POPC   C3A59525  32.817   1.425   7.082
 4650POPC   C4A59526  33.182   1.275   7.352
 4650POPC   C1B59527  32.896   0.870   6.131
 4650POPC   C2B59528  32.781   0.934   6.596
 4650POPC   C3B59529  32.912   0.941   7.041
 4650POPC   C4B59530  32.838   0.940   7.510
 4651POPC   NC359531  23.739   9.769   5.384
 4651POPC   PO459532  24.367   9.668   5.198
 4651POPC   GL159533  24.174   9.818   5.674
 4651POPC   GL259534  23.833   9.649   5.890
 4651POPC   C1A59535  24.095   9.973   6.131
 4651POPC   D2A59536  24.026   9.589   6.425
 4651POPC   C3A59537  23.779   9.701   6.777
 4651POPC   C4A59538  23.900   9.841   7.176
 4651POPC   C1B59539  23.539   9.660   6.268
 4651POPC   C2B59540  23.349   9.980   6.561
 4651POPC   C3B59541  23.185  10.056   6.983
 4651POPC   C4B59542  23.419   9.843   7.332
 4652POPC   NC359543  14.492  39.091   5.418
 4652POPC   PO459544  14.629  39.702   5.212
 4652POPC   GL159545  14.530  39.468   5.757
 4652POPC   GL259546  14.379  39.159   5.921
 4652POPC   C1A59547  14.697  39.378   6.225
 4652POPC   D2A59548  14.788  39.513   6.664
 4652POPC   C3A59549  14.506  39.287   6.936
 4652POPC   C4A59550  14.417  39.046   7.294
 4652POPC   C1B59551  14.042  39.225   6.231
 4652POPC   C2B59552  14.001  39.158   6.673
 4652POPC   C3B59553  13.977  38.926   7.022
 4652POPC   C4B59554  13.928  39.204   7.349
 4653POPC   NC359555   4.786  25.376   5.443
 4653POPC   PO459556   5.469  25.699   5.520
 4653POPC   GL159557   5.182  25.537   5.835
 4653POPC   GL259558   4.924  25.298   5.958
 4653POPC   C1A59559   5.369  25.476   6.236
 4653POPC   D2A59560   5.148  25.259   6.548
 4653POPC   C3A59561   5.206  25.344   6.985
 4653POPC   C4A59562   5.164  24.971   7.209
 4653POPC   C1B59563   4.918  25.682   6.282
 4653POPC   C2B59564   4.867  25.660   6.749
 4653POPC   C3B59565   4.797  25.658   7.189
 4653POPC   C4B59566   4.816  25.293   7.331
 4654POPC   NC359567   2.314  31.566   5.439
 4654POPC   PO459568   1.778  31.852   5.701
 4654POPC   GL159569   1.967  31.633   5.944
 4654POPC   GL259570   2.000  31.307   5.816
 4654POPC   C1A59571   2.118  31.648   6.333
 4654POPC   D2A59572   1.924  31.861   6.616
 4654POPC   C3A59573   2.096  31.770   7.009
 4654POPC   C4A59574   2.302  31.449   7.246
 4654POPC   C1B59575   1.826  31.230   6.222
 4654POPC   C2B59576   1.771  31.371   6.644
 4654POPC   C3B59577   1.810  31.352   7.068
 4654POPC   C4B59578   1.888  31.302   7.499
 4655POPC   NC359579  40.208  25.186   5.528
 4655POPC   PO459580  39.581  25.359   5.548
 4655POPC   GL159581  39.810  25.303   5.909
 4655POPC   GL259582  40.069  25.572   5.853
 4655POPC   C1A59583  39.782  25.066   6.332
 4655POPC   D2A59584  39.628  24.937   6.770
 4655POPC   C3A59585  39.868  25.134   7.086
 4655POPC   C4A59586  40.307  24.991   7.186
 4655POPC   C1B59587  40.181  25.389   6.251
 4655POPC   C2B59588  40.193  25.215   6.677
 4655POPC   C3B59589  40.231  25.472   7.040
 4655POPC   C4B59590  40.084  25.672   7.427
 4656POPC   NC359591   7.272  10.577   5.393
 4656POPC   PO459592   6.626  10.628   5.444
 4656POPC   GL159593   6.724  10.705   5.866
 4656POPC   GL259594   7.046  10.847   5.819
 4656POPC   C1A59595   6.560  10.718   6.301
 4656POPC   D2A59596   6.430  10.398   6.564
 4656POPC   C3A59597   6.539  10.401   6.979
 4656POPC   C4A59598   6.494  10.652   7.325
 4656POPC   C1B59599   7.072  10.701   6.251
 4656POPC   C2B59600   6.921  10.546   6.653
 4656POPC   C3B59601   6.985  10.719   7.056
 4656POPC   C4B59602   6.887  10.963   7.410
 4657POPC   NC359603  33.992  26.692   5.391
 4657POPC   PO459604  33.500  27.168   5.504
 4657POPC   GL159605  33.855  27.057   5.749
 4657POPC   GL259606  33.658  26.731   5.769
 4657POPC   C1A59607  34.137  27.106   6.129
 4657POPC   D2A59608  34.111  26.961   6.571
 4657POPC   C3A59609  33.963  27.114   6.952
 4657POPC   C4A59610  34.089  26.967   7.334
 4657POPC   C1B59611  33.781  26.768   6.174
 4657POPC   C2B59612  33.664  26.653   6.545
 4657POPC   C3B59613  33.762  26.670   6.914
 4657POPC   C4B59614  33.663  26.587   7.300
 4658POPC   NC359615   3.480  40.042   5.214
 4658POPC   PO459616   3.968  40.414   5.541
 4658POPC   GL159617   3.675  40.159   5.767
 4658POPC   GL259618   3.332  40.200   5.800
 4658POPC   C1A59619   3.604  39.825   6.071
 4658POPC   D2A59620   3.519  39.874   6.520
 4658POPC   C3A59621   3.801  39.686   6.846
 4658POPC   C4A59622   3.567  39.754   7.202
 4658POPC   C1B59623   3.113  40.179   6.183
 4658POPC   C2B59624   3.174  40.285   6.599
 4658POPC   C3B59625   3.180  40.016   6.951
 4658POPC   C4B59626   3.272  40.133   7.366
 4659POPC   NC359627  26.723   2.544   5.362
 4659POPC   PO459628  27.209   3.115   5.198
 4659POPC   GL159629  26.960   2.951   5.637
 4659POPC   GL259630  26.669   3.043   5.855
 4659POPC   C1A59631  26.994   2.700   6.059
 4659POPC   D2A59632  26.819   2.493   6.447
 4659POPC   C3A59633  26.901   2.588   6.885
 4659POPC   C4A59634  26.797   2.748   7.280
 4659POPC   C1B59635  26.540   2.914   6.296
 4659POPC   C2B59636  26.517   2.939   6.772
 4659POPC   C3B59637  26.453   3.106   7.202
 4659POPC   C4B59638  26.607   3.067   7.659
 4660POPC   NC359639  42.405  38.116   5.409
 4660POPC   PO459640  42.482  38.837   5.363
 4660POPC   GL159641  42.431  38.552   5.677
 4660POPC   GL259642  42.391  38.809   5.870
 4660POPC   C1A59643  42.286  38.340   6.056
 4660POPC   D2A59644  42.027  38.391   6.413
 4660POPC   C3A59645  42.126  38.320   6.852
 4660POPC   C4A59646  42.356  38.263   7.228
 4660POPC   C1B59647  42.222  38.858   6.252
 4660POPC   C2B59648  42.300  38.821   6.674
 4660POPC   C3B59649  42.301  38.766   7.116
 4660POPC   C4B59650  42.088  38.970   7.451
 4661POPC   NC359651   0.156   7.995   5.157
 4661POPC   PO459652   0.443   8.536   5.343
 4661POPC   GL159653   0.252   8.300   5.669
 4661POPC   GL259654   0.153   8.001   5.757
 4661POPC   C1A59655   0.406   8.213   6.139
 4661POPC   D2A59656   0.527   8.346   6.563
 4661POPC   C3A59657   0.595   8.173   6.942
 4661POPC   C4A59658   0.660   8.282   7.338
 4661POPC   C1B59659  44.974   7.953   6.219
 4661POPC   C2B59660   0.137   8.055   6.658
 4661POPC   C3B59661   0.232   7.852   7.085
 4661POPC   C4B59662   0.355   7.906   7.529
 4662POPC   NC359663  14.943  21.425   5.386
 4662POPC   PO459664  15.493  21.137   5.553
 4662POPC   GL159665  15.158  21.292   5.834
 4662POPC   GL259666  14.898  21.555   5.882
 4662POPC   C1A59667  15.153  21.248   6.271
 4662POPC   D2A59668  15.432  21.285   6.579
 4662POPC   C3A59669  15.211  21.402   6.948
 4662POPC   C4A59670  15.144  21.198   7.336
 4662POPC   C1B59671  15.290  21.705   6.105
 4662POPC   C2B59672  15.327  21.782   6.548
 4662POPC   C3B59673  15.541  21.779   6.954
 4662POPC   C4B59674  15.432  21.632   7.366
 4663POPC   NC359675  40.357  23.597   5.547
 4663POPC   PO459676  40.965  23.596   5.336
 4663POPC   GL159677  40.896  23.608   5.759
 4663POPC   GL259678  40.674  23.896   5.788
 4663POPC   C1A59679  41.059  23.470   6.166
 4663POPC   D2A59680  40.991  23.634   6.579
 4663POPC   C3A59681  41.053  23.508   6.988
 4663POPC   C4A59682  41.129  23.836   7.294
 4663POPC   C1B59683  40.616  23.730   6.227
 4663POPC   C2B59684  40.519  23.787   6.678
 4663POPC   C3B59685  40.639  23.807   7.124
 4663POPC   C4B59686  40.382  23.983   7.447
 4664POPC   NC359687  32.053  10.359   5.464
 4664POPC   PO459688  32.444   9.792   5.244
 4664POPC   GL159689  32.373   9.936   5.647
 4664POPC   GL259690  32.509  10.223   5.701
 4664POPC   C1A59691  32.182   9.956   6.072
 4664POPC   D2A59692  32.010   9.785   6.478
 4664POPC   C3A59693  32.377   9.626   6.695
 4664POPC   C4A59694  32.393   9.633   7.107
 4664POPC   C1B59695  32.571  10.294   6.128
 4664POPC   C2B59696  32.418  10.135   6.518
 4664POPC   C3B59697  32.596  10.105   6.937
 4664POPC   C4B59698  32.437  10.082   7.339
 4665POPC   NC359699   4.863  17.183   5.441
 4665POPC   PO459700   4.254  16.791   5.480
 4665POPC   GL159701   4.224  16.631   5.853
 4665POPC   GL259702   3.978  16.380   5.810
 4665POPC   C1A59703   4.380  16.676   6.259
 4665POPC   D2A59704   4.205  16.649   6.634
 4665POPC   C3A59705   4.337  16.891   6.987
 4665POPC   C4A59706   4.499  16.819   7.393
 4665POPC   C1B59707   3.856  16.592   6.195
 4665POPC   C2B59708   3.665  16.679   6.556
 4665POPC   C3B59709   3.824  16.693   6.963
 4665POPC   C4B59710   4.000  16.738   7.358
 4666POPC   NC359711  39.489  18.778   5.491
 4666POPC   PO459712  38.936  19.117   5.588
 4666POPC   GL159713  39.128  18.812   5.863
 4666POPC   GL259714  38.852  18.720   5.982
 4666POPC   C1A59715  39.291  18.722   6.286
 4666POPC   D2A59716  39.402  19.011   6.617
 4666POPC   C3A59717  39.396  18.909   7.047
 4666POPC   C4A59718  39.352  19.264   7.295
 4666POPC   C1B59719  38.895  19.068   6.290
 4666POPC   C2B59720  38.915  19.086   6.746
 4666POPC   C3B59721  38.910  18.810   7.111
 4666POPC   C4B59722  39.108  18.881   7.543
 4667POPC   NC359723  35.906  30.518   5.330
 4667POPC   PO459724  36.541  30.834   5.413
 4667POPC   GL159725  36.257  30.791   5.791
 4667POPC   GL259726  35.963  30.919   5.737
 4667POPC   C1A59727  36.102  30.658   6.221
 4667POPC   D2A59728  35.850  30.433   6.539
 4667POPC   C3A59729  35.992  30.306   6.953
 4667POPC   C4A59730  36.323  30.407   7.256
 4667POPC   C1B59731  35.761  31.049   6.101
 4667POPC   C2B59732  35.809  30.998   6.534
 4667POPC   C3B59733  36.020  30.843   6.899
 4667POPC   C4B59734  35.814  30.954   7.285
 4668POPC   NC359735   9.991   5.421   5.419
 4668POPC   PO459736   9.666   4.827   5.406
 4668POPC   GL159737   9.779   4.965   5.810
 4668POPC   GL259738   9.727   5.299   5.849
 4668POPC   C1A59739   9.632   4.924   6.233
 4668POPC   D2A59740   9.821   4.747   6.595
 4668POPC   C3A59741   9.697   4.891   7.000
 4668POPC   C4A59742   9.495   5.058   7.372
 4668POPC   C1B59743   9.584   5.454   6.217
 4668POPC   C2B59744   9.595   5.272   6.619
 4668POPC   C3B59745   9.480   5.445   6.988
 4668POPC   C4B59746   9.317   5.533   7.361
 4669POPC   NC359747  24.318   2.623   5.113
 4669POPC   PO459748  24.951   2.502   5.238
 4669POPC   GL159749  24.769   2.435   5.694
 4669POPC   GL259750  24.456   2.637   5.795
 4669POPC   C1A59751  24.767   2.409   6.181
 4669POPC   D2A59752  24.511   2.463   6.592
 4669POPC   C3A59753  24.424   2.591   7.062
 4669POPC   C4A59754  24.212   2.528   7.500
 4669POPC   C1B59755  24.363   2.864   6.193
 4669POPC   C2B59756  24.399   2.962   6.650
 4669POPC   C3B59757  24.579   3.094   7.066
 4669POPC   C4B59758  24.563   2.886   7.499
 4670POPC   NC359759  13.053   7.706   5.658
 4670POPC   PO459760  13.086   8.345   5.505
 4670POPC   GL159761  12.925   8.291   5.877
 4670POPC   GL259762  12.579   8.242   5.831
 4670POPC   C1A59763  13.123   8.400   6.250
 4670POPC   D2A59764  12.961   8.512   6.628
 4670POPC   C3A59765  13.090   8.402   6.995
 4670POPC   C4A59766  12.958   8.031   7.153
 4670POPC   C1B59767  12.699   8.021   6.246
 4670POPC   C2B59768  12.730   7.931   6.692
 4670POPC   C3B59769  12.640   7.659   7.049
 4670POPC   C4B59770  12.544   7.874   7.443
 4671POPC   NC359771  34.374   5.558   5.134
 4671POPC   PO459772  34.678   5.039   5.499
 4671POPC   GL159773  34.690   5.008   5.899
 4671POPC   GL259774  34.323   4.987   5.850
 4671POPC   C1A59775  34.588   4.786   6.263
 4671POPC   D2A59776  34.591   4.991   6.619
 4671POPC   C3A59777  34.886   4.941   6.932
 4671POPC   C4A59778  34.713   4.989   7.343
 4671POPC   C1B59779  34.308   5.205   6.204
 4671POPC   C2B59780  34.172   5.352   6.538
 4671POPC   C3B59781  34.254   5.201   6.913
 4671POPC   C4B59782  34.138   5.249   7.268
 4672POPC   NC359783  18.129  37.572   5.104
 4672POPC   PO459784  18.497  37.962   5.520
 4672POPC   GL159785  18.276  37.801   5.837
 4672POPC   GL259786  18.157  37.498   5.648
 4672POPC   C1A59787  18.352  37.760   6.278
 4672POPC   D2A59788  18.314  37.725   6.719
 4672POPC   C3A59789  18.439  37.620   7.112
 4672POPC   C4A59790  18.225  37.972   7.205
 4672POPC   C1B59791  17.979  37.478   6.073
 4672POPC   C2B59792  18.058  37.313   6.466
 4672POPC   C3B59793  17.941  37.424   6.891
 4672POPC   C4B59794  17.924  37.571   7.308
 4673POPC   NC359795  36.815  23.944   5.245
 4673POPC   PO459796  36.467  23.340   5.252
 4673POPC   GL159797  36.767  23.451   5.630
 4673POPC   GL259798  36.902  23.798   5.713
 4673POPC   C1A59799  36.929  23.477   6.097
 4673POPC   D2A59800  36.910  23.764   6.469
 4673POPC   C3A59801  37.080  23.648   6.886
 4673POPC   C4A59802  36.849  23.626   7.268
 4673POPC   C1B59803  37.022  24.099   6.016
 4673POPC   C2B59804  37.053  24.246   6.444
 4673POPC   C3B59805  36.985  24.154   6.877
 4673POPC   C4B59806  37.198  24.027   7.255
 4674POPC   NC359807  25.390   6.857   5.678
 4674POPC   PO459808  25.081   6.238   5.493
 4674POPC   GL159809  25.196   6.412   5.871
 4674POPC   GL259810  25.554   6.402   5.886
 4674POPC   C1A59811  25.110   6.433   6.313
 4674POPC   D2A59812  25.304   6.570   6.717
 4674POPC   C3A59813  25.084   6.824   7.037
 4674POPC   C4A59814  24.973   6.672   7.454
 4674POPC   C1B59815  25.616   6.574   6.278
 4674POPC   C2B59816  25.842   6.446   6.650
 4674POPC   C3B59817  25.694   6.402   7.069
 4674POPC   C4B59818  25.464   6.669   7.345
 4675POPC   NC359819  11.978  42.656   5.543
 4675POPC   PO459820  12.030  43.278   5.247
 4675POPC   GL159821  12.178  43.135   5.658
 4675POPC   GL259822  11.858  43.083   5.808
 4675POPC   C1A59823  12.249  43.223   6.122
 4675POPC   D2A59824  11.973  43.303   6.507
 4675POPC   C3A59825  12.089  43.219   6.958
 4675POPC   C4A59826  11.788  43.132   7.316
 4675POPC   C1B59827  11.907  42.844   6.200
 4675POPC   C2B59828  11.993  42.800   6.635
 4675POPC   C3B59829  11.974  42.732   7.061
 4675POPC   C4B59830  12.233  42.895   7.354
 4676POPC   NC359831   5.945   5.653   5.396
 4676POPC   PO459832   5.630   6.218   5.643
 4676POPC   GL159833   5.880   5.925   5.841
 4676POPC   GL259834   6.196   5.892   5.799
 4676POPC   C1A59835   6.007   5.702   6.245
 4676POPC   D2A59836   5.941   5.923   6.637
 4676POPC   C3A59837   6.058   5.732   7.015
 4676POPC   C4A59838   5.835   5.611   7.400
 4676POPC   C1B59839   6.180   6.218   6.157
 4676POPC   C2B59840   6.255   6.388   6.598
 4676POPC   C3B59841   6.058   6.263   7.012
 4676POPC   C4B59842   6.116   6.049   7.437
 4677POPC   NC359843  40.889  17.780   5.420
 4677POPC   PO459844  41.139  17.134   5.318
 4677POPC   GL159845  41.145  17.432   5.698
 4677POPC   GL259846  40.799  17.517   5.849
 4677POPC   C1A59847  41.173  17.538   6.149
 4677POPC   D2A59848  40.878  17.403   6.467
 4677POPC   C3A59849  40.905  17.516   6.913
 4677POPC   C4A59850  40.910  17.323   7.333
 4677POPC   C1B59851  40.622  17.792   6.212
 4677POPC   C2B59852  40.336  17.960   6.543
 4677POPC   C3B59853  40.296  17.722   6.912
 4677POPC   C4B59854  40.515  17.656   7.280
 4678POPC   NC359855  35.263  38.066   5.488
 4678POPC   PO459856  35.744  38.633   5.492
 4678POPC   GL159857  35.511  38.424   5.766
 4678POPC   GL259858  35.245  38.640   5.819
 4678POPC   C1A59859  35.584  38.415   6.200
 4678POPC   D2A59860  35.387  38.369   6.587
 4678POPC   C3A59861  35.574  38.526   6.960
 4678POPC   C4A59862  35.661  38.260   7.270
 4678POPC   C1B59863  35.052  38.497   6.196
 4678POPC   C2B59864  34.843  38.422   6.582
 4678POPC   C3B59865  35.036  38.431   6.958
 4678POPC   C4B59866  35.161  38.623   7.316
 4679POPC   NC359867  10.039  44.137   5.543
 4679POPC   PO459868   9.385  43.819   5.451
 4679POPC   GL159869   9.646  43.875   5.796
 4679POPC   GL259870   9.453  43.658   5.948
 4679POPC   C1A59871   9.644  44.085   6.222
 4679POPC   D2A59872   9.677  44.340   6.607
 4679POPC   C3A59873   9.956  44.090   6.860
 4679POPC   C4A59874   9.784  43.915   7.223
 4679POPC   C1B59875   9.776  43.590   6.248
 4679POPC   C2B59876   9.727  43.654   6.672
 4679POPC   C3B59877   9.966  43.508   6.968
 4679POPC   C4B59878  10.059  43.489   7.325
 4680POPC   NC359879  10.461   0.004   5.160
 4680POPC   PO459880  10.393   0.463   5.646
 4680POPC   GL159881  10.664   0.581   5.925
 4680POPC   GL259882  10.849   0.325   5.933
 4680POPC   C1A59883  10.667   0.712   6.299
 4680POPC   D2A59884  10.550   0.616   6.683
 4680POPC   C3A59885  10.845   0.634   6.990
 4680POPC   C4A59886  10.718   0.445   7.389
 4680POPC   C1B59887  10.509   0.215   6.287
 4680POPC   C2B59888  10.308   0.143   6.734
 4680POPC   C3B59889  10.328   0.105   7.213
 4680POPC   C4B59890  10.056   0.009   7.582
 4681POPC   NC359891  38.381  26.070   5.500
 4681POPC   PO459892  38.893  25.925   5.097
 4681POPC   GL159893  38.865  25.924   5.591
 4681POPC   GL259894  38.790  26.229   5.782
 4681POPC   C1A59895  38.717  25.825   6.084
 4681POPC   D2A59896  38.515  25.808   6.539
 4681POPC   C3A59897  38.602  26.031   6.951
 4681POPC   C4A59898  38.730  25.823   7.357
 4681POPC   C1B59899  38.580  26.314   6.180
 4681POPC   C2B59900  38.612  26.466   6.585
 4681POPC   C3B59901  38.581  26.564   7.005
 4681POPC   C4B59902  38.261  26.418   7.275
 4682POPC   NC359903  38.734  20.552   5.423
 4682POPC   PO459904  38.098  20.349   5.210
 4682POPC   GL159905  38.297  20.376   5.656
 4682POPC   GL259906  38.313  20.745   5.667
 4682POPC   C1A59907  38.595  20.489   6.050
 4682POPC   D2A59908  38.415  20.526   6.487
 4682POPC   C3A59909  38.608  20.513   6.898
 4682POPC   C4A59910  38.388  20.498   7.252
 4682POPC   C1B59911  38.124  20.706   6.081
 4682POPC   C2B59912  38.075  20.906   6.479
 4682POPC   C3B59913  38.144  20.782   6.880
 4682POPC   C4B59914  38.020  20.842   7.286
 4683POPC   NC359915  15.726  15.504   5.506
 4683POPC   PO459916  16.210  14.999   5.378
 4683POPC   GL159917  15.954  15.102   5.732
 4683POPC   GL259918  16.116  15.394   5.838
 4683POPC   C1A59919  15.706  15.052   6.120
 4683POPC   D2A59920  15.828  14.855   6.511
 4683POPC   C3A59921  15.856  15.111   6.885
 4683POPC   C4A59922  15.931  15.189   7.304
 4683POPC   C1B59923  15.945  15.501   6.249
 4683POPC   C2B59924  16.022  15.690   6.654
 4683POPC   C3B59925  16.226  15.627   7.076
 4683POPC   C4B59926  16.341  15.439   7.474
 4684POPC   NC359927  43.697   8.124   5.329
 4684POPC   PO459928  44.123   7.844   5.747
 4684POPC   GL159929  43.995   8.285   5.824
 4684POPC   GL259930  43.643   8.356   5.845
 4684POPC   C1A59931  44.035   8.391   6.234
 4684POPC   D2A59932  44.134   8.101   6.573
 4684POPC   C3A59933  44.211   8.320   6.933
 4684POPC   C4A59934  44.095   8.423   7.343
 4684POPC   C1B59935  43.569   8.609   6.232
 4684POPC   C2B59936  43.721   8.437   6.649
 4684POPC   C3B59937  43.680   8.288   7.094
 4684POPC   C4B59938  43.672   8.258   7.575
 4685POPC   NC359939  21.285  12.381   5.493
 4685POPC   PO459940  21.299  11.760   5.365
 4685POPC   GL159941  21.448  11.958   5.763
 4685POPC   GL259942  21.128  12.008   5.819
 4685POPC   C1A59943  21.539  12.006   6.244
 4685POPC   D2A59944  21.650  11.804   6.649
 4685POPC   C3A59945  21.753  12.081   6.953
 4685POPC   C4A59946  21.824  12.130   7.368
 4685POPC   C1B59947  21.009  12.037   6.215
 4685POPC   C2B59948  21.181  12.099   6.612
 4685POPC   C3B59949  21.086  11.939   6.976
 4685POPC   C4B59950  21.356  11.977   7.273
 4686POPC   NC359951  18.753  21.174   5.439
 4686POPC   PO459952  19.324  20.642   5.552
 4686POPC   GL159953  19.056  20.662   5.848
 4686POPC   GL259954  18.972  21.009   5.887
 4686POPC   C1A59955  19.196  20.596   6.230
 4686POPC   D2A59956  19.303  20.815   6.581
 4686POPC   C3A59957  19.303  20.593   6.970
 4686POPC   C4A59958  18.969  20.449   7.233
 4686POPC   C1B59959  18.760  20.871   6.244
 4686POPC   C2B59960  18.798  20.597   6.573
 4686POPC   C3B59961  18.846  20.820   6.906
 4686POPC   C4B59962  18.566  20.874   7.219
 4687POPC   NC359963  26.938  34.702   5.347
 4687POPC   PO459964  26.408  34.843   5.775
 4687POPC   GL159965  26.740  34.592   5.817
 4687POPC   GL259966  27.013  34.842   5.819
 4687POPC   C1A59967  26.940  34.473   6.185
 4687POPC   D2A59968  26.958  34.638   6.582
 4687POPC   C3A59969  26.560  34.599   6.793
 4687POPC   C4A59970  26.397  34.455   7.202
 4687POPC   C1B59971  26.912  35.028   6.189
 4687POPC   C2B59972  26.681  35.114   6.565
 4687POPC   C3B59973  26.898  35.023   6.942
 4687POPC   C4B59974  26.873  34.657   7.202
 4688POPC   NC359975   5.169  44.200   5.433
 4688POPC   PO459976   4.896  43.603   5.380
 4688POPC   GL159977   5.042  43.802   5.782
 4688POPC   GL259978   5.203  44.064   5.968
 4688POPC   C1A59979   5.091  43.585   6.199
 4688POPC   D2A59980   5.170  43.646   6.637
 4688POPC   C3A59981   4.996  43.839   6.983
 4688POPC   C4A59982   5.065  43.527   7.278
 4688POPC   C1B59983   5.155  44.112   6.418
 4688POPC   C2B59984   5.374  44.169   6.829
 4688POPC   C3B59985   5.162  44.300   7.237
 4688POPC   C4B59986   4.928  44.386   7.632
 4689POPC   NC359987   1.229  16.442   5.563
 4689POPC   PO459988   1.072  16.993   5.345
 4689POPC   GL159989   1.248  16.925   5.794
 4689POPC   GL259990   1.066  16.720   6.026
 4689POPC   C1A59991   1.511  16.897   6.203
 4689POPC   D2A59992   1.466  17.043   6.664
 4689POPC   C3A59993   1.378  16.836   7.088
 4689POPC   C4A59994   1.422  16.941   7.564
 4689POPC   C1B59995   1.007  16.312   6.246
 4689POPC   C2B59996   1.082  16.141   6.666
 4689POPC   C3B59997   1.004  16.275   7.099
 4689POPC   C4B59998   0.899  16.695   7.269
 4690POPC   NC359999  22.497   0.668   5.609
 4690POPC   PO460000  21.924   0.318   5.530
 4690POPC   GL160001  22.221   0.271   5.815
 4690POPC   GL260002  22.449   0.020   5.764
 4690POPC   C1A60003  22.303   0.345   6.231
 4690POPC   D2A60004  22.121   0.229   6.594
 4690POPC   C3A60005  22.243   0.516   6.901
 4690POPC   C4A60006  22.181   0.691   7.266
 4690POPC   C1B60007  22.722   0.049   6.122
 4690POPC   C2B60008  22.727   0.062   6.585
 4690POPC   C3B60009  22.430   0.033   6.931
 4690POPC   C4B60010  22.164   0.174   7.293
 4691POPC   NC360011  12.582  40.498   4.954
 4691POPC   PO460012  12.973  40.815   5.439
 4691POPC   GL160013  12.974  40.807   5.863
 4691POPC   GL260014  12.670  40.946   5.865
 4691POPC   C1A60015  12.917  40.524   6.250
 4691POPC   D2A60016  12.717  40.409   6.656
 4691POPC   C3A60017  13.013  40.409   7.032
 4691POPC   C4A60018  13.480  40.455   7.028
 4691POPC   C1B60019  12.517  40.815   6.247
 4691POPC   C2B60020  12.607  40.938   6.632
 4691POPC   C3B60021  12.656  40.778   7.004
 4691POPC   C4B60022  12.890  40.839   7.342
 4692POPC   NC360023  17.761  21.896   5.626
 4692POPC   PO460024  18.307  22.156   5.353
 4692POPC   GL160025  18.342  22.260   5.798
 4692POPC   GL260026  17.969  22.352   5.852
 4692POPC   C1A60027  18.647  22.269   6.167
 4692POPC   D2A60028  18.812  22.173   6.590
 4692POPC   C3A60029  18.691  22.283   7.022
 4692POPC   C4A60030  18.538  22.191   7.445
 4692POPC   C1B60031  18.118  22.198   6.255
 4692POPC   C2B60032  17.967  22.146   6.678
 4692POPC   C3B60033  18.177  22.198   7.069
 4692POPC   C4B60034  18.131  22.487   7.422
 4693POPC   NC360035   6.434   3.471   5.738
 4693POPC   PO460036   6.953   3.879   5.541
 4693POPC   GL160037   6.887   3.603   5.906
 4693POPC   GL260038   6.883   3.245   5.899
 4693POPC   C1A60039   6.682   3.569   6.312
 4693POPC   D2A60040   6.670   3.509   6.722
 4693POPC   C3A60041   6.352   3.670   6.952
 4693POPC   C4A60042   6.534   3.545   7.314
 4693POPC   C1B60043   7.014   3.104   6.297
 4693POPC   C2B60044   7.138   3.098   6.745
 4693POPC   C3B60045   6.912   3.250   7.098
 4693POPC   C4B60046   6.755   3.007   7.454
 4694POPC   NC360047   8.657  17.441   5.500
 4694POPC   PO460048   9.174  17.758   5.218
 4694POPC   GL160049   9.353  17.562   5.752
 4694POPC   GL260050   9.091  17.348   5.891
 4694POPC   C1A60051   9.371  17.743   6.182
 4694POPC   D2A60052   9.237  17.816   6.615
 4694POPC   C3A60053   9.074  17.567   6.991
 4694POPC   C4A60054   8.777  17.813   7.280
 4694POPC   C1B60055   8.913  17.549   6.296
 4694POPC   C2B60056   8.706  17.723   6.659
 4694POPC   C3B60057   8.572  17.434   6.976
 4694POPC   C4B60058   8.744  17.238   7.351
 4695POPC   NC360059  10.140  12.059   5.473
 4695POPC   PO460060   9.620  11.707   5.370
 4695POPC   GL160061   9.667  11.896   5.818
 4695POPC   GL260062   9.989  12.098   5.953
 4695POPC   C1A60063   9.533  12.262   6.097
 4695POPC   D2A60064   9.442  12.350   6.540
 4695POPC   C3A60065   9.724  12.190   6.866
 4695POPC   C4A60066   9.685  12.303   7.301
 4695POPC   C1B60067   9.820  11.931   6.363
 4695POPC   C2B60068  10.031  11.633   6.619
 4695POPC   C3B60069  10.247  11.693   6.961
 4695POPC   C4B60070  10.004  11.891   7.267
 4696POPC   NC360071  39.866  37.641   5.456
 4696POPC   PO460072  40.391  37.998   5.390
 4696POPC   GL160073  40.120  37.993   5.763
 4696POPC   GL260074  39.741  38.045   5.772
 4696POPC   C1A60075  40.051  37.808   6.190
 4696POPC   D2A60076  40.014  37.925   6.623
 4696POPC   C3A60077  40.036  37.566   6.880
 4696POPC   C4A60078  39.907  37.467   7.274
 4696POPC   C1B60079  39.577  37.970   6.211
 4696POPC   C2B60080  39.522  37.728   6.626
 4696POPC   C3B60081  39.659  37.867   7.052
 4696POPC   C4B60082  39.739  37.862   7.524
 4697POPC   NC360083  29.933  11.830   5.585
 4697POPC   PO460084  29.702  12.492   5.517
 4697POPC   GL160085  29.968  12.287   5.814
 4697POPC   GL260086  29.659  12.128   5.912
 4697POPC   C1A60087  30.105  12.072   6.193
 4697POPC   D2A60088  30.191  11.840   6.573
 4697POPC   C3A60089  30.181  12.006   6.998
 4697POPC   C4A60090  30.068  12.034   7.437
 4697POPC   C1B60091  29.631  11.993   6.338
 4697POPC   C2B60092  29.703  11.818   6.761
 4697POPC   C3B60093  29.678  12.044   7.123
 4697POPC   C4B60094  29.566  12.135   7.563
 4698POPC   NC360095  20.887  36.300   5.354
 4698POPC   PO460096  20.296  36.115   5.189
 4698POPC   GL160097  20.575  36.032   5.659
 4698POPC   GL260098  20.928  35.943   5.768
 4698POPC   C1A60099  20.499  36.148   6.143
 4698POPC   D2A60100  20.661  36.374   6.548
 4698POPC   C3A60101  20.502  36.285   6.987
 4698POPC   C4A60102  20.450  35.914   7.225
 4698POPC   C1B60103  21.001  36.216   6.150
 4698POPC   C2B60104  21.199  36.235   6.587
 4698POPC   C3B60105  21.027  36.239   7.038
 4698POPC   C4B60106  20.956  35.883   7.339
 4699POPC   NC360107  28.982  41.918   5.450
 4699POPC   PO460108  29.349  42.414   5.417
 4699POPC   GL160109  29.356  42.436   5.832
 4699POPC   GL260110  29.346  42.074   5.879
 4699POPC   C1A60111  29.116  42.489   6.204
 4699POPC   D2A60112  29.115  42.245   6.591
 4699POPC   C3A60113  29.261  42.389   7.005
 4699POPC   C4A60114  29.046  42.383   7.406
 4699POPC   C1B60115  29.557  42.215   6.256
 4699POPC   C2B60116  29.625  42.165   6.680
 4699POPC   C3B60117  29.312  41.828   6.808
 4699POPC   C4B60118  28.990  41.959   7.110
 4700POPC   NC360119   0.890  29.378   5.140
 4700POPC   PO460120   0.262  29.459   5.430
 4700POPC   GL160121   0.330  29.254   5.814
 4700POPC   GL260122   0.612  29.051   5.804
 4700POPC   C1A60123   0.562  29.347   6.220
 4700POPC   D2A60124   0.587  29.225   6.656
 4700POPC   C3A60125   0.188  29.346   6.837
 4700POPC   C4A60126   0.111  29.340   7.269
 4700POPC   C1B60127   0.317  28.893   6.175
 4700POPC   C2B60128   0.182  28.882   6.616
 4700POPC   C3B60129   0.378  28.925   7.054
 4700POPC   C4B60130   0.410  28.684   7.431
 4701POPC   NC360131   7.884  10.808   5.615
 4701POPC   PO460132   7.572  10.202   5.391
 4701POPC   GL160133   7.511  10.449   5.818
 4701POPC   GL260134   7.162  10.347   5.874
 4701POPC   C1A60135   7.584  10.715   6.223
 4701POPC   D2A60136   7.410  10.670   6.672
 4701POPC   C3A60137   7.689  10.732   7.056
 4701POPC   C4A60138   7.738  10.705   7.541
 4701POPC   C1B60139   7.349  10.266   6.283
 4701POPC   C2B60140   7.284  10.176   6.690
 4701POPC   C3B60141   7.480  10.219   7.055
 4701POPC   C4B60142   7.337  10.492   7.358
 4702POPC   NC360143  21.056  23.131   5.457
 4702POPC   PO460144  21.589  22.657   5.397
 4702POPC   GL160145  21.425  22.877   5.727
 4702POPC   GL260146  21.172  22.675   5.895
 4702POPC   C1A60147  21.544  23.011   6.147
 4702POPC   D2A60148  21.727  22.831   6.527
 4702POPC   C3A60149  21.453  22.808   6.902
 4702POPC   C4A60150  21.577  23.079   7.212
 4702POPC   C1B60151  21.002  23.028   6.145
 4702POPC   C2B60152  21.055  23.156   6.564
 4702POPC   C3B60153  20.938  23.003   6.962
 4702POPC   C4B60154  21.121  22.912   7.330
 4703POPC   NC360155  31.727  16.263   5.481
 4703POPC   PO460156  31.319  15.722   5.484
 4703POPC   GL160157  31.526  15.871   5.855
 4703POPC   GL260158  31.832  15.728   5.927
 4703POPC   C1A60159  31.628  16.229   6.178
 4703POPC   D2A60160  31.593  16.402   6.636
 4703POPC   C3A60161  31.458  16.137   7.003
 4703POPC   C4A60162  31.438  16.087   7.463
 4703POPC   C1B60163  31.691  15.746   6.342
 4703POPC   C2B60164  31.640  15.733   6.782
 4703POPC   C3B60165  31.710  15.730   7.217
 4703POPC   C4B60166  31.831  15.794   7.651
 4704POPC   NC360167  21.141   8.474   5.514
 4704POPC   PO460168  20.985   7.858   5.371
 4704POPC   GL160169  21.198   8.042   5.792
 4704POPC   GL260170  21.544   8.236   5.763
 4704POPC   C1A60171  21.337   7.950   6.244
 4704POPC   D2A60172  21.195   7.984   6.680
 4704POPC   C3A60173  21.285   7.778   7.034
 4704POPC   C4A60174  21.496   7.918   7.408
 4704POPC   C1B60175  21.533   8.449   6.155
 4704POPC   C2B60176  21.341   8.460   6.555
 4704POPC   C3B60177  21.426   8.329   6.993
 4704POPC   C4B60178  21.594   8.648   7.259
 4705POPC   NC360179   8.678   3.191   5.445
 4705POPC   PO460180   9.319   3.190   5.635
 4705POPC   GL160181   9.127   2.821   5.820
 4705POPC   GL260182   8.806   2.908   5.850
 4705POPC   C1A60183   9.109   2.529   6.194
 4705POPC   D2A60184   9.217   2.584   6.645
 4705POPC   C3A60185   9.023   2.942   6.818
 4705POPC   C4A60186   8.973   2.943   7.237
 4705POPC   C1B60187   8.567   2.741   6.183
 4705POPC   C2B60188   8.496   2.873   6.587
 4705POPC   C3B60189   8.562   2.720   6.979
 4705POPC   C4B60190   8.466   2.892   7.341
 4706POPC   NC360191  41.790   6.926   5.729
 4706POPC   PO460192  41.817   6.272   5.491
 4706POPC   GL160193  41.654   6.471   5.842
 4706POPC   GL260194  41.328   6.674   5.830
 4706POPC   C1A60195  41.885   6.414   6.224
 4706POPC   D2A60196  42.019   6.542   6.610
 4706POPC   C3A60197  41.949   6.310   6.970
 4706POPC   C4A60198  41.791   6.363   7.375
 4706POPC   C1B60199  41.468   6.712   6.274
 4706POPC   C2B60200  41.615   6.859   6.648
 4706POPC   C3B60201  41.618   6.747   7.062
 4706POPC   C4B60202  41.540   6.912   7.486
 4707POPC   NC360203  13.702  22.498   5.114
 4707POPC   PO460204  13.706  23.098   5.375
 4707POPC   GL160205  13.692  22.882   5.760
 4707POPC   GL260206  13.987  22.752   5.847
 4707POPC   C1A60207  13.527  22.976   6.168
 4707POPC   D2A60208  13.360  23.152   6.537
 4707POPC   C3A60209  13.409  23.031   6.943
 4707POPC   C4A60210  13.235  23.030   7.351
 4707POPC   C1B60211  14.018  22.932   6.260
 4707POPC   C2B60212  13.818  22.871   6.657
 4707POPC   C3B60213  13.823  22.852   7.115
 4707POPC   C4B60214  13.773  23.110   7.531
 4708POPC   NC360215  39.775  44.179   5.422
 4708POPC   PO460216  40.156  43.599   5.542
 4708POPC   GL160217  39.999  43.892   5.845
 4708POPC   GL260218  39.762  43.656   5.924
 4708POPC   C1A60219  40.040  44.118   6.263
 4708POPC   D2A60220  40.306  44.245   6.646
 4708POPC   C3A60221  40.174  44.013   7.028
 4708POPC   C4A60222  39.805  44.123   7.266
 4708POPC   C1B60223  39.984  43.589   6.307
 4708POPC   C2B60224  39.868  43.810   6.674
 4708POPC   C3B60225  39.636  43.696   7.034
 4708POPC   C4B60226  39.530  43.721   7.472
 4709POPC   NC360227  17.192  35.592   5.492
 4709POPC   PO460228  17.655  35.057   5.700
 4709POPC   GL160229  17.574  35.440   5.883
 4709POPC   GL260230  17.887  35.544   5.800
 4709POPC   C1A60231  17.552  35.426   6.332
 4709POPC   D2A60232  17.563  35.052   6.625
 4709POPC   C3A60233  17.412  35.183   7.032
 4709POPC   C4A60234  17.558  35.399   7.369
 4709POPC   C1B60235  17.986  35.729   6.230
 4709POPC   C2B60236  17.763  35.799   6.645
 4709POPC   C3B60237  17.866  35.705   7.097
 4709POPC   C4B60238  17.826  35.785   7.557
 4710POPC   NC360239  20.285  12.365   5.510
 4710POPC   PO460240  20.592  11.753   5.453
 4710POPC   GL160241  20.419  11.954   5.803
 4710POPC   GL260242  20.664  12.240   5.844
 4710POPC   C1A60243  20.486  11.959   6.241
 4710POPC   D2A60244  20.742  11.792   6.581
 4710POPC   C3A60245  20.572  11.895   6.980
 4710POPC   C4A60246  20.671  11.736   7.380
 4710POPC   C1B60247  20.735  12.441   6.252
 4710POPC   C2B60248  20.719  12.327   6.694
 4710POPC   C3B60249  20.973  12.428   7.060
 4710POPC   C4B60250  20.915  12.179   7.429
 4711POPC   NC360251   7.492  28.804   5.482
 4711POPC   PO460252   7.526  28.140   5.483
 4711POPC   GL160253   7.623  28.422   5.898
 4711POPC   GL260254   7.567  28.807   5.982
 4711POPC   C1A60255   7.450  28.468   6.354
 4711POPC   D2A60256   7.220  28.233   6.698
 4711POPC   C3A60257   7.434  28.195   7.112
 4711POPC   C4A60258   7.264  28.303   7.526
 4711POPC   C1B60259   7.892  28.746   6.284
 4711POPC   C2B60260   7.768  28.698   6.714
 4711POPC   C3B60261   7.411  28.677   6.969
 4711POPC   C4B60262   7.626  28.626   7.350
 4712POPC   NC360263  30.486  34.164   5.382
 4712POPC   PO460264  30.748  33.599   5.347
 4712POPC   GL160265  30.777  33.844   5.720
 4712POPC   GL260266  30.473  33.968   5.889
 4712POPC   C1A60267  30.888  33.891   6.155
 4712POPC   D2A60268  30.961  33.965   6.567
 4712POPC   C3A60269  31.043  33.850   6.980
 4712POPC   C4A60270  30.718  34.014   7.236
 4712POPC   C1B60271  30.416  33.982   6.347
 4712POPC   C2B60272  30.515  33.769   6.730
 4712POPC   C3B60273  30.673  33.513   7.063
 4712POPC   C4B60274  30.589  33.535   7.490
 4713POPC   NC360275  15.228  43.558   5.307
 4713POPC   PO460276  15.039  42.959   5.371
 4713POPC   GL160277  15.080  42.907   5.820
 4713POPC   GL260278  15.136  43.232   5.913
 4713POPC   C1A60279  15.066  42.825   6.225
 4713POPC   D2A60280  15.150  43.120   6.514
 4713POPC   C3A60281  15.145  42.950   6.887
 4713POPC   C4A60282  15.184  43.176   7.251
 4713POPC   C1B60283  15.480  43.362   6.183
 4713POPC   C2B60284  15.542  43.507   6.611
 4713POPC   C3B60285  15.630  43.405   7.057
 4713POPC   C4B60286  15.547  43.567   7.467
 4714POPC   NC360287  43.260  32.212   5.484
 4714POPC   PO460288  42.799  32.614   5.109
 4714POPC   GL160289  42.899  32.560   5.624
 4714POPC   GL260290  43.250  32.670   5.711
 4714POPC   C1A60291  42.900  32.301   6.070
 4714POPC   D2A60292  42.748  32.251   6.540
 4714POPC   C3A60293  43.016  32.107   6.912
 4714POPC   C4A60294  43.265  32.031   7.289
 4714POPC   C1B60295  43.315  32.608   6.154
 4714POPC   C2B60296  43.266  32.385   6.558
 4714POPC   C3B60297  43.356  32.538   6.986
 4714POPC   C4B60298  43.450  32.477   7.434
 4715POPC   NC360299   0.994  37.448   5.455
 4715POPC   PO460300   1.704  37.356   5.371
 4715POPC   GL160301   1.410  37.600   5.690
 4715POPC   GL260302   1.062  37.713   5.864
 4715POPC   C1A60303   1.483  37.699   6.127
 4715POPC   D2A60304   1.470  37.502   6.525
 4715POPC   C3A60305   1.371  37.765   6.864
 4715POPC   C4A60306   1.468  37.666   7.268
 4715POPC   C1B60307   1.030  37.462   6.237
 4715POPC   C2B60308   0.925  37.569   6.675
 4715POPC   C3B60309   0.999  37.455   7.108
 4715POPC   C4B60310   1.034  37.632   7.547
 4716POPC   NC360311  14.637   6.891   5.456
 4716POPC   PO460312  14.086   6.764   5.226
 4716POPC   GL160313  14.221   6.765   5.735
 4716POPC   GL260314  14.480   6.603   5.850
 4716POPC   C1A60315  14.150   6.742   6.203
 4716POPC   D2A60316  14.267   6.965   6.582
 4716POPC   C3A60317  14.281   6.741   6.962
 4716POPC   C4A60318  14.259   6.871   7.384
 4716POPC   C1B60319  14.702   6.450   6.207
 4716POPC   C2B60320  14.626   6.508   6.630
 4716POPC   C3B60321  14.711   6.487   7.052
 4716POPC   C4B60322  14.741   6.755   7.458
 4717POPC   NC360323  40.623  36.172   5.463
 4717POPC   PO460324  41.110  35.791   5.093
 4717POPC   GL160325  41.066  35.920   5.638
 4717POPC   GL260326  40.925  36.245   5.853
 4717POPC   C1A60327  41.027  35.816   6.120
 4717POPC   D2A60328  40.772  35.756   6.538
 4717POPC   C3A60329  40.766  36.075   6.842
 4717POPC   C4A60330  40.975  36.119   7.214
 4717POPC   C1B60331  40.711  36.213   6.297
 4717POPC   C2B60332  40.515  36.499   6.639
 4717POPC   C3B60333  40.402  36.582   7.091
 4717POPC   C4B60334  40.540  36.281   7.408
 4718POPC   NC360335  14.621   0.047   5.461
 4718POPC   PO460336  14.262  44.500   5.213
 4718POPC   GL160337  14.413  44.617   5.652
 4718POPC   GL260338  14.606  44.377   5.803
 4718POPC   C1A60339  14.418  44.781   6.114
 4718POPC   D2A60340  14.218  44.720   6.559
 4718POPC   C3A60341  14.462  44.720   6.934
 4718POPC   C4A60342  14.777  44.982   7.174
 4718POPC   C1B60343  14.560  44.208   6.178
 4718POPC   C2B60344  14.701  44.087   6.563
 4718POPC   C3B60345  14.554  44.164   6.992
 4718POPC   C4B60346  14.757  44.473   7.260
 4719POPC   NC360347  10.566  13.704   5.397
 4719POPC   PO460348  10.135  13.383   5.858
 4719POPC   GL160349  10.383  13.752   5.899
 4719POPC   GL260350  10.733  13.650   5.881
 4719POPC   C1A60351  10.490  13.973   6.276
 4719POPC   D2A60352  10.503  14.084   6.733
 4719POPC   C3A60353  10.222  13.994   7.076
 4719POPC   C4A60354  10.431  13.803   7.443
 4719POPC   C1B60355  10.907  13.660   6.295
 4719POPC   C2B60356  10.962  13.842   6.700
 4719POPC   C3B60357  10.826  13.793   7.115
 4719POPC   C4B60358  10.834  13.437   7.414
 4720POPC   NC360359   1.596  24.782   5.447
 4720POPC   PO460360   0.975  24.978   5.425
 4720POPC   GL160361   1.266  25.141   5.761
 4720POPC   GL260362   1.435  24.891   5.943
 4720POPC   C1A60363   1.353  25.430   6.142
 4720POPC   D2A60364   1.150  25.529   6.584
 4720POPC   C3A60365   1.387  25.580   7.011
 4720POPC   C4A60366   1.500  25.339   7.391
 4720POPC   C1B60367   1.118  25.012   6.260
 4720POPC   C2B60368   0.941  25.014   6.666
 4720POPC   C3B60369   1.107  25.131   7.068
 4720POPC   C4B60370   0.993  25.117   7.506
 4721POPC   NC360371   0.796   0.926   5.461
 4721POPC   PO460372   0.191   1.161   5.632
 4721POPC   GL160373   0.516   0.977   5.917
 4721POPC   GL260374   0.524   1.267   6.101
 4721POPC   C1A60375   0.684   0.882   6.383
 4721POPC   D2A60376   0.436   1.135   6.666
 4721POPC   C3A60377   0.527   1.126   7.060
 4721POPC   C4A60378   0.776   1.401   7.271
 4721POPC   C1B60379   0.103   1.107   6.280
 4721POPC   C2B60380  44.917   1.257   6.673
 4721POPC   C3B60381   0.128   1.502   6.996
 4721POPC   C4B60382   0.241   1.400   7.425
 4722POPC   NC360383  20.551   1.769   5.160
 4722POPC   PO460384  20.570   1.113   5.470
 4722POPC   GL160385  20.566   1.220   5.873
 4722POPC   GL260386  20.868   1.387   5.906
 4722POPC   C1A60387  20.520   1.119   6.300
 4722POPC   D2A60388  20.259   1.265   6.615
 4722POPC   C3A60389  20.340   1.136   7.026
 4722POPC   C4A60390  20.529   1.116   7.410
 4722POPC   C1B60391  21.043   1.114   6.243
 4722POPC   C2B60392  20.886   0.889   6.610
 4722POPC   C3B60393  20.853   1.021   7.018
 4722POPC   C4B60394  20.754   1.475   7.062
 4723POPC   NC360395  11.987  20.992   5.558
 4723POPC   PO460396  12.242  20.382   5.523
 4723POPC   GL160397  12.100  20.624   5.887
 4723POPC   GL260398  12.264  20.500   6.126
 4723POPC   C1A60399  11.869  20.814   6.261
 4723POPC   D2A60400  11.772  20.733   6.705
 4723POPC   C3A60401  12.075  20.681   7.027
 4723POPC   C4A60402  12.164  20.884   7.416
 4723POPC   C1B60403  12.057  20.357   6.467
 4723POPC   C2B60404  11.901  20.209   6.855
 4723POPC   C3B60405  11.715  20.360   7.231
 4723POPC   C4B60406  11.840  20.177   7.646
 4724POPC   NC360407   1.344  15.462   5.054
 4724POPC   PO460408   1.339  16.024   5.403
 4724POPC   GL160409   1.196  15.740   5.727
 4724POPC   GL260410   1.533  15.758   5.834
 4724POPC   C1A60411   1.011  15.598   6.153
 4724POPC   D2A60412   0.829  15.715   6.570
 4724POPC   C3A60413   1.079  15.695   6.958
 4724POPC   C4A60414   0.987  15.831   7.369
 4724POPC   C1B60415   1.391  15.934   6.214
 4724POPC   C2B60416   1.469  15.785   6.623
 4724POPC   C3B60417   1.487  16.053   6.971
 4724POPC   C4B60418   1.707  16.062   7.305
 4725POPC   NC360419  37.983  29.233   5.474
 4725POPC   PO460420  37.424  28.752   5.362
 4725POPC   GL160421  37.601  28.913   5.768
 4725POPC   GL260422  37.549  29.262   5.860
 4725POPC   C1A60423  37.783  28.935   6.215
 4725POPC   D2A60424  37.617  29.044   6.629
 4725POPC   C3A60425  37.776  28.967   7.049
 4725POPC   C4A60426  37.673  28.919   7.486
 4725POPC   C1B60427  37.877  29.436   6.117
 4725POPC   C2B60428  37.897  29.546   6.547
 4725POPC   C3B60429  37.659  29.499   6.930
 4725POPC   C4B60430  37.770  29.450   7.359
 4726POPC   NC360431  26.589   7.823   5.501
 4726POPC   PO460432  26.898   8.415   5.462
 4726POPC   GL160433  26.742   8.316   5.828
 4726POPC   GL260434  26.921   8.016   5.875
 4726POPC   C1A60435  26.880   8.466   6.237
 4726POPC   D2A60436  26.921   8.698   6.634
 4726POPC   C3A60437  26.705   8.594   7.017
 4726POPC   C4A60438  26.528   8.201   7.183
 4726POPC   C1B60439  26.602   8.032   6.235
 4726POPC   C2B60440  26.630   8.235   6.649
 4726POPC   C3B60441  27.032   8.214   6.904
 4726POPC   C4B60442  27.140   7.891   7.225
 4727POPC   NC360443  25.130   5.376   5.352
 4727POPC   PO460444  25.164   4.716   5.353
 4727POPC   GL160445  25.189   5.017   5.717
 4727POPC   GL260446  25.510   5.151   5.847
 4727POPC   C1A60447  25.087   4.972   6.155
 4727POPC   D2A60448  25.316   5.052   6.515
 4727POPC   C3A60449  25.230   4.880   6.890
 4727POPC   C4A60450  25.247   5.061   7.282
 4727POPC   C1B60451  25.562   4.766   6.139
 4727POPC   C2B60452  25.722   4.746   6.620
 4727POPC   C3B60453  25.693   4.852   7.088
 4727POPC   C4B60454  25.489   4.636   7.423
 4728POPC   NC360455   5.679   9.161   5.424
 4728POPC   PO460456   6.296   8.842   5.379
 4728POPC   GL160457   5.927   8.844   5.739
 4728POPC   GL260458   5.968   9.191   5.859
 4728POPC   C1A60459   5.619   8.829   6.155
 4728POPC   D2A60460   5.703   8.650   6.610
 4728POPC   C3A60461   5.523   8.759   7.041
 4728POPC   C4A60462   5.526   8.708   7.486
 4728POPC   C1B60463   6.056   9.054   6.272
 4728POPC   C2B60464   5.833   9.214   6.613
 4728POPC   C3B60465   5.694   9.253   7.010
 4728POPC   C4B60466   5.948   9.003   7.247
 4729POPC   NC360467  32.261  42.083   5.262
 4729POPC   PO460468  32.925  42.224   5.528
 4729POPC   GL160469  33.030  42.209   5.922
 4729POPC   GL260470  33.339  41.990   5.883
 4729POPC   C1A60471  32.860  42.330   6.328
 4729POPC   D2A60472  32.911  42.220   6.773
 4729POPC   C3A60473  33.161  42.449   7.094
 4729POPC   C4A60474  33.018  42.514   7.499
 4729POPC   C1B60475  33.291  42.054   6.322
 4729POPC   C2B60476  33.401  42.055   6.721
 4729POPC   C3B60477  33.201  41.936   7.087
 4729POPC   C4B60478  33.283  42.049   7.499
 4730POPC   NC360479  30.322  19.769   5.651
 4730POPC   PO460480  29.667  19.655   5.521
 4730POPC   GL160481  29.891  19.627   5.925
 4730POPC   GL260482  30.175  19.340   5.909
 4730POPC   C1A60483  29.788  19.811   6.355
 4730POPC   D2A60484  29.806  19.586   6.758
 4730POPC   C3A60485  29.682  19.787   7.120
 4730POPC   C4A60486  29.854  20.188   7.153
 4730POPC   C1B60487  30.073  19.401   6.345
 4730POPC   C2B60488  30.335  19.486   6.701
 4730POPC   C3B60489  30.221  19.620   7.102
 4730POPC   C4B60490  29.932  19.385   7.254
 4731POPC   NC360491  20.354  33.002   5.536
 4731POPC   PO460492  20.861  33.334   5.300
 4731POPC   GL160493  20.865  33.142   5.735
 4731POPC   GL260494  20.548  33.174   5.957
 4731POPC   C1A60495  20.976  32.996   6.165
 4731POPC   D2A60496  20.709  32.982   6.514
 4731POPC   C3A60497  20.844  32.838   6.923
 4731POPC   C4A60498  20.885  32.994   7.348
 4731POPC   C1B60499  20.287  33.328   6.311
 4731POPC   C2B60500  20.279  33.135   6.718
 4731POPC   C3B60501  20.398  32.953   7.116
 4731POPC   C4B60502  20.433  33.166   7.536
 4732POPC   NC360503  39.755   1.744   5.492
 4732POPC   PO460504  40.226   2.238   5.400
 4732POPC   GL160505  40.199   1.956   5.728
 4732POPC   GL260506  40.250   1.632   5.638
 4732POPC   C1A60507  39.973   1.908   6.115
 4732POPC   D2A60508  39.773   1.901   6.519
 4732POPC   C3A60509  39.999   1.919   6.869
 4732POPC   C4A60510  40.009   1.866   7.288
 4732POPC   C1B60511  40.373   1.582   6.062
 4732POPC   C2B60512  40.321   1.734   6.470
 4732POPC   C3B60513  40.451   1.617   6.849
 4732POPC   C4B60514  40.481   1.634   7.289
 4733POPC   NC360515   5.907   1.517   5.107
 4733POPC   PO460516   5.651   1.088   5.528
 4733POPC   GL160517   5.712   1.284   5.905
 4733POPC   GL260518   6.036   1.411   5.892
 4733POPC   C1A60519   5.855   1.100   6.286
 4733POPC   D2A60520   6.023   0.776   6.492
 4733POPC   C3A60521   5.861   0.947   6.838
 4733POPC   C4A60522   5.858   0.912   7.249
 4733POPC   C1B60523   6.028   1.577   6.322
 4733POPC   C2B60524   5.812   1.433   6.704
 4733POPC   C3B60525   6.008   1.384   7.151
 4733POPC   C4B60526   6.087   1.652   7.566
 4734POPC   NC360527  13.975   0.617   5.568
 4734POPC   PO460528  14.068  44.947   5.463
 4734POPC   GL160529  13.841   0.197   5.822
 4734POPC   GL260530  13.502   0.325   5.856
 4734POPC   C1A60531  13.817   0.492   6.222
 4734POPC   D2A60532  13.725   0.708   6.627
 4734POPC   C3A60533  13.894   0.479   6.995
 4734POPC   C4A60534  13.731   0.217   7.293
 4734POPC   C1B60535  13.330   0.639   6.196
 4734POPC   C2B60536  13.211   0.726   6.600
 4734POPC   C3B60537  13.369   0.547   6.965
 4734POPC   C4B60538  13.342   0.734   7.317
 4735POPC   NC360539  35.151   2.446   5.345
 4735POPC   PO460540  35.670   2.792   5.515
 4735POPC   GL160541  35.463   2.612   5.850
 4735POPC   GL260542  35.125   2.734   5.820
 4735POPC   C1A60543  35.603   2.601   6.283
 4735POPC   D2A60544  35.698   2.827   6.651
 4735POPC   C3A60545  35.470   2.627   6.983
 4735POPC   C4A60546  35.176   2.731   7.329
 4735POPC   C1B60547  35.070   2.551   6.238
 4735POPC   C2B60548  35.077   2.454   6.681
 4735POPC   C3B60549  35.013   2.306   7.119
 4735POPC   C4B60550  34.948   2.372   7.601
 4736POPC   NC360551  36.930  19.695   5.512
 4736POPC   PO460552  37.267  20.320   5.476
 4736POPC   GL160553  37.032  20.083   5.840
 4736POPC   GL260554  37.185  19.722   5.949
 4736POPC   C1A60555  36.760  19.973   6.212
 4736POPC   D2A60556  36.707  20.085   6.662
 4736POPC   C3A60557  36.846  19.848   7.037
 4736POPC   C4A60558  36.662  19.905   7.441
 4736POPC   C1B60559  37.066  19.593   6.369
 4736POPC   C2B60560  36.671  19.559   6.600
 4736POPC   C3B60561  36.609  19.319   6.970
 4736POPC   C4B60562  36.856  19.419   7.358
 4737POPC   NC360563   4.680   1.823   5.522
 4737POPC   PO460564   5.330   1.974   5.471
 4737POPC   GL160565   5.249   1.998   5.875
 4737POPC   GL260566   4.906   2.046   5.926
 4737POPC   C1A60567   5.253   2.125   6.306
 4737POPC   D2A60568   5.080   1.862   6.624
 4737POPC   C3A60569   5.339   1.665   6.902
 4737POPC   C4A60570   5.413   2.040   7.146
 4737POPC   C1B60571   4.758   1.696   6.227
 4737POPC   C2B60572   4.612   1.654   6.681
 4737POPC   C3B60573   4.801   1.803   7.080
 4737POPC   C4B60574   5.114   1.672   7.359
 4738POPC   NC360575  35.720  20.717   5.317
 4738POPC   PO460576  36.404  20.818   5.388
 4738POPC   GL160577  36.363  20.587   5.761
 4738POPC   GL260578  36.010  20.529   5.787
 4738POPC   C1A60579  36.331  20.541   6.209
 4738POPC   D2A60580  36.256  20.351   6.607
 4738POPC   C3A60581  36.379  20.578   6.983
 4738POPC   C4A60582  36.484  20.400   7.389
 4738POPC   C1B60583  35.847  20.721   6.200
 4738POPC   C2B60584  35.994  20.805   6.637
 4738POPC   C3B60585  35.884  20.733   7.080
 4738POPC   C4B60586  35.580  20.724   7.422
 4739POPC   NC360587   8.000  34.976   5.301
 4739POPC   PO460588   8.219  35.599   5.575
 4739POPC   GL160589   8.124  35.431   5.954
 4739POPC   GL260590   7.892  35.198   5.789
 4739POPC   C1A60591   8.269  35.508   6.393
 4739POPC   D2A60592   8.151  35.366   6.800
 4739POPC   C3A60593   8.414  35.463   7.171
 4739POPC   C4A60594   8.289  35.470   7.610
 4739POPC   C1B60595   7.942  34.897   6.095
 4739POPC   C2B60596   7.897  34.823   6.531
 4739POPC   C3B60597   7.901  34.866   6.972
 4739POPC   C4B60598   7.985  35.178   7.287
 4740POPC   NC360599  28.947  11.668   5.629
 4740POPC   PO460600  29.052  11.059   5.366
 4740POPC   GL160601  29.066  11.166   5.799
 4740POPC   GL260602  29.396  11.241   5.895
 4740POPC   C1A60603  29.030  11.387   6.202
 4740POPC   D2A60604  28.852  11.419   6.564
 4740POPC   C3A60605  28.897  11.097   6.841
 4740POPC   C4A60606  29.131  11.141   7.205
 4740POPC   C1B60607  29.528  11.513   6.224
 4740POPC   C2B60608  29.254  11.720   6.538
 4740POPC   C3B60609  29.148  11.642   6.965
 4740POPC   C4B60610  29.404  11.688   7.335
 4741POPC   NC360611  19.140   0.154   5.581
 4741POPC   PO460612  18.991  44.661   5.131
 4741POPC   GL160613  19.134  44.595   5.628
 4741POPC   GL260614  18.972  44.778   5.880
 4741POPC   C1A60615  19.354  44.646   6.126
 4741POPC   D2A60616  19.225  44.551   6.548
 4741POPC   C3A60617  19.387  44.783   6.878
 4741POPC   C4A60618  19.198  44.785   7.232
 4741POPC   C1B60619  18.807  44.558   6.256
 4741POPC   C2B60620  18.671  44.443   6.694
 4741POPC   C3B60621  18.778  44.545   7.100
 4741POPC   C4B60622  18.716  44.783   7.472
 4742POPC   NC360623  39.325  35.514   5.222
 4742POPC   PO460624  38.822  35.204   5.490
 4742POPC   GL160625  39.048  35.527   5.775
 4742POPC   GL260626  39.431  35.590   5.737
 4742POPC   C1A60627  39.257  35.460   6.219
 4742POPC   D2A60628  39.471  35.176   6.557
 4742POPC   C3A60629  39.208  35.028   6.905
 4742POPC   C4A60630  39.026  35.059   7.298
 4742POPC   C1B60631  39.728  35.789   6.041
 4742POPC   C2B60632  39.789  35.884   6.472
 4742POPC   C3B60633  39.626  35.617   6.799
 4742POPC   C4B60634  39.290  35.515   7.094
 4743POPC   NC360635  22.923   0.859   5.223
 4743POPC   PO460636  22.686   0.289   5.411
 4743POPC   GL160637  22.936   0.413   5.786
 4743POPC   GL260638  23.013   0.778   5.754
 4743POPC   C1A60639  22.798   0.562   6.205
 4743POPC   D2A60640  22.563   0.718   6.544
 4743POPC   C3A60641  22.759   0.490   6.862
 4743POPC   C4A60642  22.635   0.445   7.253
 4743POPC   C1B60643  23.282   0.688   6.133
 4743POPC   C2B60644  23.182   0.656   6.601
 4743POPC   C3B60645  23.156   0.745   7.089
 4743POPC   C4B60646  23.166   0.679   7.589
 4744POPC   NC360647  31.587  32.700   5.589
 4744POPC   PO460648  31.689  33.288   5.243
 4744POPC   GL160649  31.366  33.139   5.699
 4744POPC   GL260650  31.248  32.806   5.936
 4744POPC   C1A60651  31.504  33.104   6.210
 4744POPC   D2A60652  31.385  32.770   6.535
 4744POPC   C3A60653  31.639  32.821   6.917
 4744POPC   C4A60654  31.801  33.112   7.224
 4744POPC   C1B60655  30.997  33.050   6.242
 4744POPC   C2B60656  30.873  32.934   6.652
 4744POPC   C3B60657  31.124  32.796   6.992
 4744POPC   C4B60658  31.355  32.900   7.345
 4745POPC   NC360659  44.849  32.493   5.497
 4745POPC   PO460660  44.611  31.906   5.601
 4745POPC   GL160661  44.561  32.223   5.903
 4745POPC   GL260662  44.812  32.454   6.003
 4745POPC   C1A60663  44.539  32.147   6.357
 4745POPC   D2A60664  44.526  31.873   6.724
 4745POPC   C3A60665  44.661  32.118   7.027
 4745POPC   C4A60666  44.808  32.001   7.407
 4745POPC   C1B60667  44.726  32.750   6.309
 4745POPC   C2B60668  44.625  32.739   6.748
 4745POPC   C3B60669  44.574  32.598   7.163
 4745POPC   C4B60670  44.391  32.328   7.437
 4746POPC   NC360671  11.299  31.534   5.176
 4746POPC   PO460672  11.638  32.067   5.454
 4746POPC   GL160673  11.461  31.746   5.732
 4746POPC   GL260674  11.270  31.422   5.691
 4746POPC   C1A60675  11.581  31.527   6.119
 4746POPC   D2A60676  11.444  31.390   6.540
 4746POPC   C3A60677  11.616  31.587   6.922
 4746POPC   C4A60678  11.626  31.697   7.347
 4746POPC   C1B60679  11.111  31.306   6.115
 4746POPC   C2B60680  10.935  31.349   6.551
 4746POPC   C3B60681  11.084  31.382   6.997
 4746POPC   C4B60682  10.845  31.350   7.424
 4747POPC   NC360683   9.733  21.120   5.561
 4747POPC   PO460684   9.220  21.647   5.514
 4747POPC   GL160685   9.523  21.474   5.855
 4747POPC   GL260686   9.490  21.116   5.992
 4747POPC   C1A60687   9.886  21.446   6.156
 4747POPC   D2A60688  10.146  21.492   6.559
 4747POPC   C3A60689  10.017  21.211   6.923
 4747POPC   C4A60690   9.866  21.395   7.304
 4747POPC   C1B60691   9.414  21.379   6.364
 4747POPC   C2B60692   9.497  21.370   6.807
 4747POPC   C3B60693   9.383  21.485   7.216
 4747POPC   C4B60694   9.421  21.192   7.545
 4748POPC   NC360695  44.199  22.309   5.416
 4748POPC   PO460696  44.802  22.171   5.119
 4748POPC   GL160697  44.621  22.037   5.573
 4748POPC   GL260698  44.279  21.880   5.681
 4748POPC   C1A60699  44.743  22.071   6.035
 4748POPC   D2A60700  44.648  22.074   6.505
 4748POPC   C3A60701  44.803  22.087   6.943
 4748POPC   C4A60702  44.551  22.028   7.314
 4748POPC   C1B60703  44.268  21.943   6.155
 4748POPC   C2B60704  44.227  21.825   6.634
 4748POPC   C3B60705  44.183  22.144   6.981
 4748POPC   C4B60706  44.210  22.395   7.410
 4749POPC   NC360707  44.870  20.838   5.019
 4749POPC   PO460708  44.665  20.182   5.299
 4749POPC   GL160709  44.580  20.460   5.727
 4749POPC   GL260710  44.373  20.786   5.684
 4749POPC   C1A60711  44.759  20.720   6.146
 4749POPC   D2A60712  44.762  20.922   6.578
 4749POPC   C3A60713  44.933  20.745   6.974
 4749POPC   C4A60714  44.790  20.854   7.406
 4749POPC   C1B60715  44.259  20.690   6.118
 4749POPC   C2B60716  44.356  20.630   6.539
 4749POPC   C3B60717  44.432  20.808   6.964
 4749POPC   C4B60718  44.324  21.042   7.351
 4750POPC   NC360719   9.723  24.459   4.947
 4750POPC   PO460720   9.674  24.460   5.535
 4750POPC   GL160721   9.801  24.538   5.927
 4750POPC   GL260722   9.987  24.288   5.982
 4750POPC   C1A60723   9.898  24.817   6.266
 4750POPC   D2A60724   9.970  24.874   6.712
 4750POPC   C3A60725   9.757  24.597   6.956
 4750POPC   C4A60726   9.563  24.614   7.349
 4750POPC   C1B60727   9.910  24.342   6.435
 4750POPC   C2B60728  10.163  24.326   6.762
 4750POPC   C3B60729  10.217  24.120   7.155
 4750POPC   C4B60730  10.098  24.150   7.586
 4751POPC   NC360731  30.104  14.967   5.618
 4751POPC   PO460732  29.716  15.488   5.504
 4751POPC   GL160733  29.658  15.397   5.897
 4751POPC   GL260734  29.611  15.041   5.796
 4751POPC   C1A60735  29.909  15.235   6.225
 4751POPC   D2A60736  30.176  15.067   6.542
 4751POPC   C3A60737  30.061  15.267   6.916
 4751POPC   C4A60738  30.031  15.084   7.301
 4751POPC   C1B60739  29.449  14.995   6.202
 4751POPC   C2B60740  29.643  14.955   6.602
 4751POPC   C3B60741  29.592  15.071   7.024
 4751POPC   C4B60742  29.489  14.987   7.439
 4752POPC   NC360743  33.987   9.298   5.490
 4752POPC   PO460744  33.845   8.689   5.493
 4752POPC   GL160745  33.720   8.834   5.884
 4752POPC   GL260746  33.659   9.184   5.891
 4752POPC   C1A60747  33.804   8.708   6.282
 4752POPC   D2A60748  33.966   8.464   6.572
 4752POPC   C3A60749  33.739   8.605   6.902
 4752POPC   C4A60750  33.911   8.908   7.081
 4752POPC   C1B60751  34.041   9.145   6.175
 4752POPC   C2B60752  34.094   9.371   6.572
 4752POPC   C3B60753  33.956   9.407   6.998
 4752POPC   C4B60754  34.076   9.248   7.404
 4753POPC   NC360755  42.455   0.919   5.402
 4753POPC   PO460756  42.096   1.375   5.451
 4753POPC   GL160757  42.078   1.186   5.871
 4753POPC   GL260758  42.264   0.865   5.904
 4753POPC   C1A60759  42.126   1.327   6.307
 4753POPC   D2A60760  41.999   1.184   6.713
 4753POPC   C3A60761  42.228   1.308   7.042
 4753POPC   C4A60762  42.093   1.495   7.411
 4753POPC   C1B60763  42.562   1.093   6.145
 4753POPC   C2B60764  42.544   1.134   6.604
 4753POPC   C3B60765  42.369   0.822   6.881
 4753POPC   C4B60766  42.076   0.831   7.195
 4754POPC   NC360767   0.715  27.690   5.512
 4754POPC   PO460768   0.115  27.745   5.341
 4754POPC   GL160769   0.175  27.507   5.700
 4754POPC   GL260770   0.131  27.805   5.898
 4754POPC   C1A60771   0.357  27.340   6.062
 4754POPC   D2A60772   0.249  27.353   6.477
 4754POPC   C3A60773   0.482  27.579   6.790
 4754POPC   C4A60774   0.704  27.504   7.174
 4754POPC   C1B60775   0.167  27.901   6.359
 4754POPC   C2B60776   0.030  27.868   6.794
 4754POPC   C3B60777   0.239  27.798   7.201
 4754POPC   C4B60778   0.051  27.814   7.622
 4755POPC   NC360779   3.710  44.217   5.549
 4755POPC   PO460780   3.452  43.685   5.295
 4755POPC   GL160781   3.460  43.798   5.767
 4755POPC   GL260782   3.307  44.090   5.929
 4755POPC   C1A60783   3.631  43.800   6.213
 4755POPC   D2A60784   3.811  44.017   6.575
 4755POPC   C3A60785   4.007  43.741   6.882
 4755POPC   C4A60786   3.813  43.652   7.278
 4755POPC   C1B60787   3.112  43.717   6.139
 4755POPC   C2B60788   3.300  43.498   6.502
 4755POPC   C3B60789   3.443  43.666   6.892
 4755POPC   C4B60790   3.323  43.831   7.296
 4756POPC   NC360791   0.497  36.254   5.390
 4756POPC   PO460792  44.919  35.870   5.519
 4756POPC   GL160793   0.311  35.829   5.742
 4756POPC   GL260794   0.282  36.160   5.888
 4756POPC   C1A60795   0.466  35.751   6.178
 4756POPC   D2A60796   0.328  35.718   6.635
 4756POPC   C3A60797   0.634  35.912   6.907
 4756POPC   C4A60798   0.676  36.197   7.247
 4756POPC   C1B60799   0.082  36.090   6.322
 4756POPC   C2B60800   0.214  36.221   6.772
 4756POPC   C3B60801   0.178  36.195   7.230
 4756POPC   C4B60802   0.235  36.461   7.574
 4757POPC   NC360803  36.715   5.500   5.475
 4757POPC   PO460804  36.880   6.203   5.577
 4757POPC   GL160805  36.863   5.893   5.860
 4757POPC   GL260806  37.092   5.670   5.794
 4757POPC   C1A60807  36.677   5.847   6.267
 4757POPC   D2A60808  36.778   5.706   6.677
 4757POPC   C3A60809  36.789   6.008   7.020
 4757POPC   C4A60810  36.467   6.190   7.295
 4757POPC   C1B60811  37.073   5.525   6.200
 4757POPC   C2B60812  37.281   5.618   6.581
 4757POPC   C3B60813  37.166   5.606   7.033
 4757POPC   C4B60814  36.982   5.763   7.429
 4758POPC   NC360815   0.954  18.710   5.562
 4758POPC   PO460816   1.100  19.411   5.542
 4758POPC   GL160817   1.212  19.065   5.864
 4758POPC   GL260818   0.909  18.937   6.025
 4758POPC   C1A60819   1.421  18.893   6.271
 4758POPC   D2A60820   1.570  19.022   6.713
 4758POPC   C3A60821   1.337  18.995   7.105
 4758POPC   C4A60822   0.943  18.891   7.242
 4758POPC   C1B60823   0.660  19.347   6.102
 4758POPC   C2B60824   0.553  19.461   6.520
 4758POPC   C3B60825   0.855  19.333   6.834
 4758POPC   C4B60826   1.068  19.418   7.211
 4759POPC   NC360827  42.008   8.426   5.385
 4759POPC   PO460828  42.451   7.809   5.458
 4759POPC   GL160829  42.256   8.120   5.718
 4759POPC   GL260830  42.342   8.490   5.768
 4759POPC   C1A60831  42.153   8.163   6.139
 4759POPC   D2A60832  41.945   8.171   6.515
 4759POPC   C3A60833  42.219   8.041   6.852
 4759POPC   C4A60834  42.372   8.200   7.244
 4759POPC   C1B60835  42.523   8.557   6.177
 4759POPC   C2B60836  42.486   8.376   6.565
 4759POPC   C3B60837  42.665   8.506   6.957
 4759POPC   C4B60838  42.747   8.555   7.384
 4760POPC   NC360839  34.069  23.572   5.526
 4760POPC   PO460840  33.428  23.713   5.540
 4760POPC   GL160841  33.718  23.708   5.895
 4760POPC   GL260842  33.951  23.969   5.823
 4760POPC   C1A60843  33.610  23.648   6.348
 4760POPC   D2A60844  33.495  23.827   6.723
 4760POPC   C3A60845  33.709  23.632   7.050
 4760POPC   C4A60846  33.563  23.766   7.464
 4760POPC   C1B60847  34.158  23.788   6.163
 4760POPC   C2B60848  34.119  23.575   6.534
 4760POPC   C3B60849  34.269  23.719   6.913
 4760POPC   C4B60850  34.150  23.719   7.320
 4761POPC   NC360851  31.647  17.090   5.340
 4761POPC   PO460852  31.249  16.509   5.482
 4761POPC   GL160853  31.360  16.734   5.849
 4761POPC   GL260854  31.635  16.924   5.846
 4761POPC   C1A60855  31.407  16.767   6.298
 4761POPC   D2A60856  31.273  16.849   6.722
 4761POPC   C3A60857  31.405  16.626   7.069
 4761POPC   C4A60858  31.769  16.437   7.290
 4761POPC   C1B60859  31.888  17.014   6.219
 4761POPC   C2B60860  31.775  16.955   6.621
 4761POPC   C3B60861  31.863  16.823   6.990
 4761POPC   C4B60862  32.122  16.902   7.297
 4762POPC   NC360863  17.519   4.611   5.438
 4762POPC   PO460864  17.567   3.949   5.480
 4762POPC   GL160865  17.514   4.251   5.817
 4762POPC   GL260866  17.203   4.464   5.857
 4762POPC   C1A60867  17.603   4.269   6.240
 4762POPC   D2A60868  17.423   4.100   6.614
 4762POPC   C3A60869  17.642   4.240   6.989
 4762POPC   C4A60870  17.454   4.303   7.375
 4762POPC   C1B60871  17.279   4.675   6.269
 4762POPC   C2B60872  17.493   4.624   6.643
 4762POPC   C3B60873  17.344   4.668   7.046
 4762POPC   C4B60874  17.319   4.983   7.330
 4763POPC   NC360875   7.772  17.902   5.425
 4763POPC   PO460876   7.476  17.203   5.513
 4763POPC   GL160877   7.556  17.381   5.877
 4763POPC   GL260878   7.486  17.735   5.824
 4763POPC   C1A60879   7.358  17.468   6.267
 4763POPC   D2A60880   7.205  17.373   6.650
 4763POPC   C3A60881   7.389  17.405   7.057
 4763POPC   C4A60882   7.115  17.359   7.401
 4763POPC   C1B60883   7.263  17.949   6.158
 4763POPC   C2B60884   7.466  17.900   6.567
 4763POPC   C3B60885   7.275  17.907   6.972
 4763POPC   C4B60886   7.359  17.832   7.388
 4764POPC   NC360887  24.731  20.676   5.683
 4764POPC   PO460888  24.196  20.959   5.411
 4764POPC   GL160889  24.212  20.738   5.849
 4764POPC   GL260890  24.371  20.384   5.915
 4764POPC   C1A60891  24.264  20.678   6.330
 4764POPC   D2A60892  24.370  20.848   6.742
 4764POPC   C3A60893  24.725  21.030   6.858
 4764POPC   C4A60894  24.841  20.874   7.232
 4764POPC   C1B60895  24.751  20.318   6.226
 4764POPC   C2B60896  24.813  20.499   6.607
 4764POPC   C3B60897  24.492  20.357   6.841
 4764POPC   C4B60898  24.532  20.391   7.244
 4765POPC   NC360899  17.652   0.278   5.056
 4765POPC   PO460900  17.936   0.645   5.480
 4765POPC   GL160901  17.598   0.610   5.805
 4765POPC   GL260902  17.327   0.323   5.741
 4765POPC   C1A60903  17.615   0.519   6.258
 4765POPC   D2A60904  17.682   0.619   6.718
 4765POPC   C3A60905  17.561   0.271   7.032
 4765POPC   C4A60906  17.601   0.219   7.523
 4765POPC   C1B60907  17.099   0.403   6.129
 4765POPC   C2B60908  17.227   0.374   6.555
 4765POPC   C3B60909  17.080   0.388   6.951
 4765POPC   C4B60910  17.137   0.174   7.341
 4766POPC   NC360911  35.293   1.544   5.104
 4766POPC   PO460912  35.537   1.047   5.515
 4766POPC   GL160913  35.519   1.043   5.964
 4766POPC   GL260914  35.822   0.919   6.051
 4766POPC   C1A60915  35.509   1.241   6.389
 4766POPC   D2A60916  35.392   1.590   6.690
 4766POPC   C3A60917  35.283   1.379   7.064
 4766POPC   C4A60918  35.369   1.468   7.523
 4766POPC   C1B60919  35.666   0.689   6.380
 4766POPC   C2B60920  35.564   0.872   6.768
 4766POPC   C3B60921  35.726   1.144   7.087
 4766POPC   C4B60922  35.703   1.102   7.524
 4767POPC   NC360923  18.761  22.122   5.480
 4767POPC   PO460924  19.362  22.464   5.368
 4767POPC   GL160925  19.146  22.319   5.756
 4767POPC   GL260926  19.102  21.982   5.830
 4767POPC   C1A60927  19.175  22.301   6.217
 4767POPC   D2A60928  19.169  22.520   6.594
 4767POPC   C3A60929  19.191  22.249   6.954
 4767POPC   C4A60930  19.103  22.464   7.312
 4767POPC   C1B60931  18.960  21.825   6.232
 4767POPC   C2B60932  19.192  21.801   6.626
 4767POPC   C3B60933  19.110  21.745   7.054
 4767POPC   C4B60934  18.990  21.977   7.430
 4768POPC   NC360935   8.207  38.595   5.378
 4768POPC   PO460936   7.584  38.396   5.566
 4768POPC   GL160937   7.900  38.345   5.924
 4768POPC   GL260938   8.257  38.364   5.850
 4768POPC   C1A60939   8.117  38.269   6.342
 4768POPC   D2A60940   8.466  38.295   6.626
 4768POPC   C3A60941   8.190  38.451   6.930
 4768POPC   C4A60942   8.064  38.173   7.239
 4768POPC   C1B60943   8.508  38.568   6.200
 4768POPC   C2B60944   8.478  38.806   6.614
 4768POPC   C3B60945   8.654  38.675   7.005
 4768POPC   C4B60946   8.448  38.461   7.371
 4769POPC   NC360947  36.654  41.362   5.413
 4769POPC   PO460948  37.154  41.749   5.125
 4769POPC   GL160949  37.047  41.568   5.619
 4769POPC   GL260950  36.731  41.745   5.773
 4769POPC   C1A60951  37.070  41.308   6.043
 4769POPC   D2A60952  37.072  41.074   6.480
 4769POPC   C3A60953  36.982  41.325   6.871
 4769POPC   C4A60954  37.088  41.641   7.233
 4769POPC   C1B60955  36.502  41.695   6.184
 4769POPC   C2B60956  36.631  41.609   6.614
 4769POPC   C3B60957  36.656  41.799   7.026
 4769POPC   C4B60958  36.616  41.806   7.493
 4770POPC   NC360959  18.540  18.010   5.370
 4770POPC   PO460960  18.078  18.477   5.285
 4770POPC   GL160961  18.120  18.335   5.734
 4770POPC   GL260962  18.270  17.999   5.797
 4770POPC   C1A60963  17.935  18.151   6.135
 4770POPC   D2A60964  18.151  17.961   6.492
 4770POPC   C3A60965  18.125  18.200   6.864
 4770POPC   C4A60966  18.244  18.205   7.296
 4770POPC   C1B60967  18.485  18.143   6.143
 4770POPC   C2B60968  18.689  17.928   6.488
 4770POPC   C3B60969  18.744  18.070   6.881
 4770POPC   C4B60970  18.712  17.969   7.266
 4771POPC   NC360971  17.217  42.614   5.538
 4771POPC   PO460972  16.607  42.271   5.488
 4771POPC   GL160973  16.707  42.248   5.898
 4771POPC   GL260974  17.047  42.220   5.861
 4771POPC   C1A60975  16.575  42.424   6.295
 4771POPC   D2A60976  16.657  42.705   6.649
 4771POPC   C3A60977  16.631  42.516   7.051
 4771POPC   C4A60978  16.713  42.066   7.126
 4771POPC   C1B60979  17.032  42.168   6.291
 4771POPC   C2B60980  16.937  42.265   6.719
 4771POPC   C3B60981  17.207  42.097   7.082
 4771POPC   C4B60982  17.208  41.907   7.522
 4772POPC   NC360983  39.286  17.845   5.390
 4772POPC   PO460984  39.099  18.475   5.475
 4772POPC   GL160985  39.337  18.267   5.766
 4772POPC   GL260986  39.079  18.027   5.830
 4772POPC   C1A60987  39.481  18.149   6.187
 4772POPC   D2A60988  39.274  18.196   6.615
 4772POPC   C3A60989  39.467  18.282   7.042
 4772POPC   C4A60990  39.440  18.082   7.475
 4772POPC   C1B60991  39.008  18.314   6.187
 4772POPC   C2B60992  38.876  18.562   6.566
 4772POPC   C3B60993  38.934  18.343   6.962
 4772POPC   C4B60994  39.076  18.410   7.379
 4773POPC   NC360995  21.812  25.847   5.707
 4773POPC   PO460996  21.298  25.822   5.252
 4773POPC   GL160997  21.261  25.734   5.777
 4773POPC   GL260998  21.509  25.921   6.089
 4773POPC   C1A60999  21.027  25.859   6.144
 4773POPC   D2A61000  21.190  26.027   6.516
 4773POPC   C3A61001  21.142  25.850   6.910
 4773POPC   C4A61002  21.093  26.220   7.171
 4773POPC   C1B61003  21.554  26.313   6.323
 4773POPC   C2B61004  21.573  26.265   6.779
 4773POPC   C3B61005  21.573  26.005   7.134
 4773POPC   C4B61006  21.677  25.568   7.145
 4774POPC   NC361007  36.325  32.009   5.334
 4774POPC   PO461008  35.671  32.062   5.017
 4774POPC   GL161009  35.858  32.245   5.514
 4774POPC   GL261010  36.178  32.254   5.739
 4774POPC   C1A61011  35.788  32.117   6.011
 4774POPC   D2A61012  35.857  32.022   6.475
 4774POPC   C3A61013  35.993  32.329   6.833
 4774POPC   C4A61014  36.138  32.403   7.257
 4774POPC   C1B61015  36.316  32.090   6.176
 4774POPC   C2B61016  36.377  32.022   6.653
 4774POPC   C3B61017  36.145  31.851   7.049
 4774POPC   C4B61018  36.255  31.598   7.427
 4775POPC   NC361019  33.765  28.945   5.264
 4775POPC   PO461020  33.539  29.533   5.279
 4775POPC   GL161021  33.626  29.233   5.675
 4775POPC   GL261022  33.458  28.906   5.747
 4775POPC   C1A61023  33.889  28.978   6.005
 4775POPC   D2A61024  34.136  29.046   6.389
 4775POPC   C3A61025  33.907  29.014   6.799
 4775POPC   C4A61026  33.962  28.922   7.241
 4775POPC   C1B61027  33.381  28.817   6.224
 4775POPC   C2B61028  33.456  28.792   6.697
 4775POPC   C3B61029  33.466  29.051   7.088
 4775POPC   C4B61030  33.407  28.975   7.543
 4776POPC   NC361031  25.945  23.300   5.771
 4776POPC   PO461032  26.260  23.844   5.467
 4776POPC   GL161033  26.084  23.852   5.894
 4776POPC   GL261034  25.747  23.742   5.910
 4776POPC   C1A61035  26.081  23.745   6.347
 4776POPC   D2A61036  26.186  23.394   6.623
 4776POPC   C3A61037  26.019  23.546   7.005
 4776POPC   C4A61038  25.978  23.991   7.139
 4776POPC   C1B61039  25.572  23.725   6.295
 4776POPC   C2B61040  25.701  23.886   6.689
 4776POPC   C3B61041  25.535  23.721   7.044
 4776POPC   C4B61042  25.698  23.643   7.399
 4777POPC   NC361043  32.903  22.421   5.442
 4777POPC   PO461044  32.752  21.824   5.672
 4777POPC   GL161045  33.006  22.137   5.887
 4777POPC   GL261046  32.755  22.400   5.941
 4777POPC   C1A61047  33.255  22.184   6.283
 4777POPC   D2A61048  33.147  22.370   6.666
 4777POPC   C3A61049  33.041  22.076   6.923
 4777POPC   C4A61050  33.159  21.959   7.310
 4777POPC   C1B61051  32.737  22.283   6.361
 4777POPC   C2B61052  32.639  22.435   6.759
 4777POPC   C3B61053  32.612  22.294   7.167
 4777POPC   C4B61054  32.641  21.874   7.172
 4778POPC   NC361055  31.203  33.772   5.386
 4778POPC   PO461056  31.659  33.538   5.755
 4778POPC   GL161057  31.268  33.641   5.889
 4778POPC   GL261058  31.265  34.007   5.828
 4778POPC   C1A61059  31.198  33.534   6.306
 4778POPC   D2A61060  30.925  33.456   6.609
 4778POPC   C3A61061  31.163  33.315   6.937
 4778POPC   C4A61062  31.428  33.460   7.274
 4778POPC   C1B61063  31.448  34.000   6.241
 4778POPC   C2B61064  31.461  33.912   6.688
 4778POPC   C3B61065  31.570  33.934   7.129
 4778POPC   C4B61066  31.501  33.934   7.572
 4779POPC   NC361067  13.489  17.240   5.340
 4779POPC   PO461068  13.557  17.882   5.259
 4779POPC   GL161069  13.429  17.586   5.697
 4779POPC   GL261070  13.711  17.402   5.782
 4779POPC   C1A61071  13.352  17.492   6.175
 4779POPC   D2A61072  13.505  17.357   6.625
 4779POPC   C3A61073  13.565  17.555   7.047
 4779POPC   C4A61074  13.434  17.556   7.461
 4779POPC   C1B61075  13.849  17.363   6.191
 4779POPC   C2B61076  13.966  17.534   6.556
 4779POPC   C3B61077  13.984  17.300   6.925
 4779POPC   C4B61078  13.814  17.236   7.343
 4780POPC   NC361079  12.571   2.520   5.298
 4780POPC   PO461080  13.055   2.992   5.363
 4780POPC   GL161081  12.948   2.757   5.738
 4780POPC   GL261082  12.737   2.990   5.861
 4780POPC   C1A61083  12.943   2.604   6.200
 4780POPC   D2A61084  13.023   2.661   6.670
 4780POPC   C3A61085  12.694   2.459   6.940
 4780POPC   C4A61086  12.590   2.355   7.395
 4780POPC   C1B61087  13.065   3.121   6.165
 4780POPC   C2B61088  13.249   3.190   6.582
 4780POPC   C3B61089  13.169   3.164   7.019
 4780POPC   C4B61090  12.894   2.849   7.202
 4781POPC   NC361091  29.421  22.468   5.436
 4781POPC   PO461092  29.043  21.944   5.321
 4781POPC   GL161093  28.975  22.028   5.723
 4781POPC   GL261094  29.043  22.361   5.800
 4781POPC   C1A61095  28.933  21.922   6.147
 4781POPC   D2A61096  28.859  22.089   6.551
 4781POPC   C3A61097  29.181  22.277   6.769
 4781POPC   C4A61098  29.226  22.274   7.200
 4781POPC   C1B61099  29.014  22.532   6.221
 4781POPC   C2B61100  28.828  22.647   6.614
 4781POPC   C3B61101  28.746  22.474   7.052
 4781POPC   C4B61102  28.824  22.336   7.522
 4782POPC   NC361103  16.715   2.420   5.442
 4782POPC   PO461104  17.048   3.010   5.357
 4782POPC   GL161105  16.844   2.840   5.736
 4782POPC   GL261106  17.001   2.545   5.849
 4782POPC   C1A61107  16.659   2.825   6.161
 4782POPC   D2A61108  16.463   2.783   6.554
 4782POPC   C3A61109  16.647   2.845   6.949
 4782POPC   C4A61110  16.802   3.087   7.332
 4782POPC   C1B61111  16.961   2.317   6.187
 4782POPC   C2B61112  16.782   2.259   6.572
 4782POPC   C3B61113  16.969   2.384   6.928
 4782POPC   C4B61114  16.892   2.570   7.293
 4783POPC   NC361115  37.931  33.258   5.409
 4783POPC   PO461116  37.299  33.088   5.416
 4783POPC   GL161117  37.613  33.074   5.784
 4783POPC   GL261118  37.781  33.364   5.900
 4783POPC   C1A61119  37.785  32.928   6.216
 4783POPC   D2A61120  37.661  32.671   6.571
 4783POPC   C3A61121  37.613  32.819   6.980
 4783POPC   C4A61122  37.357  32.723   7.310
 4783POPC   C1B61123  37.777  33.448   6.346
 4783POPC   C2B61124  37.884  33.193   6.723
 4783POPC   C3B61125  37.969  33.139   7.191
 4783POPC   C4B61126  37.866  33.132   7.658
 4784POPC   NC361127   2.731  16.137   5.365
 4784POPC   PO461128   2.898  15.545   5.543
 4784POPC   GL161129   2.912  15.832   5.861
 4784POPC   GL261130   2.606  15.776   5.911
 4784POPC   C1A61131   2.907  15.731   6.320
 4784POPC   D2A61132   2.942  15.793   6.769
 4784POPC   C3A61133   2.942  16.232   6.908
 4784POPC   C4A61134   3.088  16.394   7.317
 4784POPC   C1B61135   2.389  15.721   6.270
 4784POPC   C2B61136   2.444  15.938   6.649
 4784POPC   C3B61137   2.527  15.959   7.091
 4784POPC   C4B61138   2.520  15.936   7.554
 4785POPC   NC361139   8.612  15.174   5.106
 4785POPC   PO461140   9.188  15.123   5.476
 4785POPC   GL161141   8.994  14.995   5.860
 4785POPC   GL261142   9.050  15.314   6.027
 4785POPC   C1A61143   8.707  14.997   6.231
 4785POPC   D2A61144   8.463  15.284   6.484
 4785POPC   C3A61145   8.524  15.240   6.941
 4785POPC   C4A61146   8.440  15.549   7.239
 4785POPC   C1B61147   9.174  15.094   6.419
 4785POPC   C2B61148   8.975  14.994   6.821
 4785POPC   C3B61149   9.164  14.986   7.220
 4785POPC   C4B61150   9.366  14.964   7.622
 4786POPC   NC361151  37.761  39.015   5.541
 4786POPC   PO461152  37.871  38.345   5.405
 4786POPC   GL161153  37.588  38.295   5.739
 4786POPC   GL261154  37.686  38.620   5.876
 4786POPC   C1A61155  37.617  38.156   6.169
 4786POPC   D2A61156  37.834  38.322   6.520
 4786POPC   C3A61157  37.673  38.167   6.892
 4786POPC   C4A61158  37.921  38.206   7.239
 4786POPC   C1B61159  37.606  38.932   6.200
 4786POPC   C2B61160  37.578  38.779   6.605
 4786POPC   C3B61161  37.670  38.751   7.011
 4786POPC   C4B61162  37.379  38.909   7.291
 4787POPC   NC361163  23.587  42.757   5.199
 4787POPC   PO461164  23.403  42.157   5.490
 4787POPC   GL161165  23.478  42.187   5.907
 4787POPC   GL261166  23.827  42.217   5.879
 4787POPC   C1A61167  23.604  42.228   6.356
 4787POPC   D2A61168  23.940  42.118   6.662
 4787POPC   C3A61169  23.772  42.059   7.090
 4787POPC   C4A61170  23.576  42.348   7.380
 4787POPC   C1B61171  23.977  42.565   6.149
 4787POPC   C2B61172  23.958  42.710   6.526
 4787POPC   C3B61173  23.832  42.568   6.930
 4787POPC   C4B61174  24.048  42.458   7.290
 4788POPC   NC361175   8.238  37.599   5.294
 4788POPC   PO461176   8.550  38.263   5.343
 4788POPC   GL161177   8.411  37.922   5.652
 4788POPC   GL261178   8.039  37.865   5.714
 4788POPC   C1A61179   8.407  37.917   6.094
 4788POPC   D2A61180   8.286  37.662   6.446
 4788POPC   C3A61181   8.272  37.871   6.842
 4788POPC   C4A61182   8.370  37.743   7.253
 4788POPC   C1B61183   7.888  37.853   6.165
 4788POPC   C2B61184   7.789  37.754   6.629
 4788POPC   C3B61185   7.832  37.723   7.101
 4788POPC   C4B61186   7.810  37.863   7.547
 4789POPC   NC361187  28.469  20.038   5.411
 4789POPC   PO461188  28.122  19.415   5.355
 4789POPC   GL161189  28.189  19.686   5.812
 4789POPC   GL261190  28.322  20.044   5.876
 4789POPC   C1A61191  28.247  19.835   6.316
 4789POPC   D2A61192  28.548  19.777   6.689
 4789POPC   C3A61193  28.471  19.713   7.132
 4789POPC   C4A61194  28.250  19.513   7.474
 4789POPC   C1B61195  28.480  20.379   6.115
 4789POPC   C2B61196  28.454  20.298   6.538
 4789POPC   C3B61197  28.583  20.241   6.931
 4789POPC   C4B61198  28.360  20.181   7.267
 4790POPC   NC361199   0.652  15.634   5.444
 4790POPC   PO461200   0.199  15.142   5.424
 4790POPC   GL161201   0.436  15.236   5.777
 4790POPC   GL261202   0.260  15.562   5.828
 4790POPC   C1A61203   0.586  14.961   6.151
 4790POPC   D2A61204   0.394  14.758   6.538
 4790POPC   C3A61205   0.525  14.924   6.949
 4790POPC   C4A61206   0.676  14.946   7.354
 4790POPC   C1B61207   0.501  15.469   6.223
 4790POPC   C2B61208   0.636  15.252   6.592
 4790POPC   C3B61209   0.632  15.434   7.021
 4790POPC   C4B61210   0.508  15.592   7.419
 4791POPC   NC361211  30.504  43.755   5.029
 4791POPC   PO461212  30.634  44.312   5.432
 4791POPC   GL161213  30.675  44.040   5.778
 4791POPC   GL261214  30.784  43.699   5.668
 4791POPC   C1A61215  30.657  44.022   6.232
 4791POPC   D2A61216  30.580  44.180   6.643
 4791POPC   C3A61217  30.396  43.875   6.903
 4791POPC   C4A61218  30.585  43.766   7.276
 4791POPC   C1B61219  31.001  43.520   6.032
 4791POPC   C2B61220  31.063  43.665   6.446
 4791POPC   C3B61221  30.899  43.765   6.830
 4791POPC   C4B61222  31.024  43.505   7.184
 4792POPC   NC361223  30.612  10.026   5.454
 4792POPC   PO461224  30.969   9.539   5.585
 4792POPC   GL161225  30.797   9.790   5.872
 4792POPC   GL261226  30.434   9.716   5.851
 4792POPC   C1A61227  30.966   9.907   6.238
 4792POPC   D2A61228  31.051   9.642   6.563
 4792POPC   C3A61229  31.136   9.809   6.967
 4792POPC   C4A61230  30.804   9.764   7.295
 4792POPC   C1B61231  30.547   9.599   6.281
 4792POPC   C2B61232  30.560   9.668   6.710
 4792POPC   C3B61233  30.352   9.810   7.042
 4792POPC   C4B61234  30.265   9.869   7.489
 4793POPC   NC361235  38.512  39.668   5.443
 4793POPC   PO461236  38.364  40.298   5.435
 4793POPC   GL161237  38.496  40.072   5.809
 4793POPC   GL261238  38.287  39.767   5.894
 4793POPC   C1A61239  38.611  40.030   6.251
 4793POPC   D2A61240  38.404  40.226   6.648
 4793POPC   C3A61241  38.669  40.219   6.983
 4793POPC   C4A61242  38.742  39.852   7.203
 4793POPC   C1B61243  38.172  39.788   6.331
 4793POPC   C2B61244  38.208  39.721   6.789
 4793POPC   C3B61245  38.227  39.978   7.158
 4793POPC   C4B61246  38.032  40.122   7.536
 4794POPC   NC361247   8.894  32.274   5.407
 4794POPC   PO461248   9.479  32.018   5.304
 4794POPC   GL161249   9.279  32.239   5.731
 4794POPC   GL261250   8.979  32.077   5.846
 4794POPC   C1A61251   9.123  32.389   6.183
 4794POPC   D2A61252   8.861  32.313   6.526
 4794POPC   C3A61253   9.047  32.255   6.944
 4794POPC   C4A61254   9.158  32.473   7.342
 4794POPC   C1B61255   8.668  31.998   6.148
 4794POPC   C2B61256   8.695  31.804   6.532
 4794POPC   C3B61257   8.542  31.904   6.915
 4794POPC   C4B61258   8.708  31.976   7.345
 4795POPC   NC361259  26.288  19.074   5.289
 4795POPC   PO461260  25.695  19.352   5.317
 4795POPC   GL161261  25.823  19.153   5.675
 4795POPC   GL261262  26.136  19.308   5.727
 4795POPC   C1A61263  25.969  18.928   6.039
 4795POPC   D2A61264  25.795  18.924   6.440
 4795POPC   C3A61265  25.995  18.989   6.820
 4795POPC   C4A61266  26.144  18.774   7.182
 4795POPC   C1B61267  26.345  19.323   6.134
 4795POPC   C2B61268  26.404  19.393   6.567
 4795POPC   C3B61269  26.445  19.202   6.974
 4795POPC   C4B61270  26.326  19.440   7.332
 4796POPC   NC361271  43.032  31.265   5.154
 4796POPC   PO461272  43.176  31.763   5.501
 4796POPC   GL161273  43.268  31.433   5.789
 4796POPC   GL261274  43.608  31.494   5.884
 4796POPC   C1A61275  43.252  31.412   6.231
 4796POPC   D2A61276  43.050  31.209   6.524
 4796POPC   C3A61277  43.126  31.416   6.893
 4796POPC   C4A61278  42.912  31.653   7.173
 4796POPC   C1B61279  43.601  31.806   6.218
 4796POPC   C2B61280  43.366  31.817   6.603
 4796POPC   C3B61281  43.546  31.703   6.990
 4796POPC   C4B61282  43.624  31.682   7.406
 4797POPC   NC361283  20.395  42.443   5.239
 4797POPC   PO461284  20.636  41.881   5.472
 4797POPC   GL161285  20.677  42.323   5.691
 4797POPC   GL261286  20.382  42.250   5.810
 4797POPC   C1A61287  20.651  42.501   6.178
 4797POPC   D2A61288  20.944  42.438   6.538
 4797POPC   C3A61289  20.779  42.286   6.934
 4797POPC   C4A61290  20.719  42.388   7.336
 4797POPC   C1B61291  20.672  42.014   6.108
 4797POPC   C2B61292  20.650  42.005   6.528
 4797POPC   C3B61293  20.386  41.898   6.886
 4797POPC   C4B61294  20.448  41.938   7.313
 4798POPC   NC361295  11.593  19.325   5.312
 4798POPC   PO461296  11.119  18.852   5.505
 4798POPC   GL161297  11.417  19.096   5.732
 4798POPC   GL261298  11.414  19.499   5.751
 4798POPC   C1A61299  11.383  19.022   6.155
 4798POPC   D2A61300  11.495  18.858   6.530
 4798POPC   C3A61301  11.189  18.929   6.816
 4798POPC   C4A61302  11.175  18.903   7.237
 4798POPC   C1B61303  11.630  19.487   6.149
 4798POPC   C2B61304  11.475  19.379   6.561
 4798POPC   C3B61305  11.612  19.231   6.945
 4798POPC   C4B61306  11.475  19.350   7.355
 4799POPC   NC361307  35.188  37.350   5.359
 4799POPC   PO461308  35.641  37.780   5.383
 4799POPC   GL161309  35.440  37.750   5.831
 4799POPC   GL261310  35.180  37.521   5.870
 4799POPC   C1A61311  35.269  38.017   6.195
 4799POPC   D2A61312  35.074  37.972   6.627
 4799POPC   C3A61313  35.298  38.006   7.008
 4799POPC   C4A61314  35.418  37.854   7.425
 4799POPC   C1B61315  35.100  37.563   6.306
 4799POPC   C2B61316  35.286  37.414   6.663
 4799POPC   C3B61317  35.217  37.509   7.051
 4799POPC   C4B61318  34.949  37.607   7.324
 4800POPC   NC361319  36.791  43.034   5.582
 4800POPC   PO461320  36.142  43.287   5.431
 4800POPC   GL161321  36.327  43.151   5.809
 4800POPC   GL261322  36.556  43.418   5.830
 4800POPC   C1A61323  36.214  42.984   6.211
 4800POPC   D2A61324  35.944  43.065   6.567
 4800POPC   C3A61325  36.116  43.009   6.951
 4800POPC   C4A61326  36.001  42.815   7.254
 4800POPC   C1B61327  36.574  43.385   6.264
 4800POPC   C2B61328  36.477  43.185   6.635
 4800POPC   C3B61329  36.485  43.320   7.072
 4800POPC   C4B61330  36.729  43.629   7.254
 4801POPC   NC361331   2.885  19.605   5.187
 4801POPC   PO461332   2.606  20.167   5.382
 4801POPC   GL161333   2.793  19.842   5.658
 4801POPC   GL261334   2.547  19.611   5.721
 4801POPC   C1A61335   2.902  19.724   6.113
 4801POPC   D2A61336   2.732  19.893   6.516
 4801POPC   C3A61337   2.905  19.882   6.928
 4801POPC   C4A61338   2.729  20.106   7.315
 4801POPC   C1B61339   2.386  19.829   6.099
 4801POPC   C2B61340   2.268  19.693   6.510
 4801POPC   C3B61341   2.468  19.509   6.838
 4801POPC   C4B61342   2.614  19.613   7.249
 4802POPC   NC361343  33.235   3.363   5.537
 4802POPC   PO461344  32.837   3.907   5.437
 4802POPC   GL161345  32.945   3.671   5.833
 4802POPC   GL261346  32.809   3.316   5.910
 4802POPC   C1A61347  33.045   3.671   6.273
 4802POPC   D2A61348  33.045   3.457   6.648
 4802POPC   C3A61349  33.262   3.489   7.005
 4802POPC   C4A61350  32.876   3.606   7.211
 4802POPC   C1B61351  33.119   3.152   6.230
 4802POPC   C2B61352  33.138   2.967   6.630
 4802POPC   C3B61353  32.982   3.053   7.026
 4802POPC   C4B61354  32.618   3.122   7.256
 4803POPC   NC361355  40.751   4.431   5.450
 4803POPC   PO461356  41.434   4.630   5.299
 4803POPC   GL161357  41.149   4.492   5.719
 4803POPC   GL261358  41.119   4.152   5.808
 4803POPC   C1A61359  41.063   4.558   6.200
 4803POPC   D2A61360  40.878   4.361   6.584
 4803POPC   C3A61361  40.878   4.470   7.024
 4803POPC   C4A61362  41.032   4.353   7.424
 4803POPC   C1B61363  40.747   4.130   6.116
 4803POPC   C2B61364  40.632   3.928   6.537
 4803POPC   C3B61365  40.468   4.182   6.906
 4803POPC   C4B61366  40.563   4.132   7.337
 4804POPC   NC361367  40.773  42.138   5.075
 4804POPC   PO461368  40.543  42.680   5.467
 4804POPC   GL161369  40.559  42.271   5.735
 4804POPC   GL261370  40.865  42.065   5.745
 4804POPC   C1A61371  40.612  42.105   6.171
 4804POPC   D2A61372  40.699  42.297   6.557
 4804POPC   C3A61373  40.658  42.126   6.937
 4804POPC   C4A61374  40.727  42.335   7.349
 4804POPC   C1B61375  41.088  42.247   6.164
 4804POPC   C2B61376  41.231  42.250   6.585
 4804POPC   C3B61377  41.105  42.385   6.976
 4804POPC   C4B61378  41.163  42.114   7.346
 4805POPC   NC361379  24.465  11.413   5.593
 4805POPC   PO461380  24.391  10.825   5.221
 4805POPC   GL161381  24.434  10.853   5.770
 4805POPC   GL261382  24.157  10.992   6.018
 4805POPC   C1A61383  24.604  10.968   6.250
 4805POPC   D2A61384  24.456  11.128   6.683
 4805POPC   C3A61385  24.729  11.095   7.050
 4805POPC   C4A61386  25.034  11.055   7.396
 4805POPC   C1B61387  24.284  11.409   6.255
 4805POPC   C2B61388  24.513  11.628   6.618
 4805POPC   C3B61389  24.386  11.524   7.042
 4805POPC   C4B61390  24.169  11.133   7.157
 4806POPC   NC361391  11.888  22.197   5.345
 4806POPC   PO461392  12.442  22.240   5.709
 4806POPC   GL161393  12.108  22.141   5.917
 4806POPC   GL261394  12.028  21.851   5.741
 4806POPC   C1A61395  12.133  22.216   6.345
 4806POPC   D2A61396  11.907  22.370   6.666
 4806POPC   C3A61397  12.086  22.239   7.026
 4806POPC   C4A61398  12.090  22.343   7.445
 4806POPC   C1B61399  11.820  21.820   6.168
 4806POPC   C2B61400  11.990  21.801   6.597
 4806POPC   C3B61401  12.074  21.701   7.026
 4806POPC   C4B61402  12.045  21.680   7.467
 4807POPC   NC361403  36.709  44.887   5.404
 4807POPC   PO461404  36.978  44.296   5.448
 4807POPC   GL161405  36.901  44.563   5.809
 4807POPC   GL261406  37.147  44.850   5.845
 4807POPC   C1A61407  36.940  44.381   6.219
 4807POPC   D2A61408  37.137  44.362   6.611
 4807POPC   C3A61409  36.833  44.541   6.861
 4807POPC   C4A61410  36.825  44.511   7.309
 4807POPC   C1B61411  36.932  44.910   6.268
 4807POPC   C2B61412  36.905   0.117   6.704
 4807POPC   C3B61413  37.017  44.951   7.113
 4807POPC   C4B61414  37.338  44.946   7.444
 4808POPC   NC361415  17.090   1.791   5.517
 4808POPC   PO461416  16.555   1.997   5.312
 4808POPC   GL161417  16.687   2.021   5.765
 4808POPC   GL261418  16.357   2.110   5.803
 4808POPC   C1A61419  16.674   1.868   6.224
 4808POPC   D2A61420  16.469   1.849   6.662
 4808POPC   C3A61421  16.719   1.931   7.053
 4808POPC   C4A61422  16.669   1.813   7.529
 4808POPC   C1B61423  16.441   2.349   6.147
 4808POPC   C2B61424  16.274   2.320   6.541
 4808POPC   C3B61425  16.441   2.386   6.959
 4808POPC   C4B61426  16.488   2.252   7.375
 4809POPC   NC361427  40.499  12.500   5.425
 4809POPC   PO461428  41.112  12.633   5.659
 4809POPC   GL161429  40.763  12.571   5.928
 4809POPC   GL261430  40.481  12.774   5.904
 4809POPC   C1A61431  40.771  12.714   6.366
 4809POPC   D2A61432  41.105  12.956   6.601
 4809POPC   C3A61433  40.951  12.981   7.018
 4809POPC   C4A61434  40.642  12.690   7.186
 4809POPC   C1B61435  40.524  13.148   6.164
 4809POPC   C2B61436  40.654  13.197   6.593
 4809POPC   C3B61437  40.449  13.136   6.988
 4809POPC   C4B61438  40.373  13.425   7.317
 4810POPC   NC361439  19.577  10.099   5.389
 4810POPC   PO461440  19.975   9.476   5.256
 4810POPC   GL161441  20.040   9.692   5.718
 4810POPC   GL261442  19.708   9.828   5.811
 4810POPC   C1A61443  20.040   9.837   6.192
 4810POPC   D2A61444  19.741   9.720   6.541
 4810POPC   C3A61445  19.855   9.812   6.985
 4810POPC   C4A61446  19.682   9.648   7.354
 4810POPC   C1B61447  19.426  10.081   6.078
 4810POPC   C2B61448  19.434  10.215   6.517
 4810POPC   C3B61449  19.361   9.956   6.884
 4810POPC   C4B61450  19.408  10.053   7.297
 4811POPC   NC361451  25.073  12.199   5.484
 4811POPC   PO461452  25.633  11.769   5.411
 4811POPC   GL161453  25.342  11.784   5.726
 4811POPC   GL261454  25.405  12.135   5.868
 4811POPC   C1A61455  25.097  11.798   6.107
 4811POPC   D2A61456  25.197  12.053   6.473
 4811POPC   C3A61457  25.100  11.907   6.887
 4811POPC   C4A61458  25.424  11.916   7.182
 4811POPC   C1B61459  25.155  12.454   6.123
 4811POPC   C2B61460  25.234  12.606   6.536
 4811POPC   C3B61461  25.401  12.372   6.877
 4811POPC   C4B61462  25.122  12.319   7.183
 4812POPC   NC361463  19.990  13.240   5.586
 4812POPC   PO461464  19.684  13.890   5.428
 4812POPC   GL161465  19.697  13.658   5.786
 4812POPC   GL261466  19.470  13.377   5.742
 4812POPC   C1A61467  19.878  13.810   6.158
 4812POPC   D2A61468  19.756  14.013   6.529
 4812POPC   C3A61469  19.877  13.818   6.929
 4812POPC   C4A61470  19.996  13.476   7.231
 4812POPC   C1B61471  19.636  13.287   6.153
 4812POPC   C2B61472  19.702  13.508   6.547
 4812POPC   C3B61473  19.553  13.419   6.961
 4812POPC   C4B61474  19.537  13.233   7.340
 4813POPC   NC361475  37.102  36.317   5.300
 4813POPC   PO461476  36.711  36.337   5.746
 4813POPC   GL161477  37.086  36.224   5.937
 4813POPC   GL261478  37.205  35.937   5.723
 4813POPC   C1A61479  37.127  36.216   6.412
 4813POPC   D2A61480  36.741  36.197   6.682
 4813POPC   C3A61481  36.763  36.323   7.106
 4813POPC   C4A61482  37.137  36.213   7.256
 4813POPC   C1B61483  37.109  35.756   6.158
 4813POPC   C2B61484  37.133  35.734   6.633
 4813POPC   C3B61485  37.310  35.770   7.058
 4813POPC   C4B61486  37.235  35.778   7.548
 4814POPC   NC361487  11.478  44.331   5.589
 4814POPC   PO461488  11.165  43.801   5.281
 4814POPC   GL161489  11.174  43.910   5.731
 4814POPC   GL261490  11.473  43.718   5.719
 4814POPC   C1A61491  11.170  44.044   6.191
 4814POPC   D2A61492  11.187  43.869   6.628
 4814POPC   C3A61493  11.158  44.104   7.029
 4814POPC   C4A61494  11.249  44.127   7.484
 4814POPC   C1B61495  11.532  43.699   6.168
 4814POPC   C2B61496  11.716  43.746   6.557
 4814POPC   C3B61497  11.721  43.575   6.924
 4814POPC   C4B61498  11.485  43.735   7.267
 4815POPC   NC361499  37.337  19.131   5.361
 4815POPC   PO461500  36.745  19.200   5.418
 4815POPC   GL161501  36.787  18.825   5.697
 4815POPC   GL261502  37.125  18.837   5.796
 4815POPC   C1A61503  36.665  18.688   6.131
 4815POPC   D2A61504  36.449  18.825   6.522
 4815POPC   C3A61505  36.699  18.701   6.868
 4815POPC   C4A61506  36.972  18.979   7.116
 4815POPC   C1B61507  37.026  19.072   6.162
 4815POPC   C2B61508  36.923  19.102   6.603
 4815POPC   C3B61509  37.110  19.422   6.884
 4815POPC   C4B61510  37.338  19.327   7.256
 4816POPC   NC361511  39.406   0.679   5.487
 4816POPC   PO461512  38.816   0.299   5.448
 4816POPC   GL161513  39.040   0.496   5.815
 4816POPC   GL261514  38.737   0.390   5.939
 4816POPC   C1A61515  39.368   0.610   6.194
 4816POPC   D2A61516  39.625   0.595   6.636
 4816POPC   C3A61517  39.383   0.729   7.003
 4816POPC   C4A61518  39.363   0.618   7.449
 4816POPC   C1B61519  38.900   0.447   6.362
 4816POPC   C2B61520  39.250   0.272   6.624
 4816POPC   C3B61521  39.344   0.226   7.072
 4816POPC   C4B61522  39.013   0.119   7.373
 4817POPC   NC361523  33.363  38.441   5.457
 4817POPC   PO461524  34.008  38.746   5.469
 4817POPC   GL161525  33.796  38.492   5.768
 4817POPC   GL261526  33.501  38.684   5.869
 4817POPC   C1A61527  33.849  38.447   6.214
 4817POPC   D2A61528  33.797  38.651   6.619
 4817POPC   C3A61529  33.995  38.386   6.954
 4817POPC   C4A61530  34.027  38.670   7.292
 4817POPC   C1B61531  33.355  38.567   6.274
 4817POPC   C2B61532  33.447  38.292   6.626
 4817POPC   C3B61533  33.507  38.462   7.047
 4817POPC   C4B61534  33.473  38.169   7.376
 4818POPC   NC361535   3.679  43.294   5.165
 4818POPC   PO461536   3.882  42.834   5.596
 4818POPC   GL161537   3.575  43.001   5.943
 4818POPC   GL261538   3.399  43.316   6.008
 4818POPC   C1A61539   3.761  43.271   6.344
 4818POPC   D2A61540   3.812  43.015   6.710
 4818POPC   C3A61541   3.710  43.227   7.052
 4818POPC   C4A61542   3.708  43.196   7.483
 4818POPC   C1B61543   3.339  42.997   6.379
 4818POPC   C2B61544   3.302  43.034   6.816
 4818POPC   C3B61545   3.446  42.801   7.178
 4818POPC   C4B61546   3.170  42.778   7.514
 4819POPC   NC361547  18.633  25.433   5.425
 4819POPC   PO461548  18.369  24.975   5.036
 4819POPC   GL161549  18.332  25.047   5.560
 4819POPC   GL261550  18.175  25.365   5.695
 4819POPC   C1A61551  18.538  25.097   6.043
 4819POPC   D2A61552  18.694  25.025   6.542
 4819POPC   C3A61553  18.501  25.235   6.947
 4819POPC   C4A61554  18.257  25.444   7.272
 4819POPC   C1B61555  18.160  25.463   6.141
 4819POPC   C2B61556  18.158  25.375   6.586
 4819POPC   C3B61557  17.849  25.322   6.916
 4819POPC   C4B61558  17.939  25.048   7.261
 4820POPC   NC361559  36.879  37.439   5.185
 4820POPC   PO461560  37.028  36.777   5.322
 4820POPC   GL161561  37.148  36.700   5.722
 4820POPC   GL261562  37.096  37.062   5.823
 4820POPC   C1A61563  37.179  36.689   6.175
 4820POPC   D2A61564  36.906  36.667   6.543
 4820POPC   C3A61565  37.081  36.693   6.955
 4820POPC   C4A61566  36.820  36.866   7.267
 4820POPC   C1B61567  36.922  37.156   6.213
 4820POPC   C2B61568  36.770  37.155   6.608
 4820POPC   C3B61569  36.978  37.224   6.959
 4820POPC   C4B61570  36.912  37.403   7.358
 4821POPC   NC361571   8.112  34.175   5.428
 4821POPC   PO461572   8.342  34.724   5.111
 4821POPC   GL161573   8.233  34.696   5.632
 4821POPC   GL261574   8.352  34.996   5.713
 4821POPC   C1A61575   8.321  34.563   6.093
 4821POPC   D2A61576   8.332  34.300   6.448
 4821POPC   C3A61577   8.258  34.462   6.852
 4821POPC   C4A61578   7.881  34.353   7.071
 4821POPC   C1B61579   8.420  35.063   6.152
 4821POPC   C2B61580   8.400  34.881   6.542
 4821POPC   C3B61581   8.405  34.966   6.970
 4821POPC   C4B61582   8.284  34.727   7.297
 4822POPC   NC361583  38.928   2.242   5.514
 4822POPC   PO461584  39.341   1.782   5.304
 4822POPC   GL161585  39.132   1.831   5.713
 4822POPC   GL261586  39.379   2.043   5.857
 4822POPC   C1A61587  39.035   1.758   6.141
 4822POPC   D2A61588  39.251   1.959   6.490
 4822POPC   C3A61589  39.132   1.788   6.879
 4822POPC   C4A61590  39.036   1.988   7.239
 4822POPC   C1B61591  39.583   2.257   6.211
 4822POPC   C2B61592  39.582   2.372   6.668
 4822POPC   C3B61593  39.514   2.105   7.014
 4822POPC   C4B61594  39.486   2.037   7.464
 4823POPC   NC361595  42.610  10.070   5.624
 4823POPC   PO461596  42.274   9.620   5.273
 4823POPC   GL161597  42.352   9.583   5.743
 4823POPC   GL261598  42.181   9.889   5.846
 4823POPC   C1A61599  42.353   9.577   6.242
 4823POPC   D2A61600  42.504   9.815   6.656
 4823POPC   C3A61601  42.418   9.683   7.121
 4823POPC   C4A61602  42.409   9.623   7.600
 4823POPC   C1B61603  42.305  10.092   6.231
 4823POPC   C2B61604  42.146  10.195   6.647
 4823POPC   C3B61605  42.217  10.155   7.060
 4823POPC   C4B61606  42.402  10.101   7.432
 4824POPC   NC361607  33.136  30.635   5.549
 4824POPC   PO461608  32.532  30.986   5.440
 4824POPC   GL161609  32.780  30.843   5.852
 4824POPC   GL261610  32.752  30.511   6.099
 4824POPC   C1A61611  33.121  30.840   6.183
 4824POPC   D2A61612  33.232  30.934   6.614
 4824POPC   C3A61613  32.901  30.798   6.885
 4824POPC   C4A61614  32.982  30.634   7.276
 4824POPC   C1B61615  33.194  30.325   6.161
 4824POPC   C2B61616  33.433  30.268   6.524
 4824POPC   C3B61617  33.306  30.451   6.896
 4824POPC   C4B61618  33.462  30.438   7.301
 4825POPC   NC361619   0.718  32.816   5.434
 4825POPC   PO461620   0.169  33.276   5.518
 4825POPC   GL161621   0.489  33.146   5.836
 4825POPC   GL261622   0.524  32.786   5.893
 4825POPC   C1A61623   0.584  33.165   6.292
 4825POPC   D2A61624   0.682  33.251   6.741
 4825POPC   C3A61625   0.371  33.246   7.069
 4825POPC   C4A61626   0.414  33.121   7.495
 4825POPC   C1B61627   0.250  32.744   6.232
 4825POPC   C2B61628   0.259  32.946   6.633
 4825POPC   C3B61629   0.288  32.754   7.032
 4825POPC   C4B61630  44.991  32.820   7.384
 4826POPC   NC361631  25.121  25.530   5.320
 4826POPC   PO461632  25.590  25.988   5.358
 4826POPC   GL161633  25.469  26.050   5.789
 4826POPC   GL261634  25.145  26.155   5.858
 4826POPC   C1A61635  25.359  25.827   6.179
 4826POPC   D2A61636  25.133  25.999   6.512
 4826POPC   C3A61637  25.258  25.914   6.924
 4826POPC   C4A61638  25.052  25.641   7.218
 4826POPC   C1B61639  24.893  26.364   6.161
 4826POPC   C2B61640  24.768  26.350   6.558
 4826POPC   C3B61641  24.952  26.367   6.953
 4826POPC   C4B61642  24.968  26.133   7.319
 4827POPC   NC361643   7.168  16.875   5.376
 4827POPC   PO461644   7.771  16.676   5.252
 4827POPC   GL161645   7.733  16.536   5.684
 4827POPC   GL261646   7.616  16.826   5.831
 4827POPC   C1A61647   7.530  16.420   6.109
 4827POPC   D2A61648   7.698  16.382   6.546
 4827POPC   C3A61649   7.533  16.538   6.948
 4827POPC   C4A61650   7.182  16.487   7.233
 4827POPC   C1B61651   7.529  16.987   6.225
 4827POPC   C2B61652   7.535  16.968   6.652
 4827POPC   C3B61653   7.208  16.941   6.951
 4827POPC   C4B61654   7.404  16.939   7.326
 4828POPC   NC361655  38.481  24.077   5.392
 4828POPC   PO461656  38.304  23.466   5.137
 4828POPC   GL161657  38.278  23.589   5.681
 4828POPC   GL261658  38.498  23.799   5.816
 4828POPC   C1A61659  38.165  23.795   6.179
 4828POPC   D2A61660  38.132  23.670   6.658
 4828POPC   C3A61661  38.095  23.999   7.010
 4828POPC   C4A61662  38.178  23.961   7.502
 4828POPC   C1B61663  38.676  23.664   6.221
 4828POPC   C2B61664  38.639  23.544   6.664
 4828POPC   C3B61665  38.806  23.747   7.036
 4828POPC   C4B61666  38.568  24.112   7.201
 4829POPC   NC361667   1.266   7.600   5.425
 4829POPC   PO461668   0.615   7.395   5.297
 4829POPC   GL161669   0.907   7.468   5.736
 4829POPC   GL261670   0.871   7.346   6.068
 4829POPC   C1A61671   1.295   7.578   6.085
 4829POPC   D2A61672   1.320   7.678   6.526
 4829POPC   C3A61673   1.485   7.608   6.912
 4829POPC   C4A61674   1.252   7.526   7.270
 4829POPC   C1B61675   0.969   7.296   6.468
 4829POPC   C2B61676   1.186   7.214   6.803
 4829POPC   C3B61677   0.863   7.292   7.061
 4829POPC   C4B61678   0.874   7.224   7.456
 4830POPC   NC361679  42.932  10.737   5.460
 4830POPC   PO461680  43.297  10.184   5.308
 4830POPC   GL161681  43.297  10.371   5.703
 4830POPC   GL261682  43.328  10.762   5.776
 4830POPC   C1A61683  43.233  10.143   6.103
 4830POPC   D2A61684  43.462  10.183   6.503
 4830POPC   C3A61685  43.199  10.322   6.848
 4830POPC   C4A61686  43.222  10.138   7.242
 4830POPC   C1B61687  42.980  10.882   6.107
 4830POPC   C2B61688  42.975  10.755   6.534
 4830POPC   C3B61689  42.849  10.778   6.931
 4830POPC   C4B61690  43.082  10.664   7.241
 4831POPC   NC361691  40.993   3.522   5.316
 4831POPC   PO461692  40.555   4.004   5.416
 4831POPC   GL161693  40.835   3.736   5.768
 4831POPC   GL261694  40.811   3.351   5.772
 4831POPC   C1A61695  41.101   3.787   6.198
 4831POPC   D2A61696  41.194   3.929   6.649
 4831POPC   C3A61697  40.914   3.915   7.004
 4831POPC   C4A61698  40.857   3.584   7.328
 4831POPC   C1B61699  40.679   3.474   6.193
 4831POPC   C2B61700  40.862   3.458   6.589
 4831POPC   C3B61701  40.776   3.200   6.971
 4831POPC   C4B61702  40.364   3.197   7.199
 4832POPC   NC361703  33.328  16.254   5.600
 4832POPC   PO461704  33.007  15.645   5.502
 4832POPC   GL161705  33.093  15.875   5.862
 4832POPC   GL261706  33.422  15.746   5.893
 4832POPC   C1A61707  33.162  16.131   6.240
 4832POPC   D2A61708  32.957  16.038   6.623
 4832POPC   C3A61709  33.115  16.247   6.968
 4832POPC   C4A61710  33.010  16.221   7.358
 4832POPC   C1B61711  33.193  15.609   6.300
 4832POPC   C2B61712  33.063  15.539   6.730
 4832POPC   C3B61713  32.991  15.757   7.107
 4832POPC   C4B61714  33.113  15.762   7.574
 4833POPC   NC361715  33.381   8.641   5.538
 4833POPC   PO461716  32.780   9.067   5.340
 4833POPC   GL161717  33.036   9.143   5.757
 4833POPC   GL261718  33.184   8.886   5.947
 4833POPC   C1A61719  32.959   9.302   6.179
 4833POPC   D2A61720  32.956   9.083   6.592
 4833POPC   C3A61721  32.760   9.248   6.966
 4833POPC   C4A61722  33.072   9.334   7.245
 4833POPC   C1B61723  33.401   9.039   6.305
 4833POPC   C2B61724  33.606   9.082   6.699
 4833POPC   C3B61725  33.438   9.020   7.135
 4833POPC   C4B61726  33.563   9.352   7.453
 4834POPC   NC361727   4.727   9.460   5.492
 4834POPC   PO461728   5.062   9.933   5.373
 4834POPC   GL161729   5.186   9.669   5.758
 4834POPC   GL261730   5.517   9.511   5.765
 4834POPC   C1A61731   5.057   9.573   6.210
 4834POPC   D2A61732   4.959   9.854   6.627
 4834POPC   C3A61733   4.909   9.717   7.095
 4834POPC   C4A61734   4.679   9.620   7.489
 4834POPC   C1B61735   5.562   9.374   6.192
 4834POPC   C2B61736   5.400   9.536   6.591
 4834POPC   C3B61737   5.376   9.782   6.936
 4834POPC   C4B61738   5.446   9.616   7.300
 4835POPC   NC361739  28.008   8.016   5.697
 4835POPC   PO461740  28.682   7.906   5.412
 4835POPC   GL161741  28.533   8.133   5.816
 4835POPC   GL261742  28.282   8.416   5.914
 4835POPC   C1A61743  28.472   8.075   6.262
 4835POPC   D2A61744  28.159   7.925   6.558
 4835POPC   C3A61745  28.246   8.012   6.976
 4835POPC   C4A61746  28.643   8.079   7.167
 4835POPC   C1B61747  28.103   8.448   6.306
 4835POPC   C2B61748  28.433   8.515   6.592
 4835POPC   C3B61749  28.410   8.505   7.003
 4835POPC   C4B61750  27.982   8.415   7.171
 4836POPC   NC361751  26.673  40.039   5.464
 4836POPC   PO461752  27.251  39.680   5.509
 4836POPC   GL161753  26.904  39.800   5.857
 4836POPC   GL261754  26.872  40.166   5.925
 4836POPC   C1A61755  26.568  39.841   6.162
 4836POPC   D2A61756  26.642  40.055   6.549
 4836POPC   C3A61757  26.782  39.809   6.949
 4836POPC   C4A61758  26.814  39.976   7.386
 4836POPC   C1B61759  27.077  40.339   6.277
 4836POPC   C2B61760  27.092  40.203   6.715
 4836POPC   C3B61761  27.181  40.175   7.125
 4836POPC   C4B61762  27.444  40.441   7.331
 4837POPC   NC361763  21.953  29.956   5.488
 4837POPC   PO461764  22.631  30.130   5.425
 4837POPC   GL161765  22.504  29.953   5.862
 4837POPC   GL261766  22.155  29.839   5.940
 4837POPC   C1A61767  22.458  29.975   6.345
 4837POPC   D2A61768  22.141  29.997   6.683
 4837POPC   C3A61769  22.296  30.199   7.074
 4837POPC   C4A61770  22.269  30.213   7.533
 4837POPC   C1B61771  22.143  29.570   6.300
 4837POPC   C2B61772  22.252  29.449   6.715
 4837POPC   C3B61773  21.973  29.500   7.054
 4837POPC   C4B61774  21.987  29.840   7.322
 4838POPC   NC361775  28.144  17.291   5.568
 4838POPC   PO461776  28.516  17.808   5.436
 4838POPC   GL161777  28.493  17.569   5.845
 4838POPC   GL261778  28.322  17.260   6.022
 4838POPC   C1A61779  28.622  17.595   6.276
 4838POPC   D2A61780  28.739  17.873   6.608
 4838POPC   C3A61781  28.480  17.750   6.924
 4838POPC   C4A61782  28.505  17.521   7.278
 4838POPC   C1B61783  28.059  17.011   6.288
 4838POPC   C2B61784  27.956  17.288   6.637
 4838POPC   C3B61785  28.057  17.345   7.060
 4838POPC   C4B61786  28.225  17.080   7.349
 4839POPC   NC361787  13.726   6.998   5.377
 4839POPC   PO461788  13.802   6.237   5.496
 4839POPC   GL161789  13.895   6.406   5.870
 4839POPC   GL261790  13.720   6.719   5.809
 4839POPC   C1A61791  13.748   6.319   6.298
 4839POPC   D2A61792  13.536   6.245   6.708
 4839POPC   C3A61793  13.559   6.467   7.125
 4839POPC   C4A61794  13.907   6.503   7.363
 4839POPC   C1B61795  13.645   6.832   6.234
 4839POPC   C2B61796  13.789   6.724   6.639
 4839POPC   C3B61797  13.809   6.889   7.025
 4839POPC   C4B61798  13.471   6.985   7.296
 4840POPC   NC361799  34.799   7.983   5.643
 4840POPC   PO461800  35.260   8.225   5.252
 4840POPC   GL161801  35.223   8.325   5.794
 4840POPC   GL261802  34.938   8.268   6.029
 4840POPC   C1A61803  35.383   8.304   6.297
 4840POPC   D2A61804  35.445   8.381   6.768
 4840POPC   C3A61805  35.715   8.336   7.152
 4840POPC   C4A61806  35.673   8.466   7.609
 4840POPC   C1B61807  34.950   8.023   6.396
 4840POPC   C2B61808  34.956   8.268   6.758
 4840POPC   C3B61809  35.115   8.349   7.160
 4840POPC   C4B61810  34.930   8.154   7.519
 4841POPC   NC361811  26.454   0.073   5.271
 4841POPC   PO461812  26.042  44.512   5.258
 4841POPC   GL161813  26.145  44.486   5.691
 4841POPC   GL261814  26.284  44.841   5.732
 4841POPC   C1A61815  26.227  44.419   6.149
 4841POPC   D2A61816  26.318  44.612   6.574
 4841POPC   C3A61817  26.031  44.833   6.856
 4841POPC   C4A61818  25.767  44.676   7.209
 4841POPC   C1B61819  26.510  44.883   6.138
 4841POPC   C2B61820  26.462   0.111   6.524
 4841POPC   C3B61821  26.552  44.993   6.920
 4841POPC   C4B61822  26.366  44.985   7.267
 4842POPC   NC361823  23.509  42.681   5.684
 4842POPC   PO461824  23.646  43.236   5.266
 4842POPC   GL161825  23.785  43.254   5.800
 4842POPC   GL261826  23.925  42.961   5.827
 4842POPC   C1A61827  23.658  43.184   6.256
 4842POPC   D2A61828  23.562  43.009   6.654
 4842POPC   C3A61829  23.591  43.219   7.027
 4842POPC   C4A61830  23.541  42.862   7.248
 4842POPC   C1B61831  24.150  43.129   6.162
 4842POPC   C2B61832  24.057  43.258   6.565
 4842POPC   C3B61833  24.045  43.035   6.902
 4842POPC   C4B61834  24.074  42.956   7.286
 4843POPC   NC361835  20.194  25.342   5.203
 4843POPC   PO461836  20.843  25.095   5.336
 4843POPC   GL161837  20.595  25.248   5.663
 4843POPC   GL261838  20.678  24.968   5.859
 4843POPC   C1A61839  20.387  25.306   6.112
 4843POPC   D2A61840  20.359  25.440   6.559
 4843POPC   C3A61841  20.350  25.148   6.938
 4843POPC   C4A61842  20.414  25.400   7.312
 4843POPC   C1B61843  20.910  25.358   6.053
 4843POPC   C2B61844  20.999  25.476   6.494
 4843POPC   C3B61845  20.788  25.464   6.900
 4843POPC   C4B61846  20.811  25.090   7.154
 4844POPC   NC361847  31.914  39.609   5.455
 4844POPC   PO461848  32.450  39.167   5.485
 4844POPC   GL161849  32.282  39.350   5.824
 4844POPC   GL261850  32.551  39.584   5.802
 4844POPC   C1A61851  32.104  39.209   6.225
 4844POPC   D2A61852  32.191  39.356   6.639
 4844POPC   C3A61853  32.375  39.087   6.933
 4844POPC   C4A61854  32.231  38.950   7.318
 4844POPC   C1B61855  32.549  39.510   6.273
 4844POPC   C2B61856  32.568  39.695   6.730
 4844POPC   C3B61857  32.523  39.858   7.200
 4844POPC   C4B61858  32.499  39.732   7.716
 4845POPC   NC361859  42.713  17.591   5.400
 4845POPC   PO461860  42.048  17.528   5.472
 4845POPC   GL161861  42.386  17.528   5.813
 4845POPC   GL261862  42.538  17.200   5.918
 4845POPC   C1A61863  42.452  17.619   6.281
 4845POPC   D2A61864  42.641  17.575   6.731
 4845POPC   C3A61865  42.385  17.786   7.065
 4845POPC   C4A61866  41.987  17.622   7.242
 4845POPC   C1B61867  42.117  17.244   6.135
 4845POPC   C2B61868  41.946  17.532   6.428
 4845POPC   C3B61869  42.131  17.409   6.814
 4845POPC   C4B61870  42.203  17.133   7.194
 4846POPC   NC361871   6.500  37.032   5.514
 4846POPC   PO461872   5.837  36.906   5.420
 4846POPC   GL161873   5.946  36.825   5.829
 4846POPC   GL261874   6.121  37.112   5.931
 4846POPC   C1A61875   5.816  36.874   6.272
 4846POPC   D2A61876   5.643  37.135   6.615
 4846POPC   C3A61877   5.797  36.940   7.011
 4846POPC   C4A61878   5.817  36.509   7.128
 4846POPC   C1B61879   6.245  37.373   6.296
 4846POPC   C2B61880   6.161  37.218   6.717
 4846POPC   C3B61881   6.186  37.254   7.152
 4846POPC   C4B61882   6.445  37.056   7.466
 4847POPC   NC361883   9.585  15.410   5.453
 4847POPC   PO461884   9.757  14.796   5.504
 4847POPC   GL161885   9.848  15.133   5.824
 4847POPC   GL261886   9.503  15.120   5.879
 4847POPC   C1A61887  10.055  15.441   6.162
 4847POPC   D2A61888  10.093  15.564   6.620
 4847POPC   C3A61889   9.971  15.183   6.864
 4847POPC   C4A61890   9.812  14.966   7.211
 4847POPC   C1B61891   9.537  15.493   6.117
 4847POPC   C2B61892   9.643  15.319   6.497
 4847POPC   C3B61893   9.428  15.275   6.877
 4847POPC   C4B61894   9.518  15.363   7.299
 4848POPC   NC361895  22.354  35.781   5.490
 4848POPC   PO461896  21.924  35.250   5.320
 4848POPC   GL161897  22.123  35.338   5.729
 4848POPC   GL261898  22.484  35.202   5.756
 4848POPC   C1A61899  22.128  35.528   6.158
 4848POPC   D2A61900  22.444  35.500   6.515
 4848POPC   C3A61901  22.289  35.473   6.952
 4848POPC   C4A61902  22.146  35.312   7.339
 4848POPC   C1B61903  22.349  35.070   6.203
 4848POPC   C2B61904  22.265  35.034   6.660
 4848POPC   C3B61905  22.441  34.978   7.078
 4848POPC   C4B61906  22.413  34.866   7.531
 4849POPC   NC361907  24.988  14.323   5.403
 4849POPC   PO461908  25.428  14.744   5.474
 4849POPC   GL161909  25.533  14.325   5.719
 4849POPC   GL261910  25.223  14.360   5.890
 4849POPC   C1A61911  25.539  14.088   6.181
 4849POPC   D2A61912  25.359  14.253   6.559
 4849POPC   C3A61913  25.237  14.222   6.975
 4849POPC   C4A61914  24.997  14.010   7.281
 4849POPC   C1B61915  25.551  14.586   6.177
 4849POPC   C2B61916  25.816  14.487   6.566
 4849POPC   C3B61917  25.695  14.490   7.011
 4849POPC   C4B61918  25.489  14.822   7.249
 4850POPC   NC361919  42.638  21.558   5.489
 4850POPC   PO461920  42.134  21.079   5.574
 4850POPC   GL161921  42.477  21.240   5.847
 4850POPC   GL261922  42.395  21.612   5.940
 4850POPC   C1A61923  42.672  21.348   6.236
 4850POPC   D2A61924  42.527  21.512   6.607
 4850POPC   C3A61925  42.443  21.270   6.934
 4850POPC   C4A61926  42.164  21.085   7.209
 4850POPC   C1B61927  42.091  21.581   6.257
 4850POPC   C2B61928  41.985  21.472   6.677
 4850POPC   C3B61929  42.105  21.638   7.050
 4850POPC   C4B61930  42.256  21.690   7.434
 4851POPC   NC361931   9.666  41.005   5.340
 4851POPC   PO461932   9.941  40.430   5.495
 4851POPC   GL161933   9.752  40.706   5.837
 4851POPC   GL261934   9.544  41.013   5.837
 4851POPC   C1A61935   9.669  40.785   6.299
 4851POPC   D2A61936   9.684  40.561   6.679
 4851POPC   C3A61937   9.790  40.831   7.022
 4851POPC   C4A61938   9.944  40.741   7.463
 4851POPC   C1B61939   9.522  41.276   6.229
 4851POPC   C2B61940   9.478  41.158   6.677
 4851POPC   C3B61941   9.417  41.178   7.094
 4851POPC   C4B61942   9.454  40.863   7.403
 4852POPC   NC361943  44.340   7.362   5.400
 4852POPC   PO461944   0.039   7.624   5.411
 4852POPC   GL161945  44.941   7.563   5.890
 4852POPC   GL261946  44.616   7.452   5.845
 4852POPC   C1A61947  44.900   7.287   6.272
 4852POPC   D2A61948  44.682   7.114   6.682
 4852POPC   C3A61949  44.663   7.381   7.074
 4852POPC   C4A61950  44.869   7.604   7.385
 4852POPC   C1B61951  44.544   7.660   6.253
 4852POPC   C2B61952  44.452   7.701   6.698
 4852POPC   C3B61953  44.173   7.538   7.016
 4852POPC   C4B61954  44.156   7.177   7.289
 4853POPC   NC361955  42.432   5.381   5.293
 4853POPC   PO461956  42.624   4.752   5.245
 4853POPC   GL161957  42.462   4.964   5.609
 4853POPC   GL261958  42.705   5.246   5.693
 4853POPC   C1A61959  42.418   5.027   6.055
 4853POPC   D2A61960  42.399   5.174   6.485
 4853POPC   C3A61961  42.374   4.867   6.844
 4853POPC   C4A61962  42.223   4.970   7.237
 4853POPC   C1B61963  42.787   5.401   6.103
 4853POPC   C2B61964  42.870   5.425   6.541
 4853POPC   C3B61965  42.691   5.307   6.946
 4853POPC   C4B61966  42.682   5.111   7.349
 4854POPC   NC361967  44.895  10.557   5.345
 4854POPC   PO461968  44.311  10.401   5.625
 4854POPC   GL161969  44.633  10.504   5.824
 4854POPC   GL261970  44.677  10.836   5.739
 4854POPC   C1A61971  44.763  10.475   6.241
 4854POPC   D2A61972  44.775  10.622   6.663
 4854POPC   C3A61973  44.655  10.363   7.017
 4854POPC   C4A61974  44.768  10.603   7.338
 4854POPC   C1B61975  44.475  10.935   6.137
 4854POPC   C2B61976  44.453  11.042   6.577
 4854POPC   C3B61977  44.477  10.887   7.013
 4854POPC   C4B61978  44.197  10.880   7.366
 4855POPC   NC361979   4.616  43.967   5.510
 4855POPC   PO461980   3.960  43.818   5.632
 4855POPC   GL161981   4.205  43.614   5.911
 4855POPC   GL261982   4.571  43.553   5.794
 4855POPC   C1A61983   4.158  43.696   6.358
 4855POPC   D2A61984   4.328  44.081   6.576
 4855POPC   C3A61985   4.429  44.018   7.007
 4855POPC   C4A61986   4.136  44.009   7.392
 4855POPC   C1B61987   4.631  43.795   6.178
 4855POPC   C2B61988   4.626  43.650   6.610
 4855POPC   C3B61989   4.621  43.496   7.030
 4855POPC   C4B61990   4.564  43.740   7.404
 4856POPC   NC361991  43.493  12.982   5.494
 4856POPC   PO461992  44.096  12.715   5.300
 4856POPC   GL161993  43.953  12.831   5.700
 4856POPC   GL261994  43.979  13.198   5.654
 4856POPC   C1A61995  43.808  12.674   6.103
 4856POPC   D2A61996  43.950  12.507   6.503
 4856POPC   C3A61997  43.952  12.779   6.852
 4856POPC   C4A61998  44.073  12.810   7.275
 4856POPC   C1B61999  43.827  13.269   6.078
 4856POPC   C2B62000  43.862  13.167   6.510
 4856POPC   C3B62001  43.959  13.280   6.935
 4856POPC   C4B62002  43.816  13.252   7.374
 4857POPC   NC362003  14.562  24.797   5.243
 4857POPC   PO462004  14.320  24.132   5.409
 4857POPC   GL162005  14.333  24.360   5.772
 4857POPC   GL262006  14.657  24.347   5.843
 4857POPC   C1A62007  14.290  24.281   6.222
 4857POPC   D2A62008  14.477  24.243   6.626
 4857POPC   C3A62009  14.575  24.536   6.959
 4857POPC   C4A62010  14.542  24.415   7.394
 4857POPC   C1B62011  14.627  24.705   6.147
 4857POPC   C2B62012  14.715  24.966   6.569
 4857POPC   C3B62013  14.727  25.023   7.041
 4857POPC   C4B62014  14.783  24.865   7.479
 4858POPC   NC362015  22.957  42.011   5.419
 4858POPC   PO462016  23.143  42.695   5.364
 4858POPC   GL162017  23.048  42.479   5.773
 4858POPC   GL262018  22.816  42.233   5.879
 4858POPC   C1A62019  23.002  42.563   6.230
 4858POPC   D2A62020  22.953  42.339   6.628
 4858POPC   C3A62021  23.262  42.490   6.932
 4858POPC   C4A62022  23.120  42.562   7.331
 4858POPC   C1B62023  23.098  42.053   6.209
 4858POPC   C2B62024  23.158  41.878   6.619
 4858POPC   C3B62025  23.125  41.999   7.051
 4858POPC   C4B62026  22.928  41.786   7.395
 4859POPC   NC362027  20.864  43.220   5.428
 4859POPC   PO462028  21.461  43.388   5.264
 4859POPC   GL162029  21.401  43.229   5.727
 4859POPC   GL262030  21.171  42.956   5.752
 4859POPC   C1A62031  21.312  43.251   6.218
 4859POPC   D2A62032  21.268  43.275   6.690
 4859POPC   C3A62033  21.279  43.191   7.142
 4859POPC   C4A62034  21.370  43.160   7.614
 4859POPC   C1B62035  21.036  42.817   6.122
 4859POPC   C2B62036  20.940  42.947   6.512
 4859POPC   C3B62037  21.000  42.813   6.922
 4859POPC   C4B62038  21.032  42.815   7.382
 4860POPC   NC362039   0.085  21.353   5.535
 4860POPC   PO462040  44.496  21.573   5.306
 4860POPC   GL162041  44.648  21.534   5.778
 4860POPC   GL262042  44.695  21.180   5.846
 4860POPC   C1A62043  44.715  21.583   6.256
 4860POPC   D2A62044  44.676  21.595   6.725
 4860POPC   C3A62045  44.726  21.241   7.013
 4860POPC   C4A62046  44.592  21.448   7.369
 4860POPC   C1B62047  44.417  21.168   6.207
 4860POPC   C2B62048  44.334  21.191   6.636
 4860POPC   C3B62049  44.251  21.434   6.996
 4860POPC   C4B62050  44.135  21.740   7.318
 4861POPC   NC362051   5.777  29.165   5.461
 4861POPC   PO462052   6.328  29.445   5.681
 4861POPC   GL162053   6.128  29.105   5.904
 4861POPC   GL262054   5.764  29.011   5.943
 4861POPC   C1A62055   6.067  29.127   6.350
 4861POPC   D2A62056   5.763  28.983   6.617
 4861POPC   C3A62057   5.797  28.753   6.980
 4861POPC   C4A62058   5.950  28.843   7.400
 4861POPC   C1B62059   5.565  29.284   6.229
 4861POPC   C2B62060   5.590  29.465   6.639
 4861POPC   C3B62061   5.711  29.322   7.073
 4861POPC   C4B62062   5.408  29.466   7.447
 4862POPC   NC362063  37.681  25.370   5.356
 4862POPC   PO462064  37.873  24.720   5.259
 4862POPC   GL162065  37.656  24.990   5.693
 4862POPC   GL262066  37.764  25.341   5.853
 4862POPC   C1A62067  37.765  24.929   6.178
 4862POPC   D2A62068  37.699  24.957   6.624
 4862POPC   C3A62069  38.058  25.080   6.895
 4862POPC   C4A62070  38.005  25.165   7.335
 4862POPC   C1B62071  37.682  25.432   6.285
 4862POPC   C2B62072  37.414  25.400   6.644
 4862POPC   C3B62073  37.623  25.346   6.999
 4862POPC   C4B62074  37.850  25.641   7.200
 4863POPC   NC362075  28.254  38.001   5.552
 4863POPC   PO462076  27.935  38.569   5.558
 4863POPC   GL162077  28.262  38.615   5.864
 4863POPC   GL262078  28.532  38.351   5.845
 4863POPC   C1A62079  28.133  38.660   6.279
 4863POPC   D2A62080  28.286  38.686   6.686
 4863POPC   C3A62081  28.076  38.637   7.102
 4863POPC   C4A62082  28.100  38.742   7.575
 4863POPC   C1B62083  28.436  38.241   6.268
 4863POPC   C2B62084  28.604  38.288   6.676
 4863POPC   C3B62085  28.557  38.466   7.100
 4863POPC   C4B62086  28.620  38.126   7.379
 4864POPC   NC362087   0.412  42.127   5.493
 4864POPC   PO462088   0.375  42.730   5.428
 4864POPC   GL162089   0.440  42.531   5.855
 4864POPC   GL262090   0.606  42.214   5.950
 4864POPC   C1A62091   0.628  42.624   6.289
 4864POPC   D2A62092   0.854  42.564   6.677
 4864POPC   C3A62093   0.616  42.633   7.063
 4864POPC   C4A62094   0.310  42.622   7.405
 4864POPC   C1B62095   0.276  42.258   6.278
 4864POPC   C2B62096   0.420  42.250   6.729
 4864POPC   C3B62097   0.342  42.169   7.169
 4864POPC   C4B62098  44.975  42.191   7.429
 4865POPC   NC362099  29.632   4.487   5.507
 4865POPC   PO462100  30.199   4.065   5.373
 4865POPC   GL162101  30.161   4.197   5.817
 4865POPC   GL262102  30.026   4.538   5.815
 4865POPC   C1A62103  30.006   4.295   6.257
 4865POPC   D2A62104  29.916   4.564   6.600
 4865POPC   C3A62105  29.814   4.267   6.899
 4865POPC   C4A62106  29.885   4.252   7.328
 4865POPC   C1B62107  29.695   4.674   6.124
 4865POPC   C2B62108  29.369   4.577   6.413
 4865POPC   C3B62109  29.430   4.583   6.832
 4865POPC   C4B62110  29.415   4.415   7.244
 4866POPC   NC362111  10.106  14.574   5.280
 4866POPC   PO462112   9.449  14.171   5.319
 4866POPC   GL162113   9.713  14.248   5.643
 4866POPC   GL262114   9.447  14.122   5.835
 4866POPC   C1A62115  10.028  14.220   5.998
 4866POPC   D2A62116  10.161  14.343   6.445
 4866POPC   C3A62117   9.941  14.516   6.815
 4866POPC   C4A62118  10.043  14.512   7.240
 4866POPC   C1B62119   9.544  14.457   6.104
 4866POPC   C2B62120   9.451  14.497   6.536
 4866POPC   C3B62121   9.483  14.767   6.864
 4866POPC   C4B62122   9.487  14.591   7.258
 4867POPC   NC362123   8.156  43.531   5.535
 4867POPC   PO462124   8.330  42.891   5.295
 4867POPC   GL162125   8.201  43.047   5.716
 4867POPC   GL262126   8.507  43.235   5.814
 4867POPC   C1A62127   8.146  42.996   6.183
 4867POPC   D2A62128   8.420  43.052   6.528
 4867POPC   C3A62129   8.387  42.842   6.906
 4867POPC   C4A62130   8.249  42.984   7.270
 4867POPC   C1B62131   8.553  43.446   6.212
 4867POPC   C2B62132   8.706  43.463   6.640
 4867POPC   C3B62133   8.593  43.315   7.055
 4867POPC   C4B62134   8.522  43.348   7.497
 4868POPC   NC362135  43.499  28.745   5.454
 4868POPC   PO462136  43.084  29.229   5.248
 4868POPC   GL162137  43.124  29.226   5.734
 4868POPC   GL262138  42.779  29.357   5.763
 4868POPC   C1A62139  43.226  29.096   6.208
 4868POPC   D2A62140  43.407  28.892   6.621
 4868POPC   C3A62141  43.256  29.038   7.044
 4868POPC   C4A62142  43.320  29.029   7.514
 4868POPC   C1B62143  42.703  29.393   6.193
 4868POPC   C2B62144  42.898  29.347   6.584
 4868POPC   C3B62145  42.916  29.392   7.017
 4868POPC   C4B62146  42.831  29.112   7.352
 4869POPC   NC362147  40.162  20.988   5.435
 4869POPC   PO462148  39.706  21.465   5.283
 4869POPC   GL162149  39.911  21.503   5.739
 4869POPC   GL262150  40.072  21.236   5.887
 4869POPC   C1A62151  40.137  21.707   6.078
 4869POPC   D2A62152  40.046  21.780   6.545
 4869POPC   C3A62153  40.088  21.500   6.903
 4869POPC   C4A62154  40.189  21.731   7.297
 4869POPC   C1B62155  39.807  21.373   6.274
 4869POPC   C2B62156  39.605  21.392   6.702
 4869POPC   C3B62157  39.701  21.139   7.078
 4869POPC   C4B62158  40.046  21.243   7.354
 4870POPC   NC362159  18.403  36.522   5.344
 4870POPC   PO462160  18.228  37.115   5.061
 4870POPC   GL162161  18.268  36.990   5.558
 4870POPC   GL262162  18.561  36.855   5.710
 4870POPC   C1A62163  18.171  36.980   6.043
 4870POPC   D2A62164  18.013  36.792   6.434
 4870POPC   C3A62165  18.159  36.950   6.811
 4870POPC   C4A62166  18.033  37.033   7.187
 4870POPC   C1B62167  18.557  36.640   6.112
 4870POPC   C2B62168  18.540  36.814   6.496
 4870POPC   C3B62169  18.571  36.678   6.911
 4870POPC   C4B62170  18.646  36.772   7.313
 4871POPC   NC362171  42.944  38.773   5.408
 4871POPC   PO462172  42.907  38.114   5.464
 4871POPC   GL162173  42.908  38.427   5.840
 4871POPC   GL262174  43.252  38.577   5.794
 4871POPC   C1A62175  42.726  38.509   6.300
 4871POPC   D2A62176  42.612  38.443   6.767
 4871POPC   C3A62177  42.857  38.291   7.103
 4871POPC   C4A62178  43.271  38.387   7.194
 4871POPC   C1B62179  43.218  38.708   6.224
 4871POPC   C2B62180  43.131  38.610   6.677
 4871POPC   C3B62181  42.898  38.807   7.031
 4871POPC   C4B62182  42.880  38.669   7.447
 4872POPC   NC362183  15.959   0.879   5.023
 4872POPC   PO462184  15.974   0.283   5.340
 4872POPC   GL162185  16.071   0.314   5.792
 4872POPC   GL262186  15.780   0.525   5.884
 4872POPC   C1A62187  15.975   0.200   6.237
 4872POPC   D2A62188  15.839  44.939   6.570
 4872POPC   C3A62189  15.927   0.115   6.980
 4872POPC   C4A62190  16.161   0.097   7.368
 4872POPC   C1B62191  15.746   0.630   6.316
 4872POPC   C2B62192  16.024   0.526   6.682
 4872POPC   C3B62193  16.124   0.561   7.143
 4872POPC   C4B62194  15.898   0.802   7.435
 4873POPC   NC362195  20.998  15.752   5.402
 4873POPC   PO462196  21.667  15.748   5.582
 4873POPC   GL162197  21.293  15.880   5.801
 4873POPC   GL262198  21.233  16.189   5.670
 4873POPC   C1A62199  21.106  15.735   6.178
 4873POPC   D2A62200  21.283  15.868   6.587
 4873POPC   C3A62201  21.177  15.706   6.988
 4873POPC   C4A62202  21.481  15.504   7.259
 4873POPC   C1B62203  21.187  16.307   6.132
 4873POPC   C2B62204  21.089  16.342   6.611
 4873POPC   C3B62205  21.223  16.226   7.027
 4873POPC   C4B62206  21.334  16.016   7.391
 4874POPC   NC362207  16.179  44.337   5.422
 4874POPC   PO462208  15.669  44.707   5.412
 4874POPC   GL162209  15.806  44.476   5.755
 4874POPC   GL262210  15.882  44.801   5.912
 4874POPC   C1A62211  15.990  44.358   6.160
 4874POPC   D2A62212  16.109  44.503   6.584
 4874POPC   C3A62213  15.844  44.599   6.953
 4874POPC   C4A62214  15.748  44.388   7.314
 4874POPC   C1B62215  16.280  44.814   6.143
 4874POPC   C2B62216  16.364   0.026   6.550
 4874POPC   C3B62217  16.331  44.821   6.928
 4874POPC   C4B62218  16.489  44.720   7.305
 4875POPC   NC362219  37.984  36.358   5.081
 4875POPC   PO462220  38.474  36.142   5.495
 4875POPC   GL162221  38.455  35.869   5.837
 4875POPC   GL262222  38.214  36.019   5.967
 4875POPC   C1A62223  38.568  35.787   6.269
 4875POPC   D2A62224  38.380  35.924   6.685
 4875POPC   C3A62225  38.458  35.784   7.127
 4875POPC   C4A62226  38.269  35.663   7.554
 4875POPC   C1B62227  38.014  36.053   6.324
 4875POPC   C2B62228  38.026  36.312   6.680
 4875POPC   C3B62229  38.294  36.313   7.040
 4875POPC   C4B62230  38.114  36.098   7.357
 4876POPC   NC362231  21.942  33.427   5.511
 4876POPC   PO462232  21.420  33.706   5.420
 4876POPC   GL162233  21.388  33.786   5.842
 4876POPC   GL262234  21.066  33.606   5.818
 4876POPC   C1A62235  21.555  33.831   6.288
 4876POPC   D2A62236  21.553  33.516   6.656
 4876POPC   C3A62237  21.578  33.712   7.021
 4876POPC   C4A62238  21.586  33.953   7.389
 4876POPC   C1B62239  21.023  33.899   6.181
 4876POPC   C2B62240  21.134  33.810   6.606
 4876POPC   C3B62241  21.226  34.070   6.978
 4876POPC   C4B62242  21.085  33.917   7.392
 4877POPC   NC362243  32.666  37.635   5.360
 4877POPC   PO462244  33.099  38.085   5.281
 4877POPC   GL162245  32.828  37.959   5.701
 4877POPC   GL262246  32.946  37.646   5.793
 4877POPC   C1A62247  32.819  37.944   6.185
 4877POPC   D2A62248  32.721  37.826   6.611
 4877POPC   C3A62249  33.098  37.793   6.892
 4877POPC   C4A62250  33.162  37.783   7.318
 4877POPC   C1B62251  33.138  37.540   6.200
 4877POPC   C2B62252  33.121  37.368   6.614
 4877POPC   C3B62253  32.780  37.375   6.877
 4877POPC   C4B62254  32.748  37.506   7.267
 4878POPC   NC362255  22.968  21.135   5.487
 4878POPC   PO462256  23.308  20.504   5.346
 4878POPC   GL162257  23.070  20.412   5.767
 4878POPC   GL262258  22.870  20.729   5.833
 4878POPC   C1A62259  23.147  20.487   6.195
 4878POPC   D2A62260  23.004  20.717   6.565
 4878POPC   C3A62261  22.863  20.486   6.971
 4878POPC   C4A62262  22.999  20.409   7.415
 4878POPC   C1B62263  22.642  20.497   6.169
 4878POPC   C2B62264  22.519  20.636   6.602
 4878POPC   C3B62265  22.569  20.911   6.956
 4878POPC   C4B62266  22.517  20.657   7.326
 4879POPC   NC362267  36.050   4.801   5.198
 4879POPC   PO462268  36.442   5.085   5.662
 4879POPC   GL162269  36.031   5.164   5.865
 4879POPC   GL262270  35.846   4.871   6.032
 4879POPC   C1A62271  35.925   5.324   6.267
 4879POPC   D2A62272  36.027   5.091   6.589
 4879POPC   C3A62273  35.914   5.129   6.962
 4879POPC   C4A62274  36.181   5.329   7.108
 4879POPC   C1B62275  36.127   4.658   6.363
 4879POPC   C2B62276  36.462   4.832   6.656
 4879POPC   C3B62277  36.418   4.845   7.092
 4879POPC   C4B62278  36.179   4.686   7.455
 4880POPC   NC362279   9.576  38.642   5.593
 4880POPC   PO462280  10.025  39.094   5.408
 4880POPC   GL162281   9.984  38.826   5.864
 4880POPC   GL262282   9.947  38.445   5.947
 4880POPC   C1A62283   9.733  38.701   6.300
 4880POPC   D2A62284   9.901  38.506   6.692
 4880POPC   C3A62285   9.816  38.675   7.110
 4880POPC   C4A62286   9.504  38.499   7.424
 4880POPC   C1B62287   9.590  38.191   6.140
 4880POPC   C2B62288   9.467  38.143   6.576
 4880POPC   C3B62289   9.592  38.217   7.011
 4880POPC   C4B62290   9.928  38.224   7.345
 4881POPC   NC362291  31.723  27.647   5.352
 4881POPC   PO462292  31.150  27.552   5.125
 4881POPC   GL162293  31.283  27.557   5.632
 4881POPC   GL262294  31.617  27.620   5.842
 4881POPC   C1A62295  31.207  27.508   6.107
 4881POPC   D2A62296  31.415  27.555   6.530
 4881POPC   C3A62297  31.256  27.633   6.957
 4881POPC   C4A62298  31.306  27.420   7.356
 4881POPC   C1B62299  31.828  27.737   6.252
 4881POPC   C2B62300  31.789  27.896   6.689
 4881POPC   C3B62301  31.733  27.725   7.111
 4881POPC   C4B62302  31.626  27.763   7.566
 4882POPC   NC362303   5.017  24.404   5.487
 4882POPC   PO462304   5.142  25.063   5.521
 4882POPC   GL162305   5.361  24.709   5.744
 4882POPC   GL262306   5.030  24.683   5.926
 4882POPC   C1A62307   5.406  24.443   6.135
 4882POPC   D2A62308   5.185  24.689   6.457
 4882POPC   C3A62309   5.276  24.632   6.854
 4882POPC   C4A62310   5.324  24.471   7.241
 4882POPC   C1B62311   4.874  24.356   6.225
 4882POPC   C2B62312   4.766  24.399   6.658
 4882POPC   C3B62313   4.829  24.500   7.064
 4882POPC   C4B62314   4.577  24.402   7.370
 4883POPC   NC362315  17.299  21.980   4.982
 4883POPC   PO462316  17.504  22.292   5.561
 4883POPC   GL162317  17.420  22.089   5.954
 4883POPC   GL262318  17.699  21.948   6.138
 4883POPC   C1A62319  17.231  22.057   6.354
 4883POPC   D2A62320  17.317  22.234   6.746
 4883POPC   C3A62321  17.284  21.986   7.171
 4883POPC   C4A62322  17.286  21.998   7.647
 4883POPC   C1B62323  17.653  22.394   6.318
 4883POPC   C2B62324  17.721  22.610   6.720
 4883POPC   C3B62325  17.683  22.344   7.081
 4883POPC   C4B62326  17.768  21.852   7.093
 4884POPC   NC362327   6.450  23.848   5.328
 4884POPC   PO462328   7.047  23.509   5.339
 4884POPC   GL162329   6.834  23.801   5.669
 4884POPC   GL262330   7.040  24.079   5.712
 4884POPC   C1A62331   6.639  23.833   6.115
 4884POPC   D2A62332   6.289  23.852   6.458
 4884POPC   C3A62333   6.400  23.942   6.914
 4884POPC   C4A62334   6.557  24.113   7.334
 4884POPC   C1B62335   7.116  24.031   6.153
 4884POPC   C2B62336   7.240  23.898   6.566
 4884POPC   C3B62337   7.038  23.927   6.958
 4884POPC   C4B62338   7.054  24.028   7.366
 4885POPC   NC362339   8.208   7.393   5.418
 4885POPC   PO462340   7.934   6.890   5.814
 4885POPC   GL162341   8.236   7.238   5.937
 4885POPC   GL262342   8.097   7.580   5.928
 4885POPC   C1A62343   8.305   7.371   6.389
 4885POPC   D2A62344   8.458   7.128   6.741
 4885POPC   C3A62345   8.082   7.125   7.016
 4885POPC   C4A62346   8.055   7.302   7.430
 4885POPC   C1B62347   8.459   7.789   6.152
 4885POPC   C2B62348   8.407   7.879   6.588
 4885POPC   C3B62349   8.328   7.587   6.916
 4885POPC   C4B62350   8.449   7.589   7.324
 4886POPC   NC362351   0.134  13.056   5.640
 4886POPC   PO462352   0.796  12.730   5.476
 4886POPC   GL162353   0.508  12.749   5.809
 4886POPC   GL262354   0.578  13.106   5.883
 4886POPC   C1A62355   0.264  12.695   6.184
 4886POPC   D2A62356   0.290  12.435   6.508
 4886POPC   C3A62357   0.375  12.657   6.835
 4886POPC   C4A62358   0.300  12.563   7.214
 4886POPC   C1B62359   0.574  13.284   6.305
 4886POPC   C2B62360   0.459  13.161   6.744
 4886POPC   C3B62361   0.441  13.090   7.214
 4886POPC   C4B62362   0.652  12.885   7.562
 4887POPC   NC362363   5.305  31.304   5.365
 4887POPC   PO462364   4.860  31.799   5.170
 4887POPC   GL162365   5.070  31.693   5.640
 4887POPC   GL262366   5.016  31.337   5.796
 4887POPC   C1A62367   5.089  31.672   6.145
 4887POPC   D2A62368   5.331  31.556   6.507
 4887POPC   C3A62369   5.197  31.529   6.957
 4887POPC   C4A62370   5.369  31.531   7.397
 4887POPC   C1B62371   4.944  31.155   6.204
 4887POPC   C2B62372   5.148  31.083   6.604
 4887POPC   C3B62373   5.099  31.033   7.022
 4887POPC   C4B62374   4.923  31.267   7.328
 4888POPC   NC362375  31.812   7.884   5.526
 4888POPC   PO462376  31.412   8.250   5.168
 4888POPC   GL162377  31.393   8.455   5.621
 4888POPC   GL262378  31.709   8.335   5.744
 4888POPC   C1A62379  31.365   8.458   6.085
 4888POPC   D2A62380  31.374   8.384   6.531
 4888POPC   C3A62381  31.716   8.348   6.830
 4888POPC   C4A62382  31.652   8.410   7.268
 4888POPC   C1B62383  31.772   8.155   6.214
 4888POPC   C2B62384  31.856   7.889   6.639
 4888POPC   C3B62385  31.788   7.886   7.123
 4888POPC   C4B62386  31.676   7.883   7.582
 4889POPC   NC362387  22.662  31.428   5.075
 4889POPC   PO462388  22.869  31.293   5.743
 4889POPC   GL162389  22.802  31.445   6.074
 4889POPC   GL262390  22.731  31.796   5.944
 4889POPC   C1A62391  23.142  31.408   6.385
 4889POPC   D2A62392  23.264  31.633   6.750
 4889POPC   C3A62393  23.211  31.271   7.005
 4889POPC   C4A62394  22.805  31.133   7.079
 4889POPC   C1B62395  22.897  31.845   6.350
 4889POPC   C2B62396  22.686  31.908   6.648
 4889POPC   C3B62397  22.620  31.987   7.023
 4889POPC   C4B62398  22.872  31.646   7.100
 4890POPC   NC362399   6.123  30.804   5.554
 4890POPC   PO462400   5.761  30.258   5.551
 4890POPC   GL162401   5.728  30.613   5.876
 4890POPC   GL262402   5.461  30.901   5.811
 4890POPC   C1A62403   5.917  30.886   6.192
 4890POPC   D2A62404   6.162  31.058   6.515
 4890POPC   C3A62405   5.981  30.845   6.851
 4890POPC   C4A62406   6.091  30.832   7.261
 4890POPC   C1B62407   5.471  31.132   6.212
 4890POPC   C2B62408   5.677  31.213   6.624
 4890POPC   C3B62409   5.608  31.176   7.058
 4890POPC   C4B62410   5.590  30.750   7.180
 4891POPC   NC362411  21.595  32.496   5.615
 4891POPC   PO462412  21.193  31.960   5.466
 4891POPC   GL162413  21.254  32.132   5.870
 4891POPC   GL262414  21.594  32.056   5.948
 4891POPC   C1A62415  21.342  32.426   6.223
 4891POPC   D2A62416  21.110  32.641   6.532
 4891POPC   C3A62417  21.219  32.489   6.932
 4891POPC   C4A62418  21.544  32.613   7.194
 4891POPC   C1B62419  21.591  31.801   6.299
 4891POPC   C2B62420  21.702  31.949   6.707
 4891POPC   C3B62421  21.590  31.819   7.110
 4891POPC   C4B62422  21.369  32.134   7.270
 4892POPC   NC362423  18.500  32.025   5.022
 4892POPC   PO462424  18.088  31.937   5.525
 4892POPC   GL162425  18.178  32.139   5.861
 4892POPC   GL262426  18.316  31.845   6.002
 4892POPC   C1A62427  18.082  32.372   6.217
 4892POPC   D2A62428  18.282  32.395   6.598
 4892POPC   C3A62429  18.247  32.070   6.868
 4892POPC   C4A62430  18.235  32.185   7.283
 4892POPC   C1B62431  18.573  32.131   6.254
 4892POPC   C2B62432  18.720  32.108   6.691
 4892POPC   C3B62433  18.667  31.873   7.129
 4892POPC   C4B62434  18.612  32.050   7.590
 4893POPC   NC362435  21.251  17.878   5.394
 4893POPC   PO462436  21.712  17.457   5.158
 4893POPC   GL162437  21.525  17.479   5.643
 4893POPC   GL262438  21.157  17.488   5.757
 4893POPC   C1A62439  21.510  17.451   6.132
 4893POPC   D2A62440  21.369  17.525   6.587
 4893POPC   C3A62441  21.456  17.323   6.983
 4893POPC   C4A62442  21.697  17.438   7.374
 4893POPC   C1B62443  21.030  17.667   6.186
 4893POPC   C2B62444  20.953  17.819   6.609
 4893POPC   C3B62445  21.127  17.784   7.028
 4893POPC   C4B62446  21.180  17.468   7.375
 4894POPC   NC362447   7.816  43.882   5.258
 4894POPC   PO462448   7.173  44.031   5.486
 4894POPC   GL162449   7.425  43.882   5.822
 4894POPC   GL262450   7.778  43.932   5.780
 4894POPC   C1A62451   7.386  43.784   6.236
 4894POPC   D2A62452   7.285  44.022   6.607
 4894POPC   C3A62453   7.372  43.838   6.994
 4894POPC   C4A62454   7.288  44.050   7.371
 4894POPC   C1B62455   7.853  44.041   6.188
 4894POPC   C2B62456   7.762  43.798   6.567
 4894POPC   C3B62457   7.897  43.813   6.942
 4894POPC   C4B62458   7.794  43.945   7.329
 4895POPC   NC362459   2.325   1.303   4.835
 4895POPC   PO462460   2.113   0.912   5.369
 4895POPC   GL162461   1.972   1.109   5.808
 4895POPC   GL262462   1.653   1.012   5.963
 4895POPC   C1A62463   1.980   1.306   6.261
 4895POPC   D2A62464   2.236   1.350   6.651
 4895POPC   C3A62465   2.064   1.465   7.054
 4895POPC   C4A62466   2.076   1.341   7.488
 4895POPC   C1B62467   1.979   0.805   6.223
 4895POPC   C2B62468   1.989   0.893   6.659
 4895POPC   C3B62469   1.976   0.960   7.102
 4895POPC   C4B62470   1.620   1.015   7.378
 4896POPC   NC362471  15.549   4.175   5.380
 4896POPC   PO462472  15.596   4.819   5.564
 4896POPC   GL162473  15.837   4.555   5.844
 4896POPC   GL262474  15.745   4.224   5.850
 4896POPC   C1A62475  16.046   4.383   6.216
 4896POPC   D2A62476  16.032   4.013   6.478
 4896POPC   C3A62477  16.009   4.183   6.870
 4896POPC   C4A62478  16.320   4.350   7.136
 4896POPC   C1B62479  15.567   4.148   6.261
 4896POPC   C2B62480  15.544   3.765   6.525
 4896POPC   C3B62481  15.686   3.784   6.938
 4896POPC   C4B62482  15.646   4.131   7.240
 4897POPC   NC362483  16.274  38.254   5.377
 4897POPC   PO462484  15.611  38.380   5.360
 4897POPC   GL162485  15.843  38.323   5.752
 4897POPC   GL262486  15.949  38.000   5.813
 4897POPC   C1A62487  15.965  38.459   6.180
 4897POPC   D2A62488  15.851  38.762   6.508
 4897POPC   C3A62489  15.878  38.682   6.948
 4897POPC   C4A62490  16.223  38.623   7.240
 4897POPC   C1B62491  15.948  37.969   6.294
 4897POPC   C2B62492  16.108  38.247   6.672
 4897POPC   C3B62493  15.969  38.196   7.134
 4897POPC   C4B62494  15.906  38.073   7.598
 4898POPC   NC362495   5.355   6.410   5.324
 4898POPC   PO462496   5.038   6.998   5.439
 4898POPC   GL162497   5.146   6.976   5.837
 4898POPC   GL262498   5.094   6.607   5.805
 4898POPC   C1A62499   4.930   6.904   6.221
 4898POPC   D2A62500   4.957   6.671   6.593
 4898POPC   C3A62501   5.070   6.823   7.009
 4898POPC   C4A62502   5.378   6.543   7.177
 4898POPC   C1B62503   4.929   6.323   6.143
 4898POPC   C2B62504   4.784   6.188   6.563
 4898POPC   C3B62505   4.944   6.287   6.982
 4898POPC   C4B62506   4.749   6.132   7.329
 4899POPC   NC362507   0.275  16.532   5.670
 4899POPC   PO462508   0.225  15.925   5.368
 4899POPC   GL162509   0.451  16.034   5.736
 4899POPC   GL262510   0.172  16.084   5.935
 4899POPC   C1A62511   0.615  15.979   6.172
 4899POPC   D2A62512   0.569  16.185   6.583
 4899POPC   C3A62513   0.605  15.969   6.988
 4899POPC   C4A62514   0.527  16.128   7.393
 4899POPC   C1B62515   0.140  15.828   6.306
 4899POPC   C2B62516   0.314  15.687   6.686
 4899POPC   C3B62517   0.123  15.754   7.129
 4899POPC   C4B62518  44.795  15.875   7.468
 4900POPC   NC362519  10.705  44.145   5.363
 4900POPC   PO462520  10.220  43.703   5.593
 4900POPC   GL162521  10.364  43.960   5.924
 4900POPC   GL262522  10.712  44.086   5.942
 4900POPC   C1A62523  10.297  44.080   6.345
 4900POPC   D2A62524  10.621  44.233   6.617
 4900POPC   C3A62525  10.679  43.920   6.885
 4900POPC   C4A62526  10.323  43.911   7.198
 4900POPC   C1B62527  10.736  43.779   6.320
 4900POPC   C2B62528  10.859  43.470   6.656
 4900POPC   C3B62529  11.035  43.577   7.059
 4900POPC   C4B62530  10.828  43.852   7.369
 4901POPC   NC362531  14.756  23.985   5.429
 4901POPC   PO462532  15.468  23.652   5.477
 4901POPC   GL162533  15.292  23.789   5.849
 4901POPC   GL262534  14.939  23.779   5.862
 4901POPC   C1A62535  15.251  23.880   6.286
 4901POPC   D2A62536  15.404  23.767   6.703
 4901POPC   C3A62537  15.057  23.657   6.989
 4901POPC   C4A62538  14.971  23.333   7.250
 4901POPC   C1B62539  14.760  24.022   6.225
 4901POPC   C2B62540  14.943  24.038   6.647
 4901POPC   C3B62541  14.744  24.058   7.043
 4901POPC   C4B62542  14.934  24.057   7.454
 4902POPC   NC362543  36.913   7.925   5.488
 4902POPC   PO462544  37.105   8.489   5.433
 4902POPC   GL162545  37.242   8.249   5.799
 4902POPC   GL262546  37.180   7.901   5.907
 4902POPC   C1A62547  37.024   8.354   6.156
 4902POPC   D2A62548  37.073   8.350   6.591
 4902POPC   C3A62549  36.712   8.440   6.835
 4902POPC   C4A62550  36.663   8.545   7.247
 4902POPC   C1B62551  37.099   7.888   6.327
 4902POPC   C2B62552  36.767   7.922   6.650
 4902POPC   C3B62553  37.015   8.032   6.989
 4902POPC   C4B62554  37.265   7.799   7.244
 4903POPC   NC362555  28.448  16.359   5.480
 4903POPC   PO462556  28.200  15.727   5.647
 4903POPC   GL162557  28.463  15.994   5.838
 4903POPC   GL262558  28.218  16.213   5.894
 4903POPC   C1A62559  28.552  15.990   6.246
 4903POPC   D2A62560  28.560  15.785   6.607
 4903POPC   C3A62561  28.686  16.101   6.880
 4903POPC   C4A62562  28.652  16.244   7.307
 4903POPC   C1B62563  28.044  16.090   6.281
 4903POPC   C2B62564  28.217  16.180   6.673
 4903POPC   C3B62565  28.213  16.050   7.112
 4903POPC   C4B62566  27.935  15.721   7.252
 4904POPC   NC362567  40.366   6.336   5.428
 4904POPC   PO462568  39.719   6.598   5.352
 4904POPC   GL162569  39.937   6.687   5.762
 4904POPC   GL262570  40.284   6.790   5.753
 4904POPC   C1A62571  39.977   6.606   6.197
 4904POPC   D2A62572  39.749   6.584   6.618
 4904POPC   C3A62573  39.986   6.606   6.987
 4904POPC   C4A62574  39.793   6.701   7.381
 4904POPC   C1B62575  40.368   6.973   6.176
 4904POPC   C2B62576  40.159   6.911   6.571
 4904POPC   C3B62577  40.359   6.955   6.955
 4904POPC   C4B62578  40.143   7.047   7.261
 4905POPC   NC362579  40.118  31.918   5.607
 4905POPC   PO462580  39.855  32.570   5.450
 4905POPC   GL162581  39.828  32.270   5.803
 4905POPC   GL262582  39.576  31.986   5.742
 4905POPC   C1A62583  40.073  32.284   6.198
 4905POPC   D2A62584  40.067  32.536   6.571
 4905POPC   C3A62585  40.140  32.297   6.926
 4905POPC   C4A62586  40.186  31.998   7.233
 4905POPC   C1B62587  39.655  31.950   6.190
 4905POPC   C2B62588  39.850  32.040   6.582
 4905POPC   C3B62589  39.740  31.937   6.986
 4905POPC   C4B62590  39.503  31.769   7.296
 4906POPC   NC362591  18.592  42.613   5.350
 4906POPC   PO462592  18.123  42.025   5.217
 4906POPC   GL162593  18.078  42.268   5.669
 4906POPC   GL262594  18.363  42.338   5.878
 4906POPC   C1A62595  17.954  42.471   6.099
 4906POPC   D2A62596  18.163  42.204   6.385
 4906POPC   C3A62597  18.151  42.181   6.806
 4906POPC   C4A62598  18.097  42.333   7.215
 4906POPC   C1B62599  18.595  42.472   6.237
 4906POPC   C2B62600  18.787  42.402   6.636
 4906POPC   C3B62601  18.585  42.357   7.011
 4906POPC   C4B62602  18.485  41.946   7.145
 4907POPC   NC362603  42.291  31.612   5.477
 4907POPC   PO462604  42.661  31.059   5.320
 4907POPC   GL162605  42.472  31.166   5.703
 4907POPC   GL262606  42.793  31.200   5.838
 4907POPC   C1A62607  42.274  31.268   6.120
 4907POPC   D2A62608  42.174  31.168   6.582
 4907POPC   C3A62609  42.174  31.545   6.897
 4907POPC   C4A62610  42.415  31.793   7.204
 4907POPC   C1B62611  42.789  30.916   6.177
 4907POPC   C2B62612  42.647  30.879   6.578
 4907POPC   C3B62613  42.638  31.235   6.830
 4907POPC   C4B62614  42.524  31.307   7.206
 4908POPC   NC362615  40.723  14.364   5.378
 4908POPC   PO462616  41.205  14.781   5.439
 4908POPC   GL162617  40.907  14.567   5.793
 4908POPC   GL262618  40.941  14.178   5.807
 4908POPC   C1A62619  40.582  14.411   6.117
 4908POPC   D2A62620  40.705  14.542   6.553
 4908POPC   C3A62621  40.515  14.653   6.978
 4908POPC   C4A62622  40.429  14.304   7.278
 4908POPC   C1B62623  40.954  14.071   6.230
 4908POPC   C2B62624  41.107  14.247   6.607
 4908POPC   C3B62625  41.015  14.504   6.954
 4908POPC   C4B62626  41.013  14.253   7.280
 4909POPC   NC362627  41.157  18.418   5.412
 4909POPC   PO462628  40.663  18.051   5.125
 4909POPC   GL162629  40.759  18.220   5.635
 4909POPC   GL262630  41.012  17.994   5.869
 4909POPC   C1A62631  40.859  18.431   6.063
 4909POPC   D2A62632  40.694  18.345   6.468
 4909POPC   C3A62633  40.670  18.200   6.887
 4909POPC   C4A62634  40.686  18.516   7.215
 4909POPC   C1B62635  41.074  18.003   6.339
 4909POPC   C2B62636  41.163  18.285   6.683
 4909POPC   C3B62637  41.127  18.196   7.116
 4909POPC   C4B62638  41.035  17.816   7.314
 4910POPC   NC362639  10.967  18.438   5.595
 4910POPC   PO462640  10.423  18.181   5.387
 4910POPC   GL162641  10.487  18.221   5.813
 4910POPC   GL262642  10.785  18.068   5.919
 4910POPC   C1A62643  10.403  18.174   6.239
 4910POPC   D2A62644  10.670  18.072   6.577
 4910POPC   C3A62645  10.455  18.240   6.926
 4910POPC   C4A62646  10.370  18.110   7.312
 4910POPC   C1B62647  10.855  18.428   6.225
 4910POPC   C2B62648  10.839  18.560   6.636
 4910POPC   C3B62649  10.960  18.286   6.959
 4910POPC   C4B62650  10.866  18.370   7.351
 4911POPC   NC362651  39.431  14.048   5.552
 4911POPC   PO462652  39.089  14.724   5.373
 4911POPC   GL162653  39.095  14.567   5.783
 4911POPC   GL262654  39.051  14.248   5.800
 4911POPC   C1A62655  39.119  14.600   6.227
 4911POPC   D2A62656  39.166  14.704   6.644
 4911POPC   C3A62657  39.351  14.543   7.009
 4911POPC   C4A62658  39.526  14.873   7.260
 4911POPC   C1B62659  38.992  14.109   6.215
 4911POPC   C2B62660  39.137  14.175   6.657
 4911POPC   C3B62661  39.068  14.117   7.112
 4911POPC   C4B62662  39.001  14.012   7.576
 4912POPC   NC362663  31.415   9.589   5.469
 4912POPC   PO462664  31.667  10.165   5.647
 4912POPC   GL162665  31.362   9.925   5.905
 4912POPC   GL262666  31.279   9.572   5.971
 4912POPC   C1A62667  31.459   9.909   6.355
 4912POPC   D2A62668  31.598  10.098   6.736
 4912POPC   C3A62669  31.712   9.798   7.047
 4912POPC   C4A62670  31.867   9.565   7.388
 4912POPC   C1B62671  31.452   9.373   6.290
 4912POPC   C2B62672  31.526   9.505   6.666
 4912POPC   C3B62673  31.541   9.297   6.984
 4912POPC   C4B62674  31.350   9.474   7.314
 4913POPC   NC362675   4.070  17.316   5.629
 4913POPC   PO462676   4.705  17.610   5.570
 4913POPC   GL162677   4.465  17.470   5.950
 4913POPC   GL262678   4.439  17.095   5.922
 4913POPC   C1A62679   4.176  17.605   6.319
 4913POPC   D2A62680   4.012  17.646   6.773
 4913POPC   C3A62681   4.334  17.512   7.077
 4913POPC   C4A62682   4.433  17.628   7.513
 4913POPC   C1B62683   4.059  17.077   6.220
 4913POPC   C2B62684   3.936  17.110   6.636
 4913POPC   C3B62685   3.919  17.195   7.047
 4913POPC   C4B62686   4.155  17.207   7.453
 4914POPC   NC362687  22.898  20.284   5.315
 4914POPC   PO462688  23.194  19.638   5.475
 4914POPC   GL162689  23.078  19.548   5.896
 4914POPC   GL262690  22.929  19.876   5.899
 4914POPC   C1A62691  23.033  19.561   6.368
 4914POPC   D2A62692  22.739  19.724   6.677
 4914POPC   C3A62693  22.857  19.636   7.093
 4914POPC   C4A62694  22.734  20.031   7.211
 4914POPC   C1B62695  23.252  19.990   6.225
 4914POPC   C2B62696  23.144  20.210   6.629
 4914POPC   C3B62697  23.297  20.205   7.050
 4914POPC   C4B62698  23.238  19.919   7.378
 4915POPC   NC362699  27.109  23.047   5.569
 4915POPC   PO462700  26.703  22.569   5.415
 4915POPC   GL162701  26.708  22.785   5.822
 4915POPC   GL262702  26.568  23.122   5.892
 4915POPC   C1A62703  26.920  22.758   6.230
 4915POPC   D2A62704  26.790  22.680   6.679
 4915POPC   C3A62705  27.002  22.822   7.066
 4915POPC   C4A62706  26.880  22.816   7.523
 4915POPC   C1B62707  26.656  23.172   6.373
 4915POPC   C2B62708  26.704  23.209   6.833
 4915POPC   C3B62709  26.513  22.928   7.176
 4915POPC   C4B62710  26.395  23.002   7.621
 4916POPC   NC362711   4.641  12.121   5.456
 4916POPC   PO462712   5.201  12.449   5.425
 4916POPC   GL162713   5.059  12.242   5.806
 4916POPC   GL262714   4.888  12.538   5.894
 4916POPC   C1A62715   5.290  12.002   6.176
 4916POPC   D2A62716   5.201  11.819   6.607
 4916POPC   C3A62717   5.197  12.010   7.041
 4916POPC   C4A62718   5.213  11.769   7.448
 4916POPC   C1B62719   4.735  12.416   6.320
 4916POPC   C2B62720   4.803  12.151   6.706
 4916POPC   C3B62721   4.695  12.092   7.166
 4916POPC   C4B62722   4.432  12.328   7.474
 4917POPC   NC362723  16.802  33.960   5.514
 4917POPC   PO462724  16.306  33.541   5.313
 4917POPC   GL162725  16.560  33.527   5.717
 4917POPC   GL262726  16.480  33.878   5.881
 4917POPC   C1A62727  16.841  33.592   6.088
 4917POPC   D2A62728  16.797  33.840   6.450
 4917POPC   C3A62729  16.932  33.577   6.776
 4917POPC   C4A62730  16.966  33.632   7.174
 4917POPC   C1B62731  16.381  34.149   6.214
 4917POPC   C2B62732  16.241  34.059   6.632
 4917POPC   C3B62733  16.581  33.981   6.916
 4917POPC   C4B62734  16.663  34.051   7.330
 4918POPC   NC362735   0.675  21.086   5.350
 4918POPC   PO462736   0.829  20.473   5.522
 4918POPC   GL162737   1.083  20.387   5.856
 4918POPC   GL262738   0.907  20.671   6.017
 4918POPC   C1A62739   1.168  20.322   6.280
 4918POPC   D2A62740   0.964  20.380   6.648
 4918POPC   C3A62741   1.219  20.294   7.007
 4918POPC   C4A62742   1.314  20.603   7.330
 4918POPC   C1B62743   1.220  20.813   6.334
 4918POPC   C2B62744   1.247  20.801   6.800
 4918POPC   C3B62745   1.152  21.053   7.174
 4918POPC   C4B62746   1.141  20.981   7.640
 4919POPC   NC362747  36.301  38.179   5.250
 4919POPC   PO462748  36.211  38.794   5.186
 4919POPC   GL162749  36.255  38.578   5.622
 4919POPC   GL262750  36.040  38.258   5.694
 4919POPC   C1A62751  36.380  38.724   6.069
 4919POPC   D2A62752  36.398  38.507   6.502
 4919POPC   C3A62753  36.268  38.714   6.861
 4919POPC   C4A62754  36.435  38.746   7.286
 4919POPC   C1B62755  36.091  38.306   6.146
 4919POPC   C2B62756  35.933  38.279   6.595
 4919POPC   C3B62757  36.114  38.262   7.022
 4919POPC   C4B62758  36.086  38.433   7.482
 4920POPC   NC362759  44.850  36.336   5.600
 4920POPC   PO462760  44.302  36.009   5.325
 4920POPC   GL162761  44.457  36.029   5.732
 4920POPC   GL262762  44.376  36.401   5.760
 4920POPC   C1A62763  44.600  35.835   6.141
 4920POPC   D2A62764  44.622  35.691   6.574
 4920POPC   C3A62765  44.851  35.886   6.891
 4920POPC   C4A62766  44.721  35.977   7.296
 4920POPC   C1B62767  44.616  36.336   6.183
 4920POPC   C2B62768  44.736  36.351   6.624
 4920POPC   C3B62769  44.786  36.453   7.066
 4920POPC   C4B62770  44.732  36.561   7.525
 4921POPC   NC362771   3.231  14.150   5.616
 4921POPC   PO462772   3.490  13.576   5.346
 4921POPC   GL162773   3.488  13.719   5.759
 4921POPC   GL262774   3.831  13.830   5.754
 4921POPC   C1A62775   3.259  13.728   6.183
 4921POPC   D2A62776   3.115  13.643   6.616
 4921POPC   C3A62777   3.375  13.586   6.946
 4921POPC   C4A62778   3.542  13.191   7.094
 4921POPC   C1B62779   3.764  13.615   6.156
 4921POPC   C2B62780   3.686  13.500   6.538
 4921POPC   C3B62781   3.880  13.531   6.917
 4921POPC   C4B62782   3.796  13.815   7.209
 4922POPC   NC362783  20.774  14.041   5.613
 4922POPC   PO462784  20.394  13.502   5.560
 4922POPC   GL162785  20.253  13.519   5.958
 4922POPC   GL262786  20.379  13.208   5.988
 4922POPC   C1A62787  20.458  13.712   6.329
 4922POPC   D2A62788  20.889  13.826   6.534
 4922POPC   C3A62789  20.806  13.888   6.976
 4922POPC   C4A62790  20.367  13.861   7.132
 4922POPC   C1B62791  20.796  13.369   6.147
 4922POPC   C2B62792  20.981  13.312   6.566
 4922POPC   C3B62793  20.924  13.369   7.026
 4922POPC   C4B62794  20.492  13.346   7.211
 4923POPC   NC362795  18.956   7.604   5.329
 4923POPC   PO462796  19.497   7.619   5.681
 4923POPC   GL162797  19.211   7.494   5.970
 4923POPC   GL262798  18.915   7.610   5.840
 4923POPC   C1A62799  18.946   7.176   6.125
 4923POPC   D2A62800  18.787   7.126   6.499
 4923POPC   C3A62801  19.117   7.075   6.782
 4923POPC   C4A62802  18.992   7.117   7.194
 4923POPC   C1B62803  18.718   7.628   6.241
 4923POPC   C2B62804  18.669   7.597   6.681
 4923POPC   C3B62805  18.681   7.519   7.104
 4923POPC   C4B62806  18.909   7.795   7.414
 4924POPC   NC362807   9.629  39.301   5.230
 4924POPC   PO462808   9.349  39.824   5.510
 4924POPC   GL162809   9.714  39.475   5.697
 4924POPC   GL262810   9.614  39.154   5.729
 4924POPC   C1A62811  10.032  39.304   6.052
 4924POPC   D2A62812   9.946  39.121   6.489
 4924POPC   C3A62813  10.115  39.262   6.913
 4924POPC   C4A62814  10.028  39.240   7.372
 4924POPC   C1B62815   9.527  39.149   6.162
 4924POPC   C2B62816   9.433  39.036   6.616
 4924POPC   C3B62817   9.600  39.139   7.057
 4924POPC   C4B62818   9.626  38.973   7.515
 4925POPC   NC362819   4.782  33.933   5.488
 4925POPC   PO462820   5.443  34.299   5.506
 4925POPC   GL162821   5.200  34.121   5.838
 4925POPC   GL262822   5.117  33.757   5.863
 4925POPC   C1A62823   4.993  34.156   6.231
 4925POPC   D2A62824   4.888  33.873   6.564
 4925POPC   C3A62825   4.941  34.008   6.955
 4925POPC   C4A62826   5.129  34.001   7.350
 4925POPC   C1B62827   4.963  33.491   6.224
 4925POPC   C2B62828   5.039  33.350   6.630
 4925POPC   C3B62829   5.127  33.502   7.012
 4925POPC   C4B62830   4.921  33.551   7.382
 4926POPC   NC362831  22.767  12.934   5.445
 4926POPC   PO462832  23.263  12.541   5.206
 4926POPC   GL162833  23.071  12.538   5.629
 4926POPC   GL262834  23.147  12.861   5.792
 4926POPC   C1A62835  23.039  12.480   6.100
 4926POPC   D2A62836  23.079  12.733   6.476
 4926POPC   C3A62837  23.183  12.683   6.899
 4926POPC   C4A62838  23.131  12.921   7.270
 4926POPC   C1B62839  22.843  13.004   6.116
 4926POPC   C2B62840  22.877  13.199   6.527
 4926POPC   C3B62841  22.799  13.025   6.905
 4926POPC   C4B62842  22.621  13.054   7.331
 4927POPC   NC362843  23.263  18.471   5.414
 4927POPC   PO462844  22.593  18.165   5.433
 4927POPC   GL162845  22.754  18.211   5.818
 4927POPC   GL262846  22.836  18.548   5.764
 4927POPC   C1A62847  22.683  18.209   6.266
 4927POPC   D2A62848  22.852  18.255   6.683
 4927POPC   C3A62849  22.946  18.024   7.078
 4927POPC   C4A62850  22.984  17.922   7.548
 4927POPC   C1B62851  22.733  18.736   6.170
 4927POPC   C2B62852  22.842  18.764   6.617
 4927POPC   C3B62853  22.869  18.610   7.044
 4927POPC   C4B62854  22.797  18.394   7.399
 4928POPC   NC362855  19.703  39.957   5.079
 4928POPC   PO462856  20.104  40.347   5.496
 4928POPC   GL162857  19.819  40.217   5.804
 4928POPC   GL262858  19.915  40.486   6.000
 4928POPC   C1A62859  19.941  40.028   6.211
 4928POPC   D2A62860  20.086  40.072   6.628
 4928POPC   C3A62861  19.783  39.861   6.852
 4928POPC   C4A62862  19.790  39.750   7.263
 4928POPC   C1B62863  19.655  40.416   6.365
 4928POPC   C2B62864  19.662  40.347   6.779
 4928POPC   C3B62865  19.771  40.267   7.193
 4928POPC   C4B62866  19.733  40.543   7.529
 4929POPC   NC362867  32.232  40.440   5.697
 4929POPC   PO462868  32.526  40.858   5.314
 4929POPC   GL162869  32.469  40.864   5.794
 4929POPC   GL262870  32.679  40.573   5.859
 4929POPC   C1A62871  32.148  40.917   6.206
 4929POPC   D2A62872  31.790  40.916   6.549
 4929POPC   C3A62873  32.003  40.862   6.958
 4929POPC   C4A62874  32.290  40.979   7.312
 4929POPC   C1B62875  32.497  40.555   6.287
 4929POPC   C2B62876  32.429  40.726   6.699
 4929POPC   C3B62877  32.540  40.564   7.134
 4929POPC   C4B62878  32.604  40.662   7.594
 4930POPC   NC362879  14.184  12.852   5.245
 4930POPC   PO462880  14.662  12.719   5.678
 4930POPC   GL162881  14.435  12.888   5.963
 4930POPC   GL262882  14.119  12.951   5.787
 4930POPC   C1A62883  14.456  12.593   6.317
 4930POPC   D2A62884  14.655  12.643   6.693
 4930POPC   C3A62885  14.528  12.966   6.919
 4930POPC   C4A62886  14.617  12.751   7.237
 4930POPC   C1B62887  13.996  12.785   6.217
 4930POPC   C2B62888  14.110  12.761   6.661
 4930POPC   C3B62889  14.038  12.962   7.037
 4930POPC   C4B62890  13.830  12.808   7.402
 4931POPC   NC362891  35.875  39.064   5.374
 4931POPC   PO462892  36.530  39.397   5.372
 4931POPC   GL162893  36.269  39.326   5.755
 4931POPC   GL262894  36.021  39.608   5.832
 4931POPC   C1A62895  36.434  39.240   6.186
 4931POPC   D2A62896  36.590  39.018   6.541
 4931POPC   C3A62897  36.503  39.147   6.950
 4931POPC   C4A62898  36.340  39.254   7.353
 4931POPC   C1B62899  35.982  39.474   6.299
 4931POPC   C2B62900  36.068  39.209   6.685
 4931POPC   C3B62901  35.941  39.031   7.097
 4931POPC   C4B62902  35.724  39.209   7.412
 4932POPC   NC362903  26.494  30.710   5.698
 4932POPC   PO462904  27.105  30.718   5.465
 4932POPC   GL162905  26.952  30.818   5.871
 4932POPC   GL262906  26.922  30.457   5.903
 4932POPC   C1A62907  26.760  30.745   6.288
 4932POPC   D2A62908  26.865  30.566   6.650
 4932POPC   C3A62909  26.808  30.812   7.017
 4932POPC   C4A62910  27.012  31.192   7.173
 4932POPC   C1B62911  27.016  30.200   6.269
 4932POPC   C2B62912  26.959  30.071   6.701
 4932POPC   C3B62913  27.058  30.332   7.055
 4932POPC   C4B62914  26.858  30.492   7.435
 4933POPC   NC362915  38.064  15.366   5.098
 4933POPC   PO462916  38.679  15.170   5.507
 4933POPC   GL162917  38.440  15.109   5.829
 4933POPC   GL262918  38.256  14.779   5.785
 4933POPC   C1A62919  38.423  15.366   6.206
 4933POPC   D2A62920  38.320  15.258   6.634
 4933POPC   C3A62921  38.580  15.436   6.915
 4933POPC   C4A62922  38.614  15.155   7.212
 4933POPC   C1B62923  38.197  14.910   6.221
 4933POPC   C2B62924  38.344  14.737   6.599
 4933POPC   C3B62925  38.234  14.872   7.005
 4933POPC   C4B62926  38.134  15.288   7.159
 4934POPC   NC362927   4.694  32.425   5.543
 4934POPC   PO462928   5.318  32.455   5.708
 4934POPC   GL162929   5.184  32.119   5.923
 4934POPC   GL262930   4.797  32.065   5.929
 4934POPC   C1A62931   5.215  32.112   6.353
 4934POPC   D2A62932   5.060  31.956   6.696
 4934POPC   C3A62933   5.250  32.051   7.061
 4934POPC   C4A62934   5.420  32.053   7.441
 4934POPC   C1B62935   4.866  32.448   6.204
 4934POPC   C2B62936   4.945  32.442   6.631
 4934POPC   C3B62937   4.866  32.389   7.045
 4934POPC   C4B62938   4.642  32.603   7.357
 4935POPC   NC362939  15.547  25.042   5.153
 4935POPC   PO462940  14.914  25.170   5.347
 4935POPC   GL162941  14.958  25.024   5.762
 4935POPC   GL262942  15.125  25.321   5.885
 4935POPC   C1A62943  15.103  24.900   6.189
 4935POPC   D2A62944  15.273  25.210   6.424
 4935POPC   C3A62945  15.178  25.164   6.835
 4935POPC   C4A62946  15.356  24.991   7.180
 4935POPC   C1B62947  14.809  25.321   6.192
 4935POPC   C2B62948  14.825  25.475   6.617
 4935POPC   C3B62949  14.919  25.587   7.042
 4935POPC   C4B62950  15.017  25.310   7.345
 4936POPC   NC362951   8.421  40.112   5.127
 4936POPC   PO462952   7.841  39.849   5.463
 4936POPC   GL162953   8.055  40.029   5.781
 4936POPC   GL262954   8.365  40.132   5.638
 4936POPC   C1A62955   7.944  40.159   6.197
 4936POPC   D2A62956   7.962  39.910   6.554
 4936POPC   C3A62957   8.096  40.108   6.916
 4936POPC   C4A62958   7.925  40.025   7.322
 4936POPC   C1B62959   8.444  40.109   6.074
 4936POPC   C2B62960   8.475  39.959   6.495
 4936POPC   C3B62961   8.405  39.712   6.861
 4936POPC   C4B62962   8.378  39.755   7.274
 4937POPC   NC362963  40.293   5.318   5.490
 4937POPC   PO462964  39.754   4.919   5.325
 4937POPC   GL162965  39.996   4.979   5.712
 4937POPC   GL262966  39.803   5.255   5.784
 4937POPC   C1A62967  40.007   4.908   6.180
 4937POPC   D2A62968  40.215   5.051   6.580
 4937POPC   C3A62969  40.138   4.831   6.968
 4937POPC   C4A62970  40.407   4.620   7.269
 4937POPC   C1B62971  39.878   5.405   6.201
 4937POPC   C2B62972  39.766   5.292   6.608
 4937POPC   C3B62973  39.971   5.343   6.992
 4937POPC   C4B62974  40.188   5.199   7.346
 4938POPC   NC362975  30.236  17.327   5.600
 4938POPC   PO462976  30.394  17.890   5.491
 4938POPC   GL162977  29.958  17.902   5.707
 4938POPC   GL262978  29.823  17.556   5.813
 4938POPC   C1A62979  29.787  17.937   6.147
 4938POPC   D2A62980  29.681  17.716   6.554
 4938POPC   C3A62981  29.871  17.816   6.970
 4938POPC   C4A62982  30.003  17.705   7.396
 4938POPC   C1B62983  30.016  17.399   6.235
 4938POPC   C2B62984  30.165  17.498   6.655
 4938POPC   C3B62985  30.043  17.329   7.044
 4938POPC   C4B62986  30.153  17.208   7.453
 4939POPC   NC362987  17.872  32.366   5.406
 4939POPC   PO462988  17.180  32.344   5.433
 4939POPC   GL162989  17.421  32.133   5.788
 4939POPC   GL262990  17.694  32.320   5.875
 4939POPC   C1A62991  17.324  31.995   6.229
 4939POPC   D2A62992  17.185  32.252   6.608
 4939POPC   C3A62993  17.339  32.165   7.049
 4939POPC   C4A62994  17.266  32.393   7.448
 4939POPC   C1B62995  17.568  32.437   6.272
 4939POPC   C2B62996  17.717  32.238   6.630
 4939POPC   C3B62997  17.830  32.333   7.018
 4939POPC   C4B62998  17.751  32.145   7.429
 4940POPC   NC362999  44.669   6.421   5.316
 4940POPC   PO463000  44.662   7.032   5.523
 4940POPC   GL163001  44.550   6.640   5.775
 4940POPC   GL263002  44.847   6.401   5.814
 4940POPC   C1A63003  44.484   6.406   6.176
 4940POPC   D2A63004  44.313   6.413   6.602
 4940POPC   C3A63005  44.629   6.572   6.887
 4940POPC   C4A63006  44.622   6.890   7.187
 4940POPC   C1B63007  44.914   6.761   6.131
 4940POPC   C2B63008   0.164   6.907   6.510
 4940POPC   C3B63009   0.076   6.858   6.950
 4940POPC   C4B63010   0.046   6.490   7.185
 4941POPC   NC363011  27.963  24.630   5.319
 4941POPC   PO463012  28.622  24.305   5.322
 4941POPC   GL163013  28.425  24.298   5.738
 4941POPC   GL263014  28.073  24.372   5.769
 4941POPC   C1A63015  28.488  24.180   6.185
 4941POPC   D2A63016  28.439  24.410   6.576
 4941POPC   C3A63017  28.548  24.368   7.017
 4941POPC   C4A63018  28.471  24.699   7.344
 4941POPC   C1B63019  28.074  24.495   6.212
 4941POPC   C2B63020  27.962  24.594   6.673
 4941POPC   C3B63021  27.996  24.640   7.127
 4941POPC   C4B63022  28.027  24.773   7.584
 4942POPC   NC363023  38.577  25.562   5.119
 4942POPC   PO463024  38.116  25.156   5.529
 4942POPC   GL163025  38.456  25.224   5.800
 4942POPC   GL263026  38.729  24.961   5.741
 4942POPC   C1A63027  38.329  25.470   6.195
 4942POPC   D2A63028  38.083  25.529   6.615
 4942POPC   C3A63029  38.319  25.567   7.005
 4942POPC   C4A63030  38.415  25.423   7.433
 4942POPC   C1B63031  38.785  25.192   6.190
 4942POPC   C2B63032  38.549  25.258   6.615
 4942POPC   C3B63033  38.556  25.118   7.051
 4942POPC   C4B63034  38.718  24.921   7.471
 4943POPC   NC363035  10.897  22.133   5.460
 4943POPC   PO463036  11.493  22.433   5.365
 4943POPC   GL163037  11.560  22.421   5.784
 4943POPC   GL263038  11.565  22.063   5.757
 4943POPC   C1A63039  11.301  22.509   6.168
 4943POPC   D2A63040  10.997  22.260   6.454
 4943POPC   C3A63041  11.134  22.140   6.871
 4943POPC   C4A63042  11.188  22.281   7.275
 4943POPC   C1B63043  11.324  21.987   6.119
 4943POPC   C2B63044  11.498  22.099   6.497
 4943POPC   C3B63045  11.623  21.990   6.896
 4943POPC   C4B63046  11.704  22.027   7.308
 4944POPC   NC363047  43.452  41.344   5.387
 4944POPC   PO463048  42.822  41.665   5.462
 4944POPC   GL163049  43.050  41.739   5.823
 4944POPC   GL263050  43.381  41.729   5.714
 4944POPC   C1A63051  43.001  41.660   6.268
 4944POPC   D2A63052  43.143  41.517   6.668
 4944POPC   C3A63053  42.976  41.774   7.012
 4944POPC   C4A63054  42.820  41.700   7.418
 4944POPC   C1B63055  43.473  41.511   6.132
 4944POPC   C2B63056  43.650  41.613   6.554
 4944POPC   C3B63057  43.497  41.748   6.966
 4944POPC   C4B63058  43.343  41.642   7.361
 4945POPC   NC363059  33.079  27.011   5.342
 4945POPC   PO463060  33.176  26.342   5.320
 4945POPC   GL163061  33.097  26.629   5.740
 4945POPC   GL263062  33.158  26.966   5.838
 4945POPC   C1A63063  32.902  26.576   6.200
 4945POPC   D2A63064  32.787  26.514   6.696
 4945POPC   C3A63065  32.839  26.813   7.101
 4945POPC   C4A63066  32.753  27.016   7.551
 4945POPC   C1B63067  33.295  26.921   6.256
 4945POPC   C2B63068  33.197  26.834   6.678
 4945POPC   C3B63069  33.349  26.925   7.061
 4945POPC   C4B63070  33.138  27.213   7.283
 4946POPC   NC363071   7.316  38.770   5.634
 4946POPC   PO463072   7.034  38.067   5.526
 4946POPC   GL163073   7.144  38.203   5.898
 4946POPC   GL263074   7.143  38.502   6.018
 4946POPC   C1A63075   7.487  38.179   6.204
 4946POPC   D2A63076   7.647  38.423   6.498
 4946POPC   C3A63077   7.684  38.197   6.885
 4946POPC   C4A63078   7.567  38.220   7.312
 4946POPC   C1B63079   7.324  38.839   6.276
 4946POPC   C2B63080   7.603  38.946   6.573
 4946POPC   C3B63081   7.707  38.716   6.904
 4946POPC   C4B63082   7.342  38.642   7.151
 4947POPC   NC363083  18.953  19.316   5.363
 4947POPC   PO463084  19.042  18.627   5.507
 4947POPC   GL163085  19.003  18.998   5.766
 4947POPC   GL263086  19.201  19.344   5.793
 4947POPC   C1A63087  18.857  19.021   6.184
 4947POPC   D2A63088  19.042  19.198   6.549
 4947POPC   C3A63089  19.151  18.967   6.934
 4947POPC   C4A63090  18.784  18.917   7.119
 4947POPC   C1B63091  19.361  19.103   6.117
 4947POPC   C2B63092  19.529  19.111   6.490
 4947POPC   C3B63093  19.456  19.340   6.844
 4947POPC   C4B63094  19.483  19.258   7.288
 4948POPC   NC363095  17.767   1.887   5.349
 4948POPC   PO463096  17.207   2.271   5.452
 4948POPC   GL163097  17.418   2.214   5.847
 4948POPC   GL263098  17.503   1.854   5.823
 4948POPC   C1A63099  17.679   2.118   6.241
 4948POPC   D2A63100  17.779   1.930   6.667
 4948POPC   C3A63101  17.646   2.210   7.003
 4948POPC   C4A63102  17.336   2.341   7.310
 4948POPC   C1B63103  17.218   1.874   6.184
 4948POPC   C2B63104  17.272   2.109   6.570
 4948POPC   C3B63105  17.230   1.941   6.968
 4948POPC   C4B63106  17.136   1.849   7.368
 4949POPC   NC363107  25.906  30.984   5.200
 4949POPC   PO463108  26.327  30.423   5.373
 4949POPC   GL163109  25.992  30.610   5.720
 4949POPC   GL263110  25.661  30.418   5.752
 4949POPC   C1A63111  26.069  30.807   6.177
 4949POPC   D2A63112  26.335  30.993   6.523
 4949POPC   C3A63113  26.276  30.817   6.946
 4949POPC   C4A63114  26.348  30.596   7.323
 4949POPC   C1B63115  25.548  30.551   6.160
 4949POPC   C2B63116  25.769  30.622   6.555
 4949POPC   C3B63117  25.732  30.781   6.965
 4949POPC   C4B63118  25.556  30.482   7.214
 4950POPC   NC363119  32.882  21.442   5.446
 4950POPC   PO463120  33.220  22.083   5.314
 4950POPC   GL163121  33.297  21.749   5.692
 4950POPC   GL263122  33.300  21.373   5.749
 4950POPC   C1A63123  33.217  21.653   6.171
 4950POPC   D2A63124  33.301  21.675   6.636
 4950POPC   C3A63125  33.064  21.548   7.022
 4950POPC   C4A63126  33.145  21.456   7.470
 4950POPC   C1B63127  33.314  21.124   6.143
 4950POPC   C2B63128  33.130  21.078   6.548
 4950POPC   C3B63129  33.243  21.063   6.970
 4950POPC   C4B63130  32.937  21.037   7.265
 4951POPC   NC363131  19.333   9.141   5.427
 4951POPC   PO463132  18.931   8.673   5.574
 4951POPC   GL163133  18.878   8.935   5.919
 4951POPC   GL263134  19.210   9.116   5.947
 4951POPC   C1A63135  18.875   9.035   6.357
 4951POPC   D2A63136  19.089   9.025   6.750
 4951POPC   C3A63137  18.989   8.905   7.149
 4951POPC   C4A63138  19.302   8.686   7.376
 4951POPC   C1B63139  19.372   9.239   6.368
 4951POPC   C2B63140  19.391   9.424   6.807
 4951POPC   C3B63141  19.388   9.241   7.250
 4951POPC   C4B63142  19.311   9.491   7.684
 4952POPC   NC363143  12.117  14.364   5.296
 4952POPC   PO463144  12.573  13.850   5.455
 4952POPC   GL163145  12.217  14.145   5.750
 4952POPC   GL263146  11.852  14.324   5.742
 4952POPC   C1A63147  12.233  14.355   6.191
 4952POPC   D2A63148  12.260  14.623   6.579
 4952POPC   C3A63149  11.949  14.668   6.914
 4952POPC   C4A63150  12.099  14.564   7.314
 4952POPC   C1B63151  11.794  14.120   6.133
 4952POPC   C2B63152  11.804  14.349   6.522
 4952POPC   C3B63153  11.831  14.180   6.939
 4952POPC   C4B63154  11.706  14.075   7.320
 4953POPC   NC363155  42.869  39.719   5.450
 4953POPC   PO463156  43.279  39.109   5.373
 4953POPC   GL163157  43.134  39.124   5.793
 4953POPC   GL263158  43.015  39.458   5.851
 4953POPC   C1A63159  43.259  39.222   6.221
 4953POPC   D2A63160  43.479  39.022   6.544
 4953POPC   C3A63161  43.294  39.110   6.885
 4953POPC   C4A63162  43.391  39.004   7.274
 4953POPC   C1B63163  42.852  39.638   6.241
 4953POPC   C2B63164  42.631  39.741   6.633
 4953POPC   C3B63165  42.778  39.718   7.067
 4953POPC   C4B63166  43.047  39.398   7.227
 4954POPC   NC363167  38.540  30.747   5.532
 4954POPC   PO463168  38.076  31.299   5.507
 4954POPC   GL163169  38.148  30.960   5.846
 4954POPC   GL263170  38.070  30.600   5.725
 4954POPC   C1A63171  38.487  30.876   6.186
 4954POPC   D2A63172  38.603  30.598   6.546
 4954POPC   C3A63173  38.576  30.726   6.973
 4954POPC   C4A63174  38.505  30.843   7.389
 4954POPC   C1B63175  38.122  30.525   6.164
 4954POPC   C2B63176  38.071  30.548   6.612
 4954POPC   C3B63177  38.049  30.756   7.012
 4954POPC   C4B63178  38.210  30.435   7.244
 4955POPC   NC363179   9.947  26.970   5.293
 4955POPC   PO463180   9.561  26.548   5.586
 4955POPC   GL163181   9.808  26.812   5.788
 4955POPC   GL263182   9.599  27.100   5.712
 4955POPC   C1A63183   9.829  26.658   6.215
 4955POPC   D2A63184   9.551  26.446   6.514
 4955POPC   C3A63185   9.762  26.595   6.858
 4955POPC   C4A63186   9.799  26.511   7.248
 4955POPC   C1B63187   9.743  27.177   6.146
 4955POPC   C2B63188   9.885  27.064   6.569
 4955POPC   C3B63189   9.845  27.106   6.998
 4955POPC   C4B63190   9.880  26.984   7.438
 4956POPC   NC363191  42.672  12.536   5.594
 4956POPC   PO463192  42.388  12.062   5.168
 4956POPC   GL163193  42.274  12.009   5.659
 4956POPC   GL263194  42.207  12.337   5.704
 4956POPC   C1A63195  42.399  12.036   6.110
 4956POPC   D2A63196  42.266  12.029   6.532
 4956POPC   C3A63197  42.529  11.988   6.893
 4956POPC   C4A63198  42.332  11.987   7.276
 4956POPC   C1B63199  42.035  12.397   6.102
 4956POPC   C2B63200  41.978  12.478   6.546
 4956POPC   C3B63201  42.114  12.315   6.942
 4956POPC   C4B63202  42.247  12.513   7.316
 4957POPC   NC363203  38.687   7.592   5.275
 4957POPC   PO463204  38.167   7.210   5.437
 4957POPC   GL163205  38.282   7.393   5.835
 4957POPC   GL263206  38.113   7.716   5.808
 4957POPC   C1A63207  38.477   7.603   6.211
 4957POPC   D2A63208  38.479   7.798   6.634
 4957POPC   C3A63209  38.643   7.527   6.939
 4957POPC   C4A63210  38.672   7.459   7.368
 4957POPC   C1B63211  37.976   7.601   6.228
 4957POPC   C2B63212  38.147   7.410   6.630
 4957POPC   C3B63213  38.132   7.507   7.086
 4957POPC   C4B63214  38.161   7.568   7.538
 4958POPC   NC363215   9.470  10.885   5.501
 4958POPC   PO463216   9.111  11.408   5.254
 4958POPC   GL163217   9.022  11.363   5.750
 4958POPC   GL263218   8.786  11.091   5.868
 4958POPC   C1A63219   8.937  11.511   6.198
 4958POPC   D2A63220   8.760  11.442   6.641
 4958POPC   C3A63221   8.901  11.577   7.059
 4958POPC   C4A63222   8.897  11.410   7.464
 4958POPC   C1B63223   8.867  11.000   6.297
 4958POPC   C2B63224   8.629  10.925   6.678
 4958POPC   C3B63225   8.664  10.823   7.110
 4958POPC   C4B63226   9.012  10.921   7.380
 4959POPC   NC363227  36.005  28.166   5.482
 4959POPC   PO463228  35.877  28.836   5.352
 4959POPC   GL163229  36.029  28.589   5.793
 4959POPC   GL263230  36.302  28.352   5.866
 4959POPC   C1A63231  35.909  28.398   6.227
 4959POPC   D2A63232  36.026  28.376   6.672
 4959POPC   C3A63233  35.789  28.165   7.017
 4959POPC   C4A63234  35.634  28.364   7.403
 4959POPC   C1B63235  36.486  28.192   6.240
 4959POPC   C2B63236  36.380  27.933   6.584
 4959POPC   C3B63237  36.302  28.075   6.973
 4959POPC   C4B63238  36.313  28.511   7.109
 4960POPC   NC363239  36.374   3.885   5.435
 4960POPC   PO463240  36.014   3.310   5.069
 4960POPC   GL163241  36.021   3.574   5.575
 4960POPC   GL263242  35.700   3.680   5.739
 4960POPC   C1A63243  36.138   3.641   6.049
 4960POPC   D2A63244  36.210   3.347   6.433
 4960POPC   C3A63245  36.236   3.555   6.872
 4960POPC   C4A63246  36.299   3.692   7.337
 4960POPC   C1B63247  35.648   3.537   6.169
 4960POPC   C2B63248  35.830   3.678   6.549
 4960POPC   C3B63249  35.731   3.614   6.981
 4960POPC   C4B63250  35.826   3.838   7.325
 4961POPC   NC363251  25.075  29.512   5.517
 4961POPC   PO463252  25.577  29.891   5.250
 4961POPC   GL163253  25.385  29.919   5.700
 4961POPC   GL263254  25.679  29.926   5.907
 4961POPC   C1A63255  25.248  29.693   6.115
 4961POPC   D2A63256  25.096  29.839   6.534
 4961POPC   C3A63257  25.138  29.651   6.943
 4961POPC   C4A63258  25.151  29.745   7.381
 4961POPC   C1B63259  25.601  29.986   6.332
 4961POPC   C2B63260  25.568  29.853   6.752
 4961POPC   C3B63261  25.573  29.974   7.173
 4961POPC   C4B63262  25.588  30.150   7.602
 4962POPC   NC363263   3.070  43.900   5.432
 4962POPC   PO463264   2.537  44.170   5.142
 4962POPC   GL163265   2.554  44.063   5.597
 4962POPC   GL263266   2.808  44.126   5.825
 4962POPC   C1A63267   2.456  43.813   5.995
 4962POPC   D2A63268   2.395  43.691   6.426
 4962POPC   C3A63269   2.440  43.987   6.794
 4962POPC   C4A63270   2.421  43.897   7.234
 4962POPC   C1B63271   2.785  44.087   6.286
 4962POPC   C2B63272   2.879  43.771   6.611
 4962POPC   C3B63273   2.886  43.724   7.047
 4962POPC   C4B63274   2.892  44.088   7.316
 4963POPC   NC363275  21.535   1.723   5.330
 4963POPC   PO463276  21.607   2.478   5.374
 4963POPC   GL163277  21.416   2.166   5.650
 4963POPC   GL263278  21.718   2.035   5.749
 4963POPC   C1A63279  21.321   2.111   6.119
 4963POPC   D2A63280  21.166   2.017   6.571
 4963POPC   C3A63281  21.283   2.094   7.004
 4963POPC   C4A63282  21.078   1.941   7.381
 4963POPC   C1B63283  21.704   1.761   6.119
 4963POPC   C2B63284  21.572   1.644   6.551
 4963POPC   C3B63285  21.741   1.879   6.916
 4963POPC   C4B63286  21.866   1.866   7.348
 4964POPC   NC363287   1.411  32.409   5.256
 4964POPC   PO463288   0.850  32.412   5.654
 4964POPC   GL163289   1.102  32.314   5.954
 4964POPC   GL263290   1.196  31.955   5.986
 4964POPC   C1A63291   1.298  32.542   6.252
 4964POPC   D2A63292   1.436  32.559   6.640
 4964POPC   C3A63293   1.181  32.333   6.841
 4964POPC   C4A63294   1.041  32.485   7.184
 4964POPC   C1B63295   0.970  32.082   6.388
 4964POPC   C2B63296   0.924  31.888   6.809
 4964POPC   C3B63297   1.114  31.953   7.205
 4964POPC   C4B63298   1.454  32.219   7.272
 4965POPC   NC363299  39.737  12.474   5.552
 4965POPC   PO463300  40.263  12.072   5.458
 4965POPC   GL163301  40.346  12.278   5.837
 4965POPC   GL263302  40.030  12.332   5.951
 4965POPC   C1A63303  40.427  12.337   6.266
 4965POPC   D2A63304  40.170  12.113   6.530
 4965POPC   C3A63305  40.217  12.151   6.957
 4965POPC   C4A63306  40.101  11.908   7.287
 4965POPC   C1B63307  39.781  12.510   6.297
 4965POPC   C2B63308  39.793  12.427   6.742
 4965POPC   C3B63309  39.738  12.273   7.147
 4965POPC   C4B63310  39.484  12.176   7.533
 4966POPC   NC363311  16.590  12.468   5.361
 4966POPC   PO463312  16.560  13.150   5.354
 4966POPC   GL163313  16.636  12.936   5.793
 4966POPC   GL263314  16.823  12.646   5.794
 4966POPC   C1A63315  16.492  12.830   6.231
 4966POPC   D2A63316  16.516  13.054   6.642
 4966POPC   C3A63317  16.570  12.847   7.044
 4966POPC   C4A63318  16.678  12.841   7.518
 4966POPC   C1B63319  17.019  12.746   6.208
 4966POPC   C2B63320  17.003  12.867   6.667
 4966POPC   C3B63321  17.062  12.674   7.082
 4966POPC   C4B63322  17.173  12.623   7.526
 4967POPC   NC363323  23.424  32.875   5.530
 4967POPC   PO463324  22.727  32.705   5.425
 4967POPC   GL163325  22.952  33.003   5.682
 4967POPC   GL263326  23.058  32.749   5.891
 4967POPC   C1A63327  22.942  33.237   6.084
 4967POPC   D2A63328  22.895  33.052   6.500
 4967POPC   C3A63329  22.735  33.202   6.887
 4967POPC   C4A63330  22.777  32.991   7.267
 4967POPC   C1B63331  22.951  32.583   6.288
 4967POPC   C2B63332  23.226  32.676   6.599
 4967POPC   C3B63333  23.229  32.940   6.929
 4967POPC   C4B63334  23.224  32.749   7.295
 4968POPC   NC363335  13.460   4.109   5.606
 4968POPC   PO463336  13.767   3.559   5.344
 4968POPC   GL163337  13.692   3.439   5.772
 4968POPC   GL263338  13.962   3.636   5.895
 4968POPC   C1A63339  13.583   3.282   6.181
 4968POPC   D2A63340  13.712   3.450   6.569
 4968POPC   C3A63341  13.666   3.203   6.943
 4968POPC   C4A63342  13.620   3.333   7.341
 4968POPC   C1B63343  13.649   3.802   6.189
 4968POPC   C2B63344  13.591   3.954   6.617
 4968POPC   C3B63345  13.540   3.704   6.989
 4968POPC   C4B63346  13.549   3.824   7.435
 4969POPC   NC363347  29.984  24.636   5.440
 4969POPC   PO463348  29.465  24.167   5.626
 4969POPC   GL163349  29.762  24.298   5.923
 4969POPC   GL263350  30.076  24.418   5.881
 4969POPC   C1A63351  29.896  24.252   6.341
 4969POPC   D2A63352  29.655  24.432   6.651
 4969POPC   C3A63353  29.810  24.396   7.023
 4969POPC   C4A63354  29.815  24.513   7.440
 4969POPC   C1B63355  30.299  24.580   6.226
 4969POPC   C2B63356  30.185  24.522   6.663
 4969POPC   C3B63357  30.207  24.718   7.060
 4969POPC   C4B63358  30.299  24.694   7.491
 4970POPC   NC363359  33.059  28.701   5.361
 4970POPC   PO463360  32.792  28.039   5.388
 4970POPC   GL163361  32.966  28.327   5.720
 4970POPC   GL263362  32.742  28.647   5.752
 4970POPC   C1A63363  33.157  28.339   6.133
 4970POPC   D2A63364  33.177  28.118   6.518
 4970POPC   C3A63365  33.176  28.322   6.923
 4970POPC   C4A63366  33.041  28.192   7.340
 4970POPC   C1B63367  32.867  28.769   6.142
 4970POPC   C2B63368  33.006  28.626   6.526
 4970POPC   C3B63369  32.968  28.814   6.901
 4970POPC   C4B63370  33.029  28.696   7.273
 4971POPC   NC363371  42.946   6.280   5.235
 4971POPC   PO463372  43.219   6.966   5.498
 4971POPC   GL163373  43.193   6.838   5.933
 4971POPC   GL263374  43.168   6.508   5.866
 4971POPC   C1A63375  42.880   6.713   6.288
 4971POPC   D2A63376  42.599   6.850   6.652
 4971POPC   C3A63377  42.744   6.734   7.103
 4971POPC   C4A63378  42.846   6.872   7.529
 4971POPC   C1B63379  43.299   6.403   6.278
 4971POPC   C2B63380  43.285   6.588   6.686
 4971POPC   C3B63381  43.242   6.407   7.096
 4971POPC   C4B63382  43.088   6.434   7.523
 4972POPC   NC363383  11.165  32.160   5.533
 4972POPC   PO463384  11.530  32.699   5.539
 4972POPC   GL163385  11.412  32.518   5.923
 4972POPC   GL263386  11.339  32.174   5.993
 4972POPC   C1A63387  11.277  32.586   6.342
 4972POPC   D2A63388  11.236  32.338   6.699
 4972POPC   C3A63389  11.237  32.535   7.097
 4972POPC   C4A63390  11.383  32.455   7.494
 4972POPC   C1B63391  11.195  31.824   6.258
 4972POPC   C2B63392  11.212  31.821   6.704
 4972POPC   C3B63393  11.293  31.989   7.084
 4972POPC   C4B63394  11.103  31.766   7.325
 4973POPC   NC363395  10.864   6.127   5.639
 4973POPC   PO463396  10.376   5.671   5.477
 4973POPC   GL163397  10.526   5.796   5.857
 4973POPC   GL263398  10.374   6.144   5.890
 4973POPC   C1A63399  10.585   5.827   6.287
 4973POPC   D2A63400  10.310   6.094   6.489
 4973POPC   C3A63401  10.170   6.021   6.875
 4973POPC   C4A63402  10.309   5.801   7.208
 4973POPC   C1B63403  10.682   6.319   6.212
 4973POPC   C2B63404  10.929   6.146   6.533
 4973POPC   C3B63405  10.705   6.011   6.880
 4973POPC   C4B63406  10.808   5.725   7.195
 4974POPC   NC363407   9.205  26.608   5.292
 4974POPC   PO463408   8.764  27.103   5.268
 4974POPC   GL163409   8.815  26.856   5.652
 4974POPC   GL263410   9.162  26.809   5.780
 4974POPC   C1A63411   8.796  26.918   6.129
 4974POPC   D2A63412   8.938  26.664   6.497
 4974POPC   C3A63413   8.936  26.892   6.876
 4974POPC   C4A63414   8.903  26.759   7.284
 4974POPC   C1B63415   9.341  26.804   6.212
 4974POPC   C2B63416   9.407  26.917   6.674
 4974POPC   C3B63417   9.408  26.853   7.144
 4974POPC   C4B63418   9.498  26.708   7.599
 4975POPC   NC363419  19.119  27.609   5.165
 4975POPC   PO463420  18.474  27.435   5.374
 4975POPC   GL163421  18.683  27.615   5.817
 4975POPC   GL263422  19.044  27.534   5.774
 4975POPC   C1A63423  18.904  27.801   6.204
 4975POPC   D2A63424  19.030  28.016   6.618
 4975POPC   C3A63425  18.951  27.711   6.969
 4975POPC   C4A63426  18.830  27.297   7.163
 4975POPC   C1B63427  19.065  27.310   6.190
 4975POPC   C2B63428  19.092  27.305   6.659
 4975POPC   C3B63429  19.325  27.354   7.047
 4975POPC   C4B63430  19.412  27.766   7.215
 4976POPC   NC363431  41.207  31.551   5.647
 4976POPC   PO463432  41.893  31.361   5.515
 4976POPC   GL163433  41.662  31.429   5.867
 4976POPC   GL263434  41.506  31.119   5.833
 4976POPC   C1A63435  41.497  31.583   6.268
 4976POPC   D2A63436  41.487  31.832   6.674
 4976POPC   C3A63437  41.558  31.645   7.112
 4976POPC   C4A63438  41.705  31.685   7.574
 4976POPC   C1B63439  41.757  31.089   6.231
 4976POPC   C2B63440  41.678  31.288   6.644
 4976POPC   C3B63441  41.857  31.173   7.011
 4976POPC   C4B63442  41.621  31.090   7.305
 4977POPC   NC363443  16.620  15.250   5.382
 4977POPC   PO463444  17.193  14.977   5.563
 4977POPC   GL163445  16.851  15.163   5.830
 4977POPC   GL263446  16.491  15.001   5.815
 4977POPC   C1A63447  16.759  15.058   6.241
 4977POPC   D2A63448  17.068  14.964   6.503
 4977POPC   C3A63449  16.973  15.056   6.906
 4977POPC   C4A63450  17.187  14.991   7.277
 4977POPC   C1B63451  16.227  15.035   6.189
 4977POPC   C2B63452  16.261  15.246   6.590
 4977POPC   C3B63453  16.360  15.129   7.018
 4977POPC   C4B63454  16.668  15.055   7.319
 4978POPC   NC363455  26.496  24.134   5.741
 4978POPC   PO463456  26.712  24.620   5.393
 4978POPC   GL163457  26.880  24.499   5.769
 4978POPC   GL263458  27.126  24.253   5.637
 4978POPC   C1A63459  26.781  24.607   6.213
 4978POPC   D2A63460  26.727  24.796   6.636
 4978POPC   C3A63461  26.970  24.589   6.957
 4978POPC   C4A63462  27.048  24.664   7.375
 4978POPC   C1B63463  27.160  24.228   6.088
 4978POPC   C2B63464  26.962  24.061   6.427
 4978POPC   C3B63465  26.887  24.079   6.872
 4978POPC   C4B63466  26.961  24.148   7.311
 4979POPC   NC363467  10.256  20.275   5.455
 4979POPC   PO463468  10.804  20.696   5.361
 4979POPC   GL163469  10.858  20.760   5.799
 4979POPC   GL263470  10.621  20.476   5.854
 4979POPC   C1A63471  10.824  20.715   6.267
 4979POPC   D2A63472  10.474  20.573   6.520
 4979POPC   C3A63473  10.470  20.716   6.955
 4979POPC   C4A63474  10.871  20.883   7.110
 4979POPC   C1B63475  10.316  20.224   6.115
 4979POPC   C2B63476  10.146  20.161   6.509
 4979POPC   C3B63477  10.265  20.207   6.918
 4979POPC   C4B63478  10.270  20.359   7.322
 4980POPC   NC363479  30.523  23.898   5.443
 4980POPC   PO463480  30.829  23.255   5.535
 4980POPC   GL163481  30.592  23.517   5.777
 4980POPC   GL263482  30.817  23.793   5.830
 4980POPC   C1A63483  30.498  23.606   6.181
 4980POPC   D2A63484  30.765  23.511   6.488
 4980POPC   C3A63485  30.785  23.750   6.833
 4980POPC   C4A63486  30.669  23.679   7.203
 4980POPC   C1B63487  30.911  23.974   6.221
 4980POPC   C2B63488  31.137  24.019   6.587
 4980POPC   C3B63489  31.037  24.211   6.954
 4980POPC   C4B63490  30.717  24.183   7.203
 4981POPC   NC363491  29.030  32.430   4.912
 4981POPC   PO463492  29.244  31.988   5.381
 4981POPC   GL163493  29.041  32.106   5.798
 4981POPC   GL263494  29.366  32.159   5.870
 4981POPC   C1A63495  29.004  32.297   6.204
 4981POPC   D2A63496  29.165  32.580   6.516
 4981POPC   C3A63497  29.138  32.339   6.885
 4981POPC   C4A63498  29.235  32.409   7.283
 4981POPC   C1B63499  29.524  32.335   6.208
 4981POPC   C2B63500  29.591  32.151   6.585
 4981POPC   C3B63501  29.602  32.177   6.999
 4981POPC   C4B63502  29.350  31.903   7.181
 4982POPC   NC363503  22.764  43.117   5.382
 4982POPC   PO463504  23.326  43.126   5.721
 4982POPC   GL163505  22.948  42.983   5.897
 4982POPC   GL263506  22.608  43.127   5.852
 4982POPC   C1A63507  22.761  43.041   6.326
 4982POPC   D2A63508  22.715  43.226   6.717
 4982POPC   C3A63509  23.096  43.132   6.886
 4982POPC   C4A63510  23.074  43.082   7.279
 4982POPC   C1B63511  22.542  42.693   6.025
 4982POPC   C2B63512  22.524  42.615   6.497
 4982POPC   C3B63513  22.761  42.727   6.895
 4982POPC   C4B63514  22.637  42.776   7.316
 4983POPC   NC363515  20.068  14.162   5.456
 4983POPC   PO463516  20.035  14.840   5.386
 4983POPC   GL163517  19.925  14.568   5.743
 4983POPC   GL263518  19.618  14.335   5.704
 4983POPC   C1A63519  19.955  14.343   6.137
 4983POPC   D2A63520  20.052  14.468   6.537
 4983POPC   C3A63521  20.162  14.237   6.843
 4983POPC   C4A63522  19.985  14.213   7.246
 4983POPC   C1B63523  19.462  14.226   6.118
 4983POPC   C2B63524  19.549  14.469   6.483
 4983POPC   C3B63525  19.607  14.326   6.892
 4983POPC   C4B63526  19.302  14.309   7.239
 4984POPC   NC363527  42.783  30.606   5.369
 4984POPC   PO463528  42.068  30.446   5.476
 4984POPC   GL163529  42.226  30.723   5.789
 4984POPC   GL263530  42.570  30.655   5.821
 4984POPC   C1A63531  42.248  30.781   6.234
 4984POPC   D2A63532  42.182  30.618   6.650
 4984POPC   C3A63533  42.306  30.881   6.993
 4984POPC   C4A63534  42.694  30.831   7.211
 4984POPC   C1B63535  42.609  30.421   6.216
 4984POPC   C2B63536  42.814  30.216   6.553
 4984POPC   C3B63537  42.625  30.457   6.862
 4984POPC   C4B63538  42.285  30.396   7.136
 4985POPC   NC363539   0.254   5.181   5.523
 4985POPC   PO463540   0.770   4.799   5.440
 4985POPC   GL163541   0.618   4.992   5.848
 4985POPC   GL263542   0.706   5.275   6.023
 4985POPC   C1A63543   0.286   4.972   6.193
 4985POPC   D2A63544   0.194   5.158   6.606
 4985POPC   C3A63545   0.233   4.936   6.995
 4985POPC   C4A63546   0.274   5.114   7.415
 4985POPC   C1B63547   0.690   5.172   6.447
 4985POPC   C2B63548   0.677   5.162   6.871
 4985POPC   C3B63549   0.675   5.363   7.222
 4985POPC   C4B63550   0.746   5.211   7.639
 4986POPC   NC363551  37.839  31.869   5.624
 4986POPC   PO463552  37.351  31.450   5.395
 4986POPC   GL163553  37.523  31.528   5.822
 4986POPC   GL263554  37.400  31.828   5.921
 4986POPC   C1A63555  37.661  31.378   6.228
 4986POPC   D2A63556  37.477  31.335   6.649
 4986POPC   C3A63557  37.813  31.354   6.936
 4986POPC   C4A63558  37.829  31.253   7.370
 4986POPC   C1B63559  37.733  31.900   6.231
 4986POPC   C2B63560  37.895  31.726   6.554
 4986POPC   C3B63561  37.777  31.874   6.915
 4986POPC   C4B63562  37.601  31.703   7.239
 4987POPC   NC363563   1.977   5.457   5.388
 4987POPC   PO463564   1.822   6.121   5.348
 4987POPC   GL163565   1.865   5.978   5.778
 4987POPC   GL263566   1.556   6.184   5.839
 4987POPC   C1A63567   2.153   5.873   6.154
 4987POPC   D2A63568   2.254   5.544   6.480
 4987POPC   C3A63569   2.168   5.627   6.928
 4987POPC   C4A63570   2.059   5.987   7.170
 4987POPC   C1B63571   1.755   6.188   6.250
 4987POPC   C2B63572   1.861   6.041   6.681
 4987POPC   C3B63573   1.649   6.266   7.041
 4987POPC   C4B63574   1.748   6.290   7.460
 4988POPC   NC363575   0.586  26.721   5.303
 4988POPC   PO463576   0.122  27.061   5.396
 4988POPC   GL163577   0.345  26.920   5.757
 4988POPC   GL263578   0.690  27.088   5.720
 4988POPC   C1A63579   0.481  26.841   6.203
 4988POPC   D2A63580   0.688  27.096   6.557
 4988POPC   C3A63581   0.485  27.056   6.969
 4988POPC   C4A63582   0.298  26.673   7.154
 4988POPC   C1B63583   0.954  26.958   6.086
 4988POPC   C2B63584   0.882  26.618   6.421
 4988POPC   C3B63585   0.622  26.508   6.791
 4988POPC   C4B63586   0.776  26.521   7.241
 4989POPC   NC363587  37.123  18.417   5.469
 4989POPC   PO463588  36.679  17.972   5.528
 4989POPC   GL163589  37.036  18.009   5.860
 4989POPC   GL263590  37.045  18.368   5.977
 4989POPC   C1A63591  37.032  18.010   6.334
 4989POPC   D2A63592  36.830  18.245   6.640
 4989POPC   C3A63593  36.876  18.101   7.055
 4989POPC   C4A63594  36.513  18.255   7.277
 4989POPC   C1B63595  37.127  18.590   6.397
 4989POPC   C2B63596  37.173  18.531   6.881
 4989POPC   C3B63597  36.947  18.529   7.330
 4989POPC   C4B63598  36.840  18.504   7.800
 4990POPC   NC363599   7.690   2.016   5.407
 4990POPC   PO463600   7.216   1.540   5.262
 4990POPC   GL163601   7.311   1.859   5.689
 4990POPC   GL263602   7.308   2.235   5.717
 4990POPC   C1A63603   7.433   1.919   6.146
 4990POPC   D2A63604   7.359   1.603   6.481
 4990POPC   C3A63605   7.449   1.659   6.922
 4990POPC   C4A63606   7.714   1.824   7.239
 4990POPC   C1B63607   7.165   2.354   6.155
 4990POPC   C2B63608   7.225   2.133   6.568
 4990POPC   C3B63609   7.298   2.144   7.005
 4990POPC   C4B63610   7.077   2.306   7.326
 4991POPC   NC363611   8.492  13.802   5.481
 4991POPC   PO463612   7.892  13.520   5.603
 4991POPC   GL163613   8.068  13.757   5.898
 4991POPC   GL263614   8.380  13.571   5.925
 4991POPC   C1A63615   7.901  13.672   6.300
 4991POPC   D2A63616   7.966  13.311   6.550
 4991POPC   C3A63617   8.056  13.437   6.954
 4991POPC   C4A63618   7.880  13.816   7.106
 4991POPC   C1B63619   8.377  13.808   6.307
 4991POPC   C2B63620   8.237  13.860   6.707
 4991POPC   C3B63621   8.405  13.769   7.078
 4991POPC   C4B63622   8.575  13.742   7.455
 4992POPC   NC363623  31.062   4.806   5.405
 4992POPC   PO463624  31.470   5.362   5.372
 4992POPC   GL163625  31.296   5.130   5.784
 4992POPC   GL263626  31.583   5.081   5.936
 4992POPC   C1A63627  31.214   5.018   6.264
 4992POPC   D2A63628  31.464   4.704   6.536
 4992POPC   C3A63629  31.534   4.706   7.005
 4992POPC   C4A63630  31.303   4.742   7.455
 4992POPC   C1B63631  31.728   5.097   6.346
 4992POPC   C2B63632  31.646   5.166   6.767
 4992POPC   C3B63633  31.672   5.157   7.205
 4992POPC   C4B63634  31.772   5.236   7.619
 4993POPC   NC363635  18.454  17.035   5.573
 4993POPC   PO463636  18.181  17.665   5.419
 4993POPC   GL163637  18.274  17.478   5.809
 4993POPC   GL263638  18.051  17.203   5.863
 4993POPC   C1A63639  18.418  17.616   6.193
 4993POPC   D2A63640  18.482  17.463   6.629
 4993POPC   C3A63641  18.349  17.749   6.920
 4993POPC   C4A63642  18.185  17.711   7.307
 4993POPC   C1B63643  18.109  17.225   6.300
 4993POPC   C2B63644  18.152  17.071   6.690
 4993POPC   C3B63645  18.175  17.263   7.061
 4993POPC   C4B63646  18.359  17.228   7.440
 4994POPC   NC363647  40.441  16.514   5.557
 4994POPC   PO463648  40.928  16.458   5.153
 4994POPC   GL163649  40.844  16.804   5.580
 4994POPC   GL263650  40.906  16.567   5.817
 4994POPC   C1A63651  40.843  17.030   6.020
 4994POPC   D2A63652  40.961  16.882   6.455
 4994POPC   C3A63653  40.799  16.997   6.875
 4994POPC   C4A63654  40.900  16.828   7.288
 4994POPC   C1B63655  40.609  16.570   6.183
 4994POPC   C2B63656  40.477  16.672   6.594
 4994POPC   C3B63657  40.524  16.569   7.018
 4994POPC   C4B63658  40.361  16.805   7.298
 4995POPC   NC363659  37.850  17.777   5.395
 4995POPC   PO463660  37.381  17.271   5.410
 4995POPC   GL163661  37.669  17.417   5.732
 4995POPC   GL263662  37.512  17.734   5.799
 4995POPC   C1A63663  37.857  17.486   6.153
 4995POPC   D2A63664  38.060  17.586   6.567
 4995POPC   C3A63665  37.854  17.755   6.947
 4995POPC   C4A63666  37.811  17.574   7.353
 4995POPC   C1B63667  37.385  17.676   6.190
 4995POPC   C2B63668  37.530  17.525   6.571
 4995POPC   C3B63669  37.370  17.495   6.945
 4995POPC   C4B63670  37.219  17.746   7.252
 4996POPC   NC363671  16.548  34.874   5.505
 4996POPC   PO463672  16.408  34.242   5.514
 4996POPC   GL163673  16.687  34.472   5.830
 4996POPC   GL263674  16.925  34.795   5.842
 4996POPC   C1A63675  16.787  34.551   6.272
 4996POPC   D2A63676  16.688  34.417   6.676
 4996POPC   C3A63677  16.596  34.731   6.977
 4996POPC   C4A63678  16.671  34.647   7.381
 4996POPC   C1B63679  17.153  34.940   6.232
 4996POPC   C2B63680  17.038  34.828   6.682
 4996POPC   C3B63681  17.113  34.782   7.141
 4996POPC   C4B63682  17.098  34.829   7.589
 4997POPC   NC363683  30.011   8.050   5.364
 4997POPC   PO463684  29.719   8.547   5.735
 4997POPC   GL163685  29.997   8.261   5.889
 4997POPC   GL263686  29.882   7.926   5.850
 4997POPC   C1A63687  29.979   8.141   6.328
 4997POPC   D2A63688  29.917   8.388   6.696
 4997POPC   C3A63689  30.116   8.174   7.014
 4997POPC   C4A63690  30.050   8.066   7.414
 4997POPC   C1B63691  29.532   7.970   6.120
 4997POPC   C2B63692  29.490   8.011   6.578
 4997POPC   C3B63693  29.606   8.087   7.036
 4997POPC   C4B63694  29.607   7.826   7.445
 4998POPC   NC363695  31.571  19.457   5.628
 4998POPC   PO463696  31.791  20.064   5.444
 4998POPC   GL163697  31.578  19.985   5.813
 4998POPC   GL263698  31.295  19.811   5.865
 4998POPC   C1A63699  31.720  19.948   6.239
 4998POPC   D2A63700  31.689  20.194   6.628
 4998POPC   C3A63701  31.643  20.014   7.027
 4998POPC   C4A63702  31.897  19.870   7.325
 4998POPC   C1B63703  31.198  19.873   6.300
 4998POPC   C2B63704  31.292  19.767   6.744
 4998POPC   C3B63705  31.157  19.851   7.195
 4998POPC   C4B63706  31.194  19.644   7.666
 4999POPC   NC363707  29.770   7.127   5.470
 4999POPC   PO463708  30.242   7.691   5.570
 4999POPC   GL163709  30.029   7.426   5.855
 4999POPC   GL263710  30.186   7.125   5.802
 4999POPC   C1A63711  29.985   7.384   6.316
 4999POPC   D2A63712  29.734   7.558   6.643
 4999POPC   C3A63713  29.875   7.646   7.055
 4999POPC   C4A63714  29.701   7.308   7.278
 4999POPC   C1B63715  30.149   6.913   6.173
 4999POPC   C2B63716  30.237   7.006   6.579
 4999POPC   C3B63717  30.090   7.215   6.908
 4999POPC   C4B63718  30.148   7.058   7.315
 5000POPC   NC363719  39.316  24.967   5.529
 5000POPC   PO463720  38.938  25.429   5.362
 5000POPC   GL163721  39.066  25.336   5.766
 5000POPC   GL263722  39.131  25.585   5.859
 5000POPC   C1A63723  39.309  25.208   6.150
 5000POPC   D2A63724  39.409  25.343   6.548
 5000POPC   C3A63725  39.160  25.177   6.857
 5000POPC   C4A63726  39.404  25.314   7.189
 5000POPC   C1B63727  39.186  25.704   6.223
 5000POPC   C2B63728  38.958  25.560   6.534
 5000POPC   C3B63729  38.826  25.566   6.929
 5000POPC   C4B63730  38.919  25.358   7.303
 5001POPC   NC363731  23.241  31.039   5.636
 5001POPC   PO463732  22.696  31.000   5.239
 5001POPC   GL163733  22.832  30.758   5.723
 5001POPC   GL263734  22.636  30.462   5.835
 5001POPC   C1A63735  23.100  30.695   6.166
 5001POPC   D2A63736  23.192  30.908   6.594
 5001POPC   C3A63737  23.112  30.730   7.019
 5001POPC   C4A63738  23.177  30.975   7.421
 5001POPC   C1B63739  22.600  30.710   6.213
 5001POPC   C2B63740  22.676  30.873   6.639
 5001POPC   C3B63741  22.568  30.673   7.034
 5001POPC   C4B63742  22.600  30.593   7.478
 5002POPC   NC363743  30.348   4.553   5.275
 5002POPC   PO463744  30.988   4.296   5.326
 5002POPC   GL163745  30.671   4.263   5.646
 5002POPC   GL263746  30.533   4.561   5.732
 5002POPC   C1A63747  30.621   4.143   6.091
 5002POPC   D2A63748  30.829   3.977   6.458
 5002POPC   C3A63749  30.736   4.148   6.833
 5002POPC   C4A63750  30.713   4.195   7.241
 5002POPC   C1B63751  30.414   4.599   6.139
 5002POPC   C2B63752  30.417   4.415   6.543
 5002POPC   C3B63753  30.300   4.386   6.984
 5002POPC   C4B63754  30.311   4.521   7.417
 5003POPC   NC363755  39.691   6.058   5.189
 5003POPC   PO463756  40.359   5.845   5.351
 5003POPC   GL163757  40.206   5.979   5.748
 5003POPC   GL263758  39.980   5.734   5.811
 5003POPC   C1A63759  40.331   6.005   6.176
 5003POPC   D2A63760  40.155   6.267   6.523
 5003POPC   C3A63761  40.210   6.127   6.921
 5003POPC   C4A63762  39.994   6.196   7.292
 5003POPC   C1B63763  39.821   5.922   6.217
 5003POPC   C2B63764  39.874   5.804   6.666
 5003POPC   C3B63765  39.739   5.799   7.105
 5003POPC   C4B63766  39.833   5.574   7.482
 5004POPC   NC363767   9.225  23.161   5.445
 5004POPC   PO463768   8.569  23.032   5.467
 5004POPC   GL163769   8.813  22.926   5.817
 5004POPC   GL263770   8.732  22.576   5.806
 5004POPC   C1A63771   9.113  22.860   6.172
 5004POPC   D2A63772   9.292  23.092   6.527
 5004POPC   C3A63773   9.203  22.970   6.962
 5004POPC   C4A63774   8.910  23.114   7.267
 5004POPC   C1B63775   8.631  22.686   6.233
 5004POPC   C2B63776   8.793  22.843   6.634
 5004POPC   C3B63777   8.821  22.632   7.038
 5004POPC   C4B63778   8.628  22.759   7.453
 5005POPC   NC363779   5.807  15.575   5.423
 5005POPC   PO463780   5.760  14.939   5.219
 5005POPC   GL163781   5.965  15.139   5.631
 5005POPC   GL263782   6.268  15.419   5.569
 5005POPC   C1A63783   5.755  15.262   6.060
 5005POPC   D2A63784   5.562  15.143   6.483
 5005POPC   C3A63785   5.742  15.278   6.867
 5005POPC   C4A63786   5.630  15.147   7.294
 5005POPC   C1B63787   6.234  15.455   6.015
 5005POPC   C2B63788   6.123  15.346   6.429
 5005POPC   C3B63789   6.206  15.097   6.757
 5005POPC   C4B63790   6.131  15.182   7.177
 5006POPC   NC363791  33.816   3.239   5.139
 5006POPC   PO463792  33.552   3.704   5.424
 5006POPC   GL163793  33.761   3.704   5.791
 5006POPC   GL263794  33.837   3.361   5.787
 5006POPC   C1A63795  33.931   3.845   6.164
 5006POPC   D2A63796  33.931   3.665   6.573
 5006POPC   C3A63797  33.695   3.794   6.959
 5006POPC   C4A63798  33.861   3.790   7.402
 5006POPC   C1B63799  33.549   3.453   6.166
 5006POPC   C2B63800  33.550   3.303   6.580
 5006POPC   C3B63801  33.842   3.298   6.938
 5006POPC   C4B63802  33.640   3.361   7.329
 5007POPC   NC363803  44.946   9.545   5.384
 5007POPC   PO463804   0.072  10.141   5.355
 5007POPC   GL163805  44.716  10.003   5.665
 5007POPC   GL263806  44.535   9.664   5.674
 5007POPC   C1A63807  44.471  10.005   6.095
 5007POPC   D2A63808  44.340   9.817   6.491
 5007POPC   C3A63809  44.657   9.872   6.795
 5007POPC   C4A63810  44.694   9.859   7.235
 5007POPC   C1B63811  44.805   9.608   6.062
 5007POPC   C2B63812  44.958   9.550   6.501
 5007POPC   C3B63813   0.062   9.584   6.950
 5007POPC   C4B63814  44.905   9.381   7.305
 5008POPC   NC363815  29.425  31.579   5.256
 5008POPC   PO463816  30.065  31.458   5.317
 5008POPC   GL163817  29.831  31.440   5.694
 5008POPC   GL263818  29.655  31.774   5.688
 5008POPC   C1A63819  30.036  31.397   6.132
 5008POPC   D2A63820  29.966  31.247   6.555
 5008POPC   C3A63821  30.214  31.447   6.872
 5008POPC   C4A63822  30.248  31.644   7.287
 5008POPC   C1B63823  29.567  31.589   6.099
 5008POPC   C2B63824  29.509  31.478   6.526
 5008POPC   C3B63825  29.675  31.525   6.959
 5008POPC   C4B63826  29.745  31.663   7.411
 5009POPC   NC363827  43.904  32.818   5.526
 5009POPC   PO463828  44.192  33.486   5.479
 5009POPC   GL163829  44.041  33.236   5.825
 5009POPC   GL263830  44.183  32.905   5.935
 5009POPC   C1A63831  43.862  33.234   6.243
 5009POPC   D2A63832  43.886  33.252   6.704
 5009POPC   C3A63833  43.565  33.115   6.957
 5009POPC   C4A63834  43.637  32.932   7.346
 5009POPC   C1B63835  44.241  32.540   6.195
 5009POPC   C2B63836  44.159  32.473   6.631
 5009POPC   C3B63837  44.126  32.820   6.916
 5009POPC   C4B63838  44.145  32.846   7.337
 5010POPC   NC363839   4.032  13.849   5.193
 5010POPC   PO463840   4.458  13.332   5.404
 5010POPC   GL163841   4.312  13.664   5.686
 5010POPC   GL263842   4.609  13.831   5.784
 5010POPC   C1A63843   4.215  13.825   6.112
 5010POPC   D2A63844   4.177  13.688   6.527
 5010POPC   C3A63845   4.225  13.917   6.909
 5010POPC   C4A63846   4.285  13.636   7.243
 5010POPC   C1B63847   4.623  13.521   6.096
 5010POPC   C2B63848   4.547  13.301   6.458
 5010POPC   C3B63849   4.557  13.441   6.861
 5010POPC   C4B63850   4.705  13.270   7.253
 5011POPC   NC363851   7.670  20.274   5.445
 5011POPC   PO463852   7.258  20.900   5.516
 5011POPC   GL163853   7.414  20.618   5.816
 5011POPC   GL263854   7.276  20.865   6.034
 5011POPC   C1A63855   7.402  20.333   6.198
 5011POPC   D2A63856   7.319  20.034   6.545
 5011POPC   C3A63857   7.290  20.230   6.955
 5011POPC   C4A63858   7.564  20.511   7.207
 5011POPC   C1B63859   7.600  20.790   6.305
 5011POPC   C2B63860   7.553  20.595   6.675
 5011POPC   C3B63861   7.500  20.916   6.913
 5011POPC   C4B63862   7.489  21.058   7.289
 5012POPC   NC363863  28.218  32.945   5.187
 5012POPC   PO463864  28.594  33.249   5.619
 5012POPC   GL163865  28.454  32.869   5.855
 5012POPC   GL263866  28.134  32.723   5.707
 5012POPC   C1A63867  28.395  32.893   6.329
 5012POPC   D2A63868  28.511  32.818   6.774
 5012POPC   C3A63869  28.621  33.244   6.984
 5012POPC   C4A63870  28.512  33.441   7.393
 5012POPC   C1B63871  28.010  33.072   5.991
 5012POPC   C2B63872  27.933  33.065   6.440
 5012POPC   C3B63873  28.146  33.167   6.789
 5012POPC   C4B63874  28.225  32.993   7.193
 5013POPC   NC363875  26.026  32.725   5.400
 5013POPC   PO463876  26.114  33.390   5.353
 5013POPC   GL163877  25.875  33.190   5.668
 5013POPC   GL263878  26.186  33.060   5.786
 5013POPC   C1A63879  25.733  33.317   6.088
 5013POPC   D2A63880  25.881  33.387   6.493
 5013POPC   C3A63881  25.855  33.065   6.793
 5013POPC   C4A63882  25.539  33.207   7.093
 5013POPC   C1B63883  26.121  32.982   6.216
 5013POPC   C2B63884  26.344  33.139   6.553
 5013POPC   C3B63885  26.397  32.978   6.944
 5013POPC   C4B63886  26.071  32.763   7.195
 5014POPC   NC363887   0.794  17.175   5.690
 5014POPC   PO463888   0.353  17.540   5.219
 5014POPC   GL163889   0.386  17.660   5.661
 5014POPC   GL263890   0.330  17.332   5.801
 5014POPC   C1A63891   0.529  17.686   6.118
 5014POPC   D2A63892   0.549  17.372   6.476
 5014POPC   C3A63893   0.571  17.528   6.927
 5014POPC   C4A63894   0.307  17.626   7.301
 5014POPC   C1B63895   0.096  17.214   6.148
 5014POPC   C2B63896   0.156  17.018   6.530
 5014POPC   C3B63897   0.208  17.169   6.924
 5014POPC   C4B63898  44.985  17.229   7.304
 5015POPC   NC363899   4.315  19.468   5.034
 5015POPC   PO463900   4.377  20.019   5.382
 5015POPC   GL163901   4.549  20.108   5.777
 5015POPC   GL263902   4.285  19.843   5.861
 5015POPC   C1A63903   4.615  19.986   6.209
 5015POPC   D2A63904   4.326  19.738   6.440
 5015POPC   C3A63905   4.356  19.850   6.866
 5015POPC   C4A63906   4.380  19.819   7.284
 5015POPC   C1B63907   3.986  19.572   6.066
 5015POPC   C2B63908   3.902  19.431   6.508
 5015POPC   C3B63909   3.742  19.517   6.952
 5015POPC   C4B63910   3.954  19.552   7.364
 5016POPC   NC363911  31.099  11.514   5.524
 5016POPC   PO463912  31.462  11.072   5.278
 5016POPC   GL163913  31.308  11.075   5.704
 5016POPC   GL263914  31.486  11.349   5.874
 5016POPC   C1A63915  31.190  11.015   6.145
 5016POPC   D2A63916  31.471  11.054   6.502
 5016POPC   C3A63917  31.405  11.323   6.845
 5016POPC   C4A63918  31.349  11.038   7.185
 5016POPC   C1B63919  31.353  11.524   6.289
 5016POPC   C2B63920  31.221  11.775   6.660
 5016POPC   C3B63921  31.358  11.814   7.097
 5016POPC   C4B63922  31.588  11.464   7.310
 5017POPC   NC363923  20.955  40.485   5.605
 5017POPC   PO463924  20.568  40.955   5.204
 5017POPC   GL163925  20.547  40.871   5.646
 5017POPC   GL263926  20.391  41.108   5.841
 5017POPC   C1A63927  20.504  40.667   6.070
 5017POPC   D2A63928  20.431  40.721   6.544
 5017POPC   C3A63929  20.660  40.668   6.925
 5017POPC   C4A63930  20.738  40.631   7.357
 5017POPC   C1B63931  20.587  41.136   6.259
 5017POPC   C2B63932  20.876  41.038   6.621
 5017POPC   C3B63933  20.927  41.065   7.095
 5017POPC   C4B63934  20.767  41.123   7.534
 5018POPC   NC363935  31.998  33.570   5.451
 5018POPC   PO463936  32.627  33.437   5.527
 5018POPC   GL163937  32.370  33.693   5.815
 5018POPC   GL263938  32.193  34.008   5.692
 5018POPC   C1A63939  32.410  33.816   6.250
 5018POPC   D2A63940  32.280  34.003   6.634
 5018POPC   C3A63941  31.970  33.784   6.825
 5018POPC   C4A63942  32.066  33.537   7.152
 5018POPC   C1B63943  31.989  34.133   6.112
 5018POPC   C2B63944  31.838  34.232   6.543
 5018POPC   C3B63945  31.992  34.252   7.015
 5018POPC   C4B63946  31.983  34.047   7.453
 5019POPC   NC363947  16.167  17.253   5.207
 5019POPC   PO463948  15.971  17.817   5.434
 5019POPC   GL163949  16.011  17.538   5.759
 5019POPC   GL263950  15.691  17.380   5.693
 5019POPC   C1A63951  16.102  17.656   6.188
 5019POPC   D2A63952  15.876  17.731   6.565
 5019POPC   C3A63953  16.103  17.584   6.910
 5019POPC   C4A63954  16.119  17.784   7.293
 5019POPC   C1B63955  15.633  17.441   6.136
 5019POPC   C2B63956  15.767  17.204   6.495
 5019POPC   C3B63957  15.792  17.167   6.925
 5019POPC   C4B63958  15.697  17.501   7.244
 5020POPC   NC363959  36.406   2.980   5.404
 5020POPC   PO463960  36.254   2.331   5.591
 5020POPC   GL163961  36.125   2.722   5.826
 5020POPC   GL263962  36.393   2.969   5.908
 5020POPC   C1A63963  36.093   2.813   6.293
 5020POPC   D2A63964  36.062   2.481   6.592
 5020POPC   C3A63965  36.002   2.597   7.016
 5020POPC   C4A63966  35.896   3.061   7.056
 5020POPC   C1B63967  36.539   2.580   6.152
 5020POPC   C2B63968  36.541   2.651   6.597
 5020POPC   C3B63969  36.315   2.970   6.791
 5020POPC   C4B63970  36.371   3.191   7.195
 5021POPC   NC363971  15.115  33.184   5.482
 5021POPC   PO463972  15.114  32.589   5.241
 5021POPC   GL163973  15.340  32.794   5.753
 5021POPC   GL263974  15.164  33.091   5.979
 5021POPC   C1A63975  15.542  32.873   6.224
 5021POPC   D2A63976  15.430  33.189   6.596
 5021POPC   C3A63977  15.296  33.001   7.054
 5021POPC   C4A63978  15.051  32.959   7.475
 5021POPC   C1B63979  14.937  33.072   6.389
 5021POPC   C2B63980  14.853  33.066   6.819
 5021POPC   C3B63981  14.883  33.364   7.145
 5021POPC   C4B63982  14.502  33.596   7.249
 5022POPC   NC363983  15.777  12.951   5.428
 5022POPC   PO463984  16.266  12.610   5.647
 5022POPC   GL163985  15.972  12.710   5.887
 5022POPC   GL263986  15.714  12.540   5.744
 5022POPC   C1A63987  15.948  12.830   6.303
 5022POPC   D2A63988  16.126  12.704   6.691
 5022POPC   C3A63989  16.047  13.003   6.965
 5022POPC   C4A63990  15.856  13.110   7.324
 5022POPC   C1B63991  15.684  12.377   6.148
 5022POPC   C2B63992  15.677  12.421   6.596
 5022POPC   C3B63993  15.797  12.433   7.029
 5022POPC   C4B63994  15.678  12.651   7.385
 5023POPC   NC363995  27.831  43.674   5.630
 5023POPC   PO463996  27.562  44.251   5.565
 5023POPC   GL163997  27.510  43.982   5.917
 5023POPC   GL263998  27.229  43.758   5.924
 5023POPC   C1A63999  27.707  43.890   6.310
 5023POPC   D2A64000  28.010  43.964   6.646
 5023POPC   C3A64001  27.770  43.924   7.023
 5023POPC   C4A64002  27.804  43.815   7.425
 5023POPC   C1B64003  27.186  43.999   6.344
 5023POPC   C2B64004  27.059  44.219   6.753
 5023POPC   C3B64005  27.282  44.410   7.123
 5023POPC   C4B64006  27.466  44.187   7.506
 5024POPC   NC364007  22.220  36.597   5.284
 5024POPC   PO464008  21.928  35.984   5.556
 5024POPC   GL164009  22.150  36.150   5.865
 5024POPC   GL264010  22.267  36.459   5.781
 5024POPC   C1A64011  22.307  36.001   6.248
 5024POPC   D2A64012  22.083  35.851   6.589
 5024POPC   C3A64013  22.219  35.977   6.959
 5024POPC   C4A64014  21.893  36.016   7.237
 5024POPC   C1B64015  22.296  36.504   6.224
 5024POPC   C2B64016  22.092  36.413   6.606
 5024POPC   C3B64017  22.115  36.453   7.067
 5024POPC   C4B64018  22.514  36.339   7.274
 5025POPC   NC364019  42.773   7.046   5.592
 5025POPC   PO464020  43.042   7.606   5.165
 5025POPC   GL164021  43.045   7.504   5.642
 5025POPC   GL264022  43.336   7.723   5.720
 5025POPC   C1A64023  42.933   7.434   6.125
 5025POPC   D2A64024  43.019   7.155   6.506
 5025POPC   C3A64025  42.861   7.226   6.935
 5025POPC   C4A64026  43.005   7.329   7.356
 5025POPC   C1B64027  43.440   7.586   6.156
 5025POPC   C2B64028  43.237   7.620   6.570
 5025POPC   C3B64029  43.152   7.682   7.016
 5025POPC   C4B64030  43.371   7.901   7.349
 5026POPC   NC364031  40.083  39.033   5.439
 5026POPC   PO464032  39.890  39.666   5.435
 5026POPC   GL164033  40.036  39.446   5.802
 5026POPC   GL264034  39.798  39.222   5.802
 5026POPC   C1A64035  40.174  39.260   6.205
 5026POPC   D2A64036  40.134  39.360   6.630
 5026POPC   C3A64037  40.205  39.185   7.004
 5026POPC   C4A64038  40.290  39.305   7.425
 5026POPC   C1B64039  39.723  39.023   6.189
 5026POPC   C2B64040  39.873  38.928   6.562
 5026POPC   C3B64041  39.798  38.829   6.967
 5026POPC   C4B64042  39.745  39.184   7.243
 5027POPC   NC364043   5.584  13.746   5.459
 5027POPC   PO464044   6.284  13.805   5.352
 5027POPC   GL164045   6.027  13.784   5.754
 5027POPC   GL264046   5.945  13.434   5.845
 5027POPC   C1A64047   5.847  13.805   6.205
 5027POPC   D2A64048   5.773  13.536   6.654
 5027POPC   C3A64049   5.701  13.751   7.057
 5027POPC   C4A64050   6.001  13.780   7.436
 5027POPC   C1B64051   5.594  13.370   6.195
 5027POPC   C2B64052   5.383  13.210   6.600
 5027POPC   C3B64053   5.593  13.174   7.009
 5027POPC   C4B64054   5.942  13.318   7.245
 5028POPC   NC364055  34.089  25.259   5.472
 5028POPC   PO464056  34.587  25.659   5.369
 5028POPC   GL164057  34.514  25.442   5.765
 5028POPC   GL264058  34.190  25.440   5.937
 5028POPC   C1A64059  34.626  25.273   6.204
 5028POPC   D2A64060  34.479  25.191   6.634
 5028POPC   C3A64061  34.781  25.131   6.970
 5028POPC   C4A64062  34.809  25.328   7.376
 5028POPC   C1B64063  34.003  25.418   6.354
 5028POPC   C2B64064  34.038  25.403   6.803
 5028POPC   C3B64065  34.333  25.329   7.149
 5028POPC   C4B64066  34.304  25.485   7.562
 5029POPC   NC364067   0.776  25.410   5.503
 5029POPC   PO464068   0.235  24.997   5.351
 5029POPC   GL164069   0.495  25.026   5.736
 5029POPC   GL264070   0.331  25.348   5.829
 5029POPC   C1A64071   0.610  25.125   6.193
 5029POPC   D2A64072   0.614  25.404   6.570
 5029POPC   C3A64073   0.456  25.181   6.921
 5029POPC   C4A64074   0.629  24.895   7.215
 5029POPC   C1B64075   0.254  25.574   6.241
 5029POPC   C2B64076   0.132  25.608   6.638
 5029POPC   C3B64077   0.367  25.696   6.956
 5029POPC   C4B64078   0.428  25.487   7.331
 5030POPC   NC364079  28.100  20.899   5.318
 5030POPC   PO464080  27.973  20.283   5.574
 5030POPC   GL164081  28.122  20.624   5.806
 5030POPC   GL264082  28.431  20.802   5.778
 5030POPC   C1A64083  28.065  20.675   6.237
 5030POPC   D2A64084  28.276  20.777   6.596
 5030POPC   C3A64085  28.139  20.546   6.958
 5030POPC   C4A64086  28.282  20.677   7.374
 5030POPC   C1B64087  28.681  20.878   6.169
 5030POPC   C2B64088  28.794  20.703   6.596
 5030POPC   C3B64089  28.618  20.832   7.026
 5030POPC   C4B64090  28.770  20.870   7.505
 5031POPC   NC364091  20.901  14.915   5.576
 5031POPC   PO464092  20.470  14.380   5.448
 5031POPC   GL164093  20.395  14.324   5.867
 5031POPC   GL264094  20.700  14.474   5.964
 5031POPC   C1A64095  20.454  14.241   6.333
 5031POPC   D2A64096  20.654  14.461   6.688
 5031POPC   C3A64097  20.589  14.330   7.130
 5031POPC   C4A64098  20.448  14.231   7.551
 5031POPC   C1B64099  20.770  14.789   6.263
 5031POPC   C2B64100  20.784  14.971   6.671
 5031POPC   C3B64101  20.819  14.796   7.055
 5031POPC   C4B64102  20.935  14.602   7.474
 5032POPC   NC364103  42.110  43.546   5.611
 5032POPC   PO464104  42.481  44.082   5.355
 5032POPC   GL164105  42.379  43.969   5.775
 5032POPC   GL264106  42.492  43.651   5.936
 5032POPC   C1A64107  42.128  44.018   6.137
 5032POPC   D2A64108  42.054  43.880   6.543
 5032POPC   C3A64109  42.344  44.010   6.838
 5032POPC   C4A64110  42.355  43.860   7.246
 5032POPC   C1B64111  42.167  43.467   6.228
 5032POPC   C2B64112  42.260  43.250   6.573
 5032POPC   C3B64113  42.197  43.506   6.904
 5032POPC   C4B64114  41.969  43.488   7.274
 5033POPC   NC364115  15.480  10.516   5.332
 5033POPC   PO464116  14.767  10.529   5.404
 5033POPC   GL164117  15.076  10.499   5.718
 5033POPC   GL264118  15.273  10.183   5.782
 5033POPC   C1A64119  15.142  10.636   6.121
 5033POPC   D2A64120  15.247  10.608   6.541
 5033POPC   C3A64121  14.995  10.531   6.887
 5033POPC   C4A64122  15.186  10.592   7.271
 5033POPC   C1B64123  15.182  10.125   6.252
 5033POPC   C2B64124  15.265  10.079   6.718
 5033POPC   C3B64125  15.105  10.099   7.166
 5033POPC   C4B64126  15.380  10.216   7.554
 5034POPC   NC364127  23.228  21.936   5.482
 5034POPC   PO464128  22.698  21.534   5.477
 5034POPC   GL164129  22.766  21.570   5.862
 5034POPC   GL264130  22.637  21.230   5.881
 5034POPC   C1A64131  22.975  21.427   6.212
 5034POPC   D2A64132  22.910  21.254   6.620
 5034POPC   C3A64133  23.218  21.469   6.893
 5034POPC   C4A64134  23.318  21.172   7.203
 5034POPC   C1B64135  22.643  21.004   6.233
 5034POPC   C2B64136  22.353  21.120   6.521
 5034POPC   C3B64137  22.448  21.411   6.814
 5034POPC   C4B64138  22.771  21.407   7.142
 5035POPC   NC364139  30.334   5.360   5.373
 5035POPC   PO464140  29.875   4.908   5.351
 5035POPC   GL164141  29.894   5.037   5.780
 5035POPC   GL264142  30.250   5.012   5.827
 5035POPC   C1A64143  29.991   5.383   6.076
 5035POPC   D2A64144  30.156   5.420   6.509
 5035POPC   C3A64145  29.980   5.199   6.857
 5035POPC   C4A64146  30.005   5.283   7.292
 5035POPC   C1B64147  30.101   4.948   6.288
 5035POPC   C2B64148  30.380   4.923   6.640
 5035POPC   C3B64149  30.339   4.903   7.074
 5035POPC   C4B64150  29.901   4.736   7.119
 5036POPC   NC364151   6.891  23.074   5.310
 5036POPC   PO464152   6.391  22.784   5.550
 5036POPC   GL164153   6.742  22.906   5.797
 5036POPC   GL264154   6.808  23.283   5.772
 5036POPC   C1A64155   6.675  22.741   6.220
 5036POPC   D2A64156   6.473  22.813   6.633
 5036POPC   C3A64157   6.817  22.826   6.930
 5036POPC   C4A64158   6.930  22.993   7.314
 5036POPC   C1B64159   6.617  23.260   6.176
 5036POPC   C2B64160   6.770  23.224   6.584
 5036POPC   C3B64161   6.563  23.291   6.972
 5036POPC   C4B64162   6.581  23.612   7.257
 5037POPC   NC364163  17.833  41.826   5.543
 5037POPC   PO464164  17.253  41.536   5.279
 5037POPC   GL164165  17.359  41.482   5.762
 5037POPC   GL264166  17.677  41.284   5.788
 5037POPC   C1A64167  17.600  41.656   6.174
 5037POPC   D2A64168  17.762  41.883   6.567
 5037POPC   C3A64169  17.565  41.741   6.908
 5037POPC   C4A64170  17.559  41.641   7.302
 5037POPC   C1B64171  17.887  41.225   6.199
 5037POPC   C2B64172  17.844  41.375   6.598
 5037POPC   C3B64173  17.849  41.290   7.017
 5037POPC   C4B64174  17.950  41.362   7.440
 5038POPC   NC364175  13.619  42.652   5.216
 5038POPC   PO464176  13.983  42.190   5.548
 5038POPC   GL164177  13.846  42.253   5.908
 5038POPC   GL264178  13.520  42.440   5.898
 5038POPC   C1A64179  13.972  42.282   6.293
 5038POPC   D2A64180  13.791  42.404   6.669
 5038POPC   C3A64181  13.914  42.229   7.050
 5038POPC   C4A64182  13.765  42.307   7.439
 5038POPC   C1B64183  13.340  42.671   6.291
 5038POPC   C2B64184  13.369  42.709   6.765
 5038POPC   C3B64185  13.402  42.393   7.110
 5038POPC   C4B64186  13.328  42.476   7.601
 5039POPC   NC364187  35.745  36.537   5.480
 5039POPC   PO464188  35.186  36.870   5.286
 5039POPC   GL164189  35.299  37.030   5.747
 5039POPC   GL264190  35.614  37.250   5.749
 5039POPC   C1A64191  35.299  37.091   6.229
 5039POPC   D2A64192  35.253  36.854   6.618
 5039POPC   C3A64193  35.331  37.013   7.015
 5039POPC   C4A64194  35.157  37.094   7.412
 5039POPC   C1B64195  35.771  36.971   6.089
 5039POPC   C2B64196  35.796  36.918   6.551
 5039POPC   C3B64197  35.823  37.130   6.961
 5039POPC   C4B64198  35.600  37.342   7.320
 5040POPC   NC364199  38.254   8.381   5.384
 5040POPC   PO464200  38.854   8.033   5.379
 5040POPC   GL164201  38.777   8.069   5.811
 5040POPC   GL264202  38.406   8.149   5.822
 5040POPC   C1A64203  38.679   8.072   6.248
 5040POPC   D2A64204  38.451   8.303   6.534
 5040POPC   C3A64205  38.693   8.236   6.901
 5040POPC   C4A64206  38.627   8.417   7.295
 5040POPC   C1B64207  38.138   8.090   6.181
 5040POPC   C2B64208  37.995   7.972   6.599
 5040POPC   C3B64209  38.209   8.094   6.976
 5040POPC   C4B64210  38.471   7.924   7.283
 5041POPC   NC364211  44.517  12.909   5.226
 5041POPC   PO464212  44.999  12.612   5.587
 5041POPC   GL164213  44.755  12.801   5.907
 5041POPC   GL264214  44.453  12.943   5.757
 5041POPC   C1A64215  44.805  12.947   6.339
 5041POPC   D2A64216  44.911  13.225   6.685
 5041POPC   C3A64217  44.983  12.979   7.040
 5041POPC   C4A64218  44.766  12.763   7.345
 5041POPC   C1B64219  44.310  12.807   6.200
 5041POPC   C2B64220  44.414  12.785   6.663
 5041POPC   C3B64221  44.457  13.058   7.054
 5041POPC   C4B64222  44.437  13.086   7.555
 5042POPC   NC364223  32.799   0.213   5.328
 5042POPC   PO464224  32.911  44.572   5.282
 5042POPC   GL164225  32.743  44.769   5.641
 5042POPC   GL264226  32.603  44.465   5.753
 5042POPC   C1A64227  32.806  44.816   6.103
 5042POPC   D2A64228  32.731  44.628   6.526
 5042POPC   C3A64229  33.038  44.569   6.850
 5042POPC   C4A64230  33.149  44.804   7.186
 5042POPC   C1B64231  32.571  44.277   6.162
 5042POPC   C2B64232  32.581  44.133   6.606
 5042POPC   C3B64233  32.577  44.399   7.005
 5042POPC   C4B64234  32.779  44.483   7.435
 5043POPC   NC364235  43.530  20.016   5.570
 5043POPC   PO464236  43.086  19.550   5.502
 5043POPC   GL164237  43.081  19.870   5.784
 5043POPC   GL264238  42.816  20.057   5.738
 5043POPC   C1A64239  43.117  19.831   6.226
 5043POPC   D2A64240  42.934  19.723   6.626
 5043POPC   C3A64241  43.205  19.753   6.989
 5043POPC   C4A64242  43.147  19.953   7.419
 5043POPC   C1B64243  42.730  20.173   6.138
 5043POPC   C2B64244  42.741  20.253   6.574
 5043POPC   C3B64245  42.835  20.094   6.989
 5043POPC   C4B64246  42.694  20.344   7.296
 5044POPC   NC364247   3.000   7.715   5.733
 5044POPC   PO464248   2.687   7.270   5.302
 5044POPC   GL164249   2.624   7.283   5.759
 5044POPC   GL264250   2.961   7.209   5.870
 5044POPC   C1A64251   2.603   7.398   6.215
 5044POPC   D2A64252   2.371   7.501   6.603
 5044POPC   C3A64253   2.497   7.405   7.040
 5044POPC   C4A64254   2.707   7.667   7.363
 5044POPC   C1B64255   2.963   7.039   6.293
 5044POPC   C2B64256   2.752   7.154   6.674
 5044POPC   C3B64257   2.928   7.108   7.089
 5044POPC   C4B64258   3.055   6.871   7.454
 5045POPC   NC364259  42.946  44.142   5.433
 5045POPC   PO464260  43.291  43.519   5.521
 5045POPC   GL164261  43.233  43.894   5.828
 5045POPC   GL264262  42.882  44.009   5.915
 5045POPC   C1A64263  43.226  44.008   6.293
 5045POPC   D2A64264  42.979  44.060   6.696
 5045POPC   C3A64265  43.186  43.880   7.073
 5045POPC   C4A64266  43.457  43.608   7.326
 5045POPC   C1B64267  42.631  44.018   6.279
 5045POPC   C2B64268  42.577  43.657   6.538
 5045POPC   C3B64269  42.731  43.626   6.961
 5045POPC   C4B64270  42.819  43.745   7.425
 5046POPC   NC364271  44.119  23.960   5.341
 5046POPC   PO464272  43.941  23.329   5.404
 5046POPC   GL164273  43.788  23.518   5.781
 5046POPC   GL264274  44.011  23.754   5.819
 5046POPC   C1A64275  43.690  23.641   6.229
 5046POPC   D2A64276  43.696  23.452   6.652
 5046POPC   C3A64277  43.719  23.718   7.041
 5046POPC   C4A64278  44.017  23.893   7.381
 5046POPC   C1B64279  44.135  23.396   6.122
 5046POPC   C2B64280  44.201  23.376   6.525
 5046POPC   C3B64281  44.176  23.557   6.912
 5046POPC   C4B64282  44.256  23.411   7.296
 5047POPC   NC364283  10.310  43.248   5.560
 5047POPC   PO464284  10.943  43.023   5.472
 5047POPC   GL164285  10.704  43.102   5.853
 5047POPC   GL264286  10.644  43.484   5.887
 5047POPC   C1A64287  10.509  42.953   6.242
 5047POPC   D2A64288  10.494  43.102   6.660
 5047POPC   C3A64289  10.529  42.817   6.999
 5047POPC   C4A64290  10.353  43.046   7.294
 5047POPC   C1B64291  10.328  43.462   6.229
 5047POPC   C2B64292  10.347  43.605   6.658
 5047POPC   C3B64293  10.521  43.469   7.087
 5047POPC   C4B64294  10.452  43.587   7.603
 5048POPC   NC364295  42.623   4.331   5.043
 5048POPC   PO464296  42.251   4.095   5.513
 5048POPC   GL164297  42.070   4.246   5.851
 5048POPC   GL264298  42.067   4.619   5.808
 5048POPC   C1A64299  41.946   4.305   6.293
 5048POPC   D2A64300  41.851   4.173   6.709
 5048POPC   C3A64301  42.181   4.354   6.978
 5048POPC   C4A64302  42.146   4.493   7.363
 5048POPC   C1B64303  42.382   4.518   6.136
 5048POPC   C2B64304  42.446   4.425   6.531
 5048POPC   C3B64305  42.690   4.437   6.874
 5048POPC   C4B64306  42.622   4.579   7.246
 5049POPC   NC364307   6.969   2.644   5.570
 5049POPC   PO464308   6.565   3.166   5.432
 5049POPC   GL164309   6.554   2.868   5.784
 5049POPC   GL264310   6.250   2.997   5.852
 5049POPC   C1A64311   6.730   2.648   6.205
 5049POPC   D2A64312   7.015   2.626   6.593
 5049POPC   C3A64313   6.796   2.676   7.036
 5049POPC   C4A64314   6.635   2.501   7.462
 5049POPC   C1B64315   6.498   3.090   6.243
 5049POPC   C2B64316   6.641   3.005   6.649
 5049POPC   C3B64317   6.435   3.106   7.020
 5049POPC   C4B64318   6.275   2.877   7.350
 5050POPC   NC364319  17.722  44.251   5.510
 5050POPC   PO464320  17.195  43.817   5.324
 5050POPC   GL164321  17.361  43.894   5.752
 5050POPC   GL264322  17.243  44.227   5.752
 5050POPC   C1A64323  17.468  43.811   6.229
 5050POPC   D2A64324  17.253  43.845   6.669
 5050POPC   C3A64325  17.533  43.839   7.063
 5050POPC   C4A64326  17.655  43.929   7.518
 5050POPC   C1B64327  17.348  44.322   6.182
 5050POPC   C2B64328  17.197  44.499   6.559
 5050POPC   C3B64329  17.183  44.294   6.933
 5050POPC   C4B64330  17.305  44.255   7.317
 5051POPC   NC364331  10.593   3.767   5.590
 5051POPC   PO464332  10.385   4.229   5.110
 5051POPC   GL164333  10.500   4.263   5.615
 5051POPC   GL264334  10.280   4.499   5.794
 5051POPC   C1A64335  10.549   4.233   6.138
 5051POPC   D2A64336  10.682   4.239   6.615
 5051POPC   C3A64337  10.416   4.068   6.935
 5051POPC   C4A64338  10.261   4.224   7.274
 5051POPC   C1B64339  10.175   4.616   6.198
 5051POPC   C2B64340  10.177   4.368   6.561
 5051POPC   C3B64341  10.319   4.584   6.907
 5051POPC   C4B64342  10.189   4.719   7.284
 5052POPC   NC364343   3.391  25.328   5.338
 5052POPC   PO464344   3.652  24.693   5.465
 5052POPC   GL164345   3.715  25.097   5.662
 5052POPC   GL264346   3.774  24.970   5.958
 5052POPC   C1A64347   3.424  25.341   5.985
 5052POPC   D2A64348   3.190  25.391   6.406
 5052POPC   C3A64349   3.204  25.429   6.874
 5052POPC   C4A64350   3.119  25.241   7.257
 5052POPC   C1B64351   3.804  25.265   6.316
 5052POPC   C2B64352   3.702  25.360   6.701
 5052POPC   C3B64353   3.595  25.174   7.060
 5052POPC   C4B64354   3.599  25.435   7.399
 5053POPC   NC364355  34.455  22.772   5.444
 5053POPC   PO464356  34.815  23.245   5.303
 5053POPC   GL164357  34.697  23.089   5.747
 5053POPC   GL264358  34.959  23.232   5.884
 5053POPC   C1A64359  34.379  22.925   6.096
 5053POPC   D2A64360  34.208  23.022   6.488
 5053POPC   C3A64361  34.403  22.892   6.877
 5053POPC   C4A64362  34.349  22.853   7.285
 5053POPC   C1B64363  34.874  23.056   6.269
 5053POPC   C2B64364  34.997  22.925   6.650
 5053POPC   C3B64365  34.884  23.043   7.029
 5053POPC   C4B64366  34.796  23.067   7.470
 5054POPC   NC364367  10.148   8.691   5.388
 5054POPC   PO464368   9.690   8.315   5.191
 5054POPC   GL164369   9.728   8.434   5.650
 5054POPC   GL264370   9.385   8.495   5.810
 5054POPC   C1A64371   9.998   8.246   6.031
 5054POPC   D2A64372  10.042   7.933   6.363
 5054POPC   C3A64373   9.985   8.004   6.816
 5054POPC   C4A64374   9.871   8.207   7.222
 5054POPC   C1B64375   9.482   8.168   6.113
 5054POPC   C2B64376   9.592   8.178   6.542
 5054POPC   C3B64377   9.473   8.025   6.970
 5054POPC   C4B64378   9.213   8.148   7.322
 5055POPC   NC364379   9.249  17.318   5.336
 5055POPC   PO464380   9.874  17.534   5.468
 5055POPC   GL164381   9.786  17.294   5.821
 5055POPC   GL264382  10.100  17.327   5.963
 5055POPC   C1A64383   9.640  17.318   6.233
 5055POPC   D2A64384   9.431  17.341   6.621
 5055POPC   C3A64385   9.590  17.618   6.946
 5055POPC   C4A64386   9.597  17.486   7.354
 5055POPC   C1B64387   9.927  17.750   6.120
 5055POPC   C2B64388   9.762  17.884   6.531
 5055POPC   C3B64389   9.984  17.939   6.968
 5055POPC   C4B64390   9.954  17.834   7.456
 5056POPC   NC364391  23.997  36.085   5.529
 5056POPC   PO464392  23.439  35.834   5.311
 5056POPC   GL164393  23.514  36.017   5.733
 5056POPC   GL264394  23.641  36.372   5.813
 5056POPC   C1A64395  23.616  35.901   6.145
 5056POPC   D2A64396  23.396  35.792   6.512
 5056POPC   C3A64397  23.540  36.052   6.818
 5056POPC   C4A64398  23.527  36.028   7.243
 5056POPC   C1B64399  23.939  36.316   6.176
 5056POPC   C2B64400  23.954  36.389   6.648
 5056POPC   C3B64401  23.898  36.404   7.112
 5056POPC   C4B64402  23.895  36.658   7.542
 5057POPC   NC364403  34.960  41.548   5.459
 5057POPC   PO464404  34.327  41.386   5.511
 5057POPC   GL164405  34.383  41.788   5.766
 5057POPC   GL264406  34.649  41.596   5.857
 5057POPC   C1A64407  34.614  41.949   6.185
 5057POPC   D2A64408  34.655  41.673   6.543
 5057POPC   C3A64409  34.793  41.538   6.958
 5057POPC   C4A64410  34.681  41.662   7.386
 5057POPC   C1B64411  34.501  41.306   6.177
 5057POPC   C2B64412  34.614  41.171   6.579
 5057POPC   C3B64413  34.416  41.124   6.969
 5057POPC   C4B64414  34.656  41.163   7.303
 5058POPC   NC364415  10.924   7.705   5.456
 5058POPC   PO464416  10.422   7.304   5.214
 5058POPC   GL164417  10.454   7.492   5.660
 5058POPC   GL264418  10.476   7.173   5.857
 5058POPC   C1A64419  10.528   7.608   6.138
 5058POPC   D2A64420  10.394   7.659   6.604
 5058POPC   C3A64421  10.670   7.783   6.945
 5058POPC   C4A64422  10.940   7.498   7.127
 5058POPC   C1B64423  10.268   7.156   6.286
 5058POPC   C2B64424  10.363   7.135   6.750
 5058POPC   C3B64425  10.377   7.317   7.200
 5058POPC   C4B64426  10.411   7.174   7.683
 5059POPC   NC364427  31.723  34.350   4.889
 5059POPC   PO464428  31.127  34.287   5.359
 5059POPC   GL164429  31.351  34.504   5.696
 5059POPC   GL264430  31.280  34.834   5.762
 5059POPC   C1A64431  31.556  34.501   6.119
 5059POPC   D2A64432  31.610  34.694   6.559
 5059POPC   C3A64433  31.525  34.406   6.910
 5059POPC   C4A64434  31.568  34.406   7.350
 5059POPC   C1B64435  31.203  34.862   6.218
 5059POPC   C2B64436  31.092  34.828   6.664
 5059POPC   C3B64437  31.336  34.848   7.066
 5059POPC   C4B64438  31.268  34.804   7.536
 5060POPC   NC364439  19.301  42.197   5.346
 5060POPC   PO464440  18.597  42.177   5.470
 5060POPC   GL164441  18.865  42.291   5.828
 5060POPC   GL264442  19.158  42.454   5.803
 5060POPC   C1A64443  19.061  42.161   6.234
 5060POPC   D2A64444  19.227  42.098   6.646
 5060POPC   C3A64445  18.977  42.036   7.013
 5060POPC   C4A64446  18.943  42.288   7.389
 5060POPC   C1B64447  19.057  42.675   6.184
 5060POPC   C2B64448  19.226  42.672   6.592
 5060POPC   C3B64449  19.211  42.516   7.012
 5060POPC   C4B64450  19.242  42.713   7.427
 5061POPC   NC364451  18.042  10.269   5.082
 5061POPC   PO464452  18.009  10.878   5.404
 5061POPC   GL164453  18.123  10.523   5.707
 5061POPC   GL264454  18.442  10.670   5.861
 5061POPC   C1A64455  18.241  10.278   6.104
 5061POPC   D2A64456  18.470  10.493   6.447
 5061POPC   C3A64457  18.463  10.413   6.925
 5061POPC   C4A64458  18.095  10.307   7.107
 5061POPC   C1B64459  18.082  10.766   6.168
 5061POPC   C2B64460  18.055  10.918   6.626
 5061POPC   C3B64461  17.953  10.794   7.073
 5061POPC   C4B64462  18.307  10.790   7.335
 5062POPC   NC364463  18.398  12.186   5.403
 5062POPC   PO464464  17.955  11.832   5.698
 5062POPC   GL164465  18.333  12.000   5.906
 5062POPC   GL264466  18.277  12.345   5.887
 5062POPC   C1A64467  18.473  11.937   6.344
 5062POPC   D2A64468  18.520  12.285   6.673
 5062POPC   C3A64469  18.384  12.135   7.099
 5062POPC   C4A64470  18.294  11.698   7.257
 5062POPC   C1B64471  18.096  12.286   6.318
 5062POPC   C2B64472  18.041  12.455   6.745
 5062POPC   C3B64473  17.992  12.479   7.180
 5062POPC   C4B64474  18.301  12.476   7.505
 5063POPC   NC364475  34.891  16.461   5.418
 5063POPC   PO464476  34.301  16.783   5.413
 5063POPC   GL164477  34.380  16.839   5.814
 5063POPC   GL264478  34.659  16.598   5.861
 5063POPC   C1A64479  34.455  16.917   6.245
 5063POPC   D2A64480  34.349  16.569   6.485
 5063POPC   C3A64481  34.393  16.619   6.904
 5063POPC   C4A64482  34.494  16.615   7.315
 5063POPC   C1B64483  34.908  16.686   6.220
 5063POPC   C2B64484  34.812  16.825   6.647
 5063POPC   C3B64485  34.914  16.619   7.048
 5063POPC   C4B64486  34.959  16.564   7.513
 5064POPC   NC364487  37.990  27.653   5.394
 5064POPC   PO464488  37.435  27.964   5.532
 5064POPC   GL164489  37.710  27.693   5.862
 5064POPC   GL264490  37.790  27.332   5.757
 5064POPC   C1A64491  37.971  27.803   6.262
 5064POPC   D2A64492  38.315  27.835   6.604
 5064POPC   C3A64493  38.117  27.854   7.036
 5064POPC   C4A64494  37.701  27.702   7.137
 5064POPC   C1B64495  37.993  27.300   6.155
 5064POPC   C2B64496  38.093  27.234   6.580
 5064POPC   C3B64497  37.798  27.261   6.873
 5064POPC   C4B64498  37.655  27.175   7.260
 5065POPC   NC364499  22.433  32.341   5.413
 5065POPC   PO464500  21.905  32.113   5.563
 5065POPC   GL164501  22.154  32.197   5.882
 5065POPC   GL264502  22.227  32.563   5.837
 5065POPC   C1A64503  22.038  32.034   6.290
 5065POPC   D2A64504  22.224  32.045   6.657
 5065POPC   C3A64505  22.109  31.911   7.023
 5065POPC   C4A64506  21.872  32.237   7.134
 5065POPC   C1B64507  22.157  32.518   6.283
 5065POPC   C2B64508  22.054  32.529   6.731
 5065POPC   C3B64509  22.341  32.421   7.060
 5065POPC   C4B64510  22.464  32.630   7.455
 5066POPC   NC364511  20.498  18.476   5.455
 5066POPC   PO464512  21.085  18.236   5.155
 5066POPC   GL164513  20.970  18.327   5.700
 5066POPC   GL264514  20.610  18.189   5.871
 5066POPC   C1A64515  20.968  18.192   6.213
 5066POPC   D2A64516  20.616  18.220   6.548
 5066POPC   C3A64517  20.650  18.042   6.983
 5066POPC   C4A64518  20.684  18.322   7.347
 5066POPC   C1B64519  20.639  18.568   6.091
 5066POPC   C2B64520  20.337  18.606   6.353
 5066POPC   C3B64521  20.287  18.589   6.797
 5066POPC   C4B64522  20.273  18.628   7.244
 5067POPC   NC364523  21.900  40.739   5.400
 5067POPC   PO464524  22.420  40.917   5.632
 5067POPC   GL164525  22.064  40.948   5.837
 5067POPC   GL264526  22.049  40.611   5.894
 5067POPC   C1A64527  22.029  41.043   6.249
 5067POPC   D2A64528  22.169  41.029   6.666
 5067POPC   C3A64529  21.897  40.974   6.993
 5067POPC   C4A64530  22.006  41.044   7.427
 5067POPC   C1B64531  22.180  40.570   6.360
 5067POPC   C2B64532  22.101  40.501   6.804
 5067POPC   C3B64533  22.118  40.568   7.229
 5067POPC   C4B64534  22.403  40.333   7.499
 5068POPC   NC364535  41.725  14.621   5.434
 5068POPC   PO464536  41.170  14.246   5.340
 5068POPC   GL164537  41.398  14.437   5.780
 5068POPC   GL264538  41.759  14.527   5.912
 5068POPC   C1A64539  41.444  14.277   6.216
 5068POPC   D2A64540  41.551  14.532   6.565
 5068POPC   C3A64541  41.514  14.385   6.952
 5068POPC   C4A64542  41.374  14.673   7.273
 5068POPC   C1B64543  41.944  14.395   6.268
 5068POPC   C2B64544  41.943  14.195   6.654
 5068POPC   C3B64545  42.026  14.325   7.032
 5068POPC   C4B64546  41.801  14.449   7.383
 5069POPC   NC364547  43.645  37.169   5.505
 5069POPC   PO464548  44.150  36.659   5.319
 5069POPC   GL164549  44.061  36.855   5.739
 5069POPC   GL264550  43.888  36.551   5.860
 5069POPC   C1A64551  43.861  36.996   6.169
 5069POPC   D2A64552  43.963  37.089   6.628
 5069POPC   C3A64553  43.629  37.122   6.950
 5069POPC   C4A64554  43.465  36.819   7.228
 5069POPC   C1B64555  44.209  36.630   6.191
 5069POPC   C2B64556  44.264  36.607   6.622
 5069POPC   C3B64557  43.928  36.687   6.936
 5069POPC   C4B64558  43.843  36.529   7.349
 5070POPC   NC364559  16.012  29.739   5.414
 5070POPC   PO464560  16.132  30.406   5.444
 5070POPC   GL164561  16.162  30.079   5.806
 5070POPC   GL264562  16.104  29.696   5.907
 5070POPC   C1A64563  15.867  30.076   6.160
 5070POPC   D2A64564  15.812  30.071   6.588
 5070POPC   C3A64565  15.777  29.686   6.822
 5070POPC   C4A64566  15.754  29.863   7.206
 5070POPC   C1B64567  16.344  29.828   6.270
 5070POPC   C2B64568  16.290  29.827   6.724
 5070POPC   C3B64569  16.190  29.623   7.119
 5070POPC   C4B64570  16.027  29.503   7.547
 5071POPC   NC364571   3.497   6.418   5.380
 5071POPC   PO464572   3.290   7.104   5.441
 5071POPC   GL164573   3.366   6.883   5.850
 5071POPC   GL264574   3.554   6.570   5.871
 5071POPC   C1A64575   3.473   7.019   6.298
 5071POPC   D2A64576   3.253   6.908   6.721
 5071POPC   C3A64577   3.454   6.969   7.137
 5071POPC   C4A64578   3.841   6.955   7.461
 5071POPC   C1B64579   3.295   6.550   6.255
 5071POPC   C2B64580   3.207   6.403   6.659
 5071POPC   C3B64581   3.373   6.412   7.027
 5071POPC   C4B64582   3.700   6.534   7.207
 5072POPC   NC364583  36.972  27.911   5.524
 5072POPC   PO464584  36.695  27.269   5.399
 5072POPC   GL164585  36.781  27.502   5.813
 5072POPC   GL264586  36.599  27.841   5.863
 5072POPC   C1A64587  37.192  27.623   6.090
 5072POPC   D2A64588  37.518  27.503   6.417
 5072POPC   C3A64589  37.331  27.490   6.851
 5072POPC   C4A64590  37.042  27.640   7.163
 5072POPC   C1B64591  36.729  27.730   6.267
 5072POPC   C2B64592  36.965  27.813   6.629
 5072POPC   C3B64593  36.830  28.065   6.942
 5072POPC   C4B64594  36.640  27.947   7.323
 5073POPC   NC364595  39.396  30.319   5.502
 5073POPC   PO464596  39.144  29.618   5.455
 5073POPC   GL164597  39.263  29.902   5.811
 5073POPC   GL264598  39.127  30.231   5.920
 5073POPC   C1A64599  39.338  29.854   6.278
 5073POPC   D2A64600  39.239  29.772   6.732
 5073POPC   C3A64601  39.515  29.562   7.050
 5073POPC   C4A64602  39.479  29.691   7.517
 5073POPC   C1B64603  39.407  30.373   6.263
 5073POPC   C2B64604  39.503  30.278   6.712
 5073POPC   C3B64605  39.306  30.161   7.128
 5073POPC   C4B64606  39.203  30.410   7.534
 5074POPC   NC364607  29.402  29.342   5.583
 5074POPC   PO464608  30.054  29.007   5.345
 5074POPC   GL164609  30.098  29.070   5.772
 5074POPC   GL264610  29.946  29.406   5.800
 5074POPC   C1A64611  30.093  29.094   6.224
 5074POPC   D2A64612  30.196  29.053   6.663
 5074POPC   C3A64613  29.877  29.042   6.981
 5074POPC   C4A64614  30.008  29.050   7.405
 5074POPC   C1B64615  29.969  29.593   6.233
 5074POPC   C2B64616  29.812  29.577   6.685
 5074POPC   C3B64617  30.008  29.524   7.102
 5074POPC   C4B64618  30.259  29.489   7.523
 5075POPC   NC364619  30.433  39.024   5.438
 5075POPC   PO464620  30.753  39.599   5.373
 5075POPC   GL164621  30.737  39.313   5.752
 5075POPC   GL264622  30.395  39.347   5.851
 5075POPC   C1A64623  30.799  39.245   6.220
 5075POPC   D2A64624  30.622  39.502   6.584
 5075POPC   C3A64625  30.815  39.371   6.981
 5075POPC   C4A64626  30.884  38.932   7.091
 5075POPC   C1B64627  30.348  39.037   6.207
 5075POPC   C2B64628  30.507  38.989   6.648
 5075POPC   C3B64629  30.349  39.209   7.032
 5075POPC   C4B64630  30.184  39.379   7.413
 5076POPC   NC364631   2.393  19.112   5.482
 5076POPC   PO464632   2.987  19.168   5.241
 5076POPC   GL164633   3.019  19.019   5.663
 5076POPC   GL264634   2.745  19.158   5.859
 5076POPC   C1A64635   3.110  18.938   6.131
 5076POPC   D2A64636   2.864  19.077   6.487
 5076POPC   C3A64637   2.946  19.353   6.852
 5076POPC   C4A64638   2.918  19.200   7.268
 5076POPC   C1B64639   2.425  19.289   6.167
 5076POPC   C2B64640   2.346  19.076   6.535
 5076POPC   C3B64641   2.552  19.003   6.900
 5076POPC   C4B64642   2.363  19.182   7.251
 5077POPC   NC364643  12.416  12.712   5.390
 5077POPC   PO464644  11.843  12.967   5.492
 5077POPC   GL164645  11.955  12.906   5.932
 5077POPC   GL264646  12.276  12.719   5.886
 5077POPC   C1A64647  11.966  13.123   6.387
 5077POPC   D2A64648  11.819  13.354   6.786
 5077POPC   C3A64649  11.898  13.061   7.152
 5077POPC   C4A64650  12.064  12.991   7.576
 5077POPC   C1B64651  12.223  12.685   6.326
 5077POPC   C2B64652  12.081  12.759   6.756
 5077POPC   C3B64653  12.301  12.753   7.149
 5077POPC   C4B64654  12.367  12.558   7.525
 5078POPC   NC364655  16.803   6.265   5.540
 5078POPC   PO464656  17.077   5.660   5.287
 5078POPC   GL164657  16.835   5.734   5.675
 5078POPC   GL264658  17.058   5.968   5.870
 5078POPC   C1A64659  16.745   5.634   6.115
 5078POPC   D2A64660  16.937   5.780   6.494
 5078POPC   C3A64661  16.714   5.720   6.893
 5078POPC   C4A64662  16.772   5.843   7.305
 5078POPC   C1B64663  16.738   6.159   6.183
 5078POPC   C2B64664  16.508   6.087   6.577
 5078POPC   C3B64665  16.624   6.271   6.973
 5078POPC   C4B64666  16.841   6.366   7.382
 5079POPC   NC364667  20.851  34.804   5.316
 5079POPC   PO464668  20.249  34.361   5.251
 5079POPC   GL164669  20.435  34.710   5.629
 5079POPC   GL264670  20.756  34.689   5.814
 5079POPC   C1A64671  20.350  34.755   6.120
 5079POPC   D2A64672  20.425  34.830   6.583
 5079POPC   C3A64673  20.416  34.528   6.961
 5079POPC   C4A64674  20.565  34.600   7.409
 5079POPC   C1B64675  20.870  34.565   6.245
 5079POPC   C2B64676  20.919  34.670   6.672
 5079POPC   C3B64677  20.926  34.486   7.070
 5079POPC   C4B64678  21.208  34.407   7.385
 5080POPC   NC364679  14.261  19.693   5.185
 5080POPC   PO464680  13.939  20.205   5.116
 5080POPC   GL164681  14.187  20.034   5.585
 5080POPC   GL264682  14.347  19.701   5.719
 5080POPC   C1A64683  14.235  20.137   6.093
 5080POPC   D2A64684  14.278  20.297   6.580
 5080POPC   C3A64685  14.350  19.991   6.956
 5080POPC   C4A64686  14.052  19.765   7.228
 5080POPC   C1B64687  14.570  19.644   6.157
 5080POPC   C2B64688  14.625  19.618   6.654
 5080POPC   C3B64689  14.721  19.649   7.141
 5080POPC   C4B64690  14.776  19.507   7.601
 5081POPC   NC364691   2.105  20.070   5.450
 5081POPC   PO464692   2.091  19.425   5.604
 5081POPC   GL164693   1.972  19.545   5.984
 5081POPC   GL264694   1.865  19.851   5.885
 5081POPC   C1A64695   1.778  19.671   6.403
 5081POPC   D2A64696   1.862  19.838   6.843
 5081POPC   C3A64697   2.107  19.618   7.179
 5081POPC   C4A64698   2.096  19.439   7.629
 5081POPC   C1B64699   1.580  20.064   6.179
 5081POPC   C2B64700   1.586  20.235   6.646
 5081POPC   C3B64701   1.736  20.252   7.127
 5081POPC   C4B64702   2.021  20.321   7.517
 5082POPC   NC364703  17.205  37.529   5.484
 5082POPC   PO464704  17.764  37.877   5.243
 5082POPC   GL164705  17.731  37.762   5.725
 5082POPC   GL264706  17.511  37.502   5.866
 5082POPC   C1A64707  17.595  37.864   6.193
 5082POPC   D2A64708  17.853  37.776   6.509
 5082POPC   C3A64709  17.780  37.908   6.899
 5082POPC   C4A64710  17.462  37.810   7.155
 5082POPC   C1B64711  17.240  37.483   6.240
 5082POPC   C2B64712  17.288  37.669   6.668
 5082POPC   C3B64713  17.143  37.437   7.056
 5082POPC   C4B64714  17.040  37.468   7.516
 5083POPC   NC364715  27.599  20.505   5.345
 5083POPC   PO464716  27.828  21.053   5.656
 5083POPC   GL164717  27.618  20.683   5.839
 5083POPC   GL264718  27.621  20.903   6.104
 5083POPC   C1A64719  27.553  20.441   6.250
 5083POPC   D2A64720  27.701  20.668   6.632
 5083POPC   C3A64721  27.563  20.542   7.041
 5083POPC   C4A64722  27.821  20.476   7.428
 5083POPC   C1B64723  27.187  20.822   6.257
 5083POPC   C2B64724  27.037  20.926   6.681
 5083POPC   C3B64725  27.106  20.846   7.133
 5083POPC   C4B64726  27.446  20.828   7.477
 5084POPC   NC364727  13.949  21.229   5.483
 5084POPC   PO464728  14.498  21.384   5.339
 5084POPC   GL164729  14.382  21.390   5.774
 5084POPC   GL264730  14.238  21.076   5.867
 5084POPC   C1A64731  14.483  21.546   6.206
 5084POPC   D2A64732  14.765  21.724   6.541
 5084POPC   C3A64733  14.666  21.556   6.943
 5084POPC   C4A64734  14.396  21.646   7.284
 5084POPC   C1B64735  14.241  21.097   6.310
 5084POPC   C2B64736  14.221  21.358   6.661
 5084POPC   C3B64737  14.106  21.194   7.013
 5084POPC   C4B64738  14.411  21.096   7.248
 5085POPC   NC364739  19.549  19.562   5.276
 5085POPC   PO464740  20.027  19.941   5.434
 5085POPC   GL164741  19.861  19.834   5.820
 5085POPC   GL264742  19.541  19.740   5.770
 5085POPC   C1A64743  19.917  19.869   6.257
 5085POPC   D2A64744  20.077  19.759   6.644
 5085POPC   C3A64745  19.962  19.979   7.005
 5085POPC   C4A64746  19.986  20.090   7.436
 5085POPC   C1B64747  19.435  19.650   6.221
 5085POPC   C2B64748  19.559  19.790   6.654
 5085POPC   C3B64749  19.540  19.743   7.128
 5085POPC   C4B64750  19.612  19.719   7.565
 5086POPC   NC364751  21.811  15.328   5.554
 5086POPC   PO464752  21.258  14.969   5.267
 5086POPC   GL164753  21.383  15.031   5.722
 5086POPC   GL264754  21.314  15.372   5.787
 5086POPC   C1A64755  21.227  15.029   6.189
 5086POPC   D2A64756  21.109  15.347   6.540
 5086POPC   C3A64757  21.148  15.197   6.971
 5086POPC   C4A64758  21.307  14.860   7.237
 5086POPC   C1B64759  21.529  15.450   6.223
 5086POPC   C2B64760  21.579  15.440   6.704
 5086POPC   C3B64761  21.663  15.106   6.994
 5086POPC   C4B64762  21.777  15.109   7.442
 5087POPC   NC364763   3.684  34.419   5.688
 5087POPC   PO464764   3.300  34.576   5.203
 5087POPC   GL164765   3.189  34.536   5.689
 5087POPC   GL264766   3.350  34.809   5.816
 5087POPC   C1A64767   3.233  34.403   6.161
 5087POPC   D2A64768   3.460  34.476   6.556
 5087POPC   C3A64769   3.559  34.312   6.972
 5087POPC   C4A64770   3.968  34.231   7.173
 5087POPC   C1B64771   3.503  34.846   6.196
 5087POPC   C2B64772   3.538  35.036   6.560
 5087POPC   C3B64773   3.626  34.838   6.881
 5087POPC   C4B64774   3.600  34.749   7.263
 5088POPC   NC364775  16.309  11.836   5.424
 5088POPC   PO464776  16.999  11.961   5.435
 5088POPC   GL164777  16.785  12.129   5.778
 5088POPC   GL264778  16.633  11.805   5.843
 5088POPC   C1A64779  16.693  12.338   6.205
 5088POPC   D2A64780  16.604  12.523   6.621
 5088POPC   C3A64781  16.531  12.347   7.025
 5088POPC   C4A64782  16.765  12.350   7.403
 5088POPC   C1B64783  16.815  11.847   6.251
 5088POPC   C2B64784  16.680  11.970   6.669
 5088POPC   C3B64785  16.649  11.863   7.128
 5088POPC   C4B64786  16.503  11.730   7.511
 5089POPC   NC364787  36.975   7.151   5.454
 5089POPC   PO464788  36.535   7.667   5.446
 5089POPC   GL164789  36.790   7.503   5.851
 5089POPC   GL264790  37.123   7.346   5.891
 5089POPC   C1A64791  36.896   7.434   6.339
 5089POPC   D2A64792  37.141   7.576   6.725
 5089POPC   C3A64793  36.864   7.537   7.062
 5089POPC   C4A64794  36.746   7.188   7.314
 5089POPC   C1B64795  37.095   7.018   6.139
 5089POPC   C2B64796  37.249   7.104   6.544
 5089POPC   C3B64797  37.069   7.077   6.927
 5089POPC   C4B64798  37.124   6.811   7.270
 5090POPC   NC364799  41.835  20.789   5.343
 5090POPC   PO464800  41.545  20.244   5.549
 5090POPC   GL164801  41.531  20.641   5.772
 5090POPC   GL264802  41.194  20.761   5.822
 5090POPC   C1A64803  41.550  20.703   6.224
 5090POPC   D2A64804  41.703  20.546   6.622
 5090POPC   C3A64805  41.498  20.675   6.999
 5090POPC   C4A64806  41.753  20.796   7.336
 5090POPC   C1B64807  41.069  20.486   6.160
 5090POPC   C2B64808  41.194  20.493   6.578
 5090POPC   C3B64809  41.128  20.307   6.968
 5090POPC   C4B64810  41.072  20.583   7.299
 5091POPC   NC364811  41.317  43.660   5.414
 5091POPC   PO464812  41.935  43.967   5.476
 5091POPC   GL164813  41.672  43.804   5.764
 5091POPC   GL264814  41.375  44.036   5.764
 5091POPC   C1A64815  41.668  43.750   6.193
 5091POPC   D2A64816  41.517  43.895   6.581
 5091POPC   C3A64817  41.750  43.826   6.966
 5091POPC   C4A64818  41.508  43.752   7.314
 5091POPC   C1B64819  41.336  44.323   6.112
 5091POPC   C2B64820  41.248  44.337   6.560
 5091POPC   C3B64821  41.307  44.146   6.982
 5091POPC   C4B64822  41.594  44.245   7.312
 5092POPC   NC364823  27.554  42.914   5.438
 5092POPC   PO464824  27.402  43.547   5.485
 5092POPC   GL164825  27.389  43.254   5.815
 5092POPC   GL264826  27.723  43.316   5.950
 5092POPC   C1A64827  27.502  42.933   6.153
 5092POPC   D2A64828  27.837  42.906   6.457
 5092POPC   C3A64829  27.689  42.785   6.836
 5092POPC   C4A64830  27.334  42.998   6.992
 5092POPC   C1B64831  27.431  43.463   6.290
 5092POPC   C2B64832  27.426  43.666   6.713
 5092POPC   C3B64833  27.539  43.455   7.134
 5092POPC   C4B64834  27.815  43.079   7.258
 5093POPC   NC364835  26.239   4.077   5.452
 5093POPC   PO464836  26.891   4.349   5.418
 5093POPC   GL164837  26.583   4.366   5.724
 5093POPC   GL264838  26.634   4.030   5.764
 5093POPC   C1A64839  26.505   4.504   6.149
 5093POPC   D2A64840  26.669   4.372   6.534
 5093POPC   C3A64841  26.562   4.485   6.925
 5093POPC   C4A64842  26.896   4.442   7.180
 5093POPC   C1B64843  26.792   4.052   6.148
 5093POPC   C2B64844  26.795   3.867   6.525
 5093POPC   C3B64845  26.812   4.028   6.905
 5093POPC   C4B64846  26.844   3.944   7.312
 5094POPC   NC364847  29.467   1.073   5.393
 5094POPC   PO464848  30.047   1.467   5.293
 5094POPC   GL164849  29.807   1.323   5.746
 5094POPC   GL264850  29.453   1.464   5.754
 5094POPC   C1A64851  29.965   1.162   6.161
 5094POPC   D2A64852  29.796   1.112   6.560
 5094POPC   C3A64853  30.000   1.087   6.980
 5094POPC   C4A64854  30.141   1.399   7.250
 5094POPC   C1B64855  29.453   1.193   6.139
 5094POPC   C2B64856  29.295   1.015   6.538
 5094POPC   C3B64857  29.472   1.003   6.935
 5094POPC   C4B64858  29.647   1.193   7.332
 5095POPC   NC364859  32.750  38.378   5.433
 5095POPC   PO464860  33.291  38.116   5.776
 5095POPC   GL164861  33.010  38.471   5.878
 5095POPC   GL264862  32.706  38.722   5.819
 5095POPC   C1A64863  32.853  38.454   6.288
 5095POPC   D2A64864  33.020  38.565   6.663
 5095POPC   C3A64865  33.034  38.296   6.975
 5095POPC   C4A64866  33.091  38.512   7.354
 5095POPC   C1B64867  32.467  38.785   6.203
 5095POPC   C2B64868  32.497  38.607   6.628
 5095POPC   C3B64869  32.654  38.652   7.056
 5095POPC   C4B64870  32.732  38.916   7.411
 5096POPC   NC364871  37.207   6.478   5.408
 5096POPC   PO464872  36.607   6.859   5.387
 5096POPC   GL164873  36.854   6.695   5.740
 5096POPC   GL264874  37.171   6.571   5.902
 5096POPC   C1A64875  36.717   6.663   6.161
 5096POPC   D2A64876  36.760   6.887   6.549
 5096POPC   C3A64877  36.793   6.610   6.921
 5096POPC   C4A64878  36.638   6.674   7.341
 5096POPC   C1B64879  37.034   6.242   6.212
 5096POPC   C2B64880  37.117   6.110   6.639
 5096POPC   C3B64881  37.227   6.314   7.045
 5096POPC   C4B64882  36.973   6.287   7.409
 5097POPC   NC364883  21.109  30.055   5.536
 5097POPC   PO464884  21.443  29.511   5.514
 5097POPC   GL164885  21.560  29.825   5.814
 5097POPC   GL264886  21.249  29.749   5.988
 5097POPC   C1A64887  21.704  29.924   6.239
 5097POPC   D2A64888  21.409  29.914   6.598
 5097POPC   C3A64889  21.665  29.970   6.955
 5097POPC   C4A64890  21.747  30.297   7.257
 5097POPC   C1B64891  21.278  30.181   6.139
 5097POPC   C2B64892  21.196  30.381   6.503
 5097POPC   C3B64893  21.001  30.195   6.852
 5097POPC   C4B64894  21.213  30.033   7.195
 5098POPC   NC364895  13.492  19.232   5.416
 5098POPC   PO464896  13.841  18.518   5.427
 5098POPC   GL164897  13.591  18.833   5.706
 5098POPC   GL264898  13.742  19.189   5.833
 5098POPC   C1A64899  13.503  18.873   6.122
 5098POPC   D2A64900  13.799  18.921   6.430
 5098POPC   C3A64901  13.612  18.730   6.777
 5098POPC   C4A64902  13.565  18.914   7.167
 5098POPC   C1B64903  13.835  19.396   6.196
 5098POPC   C2B64904  14.023  19.369   6.595
 5098POPC   C3B64905  13.822  19.356   6.972
 5098POPC   C4B64906  13.845  19.301   7.376
 5099POPC   NC364907   0.407  20.293   5.501
 5099POPC   PO464908   0.214  20.975   5.296
 5099POPC   GL164909   0.375  20.775   5.697
 5099POPC   GL264910   0.097  20.551   5.810
 5099POPC   C1A64911   0.423  20.754   6.166
 5099POPC   D2A64912   0.269  20.853   6.587
 5099POPC   C3A64913   0.448  20.744   6.985
 5099POPC   C4A64914   0.850  20.635   7.106
 5099POPC   C1B64915   0.201  20.292   6.174
 5099POPC   C2B64916   0.302  20.342   6.594
 5099POPC   C3B64917   0.083  20.189   6.961
 5099POPC   C4B64918  44.924  20.371   7.335
 5100POPC   NC364919  10.989  31.009   5.444
 5100POPC   PO464920  10.475  30.535   5.417
 5100POPC   GL164921  10.622  30.717   5.790
 5100POPC   GL264922  10.507  31.031   5.701
 5100POPC   C1A64923  10.573  30.568   6.235
 5100POPC   D2A64924  10.546  30.364   6.639
 5100POPC   C3A64925  10.310  30.489   6.971
 5100POPC   C4A64926  10.609  30.628   7.253
 5100POPC   C1B64927  10.631  31.113   6.148
 5100POPC   C2B64928  10.589  30.961   6.587
 5100POPC   C3B64929  10.595  31.142   7.022
 5100POPC   C4B64930  10.391  31.066   7.458
 5101POPC   NC364931   9.546  42.634   5.362
 5101POPC   PO464932   9.957  42.141   5.286
 5101POPC   GL164933   9.750  42.216   5.683
 5101POPC   GL264934   9.866  42.519   5.747
 5101POPC   C1A64935   9.797  42.174   6.143
 5101POPC   D2A64936  10.042  42.194   6.522
 5101POPC   C3A64937   9.835  42.119   6.901
 5101POPC   C4A64938   9.475  42.119   7.130
 5101POPC   C1B64939   9.637  42.669   6.089
 5101POPC   C2B64940   9.767  42.684   6.508
 5101POPC   C3B64941   9.632  42.686   6.912
 5101POPC   C4B64942   9.666  42.553   7.294
 5102POPC   NC364943  44.465  41.830   5.386
 5102POPC   PO464944  43.787  41.657   5.354
 5102POPC   GL164945  43.830  41.500   5.768
 5102POPC   GL264946  43.860  41.828   5.919
 5102POPC   C1A64947  43.991  41.411   6.208
 5102POPC   D2A64948  44.146  41.416   6.662
 5102POPC   C3A64949  43.860  41.406   7.002
 5102POPC   C4A64950  43.880  41.665   7.345
 5102POPC   C1B64951  44.236  41.955   6.163
 5102POPC   C2B64952  44.301  42.109   6.599
 5102POPC   C3B64953  44.162  41.878   6.973
 5102POPC   C4B64954  44.337  41.499   7.159
 5103POPC   NC364955  15.892  33.349   5.396
 5103POPC   PO464956  15.839  32.705   5.598
 5103POPC   GL164957  15.805  33.077   5.814
 5103POPC   GL264958  16.177  33.141   5.806
 5103POPC   C1A64959  15.846  33.296   6.175
 5103POPC   D2A64960  16.048  33.160   6.556
 5103POPC   C3A64961  15.778  32.891   6.810
 5103POPC   C4A64962  15.758  33.193   7.144
 5103POPC   C1B64963  16.146  32.832   6.171
 5103POPC   C2B64964  16.218  32.671   6.599
 5103POPC   C3B64965  16.244  32.920   6.989
 5103POPC   C4B64966  16.041  32.819   7.358
 5104POPC   NC364967  14.958  18.290   5.214
 5104POPC   PO464968  15.587  18.470   5.539
 5104POPC   GL164969  15.296  18.329   5.820
 5104POPC   GL264970  15.099  18.631   5.753
 5104POPC   C1A64971  15.085  18.174   6.210
 5104POPC   D2A64972  14.890  17.989   6.590
 5104POPC   C3A64973  14.951  18.235   6.970
 5104POPC   C4A64974  15.301  18.296   7.252
 5104POPC   C1B64975  15.140  18.683   6.195
 5104POPC   C2B64976  15.220  18.537   6.619
 5104POPC   C3B64977  15.141  18.749   7.013
 5104POPC   C4B64978  15.267  18.783   7.451
 5105POPC   NC364979  44.169  14.598   5.473
 5105POPC   PO464980  43.894  14.003   5.436
 5105POPC   GL164981  43.930  14.238   5.804
 5105POPC   GL264982  43.677  14.494   5.730
 5105POPC   C1A64983  43.998  14.589   6.138
 5105POPC   D2A64984  43.919  14.794   6.549
 5105POPC   C3A64985  43.926  14.576   6.954
 5105POPC   C4A64986  44.224  14.393   7.246
 5105POPC   C1B64987  43.560  14.305   6.135
 5105POPC   C2B64988  43.771  14.264   6.530
 5105POPC   C3B64989  43.600  14.173   6.931
 5105POPC   C4B64990  43.773  14.205   7.325
 5106POPC   NC364991  38.984   3.021   5.555
 5106POPC   PO464992  39.395   2.462   5.548
 5106POPC   GL164993  39.322   2.582   5.927
 5106POPC   GL264994  39.092   2.796   6.014
 5106POPC   C1A64995  39.477   2.746   6.336
 5106POPC   D2A64996  39.233   2.849   6.724
 5106POPC   C3A64997  39.309   2.581   7.103
 5106POPC   C4A64998  39.686   2.480   7.328
 5106POPC   C1B64999  39.084   2.422   6.331
 5106POPC   C2B65000  39.001   2.340   6.755
 5106POPC   C3B65001  38.817   2.660   7.015
 5106POPC   C4B65002  38.804   2.773   7.469
 5107POPC   NC365003  43.337   1.213   5.573
 5107POPC   PO465004  42.866   0.766   5.259
 5107POPC   GL165005  42.882   1.002   5.721
 5107POPC   GL265006  42.951   1.410   5.831
 5107POPC   C1A65007  43.072   1.049   6.153
 5107POPC   D2A65008  43.170   1.154   6.562
 5107POPC   C3A65009  43.163   0.871   6.896
 5107POPC   C4A65010  42.802   1.002   7.133
 5107POPC   C1B65011  43.301   1.523   6.176
 5107POPC   C2B65012  43.505   1.547   6.610
 5107POPC   C3B65013  43.265   1.413   7.012
 5107POPC   C4B65014  43.282   1.513   7.486
 5108POPC   NC365015  43.854   1.493   5.431
 5108POPC   PO465016  43.692   0.921   5.523
 5108POPC   GL165017  43.882   1.031   5.858
 5108POPC   GL265018  43.682   0.774   6.022
 5108POPC   C1A65019  44.106   1.199   6.184
 5108POPC   D2A65020  44.009   1.377   6.584
 5108POPC   C3A65021  44.029   1.249   7.015
 5108POPC   C4A65022  43.700   1.351   7.241
 5108POPC   C1B65023  43.614   1.102   6.308
 5108POPC   C2B65024  43.646   1.042   6.745
 5108POPC   C3B65025  43.639   0.825   7.122
 5108POPC   C4B65026  43.339   1.013   7.371
 5109POPC   NC365027  18.487  29.960   5.341
 5109POPC   PO465028  17.793  30.089   5.328
 5109POPC   GL165029  18.071  29.896   5.702
 5109POPC   GL265030  18.450  29.847   5.830
 5109POPC   C1A65031  18.027  29.859   6.155
 5109POPC   D2A65032  18.071  30.096   6.561
 5109POPC   C3A65033  18.082  29.897   6.977
 5109POPC   C4A65034  18.211  30.025   7.396
 5109POPC   C1B65035  18.505  29.983   6.274
 5109POPC   C2B65036  18.540  29.904   6.723
 5109POPC   C3B65037  18.638  30.187   7.059
 5109POPC   C4B65038  18.704  30.163   7.489
 5110POPC   NC365039  32.284   0.879   5.501
 5110POPC   PO465040  31.854   1.475   5.493
 5110POPC   GL165041  31.970   1.462   5.919
 5110POPC   GL265042  32.180   1.205   5.884
 5110POPC   C1A65043  32.170   1.464   6.357
 5110POPC   D2A65044  32.457   1.328   6.685
 5110POPC   C3A65045  32.286   1.161   7.043
 5110POPC   C4A65046  31.912   1.263   7.212
 5110POPC   C1B65047  32.379   0.994   6.222
 5110POPC   C2B65048  32.258   0.852   6.613
 5110POPC   C3B65049  32.469   0.709   6.948
 5110POPC   C4B65050  32.392   0.761   7.394
 5111POPC   NC365051  40.124  40.740   5.495
 5111POPC   PO465052  39.751  41.301   5.519
 5111POPC   GL165053  40.039  41.110   5.828
 5111POPC   GL265054  40.349  41.274   5.876
 5111POPC   C1A65055  40.134  40.861   6.182
 5111POPC   D2A65056  39.956  40.679   6.555
 5111POPC   C3A65057  39.989  40.772   6.972
 5111POPC   C4A65058  39.798  40.718   7.383
 5111POPC   C1B65059  40.246  41.353   6.288
 5111POPC   C2B65060  40.304  41.102   6.622
 5111POPC   C3B65061  40.421  41.092   7.027
 5111POPC   C4B65062  40.310  40.841   7.361
 5112POPC   NC365063   4.593   0.831   5.429
 5112POPC   PO465064   4.162   0.251   5.480
 5112POPC   GL165065   4.299   0.584   5.817
 5112POPC   GL265066   4.664   0.693   5.932
 5112POPC   C1A65067   4.285   0.582   6.283
 5112POPC   D2A65068   4.358   0.611   6.710
 5112POPC   C3A65069   4.066   0.363   7.016
 5112POPC   C4A65070   4.030   0.339   7.436
 5112POPC   C1B65071   4.692   0.294   6.189
 5112POPC   C2B65072   4.412   0.131   6.542
 5112POPC   C3B65073   4.535   0.198   6.971
 5112POPC   C4B65074   4.480   0.609   7.199
 5113POPC   NC365075  30.197  13.539   5.633
 5113POPC   PO465076  29.591  13.689   5.320
 5113POPC   GL165077  29.738  13.818   5.773
 5113POPC   GL265078  30.036  13.748   6.038
 5113POPC   C1A65079  29.621  13.928   6.206
 5113POPC   D2A65080  29.858  13.856   6.594
 5113POPC   C3A65081  29.694  13.512   6.850
 5113POPC   C4A65082  29.397  13.599   7.224
 5113POPC   C1B65083  29.935  13.412   6.317
 5113POPC   C2B65084  30.144  13.269   6.686
 5113POPC   C3B65085  30.194  13.390   7.086
 5113POPC   C4B65086  29.906  13.723   7.278
 5114POPC   NC365087   3.040  18.394   5.340
 5114POPC   PO465088   2.372  18.308   5.517
 5114POPC   GL165089   2.764  18.224   5.800
 5114POPC   GL265090   2.942  18.540   5.825
 5114POPC   C1A65091   3.005  18.126   6.202
 5114POPC   D2A65092   3.271  18.220   6.582
 5114POPC   C3A65093   3.020  18.177   6.955
 5114POPC   C4A65094   2.576  18.288   7.040
 5114POPC   C1B65095   2.728  18.591   6.219
 5114POPC   C2B65096   2.895  18.578   6.645
 5114POPC   C3B65097   2.924  18.711   7.076
 5114POPC   C4B65098   2.537  18.713   7.332
 5115POPC   NC365099  11.111  41.851   5.534
 5115POPC   PO465100  10.965  41.236   5.332
 5115POPC   GL165101  11.225  41.320   5.706
 5115POPC   GL265102  10.989  41.523   5.902
 5115POPC   C1A65103  11.187  41.161   6.173
 5115POPC   D2A65104  10.979  41.244   6.576
 5115POPC   C3A65105  11.227  41.162   6.942
 5115POPC   C4A65106  11.454  41.369   7.251
 5115POPC   C1B65107  11.408  41.641   6.094
 5115POPC   C2B65108  11.562  41.916   6.416
 5115POPC   C3B65109  11.686  41.901   6.824
 5115POPC   C4B65110  11.489  41.882   7.213
 5116POPC   NC365111  24.783  44.591   5.025
 5116POPC   PO465112  24.342  44.947   5.418
 5116POPC   GL165113  24.434  44.687   5.774
 5116POPC   GL265114  24.679  44.885   5.889
 5116POPC   C1A65115  24.535  44.441   6.165
 5116POPC   D2A65116  24.425  44.577   6.591
 5116POPC   C3A65117  24.701  44.543   6.913
 5116POPC   C4A65118  24.400  44.505   7.176
 5116POPC   C1B65119  24.554  44.960   6.297
 5116POPC   C2B65120  24.471   0.066   6.736
 5116POPC   C3B65121  24.597  44.976   7.166
 5116POPC   C4B65122  24.830   0.022   7.522
 5117POPC   NC365123   9.551  17.887   5.452
 5117POPC   PO465124   9.521  18.553   5.395
 5117POPC   GL165125   9.610  18.312   5.741
 5117POPC   GL265126   9.970  18.291   5.706
 5117POPC   C1A65127   9.479  18.242   6.174
 5117POPC   D2A65128   9.521  18.400   6.579
 5117POPC   C3A65129   9.511  18.148   6.892
 5117POPC   C4A65130   9.669  18.204   7.252
 5117POPC   C1B65131   9.954  18.428   6.150
 5117POPC   C2B65132  10.042  18.317   6.579
 5117POPC   C3B65133   9.976  18.467   6.976
 5117POPC   C4B65134  10.172  18.742   7.237
 5118POPC   NC365135   0.543   7.809   5.503
 5118POPC   PO465136   0.481   7.197   5.822
 5118POPC   GL165137   0.454   7.633   5.981
 5118POPC   GL265138   0.750   7.901   5.947
 5118POPC   C1A65139   0.310   7.634   6.403
 5118POPC   D2A65140  44.977   7.570   6.701
 5118POPC   C3A65141   0.195   7.349   7.013
 5118POPC   C4A65142   0.434   7.445   7.376
 5118POPC   C1B65143   0.799   7.779   6.355
 5118POPC   C2B65144   0.681   7.692   6.797
 5118POPC   C3B65145   0.806   7.792   7.246
 5118POPC   C4B65146   0.885   7.677   7.700
 5119POPC   NC365147  34.310  14.846   5.550
 5119POPC   PO465148  34.880  15.288   5.449
 5119POPC   GL165149  34.751  15.236   5.849
 5119POPC   GL265150  34.668  14.912   5.913
 5119POPC   C1A65151  34.847  15.192   6.293
 5119POPC   D2A65152  34.962  15.001   6.670
 5119POPC   C3A65153  34.768  15.251   6.992
 5119POPC   C4A65154  34.759  15.311   7.414
 5119POPC   C1B65155  34.324  15.188   6.110
 5119POPC   C2B65156  34.143  15.301   6.497
 5119POPC   C3B65157  34.245  15.209   6.914
 5119POPC   C4B65158  34.324  15.068   7.314
 5120POPC   NC365159  14.278  28.845   5.550
 5120POPC   PO465160  14.611  29.231   5.174
 5120POPC   GL165161  14.535  29.294   5.671
 5120POPC   GL265162  14.164  29.262   5.835
 5120POPC   C1A65163  14.556  29.086   6.117
 5120POPC   D2A65164  14.545  28.843   6.518
 5120POPC   C3A65165  14.250  28.929   6.861
 5120POPC   C4A65166  14.476  28.910   7.241
 5120POPC   C1B65167  14.089  29.162   6.293
 5120POPC   C2B65168  14.375  29.340   6.580
 5120POPC   C3B65169  14.460  29.378   7.022
 5120POPC   C4B65170  14.104  29.405   7.291
 5121POPC   NC365171   0.138  44.947   5.470
 5121POPC   PO465172  44.487   0.001   5.295
 5121POPC   GL165173  44.602  44.728   5.688
 5121POPC   GL265174  44.943  44.603   5.801
 5121POPC   C1A65175  44.554  44.622   6.145
 5121POPC   D2A65176  44.404  44.789   6.531
 5121POPC   C3A65177  44.449  44.547   6.894
 5121POPC   C4A65178  44.625  44.817   7.168
 5121POPC   C1B65179   0.072  44.637   6.243
 5121POPC   C2B65180  44.956  44.766   6.683
 5121POPC   C3B65181   0.101  44.658   7.086
 5121POPC   C4B65182   0.055  44.444   7.532
 5122POPC   NC365183  29.554  43.721   5.394
 5122POPC   PO465184  30.264  43.868   5.411
 5122POPC   GL165185  29.921  43.880   5.709
 5122POPC   GL265186  29.862  43.525   5.778
 5122POPC   C1A65187  29.832  44.078   6.107
 5122POPC   D2A65188  30.102  44.131   6.472
 5122POPC   C3A65189  29.920  44.044   6.867
 5122POPC   C4A65190  30.099  44.109   7.280
 5122POPC   C1B65191  30.138  43.642   6.133
 5122POPC   C2B65192  30.029  43.565   6.560
 5122POPC   C3B65193  30.071  43.459   6.955
 5122POPC   C4B65194  30.078  43.618   7.289
 5123POPC   NC365195  24.795   4.524   5.140
 5123POPC   PO465196  24.681   5.192   5.411
 5123POPC   GL165197  24.553   5.154   5.822
 5123POPC   GL265198  24.266   4.918   5.811
 5123POPC   C1A65199  24.701   5.328   6.212
 5123POPC   D2A65200  24.827   5.559   6.575
 5123POPC   C3A65201  24.728   5.378   6.962
 5123POPC   C4A65202  24.777   4.949   7.111
 5123POPC   C1B65203  24.202   5.171   6.201
 5123POPC   C2B65204  24.403   5.129   6.605
 5123POPC   C3B65205  24.311   5.070   7.020
 5123POPC   C4B65206  24.241   5.317   7.382
 5124POPC   NC365207   6.656  29.639   5.430
 5124POPC   PO465208   6.588  30.302   5.337
 5124POPC   GL165209   6.833  30.110   5.712
 5124POPC   GL265210   6.548  29.932   5.835
 5124POPC   C1A65211   6.946  30.029   6.188
 5124POPC   D2A65212   6.761  29.871   6.609
 5124POPC   C3A65213   6.771  30.049   7.039
 5124POPC   C4A65214   6.640  29.700   7.330
 5124POPC   C1B65215   6.404  29.885   6.241
 5124POPC   C2B65216   6.179  30.032   6.605
 5124POPC   C3B65217   6.287  29.928   7.017
 5124POPC   C4B65218   6.389  30.133   7.381
 5125POPC   NC365219   8.320  18.734   5.343
 5125POPC   PO465220   7.894  19.097   5.576
 5125POPC   GL165221   8.029  18.827   5.886
 5125POPC   GL265222   8.388  18.778   5.851
 5125POPC   C1A65223   8.186  18.890   6.332
 5125POPC   D2A65224   8.431  19.196   6.552
 5125POPC   C3A65225   8.324  19.395   6.940
 5125POPC   C4A65226   8.184  19.331   7.357
 5125POPC   C1B65227   8.639  18.572   6.157
 5125POPC   C2B65228   8.678  18.719   6.593
 5125POPC   C3B65229   8.360  18.778   6.932
 5125POPC   C4B65230   8.345  18.822   7.400
 5126POPC   NC365231   6.978  13.137   5.336
 5126POPC   PO465232   6.470  12.835   5.505
 5126POPC   GL165233   6.786  12.792   5.800
 5126POPC   GL265234   6.822  13.115   5.820
 5126POPC   C1A65235   6.890  12.862   6.257
 5126POPC   D2A65236   6.611  12.971   6.601
 5126POPC   C3A65237   6.804  12.988   6.996
 5126POPC   C4A65238   6.490  12.769   7.201
 5126POPC   C1B65239   6.489  13.152   6.106
 5126POPC   C2B65240   6.569  13.445   6.402
 5126POPC   C3B65241   6.630  13.509   6.825
 5126POPC   C4B65242   6.439  13.320   7.172
 5127POPC   NC365243  38.686  18.701   5.516
 5127POPC   PO465244  38.213  18.105   5.439
 5127POPC   GL165245  38.488  18.244   5.750
 5127POPC   GL265246  38.286  18.516   5.864
 5127POPC   C1A65247  38.632  18.002   6.107
 5127POPC   D2A65248  38.759  18.056   6.557
 5127POPC   C3A65249  38.577  17.976   6.973
 5127POPC   C4A65250  38.603  18.225   7.347
 5127POPC   C1B65251  38.219  18.257   6.227
 5127POPC   C2B65252  38.222  18.193   6.649
 5127POPC   C3B65253  38.437  18.486   6.894
 5127POPC   C4B65254  38.258  18.634   7.247
 5128POPC   NC365255   8.691  28.029   5.595
 5128POPC   PO465256   8.914  28.663   5.393
 5128POPC   GL165257   8.935  28.463   5.756
 5128POPC   GL265258   8.674  28.608   5.929
 5128POPC   C1A65259   9.221  28.569   6.056
 5128POPC   D2A65260   9.277  28.626   6.474
 5128POPC   C3A65261   9.219  28.284   6.698
 5128POPC   C4A65262   9.124  28.211   7.108
 5128POPC   C1B65263   8.843  28.339   6.295
 5128POPC   C2B65264   8.707  28.272   6.723
 5128POPC   C3B65265   8.818  28.607   6.977
 5128POPC   C4B65266   9.210  28.740   7.162
 5129POPC   NC365267  15.989   6.429   5.370
 5129POPC   PO465268  15.783   7.092   5.541
 5129POPC   GL165269  15.802   6.813   5.861
 5129POPC   GL265270  16.122   6.671   5.825
 5129POPC   C1A65271  15.867   6.916   6.298
 5129POPC   D2A65272  15.598   6.856   6.666
 5129POPC   C3A65273  15.879   6.893   7.027
 5129POPC   C4A65274  16.075   6.738   7.434
 5129POPC   C1B65275  16.089   6.445   6.214
 5129POPC   C2B65276  15.990   6.537   6.638
 5129POPC   C3B65277  16.123   6.417   7.022
 5129POPC   C4B65278  16.331   6.292   7.384
 5130POPC   NC365279  12.082  31.765   5.479
 5130POPC   PO465280  11.718  31.358   5.127
 5130POPC   GL165281  11.800  31.371   5.649
 5130POPC   GL265282  11.648  31.100   5.820
 5130POPC   C1A65283  12.073  31.405   6.081
 5130POPC   D2A65284  12.379  31.516   6.433
 5130POPC   C3A65285  12.269  31.603   6.893
 5130POPC   C4A65286  12.153  31.641   7.346
 5130POPC   C1B65287  11.750  31.038   6.275
 5130POPC   C2B65288  11.940  31.271   6.653
 5130POPC   C3B65289  11.941  31.234   7.140
 5130POPC   C4B65290  11.850  31.326   7.617
 5131POPC   NC365291  25.140  13.385   5.715
 5131POPC   PO465292  25.268  13.971   5.442
 5131POPC   GL165293  25.437  13.781   5.810
 5131POPC   GL265294  25.135  13.846   5.996
 5131POPC   C1A65295  25.534  13.554   6.214
 5131POPC   D2A65296  25.626  13.790   6.605
 5131POPC   C3A65297  25.353  13.724   6.957
 5131POPC   C4A65298  25.428  13.670   7.368
 5131POPC   C1B65299  25.125  13.759   6.453
 5131POPC   C2B65300  25.192  13.346   6.651
 5131POPC   C3B65301  25.152  13.224   7.091
 5131POPC   C4B65302  25.008  13.430   7.493
 5132POPC   NC365303  34.616  27.470   5.469
 5132POPC   PO465304  34.448  28.113   5.498
 5132POPC   GL165305  34.396  27.822   5.825
 5132POPC   GL265306  34.219  27.460   5.767
 5132POPC   C1A65307  34.537  27.927   6.242
 5132POPC   D2A65308  34.794  27.729   6.585
 5132POPC   C3A65309  34.575  27.728   6.965
 5132POPC   C4A65310  34.389  27.841   7.347
 5132POPC   C1B65311  34.507  27.435   6.146
 5132POPC   C2B65312  34.326  27.452   6.566
 5132POPC   C3B65313  34.437  27.236   6.949
 5132POPC   C4B65314  34.805  27.295   7.127
 5133POPC   NC365315  25.022  36.780   5.585
 5133POPC   PO465316  25.446  37.274   5.410
 5133POPC   GL165317  25.422  37.053   5.838
 5133POPC   GL265318  25.082  37.080   6.001
 5133POPC   C1A65319  25.440  36.962   6.327
 5133POPC   D2A65320  25.146  36.982   6.695
 5133POPC   C3A65321  25.330  36.945   7.082
 5133POPC   C4A65322  25.622  36.616   6.998
 5133POPC   C1B65323  24.921  36.757   6.269
 5133POPC   C2B65324  24.772  36.618   6.672
 5133POPC   C3B65325  24.845  36.778   7.094
 5133POPC   C4B65326  24.812  36.684   7.526
 5134POPC   NC365327  22.243  24.571   5.281
 5134POPC   PO465328  22.702  24.230   5.122
 5134POPC   GL165329  22.428  24.485   5.728
 5134POPC   GL265330  22.060  24.525   5.771
 5134POPC   C1A65331  22.481  24.589   6.202
 5134POPC   D2A65332  22.729  24.536   6.598
 5134POPC   C3A65333  22.562  24.444   7.008
 5134POPC   C4A65334  22.537  24.776   7.263
 5134POPC   C1B65335  22.050  24.300   6.194
 5134POPC   C2B65336  22.200  24.352   6.653
 5134POPC   C3B65337  22.066  24.593   7.060
 5134POPC   C4B65338  21.999  24.751   7.505
 5135POPC   NC365339  34.426   1.135   5.409
 5135POPC   PO465340  34.953   1.564   5.410
 5135POPC   GL165341  34.825   1.311   5.770
 5135POPC   GL265342  34.498   1.261   5.909
 5135POPC   C1A65343  34.861   1.464   6.204
 5135POPC   D2A65344  34.538   1.418   6.520
 5135POPC   C3A65345  34.747   1.397   6.912
 5135POPC   C4A65346  34.871   1.372   7.353
 5135POPC   C1B65347  34.695   0.980   6.246
 5135POPC   C2B65348  34.649   0.784   6.671
 5135POPC   C3B65349  34.675   0.928   7.111
 5135POPC   C4B65350  34.379   1.254   7.248
 5136POPC   NC365351  29.186  10.580   5.453
 5136POPC   PO465352  28.768  10.217   5.823
 5136POPC   GL165353  28.949  10.664   5.917
 5136POPC   GL265354  29.329  10.715   5.919
 5136POPC   C1A65355  29.079  10.889   6.329
 5136POPC   D2A65356  29.351  10.739   6.692
 5136POPC   C3A65357  29.131  10.629   7.042
 5136POPC   C4A65358  28.763  10.772   7.224
 5136POPC   C1B65359  29.263  10.405   6.260
 5136POPC   C2B65360  29.221  10.204   6.677
 5136POPC   C3B65361  29.368  10.161   7.094
 5136POPC   C4B65362  29.614  10.503   7.217
 5137POPC   NC365363  44.320   3.748   5.387
 5137POPC   PO465364  43.663   3.631   5.355
 5137POPC   GL165365  43.819   3.568   5.789
 5137POPC   GL265366  44.151   3.722   5.870
 5137POPC   C1A65367  43.683   3.563   6.238
 5137POPC   D2A65368  43.751   3.739   6.662
 5137POPC   C3A65369  43.736   3.444   6.986
 5137POPC   C4A65370  44.051   3.198   7.077
 5137POPC   C1B65371  44.079   3.878   6.278
 5137POPC   C2B65372  44.275   3.870   6.680
 5137POPC   C3B65373  44.112   3.818   7.093
 5137POPC   C4B65374  44.120   3.999   7.517
 5138POPC   NC365375  42.157  44.392   5.507
 5138POPC   PO465376  42.278   0.031   5.597
 5138POPC   GL165377  42.554  44.837   5.880
 5138POPC   GL265378  42.476  44.465   5.912
 5138POPC   C1A65379  42.466  44.786   6.305
 5138POPC   D2A65380  42.310  44.437   6.537
 5138POPC   C3A65381  42.303  44.641   6.913
 5138POPC   C4A65382  42.127  44.954   7.153
 5138POPC   C1B65383  42.041  44.552   6.114
 5138POPC   C2B65384  41.781  44.312   6.398
 5138POPC   C3B65385  41.833  44.290   6.825
 5138POPC   C4B65386  42.087  44.280   7.190
 5139POPC   NC365387  29.422  16.908   5.471
 5139POPC   PO465388  28.997  16.438   5.217
 5139POPC   GL165389  29.010  16.339   5.697
 5139POPC   GL265390  29.244  16.592   5.907
 5139POPC   C1A65391  28.930  16.334   6.198
 5139POPC   D2A65392  28.793  16.557   6.571
 5139POPC   C3A65393  28.970  16.588   6.978
 5139POPC   C4A65394  29.325  16.670   7.251
 5139POPC   C1B65395  29.292  16.670   6.400
 5139POPC   C2B65396  29.519  16.881   6.784
 5139POPC   C3B65397  29.601  17.101   7.211
 5139POPC   C4B65398  29.360  17.057   7.592
 5140POPC   NC365399   5.693  37.272   5.656
 5140POPC   PO465400   5.219  37.535   5.261
 5140POPC   GL165401   5.261  37.625   5.699
 5140POPC   GL265402   5.541  37.818   5.767
 5140POPC   C1A65403   5.106  37.543   6.131
 5140POPC   D2A65404   4.880  37.640   6.521
 5140POPC   C3A65405   5.078  37.523   6.928
 5140POPC   C4A65406   4.869  37.674   7.308
 5140POPC   C1B65407   5.406  37.960   6.165
 5140POPC   C2B65408   5.392  37.747   6.571
 5140POPC   C3B65409   5.432  37.913   6.992
 5140POPC   C4B65410   5.386  37.657   7.355
 5141POPC   NC365411   6.251  19.939   5.524
 5141POPC   PO465412   6.589  19.440   5.142
 5141POPC   GL165413   6.646  19.581   5.615
 5141POPC   GL265414   6.706  19.921   5.792
 5141POPC   C1A65415   6.536  19.542   6.082
 5141POPC   D2A65416   6.473  19.473   6.538
 5141POPC   C3A65417   6.799  19.541   6.885
 5141POPC   C4A65418   6.649  19.628   7.300
 5141POPC   C1B65419   6.583  20.176   6.173
 5141POPC   C2B65420   6.808  20.197   6.573
 5141POPC   C3B65421   6.755  20.086   6.985
 5141POPC   C4B65422   6.380  20.070   7.205
 5142POPC   NC365423  28.397  33.645   5.429
 5142POPC   PO465424  28.467  34.372   5.423
 5142POPC   GL165425  28.533  34.067   5.749
 5142POPC   GL265426  28.194  34.020   5.866
 5142POPC   C1A65427  28.569  33.829   6.156
 5142POPC   D2A65428  28.451  33.555   6.523
 5142POPC   C3A65429  28.564  33.761   6.908
 5142POPC   C4A65430  28.369  33.912   7.274
 5142POPC   C1B65431  28.070  33.643   6.135
 5142POPC   C2B65432  27.907  33.577   6.549
 5142POPC   C3B65433  28.075  33.641   6.934
 5142POPC   C4B65434  27.989  33.487   7.307
 5143POPC   NC365435  38.887  40.369   5.463
 5143POPC   PO465436  39.257  39.917   5.194
 5143POPC   GL165437  39.120  39.939   5.688
 5143POPC   GL265438  38.995  40.246   5.933
 5143POPC   C1A65439  39.160  39.843   6.161
 5143POPC   D2A65440  39.428  39.928   6.537
 5143POPC   C3A65441  39.181  40.073   6.884
 5143POPC   C4A65442  39.239  39.854   7.243
 5143POPC   C1B65443  39.363  40.347   6.240
 5143POPC   C2B65444  39.532  40.419   6.694
 5143POPC   C3B65445  39.430  40.450   7.153
 5143POPC   C4B65446  39.025  40.322   7.341
 5144POPC   NC365447  28.500  35.606   5.516
 5144POPC   PO465448  28.504  36.215   5.246
 5144POPC   GL165449  28.315  36.259   5.629
 5144POPC   GL265450  28.653  36.312   5.792
 5144POPC   C1A65451  28.209  36.203   6.076
 5144POPC   D2A65452  28.265  35.901   6.436
 5144POPC   C3A65453  28.219  36.050   6.868
 5144POPC   C4A65454  28.251  35.910   7.269
 5144POPC   C1B65455  28.695  36.117   6.216
 5144POPC   C2B65456  28.593  36.277   6.633
 5144POPC   C3B65457  28.746  36.348   7.059
 5144POPC   C4B65458  28.847  36.603   7.429
 5145POPC   NC365459  25.303  18.162   5.398
 5145POPC   PO465460  24.973  18.677   5.473
 5145POPC   GL165461  25.315  18.579   5.784
 5145POPC   GL265462  25.331  18.235   5.925
 5145POPC   C1A65463  25.416  18.617   6.259
 5145POPC   D2A65464  25.556  18.562   6.710
 5145POPC   C3A65465  25.232  18.502   7.040
 5145POPC   C4A65466  25.025  18.111   7.221
 5145POPC   C1B65467  25.474  18.123   6.389
 5145POPC   C2B65468  25.390  18.054   6.856
 5145POPC   C3B65469  25.482  17.875   7.293
 5145POPC   C4B65470  25.601  17.778   7.743
 5146POPC   NC365471  20.957  11.439   5.425
 5146POPC   PO465472  20.340  11.085   5.494
 5146POPC   GL165473  20.487  11.400   5.834
 5146POPC   GL265474  20.802  11.608   5.901
 5146POPC   C1A65475  20.394  11.453   6.273
 5146POPC   D2A65476  20.255  11.635   6.654
 5146POPC   C3A65477  20.390  11.413   7.015
 5146POPC   C4A65478  20.269  11.435   7.440
 5146POPC   C1B65479  20.859  11.260   6.194
 5146POPC   C2B65480  20.765  11.258   6.636
 5146POPC   C3B65481  20.888  11.469   7.001
 5146POPC   C4B65482  20.963  11.305   7.385
 5147POPC   NC365483  39.403  11.205   5.410
 5147POPC   PO465484  38.865  11.207   5.518
 5147POPC   GL165485  39.197  11.253   5.886
 5147POPC   GL265486  39.567  11.126   5.902
 5147POPC   C1A65487  39.270  11.185   6.340
 5147POPC   D2A65488  39.092  11.189   6.769
 5147POPC   C3A65489  39.364  11.362   7.070
 5147POPC   C4A65490  39.568  11.193   7.417
 5147POPC   C1B65491  39.725  11.434   6.270
 5147POPC   C2B65492  39.722  11.621   6.731
 5147POPC   C3B65493  39.634  11.765   7.188
 5147POPC   C4B65494  39.473  11.677   7.614
 5148POPC   NC365495  18.548  15.449   5.639
 5148POPC   PO465496  19.136  15.115   5.339
 5148POPC   GL165497  19.199  15.150   5.774
 5148POPC   GL265498  19.458  15.419   5.835
 5148POPC   C1A65499  18.911  15.067   6.119
 5148POPC   D2A65500  18.700  15.234   6.491
 5148POPC   C3A65501  18.904  15.100   6.909
 5148POPC   C4A65502  18.702  15.034   7.314
 5148POPC   C1B65503  19.414  15.195   6.243
 5148POPC   C2B65504  19.442  15.142   6.676
 5148POPC   C3B65505  19.458  15.073   7.102
 5148POPC   C4B65506  19.144  15.292   7.350
 5149POPC   NC365507  40.399  35.273   5.430
 5149POPC   PO465508  39.763  35.547   5.335
 5149POPC   GL165509  39.973  35.443   5.754
 5149POPC   GL265510  40.322  35.507   5.869
 5149POPC   C1A65511  39.914  35.324   6.218
 5149POPC   D2A65512  39.990  35.037   6.592
 5149POPC   C3A65513  39.851  35.196   6.993
 5149POPC   C4A65514  39.541  35.121   7.294
 5149POPC   C1B65515  40.352  35.599   6.287
 5149POPC   C2B65516  40.116  35.541   6.650
 5149POPC   C3B65517  40.228  35.531   7.044
 5149POPC   C4B65518  40.354  35.359   7.431
 5150POPC   NC365519  37.696  20.612   5.093
 5150POPC   PO465520  37.838  21.084   5.601
 5150POPC   GL165521  37.659  20.855   5.861
 5150POPC   GL265522  37.743  20.537   5.787
 5150POPC   C1A65523  37.619  20.859   6.266
 5150POPC   D2A65524  37.528  20.616   6.611
 5150POPC   C3A65525  37.611  20.817   6.975
 5150POPC   C4A65526  37.416  20.703   7.360
 5150POPC   C1B65527  37.788  20.366   6.240
 5150POPC   C2B65528  37.962  20.323   6.683
 5150POPC   C3B65529  37.869  20.374   7.149
 5150POPC   C4B65530  37.983  20.395   7.599
 5151POPC   NC365531   5.313   4.878   5.399
 5151POPC   PO465532   4.771   5.313   5.387
 5151POPC   GL165533   4.942   5.160   5.739
 5151POPC   GL265534   5.289   5.267   5.795
 5151POPC   C1A65535   4.825   5.281   6.151
 5151POPC   D2A65536   4.979   5.127   6.548
 5151POPC   C3A65537   4.783   5.276   6.928
 5151POPC   C4A65538   4.556   5.257   7.321
 5151POPC   C1B65539   5.255   4.936   6.129
 5151POPC   C2B65540   5.399   4.821   6.576
 5151POPC   C3B65541   5.266   5.037   6.956
 5151POPC   C4B65542   5.272   5.460   7.068
 5152POPC   NC365543  34.244  37.518   5.449
 5152POPC   PO465544  34.931  37.729   5.483
 5152POPC   GL165545  34.681  37.664   5.897
 5152POPC   GL265546  34.330  37.714   5.905
 5152POPC   C1A65547  34.593  37.570   6.356
 5152POPC   D2A65548  34.779  37.598   6.767
 5152POPC   C3A65549  34.483  37.566   7.089
 5152POPC   C4A65550  34.185  37.904   7.130
 5152POPC   C1B65551  34.113  37.494   6.230
 5152POPC   C2B65552  34.054  37.672   6.650
 5152POPC   C3B65553  33.998  37.434   7.017
 5152POPC   C4B65554  34.126  37.359   7.438
 5153POPC   NC365555  40.350   0.961   5.311
 5153POPC   PO465556  39.867   1.310   5.500
 5153POPC   GL165557  39.895   1.365   5.913
 5153POPC   GL265558  39.719   1.049   5.924
 5153POPC   C1A65559  39.936   1.420   6.351
 5153POPC   D2A65560  39.845   1.208   6.729
 5153POPC   C3A65561  40.079   1.366   7.069
 5153POPC   C4A65562  40.067   1.316   7.503
 5153POPC   C1B65563  39.811   0.922   6.301
 5153POPC   C2B65564  40.110   0.743   6.597
 5153POPC   C3B65565  40.048   0.840   7.014
 5153POPC   C4B65566  39.701   1.062   7.221
 5154POPC   NC365567   6.312  35.957   5.311
 5154POPC   PO465568   6.503  36.542   5.295
 5154POPC   GL165569   6.650  36.287   5.685
 5154POPC   GL265570   6.468  35.966   5.811
 5154POPC   C1A65571   6.640  36.321   6.166
 5154POPC   D2A65572   6.748  36.082   6.566
 5154POPC   C3A65573   6.697  36.288   6.977
 5154POPC   C4A65574   6.681  36.205   7.427
 5154POPC   C1B65575   6.303  35.920   6.259
 5154POPC   C2B65576   6.364  35.776   6.716
 5154POPC   C3B65577   6.644  35.788   7.094
 5154POPC   C4B65578   6.606  35.735   7.578
 5155POPC   NC365579  32.973  14.530   5.195
 5155POPC   PO465580  33.130  13.987   5.534
 5155POPC   GL165581  32.942  14.332   5.731
 5155POPC   GL265582  33.221  14.566   5.665
 5155POPC   C1A65583  32.849  14.378   6.187
 5155POPC   D2A65584  33.087  14.453   6.588
 5155POPC   C3A65585  32.919  14.667   6.957
 5155POPC   C4A65586  32.741  14.726   7.371
 5155POPC   C1B65587  33.439  14.617   6.082
 5155POPC   C2B65588  33.468  14.796   6.507
 5155POPC   C3B65589  33.503  14.615   6.926
 5155POPC   C4B65590  33.268  14.327   7.161
 5156POPC   NC365591  10.141  30.888   5.357
 5156POPC   PO465592   9.559  30.513   5.459
 5156POPC   GL165593   9.769  30.777   5.797
 5156POPC   GL265594   9.977  31.093   5.798
 5156POPC   C1A65595   9.686  30.905   6.239
 5156POPC   D2A65596   9.621  30.680   6.640
 5156POPC   C3A65597   9.671  30.805   7.064
 5156POPC   C4A65598  10.034  30.698   7.364
 5156POPC   C1B65599  10.184  30.872   6.106
 5156POPC   C2B65600  10.129  30.752   6.531
 5156POPC   C3B65601  10.131  30.970   6.916
 5156POPC   C4B65602   9.932  31.183   7.257
 5157POPC   NC365603  14.016  16.220   5.422
 5157POPC   PO465604  13.590  16.788   5.306
 5157POPC   GL165605  13.540  16.870   5.764
 5157POPC   GL265606  13.232  16.736   5.927
 5157POPC   C1A65607  13.720  16.779   6.178
 5157POPC   D2A65608  13.887  16.968   6.564
 5157POPC   C3A65609  13.749  16.846   6.990
 5157POPC   C4A65610  13.359  16.717   7.174
 5157POPC   C1B65611  13.251  16.563   6.328
 5157POPC   C2B65612  13.389  16.471   6.731
 5157POPC   C3B65613  13.736  16.332   6.982
 5157POPC   C4B65614  14.062  16.479   7.255
 5158POPC   NC365615  18.984   1.049   5.163
 5158POPC   PO465616  18.388   1.189   5.463
 5158POPC   GL165617  18.400   1.014   5.876
 5158POPC   GL265618  18.174   0.774   5.902
 5158POPC   C1A65619  18.441   1.185   6.292
 5158POPC   D2A65620  18.614   1.436   6.620
 5158POPC   C3A65621  18.295   1.392   6.926
 5158POPC   C4A65622  18.011   1.536   7.265
 5158POPC   C1B65623  18.040   0.821   6.298
 5158POPC   C2B65624  17.940   1.115   6.592
 5158POPC   C3B65625  17.912   1.071   7.003
 5158POPC   C4B65626  18.097   1.045   7.413
 5159POPC   NC365627   8.059  41.115   5.410
 5159POPC   PO465628   8.324  40.525   5.308
 5159POPC   GL165629   8.203  40.645   5.713
 5159POPC   GL265630   8.416  40.929   5.753
 5159POPC   C1A65631   8.245  40.581   6.164
 5159POPC   D2A65632   8.447  40.458   6.536
 5159POPC   C3A65633   8.300  40.592   6.948
 5159POPC   C4A65634   8.288  40.370   7.338
 5159POPC   C1B65635   8.087  41.047   6.064
 5159POPC   C2B65636   8.136  41.015   6.521
 5159POPC   C3B65637   7.984  40.982   6.966
 5159POPC   C4B65638   8.023  40.800   7.416
 5160POPC   NC365639  36.328  29.762   5.714
 5160POPC   PO465640  35.895  30.037   5.222
 5160POPC   GL165641  35.842  29.995   5.700
 5160POPC   GL265642  35.689  29.734   5.941
 5160POPC   C1A65643  35.932  30.127   6.144
 5160POPC   D2A65644  36.238  30.070   6.502
 5160POPC   C3A65645  36.221  29.856   6.902
 5160POPC   C4A65646  36.402  29.884   7.323
 5160POPC   C1B65647  35.998  29.623   6.284
 5160POPC   C2B65648  35.791  29.779   6.599
 5160POPC   C3B65649  35.680  29.761   6.997
 5160POPC   C4B65650  35.887  29.959   7.325
 5161POPC   NC365651  42.250  12.498   5.198
 5161POPC   PO465652  42.511  13.010   5.500
 5161POPC   GL165653  42.219  12.849   5.779
 5161POPC   GL265654  42.429  12.728   5.997
 5161POPC   C1A65655  42.000  12.909   6.211
 5161POPC   D2A65656  42.001  13.152   6.585
 5161POPC   C3A65657  42.183  12.875   6.903
 5161POPC   C4A65658  42.579  12.895   7.147
 5161POPC   C1B65659  42.479  12.492   6.357
 5161POPC   C2B65660  42.565  12.527   6.774
 5161POPC   C3B65661  42.713  12.403   7.156
 5161POPC   C4B65662  42.701  12.567   7.571
 5162POPC   NC365663  44.052  18.708   5.276
 5162POPC   PO465664  43.684  19.259   5.084
 5162POPC   GL165665  43.878  19.184   5.583
 5162POPC   GL265666  44.098  18.910   5.760
 5162POPC   C1A65667  43.936  19.266   6.108
 5162POPC   D2A65668  43.795  19.324   6.578
 5162POPC   C3A65669  43.964  19.428   7.032
 5162POPC   C4A65670  43.846  19.300   7.471
 5162POPC   C1B65671  43.792  18.776   6.112
 5162POPC   C2B65672  43.874  18.818   6.565
 5162POPC   C3B65673  43.779  18.955   6.987
 5162POPC   C4B65674  44.149  18.950   7.290
 5163POPC   NC365675   8.764  34.018   5.299
 5163POPC   PO465676   8.097  33.759   5.203
 5163POPC   GL165677   8.045  33.758   5.704
 5163POPC   GL265678   8.377  33.932   5.836
 5163POPC   C1A65679   7.991  33.888   6.165
 5163POPC   D2A65680   8.244  33.785   6.555
 5163POPC   C3A65681   8.016  33.556   6.883
 5163POPC   C4A65682   7.729  33.770   7.203
 5163POPC   C1B65683   8.623  33.690   6.166
 5163POPC   C2B65684   8.707  33.518   6.599
 5163POPC   C3B65685   8.520  33.688   6.992
 5163POPC   C4B65686   8.223  33.981   7.103
 5164POPC   NC365687   8.710   0.131   4.980
 5164POPC   PO465688   8.878  44.609   5.447
 5164POPC   GL165689   9.163  44.652   5.796
 5164POPC   GL265690   9.213   0.019   5.898
 5164POPC   C1A65691   9.341  44.556   6.205
 5164POPC   D2A65692   9.263  44.764   6.574
 5164POPC   C3A65693   9.107  44.478   6.879
 5164POPC   C4A65694   8.968  44.555   7.310
 5164POPC   C1B65695   8.884  44.791   6.166
 5164POPC   C2B65696   8.685  44.634   6.485
 5164POPC   C3B65697   8.634  44.696   6.920
 5164POPC   C4B65698   8.717   0.037   7.201
 5165POPC   NC365699  10.723  21.150   5.426
 5165POPC   PO465700  10.086  21.425   5.428
 5165POPC   GL165701  10.309  21.449   5.835
 5165POPC   GL265702  10.613  21.614   5.834
 5165POPC   C1A65703  10.541  21.309   6.240
 5165POPC   D2A65704  10.749  21.116   6.626
 5165POPC   C3A65705  10.535  21.258   7.006
 5165POPC   C4A65706  10.357  21.680   7.043
 5165POPC   C1B65707  10.962  21.616   6.151
 5165POPC   C2B65708  11.128  21.717   6.561
 5165POPC   C3B65709  10.890  21.636   6.916
 5165POPC   C4B65710  10.786  21.582   7.327
 5166POPC   NC365711  41.190  36.976   5.285
 5166POPC   PO465712  41.661  37.223   5.711
 5166POPC   GL165713  41.651  37.027   6.058
 5166POPC   GL265714  41.700  36.677   5.979
 5166POPC   C1A65715  41.348  37.143   6.366
 5166POPC   D2A65716  41.100  36.992   6.690
 5166POPC   C3A65717  41.396  36.954   6.983
 5166POPC   C4A65718  41.499  37.109   7.387
 5166POPC   C1B65719  41.515  36.662   6.417
 5166POPC   C2B65720  41.755  36.614   6.782
 5166POPC   C3B65721  41.861  36.825   7.136
 5166POPC   C4B65722  41.832  36.739   7.562
 5167POPC   NC365723  23.243   5.625   5.432
 5167POPC   PO465724  22.796   6.093   5.384
 5167POPC   GL165725  22.833   5.823   5.749
 5167POPC   GL265726  23.147   5.935   5.837
 5167POPC   C1A65727  22.863   5.751   6.222
 5167POPC   D2A65728  23.039   5.896   6.647
 5167POPC   C3A65729  23.050   5.696   7.074
 5167POPC   C4A65730  23.208   5.458   7.473
 5167POPC   C1B65731  23.152   6.181   6.242
 5167POPC   C2B65732  23.276   6.353   6.669
 5167POPC   C3B65733  23.295   6.239   7.125
 5167POPC   C4B65734  23.346   6.263   7.583
 5168POPC   NC365735  27.345  29.538   5.277
 5168POPC   PO465736  27.061  29.015   5.438
 5168POPC   GL165737  26.845  29.023   5.826
 5168POPC   GL265738  26.481  28.976   5.832
 5168POPC   C1A65739  26.837  29.230   6.195
 5168POPC   D2A65740  26.796  29.069   6.589
 5168POPC   C3A65741  27.015  29.122   6.963
 5168POPC   C4A65742  26.935  28.855   7.301
 5168POPC   C1B65743  26.363  28.940   6.256
 5168POPC   C2B65744  26.468  28.695   6.624
 5168POPC   C3B65745  26.517  28.910   7.002
 5168POPC   C4B65746  26.389  28.895   7.436
 5169POPC   NC365747  19.334  36.840   5.475
 5169POPC   PO465748  18.811  36.439   5.526
 5169POPC   GL165749  19.027  36.674   5.861
 5169POPC   GL265750  19.042  37.040   5.864
 5169POPC   C1A65751  19.068  36.792   6.300
 5169POPC   D2A65752  19.001  36.833   6.714
 5169POPC   C3A65753  19.155  36.831   7.101
 5169POPC   C4A65754  19.101  36.860   7.538
 5169POPC   C1B65755  18.694  37.163   6.125
 5169POPC   C2B65756  18.562  37.336   6.511
 5169POPC   C3B65757  18.651  37.188   6.906
 5169POPC   C4B65758  18.815  37.242   7.299
 5170POPC   NC365759  34.823  23.695   5.337
 5170POPC   PO465760  34.278  24.077   5.443
 5170POPC   GL165761  34.551  23.937   5.728
 5170POPC   GL265762  34.544  23.585   5.791
 5170POPC   C1A65763  34.647  24.018   6.133
 5170POPC   D2A65764  34.594  23.808   6.516
 5170POPC   C3A65765  34.788  23.935   6.895
 5170POPC   C4A65766  34.632  23.825   7.323
 5170POPC   C1B65767  34.494  23.400   6.216
 5170POPC   C2B65768  34.580  23.329   6.687
 5170POPC   C3B65769  34.495  23.343   7.156
 5170POPC   C4B65770  34.423  23.365   7.607
 5171POPC   NC365771   1.024  39.339   5.481
 5171POPC   PO465772   0.892  38.677   5.450
 5171POPC   GL165773   1.019  38.935   5.809
 5171POPC   GL265774   1.379  39.043   5.759
 5171POPC   C1A65775   0.894  39.021   6.248
 5171POPC   D2A65776   1.001  38.929   6.700
 5171POPC   C3A65777   1.014  39.287   7.021
 5171POPC   C4A65778   0.907  39.382   7.504
 5171POPC   C1B65779   1.411  39.271   6.141
 5171POPC   C2B65780   1.325  39.333   6.566
 5171POPC   C3B65781   1.520  39.225   6.926
 5171POPC   C4B65782   1.407  39.313   7.354
 5172POPC   NC365783  26.398   6.434   5.571
 5172POPC   PO465784  25.805   6.777   5.496
 5172POPC   GL165785  26.030   6.646   5.878
 5172POPC   GL265786  26.278   6.901   5.949
 5172POPC   C1A65787  26.280   6.419   6.232
 5172POPC   D2A65788  26.362   6.277   6.687
 5172POPC   C3A65789  26.202   6.529   7.043
 5172POPC   C4A65790  26.398   6.872   7.276
 5172POPC   C1B65791  26.040   6.839   6.353
 5172POPC   C2B65792  25.689   7.038   6.520
 5172POPC   C3B65793  25.596   6.949   6.915
 5172POPC   C4B65794  25.897   6.940   7.225
 5173POPC   NC365795  34.020  39.298   5.404
 5173POPC   PO465796  33.344  39.493   5.476
 5173POPC   GL165797  33.627  39.182   5.765
 5173POPC   GL265798  33.979  39.078   5.861
 5173POPC   C1A65799  33.641  38.995   6.234
 5173POPC   D2A65800  33.365  38.991   6.607
 5173POPC   C3A65801  33.523  39.185   7.021
 5173POPC   C4A65802  33.672  39.014   7.374
 5173POPC   C1B65803  33.859  39.447   6.141
 5173POPC   C2B65804  33.746  39.384   6.587
 5173POPC   C3B65805  34.012  39.306   6.969
 5173POPC   C4B65806  33.992  39.393   7.409
 5174POPC   NC365807  28.814  17.810   5.086
 5174POPC   PO465808  29.163  17.247   5.253
 5174POPC   GL165809  28.971  17.394   5.698
 5174POPC   GL265810  28.748  17.112   5.766
 5174POPC   C1A65811  29.095  17.598   6.138
 5174POPC   D2A65812  29.168  17.568   6.610
 5174POPC   C3A65813  28.992  17.630   7.041
 5174POPC   C4A65814  29.332  17.531   7.348
 5174POPC   C1B65815  29.073  17.076   6.118
 5174POPC   C2B65816  28.995  17.058   6.592
 5174POPC   C3B65817  29.096  17.101   7.034
 5174POPC   C4B65818  28.920  17.226   7.411
 5175POPC   NC365819  42.637  28.590   4.973
 5175POPC   PO465820  42.999  28.244   5.357
 5175POPC   GL165821  42.966  28.416   5.773
 5175POPC   GL265822  43.335  28.346   5.847
 5175POPC   C1A65823  42.878  28.339   6.224
 5175POPC   D2A65824  43.130  28.383   6.618
 5175POPC   C3A65825  42.927  28.295   7.021
 5175POPC   C4A65826  43.069  28.615   7.310
 5175POPC   C1B65827  43.307  28.034   6.192
 5175POPC   C2B65828  43.442  27.794   6.538
 5175POPC   C3B65829  43.376  27.948   6.941
 5175POPC   C4B65830  43.357  28.171   7.313
 5176POPC   NC365831  28.226   4.870   5.526
 5176POPC   PO465832  28.361   5.477   5.607
 5176POPC   GL165833  28.486   5.241   5.933
 5176POPC   GL265834  28.630   4.935   5.840
 5176POPC   C1A65835  28.562   5.283   6.360
 5176POPC   D2A65836  28.465   5.347   6.778
 5176POPC   C3A65837  28.072   5.357   6.954
 5176POPC   C4A65838  27.984   5.119   7.296
 5176POPC   C1B65839  28.746   4.770   6.214
 5176POPC   C2B65840  28.898   4.699   6.611
 5176POPC   C3B65841  28.589   4.712   6.918
 5176POPC   C4B65842  28.471   5.033   7.183
 5177POPC   NC365843  33.352   2.610   5.695
 5177POPC   PO465844  33.791   2.774   5.145
 5177POPC   GL165845  33.812   2.843   5.635
 5177POPC   GL265846  33.838   2.506   5.860
 5177POPC   C1A65847  33.761   2.963   6.106
 5177POPC   D2A65848  33.614   2.733   6.482
 5177POPC   C3A65849  33.555   2.891   6.903
 5177POPC   C4A65850  33.804   2.887   7.281
 5177POPC   C1B65851  33.599   2.275   6.234
 5177POPC   C2B65852  33.480   2.269   6.682
 5177POPC   C3B65853  33.703   2.429   7.035
 5177POPC   C4B65854  33.577   2.458   7.478
 5178POPC   NC365855  34.085  30.904   5.384
 5178POPC   PO465856  33.824  30.310   5.253
 5178POPC   GL165857  33.888  30.476   5.696
 5178POPC   GL265858  33.852  30.836   5.827
 5178POPC   C1A65859  33.729  30.452   6.139
 5178POPC   D2A65860  33.852  30.576   6.569
 5178POPC   C3A65861  33.733  30.722   6.979
 5178POPC   C4A65862  33.938  30.565   7.367
 5178POPC   C1B65863  33.897  30.985   6.268
 5178POPC   C2B65864  33.927  31.119   6.729
 5178POPC   C3B65865  34.093  31.028   7.189
 5178POPC   C4B65866  33.883  30.978   7.627
 5179POPC   NC365867  25.030  32.805   5.447
 5179POPC   PO465868  25.421  33.328   5.420
 5179POPC   GL165869  25.303  33.249   5.833
 5179POPC   GL265870  24.989  33.186   5.842
 5179POPC   C1A65871  25.206  32.980   6.240
 5179POPC   D2A65872  25.365  32.990   6.649
 5179POPC   C3A65873  25.202  32.794   6.997
 5179POPC   C4A65874  25.110  32.975   7.365
 5179POPC   C1B65875  25.002  33.449   6.196
 5179POPC   C2B65876  24.903  33.305   6.587
 5179POPC   C3B65877  25.058  33.305   6.977
 5179POPC   C4B65878  25.077  33.499   7.368
 5180POPC   NC365879   1.875  43.044   5.329
 5180POPC   PO465880   2.433  43.436   5.435
 5180POPC   GL165881   2.219  43.152   5.784
 5180POPC   GL265882   1.847  43.112   5.863
 5180POPC   C1A65883   2.143  43.117   6.259
 5180POPC   D2A65884   1.850  43.087   6.556
 5180POPC   C3A65885   2.017  43.103   6.938
 5180POPC   C4A65886   1.901  42.859   7.256
 5180POPC   C1B65887   1.571  43.334   6.202
 5180POPC   C2B65888   1.395  43.341   6.618
 5180POPC   C3B65889   1.635  43.442   6.960
 5180POPC   C4B65890   1.627  43.291   7.382
 5181POPC   NC365891  31.351  30.536   5.451
 5181POPC   PO465892  31.786  31.058   5.368
 5181POPC   GL165893  31.686  30.837   5.754
 5181POPC   GL265894  31.324  30.923   5.828
 5181POPC   C1A65895  31.668  30.840   6.219
 5181POPC   D2A65896  31.540  31.032   6.623
 5181POPC   C3A65897  31.635  30.794   6.971
 5181POPC   C4A65898  31.520  30.735   7.401
 5181POPC   C1B65899  31.215  30.567   6.144
 5181POPC   C2B65900  31.023  30.512   6.582
 5181POPC   C3B65901  31.110  30.666   7.045
 5181POPC   C4B65902  31.023  30.657   7.533
 5182POPC   NC365903  25.396  24.652   5.269
 5182POPC   PO465904  25.047  24.093   5.511
 5182POPC   GL165905  25.239  24.442   5.791
 5182POPC   GL265906  25.364  24.777   5.771
 5182POPC   C1A65907  25.059  24.662   6.177
 5182POPC   D2A65908  24.864  24.538   6.556
 5182POPC   C3A65909  24.992  24.722   6.941
 5182POPC   C4A65910  25.224  24.604   7.281
 5182POPC   C1B65911  25.569  24.643   6.183
 5182POPC   C2B65912  25.380  24.747   6.591
 5182POPC   C3B65913  25.474  24.928   6.991
 5182POPC   C4B65914  25.743  24.856   7.374
 5183POPC   NC365915   9.511  36.273   5.517
 5183POPC   PO465916   9.848  35.719   5.340
 5183POPC   GL165917   9.622  35.835   5.753
 5183POPC   GL265918   9.843  36.085   5.888
 5183POPC   C1A65919   9.492  35.967   6.208
 5183POPC   D2A65920   9.837  36.071   6.509
 5183POPC   C3A65921   9.724  35.970   6.913
 5183POPC   C4A65922   9.516  36.254   7.153
 5183POPC   C1B65923  10.067  36.387   6.182
 5183POPC   C2B65924  10.116  36.660   6.562
 5183POPC   C3B65925   9.960  36.586   6.984
 5183POPC   C4B65926  10.030  36.234   7.236
 5184POPC   NC365927  10.640   0.854   5.506
 5184POPC   PO465928  10.038   1.159   5.360
 5184POPC   GL165929  10.302   1.360   5.693
 5184POPC   GL265930  10.597   1.532   5.787
 5184POPC   C1A65931  10.309   1.407   6.160
 5184POPC   D2A65932  10.339   1.081   6.490
 5184POPC   C3A65933  10.109   1.180   6.873
 5184POPC   C4A65934  10.125   1.331   7.319
 5184POPC   C1B65935  10.770   1.196   6.102
 5184POPC   C2B65936  10.855   1.098   6.561
 5184POPC   C3B65937  10.619   1.119   6.944
 5184POPC   C4B65938  10.695   1.342   7.317
 5185POPC   NC365939  16.695   4.289   5.449
 5185POPC   PO465940  16.021   4.233   5.407
 5185POPC   GL165941  16.274   4.231   5.781
 5185POPC   GL265942  16.458   4.526   5.868
 5185POPC   C1A65943  16.489   4.130   6.192
 5185POPC   D2A65944  16.478   4.283   6.623
 5185POPC   C3A65945  16.747   4.071   6.935
 5185POPC   C4A65946  16.586   3.976   7.353
 5185POPC   C1B65947  16.775   4.558   6.248
 5185POPC   C2B65948  16.960   4.505   6.714
 5185POPC   C3B65949  16.926   4.457   7.217
 5185POPC   C4B65950  17.100   4.512   7.665
 5186POPC   NC365951  35.819  42.947   5.416
 5186POPC   PO465952  35.233  43.323   5.435
 5186POPC   GL165953  35.367  43.144   5.817
 5186POPC   GL265954  35.740  43.242   5.847
 5186POPC   C1A65955  35.343  43.302   6.256
 5186POPC   D2A65956  35.558  43.433   6.646
 5186POPC   C3A65957  35.339  43.421   7.079
 5186POPC   C4A65958  35.186  43.383   7.512
 5186POPC   C1B65959  35.680  42.910   6.152
 5186POPC   C2B65960  35.448  42.895   6.561
 5186POPC   C3B65961  35.605  43.001   6.977
 5186POPC   C4B65962  35.624  43.096   7.446
 5187POPC   NC365963   6.991  30.572   5.486
 5187POPC   PO465964   6.397  30.945   5.200
 5187POPC   GL165965   6.604  30.783   5.684
 5187POPC   GL265966   6.447  30.463   5.789
 5187POPC   C1A65967   6.826  30.928   6.118
 5187POPC   D2A65968   7.144  31.008   6.499
 5187POPC   C3A65969   6.936  31.000   6.907
 5187POPC   C4A65970   6.476  30.940   6.924
 5187POPC   C1B65971   6.605  30.421   6.192
 5187POPC   C2B65972   6.372  30.538   6.560
 5187POPC   C3B65973   6.310  30.443   6.975
 5187POPC   C4B65974   6.587  30.596   7.286
 5188POPC   NC365975  32.127  36.131   5.462
 5188POPC   PO465976  32.696  36.523   5.376
 5188POPC   GL165977  32.460  36.338   5.778
 5188POPC   GL265978  32.293  36.009   5.920
 5188POPC   C1A65979  32.230  36.421   6.173
 5188POPC   D2A65980  32.022  36.387   6.574
 5188POPC   C3A65981  32.270  36.354   6.939
 5188POPC   C4A65982  32.410  36.251   7.357
 5188POPC   C1B65983  32.576  36.042   6.286
 5188POPC   C2B65984  32.566  35.953   6.773
 5188POPC   C3B65985  32.811  35.954   7.181
 5188POPC   C4B65986  32.738  36.012   7.648
 5189POPC   NC365987  19.529   5.616   5.309
 5189POPC   PO465988  20.166   5.451   5.542
 5189POPC   GL165989  19.899   5.745   5.856
 5189POPC   GL265990  19.510   5.800   5.861
 5189POPC   C1A65991  19.861   5.851   6.282
 5189POPC   D2A65992  20.056   5.861   6.643
 5189POPC   C3A65993  19.847   5.745   6.987
 5189POPC   C4A65994  20.031   5.814   7.357
 5189POPC   C1B65995  19.439   6.111   6.246
 5189POPC   C2B65996  19.640   6.199   6.697
 5189POPC   C3B65997  19.671   6.207   7.174
 5189POPC   C4B65998  19.763   6.129   7.642
 5190POPC   NC365999  27.874  11.199   5.297
 5190POPC   PO466000  27.322  10.830   5.346
 5190POPC   GL166001  27.458  11.188   5.694
 5190POPC   GL266002  27.623  11.526   5.623
 5190POPC   C1A66003  27.425  11.458   6.109
 5190POPC   D2A66004  27.493  11.662   6.505
 5190POPC   C3A66005  27.589  11.444   6.901
 5190POPC   C4A66006  27.349  11.521   7.265
 5190POPC   C1B66007  27.882  11.313   5.973
 5190POPC   C2B66008  27.892  11.308   6.468
 5190POPC   C3B66009  28.024  11.161   6.919
 5190POPC   C4B66010  27.860  11.131   7.347
 5191POPC   NC366011  14.059  12.445   5.606
 5191POPC   PO466012  13.622  13.032   5.475
 5191POPC   GL166013  13.627  12.808   5.823
 5191POPC   GL266014  13.530  12.442   5.734
 5191POPC   C1A66015  13.518  12.977   6.218
 5191POPC   D2A66016  13.726  13.087   6.576
 5191POPC   C3A66017  13.549  13.075   6.961
 5191POPC   C4A66018  13.385  13.294   7.280
 5191POPC   C1B66019  13.609  12.462   6.169
 5191POPC   C2B66020  13.602  12.581   6.566
 5191POPC   C3B66021  13.659  12.586   6.975
 5191POPC   C4B66022  13.334  12.732   7.302
 5192POPC   NC366023  13.357  18.465   5.463
 5192POPC   PO466024  12.700  18.149   5.400
 5192POPC   GL166025  12.932  18.249   5.818
 5192POPC   GL266026  13.085  18.591   5.901
 5192POPC   C1A66027  12.803  18.274   6.272
 5192POPC   D2A66028  12.770  18.602   6.637
 5192POPC   C3A66029  12.643  18.471   7.060
 5192POPC   C4A66030  12.631  18.112   7.358
 5192POPC   C1B66031  13.207  18.558   6.368
 5192POPC   C2B66032  13.154  18.233   6.696
 5192POPC   C3B66033  13.072  18.203   7.152
 5192POPC   C4B66034  13.191  17.988   7.534
 5193POPC   NC366035  27.094  14.892   5.410
 5193POPC   PO466036  26.692  15.397   5.274
 5193POPC   GL166037  26.802  15.250   5.698
 5193POPC   GL266038  26.638  14.955   5.688
 5193POPC   C1A66039  27.007  15.298   6.113
 5193POPC   D2A66040  27.002  15.121   6.539
 5193POPC   C3A66041  27.154  15.166   6.958
 5193POPC   C4A66042  26.848  15.215   7.229
 5193POPC   C1B66043  26.651  14.939   6.152
 5193POPC   C2B66044  26.492  15.096   6.585
 5193POPC   C3B66045  26.385  15.142   7.052
 5193POPC   C4B66046  26.437  15.116   7.543
 5194POPC   NC366047  29.251  16.048   5.145
 5194POPC   PO466048  28.880  15.788   5.614
 5194POPC   GL166049  29.020  15.880   5.988
 5194POPC   GL266050  29.340  16.073   5.968
 5194POPC   C1A66051  29.045  15.871   6.433
 5194POPC   D2A66052  29.164  16.208   6.687
 5194POPC   C3A66053  29.127  16.126   7.139
 5194POPC   C4A66054  29.116  16.315   7.548
 5194POPC   C1B66055  29.532  15.819   6.261
 5194POPC   C2B66056  29.535  15.849   6.706
 5194POPC   C3B66057  29.579  15.920   7.142
 5194POPC   C4B66058  29.334  15.822   7.512
 5195POPC   NC366059   2.926   8.442   5.464
 5195POPC   PO466060   2.567   7.837   5.603
 5195POPC   GL166061   2.658   7.906   6.046
 5195POPC   GL266062   2.926   8.148   6.027
 5195POPC   C1A66063   2.876   7.812   6.425
 5195POPC   D2A66064   3.029   8.116   6.706
 5195POPC   C3A66065   2.820   8.098   7.062
 5195POPC   C4A66066   2.870   8.235   7.444
 5195POPC   C1B66067   2.619   8.350   6.297
 5195POPC   C2B66068   2.460   8.507   6.693
 5195POPC   C3B66069   2.402   8.405   7.140
 5195POPC   C4B66070   2.492   8.553   7.587
 5196POPC   NC366071  30.311  26.441   5.431
 5196POPC   PO466072  30.297  25.803   5.573
 5196POPC   GL166073  30.744  25.881   5.793
 5196POPC   GL266074  30.906  26.247   5.741
 5196POPC   C1A66075  30.761  25.853   6.260
 5196POPC   D2A66076  30.457  25.949   6.601
 5196POPC   C3A66077  30.352  25.738   6.989
 5196POPC   C4A66078  30.584  25.931   7.314
 5196POPC   C1B66079  31.091  26.235   6.173
 5196POPC   C2B66080  30.940  26.212   6.608
 5196POPC   C3B66081  30.768  26.377   7.008
 5196POPC   C4B66082  31.047  26.399   7.361
 5197POPC   NC366083  26.268  18.346   5.581
 5197POPC   PO466084  25.654  18.407   5.179
 5197POPC   GL166085  25.757  18.238   5.611
 5197POPC   GL266086  25.962  17.953   5.730
 5197POPC   C1A66087  25.813  18.355   6.058
 5197POPC   D2A66088  26.018  18.424   6.455
 5197POPC   C3A66089  25.880  18.162   6.791
 5197POPC   C4A66090  25.698  18.340   7.179
 5197POPC   C1B66091  26.197  17.990   6.156
 5197POPC   C2B66092  26.377  18.052   6.581
 5197POPC   C3B66093  26.327  18.364   6.904
 5197POPC   C4B66094  26.182  18.199   7.270
 5198POPC   NC366095   7.889  35.940   5.543
 5198POPC   PO466096   8.486  36.141   5.426
 5198POPC   GL166097   8.260  36.236   5.764
 5198POPC   GL266098   8.333  35.934   5.952
 5198POPC   C1A66099   8.200  36.388   6.163
 5198POPC   D2A66100   8.271  36.156   6.529
 5198POPC   C3A66101   8.049  36.335   6.878
 5198POPC   C4A66102   8.081  36.347   7.324
 5198POPC   C1B66103   7.957  35.872   6.189
 5198POPC   C2B66104   7.891  35.830   6.623
 5198POPC   C3B66105   8.167  35.861   6.966
 5198POPC   C4B66106   7.954  35.707   7.293
 5199POPC   NC366107   2.282  33.106   5.322
 5199POPC   PO466108   1.806  32.601   5.431
 5199POPC   GL166109   2.050  32.862   5.737
 5199POPC   GL266110   1.999  33.211   5.739
 5199POPC   C1A66111   2.005  32.844   6.201
 5199POPC   D2A66112   1.786  32.999   6.582
 5199POPC   C3A66113   1.915  32.742   6.922
 5199POPC   C4A66114   2.313  32.663   7.122
 5199POPC   C1B66115   1.944  33.350   6.169
 5199POPC   C2B66116   2.161  33.393   6.568
 5199POPC   C3B66117   2.189  33.181   6.971
 5199POPC   C4B66118   1.750  33.152   7.161
 5200POPC   NC366119   3.280  15.780   5.513
 5200POPC   PO466120   3.326  16.433   5.377
 5200POPC   GL166121   3.444  16.184   5.773
 5200POPC   GL266122   3.732  15.943   5.704
 5200POPC   C1A66123   3.275  16.109   6.218
 5200POPC   D2A66124   3.460  16.175   6.662
 5200POPC   C3A66125   3.370  16.005   7.090
 5200POPC   C4A66126   2.993  15.869   7.285
 5200POPC   C1B66127   3.761  15.964   6.129
 5200POPC   C2B66128   3.703  15.754   6.504
 5200POPC   C3B66129   3.817  15.838   6.910
 5200POPC   C4B66130   3.788  15.712   7.307
 5201POPC   NC366131  31.650  44.579   5.466
 5201POPC   PO466132  31.364   0.124   5.456
 5201POPC   GL166133  31.412  44.878   5.860
 5201POPC   GL266134  31.419  44.484   5.922
 5201POPC   C1A66135  31.288  44.843   6.307
 5201POPC   D2A66136  31.336  44.602   6.693
 5201POPC   C3A66137  31.464  44.854   7.052
 5201POPC   C4A66138  31.882   0.024   7.094
 5201POPC   C1B66139  31.593  44.279   6.307
 5201POPC   C2B66140  31.785  44.253   6.728
 5201POPC   C3B66141  31.655  44.369   7.180
 5201POPC   C4B66142  31.747  44.280   7.671
 5202POPC   NC366143  34.272  28.353   5.150
 5202POPC   PO466144  34.883  28.720   5.454
 5202POPC   GL166145  34.849  28.634   5.877
 5202POPC   GL266146  34.551  28.443   5.864
 5202POPC   C1A66147  34.769  28.457   6.307
 5202POPC   D2A66148  34.506  28.242   6.636
 5202POPC   C3A66149  34.640  28.219   7.068
 5202POPC   C4A66150  34.761  28.591   7.226
 5202POPC   C1B66151  34.271  28.545   6.223
 5202POPC   C2B66152  34.125  28.587   6.619
 5202POPC   C3B66153  34.289  28.596   7.016
 5202POPC   C4B66154  34.163  28.302   7.339
 5203POPC   NC366155  16.704  37.797   5.442
 5203POPC   PO466156  17.276  37.954   5.642
 5203POPC   GL166157  16.934  37.741   5.896
 5203POPC   GL266158  16.589  37.553   5.875
 5203POPC   C1A66159  16.774  37.740   6.312
 5203POPC   D2A66160  16.787  37.612   6.726
 5203POPC   C3A66161  16.971  37.929   7.000
 5203POPC   C4A66162  16.858  37.962   7.408
 5203POPC   C1B66163  16.674  37.235   6.194
 5203POPC   C2B66164  16.448  37.224   6.589
 5203POPC   C3B66165  16.364  37.430   6.927
 5203POPC   C4B66166  16.627  37.536   7.235
 5204POPC   NC366167  20.432   6.927   5.433
 5204POPC   PO466168  20.292   7.598   5.338
 5204POPC   GL166169  20.626   7.493   5.637
 5204POPC   GL266170  20.390   7.321   5.828
 5204POPC   C1A66171  20.861   7.444   6.059
 5204POPC   D2A66172  20.834   7.724   6.447
 5204POPC   C3A66173  20.852   7.538   6.875
 5204POPC   C4A66174  21.004   7.404   7.264
 5204POPC   C1B66175  20.392   7.596   6.186
 5204POPC   C2B66176  20.440   7.437   6.594
 5204POPC   C3B66177  20.347   7.471   7.011
 5204POPC   C4B66178  20.249   7.306   7.398
 5205POPC   NC366179   9.410  31.570   5.357
 5205POPC   PO466180  10.091  31.353   5.356
 5205POPC   GL166181   9.838  31.565   5.685
 5205POPC   GL266182   9.903  31.876   5.602
 5205POPC   C1A66183   9.701  31.475   6.136
 5205POPC   D2A66184   9.851  31.279   6.554
 5205POPC   C3A66185   9.543  31.305   6.913
 5205POPC   C4A66186   9.443  31.210   7.361
 5205POPC   C1B66187  10.035  31.874   6.063
 5205POPC   C2B66188   9.858  31.815   6.510
 5205POPC   C3B66189   9.940  31.883   6.983
 5205POPC   C4B66190   9.727  31.649   7.256
 5206POPC   NC366191   4.855  15.510   5.531
 5206POPC   PO466192   5.487  15.794   5.660
 5206POPC   GL166193   5.175  15.769   5.988
 5206POPC   GL266194   4.823  15.820   5.933
 5206POPC   C1A66195   5.116  16.017   6.359
 5206POPC   D2A66196   4.932  15.885   6.746
 5206POPC   C3A66197   5.286  15.903   6.992
 5206POPC   C4A66198   5.168  16.279   7.210
 5206POPC   C1B66199   4.627  15.903   6.323
 5206POPC   C2B66200   4.507  16.189   6.647
 5206POPC   C3B66201   4.652  16.219   7.064
 5206POPC   C4B66202   4.868  15.877   7.265
 5207POPC   NC366203  42.858  37.244   5.594
 5207POPC   PO466204  42.302  37.638   5.393
 5207POPC   GL166205  42.324  37.794   5.803
 5207POPC   GL266206  42.664  37.729   5.754
 5207POPC   C1A66207  42.391  37.608   6.227
 5207POPC   D2A66208  42.219  37.521   6.665
 5207POPC   C3A66209  42.442  37.440   7.055
 5207POPC   C4A66210  42.375  37.473   7.512
 5207POPC   C1B66211  42.690  38.022   6.097
 5207POPC   C2B66212  42.433  38.064   6.468
 5207POPC   C3B66213  42.486  37.927   6.875
 5207POPC   C4B66214  42.667  37.838   7.277
 5208POPC   NC366215  17.089   9.901   5.456
 5208POPC   PO466216  17.721  10.106   5.368
 5208POPC   GL166217  17.517   9.841   5.731
 5208POPC   GL266218  17.265  10.030   5.936
 5208POPC   C1A66219  17.309   9.529   6.092
 5208POPC   D2A66220  17.235   9.684   6.565
 5208POPC   C3A66221  17.434   9.524   6.968
 5208POPC   C4A66222  17.306   9.412   7.451
 5208POPC   C1B66223  17.632   9.895   6.204
 5208POPC   C2B66224  17.880   9.841   6.557
 5208POPC   C3B66225  17.776   9.946   6.960
 5208POPC   C4B66226  17.563   9.844   7.350
 5209POPC   NC366227  32.886  39.376   5.421
 5209POPC   PO466228  33.010  38.746   5.417
 5209POPC   GL166229  33.132  39.039   5.756
 5209POPC   GL266230  32.843  39.198   5.904
 5209POPC   C1A66231  33.279  39.334   6.115
 5209POPC   D2A66232  33.028  39.451   6.448
 5209POPC   C3A66233  33.138  39.411   6.813
 5209POPC   C4A66234  32.996  39.373   7.213
 5209POPC   C1B66235  32.957  38.955   6.262
 5209POPC   C2B66236  32.831  39.022   6.693
 5209POPC   C3B66237  33.101  38.909   7.051
 5209POPC   C4B66238  33.209  39.006   7.516
 5210POPC   NC366239  35.495  23.947   5.584
 5210POPC   PO466240  35.500  23.461   5.157
 5210POPC   GL166241  35.316  23.454   5.600
 5210POPC   GL266242  35.066  23.732   5.781
 5210POPC   C1A66243  35.441  23.527   6.065
 5210POPC   D2A66244  35.394  23.894   6.356
 5210POPC   C3A66245  35.434  23.820   6.805
 5210POPC   C4A66246  35.458  23.657   7.226
 5210POPC   C1B66247  34.967  23.604   6.230
 5210POPC   C2B66248  35.080  23.457   6.655
 5210POPC   C3B66249  34.986  23.525   7.111
 5210POPC   C4B66250  34.961  23.530   7.585
 5211POPC   NC366251  20.206   2.906   5.475
 5211POPC   PO466252  19.637   2.594   5.376
 5211POPC   GL166253  19.820   2.675   5.799
 5211POPC   GL266254  19.737   3.006   5.866
 5211POPC   C1A66255  20.098   2.767   6.190
 5211POPC   D2A66256  19.980   2.890   6.643
 5211POPC   C3A66257  20.201   2.803   7.021
 5211POPC   C4A66258  20.393   2.987   7.375
 5211POPC   C1B66259  19.601   2.796   6.281
 5211POPC   C2B66260  19.480   2.665   6.683
 5211POPC   C3B66261  19.667   2.784   7.045
 5211POPC   C4B66262  19.883   3.179   7.125
 5212POPC   NC366263  10.232  44.975   5.658
 5212POPC   PO466264  10.517  44.559   5.206
 5212POPC   GL166265  10.477  44.519   5.700
 5212POPC   GL266266  10.705  44.824   5.828
 5212POPC   C1A66267  10.517  44.527   6.185
 5212POPC   D2A66268  10.630  44.791   6.565
 5212POPC   C3A66269  10.541  44.676   6.973
 5212POPC   C4A66270  10.645  44.325   7.185
 5212POPC   C1B66271  10.958  44.950   6.218
 5212POPC   C2B66272  10.946   0.254   6.559
 5212POPC   C3B66273  10.802   0.129   6.959
 5212POPC   C4B66274  10.810  44.934   7.354
 5213POPC   NC366275  34.105  21.303   4.944
 5213POPC   PO466276  33.801  21.322   5.541
 5213POPC   GL166277  33.829  21.209   5.917
 5213POPC   GL266278  34.098  21.435   5.974
 5213POPC   C1A66279  33.808  21.188   6.354
 5213POPC   D2A66280  34.100  21.215   6.664
 5213POPC   C3A66281  33.901  21.271   7.038
 5213POPC   C4A66282  34.009  21.459   7.384
 5213POPC   C1B66283  33.777  21.679   6.177
 5213POPC   C2B66284  33.837  21.656   6.620
 5213POPC   C3B66285  33.945  21.809   7.013
 5213POPC   C4B66286  33.575  21.690   7.260
 5214POPC   NC366287  11.318  40.997   5.175
 5214POPC   PO466288  11.521  40.418   5.480
 5214POPC   GL166289  11.240  40.392   5.849
 5214POPC   GL266290  11.557  40.416   6.011
 5214POPC   C1A66291  11.059  40.458   6.283
 5214POPC   D2A66292  11.149  40.743   6.645
 5214POPC   C3A66293  11.172  40.679   7.111
 5214POPC   C4A66294  11.276  40.974   7.491
 5214POPC   C1B66295  11.485  40.764   6.265
 5214POPC   C2B66296  11.686  40.923   6.651
 5214POPC   C3B66297  11.656  40.917   7.097
 5214POPC   C4B66298  11.583  40.596   7.402
 5215POPC   NC366299   3.055  41.285   5.596
 5215POPC   PO466300   2.547  41.766   5.499
 5215POPC   GL166301   2.684  41.858   5.911
 5215POPC   GL266302   2.732  41.510   5.951
 5215POPC   C1A66303   2.451  41.831   6.309
 5215POPC   D2A66304   2.624  41.810   6.712
 5215POPC   C3A66305   2.379  41.894   7.017
 5215POPC   C4A66306   2.437  41.697   7.377
 5215POPC   C1B66307   2.935  41.667   6.339
 5215POPC   C2B66308   3.137  41.727   6.750
 5215POPC   C3B66309   3.108  41.544   7.176
 5215POPC   C4B66310   2.916  41.688   7.599
 5216POPC   NC366311  39.300   6.776   5.082
 5216POPC   PO466312  39.082   6.913   5.686
 5216POPC   GL166313  39.340   6.574   5.849
 5216POPC   GL266314  39.152   6.253   5.886
 5216POPC   C1A66315  39.484   6.749   6.223
 5216POPC   D2A66316  39.230   6.879   6.550
 5216POPC   C3A66317  39.255   6.656   6.923
 5216POPC   C4A66318  39.287   6.851   7.327
 5216POPC   C1B66319  39.127   6.376   6.335
 5216POPC   C2B66320  38.960   6.257   6.747
 5216POPC   C3B66321  38.908   6.363   7.216
 5216POPC   C4B66322  38.983   6.605   7.642
 5217POPC   NC366323  42.546  44.935   5.248
 5217POPC   PO466324  42.249   0.533   5.516
 5217POPC   GL166325  42.073   0.379   5.917
 5217POPC   GL266326  42.360   0.329   6.094
 5217POPC   C1A66327  41.991   0.064   6.252
 5217POPC   D2A66328  42.224   0.121   6.642
 5217POPC   C3A66329  42.001   0.389   6.923
 5217POPC   C4A66330  41.907   0.366   7.354
 5217POPC   C1B66331  42.413   0.651   6.376
 5217POPC   C2B66332  42.796   0.683   6.595
 5217POPC   C3B66333  42.792   0.484   6.997
 5217POPC   C4B66334  42.409   0.440   7.239
 5218POPC   NC366335  38.948  23.201   5.510
 5218POPC   PO466336  39.553  22.892   5.368
 5218POPC   GL166337  39.294  22.906   5.768
 5218POPC   GL266338  39.261  23.247   5.922
 5218POPC   C1A66339  39.184  22.691   6.168
 5218POPC   D2A66340  38.951  22.734   6.583
 5218POPC   C3A66341  39.166  22.735   6.987
 5218POPC   C4A66342  39.042  22.885   7.383
 5218POPC   C1B66343  39.072  23.167   6.318
 5218POPC   C2B66344  39.016  23.218   6.752
 5218POPC   C3B66345  38.744  23.232   7.127
 5218POPC   C4B66346  38.775  23.277   7.582
 5219POPC   NC366347  11.075   4.465   5.417
 5219POPC   PO466348  11.716   4.167   5.567
 5219POPC   GL166349  11.380   4.357   5.857
 5219POPC   GL266350  10.965   4.301   5.859
 5219POPC   C1A66351  11.524   4.362   6.307
 5219POPC   D2A66352  11.755   4.080   6.612
 5219POPC   C3A66353  11.656   4.232   7.007
 5219POPC   C4A66354  11.533   4.333   7.431
 5219POPC   C1B66355  11.048   4.220   6.265
 5219POPC   C2B66356  11.233   4.140   6.677
 5219POPC   C3B66357  11.139   4.200   7.107
 5219POPC   C4B66358  10.748   4.391   7.153
 5220POPC   NC366359   6.777  13.964   5.637
 5220POPC   PO466360   6.534  14.502   5.321
 5220POPC   GL166361   6.541  14.495   5.799
 5220POPC   GL266362   6.801  14.721   6.002
 5220POPC   C1A66363   6.545  14.345   6.235
 5220POPC   D2A66364   6.597  14.071   6.583
 5220POPC   C3A66365   6.502  14.243   6.967
 5220POPC   C4A66366   6.764  14.289   7.294
 5220POPC   C1B66367   6.990  14.568   6.363
 5220POPC   C2B66368   6.893  14.515   6.778
 5220POPC   C3B66369   7.011  14.739   7.127
 5220POPC   C4B66370   6.956  15.070   7.330
 5221POPC   NC366371  40.320  26.899   5.410
 5221POPC   PO466372  40.977  27.051   5.386
 5221POPC   GL166373  40.771  26.808   5.704
 5221POPC   GL266374  40.971  26.559   5.876
 5221POPC   C1A66375  40.634  26.961   6.136
 5221POPC   D2A66376  40.767  27.095   6.566
 5221POPC   C3A66377  40.685  26.943   7.008
 5221POPC   C4A66378  40.858  27.015   7.412
 5221POPC   C1B66379  40.848  26.521   6.299
 5221POPC   C2B66380  40.876  26.557   6.737
 5221POPC   C3B66381  40.566  26.450   7.101
 5221POPC   C4B66382  40.684  26.447   7.584
 5222POPC   NC366383  33.280   4.071   5.378
 5222POPC   PO466384  33.174   4.680   5.462
 5222POPC   GL166385  33.063   4.537   5.857
 5222POPC   GL266386  33.018   4.193   5.825
 5222POPC   C1A66387  33.161   4.374   6.287
 5222POPC   D2A66388  33.064   4.625   6.636
 5222POPC   C3A66389  33.084   4.437   7.059
 5222POPC   C4A66390  32.798   4.139   7.166
 5222POPC   C1B66391  33.377   3.961   6.019
 5222POPC   C2B66392  33.484   3.909   6.452
 5222POPC   C3B66393  33.209   3.971   6.797
 5222POPC   C4B66394  33.263   3.957   7.228
 5223POPC   NC366395   2.546  44.597   5.310
 5223POPC   PO466396   3.164  44.390   5.550
 5223POPC   GL166397   3.035  44.580   5.923
 5223POPC   GL266398   2.698  44.619   5.821
 5223POPC   C1A66399   3.027  44.535   6.347
 5223POPC   D2A66400   2.653  44.527   6.558
 5223POPC   C3A66401   2.704  44.395   6.955
 5223POPC   C4A66402   2.912  44.619   7.256
 5223POPC   C1B66403   2.485  44.831   6.155
 5223POPC   C2B66404   2.488   0.017   6.554
 5223POPC   C3B66405   2.463  44.851   6.945
 5223POPC   C4B66406   2.519  44.963   7.346
 5224POPC   NC366407  24.032  10.719   5.486
 5224POPC   PO466408  23.522  10.207   5.349
 5224POPC   GL166409  23.555  10.552   5.715
 5224POPC   GL266410  23.640  10.931   5.751
 5224POPC   C1A66411  23.810  10.570   6.121
 5224POPC   D2A66412  23.833  10.348   6.528
 5224POPC   C3A66413  23.784  10.579   6.920
 5224POPC   C4A66414  23.639  10.282   7.214
 5224POPC   C1B66415  23.440  10.925   6.135
 5224POPC   C2B66416  23.466  10.804   6.567
 5224POPC   C3B66417  23.278  10.569   6.915
 5224POPC   C4B66418  23.391  10.701   7.312
 5225POPC   NC366419  28.239   6.754   5.471
 5225POPC   PO466420  28.693   6.271   5.255
 5225POPC   GL166421  28.674   6.514   5.702
 5225POPC   GL266422  28.380   6.636   5.943
 5225POPC   C1A66423  28.813   6.708   6.133
 5225POPC   D2A66424  28.820   6.739   6.573
 5225POPC   C3A66425  28.598   6.528   6.878
 5225POPC   C4A66426  28.427   6.660   7.253
 5225POPC   C1B66427  28.374   6.508   6.391
 5225POPC   C2B66428  28.092   6.473   6.778
 5225POPC   C3B66429  27.930   6.662   7.160
 5225POPC   C4B66430  28.042   6.759   7.597
 5226POPC   NC366431  31.288  13.149   4.894
 5226POPC   PO466432  31.376  12.852   5.482
 5226POPC   GL166433  31.489  12.652   5.860
 5226POPC   GL266434  31.196  12.389   5.818
 5226POPC   C1A66435  31.754  12.711   6.253
 5226POPC   D2A66436  31.930  12.859   6.697
 5226POPC   C3A66437  31.646  12.867   7.083
 5226POPC   C4A66438  31.291  13.133   7.214
 5226POPC   C1B66439  31.201  12.539   6.244
 5226POPC   C2B66440  31.363  12.713   6.621
 5226POPC   C3B66441  31.074  12.765   6.934
 5226POPC   C4B66442  31.092  12.665   7.342
 5227POPC   NC366443  24.816  10.767   5.402
 5227POPC   PO466444  24.294  10.315   5.558
 5227POPC   GL166445  24.404  10.345   5.916
 5227POPC   GL266446  24.570  10.061   5.940
 5227POPC   C1A66447  24.306  10.547   6.266
 5227POPC   D2A66448  24.186  10.713   6.624
 5227POPC   C3A66449  24.355  10.671   7.031
 5227POPC   C4A66450  24.150  10.311   7.130
 5227POPC   C1B66451  24.751  10.300   6.286
 5227POPC   C2B66452  24.856  10.240   6.705
 5227POPC   C3B66453  24.678  10.272   7.093
 5227POPC   C4B66454  24.833  10.586   7.340
 5228POPC   NC366455  19.432   8.448   5.576
 5228POPC   PO466456  19.345   7.863   5.159
 5228POPC   GL166457  19.179   8.001   5.652
 5228POPC   GL266458  18.906   8.205   5.796
 5228POPC   C1A66459  19.151   7.973   6.172
 5228POPC   D2A66460  19.376   8.099   6.592
 5228POPC   C3A66461  19.306   8.042   7.056
 5228POPC   C4A66462  19.260   8.207   7.526
 5228POPC   C1B66463  19.032   8.479   6.176
 5228POPC   C2B66464  19.303   8.642   6.471
 5228POPC   C3B66465  19.256   8.526   6.882
 5228POPC   C4B66466  18.949   8.386   7.131
 5229POPC   NC366467   1.765  34.676   4.995
 5229POPC   PO466468   2.330  34.333   5.164
 5229POPC   GL166469   2.256  34.464   5.669
 5229POPC   GL266470   2.135  34.184   5.888
 5229POPC   C1A66471   2.278  34.615   6.161
 5229POPC   D2A66472   1.993  34.672   6.579
 5229POPC   C3A66473   2.145  34.684   7.037
 5229POPC   C4A66474   2.310  34.758   7.457
 5229POPC   C1B66475   1.830  34.348   6.194
 5229POPC   C2B66476   1.747  34.212   6.622
 5229POPC   C3B66477   1.787  34.331   7.066
 5229POPC   C4B66478   1.952  34.380   7.509
 5230POPC   NC366479  18.835  20.298   5.517
 5230POPC   PO466480  19.149  19.748   5.370
 5230POPC   GL166481  19.048  19.863   5.788
 5230POPC   GL266482  19.276  20.175   5.770
 5230POPC   C1A66483  18.924  19.608   6.180
 5230POPC   D2A66484  18.983  19.695   6.635
 5230POPC   C3A66485  18.737  19.407   6.912
 5230POPC   C4A66486  18.978  19.367   7.246
 5230POPC   C1B66487  19.506  20.176   6.160
 5230POPC   C2B66488  19.279  20.215   6.558
 5230POPC   C3B66489  19.201  20.081   6.955
 5230POPC   C4B66490  19.454  20.208   7.320
 5231POPC   NC366491  24.342  25.878   5.515
 5231POPC   PO466492  23.749  25.998   5.221
 5231POPC   GL166493  23.779  25.976   5.694
 5231POPC   GL266494  24.063  26.155   5.840
 5231POPC   C1A66495  23.576  25.921   6.118
 5231POPC   D2A66496  23.289  26.048   6.458
 5231POPC   C3A66497  23.516  26.056   6.813
 5231POPC   C4A66498  23.622  26.081   7.242
 5231POPC   C1B66499  24.101  25.866   6.196
 5231POPC   C2B66500  24.070  25.745   6.628
 5231POPC   C3B66501  24.026  26.047   6.942
 5231POPC   C4B66502  24.114  26.257   7.328
 5232POPC   NC366503  44.424   0.464   5.357
 5232POPC   PO466504  44.969   0.277   5.750
 5232POPC   GL166505  44.628   0.501   5.907
 5232POPC   GL266506  44.424   0.209   5.800
 5232POPC   C1A66507  44.622   0.575   6.384
 5232POPC   D2A66508  44.692   0.210   6.671
 5232POPC   C3A66509  44.873   0.279   7.087
 5232POPC   C4A66510  44.781   0.606   7.327
 5232POPC   C1B66511  44.308   0.191   6.224
 5232POPC   C2B66512  44.199   0.330   6.637
 5232POPC   C3B66513  44.371   0.331   7.067
 5232POPC   C4B66514  44.520   0.194   7.492
 5233POPC   NC366515  17.899  36.854   5.237
 5233POPC   PO466516  17.318  36.816   5.346
 5233POPC   GL166517  17.575  36.838   5.729
 5233POPC   GL266518  17.796  37.105   5.720
 5233POPC   C1A66519  17.633  36.626   6.132
 5233POPC   D2A66520  17.515  36.758   6.566
 5233POPC   C3A66521  17.765  36.622   6.938
 5233POPC   C4A66522  17.754  36.689   7.395
 5233POPC   C1B66523  17.643  37.121   6.174
 5233POPC   C2B66524  17.562  37.258   6.582
 5233POPC   C3B66525  17.543  37.087   6.987
 5233POPC   C4B66526  17.433  37.178   7.389
 5234POPC   NC366527  42.999  33.239   5.322
 5234POPC   PO466528  43.537  33.100   5.578
 5234POPC   GL166529  43.230  33.155   5.893
 5234POPC   GL266530  42.898  33.077   5.789
 5234POPC   C1A66531  43.219  33.104   6.349
 5234POPC   D2A66532  43.027  33.194   6.762
 5234POPC   C3A66533  43.106  32.974   7.126
 5234POPC   C4A66534  43.251  33.262   7.411
 5234POPC   C1B66535  42.823  32.795   6.113
 5234POPC   C2B66536  42.915  32.741   6.522
 5234POPC   C3B66537  42.826  32.623   6.893
 5234POPC   C4B66538  42.951  32.468   7.281
 5235POPC   NC366539  15.020  29.137   5.358
 5235POPC   PO466540  15.494  28.750   5.094
 5235POPC   GL166541  15.434  28.883   5.593
 5235POPC   GL266542  15.284  29.243   5.776
 5235POPC   C1A66543  15.494  28.888   6.073
 5235POPC   D2A66544  15.401  29.197   6.421
 5235POPC   C3A66545  15.275  29.008   6.806
 5235POPC   C4A66546  15.371  28.821   7.189
 5235POPC   C1B66547  14.969  29.380   6.130
 5235POPC   C2B66548  14.885  29.295   6.593
 5235POPC   C3B66549  14.977  29.342   7.059
 5235POPC   C4B66550  14.783  29.258   7.475
 5236POPC   NC366551  14.634   7.567   5.355
 5236POPC   PO466552  14.125   7.198   5.536
 5236POPC   GL166553  14.326   7.276   5.872
 5236POPC   GL266554  14.652   7.259   5.808
 5236POPC   C1A66555  14.446   7.457   6.263
 5236POPC   D2A66556  14.190   7.582   6.606
 5236POPC   C3A66557  14.227   7.331   6.992
 5236POPC   C4A66558  14.251   7.585   7.385
 5236POPC   C1B66559  14.634   6.974   6.157
 5236POPC   C2B66560  14.785   6.997   6.571
 5236POPC   C3B66561  14.698   7.042   7.020
 5236POPC   C4B66562  14.631   7.263   7.402
 5237POPC   NC366563  29.753  36.521   5.356
 5237POPC   PO466564  30.238  36.976   5.244
 5237POPC   GL166565  30.299  36.976   5.713
 5237POPC   GL266566  30.157  36.695   5.867
 5237POPC   C1A66567  30.012  37.141   6.079
 5237POPC   D2A66568  29.828  37.231   6.495
 5237POPC   C3A66569  30.068  37.080   6.833
 5237POPC   C4A66570  29.970  36.854   7.191
 5237POPC   C1B66571  29.718  36.661   6.057
 5237POPC   C2B66572  29.476  36.647   6.446
 5237POPC   C3B66573  29.642  36.638   6.863
 5237POPC   C4B66574  29.684  36.347   7.218
 5238POPC   NC366575  42.495   3.631   5.477
 5238POPC   PO466576  42.072   3.125   5.348
 5238POPC   GL166577  42.174   3.330   5.755
 5238POPC   GL266578  42.120   3.707   5.846
 5238POPC   C1A66579  42.355   3.376   6.173
 5238POPC   D2A66580  42.187   3.336   6.592
 5238POPC   C3A66581  42.384   3.451   6.969
 5238POPC   C4A66582  42.369   3.559   7.408
 5238POPC   C1B66583  42.326   3.925   6.219
 5238POPC   C2B66584  42.343   3.936   6.683
 5238POPC   C3B66585  42.110   3.859   7.055
 5238POPC   C4B66586  42.110   3.993   7.445
 5239POPC   NC366587   4.539   4.926   5.475
 5239POPC   PO466588   3.875   4.930   5.163
 5239POPC   GL166589   4.052   4.961   5.644
 5239POPC   GL266590   4.237   5.287   5.725
 5239POPC   C1A66591   4.303   4.931   6.098
 5239POPC   D2A66592   4.475   5.092   6.526
 5239POPC   C3A66593   4.380   4.921   6.959
 5239POPC   C4A66594   4.167   4.929   7.394
 5239POPC   C1B66595   4.279   5.421   6.178
 5239POPC   C2B66596   4.084   5.435   6.594
 5239POPC   C3B66597   4.138   5.364   7.045
 5239POPC   C4B66598   4.113   5.434   7.492
 5240POPC   NC366599  12.012  19.983   5.428
 5240POPC   PO466600  12.024  19.274   5.539
 5240POPC   GL166601  12.096  19.641   5.814
 5240POPC   GL266602  12.228  20.013   5.885
 5240POPC   C1A66603  12.201  19.619   6.227
 5240POPC   D2A66604  12.164  19.868   6.532
 5240POPC   C3A66605  12.039  19.673   6.880
 5240POPC   C4A66606  11.958  19.861   7.260
 5240POPC   C1B66607  12.522  20.086   6.197
 5240POPC   C2B66608  12.656  20.102   6.587
 5240POPC   C3B66609  12.404  20.030   6.949
 5240POPC   C4B66610  12.235  20.278   7.286
 5241POPC   NC366611  21.173  22.450   5.431
 5241POPC   PO466612  21.571  21.853   5.411
 5241POPC   GL166613  21.524  22.203   5.753
 5241POPC   GL266614  21.193  22.146   5.875
 5241POPC   C1A66615  21.570  22.195   6.243
 5241POPC   D2A66616  21.614  22.361   6.680
 5241POPC   C3A66617  21.485  22.301   7.140
 5241POPC   C4A66618  21.446  22.125   7.580
 5241POPC   C1B66619  21.080  22.303   6.281
 5241POPC   C2B66620  21.134  22.163   6.711
 5241POPC   C3B66621  21.026  22.469   7.027
 5241POPC   C4B66622  21.037  22.446   7.476
 5242POPC   NC366623   4.735  29.298   5.496
 5242POPC   PO466624   5.330  29.098   5.587
 5242POPC   GL166625   5.132  29.115   5.974
 5242POPC   GL266626   4.777  29.067   5.987
 5242POPC   C1A66627   5.081  29.188   6.396
 5242POPC   D2A66628   5.280  29.052   6.730
 5242POPC   C3A66629   5.213  29.395   6.974
 5242POPC   C4A66630   4.875  29.466   7.146
 5242POPC   C1B66631   4.907  28.721   6.262
 5242POPC   C2B66632   4.910  28.681   6.695
 5242POPC   C3B66633   4.903  28.936   7.081
 5242POPC   C4B66634   4.621  28.879   7.459
 5243POPC   NC366635   2.127  30.584   5.291
 5243POPC   PO466636   2.400  31.119   5.546
 5243POPC   GL166637   2.057  30.776   5.782
 5243POPC   GL266638   1.946  30.379   5.745
 5243POPC   C1A66639   1.837  30.723   6.207
 5243POPC   D2A66640   2.049  30.909   6.572
 5243POPC   C3A66641   2.074  30.934   7.020
 5243POPC   C4A66642   1.761  30.793   7.358
 5243POPC   C1B66643   2.173  30.323   6.141
 5243POPC   C2B66644   2.071  30.395   6.566
 5243POPC   C3B66645   1.876  30.482   6.960
 5243POPC   C4B66646   2.146  30.464   7.309
 5244POPC   NC366647  36.385  39.896   5.154
 5244POPC   PO466648  35.852  40.118   5.514
 5244POPC   GL166649  36.236  40.093   5.761
 5244POPC   GL266650  36.501  39.806   5.699
 5244POPC   C1A66651  36.142  40.217   6.194
 5244POPC   D2A66652  36.296  40.066   6.565
 5244POPC   C3A66653  36.090  40.075   6.935
 5244POPC   C4A66654  36.187  40.189   7.308
 5244POPC   C1B66655  36.384  39.759   6.154
 5244POPC   C2B66656  36.425  39.573   6.582
 5244POPC   C3B66657  36.282  39.611   6.994
 5244POPC   C4B66658  35.921  39.667   7.259
 5245POPC   NC366659  24.196  31.267   5.446
 5245POPC   PO466660  24.745  31.591   5.344
 5245POPC   GL166661  24.597  31.697   5.795
 5245POPC   GL266662  24.512  31.352   5.839
 5245POPC   C1A66663  24.645  31.577   6.279
 5245POPC   D2A66664  24.416  31.430   6.670
 5245POPC   C3A66665  24.637  31.616   7.050
 5245POPC   C4A66666  24.788  31.999   7.267
 5245POPC   C1B66667  24.246  31.228   6.189
 5245POPC   C2B66668  24.115  30.999   6.567
 5245POPC   C3B66669  24.063  31.159   6.957
 5245POPC   C4B66670  24.342  31.232   7.260
 5246POPC   NC366671  19.621   9.357   4.980
 5246POPC   PO466672  19.516   8.754   5.231
 5246POPC   GL166673  19.692   8.943   5.691
 5246POPC   GL266674  20.001   9.155   5.684
 5246POPC   C1A66675  19.668   8.852   6.138
 5246POPC   D2A66676  19.831   8.680   6.515
 5246POPC   C3A66677  19.613   8.873   6.850
 5246POPC   C4A66678  19.752   8.842   7.256
 5246POPC   C1B66679  19.837   9.341   6.081
 5246POPC   C2B66680  19.855   9.209   6.525
 5246POPC   C3B66681  19.847   9.301   6.976
 5246POPC   C4B66682  20.000   9.262   7.360
 5247POPC   NC366683  10.402  38.091   5.714
 5247POPC   PO466684  10.666  37.535   5.363
 5247POPC   GL166685  10.649  37.614   5.812
 5247POPC   GL266686  10.819  37.884   5.930
 5247POPC   C1A66687  10.425  37.578   6.218
 5247POPC   D2A66688  10.512  37.692   6.644
 5247POPC   C3A66689  10.274  37.654   7.015
 5247POPC   C4A66690  10.432  37.722   7.443
 5247POPC   C1B66691  10.929  37.631   6.296
 5247POPC   C2B66692  11.015  37.676   6.734
 5247POPC   C3B66693  10.816  37.597   7.117
 5247POPC   C4B66694  10.796  37.381   7.516
 5248POPC   NC366695   8.678  35.721   5.543
 5248POPC   PO466696   9.082  35.141   5.360
 5248POPC   GL166697   9.086  35.364   5.756
 5248POPC   GL266698   8.780  35.242   5.828
 5248POPC   C1A66699   9.287  35.477   6.161
 5248POPC   D2A66700   9.198  35.273   6.574
 5248POPC   C3A66701   9.344  35.427   6.980
 5248POPC   C4A66702   9.251  35.283   7.395
 5248POPC   C1B66703   8.780  35.409   6.251
 5248POPC   C2B66704   8.679  35.317   6.686
 5248POPC   C3B66705   8.854  35.199   7.087
 5248POPC   C4B66706   8.610  35.079   7.460
 5249POPC   NC366707  41.443  40.383   5.449
 5249POPC   PO466708  41.741  39.914   5.139
 5249POPC   GL166709  41.729  39.986   5.645
 5249POPC   GL266710  41.404  40.074   5.843
 5249POPC   C1A66711  41.799  39.863   6.122
 5249POPC   D2A66712  41.749  40.065   6.542
 5249POPC   C3A66713  41.730  39.896   7.007
 5249POPC   C4A66714  41.587  40.087   7.449
 5249POPC   C1B66715  41.273  39.815   6.200
 5249POPC   C2B66716  41.243  39.965   6.625
 5249POPC   C3B66717  41.252  40.096   7.055
 5249POPC   C4B66718  41.131  39.861   7.453
 5250POPC   NC366719   1.533   9.476   5.414
 5250POPC   PO466720   1.170   8.954   5.343
 5250POPC   GL166721   1.154   8.822   5.741
 5250POPC   GL266722   1.499   8.837   5.744
 5250POPC   C1A66723   1.012   8.922   6.137
 5250POPC   D2A66724   1.213   8.959   6.547
 5250POPC   C3A66725   1.118   9.049   6.987
 5250POPC   C4A66726   1.387   8.998   7.367
 5250POPC   C1B66727   1.553   8.706   6.162
 5250POPC   C2B66728   1.448   8.520   6.530
 5250POPC   C3B66729   1.440   8.643   6.933
 5250POPC   C4B66730   1.527   8.484   7.282
 5251POPC   NC366731  38.808  31.634   5.557
 5251POPC   PO466732  39.493  31.504   5.456
 5251POPC   GL166733  39.249  31.519   5.810
 5251POPC   GL266734  39.159  31.203   5.946
 5251POPC   C1A66735  39.156  31.713   6.210
 5251POPC   D2A66736  39.332  31.860   6.615
 5251POPC   C3A66737  39.165  31.583   6.940
 5251POPC   C4A66738  39.234  31.282   7.263
 5251POPC   C1B66739  38.864  31.223   6.271
 5251POPC   C2B66740  38.745  31.328   6.701
 5251POPC   C3B66741  38.775  31.184   7.118
 5251POPC   C4B66742  38.838  31.236   7.592
 5252POPC   NC366743  11.575  29.568   5.440
 5252POPC   PO466744  11.346  28.913   5.463
 5252POPC   GL166745  11.570  29.034   5.819
 5252POPC   GL266746  11.558  29.392   5.931
 5252POPC   C1A66747  11.336  29.017   6.184
 5252POPC   D2A66748  11.141  29.052   6.563
 5252POPC   C3A66749  11.368  28.999   6.935
 5252POPC   C4A66750  11.220  28.933   7.344
 5252POPC   C1B66751  11.432  29.493   6.387
 5252POPC   C2B66752  11.449  29.528   6.862
 5252POPC   C3B66753  11.275  29.432   7.255
 5252POPC   C4B66754  10.969  29.365   7.591
 5253POPC   NC366755  21.926   9.088   5.433
 5253POPC   PO466756  22.415   8.568   5.230
 5253POPC   GL166757  22.251   8.784   5.665
 5253POPC   GL266758  21.907   8.728   5.805
 5253POPC   C1A66759  22.176   9.066   6.077
 5253POPC   D2A66760  22.095   9.072   6.546
 5253POPC   C3A66761  22.403   9.202   6.908
 5253POPC   C4A66762  22.241   9.249   7.349
 5253POPC   C1B66763  22.023   8.584   6.243
 5253POPC   C2B66764  21.867   8.621   6.675
 5253POPC   C3B66765  22.019   8.847   7.051
 5253POPC   C4B66766  22.353   8.743   7.355
 5254POPC   NC366767  31.685  20.496   5.592
 5254POPC   PO466768  31.171  20.151   5.329
 5254POPC   GL166769  31.191  20.328   5.785
 5254POPC   GL266770  31.274  20.705   5.846
 5254POPC   C1A66771  31.428  20.386   6.216
 5254POPC   D2A66772  31.510  20.681   6.601
 5254POPC   C3A66773  31.639  20.550   7.026
 5254POPC   C4A66774  31.552  20.667   7.442
 5254POPC   C1B66775  31.615  20.908   6.147
 5254POPC   C2B66776  31.895  21.016   6.511
 5254POPC   C3B66777  31.730  21.071   6.921
 5254POPC   C4B66778  31.305  20.966   7.047
 5255POPC   NC366779   3.866  36.856   5.311
 5255POPC   PO466780   4.504  36.879   5.332
 5255POPC   GL166781   4.501  36.960   5.748
 5255POPC   GL266782   4.142  36.971   5.743
 5255POPC   C1A66783   4.458  36.817   6.163
 5255POPC   D2A66784   4.660  36.751   6.532
 5255POPC   C3A66785   4.440  36.874   6.880
 5255POPC   C4A66786   4.581  36.771   7.261
 5255POPC   C1B66787   4.068  37.158   6.134
 5255POPC   C2B66788   4.056  36.998   6.553
 5255POPC   C3B66789   3.960  36.989   6.998
 5255POPC   C4B66790   4.082  36.846   7.429
 5256POPC   NC366791  34.568  22.119   5.289
 5256POPC   PO466792  35.012  22.626   5.407
 5256POPC   GL166793  34.843  22.275   5.716
 5256POPC   GL266794  34.494  22.365   5.753
 5256POPC   C1A66795  34.627  22.091   6.147
 5256POPC   D2A66796  34.353  22.061   6.544
 5256POPC   C3A66797  34.490  21.904   6.976
 5256POPC   C4A66798  34.821  21.932   7.340
 5256POPC   C1B66799  34.738  22.583   6.090
 5256POPC   C2B66800  34.589  22.635   6.487
 5256POPC   C3B66801  34.560  22.402   6.896
 5256POPC   C4B66802  34.443  22.302   7.360
 5257POPC   NC366803  19.514  29.828   5.427
 5257POPC   PO466804  18.901  29.744   5.426
 5257POPC   GL166805  19.003  29.861   5.844
 5257POPC   GL266806  19.330  30.032   5.890
 5257POPC   C1A66807  19.004  29.989   6.283
 5257POPC   D2A66808  18.942  30.202   6.637
 5257POPC   C3A66809  19.040  29.910   6.974
 5257POPC   C4A66810  19.175  29.942   7.421
 5257POPC   C1B66811  19.396  29.686   6.207
 5257POPC   C2B66812  19.285  29.565   6.658
 5257POPC   C3B66813  19.405  29.599   7.127
 5257POPC   C4B66814  19.479  29.558   7.623
 5258POPC   NC366815  13.811  32.481   5.457
 5258POPC   PO466816  13.240  31.937   5.408
 5258POPC   GL166817  13.582  32.090   5.767
 5258POPC   GL266818  13.604  32.429   5.921
 5258POPC   C1A66819  13.608  31.987   6.219
 5258POPC   D2A66820  13.552  32.081   6.658
 5258POPC   C3A66821  13.851  32.242   6.960
 5258POPC   C4A66822  13.568  32.312   7.241
 5258POPC   C1B66823  13.595  32.511   6.368
 5258POPC   C2B66824  13.439  32.558   6.804
 5258POPC   C3B66825  13.412  32.783   7.192
 5258POPC   C4B66826  13.217  32.975   7.543
 5259POPC   NC366827  23.800  32.886   5.020
 5259POPC   PO466828  23.785  32.597   5.605
 5259POPC   GL166829  23.815  32.996   5.838
 5259POPC   GL266830  23.550  33.276   5.819
 5259POPC   C1A66831  24.059  33.237   6.104
 5259POPC   D2A66832  23.993  33.483   6.455
 5259POPC   C3A66833  24.082  33.221   6.823
 5259POPC   C4A66834  24.151  33.069   7.234
 5259POPC   C1B66835  23.419  33.043   6.201
 5259POPC   C2B66836  23.678  32.975   6.561
 5259POPC   C3B66837  23.757  32.837   6.972
 5259POPC   C4B66838  23.609  33.084   7.282
 5260POPC   NC366839  27.404  23.814   5.469
 5260POPC   PO466840  28.028  23.525   5.517
 5260POPC   GL166841  27.775  23.679   5.838
 5260POPC   GL266842  27.418  23.624   5.929
 5260POPC   C1A66843  27.838  23.498   6.258
 5260POPC   D2A66844  27.595  23.345   6.619
 5260POPC   C3A66845  27.709  23.428   7.065
 5260POPC   C4A66846  27.875  23.813   7.222
 5260POPC   C1B66847  27.470  23.863   6.308
 5260POPC   C2B66848  27.572  23.825   6.740
 5260POPC   C3B66849  27.381  23.896   7.141
 5260POPC   C4B66850  27.532  23.930   7.616
 5261POPC   NC366851  25.443  11.271   5.438
 5261POPC   PO466852  24.841  11.144   5.671
 5261POPC   GL166853  25.208  11.221   5.890
 5261POPC   GL266854  25.434  10.986   5.875
 5261POPC   C1A66855  25.330  11.363   6.262
 5261POPC   D2A66856  25.047  11.499   6.581
 5261POPC   C3A66857  25.213  11.379   6.999
 5261POPC   C4A66858  25.179  11.543   7.426
 5261POPC   C1B66859  25.585  10.909   6.277
 5261POPC   C2B66860  25.554  11.122   6.669
 5261POPC   C3B66861  25.696  11.038   7.052
 5261POPC   C4B66862  25.539  11.193   7.395
 5262POPC   NC366863  43.253  43.064   5.461
 5262POPC   PO466864  42.789  42.627   5.399
 5262POPC   GL166865  42.838  42.923   5.776
 5262POPC   GL266866  42.843  43.294   5.730
 5262POPC   C1A66867  43.103  43.006   6.165
 5262POPC   D2A66868  43.335  43.063   6.573
 5262POPC   C3A66869  43.137  42.902   6.956
 5262POPC   C4A66870  42.787  42.685   7.125
 5262POPC   C1B66871  42.993  43.537   6.118
 5262POPC   C2B66872  43.097  43.563   6.550
 5262POPC   C3B66873  43.202  43.397   6.936
 5262POPC   C4B66874  42.962  43.274   7.274
 5263POPC   NC366875  34.713  29.194   5.462
 5263POPC   PO466876  34.179  28.757   5.354
 5263POPC   GL166877  34.372  28.922   5.767
 5263POPC   GL266878  34.321  29.296   5.861
 5263POPC   C1A66879  34.596  28.936   6.180
 5263POPC   D2A66880  34.623  28.819   6.614
 5263POPC   C3A66881  34.413  29.092   6.829
 5263POPC   C4A66882  34.472  29.082   7.213
 5263POPC   C1B66883  34.692  29.428   6.132
 5263POPC   C2B66884  34.832  29.326   6.569
 5263POPC   C3B66885  34.718  29.480   6.988
 5263POPC   C4B66886  34.841  29.426   7.388
 5264POPC   NC366887  13.415   6.322   5.726
 5264POPC   PO466888  13.035   6.676   5.277
 5264POPC   GL166889  13.083   6.688   5.686
 5264POPC   GL266890  12.895   6.378   5.785
 5264POPC   C1A66891  13.155   6.881   6.079
 5264POPC   D2A66892  12.996   6.912   6.517
 5264POPC   C3A66893  13.210   6.683   6.824
 5264POPC   C4A66894  13.083   6.672   7.245
 5264POPC   C1B66895  12.760   6.573   6.139
 5264POPC   C2B66896  12.801   6.431   6.542
 5264POPC   C3B66897  12.700   6.646   6.913
 5264POPC   C4B66898  12.658   6.387   7.249
 5265POPC   NC366899  43.495  35.437   5.621
 5265POPC   PO466900  42.857  35.365   5.448
 5265POPC   GL166901  43.068  35.332   5.882
 5265POPC   GL266902  43.412  35.228   6.077
 5265POPC   C1A66903  43.063  35.501   6.316
 5265POPC   D2A66904  43.330  35.617   6.661
 5265POPC   C3A66905  43.461  35.269   6.916
 5265POPC   C4A66906  43.201  35.192   7.268
 5265POPC   C1B66907  43.601  35.649   6.213
 5265POPC   C2B66908  43.768  35.869   6.562
 5265POPC   C3B66909  43.751  35.736   6.995
 5265POPC   C4B66910  43.473  35.611   7.299
 5266POPC   NC366911   3.072  36.971   5.642
 5266POPC   PO466912   3.518  36.515   5.361
 5266POPC   GL166913   3.624  36.740   5.779
 5266POPC   GL266914   3.606  37.110   5.762
 5266POPC   C1A66915   3.570  36.844   6.244
 5266POPC   D2A66916   3.249  37.004   6.568
 5266POPC   C3A66917   3.262  36.818   6.980
 5266POPC   C4A66918   3.637  36.667   7.243
 5266POPC   C1B66919   3.595  37.343   6.167
 5266POPC   C2B66920   3.655  37.348   6.607
 5266POPC   C3B66921   3.487  37.275   7.010
 5266POPC   C4B66922   3.717  37.238   7.369
 5267POPC   NC366923  33.302  12.066   5.109
 5267POPC   PO466924  33.464  12.594   5.485
 5267POPC   GL166925  33.244  12.171   5.691
 5267POPC   GL266926  32.912  11.940   5.742
 5267POPC   C1A66927  33.187  12.049   6.158
 5267POPC   D2A66928  32.949  12.052   6.557
 5267POPC   C3A66929  32.673  12.204   6.924
 5267POPC   C4A66930  32.859  12.176   7.333
 5267POPC   C1B66931  32.878  11.642   6.131
 5267POPC   C2B66932  32.891  11.537   6.575
 5267POPC   C3B66933  32.903  11.747   6.985
 5267POPC   C4B66934  32.669  11.704   7.356
 5268POPC   NC366935  24.708   7.302   5.239
 5268POPC   PO466936  25.333   7.270   5.473
 5268POPC   GL166937  25.149   7.349   5.839
 5268POPC   GL266938  24.812   7.183   5.834
 5268POPC   C1A66939  25.388   7.403   6.213
 5268POPC   D2A66940  25.351   7.666   6.551
 5268POPC   C3A66941  25.508   7.489   6.908
 5268POPC   C4A66942  25.360   7.674   7.273
 5268POPC   C1B66943  25.041   6.997   6.212
 5268POPC   C2B66944  25.192   7.129   6.623
 5268POPC   C3B66945  25.005   7.353   6.958
 5268POPC   C4B66946  24.909   7.215   7.351
 5269POPC   NC366947  11.404   1.583   5.606
 5269POPC   PO466948  11.413   2.213   5.417
 5269POPC   GL166949  11.204   2.081   5.793
 5269POPC   GL266950  11.040   1.755   5.903
 5269POPC   C1A66951  11.353   2.006   6.210
 5269POPC   D2A66952  11.326   2.255   6.565
 5269POPC   C3A66953  11.263   2.018   6.878
 5269POPC   C4A66954  11.414   1.980   7.258
 5269POPC   C1B66955  10.939   1.644   6.340
 5269POPC   C2B66956  10.944   1.538   6.801
 5269POPC   C3B66957  11.122   1.579   7.205
 5269POPC   C4B66958  10.935   1.719   7.646
 5270POPC   NC366959  20.755   3.325   5.388
 5270POPC   PO466960  20.621   2.619   5.459
 5270POPC   GL166961  20.548   2.741   5.829
 5270POPC   GL266962  20.738   3.050   5.816
 5270POPC   C1A66963  20.512   2.482   6.167
 5270POPC   D2A66964  20.363   2.242   6.469
 5270POPC   C3A66965  20.491   2.426   6.816
 5270POPC   C4A66966  20.596   2.542   7.210
 5270POPC   C1B66967  20.757   2.943   6.232
 5270POPC   C2B66968  20.498   2.864   6.560
 5270POPC   C3B66969  20.684   2.955   6.935
 5270POPC   C4B66970  21.060   2.923   7.192
 5271POPC   NC366971   9.266   5.977   5.479
 5271POPC   PO466972   8.698   6.254   5.658
 5271POPC   GL166973   8.963   5.863   5.884
 5271POPC   GL266974   9.188   5.533   5.839
 5271POPC   C1A66975   9.174   5.777   6.265
 5271POPC   D2A66976   9.350   5.767   6.608
 5271POPC   C3A66977   9.160   6.108   6.831
 5271POPC   C4A66978   9.163   6.031   7.294
 5271POPC   C1B66979   8.794   5.474   6.174
 5271POPC   C2B66980   8.737   5.718   6.575
 5271POPC   C3B66981   8.983   5.664   6.975
 5271POPC   C4B66982   8.809   5.500   7.353
 5272POPC   NC366983  24.517  42.262   5.359
 5272POPC   PO466984  23.952  42.618   5.458
 5272POPC   GL166985  24.279  42.432   5.770
 5272POPC   GL266986  24.650  42.435   5.822
 5272POPC   C1A66987  24.323  42.175   6.165
 5272POPC   D2A66988  24.364  42.382   6.572
 5272POPC   C3A66989  24.345  42.134   6.975
 5272POPC   C4A66990  24.446  42.178   7.409
 5272POPC   C1B66991  24.810  42.343   6.258
 5272POPC   C2B66992  24.801  42.164   6.690
 5272POPC   C3B66993  24.821  42.336   7.099
 5272POPC   C4B66994  25.122  42.324   7.406
 5273POPC   NC366995  35.475  16.397   5.676
 5273POPC   PO466996  35.102  16.910   5.394
 5273POPC   GL166997  35.262  16.964   5.892
 5273POPC   GL266998  35.422  16.665   6.085
 5273POPC   C1A66999  35.267  17.019   6.388
 5273POPC   D2A67000  35.287  16.626   6.610
 5273POPC   C3A67001  35.400  16.742   6.958
 5273POPC   C4A67002  35.164  17.061   7.081
 5273POPC   C1B67003  35.763  16.835   6.338
 5273POPC   C2B67004  35.711  17.066   6.727
 5273POPC   C3B67005  35.793  16.987   7.183
 5273POPC   C4B67006  35.835  16.712   7.564
 5274POPC   NC367007  11.691   7.060   5.249
 5274POPC   PO467008  11.351   7.671   5.271
 5274POPC   GL167009  11.370   7.489   5.753
 5274POPC   GL267010  11.640   7.284   5.955
 5274POPC   C1A67011  11.275   7.552   6.236
 5274POPC   D2A67012  10.958   7.738   6.519
 5274POPC   C3A67013  11.177   7.911   6.898
 5274POPC   C4A67014  11.410   7.656   7.178
 5274POPC   C1B67015  11.386   7.051   6.284
 5274POPC   C2B67016  11.214   7.152   6.703
 5274POPC   C3B67017  11.316   7.113   7.140
 5274POPC   C4B67018  11.457   7.137   7.548
 5275POPC   NC367019  11.159  42.604   5.497
 5275POPC   PO467020  11.545  42.017   5.564
 5275POPC   GL167021  11.386  42.263   5.829
 5275POPC   GL267022  11.567  42.558   5.836
 5275POPC   C1A67023  11.155  42.207   6.179
 5275POPC   D2A67024  11.268  42.355   6.559
 5275POPC   C3A67025  11.160  42.227   6.951
 5275POPC   C4A67026  10.950  42.543   7.164
 5275POPC   C1B67027  11.362  42.707   6.197
 5275POPC   C2B67028  11.485  42.840   6.612
 5275POPC   C3B67029  11.442  42.704   7.073
 5275POPC   C4B67030  11.249  42.794   7.471
 5276POPC   NC367031  25.791   7.225   5.385
 5276POPC   PO467032  26.193   7.739   5.246
 5276POPC   GL167033  25.785   7.837   5.620
 5276POPC   GL267034  25.654   7.526   5.768
 5276POPC   C1A67035  25.716   7.847   6.132
 5276POPC   D2A67036  25.848   7.545   6.496
 5276POPC   C3A67037  26.183   7.685   6.803
 5276POPC   C4A67038  26.180   7.833   7.248
 5276POPC   C1B67039  25.874   7.237   6.067
 5276POPC   C2B67040  26.261   7.277   6.351
 5276POPC   C3B67041  26.158   7.149   6.794
 5276POPC   C4B67042  26.312   7.343   7.170
 5277POPC   NC367043  33.969  19.026   5.513
 5277POPC   PO467044  33.331  18.768   5.354
 5277POPC   GL167045  33.505  19.045   5.749
 5277POPC   GL267046  33.793  18.912   5.967
 5277POPC   C1A67047  33.531  19.290   6.167
 5277POPC   D2A67048  33.562  19.461   6.584
 5277POPC   C3A67049  33.636  19.213   6.955
 5277POPC   C4A67050  33.853  19.250   7.337
 5277POPC   C1B67051  34.071  18.777   6.295
 5277POPC   C2B67052  33.877  18.829   6.646
 5277POPC   C3B67053  33.955  18.834   7.033
 5277POPC   C4B67054  33.872  18.608   7.355
 5278POPC   NC367055  27.220  40.858   5.608
 5278POPC   PO467056  26.665  40.486   5.598
 5278POPC   GL167057  26.862  40.710   5.940
 5278POPC   GL267058  26.854  41.081   5.914
 5278POPC   C1A67059  26.889  40.833   6.374
 5278POPC   D2A67060  26.747  40.636   6.748
 5278POPC   C3A67061  27.091  40.655   7.006
 5278POPC   C4A67062  27.145  40.872   7.399
 5278POPC   C1B67063  26.586  41.257   6.242
 5278POPC   C2B67064  26.589  41.177   6.668
 5278POPC   C3B67065  26.814  41.075   7.059
 5278POPC   C4B67066  26.673  40.673   7.292
 5279POPC   NC367067  24.674   6.348   5.200
 5279POPC   PO467068  24.385   6.978   5.276
 5279POPC   GL167069  24.302   7.000   5.761
 5279POPC   GL267070  24.046   6.742   5.840
 5279POPC   C1A67071  24.475   6.892   6.224
 5279POPC   D2A67072  24.796   6.733   6.578
 5279POPC   C3A67073  24.738   6.460   6.943
 5279POPC   C4A67074  24.514   6.572   7.281
 5279POPC   C1B67075  24.133   6.504   6.231
 5279POPC   C2B67076  24.270   6.568   6.680
 5279POPC   C3B67077  24.055   6.672   7.080
 5279POPC   C4B67078  24.108   6.695   7.545
 5280POPC   NC367079  11.285  43.360   5.367
 5280POPC   PO467080  11.570  42.835   5.406
 5280POPC   GL167081  11.352  43.032   5.793
 5280POPC   GL267082  11.158  43.347   5.873
 5280POPC   C1A67083  11.530  43.191   6.201
 5280POPC   D2A67084  11.362  43.378   6.571
 5280POPC   C3A67085  11.397  43.200   6.966
 5280POPC   C4A67086  11.320  43.275   7.385
 5280POPC   C1B67087  11.016  43.122   6.265
 5280POPC   C2B67088  10.996  42.957   6.699
 5280POPC   C3B67089  10.934  43.067   7.124
 5280POPC   C4B67090  10.826  43.314   7.464
 5281POPC   NC367091   9.106   4.223   5.267
 5281POPC   PO467092   8.658   4.634   5.244
 5281POPC   GL167093   8.835   4.503   5.718
 5281POPC   GL267094   9.172   4.318   5.775
 5281POPC   C1A67095   8.839   4.299   6.180
 5281POPC   D2A67096   8.959   4.402   6.638
 5281POPC   C3A67097   8.740   4.331   7.040
 5281POPC   C4A67098   8.576   4.160   7.438
 5281POPC   C1B67099   9.328   4.106   6.138
 5281POPC   C2B67100   9.136   3.959   6.475
 5281POPC   C3B67101   9.119   3.989   6.933
 5281POPC   C4B67102   9.339   4.193   7.273
 5282POPC   NC367103  25.030  38.206   5.188
 5282POPC   PO467104  25.299  38.703   5.217
 5282POPC   GL167105  25.221  38.537   5.675
 5282POPC   GL267106  25.277  38.798   5.914
 5282POPC   C1A67107  25.371  38.341   6.129
 5282POPC   D2A67108  25.394  38.575   6.553
 5282POPC   C3A67109  25.487  38.374   6.922
 5282POPC   C4A67110  25.213  38.327   7.252
 5282POPC   C1B67111  24.966  38.603   6.247
 5282POPC   C2B67112  24.944  38.351   6.676
 5282POPC   C3B67113  24.711  38.269   7.085
 5282POPC   C4B67114  24.436  37.998   7.385
 5283POPC   NC367115  10.332  38.715   5.398
 5283POPC   PO467116  10.815  38.311   5.635
 5283POPC   GL167117  10.682  38.380   6.031
 5283POPC   GL267118  10.444  38.596   5.903
 5283POPC   C1A67119  10.484  38.148   6.368
 5283POPC   D2A67120  10.277  38.143   6.766
 5283POPC   C3A67121  10.613  38.054   7.038
 5283POPC   C4A67122  10.794  38.183   7.420
 5283POPC   C1B67123  10.249  38.623   6.314
 5283POPC   C2B67124  10.317  38.844   6.701
 5283POPC   C3B67125  10.336  38.865   7.147
 5283POPC   C4B67126  10.353  38.449   7.208
 5284POPC   NC367127  32.502  12.093   5.436
 5284POPC   PO467128  31.989  12.400   5.505
 5284POPC   GL167129  32.181  12.167   5.850
 5284POPC   GL267130  32.309  11.822   5.835
 5284POPC   C1A67131  32.079  12.082   6.287
 5284POPC   D2A67132  31.924  12.356   6.580
 5284POPC   C3A67133  32.114  12.375   6.965
 5284POPC   C4A67134  32.315  12.256   7.311
 5284POPC   C1B67135  32.561  12.022   6.173
 5284POPC   C2B67136  32.471  11.872   6.595
 5284POPC   C3B67137  32.311  11.839   7.027
 5284POPC   C4B67138  32.190  11.759   7.486
 5285POPC   NC367139  34.958  39.558   5.296
 5285POPC   PO467140  35.107  40.175   5.125
 5285POPC   GL167141  34.933  40.027   5.613
 5285POPC   GL267142  34.645  39.793   5.668
 5285POPC   C1A67143  34.594  40.172   6.014
 5285POPC   D2A67144  34.332  40.309   6.365
 5285POPC   C3A67145  34.487  40.154   6.747
 5285POPC   C4A67146  34.631  40.209   7.200
 5285POPC   C1B67147  34.684  39.687   6.144
 5285POPC   C2B67148  34.670  39.709   6.612
 5285POPC   C3B67149  34.438  39.738   7.036
 5285POPC   C4B67150  34.837  39.649   7.192
 5286POPC   NC367151  28.025  31.249   5.540
 5286POPC   PO467152  27.401  31.403   5.409
 5286POPC   GL167153  27.600  31.424   5.823
 5286POPC   GL267154  27.291  31.422   5.968
 5286POPC   C1A67155  27.663  31.532   6.300
 5286POPC   D2A67156  27.621  31.286   6.712
 5286POPC   C3A67157  27.615  31.589   7.036
 5286POPC   C4A67158  27.964  31.714   7.295
 5286POPC   C1B67159  27.269  31.176   6.336
 5286POPC   C2B67160  27.236  30.910   6.699
 5286POPC   C3B67161  27.355  30.821   7.061
 5286POPC   C4B67162  27.528  31.156   7.301
 5287POPC   NC367163  35.430  42.033   5.297
 5287POPC   PO467164  35.400  41.412   5.441
 5287POPC   GL167165  35.300  41.642   5.817
 5287POPC   GL267166  35.584  41.838   5.837
 5287POPC   C1A67167  35.031  41.594   6.174
 5287POPC   D2A67168  35.115  41.391   6.549
 5287POPC   C3A67169  35.286  41.668   6.877
 5287POPC   C4A67170  35.207  41.552   7.290
 5287POPC   C1B67171  35.502  41.746   6.298
 5287POPC   C2B67172  35.687  41.476   6.632
 5287POPC   C3B67173  35.737  41.438   7.096
 5287POPC   C4B67174  35.680  41.680   7.465
 5288POPC   NC367175  26.126  13.149   5.402
 5288POPC   PO467176  25.498  13.302   5.448
 5288POPC   GL167177  25.777  12.990   5.752
 5288POPC   GL267178  26.179  12.952   5.851
 5288POPC   C1A67179  25.835  12.761   6.161
 5288POPC   D2A67180  25.769  12.522   6.537
 5288POPC   C3A67181  26.030  12.654   6.864
 5288POPC   C4A67182  25.891  12.800   7.271
 5288POPC   C1B67183  26.511  13.010   6.173
 5288POPC   C2B67184  26.576  12.827   6.576
 5288POPC   C3B67185  26.460  12.947   6.979
 5288POPC   C4B67186  26.379  12.656   7.280
 5289POPC   NC367187  26.346  22.405   5.167
 5289POPC   PO467188  26.191  22.980   5.544
 5289POPC   GL167189  26.045  22.824   5.904
 5289POPC   GL267190  25.676  22.886   5.916
 5289POPC   C1A67191  26.249  22.804   6.277
 5289POPC   D2A67192  26.318  22.886   6.683
 5289POPC   C3A67193  26.332  22.503   6.903
 5289POPC   C4A67194  26.103  22.606   7.252
 5289POPC   C1B67195  25.785  23.075   6.347
 5289POPC   C2B67196  25.634  23.361   6.668
 5289POPC   C3B67197  25.628  23.218   7.085
 5289POPC   C4B67198  25.558  22.834   7.243
 5290POPC   NC367199  17.463  30.471   5.360
 5290POPC   PO467200  17.966  30.944   5.490
 5290POPC   GL167201  17.724  30.669   5.805
 5290POPC   GL267202  17.341  30.579   5.843
 5290POPC   C1A67203  17.734  30.774   6.241
 5290POPC   D2A67204  17.981  30.626   6.556
 5290POPC   C3A67205  17.811  30.721   6.925
 5290POPC   C4A67206  17.544  30.775   7.220
 5290POPC   C1B67207  17.269  30.541   6.287
 5290POPC   C2B67208  17.311  30.718   6.720
 5290POPC   C3B67209  17.029  30.739   7.082
 5290POPC   C4B67210  17.159  30.646   7.502
 5291POPC   NC367211   5.605  11.864   5.508
 5291POPC   PO467212   5.848  11.256   5.425
 5291POPC   GL167213   6.122  11.308   5.766
 5291POPC   GL267214   5.973  11.603   5.909
 5291POPC   C1A67215   6.227  11.115   6.162
 5291POPC   D2A67216   6.111  11.007   6.589
 5291POPC   C3A67217   5.992  11.247   6.982
 5291POPC   C4A67218   5.660  11.068   7.270
 5291POPC   C1B67219   5.873  11.479   6.363
 5291POPC   C2B67220   5.681  11.658   6.765
 5291POPC   C3B67221   5.659  11.596   7.227
 5291POPC   C4B67222   5.550  11.403   7.647
 5292POPC   NC367223  40.449  36.833   5.543
 5292POPC   PO467224  39.805  37.186   5.495
 5292POPC   GL167225  39.973  36.937   5.827
 5292POPC   GL267226  39.716  36.704   5.860
 5292POPC   C1A67227  40.189  36.967   6.251
 5292POPC   D2A67228  40.125  36.837   6.700
 5292POPC   C3A67229  40.153  37.083   7.064
 5292POPC   C4A67230  40.035  37.055   7.523
 5292POPC   C1B67231  39.705  36.809   6.310
 5292POPC   C2B67232  39.608  36.769   6.764
 5292POPC   C3B67233  39.834  36.686   7.162
 5292POPC   C4B67234  40.007  36.338   7.385
 5293POPC   NC367235  18.830   4.214   5.423
 5293POPC   PO467236  19.363   4.095   5.070
 5293POPC   GL167237  19.310   4.182   5.618
 5293POPC   GL267238  19.076   4.448   5.766
 5293POPC   C1A67239  19.293   4.242   6.158
 5293POPC   D2A67240  19.459   4.131   6.624
 5293POPC   C3A67241  19.191   4.258   6.994
 5293POPC   C4A67242  19.126   4.698   7.109
 5293POPC   C1B67243  18.854   4.535   6.172
 5293POPC   C2B67244  18.865   4.459   6.632
 5293POPC   C3B67245  18.699   4.412   7.052
 5293POPC   C4B67246  18.823   4.125   7.392
 5294POPC   NC367247  43.384  30.333   5.240
 5294POPC   PO467248  43.387  30.996   5.127
 5294POPC   GL167249  43.151  30.926   5.585
 5294POPC   GL267250  43.138  30.565   5.732
 5294POPC   C1A67251  43.299  30.940   6.065
 5294POPC   D2A67252  43.462  30.926   6.532
 5294POPC   C3A67253  43.160  30.904   6.919
 5294POPC   C4A67254  43.194  30.715   7.318
 5294POPC   C1B67255  43.107  30.495   6.187
 5294POPC   C2B67256  43.223  30.501   6.613
 5294POPC   C3B67257  43.103  30.364   6.985
 5294POPC   C4B67258  42.780  30.348   7.337
 5295POPC   NC367259   1.265   0.124   5.090
 5295POPC   PO467260   0.920   0.483   5.521
 5295POPC   GL167261   1.164   0.237   5.839
 5295POPC   GL267262   1.482   0.177   5.730
 5295POPC   C1A67263   1.197   0.299   6.271
 5295POPC   D2A67264   1.161   0.513   6.631
 5295POPC   C3A67265   1.139   0.321   6.980
 5295POPC   C4A67266   1.306   0.535   7.313
 5295POPC   C1B67267   1.595  44.996   6.180
 5295POPC   C2B67268   1.490   0.055   6.642
 5295POPC   C3B67269   1.581   0.132   7.096
 5295POPC   C4B67270   1.565   0.169   7.575
 5296POPC   NC367271  33.478  29.993   5.189
 5296POPC   PO467272  32.864  29.974   5.187
 5296POPC   GL167273  32.852  29.941   5.765
 5296POPC   GL267274  33.035  29.664   5.949
 5296POPC   C1A67275  32.819  29.991   6.251
 5296POPC   D2A67276  33.036  29.925   6.667
 5296POPC   C3A67277  32.888  30.142   7.075
 5296POPC   C4A67278  32.803  30.241   7.530
 5296POPC   C1B67279  33.381  29.792   6.265
 5296POPC   C2B67280  33.586  29.813   6.676
 5296POPC   C3B67281  33.377  29.968   7.046
 5296POPC   C4B67282  33.278  30.023   7.476
 5297POPC   NC367283  32.427  24.681   5.197
 5297POPC   PO467284  33.089  24.500   5.253
 5297POPC   GL167285  32.980  24.436   5.747
 5297POPC   GL267286  32.623  24.357   5.674
 5297POPC   C1A67287  33.181  24.452   6.182
 5297POPC   D2A67288  33.291  24.776   6.482
 5297POPC   C3A67289  33.205  24.643   6.902
 5297POPC   C4A67290  33.097  24.848   7.266
 5297POPC   C1B67291  32.735  24.148   6.077
 5297POPC   C2B67292  32.868  24.198   6.494
 5297POPC   C3B67293  32.761  24.350   6.871
 5297POPC   C4B67294  32.877  24.397   7.271
 5298POPC   NC367295  40.089  24.393   5.263
 5298POPC   PO467296  39.513  24.556   5.491
 5298POPC   GL167297  39.857  24.301   5.712
 5298POPC   GL267298  40.265  24.258   5.721
 5298POPC   C1A67299  39.972  24.290   6.144
 5298POPC   D2A67300  39.935  24.276   6.591
 5298POPC   C3A67301  40.052  24.629   6.852
 5298POPC   C4A67302  39.877  24.671   7.242
 5298POPC   C1B67303  40.490  24.229   6.125
 5298POPC   C2B67304  40.442  24.290   6.559
 5298POPC   C3B67305  40.303  24.183   6.972
 5298POPC   C4B67306  40.342  24.479   7.291
 5299POPC   NC367307  11.339  22.861   5.311
 5299POPC   PO467308  11.964  23.160   5.430
 5299POPC   GL167309  11.702  22.938   5.767
 5299POPC   GL267310  11.324  22.966   5.818
 5299POPC   C1A67311  11.608  22.998   6.240
 5299POPC   D2A67312  11.512  22.706   6.594
 5299POPC   C3A67313  11.398  22.884   6.992
 5299POPC   C4A67314  11.569  23.036   7.378
 5299POPC   C1B67315  11.087  23.019   6.214
 5299POPC   C2B67316  10.959  22.787   6.595
 5299POPC   C3B67317  10.905  22.604   7.006
 5299POPC   C4B67318  11.085  22.770   7.390
 5300POPC   NC367319  36.302  28.901   5.489
 5300POPC   PO467320  35.979  29.466   5.647
 5300POPC   GL167321  36.273  29.255   5.877
 5300POPC   GL267322  35.991  29.059   5.958
 5300POPC   C1A67323  36.379  29.117   6.290
 5300POPC   D2A67324  36.186  28.995   6.650
 5300POPC   C3A67325  36.053  29.373   6.809
 5300POPC   C4A67326  36.070  29.493   7.229
 5300POPC   C1B67327  35.662  28.837   6.160
 5300POPC   C2B67328  35.708  28.799   6.614
 5300POPC   C3B67329  35.880  28.770   7.052
 5300POPC   C4B67330  35.678  28.877   7.460
 5301POPC   NC367331  28.324  30.474   5.817
 5301POPC   PO467332  28.270  30.892   5.373
 5301POPC   GL167333  28.342  30.980   5.861
 5301POPC   GL267334  28.661  30.794   6.045
 5301POPC   C1A67335  28.246  30.881   6.315
 5301POPC   D2A67336  28.144  31.027   6.690
 5301POPC   C3A67337  28.402  30.816   7.007
 5301POPC   C4A67338  28.410  30.536   7.362
 5301POPC   C1B67339  28.629  31.213   6.229
 5301POPC   C2B67340  28.542  31.331   6.675
 5301POPC   C3B67341  28.697  31.232   7.058
 5301POPC   C4B67342  28.702  30.959   7.437
 5302POPC   NC367343  36.475   1.983   5.399
 5302POPC   PO467344  37.113   1.903   5.310
 5302POPC   GL167345  36.929   1.908   5.739
 5302POPC   GL267346  36.753   2.237   5.778
 5302POPC   C1A67347  37.113   1.963   6.180
 5302POPC   D2A67348  37.285   2.106   6.583
 5302POPC   C3A67349  37.120   2.011   6.981
 5302POPC   C4A67350  36.754   1.987   7.234
 5302POPC   C1B67351  36.614   2.049   6.168
 5302POPC   C2B67352  36.720   2.051   6.620
 5302POPC   C3B67353  36.437   2.254   6.926
 5302POPC   C4B67354  36.323   2.301   7.372
 5303POPC   NC367355  17.038   8.228   5.167
 5303POPC   PO467356  17.442   7.913   5.435
 5303POPC   GL167357  17.515   7.977   5.886
 5303POPC   GL267358  17.168   7.904   5.890
 5303POPC   C1A67359  17.732   8.010   6.329
 5303POPC   D2A67360  17.779   7.880   6.794
 5303POPC   C3A67361  17.637   8.207   7.120
 5303POPC   C4A67362  17.711   8.640   7.143
 5303POPC   C1B67363  17.172   7.924   6.312
 5303POPC   C2B67364  17.324   8.111   6.654
 5303POPC   C3B67365  17.288   7.870   6.988
 5303POPC   C4B67366  17.163   8.106   7.317
 5304POPC   NC367367  40.483  26.130   5.708
 5304POPC   PO467368  41.045  26.361   5.405
 5304POPC   GL167369  41.011  26.067   5.742
 5304POPC   GL267370  40.887  25.751   5.773
 5304POPC   C1A67371  40.987  26.019   6.202
 5304POPC   D2A67372  40.734  26.086   6.570
 5304POPC   C3A67373  41.002  26.109   6.961
 5304POPC   C4A67374  40.929  26.046   7.386
 5304POPC   C1B67375  40.596  25.698   6.170
 5304POPC   C2B67376  40.549  25.575   6.565
 5304POPC   C3B67377  40.649  25.744   6.926
 5304POPC   C4B67378  40.606  25.668   7.297
 5305POPC   NC367379  28.820   0.903   5.258
 5305POPC   PO467380  29.132   1.469   5.244
 5305POPC   GL167381  29.015   1.181   5.675
 5305POPC   GL267382  29.201   0.926   5.801
 5305POPC   C1A67383  28.940   1.213   6.198
 5305POPC   D2A67384  28.974   1.396   6.685
 5305POPC   C3A67385  29.173   1.356   7.133
 5305POPC   C4A67386  29.270   1.343   7.620
 5305POPC   C1B67387  29.052   0.715   6.197
 5305POPC   C2B67388  28.807   0.802   6.593
 5305POPC   C3B67389  28.945   0.896   7.023
 5305POPC   C4B67390  29.256   0.876   7.387
 5306POPC   NC367391  15.238  25.516   5.404
 5306POPC   PO467392  14.996  26.161   5.454
 5306POPC   GL167393  15.259  26.156   5.837
 5306POPC   GL267394  15.320  25.799   5.830
 5306POPC   C1A67395  15.382  26.366   6.255
 5306POPC   D2A67396  15.529  26.244   6.712
 5306POPC   C3A67397  15.225  26.081   7.052
 5306POPC   C4A67398  15.007  26.189   7.479
 5306POPC   C1B67399  15.166  25.696   6.256
 5306POPC   C2B67400  15.314  25.663   6.692
 5306POPC   C3B67401  15.436  25.521   7.106
 5306POPC   C4B67402  15.264  25.736   7.422
 5307POPC   NC367403  19.407  18.367   5.579
 5307POPC   PO467404  20.040  18.580   5.466
 5307POPC   GL167405  20.082  18.217   5.781
 5307POPC   GL267406  19.802  17.952   5.910
 5307POPC   C1A67407  20.185  18.139   6.217
 5307POPC   D2A67408  19.963  18.239   6.597
 5307POPC   C3A67409  20.138  18.172   7.012
 5307POPC   C4A67410  19.840  18.388   7.259
 5307POPC   C1B67411  19.706  18.348   6.157
 5307POPC   C2B67412  19.443  18.584   6.448
 5307POPC   C3B67413  19.472  18.501   6.892
 5307POPC   C4B67414  19.455  18.704   7.307
 5308POPC   NC367415   3.780   1.076   4.900
 5308POPC   PO467416   3.418   1.137   5.452
 5308POPC   GL167417   3.537   0.936   5.803
 5308POPC   GL267418   3.882   0.922   5.779
 5308POPC   C1A67419   3.348   0.862   6.204
 5308POPC   D2A67420   3.523   0.875   6.592
 5308POPC   C3A67421   3.671   1.228   6.789
 5308POPC   C4A67422   3.536   1.328   7.188
 5308POPC   C1B67423   3.830   1.129   6.196
 5308POPC   C2B67424   4.037   0.972   6.535
 5308POPC   C3B67425   3.993   0.871   6.962
 5308POPC   C4B67426   4.056   1.130   7.295
 5309POPC   NC367427   1.346  31.808   5.510
 5309POPC   PO467428   0.990  31.237   5.668
 5309POPC   GL167429   1.152  31.428   6.002
 5309POPC   GL267430   1.476  31.475   5.897
 5309POPC   C1A67431   1.061  31.564   6.408
 5309POPC   D2A67432   1.249  31.452   6.793
 5309POPC   C3A67433   0.944  31.472   7.126
 5309POPC   C4A67434   0.974  31.165   7.418
 5309POPC   C1B67435   1.545  31.664   6.289
 5309POPC   C2B67436   1.417  31.921   6.630
 5309POPC   C3B67437   1.563  31.801   7.001
 5309POPC   C4B67438   1.422  31.541   7.331
 5310POPC   NC367439  41.831  18.109   5.492
 5310POPC   PO467440  41.488  18.747   5.410
 5310POPC   GL167441  41.550  18.426   5.766
 5310POPC   GL267442  41.853  18.310   5.980
 5310POPC   C1A67443  41.380  18.367   6.185
 5310POPC   D2A67444  41.651  18.220   6.517
 5310POPC   C3A67445  41.612  18.305   6.931
 5310POPC   C4A67446  41.565  18.410   7.351
 5310POPC   C1B67447  42.085  18.040   6.318
 5310POPC   C2B67448  41.995  17.945   6.785
 5310POPC   C3B67449  41.984  18.124   7.238
 5310POPC   C4B67450  41.823  17.952   7.633
 5311POPC   NC367451  11.305   3.495   5.500
 5311POPC   PO467452  10.912   4.021   5.364
 5311POPC   GL167453  11.067   3.823   5.787
 5311POPC   GL267454  11.037   3.455   5.918
 5311POPC   C1A67455  11.319   3.798   6.161
 5311POPC   D2A67456  11.302   3.486   6.498
 5311POPC   C3A67457  11.348   3.683   6.903
 5311POPC   C4A67458  11.495   3.843   7.278
 5311POPC   C1B67459  10.863   3.260   6.284
 5311POPC   C2B67460  10.828   3.335   6.722
 5311POPC   C3B67461  11.057   3.283   7.096
 5311POPC   C4B67462  10.844   3.258   7.502
 5312POPC   NC367463   4.461  21.393   5.436
 5312POPC   PO467464   3.871  21.258   5.598
 5312POPC   GL167465   4.246  21.117   5.850
 5312POPC   GL267466   4.493  21.376   5.938
 5312POPC   C1A67467   4.466  21.002   6.269
 5312POPC   D2A67468   4.730  21.212   6.613
 5312POPC   C3A67469   4.621  21.261   7.072
 5312POPC   C4A67470   4.248  21.108   7.333
 5312POPC   C1B67471   4.543  21.613   6.335
 5312POPC   C2B67472   4.545  21.690   6.804
 5312POPC   C3B67473   4.770  21.798   7.201
 5312POPC   C4B67474   4.826  21.666   7.669
 5313POPC   NC367475  30.080   8.596   5.450
 5313POPC   PO467476  29.810   9.250   5.490
 5313POPC   GL167477  29.820   9.052   5.874
 5313POPC   GL267478  30.151   8.883   5.905
 5313POPC   C1A67479  29.775   8.964   6.303
 5313POPC   D2A67480  30.112   8.966   6.590
 5313POPC   C3A67481  30.125   8.783   6.992
 5313POPC   C4A67482  30.068   8.575   7.355
 5313POPC   C1B67483  30.150   9.299   6.169
 5313POPC   C2B67484  30.082   9.479   6.590
 5313POPC   C3B67485  30.259   9.288   6.963
 5313POPC   C4B67486  30.412   9.399   7.346
 5314POPC   NC367487  39.680  13.168   5.549
 5314POPC   PO467488  40.114  12.738   5.549
 5314POPC   GL167489  39.975  12.839   5.935
 5314POPC   GL267490  40.055  13.168   5.916
 5314POPC   C1A67491  40.193  12.809   6.345
 5314POPC   D2A67492  40.364  12.598   6.717
 5314POPC   C3A67493  40.141  12.644   7.108
 5314POPC   C4A67494  40.051  13.037   7.306
 5314POPC   C1B67495  39.750  13.185   6.250
 5314POPC   C2B67496  39.785  12.931   6.628
 5314POPC   C3B67497  39.688  12.858   7.023
 5314POPC   C4B67498  39.557  13.180   7.327
 5315POPC   NC367499  10.368  31.822   5.399
 5315POPC   PO467500  10.889  31.444   5.353
 5315POPC   GL167501  10.722  31.492   5.749
 5315POPC   GL267502  10.347  31.506   5.783
 5315POPC   C1A67503  10.686  31.633   6.159
 5315POPC   D2A67504  10.748  31.822   6.525
 5315POPC   C3A67505  10.673  31.689   6.948
 5315POPC   C4A67506  10.605  31.871   7.369
 5315POPC   C1B67507  10.207  31.393   6.163
 5315POPC   C2B67508  10.389  31.429   6.540
 5315POPC   C3B67509  10.197  31.472   6.880
 5315POPC   C4B67510  10.279  31.524   7.258
 5316POPC   NC367511  38.581  17.805   5.392
 5316POPC   PO467512  38.159  17.298   5.321
 5316POPC   GL167513  38.222  17.331   5.788
 5316POPC   GL267514  38.584  17.451   5.793
 5316POPC   C1A67515  38.296  17.178   6.256
 5316POPC   D2A67516  38.394  17.120   6.729
 5316POPC   C3A67517  38.252  17.412   7.071
 5316POPC   C4A67518  38.269  17.396   7.546
 5316POPC   C1B67519  38.658  17.523   6.235
 5316POPC   C2B67520  38.562  17.589   6.643
 5316POPC   C3B67521  38.753  17.485   7.013
 5316POPC   C4B67522  38.716  17.636   7.399
 5317POPC   NC367523   2.000  28.086   5.159
 5317POPC   PO467524   1.721  27.524   5.446
 5317POPC   GL167525   1.951  27.648   5.838
 5317POPC   GL267526   1.873  27.312   5.893
 5317POPC   C1A67527   2.200  27.789   6.275
 5317POPC   D2A67528   2.425  27.781   6.688
 5317POPC   C3A67529   2.230  27.702   7.076
 5317POPC   C4A67530   1.978  27.864   7.385
 5317POPC   C1B67531   2.037  27.331   6.252
 5317POPC   C2B67532   2.005  27.481   6.667
 5317POPC   C3B67533   1.893  27.312   7.070
 5317POPC   C4B67534   1.709  27.425   7.464
 5318POPC   NC367535   3.072  15.153   5.380
 5318POPC   PO467536   3.641  15.504   5.453
 5318POPC   GL167537   3.354  15.347   5.785
 5318POPC   GL267538   3.351  15.617   6.018
 5318POPC   C1A67539   3.412  15.056   6.140
 5318POPC   D2A67540   3.632  14.938   6.550
 5318POPC   C3A67541   3.405  14.993   6.962
 5318POPC   C4A67542   3.271  15.447   7.095
 5318POPC   C1B67543   3.771  15.422   6.114
 5318POPC   C2B67544   3.990  15.326   6.518
 5318POPC   C3B67545   3.788  15.327   6.926
 5318POPC   C4B67546   3.675  15.230   7.354
 5319POPC   NC367547  37.721  16.130   5.332
 5319POPC   PO467548  37.737  15.490   5.409
 5319POPC   GL167549  37.782  15.798   5.751
 5319POPC   GL267550  37.820  16.160   5.821
 5319POPC   C1A67551  37.730  15.827   6.197
 5319POPC   D2A67552  37.883  16.025   6.564
 5319POPC   C3A67553  37.637  15.786   6.860
 5319POPC   C4A67554  37.732  15.621   7.261
 5319POPC   C1B67555  37.421  16.189   6.020
 5319POPC   C2B67556  37.399  16.178   6.490
 5319POPC   C3B67557  37.591  16.278   6.921
 5319POPC   C4B67558  37.545  16.304   7.374
 5320POPC   NC367559   5.470  35.693   5.714
 5320POPC   PO467560   5.003  36.019   5.435
 5320POPC   GL167561   5.038  36.240   5.809
 5320POPC   GL267562   4.907  36.604   5.871
 5320POPC   C1A67563   5.288  36.298   6.154
 5320POPC   D2A67564   5.357  36.046   6.513
 5320POPC   C3A67565   5.151  36.131   6.898
 5320POPC   C4A67566   5.248  36.002   7.311
 5320POPC   C1B67567   4.763  36.361   6.203
 5320POPC   C2B67568   4.695  36.226   6.586
 5320POPC   C3B67569   4.726  36.413   6.956
 5320POPC   C4B67570   4.822  36.283   7.388
 5321POPC   NC367571   9.420  40.082   5.119
 5321POPC   PO467572   8.807  39.915   5.271
 5321POPC   GL167573   8.867  40.008   5.758
 5321POPC   GL267574   9.149  40.107   5.879
 5321POPC   C1A67575   8.873  40.260   6.244
 5321POPC   D2A67576   8.973  40.210   6.676
 5321POPC   C3A67577   8.627  40.188   6.955
 5321POPC   C4A67578   8.745  40.092   7.341
 5321POPC   C1B67579   9.242  39.890   6.274
 5321POPC   C2B67580   9.365  39.694   6.647
 5321POPC   C3B67581   9.393  39.959   7.009
 5321POPC   C4B67582   9.216  39.840   7.385
 5322POPC   NC367583   6.930  19.222   5.367
 5322POPC   PO467584   7.539  19.130   5.168
 5322POPC   GL167585   7.342  19.073   5.638
 5322POPC   GL267586   7.513  19.208   5.867
 5322POPC   C1A67587   7.189  18.950   6.117
 5322POPC   D2A67588   7.170  19.219   6.490
 5322POPC   C3A67589   7.141  19.063   6.889
 5322POPC   C4A67590   7.172  19.283   7.259
 5322POPC   C1B67591   7.739  19.181   6.231
 5322POPC   C2B67592   7.905  19.188   6.645
 5322POPC   C3B67593   7.629  19.213   6.962
 5322POPC   C4B67594   7.678  19.282   7.372
 5323POPC   NC367595   3.840   8.055   5.588
 5323POPC   PO467596   3.191   8.091   5.568
 5323POPC   GL167597   3.424   8.173   5.901
 5323POPC   GL267598   3.555   8.517   5.839
 5323POPC   C1A67599   3.371   8.021   6.335
 5323POPC   D2A67600   3.464   7.796   6.743
 5323POPC   C3A67601   3.320   7.957   7.118
 5323POPC   C4A67602   3.260   8.377   7.127
 5323POPC   C1B67603   3.765   8.353   6.213
 5323POPC   C2B67604   3.826   8.125   6.581
 5323POPC   C3B67605   3.749   8.211   7.001
 5323POPC   C4B67606   3.828   7.909   7.273
 5324POPC   NC367607  30.706   2.982   5.394
 5324POPC   PO467608  30.816   2.307   5.348
 5324POPC   GL167609  30.641   2.540   5.687
 5324POPC   GL267610  30.949   2.687   5.770
 5324POPC   C1A67611  30.568   2.845   6.064
 5324POPC   D2A67612  30.696   2.992   6.493
 5324POPC   C3A67613  30.590   2.761   6.894
 5324POPC   C4A67614  30.635   2.820   7.328
 5324POPC   C1B67615  31.086   2.770   6.200
 5324POPC   C2B67616  31.196   2.895   6.614
 5324POPC   C3B67617  31.076   2.814   7.030
 5324POPC   C4B67618  31.065   2.542   7.382
 5325POPC   NC367619   0.575  31.273   5.452
 5325POPC   PO467620   0.911  31.827   5.319
 5325POPC   GL167621   0.766  31.677   5.781
 5325POPC   GL267622   0.590  31.354   5.953
 5325POPC   C1A67623   0.540  31.811   6.153
 5325POPC   D2A67624   0.480  31.971   6.558
 5325POPC   C3A67625   0.473  31.638   6.836
 5325POPC   C4A67626   0.379  31.570   7.229
 5325POPC   C1B67627   0.820  31.118   6.302
 5325POPC   C2B67628   0.820  31.121   6.768
 5325POPC   C3B67629   0.544  31.111   7.141
 5325POPC   C4B67630   0.514  31.241   7.605
 5326POPC   NC367631  28.601  39.740   5.286
 5326POPC   PO467632  28.018  40.123   5.316
 5326POPC   GL167633  28.242  40.063   5.697
 5326POPC   GL267634  28.507  39.846   5.795
 5326POPC   C1A67635  28.147  39.969   6.146
 5326POPC   D2A67636  28.320  40.095   6.552
 5326POPC   C3A67637  28.125  40.035   6.956
 5326POPC   C4A67638  28.283  40.152   7.365
 5326POPC   C1B67639  28.587  39.602   6.167
 5326POPC   C2B67640  28.696  39.714   6.583
 5326POPC   C3B67641  28.618  39.913   6.960
 5326POPC   C4B67642  28.598  39.726   7.335
 5327POPC   NC367643  27.120  22.305   5.446
 5327POPC   PO467644  26.453  22.037   5.471
 5327POPC   GL167645  26.718  21.967   5.790
 5327POPC   GL267646  26.850  22.281   5.913
 5327POPC   C1A67647  26.557  21.906   6.207
 5327POPC   D2A67648  26.611  22.171   6.565
 5327POPC   C3A67649  26.689  22.047   6.982
 5327POPC   C4A67650  26.751  22.411   7.223
 5327POPC   C1B67651  27.089  22.284   6.331
 5327POPC   C2B67652  27.292  22.550   6.679
 5327POPC   C3B67653  27.297  22.415   7.114
 5327POPC   C4B67654  27.148  22.052   7.299
 5328POPC   NC367655  21.413  18.427   5.407
 5328POPC   PO467656  21.774  17.907   5.515
 5328POPC   GL167657  21.543  18.160   5.818
 5328POPC   GL267658  21.288  17.969   5.882
 5328POPC   C1A67659  21.422  18.440   6.221
 5328POPC   D2A67660  21.228  18.502   6.661
 5328POPC   C3A67661  21.330  18.266   7.070
 5328POPC   C4A67662  21.183  18.297   7.507
 5328POPC   C1B67663  21.479  17.933   6.266
 5328POPC   C2B67664  21.435  18.023   6.648
 5328POPC   C3B67665  21.635  17.832   6.999
 5328POPC   C4B67666  21.461  17.886   7.416
 5329POPC   NC367667  18.875  38.696   5.451
 5329POPC   PO467668  19.278  38.124   5.430
 5329POPC   GL167669  19.224  38.407   5.773
 5329POPC   GL267670  19.062  38.144   5.950
 5329POPC   C1A67671  18.997  38.653   6.122
 5329POPC   D2A67672  19.033  38.772   6.598
 5329POPC   C3A67673  18.852  38.545   7.016
 5329POPC   C4A67674  18.803  38.528   7.534
 5329POPC   C1B67675  19.134  38.246   6.380
 5329POPC   C2B67676  19.203  38.129   6.779
 5329POPC   C3B67677  19.230  38.262   7.183
 5329POPC   C4B67678  19.119  38.134   7.570
 5330POPC   NC367679  15.826   8.067   5.151
 5330POPC   PO467680  16.116   8.586   5.411
 5330POPC   GL167681  16.110   8.423   5.783
 5330POPC   GL267682  16.151   8.075   5.632
 5330POPC   C1A67683  15.952   8.553   6.204
 5330POPC   D2A67684  15.798   8.547   6.662
 5330POPC   C3A67685  15.976   8.348   7.068
 5330POPC   C4A67686  16.093   8.130   7.482
 5330POPC   C1B67687  15.978   7.994   6.044
 5330POPC   C2B67688  16.053   7.867   6.460
 5330POPC   C3B67689  15.889   7.878   6.853
 5330POPC   C4B67690  15.696   7.920   7.230
 5331POPC   NC367691  29.262  13.888   5.575
 5331POPC   PO467692  28.697  13.678   5.742
 5331POPC   GL167693  29.093  13.637   5.991
 5331POPC   GL267694  29.397  13.440   5.904
 5331POPC   C1A67695  29.302  13.566   6.388
 5331POPC   D2A67696  29.320  13.828   6.714
 5331POPC   C3A67697  28.974  13.778   6.951
 5331POPC   C4A67698  29.015  13.961   7.318
 5331POPC   C1B67699  29.106  13.136   6.115
 5331POPC   C2B67700  28.967  13.201   6.538
 5331POPC   C3B67701  29.178  13.276   6.891
 5331POPC   C4B67702  28.957  13.344   7.264
 5332POPC   NC367703  15.370  24.753   5.611
 5332POPC   PO467704  14.887  24.442   5.346
 5332POPC   GL167705  15.128  24.266   5.702
 5332POPC   GL267706  15.455  24.260   5.752
 5332POPC   C1A67707  15.116  24.379   6.149
 5332POPC   D2A67708  14.916  24.514   6.518
 5332POPC   C3A67709  15.088  24.641   6.891
 5332POPC   C4A67710  15.123  24.538   7.316
 5332POPC   C1B67711  15.598  24.241   6.184
 5332POPC   C2B67712  15.413  24.287   6.612
 5332POPC   C3B67713  15.252  24.147   7.033
 5332POPC   C4B67714  15.460  24.179   7.451
 5333POPC   NC367715  44.120  10.107   5.343
 5333POPC   PO467716  43.774   9.534   5.355
 5333POPC   GL167717  43.832   9.645   5.834
 5333POPC   GL267718  43.691   9.996   5.867
 5333POPC   C1A67719  43.947   9.534   6.281
 5333POPC   D2A67720  43.888   9.597   6.728
 5333POPC   C3A67721  44.281   9.603   7.000
 5333POPC   C4A67722  44.369   9.563   7.469
 5333POPC   C1B67723  43.930  10.061   6.243
 5333POPC   C2B67724  43.955  10.115   6.687
 5333POPC   C3B67725  43.728  10.094   7.058
 5333POPC   C4B67726  43.664  10.114   7.506
 5334POPC   NC367727  11.531   9.953   5.476
 5334POPC   PO467728  11.021   9.540   5.396
 5334POPC   GL167729  11.210   9.712   5.819
 5334POPC   GL267730  11.606   9.666   5.895
 5334POPC   C1A67731  11.001   9.855   6.221
 5334POPC   D2A67732  10.761   9.843   6.609
 5334POPC   C3A67733  10.953   9.634   6.919
 5334POPC   C4A67734  11.007   9.739   7.350
 5334POPC   C1B67735  11.511   9.891   6.289
 5334POPC   C2B67736  11.414   9.768   6.724
 5334POPC   C3B67737  11.448   9.863   7.178
 5334POPC   C4B67738  11.407   9.627   7.622
 5335POPC   NC367739   3.184  30.793   5.459
 5335POPC   PO467740   2.562  30.733   5.147
 5335POPC   GL167741   2.678  30.705   5.615
 5335POPC   GL267742   2.853  30.989   5.778
 5335POPC   C1A67743   2.566  30.710   6.092
 5335POPC   D2A67744   2.587  30.465   6.488
 5335POPC   C3A67745   2.526  30.700   6.878
 5335POPC   C4A67746   2.650  30.631   7.303
 5335POPC   C1B67747   3.090  30.925   6.165
 5335POPC   C2B67748   2.847  30.988   6.569
 5335POPC   C3B67749   3.024  30.872   7.010
 5335POPC   C4B67750   3.125  30.862   7.472
 5336POPC   NC367751  40.230   0.174   5.652
 5336POPC   PO467752  40.105  44.554   5.330
 5336POPC   GL167753  39.976  44.697   5.793
 5336POPC   GL267754  39.806   0.022   5.877
 5336POPC   C1A67755  40.061  44.765   6.272
 5336POPC   D2A67756  40.242  44.809   6.723
 5336POPC   C3A67757  40.091  44.530   7.057
 5336POPC   C4A67758  40.089  44.558   7.514
 5336POPC   C1B67759  39.561   0.012   6.266
 5336POPC   C2B67760  39.642  44.909   6.707
 5336POPC   C3B67761  39.767  44.931   7.145
 5336POPC   C4B67762  40.180   0.003   7.254
 5337POPC   NC367763  27.036   6.806   5.300
 5337POPC   PO467764  26.405   6.836   5.338
 5337POPC   GL167765  26.730   6.800   5.726
 5337POPC   GL267766  27.004   6.569   5.821
 5337POPC   C1A67767  26.685   6.710   6.199
 5337POPC   D2A67768  26.482   6.771   6.624
 5337POPC   C3A67769  26.712   6.596   7.003
 5337POPC   C4A67770  26.885   6.740   7.420
 5337POPC   C1B67771  27.026   6.315   6.184
 5337POPC   C2B67772  26.880   6.325   6.597
 5337POPC   C3B67773  27.095   6.256   6.989
 5337POPC   C4B67774  26.969   6.246   7.403
 5338POPC   NC367775  31.031  32.190   5.387
 5338POPC   PO467776  30.335  32.330   5.364
 5338POPC   GL167777  30.618  32.123   5.676
 5338POPC   GL267778  30.794  32.418   5.787
 5338POPC   C1A67779  30.612  32.015   6.122
 5338POPC   D2A67780  30.439  31.820   6.516
 5338POPC   C3A67781  30.526  32.065   6.873
 5338POPC   C4A67782  30.441  32.305   7.243
 5338POPC   C1B67783  30.922  32.501   6.206
 5338POPC   C2B67784  31.013  32.389   6.634
 5338POPC   C3B67785  30.920  32.342   7.070
 5338POPC   C4B67786  31.111  32.431   7.458
 5339POPC   NC367787  14.963  14.710   5.582
 5339POPC   PO467788  15.331  15.281   5.577
 5339POPC   GL167789  15.129  15.150   5.908
 5339POPC   GL267790  15.253  14.833   5.975
 5339POPC   C1A67791  15.153  15.293   6.313
 5339POPC   D2A67792  15.507  15.284   6.564
 5339POPC   C3A67793  15.356  15.272   6.984
 5339POPC   C4A67794  15.022  15.160   7.247
 5339POPC   C1B67795  15.295  14.807   6.414
 5339POPC   C2B67796  15.421  14.778   6.826
 5339POPC   C3B67797  15.566  14.833   7.222
 5339POPC   C4B67798  15.570  15.020   7.620
 5340POPC   NC367799   6.065  42.468   5.340
 5340POPC   PO467800   5.530  42.072   5.497
 5340POPC   GL167801   5.873  42.201   5.766
 5340POPC   GL267802   6.222  42.046   5.686
 5340POPC   C1A67803   5.789  42.450   6.165
 5340POPC   D2A67804   5.647  42.641   6.549
 5340POPC   C3A67805   5.731  42.413   6.890
 5340POPC   C4A67806   5.926  42.503   7.247
 5340POPC   C1B67807   6.268  42.295   6.096
 5340POPC   C2B67808   6.095  42.214   6.537
 5340POPC   C3B67809   6.160  42.146   6.980
 5340POPC   C4B67810   6.307  42.221   7.417
 5341POPC   NC367811  34.025   9.971   5.337
 5341POPC   PO467812  33.543   9.428   5.451
 5341POPC   GL167813  33.735   9.706   5.740
 5341POPC   GL267814  33.588  10.038   5.786
 5341POPC   C1A67815  33.895   9.627   6.144
 5341POPC   D2A67816  33.707   9.736   6.542
 5341POPC   C3A67817  33.861   9.910   6.918
 5341POPC   C4A67818  33.842   9.773   7.345
 5341POPC   C1B67819  33.804  10.109   6.183
 5341POPC   C2B67820  34.143  10.031   6.497
 5341POPC   C3B67821  34.279  10.236   6.892
 5341POPC   C4B67822  34.130  10.202   7.293
 5342POPC   NC367823  30.835   3.832   5.389
 5342POPC   PO467824  30.360   3.293   5.395
 5342POPC   GL167825  30.696   3.426   5.684
 5342POPC   GL267826  30.476   3.758   5.743
 5342POPC   C1A67827  30.943   3.244   6.082
 5342POPC   D2A67828  31.034   3.371   6.554
 5342POPC   C3A67829  30.782   3.228   6.961
 5342POPC   C4A67830  30.628   3.333   7.438
 5342POPC   C1B67831  30.614   3.615   6.167
 5342POPC   C2B67832  30.557   3.551   6.617
 5342POPC   C3B67833  30.619   3.701   7.050
 5342POPC   C4B67834  30.428   3.831   7.424
 5343POPC   NC367835  32.278  23.899   5.614
 5343POPC   PO467836  31.793  23.449   5.563
 5343POPC   GL167837  32.078  23.309   5.927
 5343POPC   GL267838  32.386  23.495   5.956
 5343POPC   C1A67839  32.255  23.273   6.400
 5343POPC   D2A67840  32.368  23.506   6.808
 5343POPC   C3A67841  32.027  23.760   6.973
 5343POPC   C4A67842  31.991  24.106   7.262
 5343POPC   C1B67843  32.548  23.731   6.327
 5343POPC   C2B67844  32.427  24.003   6.675
 5343POPC   C3B67845  32.487  23.980   7.116
 5343POPC   C4B67846  32.746  23.684   7.294
 5344POPC   NC367847  22.447  28.894   5.659
 5344POPC   PO467848  22.162  29.518   5.515
 5344POPC   GL167849  22.213  29.307   5.874
 5344POPC   GL267850  22.554  29.425   5.905
 5344POPC   C1A67851  22.008  29.061   6.205
 5344POPC   D2A67852  21.992  29.002   6.639
 5344POPC   C3A67853  21.724  29.062   6.949
 5344POPC   C4A67854  21.784  29.054   7.349
 5344POPC   C1B67855  22.603  29.323   6.325
 5344POPC   C2B67856  22.483  28.987   6.561
 5344POPC   C3B67857  22.377  29.024   7.003
 5344POPC   C4B67858  22.422  29.388   7.244
 5345POPC   NC367859  30.393  10.945   5.650
 5345POPC   PO467860  30.684  10.444   5.271
 5345POPC   GL167861  30.620  10.477   5.727
 5345POPC   GL267862  30.479  10.209   5.938
 5345POPC   C1A67863  30.783  10.568   6.153
 5345POPC   D2A67864  30.667  10.585   6.593
 5345POPC   C3A67865  30.952  10.753   6.888
 5345POPC   C4A67866  30.836  11.052   7.177
 5345POPC   C1B67867  30.554  10.130   6.395
 5345POPC   C2B67868  30.711  10.134   6.844
 5345POPC   C3B67869  30.550  10.228   7.251
 5345POPC   C4B67870  30.343  10.502   7.589
 5346POPC   NC367871  14.731   2.820   5.513
 5346POPC   PO467872  14.400   2.370   5.144
 5346POPC   GL167873  14.424   2.434   5.682
 5346POPC   GL267874  14.354   2.807   5.858
 5346POPC   C1A67875  14.526   2.471   6.178
 5346POPC   D2A67876  14.352   2.769   6.502
 5346POPC   C3A67877  14.461   2.773   6.949
 5346POPC   C4A67878  14.273   2.693   7.340
 5346POPC   C1B67879  14.606   3.086   6.175
 5346POPC   C2B67880  14.727   3.092   6.627
 5346POPC   C3B67881  14.618   3.262   7.039
 5346POPC   C4B67882  14.612   3.086   7.453
 5347POPC   NC367883  32.570  32.966   5.404
 5347POPC   PO467884  31.988  32.694   5.329
 5347POPC   GL167885  32.082  32.868   5.727
 5347POPC   GL267886  32.237  33.186   5.778
 5347POPC   C1A67887  32.145  32.779   6.172
 5347POPC   D2A67888  32.142  33.024   6.554
 5347POPC   C3A67889  32.143  32.793   6.910
 5347POPC   C4A67890  32.088  32.699   7.308
 5347POPC   C1B67891  32.463  33.269   6.193
 5347POPC   C2B67892  32.540  33.377   6.648
 5347POPC   C3B67893  32.448  33.181   7.055
 5347POPC   C4B67894  32.252  33.149   7.458
 5348POPC   NC367895   0.086   3.641   5.419
 5348POPC   PO467896  44.475   3.324   5.481
 5348POPC   GL167897  44.647   3.564   5.818
 5348POPC   GL267898  44.950   3.757   5.882
 5348POPC   C1A67899  44.531   3.619   6.253
 5348POPC   D2A67900  44.350   3.377   6.606
 5348POPC   C3A67901  44.496   3.476   7.018
 5348POPC   C4A67902  44.502   3.111   7.266
 5348POPC   C1B67903  44.939   3.962   6.281
 5348POPC   C2B67904  44.794   3.798   6.667
 5348POPC   C3B67905  44.924   3.783   7.083
 5348POPC   C4B67906  44.981   4.112   7.385
 5349POPC   NC367907  15.939  28.867   5.072
 5349POPC   PO467908  16.096  29.309   5.547
 5349POPC   GL167909  15.968  29.095   5.909
 5349POPC   GL267910  16.303  28.990   5.955
 5349POPC   C1A67911  15.957  28.821   6.302
 5349POPC   D2A67912  15.744  28.778   6.718
 5349POPC   C3A67913  15.766  29.124   7.005
 5349POPC   C4A67914  15.863  29.047   7.434
 5349POPC   C1B67915  16.254  29.263   6.304
 5349POPC   C2B67916  16.212  29.070   6.720
 5349POPC   C3B67917  16.285  29.138   7.149
 5349POPC   C4B67918  16.385  29.135   7.595
 5350POPC   NC367919  35.293  15.626   5.303
 5350POPC   PO467920  35.068  16.157   5.723
 5350POPC   GL167921  35.272  16.009   6.004
 5350POPC   GL267922  35.465  15.775   5.859
 5350POPC   C1A67923  35.392  16.218   6.333
 5350POPC   D2A67924  35.409  16.056   6.675
 5350POPC   C3A67925  35.181  16.189   6.976
 5350POPC   C4A67926  35.364  16.371   7.279
 5350POPC   C1B67927  35.685  15.810   6.257
 5350POPC   C2B67928  35.919  15.949   6.599
 5350POPC   C3B67929  35.780  15.995   7.005
 5350POPC   C4B67930  35.447  15.847   7.245
 5351POPC   NC367931   2.956  35.598   5.378
 5351POPC   PO467932   2.981  34.954   5.501
 5351POPC   GL167933   2.668  35.164   5.697
 5351POPC   GL267934   2.746  35.479   5.825
 5351POPC   C1A67935   2.551  35.129   6.141
 5351POPC   D2A67936   2.862  35.279   6.452
 5351POPC   C3A67937   2.752  35.263   6.880
 5351POPC   C4A67938   2.694  35.032   7.256
 5351POPC   C1B67939   2.514  35.659   6.168
 5351POPC   C2B67940   2.639  35.730   6.591
 5351POPC   C3B67941   2.791  35.771   7.015
 5351POPC   C4B67942   2.989  35.501   7.278
 5352POPC   NC367943  40.831  33.383   5.510
 5352POPC   PO467944  40.710  34.000   5.336
 5352POPC   GL167945  40.992  33.897   5.649
 5352POPC   GL267946  40.705  33.772   5.827
 5352POPC   C1A67947  41.112  33.922   6.098
 5352POPC   D2A67948  40.909  33.849   6.485
 5352POPC   C3A67949  40.995  34.041   6.894
 5352POPC   C4A67950  41.096  33.917   7.279
 5352POPC   C1B67951  40.468  33.708   6.197
 5352POPC   C2B67952  40.486  33.620   6.643
 5352POPC   C3B67953  40.468  33.623   7.071
 5352POPC   C4B67954  40.590  33.886   7.386
 5353POPC   NC367955  25.498  42.252   5.549
 5353POPC   PO467956  24.914  42.567   5.389
 5353POPC   GL167957  25.152  42.526   5.790
 5353POPC   GL267958  25.147  42.187   5.903
 5353POPC   C1A67959  25.346  42.550   6.192
 5353POPC   D2A67960  25.233  42.382   6.565
 5353POPC   C3A67961  25.308  42.539   6.963
 5353POPC   C4A67962  25.595  42.472   7.257
 5353POPC   C1B67963  25.452  42.038   6.199
 5353POPC   C2B67964  25.418  41.905   6.607
 5353POPC   C3B67965  25.233  42.032   6.966
 5353POPC   C4B67966  25.246  41.746   7.268
 5354POPC   NC367967   2.971  25.818   5.333
 5354POPC   PO467968   2.362  25.988   5.384
 5354POPC   GL167969   2.691  26.073   5.719
 5354POPC   GL267970   2.519  25.822   5.927
 5354POPC   C1A67971   2.797  26.251   6.171
 5354POPC   D2A67972   2.765  26.237   6.632
 5354POPC   C3A67973   2.930  26.191   7.059
 5354POPC   C4A67974   2.595  26.141   7.388
 5354POPC   C1B67975   2.876  25.758   6.213
 5354POPC   C2B67976   2.924  25.774   6.642
 5354POPC   C3B67977   2.657  25.799   6.964
 5354POPC   C4B67978   2.745  25.653   7.364
 5355POPC   NC367979   4.403  34.478   5.091
 5355POPC   PO467980   4.319  33.917   5.444
 5355POPC   GL167981   4.293  33.660   5.785
 5355POPC   GL267982   4.651  33.530   5.771
 5355POPC   C1A67983   4.075  33.748   6.195
 5355POPC   D2A67984   4.003  33.964   6.620
 5355POPC   C3A67985   4.106  33.745   7.014
 5355POPC   C4A67986   4.133  33.761   7.477
 5355POPC   C1B67987   4.594  33.811   6.147
 5355POPC   C2B67988   4.430  33.664   6.549
 5355POPC   C3B67989   4.625  33.589   6.930
 5355POPC   C4B67990   4.560  33.870   7.261
 5356POPC   NC367991   2.176  37.181   5.553
 5356POPC   PO467992   1.825  36.558   5.409
 5356POPC   GL167993   1.859  36.818   5.784
 5356POPC   GL267994   2.198  36.748   5.872
 5356POPC   C1A67995   1.827  36.892   6.242
 5356POPC   D2A67996   1.788  37.094   6.634
 5356POPC   C3A67997   1.846  36.791   6.958
 5356POPC   C4A67998   2.239  36.647   7.160
 5356POPC   C1B67999   2.300  37.054   6.210
 5356POPC   C2B68000   2.281  36.936   6.637
 5356POPC   C3B68001   2.190  37.165   6.982
 5356POPC   C4B68002   2.463  37.275   7.249
 5357POPC   NC368003  13.678  31.771   5.402
 5357POPC   PO468004  13.184  31.233   5.464
 5357POPC   GL168005  13.351  31.561   5.766
 5357POPC   GL268006  13.725  31.594   5.879
 5357POPC   C1A68007  13.366  31.483   6.210
 5357POPC   D2A68008  13.585  31.544   6.597
 5357POPC   C3A68009  13.556  31.179   6.874
 5357POPC   C4A68010  13.232  31.140   7.183
 5357POPC   C1B68011  14.007  31.661   6.264
 5357POPC   C2B68012  13.992  31.832   6.694
 5357POPC   C3B68013  13.695  31.769   7.069
 5357POPC   C4B68014  13.831  31.792   7.503
 5358POPC   NC368015  37.470   1.911   5.590
 5358POPC   PO468016  37.791   2.445   5.409
 5358POPC   GL168017  37.812   2.226   5.841
 5358POPC   GL268018  37.859   1.843   5.888
 5358POPC   C1A68019  37.719   2.076   6.294
 5358POPC   D2A68020  37.712   1.815   6.621
 5358POPC   C3A68021  37.645   2.031   6.960
 5358POPC   C4A68022  37.604   1.915   7.327
 5358POPC   C1B68023  37.510   1.611   6.172
 5358POPC   C2B68024  37.249   1.598   6.532
 5358POPC   C3B68025  37.369   1.573   6.949
 5358POPC   C4B68026  37.148   1.654   7.351
 5359POPC   NC368027   7.108  28.992   5.033
 5359POPC   PO468028   7.706  29.103   5.167
 5359POPC   GL168029   7.409  29.283   5.621
 5359POPC   GL268030   7.654  29.457   5.890
 5359POPC   C1A68031   7.252  29.219   6.108
 5359POPC   D2A68032   7.106  29.401   6.575
 5359POPC   C3A68033   7.164  29.156   6.996
 5359POPC   C4A68034   7.257  28.957   7.423
 5359POPC   C1B68035   7.776  29.265   6.284
 5359POPC   C2B68036   7.585  29.187   6.665
 5359POPC   C3B68037   7.668  29.103   7.072
 5359POPC   C4B68038   7.702  29.249   7.475
 5360POPC   NC368039  23.499  33.820   5.212
 5360POPC   PO468040  23.851  33.231   5.351
 5360POPC   GL168041  23.819  33.676   5.624
 5360POPC   GL268042  23.493  33.870   5.708
 5360POPC   C1A68043  23.879  33.891   6.076
 5360POPC   D2A68044  23.850  34.049   6.555
 5360POPC   C3A68045  23.584  33.799   6.870
 5360POPC   C4A68046  23.367  33.579   7.231
 5360POPC   C1B68047  23.396  34.129   6.041
 5360POPC   C2B68048  23.341  34.138   6.462
 5360POPC   C3B68049  23.318  34.232   6.863
 5360POPC   C4B68050  23.421  34.097   7.265
 5361POPC   NC368051  16.858  44.161   5.358
 5361POPC   PO468052  16.293  43.930   5.601
 5361POPC   GL168053  16.774  43.812   5.737
 5361POPC   GL268054  16.998  43.489   5.753
 5361POPC   C1A68055  16.983  43.924   6.122
 5361POPC   D2A68056  16.850  44.136   6.490
 5361POPC   C3A68057  16.796  43.952   6.867
 5361POPC   C4A68058  17.043  43.832   7.192
 5361POPC   C1B68059  16.784  43.434   6.161
 5361POPC   C2B68060  16.882  43.465   6.618
 5361POPC   C3B68061  16.693  43.492   7.044
 5361POPC   C4B68062  16.463  43.837   7.257
 5362POPC   NC368063  12.473  10.287   5.437
 5362POPC   PO468064  11.977   9.828   5.442
 5362POPC   GL168065  12.127   9.895   5.842
 5362POPC   GL268066  12.361  10.164   5.932
 5362POPC   C1A68067  12.038   9.719   6.237
 5362POPC   D2A68068  11.911   9.902   6.613
 5362POPC   C3A68069  11.853   9.655   6.957
 5362POPC   C4A68070  11.814   9.506   7.366
 5362POPC   C1B68071  12.554   9.898   6.254
 5362POPC   C2B68072  12.468   9.590   6.567
 5362POPC   C3B68073  12.361   9.644   6.979
 5362POPC   C4B68074  12.167   9.876   7.317
 5363POPC   NC368075  27.347   4.412   5.396
 5363POPC   PO468076  27.760   3.850   5.280
 5363POPC   GL168077  27.565   4.056   5.665
 5363POPC   GL268078  27.181   4.030   5.741
 5363POPC   C1A68079  27.647   4.081   6.106
 5363POPC   D2A68080  27.914   4.294   6.400
 5363POPC   C3A68081  27.692   4.347   6.754
 5363POPC   C4A68082  27.763   4.301   7.178
 5363POPC   C1B68083  27.195   4.347   6.085
 5363POPC   C2B68084  27.193   4.262   6.536
 5363POPC   C3B68085  27.299   4.096   6.946
 5363POPC   C4B68086  27.289   4.183   7.381
 5364POPC   NC368087  17.626  27.270   5.539
 5364POPC   PO468088  17.521  26.627   5.382
 5364POPC   GL168089  17.484  26.823   5.790
 5364POPC   GL268090  17.780  26.950   5.896
 5364POPC   C1A68091  17.485  26.650   6.187
 5364POPC   D2A68092  17.472  26.704   6.617
 5364POPC   C3A68093  17.670  26.443   6.911
 5364POPC   C4A68094  17.555  26.585   7.309
 5364POPC   C1B68095  17.806  27.022   6.309
 5364POPC   C2B68096  17.635  27.177   6.638
 5364POPC   C3B68097  17.713  26.973   6.994
 5364POPC   C4B68098  17.661  27.110   7.359
 5365POPC   NC368099   2.865  32.369   5.210
 5365POPC   PO468100   2.544  31.955   5.627
 5365POPC   GL168101   2.910  32.118   5.839
 5365POPC   GL268102   2.947  31.822   5.981
 5365POPC   C1A68103   2.978  32.364   6.236
 5365POPC   D2A68104   2.671  32.499   6.533
 5365POPC   C3A68105   2.748  32.404   6.954
 5365POPC   C4A68106   2.712  32.497   7.391
 5365POPC   C1B68107   2.662  31.947   6.280
 5365POPC   C2B68108   2.813  31.987   6.664
 5365POPC   C3B68109   2.686  31.768   7.011
 5365POPC   C4B68110   2.923  32.025   7.262
 5366POPC   NC368111  15.038  23.296   5.536
 5366POPC   PO468112  15.190  22.754   5.133
 5366POPC   GL168113  15.483  22.857   5.606
 5366POPC   GL268114  15.513  23.216   5.759
 5366POPC   C1A68115  15.391  22.890   6.128
 5366POPC   D2A68116  15.019  22.897   6.449
 5366POPC   C3A68117  15.148  22.992   6.887
 5366POPC   C4A68118  15.450  23.180   7.153
 5366POPC   C1B68119  15.299  23.387   6.154
 5366POPC   C2B68120  15.077  23.406   6.545
 5366POPC   C3B68121  14.722  23.266   6.786
 5366POPC   C4B68122  14.668  22.925   7.099
 5367POPC   NC368123  32.002  14.546   5.434
 5367POPC   PO468124  32.481  14.074   5.360
 5367POPC   GL168125  32.294  14.246   5.761
 5367POPC   GL268126  31.922  14.138   5.763
 5367POPC   C1A68127  32.331  14.545   6.139
 5367POPC   D2A68128  32.562  14.658   6.547
 5367POPC   C3A68129  32.444  14.470   6.964
 5367POPC   C4A68130  32.242  14.638   7.354
 5367POPC   C1B68131  31.927  14.174   6.199
 5367POPC   C2B68132  32.075  14.395   6.567
 5367POPC   C3B68133  31.941  14.425   6.987
 5367POPC   C4B68134  32.019  14.196   7.366
 5368POPC   NC368135  19.245  13.736   5.419
 5368POPC   PO468136  18.869  13.194   5.431
 5368POPC   GL168137  18.965  13.531   5.817
 5368POPC   GL268138  19.178  13.866   5.885
 5368POPC   C1A68139  18.821  13.724   6.230
 5368POPC   D2A68140  18.742  13.850   6.666
 5368POPC   C3A68141  18.910  13.572   6.941
 5368POPC   C4A68142  19.167  13.571   7.299
 5368POPC   C1B68143  19.368  13.718   6.201
 5368POPC   C2B68144  19.246  13.720   6.591
 5368POPC   C3B68145  19.357  13.892   6.964
 5368POPC   C4B68146  19.611  13.824   7.367
 5369POPC   NC368147   7.055  40.655   5.366
 5369POPC   PO468148   7.672  40.835   5.475
 5369POPC   GL168149   7.329  40.814   5.787
 5369POPC   GL268150   7.383  40.479   5.806
 5369POPC   C1A68151   7.148  40.676   6.217
 5369POPC   D2A68152   7.078  40.453   6.655
 5369POPC   C3A68153   7.324  40.633   7.002
 5369POPC   C4A68154   7.539  41.020   7.209
 5369POPC   C1B68155   7.732  40.648   6.125
 5369POPC   C2B68156   7.912  40.538   6.590
 5369POPC   C3B68157   7.813  40.499   7.076
 5369POPC   C4B68158   7.563  40.554   7.458
 5370POPC   NC368159  25.622  31.922   5.397
 5370POPC   PO468160  25.198  32.365   5.426
 5370POPC   GL168161  25.422  32.227   5.801
 5370POPC   GL268162  25.363  31.904   5.841
 5370POPC   C1A68163  25.351  32.228   6.260
 5370POPC   D2A68164  25.318  32.459   6.621
 5370POPC   C3A68165  25.281  32.260   7.016
 5370POPC   C4A68166  25.223  32.457   7.438
 5370POPC   C1B68167  25.003  31.895   6.103
 5370POPC   C2B68168  25.014  31.888   6.567
 5370POPC   C3B68169  25.154  31.760   7.015
 5370POPC   C4B68170  25.288  31.951   7.424
 5371POPC   NC368171  18.283  27.703   4.922
 5371POPC   PO468172  17.933  27.606   5.490
 5371POPC   GL168173  18.153  27.626   5.830
 5371POPC   GL268174  17.918  27.838   5.934
 5371POPC   C1A68175  18.367  27.708   6.222
 5371POPC   D2A68176  18.626  27.459   6.474
 5371POPC   C3A68177  18.485  27.560   6.853
 5371POPC   C4A68178  18.368  27.529   7.235
 5371POPC   C1B68179  17.867  27.518   6.246
 5371POPC   C2B68180  18.024  27.488   6.660
 5371POPC   C3B68181  17.897  27.458   7.079
 5371POPC   C4B68182  18.008  27.434   7.569
 5372POPC   NC368183  15.819  27.928   5.395
 5372POPC   PO468184  16.188  27.326   5.539
 5372POPC   GL168185  16.063  27.569   5.879
 5372POPC   GL268186  16.398  27.737   5.908
 5372POPC   C1A68187  15.849  27.654   6.296
 5372POPC   D2A68188  16.014  27.408   6.683
 5372POPC   C3A68189  15.735  27.494   7.006
 5372POPC   C4A68190  15.499  27.833   7.118
 5372POPC   C1B68191  16.311  27.819   6.354
 5372POPC   C2B68192  16.142  27.887   6.774
 5372POPC   C3B68193  16.215  27.619   7.158
 5372POPC   C4B68194  16.290  27.711   7.584
 5373POPC   NC368195   5.756  39.549   5.432
 5373POPC   PO468196   5.360  40.104   5.208
 5373POPC   GL168197   5.524  39.980   5.642
 5373POPC   GL268198   5.889  40.069   5.693
 5373POPC   C1A68199   5.605  39.911   6.086
 5373POPC   D2A68200   5.705  40.141   6.473
 5373POPC   C3A68201   5.935  39.936   6.812
 5373POPC   C4A68202   5.770  39.846   7.212
 5373POPC   C1B68203   6.089  40.128   6.116
 5373POPC   C2B68204   6.153  40.415   6.491
 5373POPC   C3B68205   6.264  40.390   6.931
 5373POPC   C4B68206   6.207  40.124   7.258
 5374POPC   NC368207   5.165   4.141   5.340
 5374POPC   PO468208   4.900   4.656   5.503
 5374POPC   GL168209   5.248   4.527   5.784
 5374POPC   GL268210   5.213   4.187   5.833
 5374POPC   C1A68211   5.436   4.438   6.206
 5374POPC   D2A68212   5.212   4.328   6.590
 5374POPC   C3A68213   5.247   4.526   7.004
 5374POPC   C4A68214   4.893   4.582   7.254
 5374POPC   C1B68215   5.098   3.975   6.224
 5374POPC   C2B68216   5.226   3.807   6.612
 5374POPC   C3B68217   5.259   4.017   7.001
 5374POPC   C4B68218   5.196   4.206   7.426
 5375POPC   NC368219  12.171   6.675   5.119
 5375POPC   PO468220  11.846   6.925   5.663
 5375POPC   GL168221  12.048   6.572   5.925
 5375POPC   GL268222  12.342   6.422   5.847
 5375POPC   C1A68223  12.285   6.641   6.323
 5375POPC   D2A68224  12.308   6.412   6.699
 5375POPC   C3A68225  12.164   6.718   6.964
 5375POPC   C4A68226  12.087   6.961   7.309
 5375POPC   C1B68227  12.108   6.179   6.241
 5375POPC   C2B68228  11.982   6.035   6.664
 5375POPC   C3B68229  11.912   6.262   7.067
 5375POPC   C4B68230  12.160   6.453   7.410
 5376POPC   NC368231  19.276  31.418   5.481
 5376POPC   PO468232  18.996  32.002   5.363
 5376POPC   GL168233  18.946  31.729   5.785
 5376POPC   GL268234  19.025  31.379   5.928
 5376POPC   C1A68235  18.914  31.735   6.265
 5376POPC   D2A68236  18.914  31.644   6.689
 5376POPC   C3A68237  18.746  31.284   6.852
 5376POPC   C4A68238  18.868  31.273   7.266
 5376POPC   C1B68239  18.977  31.183   6.361
 5376POPC   C2B68240  19.252  31.223   6.721
 5376POPC   C3B68241  19.396  31.651   6.840
 5376POPC   C4B68242  19.195  31.770   7.204
 5377POPC   NC368243  24.762   0.158   5.456
 5377POPC   PO468244  24.279   0.639   5.575
 5377POPC   GL168245  24.465   0.353   5.856
 5377POPC   GL268246  24.212   0.135   5.945
 5377POPC   C1A68247  24.639   0.456   6.265
 5377POPC   D2A68248  24.882   0.474   6.630
 5377POPC   C3A68249  24.674   0.463   7.005
 5377POPC   C4A68250  24.353   0.443   7.269
 5377POPC   C1B68251  24.143   0.296   6.371
 5377POPC   C2B68252  24.069   0.352   6.834
 5377POPC   C3B68253  24.103   0.016   7.140
 5377POPC   C4B68254  24.269   0.046   7.568
 5378POPC   NC368255  26.849  31.199   5.454
 5378POPC   PO468256  26.745  31.844   5.489
 5378POPC   GL168257  26.843  31.622   5.837
 5378POPC   GL268258  27.042  31.880   6.001
 5378POPC   C1A68259  26.789  31.253   6.139
 5378POPC   D2A68260  26.823  31.158   6.593
 5378POPC   C3A68261  27.106  31.482   6.765
 5378POPC   C4A68262  27.106  31.716   7.169
 5378POPC   C1B68263  26.740  31.728   6.350
 5378POPC   C2B68264  26.490  31.509   6.695
 5378POPC   C3B68265  26.519  31.306   7.116
 5378POPC   C4B68266  26.699  31.456   7.522
 5379POPC   NC368267   4.622  41.833   5.489
 5379POPC   PO468268   5.134  41.413   5.477
 5379POPC   GL168269   5.119  41.536   5.871
 5379POPC   GL268270   4.769  41.435   5.926
 5379POPC   C1A68271   5.336  41.738   6.206
 5379POPC   D2A68272   5.484  41.570   6.593
 5379POPC   C3A68273   5.312  41.569   6.987
 5379POPC   C4A68274   5.398  41.734   7.336
 5379POPC   C1B68275   4.854  41.611   6.315
 5379POPC   C2B68276   4.909  41.523   6.703
 5379POPC   C3B68277   4.834  41.850   6.976
 5379POPC   C4B68278   4.599  41.935   7.306
 5380POPC   NC368279  10.186  39.539   5.392
 5380POPC   PO468280  10.737  39.024   5.373
 5380POPC   GL168281  10.466  39.095   5.716
 5380POPC   GL268282  10.515  39.428   5.769
 5380POPC   C1A68283  10.478  39.054   6.154
 5380POPC   D2A68284  10.428  39.321   6.490
 5380POPC   C3A68285  10.646  39.204   6.869
 5380POPC   C4A68286  10.504  39.394   7.251
 5380POPC   C1B68287  10.758  39.511   6.123
 5380POPC   C2B68288  10.897  39.536   6.552
 5380POPC   C3B68289  10.839  39.677   6.952
 5380POPC   C4B68290  10.962  39.588   7.385
 5381POPC   NC368291  25.300   9.524   5.544
 5381POPC   PO468292  25.109  10.153   5.399
 5381POPC   GL168293  25.312  10.016   5.759
 5381POPC   GL268294  25.036   9.851   5.890
 5381POPC   C1A68295  25.565   9.879   6.095
 5381POPC   D2A68296  25.493   9.601   6.422
 5381POPC   C3A68297  25.281   9.694   6.812
 5381POPC   C4A68298  25.309   9.541   7.239
 5381POPC   C1B68299  25.007   9.727   6.323
 5381POPC   C2B68300  24.783   9.741   6.725
 5381POPC   C3B68301  24.864   9.797   7.159
 5381POPC   C4B68302  24.718   9.629   7.549
 5382POPC   NC368303  34.752   2.014   5.376
 5382POPC   PO468304  34.121   1.726   5.407
 5382POPC   GL168305  34.456   1.737   5.693
 5382POPC   GL268306  34.416   2.111   5.742
 5382POPC   C1A68307  34.485   1.805   6.145
 5382POPC   D2A68308  34.310   1.897   6.547
 5382POPC   C3A68309  34.536   1.881   6.894
 5382POPC   C4A68310  34.532   1.728   7.290
 5382POPC   C1B68311  34.569   2.385   6.061
 5382POPC   C2B68312  34.590   2.331   6.478
 5382POPC   C3B68313  34.582   2.399   6.881
 5382POPC   C4B68314  34.542   2.219   7.312
 5383POPC   NC368315  41.998  26.046   5.313
 5383POPC   PO468316  42.539  25.695   5.474
 5383POPC   GL168317  42.376  26.082   5.671
 5383POPC   GL268318  42.668  26.241   5.752
 5383POPC   C1A68319  42.230  26.147   6.115
 5383POPC   D2A68320  42.289  25.783   6.435
 5383POPC   C3A68321  42.287  25.746   6.894
 5383POPC   C4A68322  42.115  25.928   7.263
 5383POPC   C1B68323  42.698  25.963   6.109
 5383POPC   C2B68324  42.708  26.099   6.530
 5383POPC   C3B68325  42.484  26.209   6.899
 5383POPC   C4B68326  42.613  26.032   7.257
 5384POPC   NC368327  25.250  40.550   5.478
 5384POPC   PO468328  25.173  41.140   5.254
 5384POPC   GL168329  25.158  40.989   5.725
 5384POPC   GL268330  24.945  40.711   5.867
 5384POPC   C1A68331  25.285  41.023   6.150
 5384POPC   D2A68332  25.360  40.727   6.464
 5384POPC   C3A68333  25.324  40.844   6.891
 5384POPC   C4A68334  25.403  40.726   7.321
 5384POPC   C1B68335  24.864  40.776   6.325
 5384POPC   C2B68336  24.928  40.540   6.713
 5384POPC   C3B68337  24.939  40.554   7.172
 5384POPC   C4B68338  25.203  40.274   7.458
 5385POPC   NC368339  18.915  39.473   5.287
 5385POPC   PO468340  19.318  38.887   5.420
 5385POPC   GL168341  19.010  39.105   5.750
 5385POPC   GL268342  18.911  39.476   5.801
 5385POPC   C1A68343  18.933  39.154   6.225
 5385POPC   D2A68344  18.979  39.329   6.643
 5385POPC   C3A68345  18.775  39.050   6.954
 5385POPC   C4A68346  18.998  38.931   7.321
 5385POPC   C1B68347  19.112  39.638   6.183
 5385POPC   C2B68348  19.434  39.668   6.506
 5385POPC   C3B68349  19.398  39.527   6.919
 5385POPC   C4B68350  19.046  39.430   7.164
 5386POPC   NC368351   9.201   7.492   5.472
 5386POPC   PO468352   8.621   7.195   5.328
 5386POPC   GL168353   8.772   7.222   5.779
 5386POPC   GL268354   8.835   7.580   5.871
 5386POPC   C1A68355   8.760   7.177   6.250
 5386POPC   D2A68356   8.777   7.502   6.592
 5386POPC   C3A68357   8.814   7.399   7.042
 5386POPC   C4A68358   8.875   7.391   7.519
 5386POPC   C1B68359   9.157   7.509   6.186
 5386POPC   C2B68360   9.230   7.203   6.502
 5386POPC   C3B68361   9.292   7.361   6.892
 5386POPC   C4B68362   9.233   7.630   7.251
 5387POPC   NC368363  10.259  13.026   5.582
 5387POPC   PO468364  10.855  12.822   5.450
 5387POPC   GL168365  10.639  12.748   5.850
 5387POPC   GL268366  10.344  12.919   6.058
 5387POPC   C1A68367  10.755  12.780   6.279
 5387POPC   D2A68368  10.423  12.894   6.596
 5387POPC   C3A68369  10.581  12.935   6.997
 5387POPC   C4A68370  10.609  12.954   7.434
 5387POPC   C1B68371  10.591  13.268   6.308
 5387POPC   C2B68372  10.607  13.429   6.772
 5387POPC   C3B68373  10.353  13.358   7.190
 5387POPC   C4B68374  10.388  13.353   7.677
 5388POPC   NC368375   7.012   0.220   5.566
 5388POPC   PO468376   6.403   0.481   5.500
 5388POPC   GL168377   6.479   0.454   5.900
 5388POPC   GL268378   6.413   0.097   5.922
 5388POPC   C1A68379   6.528   0.627   6.317
 5388POPC   D2A68380   6.677   0.762   6.726
 5388POPC   C3A68381   6.513   0.484   7.044
 5388POPC   C4A68382   6.304   0.077   7.094
 5388POPC   C1B68383   6.776   0.168   6.207
 5388POPC   C2B68384   6.900   0.303   6.634
 5388POPC   C3B68385   6.844   0.083   7.003
 5388POPC   C4B68386   6.984   0.094   7.380
 5389POPC   NC368387  22.696  25.936   5.438
 5389POPC   PO468388  23.038  26.498   5.429
 5389POPC   GL168389  22.926  26.230   5.796
 5389POPC   GL268390  22.559  26.261   5.803
 5389POPC   C1A68391  23.035  25.856   6.053
 5389POPC   D2A68392  23.091  25.558   6.405
 5389POPC   C3A68393  23.155  25.673   6.845
 5389POPC   C4A68394  23.116  26.034   7.133
 5389POPC   C1B68395  22.613  26.092   6.234
 5389POPC   C2B68396  22.752  25.919   6.636
 5389POPC   C3B68397  22.626  25.895   7.074
 5389POPC   C4B68398  22.422  26.170   7.353
 5390POPC   NC368399  27.224  39.280   5.231
 5390POPC   PO468400  26.678  39.487   5.542
 5390POPC   GL168401  26.529  39.359   5.933
 5390POPC   GL268402  26.631  39.005   6.010
 5390POPC   C1A68403  26.591  39.368   6.384
 5390POPC   D2A68404  26.910  39.344   6.696
 5390POPC   C3A68405  26.764  39.238   7.089
 5390POPC   C4A68406  26.870  39.480   7.391
 5390POPC   C1B68407  27.019  39.021   6.301
 5390POPC   C2B68408  27.354  39.092   6.589
 5390POPC   C3B68409  27.315  39.207   7.007
 5390POPC   C4B68410  27.157  38.929   7.293
 5391POPC   NC368411  17.448  14.695   5.302
 5391POPC   PO468412  17.913  14.225   5.596
 5391POPC   GL168413  17.649  14.399   5.890
 5391POPC   GL268414  17.542  14.680   5.801
 5391POPC   C1A68415  17.315  14.549   6.221
 5391POPC   D2A68416  17.362  14.591   6.679
 5391POPC   C3A68417  17.545  14.229   6.860
 5391POPC   C4A68418  17.819  14.175   7.205
 5391POPC   C1B68419  17.794  14.786   6.190
 5391POPC   C2B68420  18.042  14.733   6.595
 5391POPC   C3B68421  17.795  14.692   6.969
 5391POPC   C4B68422  17.441  14.544   7.243
 5392POPC   NC368423   3.480  17.569   4.988
 5392POPC   PO468424   3.706  17.616   5.618
 5392POPC   GL168425   3.667  17.379   5.961
 5392POPC   GL268426   3.362  17.522   6.008
 5392POPC   C1A68427   3.672  17.492   6.402
 5392POPC   D2A68428   3.405  17.704   6.698
 5392POPC   C3A68429   3.522  17.573   7.105
 5392POPC   C4A68430   3.895  17.629   7.323
 5392POPC   C1B68431   3.113  17.484   6.315
 5392POPC   C2B68432   2.889  17.619   6.628
 5392POPC   C3B68433   3.022  17.486   7.012
 5392POPC   C4B68434   3.134  17.374   7.411
 5393POPC   NC368435  14.955  16.563   5.459
 5393POPC   PO468436  14.807  17.227   5.461
 5393POPC   GL168437  14.892  16.948   5.788
 5393POPC   GL268438  15.231  16.846   5.852
 5393POPC   C1A68439  14.870  16.765   6.177
 5393POPC   D2A68440  15.109  16.583   6.472
 5393POPC   C3A68441  14.977  16.634   6.855
 5393POPC   C4A68442  14.947  16.920   7.155
 5393POPC   C1B68443  15.503  16.760   6.222
 5393POPC   C2B68444  15.619  16.623   6.651
 5393POPC   C3B68445  15.460  16.756   7.082
 5393POPC   C4B68446  15.652  17.013   7.404
 5394POPC   NC368447  19.914  36.396   5.143
 5394POPC   PO468448  20.092  35.939   5.648
 5394POPC   GL168449  19.869  36.230   5.880
 5394POPC   GL268450  19.696  36.506   5.720
 5394POPC   C1A68451  19.757  36.134   6.270
 5394POPC   D2A68452  19.848  36.283   6.642
 5394POPC   C3A68453  20.060  35.983   6.860
 5394POPC   C4A68454  20.001  36.190   7.189
 5394POPC   C1B68455  19.425  36.471   6.106
 5394POPC   C2B68456  19.335  36.382   6.556
 5394POPC   C3B68457  19.482  36.251   6.989
 5394POPC   C4B68458  19.431  36.510   7.356
 5395POPC   NC368459  14.674  44.295   5.307
 5395POPC   PO468460  14.169  43.944   5.522
 5395POPC   GL168461  14.264  43.842   5.911
 5395POPC   GL268462  14.267  43.489   5.941
 5395POPC   C1A68463  14.112  43.745   6.342
 5395POPC   D2A68464  14.375  43.738   6.714
 5395POPC   C3A68465  14.056  43.705   6.966
 5395POPC   C4A68466  14.099  43.990   7.223
 5395POPC   C1B68467  14.604  43.680   6.234
 5395POPC   C2B68468  14.879  43.571   6.566
 5395POPC   C3B68469  14.748  43.442   6.956
 5395POPC   C4B68470  14.487  43.659   7.250
 5396POPC   NC368471   8.480  41.766   5.389
 5396POPC   PO468472   7.790  41.516   5.480
 5396POPC   GL168473   8.041  41.639   5.821
 5396POPC   GL268474   8.298  41.424   5.772
 5396POPC   C1A68475   8.076  41.521   6.273
 5396POPC   D2A68476   7.828  41.419   6.648
 5396POPC   C3A68477   8.043  41.484   7.025
 5396POPC   C4A68478   7.886  41.708   7.341
 5396POPC   C1B68479   8.536  41.287   6.145
 5396POPC   C2B68480   8.576  41.528   6.528
 5396POPC   C3B68481   8.571  41.549   6.973
 5396POPC   C4B68482   8.413  41.554   7.402
 5397POPC   NC368483  23.189  14.814   5.603
 5397POPC   PO468484  22.751  14.282   5.476
 5397POPC   GL168485  22.817  14.272   5.893
 5397POPC   GL268486  22.873  14.588   5.942
 5397POPC   C1A68487  22.940  14.149   6.298
 5397POPC   D2A68488  22.751  14.124   6.708
 5397POPC   C3A68489  22.770  14.442   7.004
 5397POPC   C4A68490  23.053  14.450   7.352
 5397POPC   C1B68491  23.176  14.590   6.272
 5397POPC   C2B68492  23.180  14.452   6.679
 5397POPC   C3B68493  23.287  14.739   7.004
 5397POPC   C4B68494  23.447  14.796   7.436
 5398POPC   NC368495  42.543  14.308   5.383
 5398POPC   PO468496  41.803  14.158   5.573
 5398POPC   GL168497  42.212  14.307   5.795
 5398POPC   GL268498  42.498  14.573   5.806
 5398POPC   C1A68499  42.425  14.229   6.190
 5398POPC   D2A68500  42.389  13.945   6.523
 5398POPC   C3A68501  42.539  14.151   6.884
 5398POPC   C4A68502  42.453  14.209   7.288
 5398POPC   C1B68503  42.308  14.730   6.204
 5398POPC   C2B68504  42.326  14.540   6.604
 5398POPC   C3B68505  42.420  14.659   6.989
 5398POPC   C4B68506  42.259  14.669   7.353
 5399POPC   NC368507  28.544  34.972   5.605
 5399POPC   PO468508  28.061  35.502   5.648
 5399POPC   GL168509  28.335  35.359   5.929
 5399POPC   GL268510  28.138  35.063   5.931
 5399POPC   C1A68511  28.637  35.580   6.204
 5399POPC   D2A68512  28.742  35.754   6.606
 5399POPC   C3A68513  28.427  35.573   6.858
 5399POPC   C4A68514  28.511  35.360   7.211
 5399POPC   C1B68515  28.434  34.996   6.258
 5399POPC   C2B68516  28.268  35.112   6.634
 5399POPC   C3B68517  28.421  34.931   6.965
 5399POPC   C4B68518  28.308  34.930   7.395
 5400POPC   NC368519   1.502  43.336   5.585
 5400POPC   PO468520   0.967  43.005   5.335
 5400POPC   GL168521   1.025  43.289   5.735
 5400POPC   GL268522   1.219  43.043   5.926
 5400POPC   C1A68523   1.067  43.406   6.221
 5400POPC   D2A68524   0.910  43.054   6.484
 5400POPC   C3A68525   1.017  42.981   6.916
 5400POPC   C4A68526   1.162  43.249   7.225
 5400POPC   C1B68527   1.534  42.836   6.190
 5400POPC   C2B68528   1.408  42.825   6.569
 5400POPC   C3B68529   1.520  42.944   6.953
 5400POPC   C4B68530   1.397  42.794   7.346
 5401POPC   NC368531  17.400   6.006   5.257
 5401POPC   PO468532  17.955   5.645   5.558
 5401POPC   GL168533  17.577   5.756   5.771
 5401POPC   GL268534  17.630   6.093   5.799
 5401POPC   C1A68535  17.374   5.702   6.182
 5401POPC   D2A68536  17.405   5.579   6.619
 5401POPC   C3A68537  17.564   5.838   6.966
 5401POPC   C4A68538  17.297   5.731   7.279
 5401POPC   C1B68539  17.390   6.223   6.160
 5401POPC   C2B68540  17.350   6.082   6.555
 5401POPC   C3B68541  17.099   6.073   6.906
 5401POPC   C4B68542  17.298   6.219   7.236
 5402POPC   NC368543  17.961  14.681   5.515
 5402POPC   PO468544  18.414  14.332   5.171
 5402POPC   GL168545  18.410  14.366   5.693
 5402POPC   GL268546  18.180  14.543   5.943
 5402POPC   C1A68547  18.472  14.129   6.095
 5402POPC   D2A68548  18.507  14.279   6.527
 5402POPC   C3A68549  18.305  14.223   6.941
 5402POPC   C4A68550  18.549  14.320   7.335
 5402POPC   C1B68551  18.553  14.673   6.170
 5402POPC   C2B68552  18.657  14.748   6.616
 5402POPC   C3B68553  18.457  14.702   7.010
 5402POPC   C4B68554  18.126  14.577   7.328
 5403POPC   NC368555  35.486   6.849   5.560
 5403POPC   PO468556  35.092   6.379   5.430
 5403POPC   GL168557  35.278   6.389   5.855
 5403POPC   GL268558  35.634   6.483   5.902
 5403POPC   C1A68559  35.308   6.700   6.228
 5403POPC   D2A68560  35.227   6.927   6.612
 5403POPC   C3A68561  35.238   6.617   6.903
 5403POPC   C4A68562  35.369   6.332   7.211
 5403POPC   C1B68563  35.813   6.811   6.178
 5403POPC   C2B68564  35.744   7.010   6.565
 5403POPC   C3B68565  35.721   6.817   6.963
 5403POPC   C4B68566  35.433   6.816   7.326
 5404POPC   NC368567   9.558  11.307   5.147
 5404POPC   PO468568   9.937  10.961   5.598
 5404POPC   GL168569   9.854  11.373   5.714
 5404POPC   GL268570   9.522  11.354   5.710
 5404POPC   C1A68571   9.919  11.478   6.136
 5404POPC   D2A68572   9.909  11.166   6.483
 5404POPC   C3A68573   9.770  11.189   6.885
 5404POPC   C4A68574   9.965  11.378   7.225
 5404POPC   C1B68575   9.421  11.320   6.140
 5404POPC   C2B68576   9.534  11.519   6.537
 5404POPC   C3B68577   9.635  11.686   6.942
 5404POPC   C4B68578   9.477  11.486   7.303
 5405POPC   NC368579  16.725  14.211   5.497
 5405POPC   PO468580  17.392  14.237   5.276
 5405POPC   GL168581  17.160  14.342   5.725
 5405POPC   GL268582  16.910  14.634   5.836
 5405POPC   C1A68583  16.902  14.223   6.125
 5405POPC   D2A68584  16.871  14.483   6.494
 5405POPC   C3A68585  16.947  14.371   6.900
 5405POPC   C4A68586  16.936  14.544   7.325
 5405POPC   C1B68587  16.521  14.598   6.140
 5405POPC   C2B68588  16.469  14.778   6.586
 5405POPC   C3B68589  16.541  14.649   7.013
 5405POPC   C4B68590  16.450  14.626   7.466
 5406POPC   NC368591  42.641   9.330   5.368
 5406POPC   PO468592  42.171   8.866   5.432
 5406POPC   GL168593  42.358   9.019   5.843
 5406POPC   GL268594  42.707   8.898   5.827
 5406POPC   C1A68595  42.384   9.038   6.336
 5406POPC   D2A68596  42.306   8.808   6.750
 5406POPC   C3A68597  42.339   8.896   7.199
 5406POPC   C4A68598  42.131   9.294   7.328
 5406POPC   C1B68599  42.743   9.287   6.067
 5406POPC   C2B68600  42.816   9.410   6.509
 5406POPC   C3B68601  42.633   9.270   6.903
 5406POPC   C4B68602  42.673   9.260   7.359
 5407POPC   NC368603  32.941   1.634   5.509
 5407POPC   PO468604  33.297   2.154   5.662
 5407POPC   GL168605  33.040   1.953   5.926
 5407POPC   GL268606  33.126   1.614   5.976
 5407POPC   C1A68607  32.905   2.124   6.306
 5407POPC   D2A68608  33.038   1.988   6.700
 5407POPC   C3A68609  32.882   2.144   7.065
 5407POPC   C4A68610  32.738   1.904   7.340
 5407POPC   C1B68611  33.333   1.788   6.323
 5407POPC   C2B68612  33.440   1.579   6.708
 5407POPC   C3B68613  33.239   1.709   7.069
 5407POPC   C4B68614  33.367   2.086   7.204
 5408POPC   NC368615  15.454  38.831   5.495
 5408POPC   PO468616  14.920  39.285   5.520
 5408POPC   GL168617  15.118  39.368   5.894
 5408POPC   GL268618  15.206  39.005   5.905
 5408POPC   C1A68619  15.166  39.559   6.310
 5408POPC   D2A68620  15.282  39.353   6.691
 5408POPC   C3A68621  15.147  39.507   7.068
 5408POPC   C4A68622  15.255  39.341   7.470
 5408POPC   C1B68623  15.121  39.030   6.328
 5408POPC   C2B68624  14.897  39.016   6.709
 5408POPC   C3B68625  14.940  39.010   7.140
 5408POPC   C4B68626  15.240  38.744   7.330
 5409POPC   NC368627   4.461  44.872   5.466
 5409POPC   PO468628   4.825  44.313   5.731
 5409POPC   GL168629   4.431  44.502   5.823
 5409POPC   GL268630   4.204  44.258   5.730
 5409POPC   C1A68631   4.317  44.744   6.186
 5409POPC   D2A68632   4.519  44.633   6.579
 5409POPC   C3A68633   4.330  44.719   6.989
 5409POPC   C4A68634   4.410  44.425   7.337
 5409POPC   C1B68635   4.056  44.285   6.167
 5409POPC   C2B68636   4.006  44.515   6.564
 5409POPC   C3B68637   4.015  44.321   6.957
 5409POPC   C4B68638   3.692  44.101   7.075
 5410POPC   NC368639  27.310   9.641   5.587
 5410POPC   PO468640  27.824  10.032   5.549
 5410POPC   GL168641  27.725   9.795   5.887
 5410POPC   GL268642  27.440   9.978   5.962
 5410POPC   C1A68643  27.803   9.884   6.307
 5410POPC   D2A68644  27.630   9.771   6.684
 5410POPC   C3A68645  27.754   9.896   7.039
 5410POPC   C4A68646  27.864   9.557   7.241
 5410POPC   C1B68647  27.292   9.703   6.298
 5410POPC   C2B68648  27.173   9.567   6.723
 5410POPC   C3B68649  27.246   9.777   7.079
 5410POPC   C4B68650  27.444   9.780   7.448
 5411POPC   NC368651  32.111  25.068   5.574
 5411POPC   PO468652  32.101  24.343   5.465
 5411POPC   GL168653  32.016  24.639   5.837
 5411POPC   GL268654  32.361  24.726   5.918
 5411POPC   C1A68655  32.060  24.745   6.307
 5411POPC   D2A68656  32.361  24.570   6.602
 5411POPC   C3A68657  32.078  24.339   6.825
 5411POPC   C4A68658  31.786  24.560   7.057
 5411POPC   C1B68659  32.710  24.664   6.219
 5411POPC   C2B68660  32.803  24.855   6.641
 5411POPC   C3B68661  32.599  24.803   7.043
 5411POPC   C4B68662  32.352  24.477   7.238
 5412POPC   NC368663  14.422  33.294   5.528
 5412POPC   PO468664  14.849  32.825   5.675
 5412POPC   GL168665  14.598  33.037   5.953
 5412POPC   GL268666  14.220  32.979   5.882
 5412POPC   C1A68667  14.425  33.120   6.337
 5412POPC   D2A68668  14.174  33.058   6.653
 5412POPC   C3A68669  14.254  33.233   6.999
 5412POPC   C4A68670  14.514  33.043   7.254
 5412POPC   C1B68671  14.068  32.714   6.222
 5412POPC   C2B68672  14.014  32.591   6.653
 5412POPC   C3B68673  13.899  32.806   7.054
 5412POPC   C4B68674  13.762  33.116   7.390
 5413POPC   NC368675  10.150   7.703   5.236
 5413POPC   PO468676   9.611   7.329   5.289
 5413POPC   GL168677   9.698   7.364   5.736
 5413POPC   GL268678   9.962   7.141   5.837
 5413POPC   C1A68679   9.686   7.597   6.142
 5413POPC   D2A68680   9.660   7.652   6.596
 5413POPC   C3A68681   9.978   7.505   6.893
 5413POPC   C4A68682   9.709   7.378   7.183
 5413POPC   C1B68683   9.709   7.079   6.228
 5413POPC   C2B68684   9.720   7.121   6.681
 5413POPC   C3B68685   9.979   6.971   7.036
 5413POPC   C4B68686   9.965   7.073   7.475
 5414POPC   NC368687  10.075  33.636   5.456
 5414POPC   PO468688   9.390  33.528   5.603
 5414POPC   GL168689   9.682  33.812   5.846
 5414POPC   GL268690   9.596  34.178   5.877
 5414POPC   C1A68691   9.850  33.829   6.275
 5414POPC   D2A68692   9.866  33.935   6.715
 5414POPC   C3A68693   9.661  33.646   6.960
 5414POPC   C4A68694   9.386  33.723   7.242
 5414POPC   C1B68695   9.611  34.284   6.329
 5414POPC   C2B68696   9.645  34.432   6.741
 5414POPC   C3B68697   9.586  34.162   7.088
 5414POPC   C4B68698   9.672  34.206   7.518
 5415POPC   NC368699   2.352  15.428   5.638
 5415POPC   PO468700   2.678  15.015   5.181
 5415POPC   GL168701   2.759  15.002   5.724
 5415POPC   GL268702   2.853  15.304   5.960
 5415POPC   C1A68703   2.933  14.861   6.148
 5415POPC   D2A68704   3.036  15.196   6.464
 5415POPC   C3A68705   2.925  15.112   6.869
 5415POPC   C4A68706   2.926  14.831   7.205
 5415POPC   C1B68707   2.555  15.210   6.264
 5415POPC   C2B68708   2.549  15.415   6.650
 5415POPC   C3B68709   2.650  15.478   7.074
 5415POPC   C4B68710   2.422  15.293   7.344
 5416POPC   NC368711  40.517   1.849   5.277
 5416POPC   PO468712  40.939   2.369   5.329
 5416POPC   GL168713  40.685   2.180   5.681
 5416POPC   GL268714  40.743   1.822   5.738
 5416POPC   C1A68715  40.494   2.108   6.117
 5416POPC   D2A68716  40.694   2.077   6.537
 5416POPC   C3A68717  40.463   2.132   6.936
 5416POPC   C4A68718  40.653   2.134   7.337
 5416POPC   C1B68719  40.863   1.737   6.156
 5416POPC   C2B68720  40.911   1.614   6.579
 5416POPC   C3B68721  40.891   1.833   6.958
 5416POPC   C4B68722  40.992   1.716   7.315
 5417POPC   NC368723   9.200   0.917   5.356
 5417POPC   PO468724   8.751   1.412   5.328
 5417POPC   GL168725   8.935   1.234   5.720
 5417POPC   GL268726   8.662   1.309   5.936
 5417POPC   C1A68727   9.111   1.238   6.170
 5417POPC   D2A68728   9.018   1.109   6.594
 5417POPC   C3A68729   9.295   1.102   6.942
 5417POPC   C4A68730   9.128   1.141   7.325
 5417POPC   C1B68731   8.618   0.977   6.258
 5417POPC   C2B68732   8.559   0.901   6.705
 5417POPC   C3B68733   8.706   1.095   7.050
 5417POPC   C4B68734   8.457   1.146   7.412
 5418POPC   NC368735  15.635  21.572   5.512
 5418POPC   PO468736  16.125  21.111   5.387
 5418POPC   GL168737  15.941  21.276   5.777
 5418POPC   GL268738  15.989  21.608   5.881
 5418POPC   C1A68739  15.800  21.222   6.200
 5418POPC   D2A68740  15.976  21.342   6.595
 5418POPC   C3A68741  15.766  21.306   6.960
 5418POPC   C4A68742  15.653  21.160   7.323
 5418POPC   C1B68743  15.789  21.731   6.290
 5418POPC   C2B68744  15.999  21.839   6.700
 5418POPC   C3B68745  16.006  21.719   7.159
 5418POPC   C4B68746  16.025  21.733   7.612
 5419POPC   NC368747  10.680  30.061   5.515
 5419POPC   PO468748  10.111  29.782   5.619
 5419POPC   GL168749  10.442  29.855   5.916
 5419POPC   GL268750  10.751  29.659   5.869
 5419POPC   C1A68751  10.544  29.967   6.316
 5419POPC   D2A68752  10.525  29.850   6.759
 5419POPC   C3A68753  10.566  30.075   7.156
 5419POPC   C4A68754  10.437  30.112   7.590
 5419POPC   C1B68755  10.922  29.409   6.228
 5419POPC   C2B68756  10.951  29.529   6.678
 5419POPC   C3B68757  10.823  29.603   7.117
 5419POPC   C4B68758  10.940  29.893   7.486
 5420POPC   NC368759  30.339  35.593   5.015
 5420POPC   PO468760  29.929  35.377   5.400
 5420POPC   GL168761  29.805  35.447   5.811
 5420POPC   GL268762  30.025  35.191   5.920
 5420POPC   C1A68763  29.991  35.673   6.160
 5420POPC   D2A68764  30.290  35.556   6.493
 5420POPC   C3A68765  30.204  35.698   6.903
 5420POPC   C4A68766  29.938  35.513   7.181
 5420POPC   C1B68767  30.197  34.898   6.225
 5420POPC   C2B68768  30.115  34.905   6.673
 5420POPC   C3B68769  29.858  35.001   7.053
 5420POPC   C4B68770  29.913  35.135   7.505
 5421POPC   NC368771   9.659  44.931   5.069
 5421POPC   PO468772   9.980  44.596   5.543
 5421POPC   GL168773   9.680  44.763   5.814
 5421POPC   GL268774   9.607  44.392   5.827
 5421POPC   C1A68775   9.633  44.967   6.234
 5421POPC   D2A68776   9.800  44.880   6.653
 5421POPC   C3A68777   9.542  44.775   7.019
 5421POPC   C4A68778   9.487  44.374   7.210
 5421POPC   C1B68779   9.936  44.517   6.190
 5421POPC   C2B68780  10.173  44.527   6.595
 5421POPC   C3B68781  10.033  44.577   7.024
 5421POPC   C4B68782  10.064  44.320   7.373
 5422POPC   NC368783  25.663  31.038   5.712
 5422POPC   PO468784  26.368  31.166   5.606
 5422POPC   GL168785  26.018  31.354   5.884
 5422POPC   GL268786  25.867  31.715   5.851
 5422POPC   C1A68787  25.968  31.427   6.328
 5422POPC   D2A68788  26.033  31.758   6.646
 5422POPC   C3A68789  26.144  31.650   7.057
 5422POPC   C4A68790  26.201  31.590   7.510
 5422POPC   C1B68791  25.734  31.895   6.240
 5422POPC   C2B68792  25.532  31.913   6.664
 5422POPC   C3B68793  25.669  31.841   7.103
 5422POPC   C4B68794  25.732  31.798   7.596
 5423POPC   NC368795  33.381   5.903   5.480
 5423POPC   PO468796  34.097   5.856   5.416
 5423POPC   GL168797  33.869   5.714   5.786
 5423POPC   GL268798  33.542   5.565   5.890
 5423POPC   C1A68799  33.996   5.657   6.181
 5423POPC   D2A68800  33.889   5.825   6.547
 5423POPC   C3A68801  34.115   5.708   6.894
 5423POPC   C4A68802  33.834   5.647   7.186
 5423POPC   C1B68803  33.534   5.963   6.165
 5423POPC   C2B68804  33.451   6.179   6.570
 5423POPC   C3B68805  33.406   6.029   7.006
 5423POPC   C4B68806  33.467   6.306   7.338
 5424POPC   NC368807   5.171  35.654   5.230
 5424POPC   PO468808   4.860  35.095   5.500
 5424POPC   GL168809   5.023  35.336   5.813
 5424POPC   GL268810   4.896  35.653   5.760
 5424POPC   C1A68811   4.901  35.337   6.243
 5424POPC   D2A68812   4.938  35.050   6.603
 5424POPC   C3A68813   4.836  35.142   7.035
 5424POPC   C4A68814   5.120  35.225   7.366
 5424POPC   C1B68815   5.005  35.854   6.160
 5424POPC   C2B68816   4.882  35.750   6.587
 5424POPC   C3B68817   5.027  35.625   6.999
 5424POPC   C4B68818   4.843  35.660   7.395
 5425POPC   NC368819   1.261  33.952   5.467
 5425POPC   PO468820   1.115  33.403   5.816
 5425POPC   GL168821   1.229  33.819   5.963
 5425POPC   GL268822   0.988  34.101   5.873
 5425POPC   C1A68823   1.281  33.814   6.402
 5425POPC   D2A68824   1.136  33.484   6.707
 5425POPC   C3A68825   1.366  33.519   7.060
 5425POPC   C4A68826   1.520  33.918   6.978
 5425POPC   C1B68827   0.789  33.872   6.211
 5425POPC   C2B68828   0.825  33.949   6.628
 5425POPC   C3B68829   1.017  33.927   6.997
 5425POPC   C4B68830   0.822  33.917   7.349
 5426POPC   NC368831  19.833  24.401   5.121
 5426POPC   PO468832  19.848  25.017   5.272
 5426POPC   GL168833  19.772  24.677   5.683
 5426POPC   GL268834  19.823  24.303   5.746
 5426POPC   C1A68835  20.049  24.591   6.108
 5426POPC   D2A68836  19.904  24.685   6.516
 5426POPC   C3A68837  20.142  24.661   6.898
 5426POPC   C4A68838  20.078  24.460   7.270
 5426POPC   C1B68839  19.621  24.356   6.211
 5426POPC   C2B68840  19.523  24.387   6.699
 5426POPC   C3B68841  19.581  24.315   7.179
 5426POPC   C4B68842  19.456  24.182   7.641
 5427POPC   NC368843   5.835  34.273   5.256
 5427POPC   PO468844   6.141  34.845   5.366
 5427POPC   GL168845   5.879  34.549   5.721
 5427POPC   GL268846   5.561  34.654   5.854
 5427POPC   C1A68847   6.027  34.465   6.184
 5427POPC   D2A68848   6.004  34.623   6.614
 5427POPC   C3A68849   6.148  34.385   6.979
 5427POPC   C4A68850   6.010  34.627   7.319
 5427POPC   C1B68851   5.484  34.392   6.198
 5427POPC   C2B68852   5.640  34.237   6.582
 5427POPC   C3B68853   5.656  34.441   6.983
 5427POPC   C4B68854   5.585  34.234   7.390
 5428POPC   NC368855   4.956  23.259   5.150
 5428POPC   PO468856   4.930  22.728   5.627
 5428POPC   GL168857   5.159  22.988   5.911
 5428POPC   GL268858   5.350  23.280   5.782
 5428POPC   C1A68859   5.220  22.882   6.336
 5428POPC   D2A68860   5.418  22.771   6.701
 5428POPC   C3A68861   5.085  22.732   7.000
 5428POPC   C4A68862   4.881  22.729   7.399
 5428POPC   C1B68863   5.283  23.378   6.248
 5428POPC   C2B68864   5.207  23.266   6.729
 5428POPC   C3B68865   5.224  23.161   7.224
 5428POPC   C4B68866   4.917  23.223   7.556
 5429POPC   NC368867   4.022  39.961   5.460
 5429POPC   PO468868   4.564  40.307   5.263
 5429POPC   GL168869   4.437  40.110   5.729
 5429POPC   GL268870   4.279  39.740   5.855
 5429POPC   C1A68871   4.215  40.140   6.158
 5429POPC   D2A68872   4.286  40.286   6.598
 5429POPC   C3A68873   4.271  39.966   6.944
 5429POPC   C4A68874   4.077  39.732   7.323
 5429POPC   C1B68875   4.281  39.593   6.336
 5429POPC   C2B68876   4.445  39.478   6.785
 5429POPC   C3B68877   4.575  39.648   7.208
 5429POPC   C4B68878   4.547  39.713   7.661
 5430POPC   NC368879  44.096  41.108   5.564
 5430POPC   PO468880  44.180  40.415   5.477
 5430POPC   GL168881  43.979  40.440   5.856
 5430POPC   GL268882  43.844  40.782   5.865
 5430POPC   C1A68883  43.918  40.531   6.315
 5430POPC   D2A68884  43.729  40.516   6.737
 5430POPC   C3A68885  44.043  40.595   7.020
 5430POPC   C4A68886  44.178  41.005   7.062
 5430POPC   C1B68887  43.670  40.998   6.234
 5430POPC   C2B68888  43.824  41.011   6.661
 5430POPC   C3B68889  43.656  40.944   7.086
 5430POPC   C4B68890  43.644  41.232   7.471
 5431POPC   NC368891  37.064  34.670   5.380
 5431POPC   PO468892  37.125  34.025   5.460
 5431POPC   GL168893  36.920  34.288   5.824
 5431POPC   GL268894  36.926  34.666   5.869
 5431POPC   C1A68895  36.925  34.417   6.320
 5431POPC   D2A68896  36.877  34.668   6.737
 5431POPC   C3A68897  36.792  34.483   7.165
 5431POPC   C4A68898  36.788  34.386   7.626
 5431POPC   C1B68899  37.275  34.776   6.174
 5431POPC   C2B68900  37.371  34.790   6.632
 5431POPC   C3B68901  37.272  34.721   7.080
 5431POPC   C4B68902  37.136  34.758   7.506
 5432POPC   NC368903  24.615  10.007   5.408
 5432POPC   PO468904  24.849   9.411   5.668
 5432POPC   GL168905  24.554   9.550   5.909
 5432POPC   GL268906  24.260   9.360   5.923
 5432POPC   C1A68907  24.501   9.725   6.301
 5432POPC   D2A68908  24.373  10.075   6.545
 5432POPC   C3A68909  24.321   9.887   6.901
 5432POPC   C4A68910  24.385   9.927   7.331
 5432POPC   C1B68911  24.436   9.217   6.288
 5432POPC   C2B68912  24.428   9.372   6.698
 5432POPC   C3B68913  24.481   9.457   7.111
 5432POPC   C4B68914  24.174   9.469   7.396
 5433POPC   NC368915  13.890  43.563   5.535
 5433POPC   PO468916  13.392  44.016   5.310
 5433POPC   GL168917  13.452  43.787   5.770
 5433POPC   GL268918  13.763  43.901   5.919
 5433POPC   C1A68919  13.405  43.784   6.290
 5433POPC   D2A68920  13.574  44.021   6.710
 5433POPC   C3A68921  13.591  43.842   7.159
 5433POPC   C4A68922  13.455  43.778   7.625
 5433POPC   C1B68923  14.024  44.224   6.154
 5433POPC   C2B68924  14.204  44.206   6.553
 5433POPC   C3B68925  14.068  44.353   6.890
 5433POPC   C4B68926  13.713  44.329   7.138
 5434POPC   NC368927   5.520   2.324   5.112
 5434POPC   PO468928   5.312   2.930   5.391
 5434POPC   GL168929   5.253   2.810   5.789
 5434POPC   GL268930   4.904   2.895   5.770
 5434POPC   C1A68931   5.416   2.614   6.215
 5434POPC   D2A68932   5.644   2.551   6.596
 5434POPC   C3A68933   5.406   2.517   6.963
 5434POPC   C4A68934   5.017   2.291   6.929
 5434POPC   C1B68935   5.060   3.008   6.206
 5434POPC   C2B68936   5.152   2.799   6.617
 5434POPC   C3B68937   5.051   2.888   7.052
 5434POPC   C4B68938   5.109   3.147   7.409
 5435POPC   NC368939  31.034  22.580   5.488
 5435POPC   PO468940  31.606  22.902   5.188
 5435POPC   GL168941  31.414  22.892   5.682
 5435POPC   GL268942  31.628  22.654   5.846
 5435POPC   C1A68943  31.273  22.974   6.168
 5435POPC   D2A68944  31.413  22.867   6.619
 5435POPC   C3A68945  31.198  22.959   7.001
 5435POPC   C4A68946  31.042  23.315   7.200
 5435POPC   C1B68947  31.736  22.398   6.194
 5435POPC   C2B68948  31.568  22.370   6.592
 5435POPC   C3B68949  31.665  22.513   6.998
 5435POPC   C4B68950  31.769  22.848   7.225
 5436POPC   NC368951  16.691  30.376   5.393
 5436POPC   PO468952  16.461  29.749   5.302
 5436POPC   GL168953  16.613  29.788   5.757
 5436POPC   GL268954  16.542  29.443   5.879
 5436POPC   C1A68955  16.795  30.081   6.136
 5436POPC   D2A68956  17.091  30.128   6.524
 5436POPC   C3A68957  16.945  30.157   6.960
 5436POPC   C4A68958  16.554  29.994   7.141
 5436POPC   C1B68959  16.824  29.584   6.225
 5436POPC   C2B68960  16.812  29.714   6.696
 5436POPC   C3B68961  16.697  29.497   7.102
 5436POPC   C4B68962  16.527  29.621   7.520
 5437POPC   NC368963  18.232  28.769   5.437
 5437POPC   PO468964  18.232  29.487   5.431
 5437POPC   GL168965  18.196  29.382   5.844
 5437POPC   GL268966  18.367  29.065   5.876
 5437POPC   C1A68967  18.391  29.482   6.220
 5437POPC   D2A68968  18.176  29.552   6.578
 5437POPC   C3A68969  18.395  29.448   6.952
 5437POPC   C4A68970  18.605  29.718   7.268
 5437POPC   C1B68971  18.150  29.031   6.303
 5437POPC   C2B68972  18.043  28.897   6.758
 5437POPC   C3B68973  18.124  29.014   7.203
 5437POPC   C4B68974  18.137  29.111   7.675
 5438POPC   NC368975   8.182  12.125   5.528
 5438POPC   PO468976   8.726  11.736   5.582
 5438POPC   GL168977   8.485  11.930   5.894
 5438POPC   GL268978   8.596  12.304   5.900
 5438POPC   C1A68979   8.163  11.782   6.187
 5438POPC   D2A68980   8.344  11.725   6.563
 5438POPC   C3A68981   8.090  11.725   6.867
 5438POPC   C4A68982   8.145  12.075   7.124
 5438POPC   C1B68983   8.210  12.291   6.161
 5438POPC   C2B68984   8.087  12.184   6.571
 5438POPC   C3B68985   8.257  12.465   6.847
 5438POPC   C4B68986   7.916  12.552   7.099
 5439POPC   NC368987   4.555  35.442   5.400
 5439POPC   PO468988   4.250  34.886   5.205
 5439POPC   GL168989   4.277  35.137   5.676
 5439POPC   GL268990   4.147  35.479   5.732
 5439POPC   C1A68991   4.399  35.110   6.129
 5439POPC   D2A68992   4.433  35.436   6.454
 5439POPC   C3A68993   4.399  35.355   6.881
 5439POPC   C4A68994   4.359  35.565   7.270
 5439POPC   C1B68995   4.061  35.656   6.155
 5439POPC   C2B68996   3.919  35.542   6.583
 5439POPC   C3B68997   3.933  35.711   6.991
 5439POPC   C4B68998   3.860  35.558   7.400
 5440POPC   NC368999  20.873   4.425   5.172
 5440POPC   PO469000  21.567   4.401   5.353
 5440POPC   GL169001  21.635   4.472   5.807
 5440POPC   GL269002  21.341   4.319   5.951
 5440POPC   C1A69003  21.650   4.527   6.292
 5440POPC   D2A69004  21.587   4.802   6.674
 5440POPC   C3A69005  21.297   4.598   6.958
 5440POPC   C4A69006  21.444   4.247   7.136
 5440POPC   C1B69007  21.139   4.482   6.318
 5440POPC   C2B69008  21.198   4.179   6.657
 5440POPC   C3B69009  21.058   3.942   7.009
 5440POPC   C4B69010  20.933   4.257   7.275
 5441POPC   NC369011   3.845  33.576   5.532
 5441POPC   PO469012   3.409  34.059   5.624
 5441POPC   GL169013   3.671  33.922   5.912
 5441POPC   GL269014   3.633  33.578   5.989
 5441POPC   C1A69015   3.566  33.995   6.325
 5441POPC   D2A69016   3.288  33.916   6.652
 5441POPC   C3A69017   3.592  33.801   6.926
 5441POPC   C4A69018   3.672  33.854   7.339
 5441POPC   C1B69019   3.321  33.528   6.274
 5441POPC   C2B69020   3.168  33.316   6.622
 5441POPC   C3B69021   3.132  33.190   7.023
 5441POPC   C4B69022   3.346  33.494   7.244
 5442POPC   NC369023  17.372  24.529   5.633
 5442POPC   PO469024  16.750  24.609   5.539
 5442POPC   GL169025  16.599  24.351   5.833
 5442POPC   GL269026  16.967  24.252   5.866
 5442POPC   C1A69027  16.557  24.490   6.274
 5442POPC   D2A69028  16.405  24.673   6.677
 5442POPC   C3A69029  16.580  24.627   7.112
 5442POPC   C4A69030  16.474  24.576   7.573
 5442POPC   C1B69031  17.180  24.237   6.257
 5442POPC   C2B69032  17.127  24.406   6.672
 5442POPC   C3B69033  17.112  24.145   7.025
 5442POPC   C4B69034  16.843  24.261   7.352
 5443POPC   NC369035  33.799  36.771   5.450
 5443POPC   PO469036  33.370  37.255   5.472
 5443POPC   GL169037  33.548  37.027   5.832
 5443POPC   GL269038  33.571  36.671   5.922
 5443POPC   C1A69039  33.887  36.994   6.155
 5443POPC   D2A69040  34.037  36.753   6.507
 5443POPC   C3A69041  33.901  36.934   6.857
 5443POPC   C4A69042  33.735  37.048   7.219
 5443POPC   C1B69043  33.562  36.579   6.387
 5443POPC   C2B69044  33.661  36.496   6.840
 5443POPC   C3B69045  33.817  36.497   7.272
 5443POPC   C4B69046  33.909  36.406   7.724
 5444POPC   NC369047  41.192  37.210   5.732
 5444POPC   PO469048  40.881  36.627   5.475
 5444POPC   GL169049  40.875  36.815   5.872
 5444POPC   GL269050  41.198  36.780   5.992
 5444POPC   C1A69051  40.781  37.110   6.253
 5444POPC   D2A69052  40.490  37.216   6.612
 5444POPC   C3A69053  40.662  37.050   6.963
 5444POPC   C4A69054  40.998  37.133   7.246
 5444POPC   C1B69055  40.989  36.636   6.328
 5444POPC   C2B69056  41.039  36.480   6.696
 5444POPC   C3B69057  40.930  36.617   7.076
 5444POPC   C4B69058  40.820  36.682   7.488
 5445POPC   NC369059  30.281   1.190   5.576
 5445POPC   PO469060  30.955   1.054   5.376
 5445POPC   GL169061  30.993   1.068   5.815
 5445POPC   GL269062  30.748   1.364   5.932
 5445POPC   C1A69063  31.139   1.163   6.219
 5445POPC   D2A69064  30.941   1.462   6.464
 5445POPC   C3A69065  30.841   1.284   6.814
 5445POPC   C4A69066  30.645   1.414   7.169
 5445POPC   C1B69067  30.473   1.308   6.313
 5445POPC   C2B69068  30.327   0.993   6.598
 5445POPC   C3B69069  30.509   0.942   6.993
 5445POPC   C4B69070  30.499   1.020   7.427
 5446POPC   NC369071  41.125   1.062   5.435
 5446POPC   PO469072  40.591   1.391   5.261
 5446POPC   GL169073  40.672   1.299   5.722
 5446POPC   GL269074  40.346   1.161   5.774
 5446POPC   C1A69075  40.772   1.233   6.200
 5446POPC   D2A69076  40.928   1.103   6.652
 5446POPC   C3A69077  40.818   1.296   7.047
 5446POPC   C4A69078  40.982   1.247   7.483
 5446POPC   C1B69079  40.281   1.071   6.183
 5446POPC   C2B69080  40.413   1.152   6.596
 5446POPC   C3B69081  40.553   0.846   6.908
 5446POPC   C4B69082  40.439   1.029   7.294
 5447POPC   NC369083  44.840  26.715   5.499
 5447POPC   PO469084  44.368  27.094   5.479
 5447POPC   GL169085  44.533  26.937   5.877
 5447POPC   GL269086  44.847  27.104   5.828
 5447POPC   C1A69087  44.550  26.794   6.340
 5447POPC   D2A69088  44.624  26.622   6.779
 5447POPC   C3A69089  44.351  26.849   7.062
 5447POPC   C4A69090  44.488  27.161   7.356
 5447POPC   C1B69091   0.005  26.962   6.225
 5447POPC   C2B69092   0.078  26.885   6.696
 5447POPC   C3B69093  44.878  26.924   7.142
 5447POPC   C4B69094   0.028  26.910   7.610
 5448POPC   NC369095  21.443  14.578   5.099
 5448POPC   PO469096  20.970  14.456   5.540
 5448POPC   GL169097  21.215  14.562   5.882
 5448POPC   GL269098  21.507  14.330   5.875
 5448POPC   C1A69099  21.231  14.489   6.324
 5448POPC   D2A69100  21.214  14.688   6.716
 5448POPC   C3A69101  21.089  14.382   7.009
 5448POPC   C4A69102  21.355  14.360   7.307
 5448POPC   C1B69103  21.672  14.683   6.144
 5448POPC   C2B69104  21.745  14.773   6.613
 5448POPC   C3B69105  21.778  14.617   7.080
 5448POPC   C4B69106  22.003  14.667   7.496
 5449POPC   NC369107  29.575  34.121   5.447
 5449POPC   PO469108  29.374  34.792   5.457
 5449POPC   GL169109  29.242  34.475   5.825
 5449POPC   GL269110  29.470  34.410   6.112
 5449POPC   C1A69111  28.968  34.353   6.227
 5449POPC   D2A69112  28.992  34.518   6.671
 5449POPC   C3A69113  29.077  34.274   7.049
 5449POPC   C4A69114  29.124  34.493   7.474
 5449POPC   C1B69115  29.224  34.789   6.268
 5449POPC   C2B69116  29.307  35.071   6.633
 5449POPC   C3B69117  29.181  34.926   7.021
 5449POPC   C4B69118  28.811  34.805   7.243
 5450POPC   NC369119  28.976  10.098   5.424
 5450POPC   PO469120  29.251   9.481   5.348
 5450POPC   GL169121  29.191   9.636   5.758
 5450POPC   GL269122  29.305   9.987   5.828
 5450POPC   C1A69123  29.000   9.564   6.162
 5450POPC   D2A69124  29.189   9.720   6.532
 5450POPC   C3A69125  28.985   9.766   6.935
 5450POPC   C4A69126  29.047   9.429   7.216
 5450POPC   C1B69127  29.581   9.999   6.195
 5450POPC   C2B69128  29.680   9.857   6.611
 5450POPC   C3B69129  29.485   9.668   6.985
 5450POPC   C4B69130  29.564   9.782   7.443
 5451POPC   NC369131  27.193  21.493   5.315
 5451POPC   PO469132  27.734  21.153   5.144
 5451POPC   GL169133  27.561  21.462   5.641
 5451POPC   GL269134  27.763  21.748   5.771
 5451POPC   C1A69135  27.515  21.404   6.131
 5451POPC   D2A69136  27.494  21.130   6.533
 5451POPC   C3A69137  27.461  21.214   6.978
 5451POPC   C4A69138  27.354  21.606   7.144
 5451POPC   C1B69139  27.919  21.728   6.212
 5451POPC   C2B69140  27.718  21.598   6.593
 5451POPC   C3B69141  27.853  21.572   6.998
 5451POPC   C4B69142  28.124  21.346   7.207
 5452POPC   NC369143  10.298  34.277   5.343
 5452POPC   PO469144  10.652  34.817   5.300
 5452POPC   GL169145  10.411  34.730   5.681
 5452POPC   GL269146  10.425  34.391   5.842
 5452POPC   C1A69147  10.383  34.847   6.141
 5452POPC   D2A69148  10.585  34.789   6.574
 5452POPC   C3A69149  10.382  34.762   6.985
 5452POPC   C4A69150  10.263  34.890   7.410
 5452POPC   C1B69151  10.431  34.357   6.318
 5452POPC   C2B69152  10.658  34.288   6.708
 5452POPC   C3B69153  10.854  34.503   7.083
 5452POPC   C4B69154  10.773  34.377   7.547
 5453POPC   NC369155   7.624  33.694   5.388
 5453POPC   PO469156   6.950  33.462   5.384
 5453POPC   GL169157   7.112  33.719   5.812
 5453POPC   GL269158   7.490  33.794   5.882
 5453POPC   C1A69159   7.189  33.837   6.297
 5453POPC   D2A69160   7.040  33.692   6.722
 5453POPC   C3A69161   7.259  33.897   7.072
 5453POPC   C4A69162   7.326  33.800   7.561
 5453POPC   C1B69163   7.596  33.536   6.230
 5453POPC   C2B69164   7.549  33.645   6.666
 5453POPC   C3B69165   7.516  33.365   6.985
 5453POPC   C4B69166   7.825  33.170   7.177
 5454POPC   NC369167  15.625  35.676   5.412
 5454POPC   PO469168  16.100  35.081   5.543
 5454POPC   GL169169  15.947  35.185   5.937
 5454POPC   GL269170  15.755  35.504   5.894
 5454POPC   C1A69171  16.147  35.226   6.348
 5454POPC   D2A69172  16.189  35.577   6.641
 5454POPC   C3A69173  15.964  35.562   7.043
 5454POPC   C4A69174  15.805  35.215   7.273
 5454POPC   C1B69175  15.772  35.600   6.327
 5454POPC   C2B69176  15.699  35.352   6.680
 5454POPC   C3B69177  15.419  35.448   7.025
 5454POPC   C4B69178  15.346  35.464   7.478
 5455POPC   NC369179   9.329  28.474   5.413
 5455POPC   PO469180   9.940  28.194   5.306
 5455POPC   GL169181   9.849  28.396   5.704
 5455POPC   GL269182   9.882  28.067   5.833
 5455POPC   C1A69183   9.700  28.423   6.160
 5455POPC   D2A69184   9.757  28.580   6.595
 5455POPC   C3A69185   9.613  28.400   7.012
 5455POPC   C4A69186   9.828  28.515   7.389
 5455POPC   C1B69187  10.127  28.113   6.175
 5455POPC   C2B69188  10.169  27.950   6.564
 5455POPC   C3B69189  10.014  28.092   6.956
 5455POPC   C4B69190  10.238  28.223   7.324
 5456POPC   NC369191   3.293  44.849   5.577
 5456POPC   PO469192   3.917  44.617   5.443
 5456POPC   GL169193   3.899  44.667   5.860
 5456POPC   GL269194   3.561  44.561   5.906
 5456POPC   C1A69195   3.792  44.882   6.239
 5456POPC   D2A69196   3.424  44.833   6.481
 5456POPC   C3A69197   3.523  44.569   6.844
 5456POPC   C4A69198   3.772  44.699   7.217
 5456POPC   C1B69199   3.554  44.366   6.288
 5456POPC   C2B69200   3.292  44.082   6.508
 5456POPC   C3B69201   3.186  44.161   6.917
 5456POPC   C4B69202   3.347  44.367   7.315
 5457POPC   NC369203   6.306  13.305   5.433
 5457POPC   PO469204   5.807  12.976   5.061
 5457POPC   GL169205   5.991  12.924   5.605
 5457POPC   GL269206   5.781  12.948   5.898
 5457POPC   C1A69207   6.180  12.727   6.063
 5457POPC   D2A69208   6.080  12.870   6.478
 5457POPC   C3A69209   6.095  12.615   6.861
 5457POPC   C4A69210   5.927  12.799   7.242
 5457POPC   C1B69211   5.580  12.870   6.282
 5457POPC   C2B69212   5.599  12.731   6.710
 5457POPC   C3B69213   5.457  12.559   7.106
 5457POPC   C4B69214   5.524  12.687   7.550
 5458POPC   NC369215  11.793  40.055   5.379
 5458POPC   PO469216  12.216  39.621   5.602
 5458POPC   GL169217  11.919  39.876   5.849
 5458POPC   GL269218  12.006  40.253   5.817
 5458POPC   C1A69219  11.950  40.017   6.274
 5458POPC   D2A69220  12.271  40.065   6.611
 5458POPC   C3A69221  12.108  39.949   6.999
 5458POPC   C4A69222  12.163  39.590   7.211
 5458POPC   C1B69223  12.303  40.365   6.192
 5458POPC   C2B69224  12.248  40.571   6.638
 5458POPC   C3B69225  12.368  40.377   7.074
 5458POPC   C4B69226  12.356  40.351   7.555
 5459POPC   NC369227  35.402  38.549   5.217
 5459POPC   PO469228  35.425  39.242   5.291
 5459POPC   GL169229  35.509  39.082   5.745
 5459POPC   GL269230  35.580  39.371   5.951
 5459POPC   C1A69231  35.279  39.025   6.180
 5459POPC   D2A69232  34.979  39.324   6.416
 5459POPC   C3A69233  35.104  39.345   6.858
 5459POPC   C4A69234  35.390  39.031   7.069
 5459POPC   C1B69235  35.472  39.525   6.378
 5459POPC   C2B69236  35.620  39.501   6.826
 5459POPC   C3B69237  35.423  39.591   7.220
 5459POPC   C4B69238  35.576  39.587   7.693
 5460POPC   NC369239  37.081  29.487   5.682
 5460POPC   PO469240  36.712  30.040   5.799
 5460POPC   GL169241  37.151  30.109   5.962
 5460POPC   GL269242  37.144  29.751   6.093
 5460POPC   C1A69243  37.214  30.122   6.412
 5460POPC   D2A69244  37.032  29.790   6.613
 5460POPC   C3A69245  36.750  29.965   6.943
 5460POPC   C4A69246  36.805  30.232   7.324
 5460POPC   C1B69247  37.356  29.418   6.343
 5460POPC   C2B69248  37.202  29.316   6.753
 5460POPC   C3B69249  37.013  29.548   7.054
 5460POPC   C4B69250  36.895  29.718   7.416
 5461POPC   NC369251  15.668  41.167   4.981
 5461POPC   PO469252  15.841  41.639   5.374
 5461POPC   GL169253  16.013  41.606   5.794
 5461POPC   GL269254  15.817  41.377   5.934
 5461POPC   C1A69255  16.187  41.558   6.224
 5461POPC   D2A69256  16.191  41.696   6.651
 5461POPC   C3A69257  16.128  41.460   7.001
 5461POPC   C4A69258  15.918  41.577   7.344
 5461POPC   C1B69259  15.598  41.736   6.092
 5461POPC   C2B69260  15.707  41.889   6.485
 5461POPC   C3B69261  15.724  41.794   6.914
 5461POPC   C4B69262  15.457  41.777   7.283
 5462POPC   NC369263  42.199  16.536   5.161
 5462POPC   PO469264  42.160  15.979   5.497
 5462POPC   GL169265  42.168  15.946   5.910
 5462POPC   GL269266  42.277  15.583   5.849
 5462POPC   C1A69267  42.405  16.183   6.264
 5462POPC   D2A69268  42.737  16.007   6.561
 5462POPC   C3A69269  42.664  15.995   7.012
 5462POPC   C4A69270  42.429  16.046   7.372
 5462POPC   C1B69271  42.364  15.688   6.293
 5462POPC   C2B69272  42.263  15.827   6.727
 5462POPC   C3B69273  42.326  15.617   7.124
 5462POPC   C4B69274  42.479  15.515   7.576
 5463POPC   NC369275   7.180  27.860   5.374
 5463POPC   PO469276   7.669  27.407   5.427
 5463POPC   GL169277   7.670  27.544   5.870
 5463POPC   GL269278   7.615  27.893   5.923
 5463POPC   C1A69279   7.413  27.449   6.250
 5463POPC   D2A69280   7.501  27.215   6.619
 5463POPC   C3A69281   7.701  27.333   7.007
 5463POPC   C4A69282   7.498  27.469   7.388
 5463POPC   C1B69283   7.466  27.960   6.316
 5463POPC   C2B69284   7.475  27.736   6.685
 5463POPC   C3B69285   7.235  27.551   6.965
 5463POPC   C4B69286   7.140  27.845   7.298
 5464POPC   NC369287  39.485  27.350   5.366
 5464POPC   PO469288  38.867  27.503   5.539
 5464POPC   GL169289  39.098  27.590   5.875
 5464POPC   GL269290  39.445  27.514   5.848
 5464POPC   C1A69291  39.087  27.455   6.277
 5464POPC   D2A69292  39.188  27.591   6.668
 5464POPC   C3A69293  39.011  27.470   7.048
 5464POPC   C4A69294  39.077  27.631   7.437
 5464POPC   C1B69295  39.589  27.673   6.234
 5464POPC   C2B69296  39.693  27.567   6.646
 5464POPC   C3B69297  39.525  27.545   7.067
 5464POPC   C4B69298  39.725  27.657   7.409
 5465POPC   NC369299  34.714  26.783   5.096
 5465POPC   PO469300  34.195  27.168   5.343
 5465POPC   GL169301  34.397  26.969   5.678
 5465POPC   GL269302  34.259  26.678   5.812
 5465POPC   C1A69303  34.647  26.932   6.065
 5465POPC   D2A69304  34.650  27.064   6.501
 5465POPC   C3A69305  34.711  26.806   6.869
 5465POPC   C4A69306  34.599  26.853   7.297
 5465POPC   C1B69307  34.271  26.606   6.239
 5465POPC   C2B69308  34.146  26.444   6.638
 5465POPC   C3B69309  34.243  26.588   7.036
 5465POPC   C4B69310  34.238  26.491   7.478
 5466POPC   NC369311   3.346  24.345   5.514
 5466POPC   PO469312   3.898  24.130   5.387
 5466POPC   GL169313   3.779  24.288   5.777
 5466POPC   GL269314   4.031  24.327   5.997
 5466POPC   C1A69315   3.559  24.235   6.187
 5466POPC   D2A69316   3.609  24.364   6.648
 5466POPC   C3A69317   3.518  24.091   7.014
 5466POPC   C4A69318   3.108  24.166   7.279
 5466POPC   C1B69319   3.872  24.624   6.287
 5466POPC   C2B69320   3.800  24.844   6.666
 5466POPC   C3B69321   3.714  24.633   7.079
 5466POPC   C4B69322   3.580  24.345   7.426
 5467POPC   NC369323   0.727   8.884   5.418
 5467POPC   PO469324   0.201   9.173   5.456
 5467POPC   GL169325   0.217   8.892   5.811
 5467POPC   GL269326   0.521   8.694   5.825
 5467POPC   C1A69327   0.256   9.093   6.226
 5467POPC   D2A69328   0.044   9.057   6.601
 5467POPC   C3A69329   0.170   9.067   7.006
 5467POPC   C4A69330  44.941   8.852   7.308
 5467POPC   C1B69331   0.552   8.699   6.204
 5467POPC   C2B69332   0.578   8.863   6.594
 5467POPC   C3B69333   0.485   8.673   6.970
 5467POPC   C4B69334   0.467   8.780   7.360
 5468POPC   NC369335  17.567  28.029   5.534
 5468POPC   PO469336  17.863  28.585   5.659
 5468POPC   GL169337  17.500  28.494   5.927
 5468POPC   GL269338  17.288  28.814   5.908
 5468POPC   C1A69339  17.505  28.385   6.381
 5468POPC   D2A69340  17.840  28.398   6.705
 5468POPC   C3A69341  17.696  28.370   7.115
 5468POPC   C4A69342  17.689  28.207   7.532
 5468POPC   C1B69343  17.167  28.791   6.314
 5468POPC   C2B69344  17.013  28.576   6.628
 5468POPC   C3B69345  17.124  28.644   7.034
 5468POPC   C4B69346  17.247  28.350   7.352
 5469POPC   NC369347  21.677   2.939   5.431
 5469POPC   PO469348  22.354   2.780   5.461
 5469POPC   GL169349  22.057   2.723   5.791
 5469POPC   GL269350  22.391   2.745   5.970
 5469POPC   C1A69351  21.982   2.850   6.240
 5469POPC   D2A69352  22.377   2.783   6.505
 5469POPC   C3A69353  22.308   2.611   6.903
 5469POPC   C4A69354  22.414   2.534   7.321
 5469POPC   C1B69355  22.359   3.185   6.166
 5469POPC   C2B69356  22.398   3.271   6.619
 5469POPC   C3B69357  22.307   3.116   7.032
 5469POPC   C4B69358  21.957   2.872   7.175
 5470POPC   NC369359  32.529  16.854   5.571
 5470POPC   PO469360  31.877  16.703   5.457
 5470POPC   GL169361  32.122  16.778   5.840
 5470POPC   GL269362  32.198  17.160   5.835
 5470POPC   C1A69363  32.279  16.555   6.223
 5470POPC   D2A69364  32.082  16.531   6.624
 5470POPC   C3A69365  32.294  16.512   7.037
 5470POPC   C4A69366  32.228  16.441   7.506
 5470POPC   C1B69367  32.453  17.039   6.224
 5470POPC   C2B69368  32.456  16.904   6.677
 5470POPC   C3B69369  32.541  17.090   7.094
 5470POPC   C4B69370  32.424  17.250   7.535
 5471POPC   NC369371   3.761  32.689   5.517
 5471POPC   PO469372   3.436  33.342   5.552
 5471POPC   GL169373   3.531  33.073   5.903
 5471POPC   GL269374   3.860  32.863   5.978
 5471POPC   C1A69375   3.521  33.042   6.347
 5471POPC   D2A69376   3.844  32.887   6.605
 5471POPC   C3A69377   3.569  32.774   6.927
 5471POPC   C4A69378   3.507  32.990   7.308
 5471POPC   C1B69379   3.968  33.242   6.196
 5471POPC   C2B69380   3.785  33.476   6.533
 5471POPC   C3B69381   3.688  33.293   6.914
 5471POPC   C4B69382   3.845  33.369   7.323
 5472POPC   NC369383  15.197   3.309   5.444
 5472POPC   PO469384  15.583   3.790   5.640
 5472POPC   GL169385  15.358   3.502   5.897
 5472POPC   GL269386  15.401   3.134   5.896
 5472POPC   C1A69387  15.025   3.443   6.187
 5472POPC   D2A69388  15.125   3.391   6.601
 5472POPC   C3A69389  15.184   3.665   6.934
 5472POPC   C4A69390  14.868   3.661   7.236
 5472POPC   C1B69391  15.547   3.260   6.333
 5472POPC   C2B69392  15.565   3.285   6.812
 5472POPC   C3B69393  15.532   3.415   7.262
 5472POPC   C4B69394  15.540   3.323   7.737
 5473POPC   NC369395   6.979  11.881   5.059
 5473POPC   PO469396   7.578  12.081   5.359
 5473POPC   GL169397   7.452  12.041   5.772
 5473POPC   GL269398   7.801  11.958   5.855
 5473POPC   C1A69399   7.178  12.033   6.150
 5473POPC   D2A69400   6.967  12.093   6.572
 5473POPC   C3A69401   7.131  11.963   6.991
 5473POPC   C4A69402   7.351  11.972   7.402
 5473POPC   C1B69403   7.675  12.173   6.230
 5473POPC   C2B69404   7.478  12.012   6.592
 5473POPC   C3B69405   7.662  12.035   6.998
 5473POPC   C4B69406   7.853  11.724   7.308
 5474POPC   NC369407  13.053  10.912   5.184
 5474POPC   PO469408  12.930  11.502   5.563
 5474POPC   GL169409  13.134  11.290   5.848
 5474POPC   GL269410  13.168  10.971   5.708
 5474POPC   C1A69411  13.005  11.313   6.265
 5474POPC   D2A69412  12.808  11.551   6.584
 5474POPC   C3A69413  12.944  11.362   6.991
 5474POPC   C4A69414  12.629  11.269   7.247
 5474POPC   C1B69415  13.247  10.877   6.139
 5474POPC   C2B69416  13.253  10.942   6.560
 5474POPC   C3B69417  13.150  10.838   6.973
 5474POPC   C4B69418  13.281  11.074   7.308
 5475POPC   NC369419  33.660  44.578   5.280
 5475POPC   PO469420  33.987   0.146   5.469
 5475POPC   GL169421  33.777  44.892   5.792
 5475POPC   GL269422  33.897  44.561   5.791
 5475POPC   C1A69423  33.819  44.721   6.265
 5475POPC   D2A69424  33.939  44.533   6.688
 5475POPC   C3A69425  33.627  44.670   7.023
 5475POPC   C4A69426  33.569  44.705   7.485
 5475POPC   C1B69427  34.239  44.813   6.001
 5475POPC   C2B69428  34.343  44.781   6.439
 5475POPC   C3B69429  34.338  44.842   6.902
 5475POPC   C4B69430  34.061  44.740   7.269
 5476POPC   NC369431  14.125   4.806   5.341
 5476POPC   PO469432  14.211   4.115   5.227
 5476POPC   GL169433  14.335   4.382   5.623
 5476POPC   GL269434  14.079   4.454   5.868
 5476POPC   C1A69435  14.549   4.323   6.056
 5476POPC   D2A69436  14.530   4.089   6.478
 5476POPC   C3A69437  14.395   4.289   6.891
 5476POPC   C4A69438  14.501   4.518   7.276
 5476POPC   C1B69439  14.102   4.060   6.158
 5476POPC   C2B69440  14.086   3.834   6.578
 5476POPC   C3B69441  13.942   4.066   6.974
 5476POPC   C4B69442  14.194   4.092   7.368
 5477POPC   NC369443  39.862  14.858   5.398
 5477POPC   PO469444  39.889  14.152   5.352
 5477POPC   GL169445  39.964  14.446   5.657
 5477POPC   GL269446  39.615  14.494   5.746
 5477POPC   C1A69447  40.006  14.530   6.091
 5477POPC   D2A69448  40.215  14.599   6.471
 5477POPC   C3A69449  40.139  14.344   6.827
 5477POPC   C4A69450  39.965  14.589   7.176
 5477POPC   C1B69451  39.521  14.277   6.154
 5477POPC   C2B69452  39.626  14.388   6.575
 5477POPC   C3B69453  39.681  14.175   6.958
 5477POPC   C4B69454  39.922  14.108   7.276
 5478POPC   NC369455  40.144   9.870   5.541
 5478POPC   PO469456  40.650   9.580   5.282
 5478POPC   GL169457  40.907   9.625   5.705
 5478POPC   GL269458  41.170   9.337   5.785
 5478POPC   C1A69459  40.832   9.827   6.134
 5478POPC   D2A69460  40.803  10.113   6.510
 5478POPC   C3A69461  40.770   9.982   6.952
 5478POPC   C4A69462  40.732   9.848   7.417
 5478POPC   C1B69463  40.880   9.293   6.130
 5478POPC   C2B69464  40.742   9.472   6.521
 5478POPC   C3B69465  40.701   9.485   6.973
 5478POPC   C4B69466  41.054   9.502   7.247
 5479POPC   NC369467  27.678  40.307   5.068
 5479POPC   PO469468  27.918  40.976   5.250
 5479POPC   GL169469  27.794  40.774   5.731
 5479POPC   GL269470  27.934  40.455   5.813
 5479POPC   C1A69471  27.530  40.722   6.163
 5479POPC   D2A69472  27.443  40.544   6.577
 5479POPC   C3A69473  27.575  40.756   6.937
 5479POPC   C4A69474  27.653  40.895   7.356
 5479POPC   C1B69475  28.021  40.649   6.230
 5479POPC   C2B69476  27.949  40.496   6.672
 5479POPC   C3B69477  27.972  40.512   7.138
 5479POPC   C4B69478  27.880  40.459   7.584
 5480POPC   NC369479  15.764   8.848   5.495
 5480POPC   PO469480  16.453   9.072   5.401
 5480POPC   GL169481  16.180   9.008   5.742
 5480POPC   GL269482  15.933   9.270   5.785
 5480POPC   C1A69483  16.188   9.030   6.189
 5480POPC   D2A69484  16.233   8.842   6.602
 5480POPC   C3A69485  16.151   9.006   7.012
 5480POPC   C4A69486  15.805   8.822   7.233
 5480POPC   C1B69487  15.651   9.268   6.113
 5480POPC   C2B69488  15.772   9.087   6.486
 5480POPC   C3B69489  15.660   9.161   6.877
 5480POPC   C4B69490  15.810   9.358   7.247
 5481POPC   NC369491  33.019   7.975   5.697
 5481POPC   PO469492  32.931   8.619   5.592
 5481POPC   GL169493  32.782   8.445   5.927
 5481POPC   GL269494  33.137   8.367   6.002
 5481POPC   C1A69495  32.776   8.166   6.296
 5481POPC   D2A69496  33.035   8.185   6.683
 5481POPC   C3A69497  32.810   8.215   7.061
 5481POPC   C4A69498  32.962   8.285   7.480
 5481POPC   C1B69499  33.046   8.613   6.358
 5481POPC   C2B69500  33.264   8.688   6.707
 5481POPC   C3B69501  33.234   8.516   7.081
 5481POPC   C4B69502  33.365   8.600   7.479
 5482POPC   NC369503  34.898   8.922   5.505
 5482POPC   PO469504  34.681   9.461   5.645
 5482POPC   GL169505  34.566   9.130   5.936
 5482POPC   GL269506  34.732   8.799   5.972
 5482POPC   C1A69507  34.513   9.065   6.377
 5482POPC   D2A69508  34.246   8.885   6.682
 5482POPC   C3A69509  34.381   9.097   7.020
 5482POPC   C4A69510  34.663   9.226   7.294
 5482POPC   C1B69511  35.095   8.726   6.195
 5482POPC   C2B69512  35.135   8.761   6.629
 5482POPC   C3B69513  34.774   8.781   6.869
 5482POPC   C4B69514  34.689   8.630   7.238
 5483POPC   NC369515  34.761   3.704   5.562
 5483POPC   PO469516  34.194   3.348   5.377
 5483POPC   GL169517  34.313   3.558   5.775
 5483POPC   GL269518  34.551   3.301   5.838
 5483POPC   C1A69519  34.455   3.727   6.194
 5483POPC   D2A69520  34.443   3.872   6.643
 5483POPC   C3A69521  34.675   3.655   7.019
 5483POPC   C4A69522  34.847   3.667   7.470
 5483POPC   C1B69523  34.229   3.232   6.163
 5483POPC   C2B69524  34.278   3.294   6.600
 5483POPC   C3B69525  34.411   3.174   7.002
 5483POPC   C4B69526  34.755   3.207   7.284
 5484POPC   NC369527  21.932   9.815   5.314
 5484POPC   PO469528  22.346   9.293   5.474
 5484POPC   GL169529  22.242   9.650   5.722
 5484POPC   GL269530  21.927   9.529   5.751
 5484POPC   C1A69531  22.148   9.799   6.156
 5484POPC   D2A69532  22.241   9.615   6.562
 5484POPC   C3A69533  22.141   9.885   6.914
 5484POPC   C4A69534  22.347   9.776   7.298
 5484POPC   C1B69535  21.776   9.438   6.135
 5484POPC   C2B69536  21.743   9.441   6.556
 5484POPC   C3B69537  21.951   9.417   6.949
 5484POPC   C4B69538  21.862   9.638   7.298
 5485POPC   NC369539  44.433  25.806   5.580
 5485POPC   PO469540  44.952  26.282   5.466
 5485POPC   GL169541  44.645  26.375   5.822
 5485POPC   GL269542  44.744  26.062   5.893
 5485POPC   C1A69543  44.468  26.291   6.269
 5485POPC   D2A69544  44.275  26.074   6.646
 5485POPC   C3A69545  44.542  26.165   7.032
 5485POPC   C4A69546  44.416  26.154   7.466
 5485POPC   C1B69547  44.964  25.995   6.235
 5485POPC   C2B69548  44.768  25.971   6.596
 5485POPC   C3B69549  44.704  25.697   6.911
 5485POPC   C4B69550  44.977  25.741   7.267
 5486POPC   NC369551   7.570   5.709   5.354
 5486POPC   PO469552   7.383   6.263   5.648
 5486POPC   GL169553   7.634   6.064   5.950
 5486POPC   GL269554   7.503   5.764   5.899
 5486POPC   C1A69555   7.597   5.937   6.378
 5486POPC   D2A69556   7.286   6.136   6.630
 5486POPC   C3A69557   7.352   6.274   7.039
 5486POPC   C4A69558   7.518   5.916   7.220
 5486POPC   C1B69559   7.286   5.542   6.273
 5486POPC   C2B69560   7.359   5.599   6.750
 5486POPC   C3B69561   7.204   5.503   7.196
 5486POPC   C4B69562   7.176   5.274   7.600
 5487POPC   NC369563  41.142  20.019   5.483
 5487POPC   PO469564  40.759  19.428   5.349
 5487POPC   GL169565  40.921  19.608   5.700
 5487POPC   GL269566  40.643  19.830   5.739
 5487POPC   C1A69567  41.003  19.893   6.090
 5487POPC   D2A69568  40.882  19.890   6.516
 5487POPC   C3A69569  41.026  19.794   6.926
 5487POPC   C4A69570  40.757  19.715   7.307
 5487POPC   C1B69571  40.519  20.062   6.120
 5487POPC   C2B69572  40.349  19.997   6.525
 5487POPC   C3B69573  40.532  19.966   6.895
 5487POPC   C4B69574  40.309  19.932   7.243
 5488POPC   NC369575  17.119  18.535   5.394
 5488POPC   PO469576  17.640  18.999   5.353
 5488POPC   GL169577  17.576  19.147   5.773
 5488POPC   GL269578  17.328  18.892   5.736
 5488POPC   C1A69579  17.542  19.324   6.226
 5488POPC   D2A69580  17.454  19.422   6.707
 5488POPC   C3A69581  17.644  19.164   7.050
 5488POPC   C4A69582  17.921  19.251   7.377
 5488POPC   C1B69583  17.134  19.040   6.089
 5488POPC   C2B69584  17.207  18.963   6.497
 5488POPC   C3B69585  17.237  18.898   6.907
 5488POPC   C4B69586  17.298  18.839   7.363
 5489POPC   NC369587  25.615  36.141   5.492
 5489POPC   PO469588  24.900  36.363   5.425
 5489POPC   GL169589  25.196  36.292   5.751
 5489POPC   GL269590  25.201  35.933   5.782
 5489POPC   C1A69591  25.357  36.346   6.167
 5489POPC   D2A69592  25.283  36.482   6.584
 5489POPC   C3A69593  25.368  36.189   6.925
 5489POPC   C4A69594  25.212  36.381   7.286
 5489POPC   C1B69595  25.190  35.844   6.238
 5489POPC   C2B69596  25.238  35.723   6.685
 5489POPC   C3B69597  25.067  35.831   7.138
 5489POPC   C4B69598  25.250  35.940   7.564
 5490POPC   NC369599  19.190  30.448   5.551
 5490POPC   PO469600  18.919  31.096   5.524
 5490POPC   GL169601  18.879  30.745   5.843
 5490POPC   GL269602  18.848  30.355   5.931
 5490POPC   C1A69603  18.697  30.730   6.249
 5490POPC   D2A69604  18.864  30.728   6.645
 5490POPC   C3A69605  18.771  30.799   7.051
 5490POPC   C4A69606  19.212  30.887   7.193
 5490POPC   C1B69607  19.176  30.483   6.226
 5490POPC   C2B69608  19.330  30.539   6.646
 5490POPC   C3B69609  19.133  30.405   7.077
 5490POPC   C4B69610  19.392  30.407   7.472
 5491POPC   NC369611  19.035  12.756   5.400
 5491POPC   PO469612  19.647  12.959   5.434
 5491POPC   GL169613  19.427  12.841   5.806
 5491POPC   GL269614  19.102  13.029   5.862
 5491POPC   C1A69615  19.158  12.582   6.079
 5491POPC   D2A69616  18.849  12.818   6.337
 5491POPC   C3A69617  18.877  12.791   6.775
 5491POPC   C4A69618  18.966  12.609   7.176
 5491POPC   C1B69619  19.129  13.260   6.255
 5491POPC   C2B69620  19.180  13.209   6.700
 5491POPC   C3B69621  19.025  13.114   7.146
 5491POPC   C4B69622  19.032  13.147   7.604
 5492POPC   NC369623   5.035  28.738   5.641
 5492POPC   PO469624   5.264  28.103   5.515
 5492POPC   GL169625   5.252  28.322   5.858
 5492POPC   GL269626   5.503  28.573   5.826
 5492POPC   C1A69627   5.053  28.221   6.209
 5492POPC   D2A69628   5.111  28.213   6.619
 5492POPC   C3A69629   4.907  28.197   6.969
 5492POPC   C4A69630   5.176  28.196   7.328
 5492POPC   C1B69631   5.418  28.746   6.236
 5492POPC   C2B69632   5.478  28.548   6.620
 5492POPC   C3B69633   5.292  28.600   7.001
 5492POPC   C4B69634   5.395  28.972   7.226
 5493POPC   NC369635  44.126   3.024   5.418
 5493POPC   PO469636  43.586   2.634   5.396
 5493POPC   GL169637  43.708   2.735   5.811
 5493POPC   GL269638  44.071   2.665   5.878
 5493POPC   C1A69639  43.781   3.025   6.145
 5493POPC   D2A69640  43.886   3.164   6.558
 5493POPC   C3A69641  43.718   2.880   6.860
 5493POPC   C4A69642  43.714   2.825   7.287
 5493POPC   C1B69643  44.219   2.783   6.283
 5493POPC   C2B69644  44.224   2.801   6.713
 5493POPC   C3B69645  44.167   2.704   7.125
 5493POPC   C4B69646  44.107   2.494   7.525
 5494POPC   NC369647  13.016  44.144   5.086
 5494POPC   PO469648  12.760  43.653   5.499
 5494POPC   GL169649  12.689  43.853   5.864
 5494POPC   GL269650  12.360  43.942   5.851
 5494POPC   C1A69651  12.785  43.739   6.266
 5494POPC   D2A69652  12.969  43.896   6.623
 5494POPC   C3A69653  13.218  43.652   6.879
 5494POPC   C4A69654  13.101  43.837   7.266
 5494POPC   C1B69655  12.362  44.209   6.230
 5494POPC   C2B69656  12.548  44.289   6.651
 5494POPC   C3B69657  12.660  44.055   7.011
 5494POPC   C4B69658  12.610  43.858   7.401
 5495POPC   NC369659  16.755  23.205   5.459
 5495POPC   PO469660  16.931  22.561   5.402
 5495POPC   GL169661  17.005  22.889   5.778
 5495POPC   GL269662  16.699  23.056   5.929
 5495POPC   C1A69663  17.111  23.078   6.206
 5495POPC   D2A69664  16.826  23.076   6.561
 5495POPC   C3A69665  16.949  23.069   6.954
 5495POPC   C4A69666  16.818  22.888   7.340
 5495POPC   C1B69667  16.390  23.120   6.256
 5495POPC   C2B69668  16.346  22.908   6.632
 5495POPC   C3B69669  16.441  23.005   7.017
 5495POPC   C4B69670  16.405  23.357   7.238
 5496POPC   NC369671  28.148   0.455   5.335
 5496POPC   PO469672  28.647   0.747   5.653
 5496POPC   GL169673  28.393   0.549   5.924
 5496POPC   GL269674  28.275   0.248   5.822
 5496POPC   C1A69675  28.405   0.549   6.342
 5496POPC   D2A69676  28.193   0.583   6.699
 5496POPC   C3A69677  28.434   0.722   6.986
 5496POPC   C4A69678  28.523   0.634   7.396
 5496POPC   C1B69679  28.345   0.032   6.212
 5496POPC   C2B69680  28.481   0.122   6.634
 5496POPC   C3B69681  28.316   0.206   7.050
 5496POPC   C4B69682  28.336   0.167   7.491
 5497POPC   NC369683  19.198   6.088   5.556
 5497POPC   PO469684  19.102   5.425   5.429
 5497POPC   GL169685  18.997   5.589   5.814
 5497POPC   GL269686  19.195   5.359   5.979
 5497POPC   C1A69687  19.026   5.802   6.218
 5497POPC   D2A69688  18.909   5.831   6.667
 5497POPC   C3A69689  18.934   6.199   6.942
 5497POPC   C4A69690  18.851   6.141   7.335
 5497POPC   C1B69691  19.457   5.533   6.271
 5497POPC   C2B69692  19.430   5.746   6.639
 5497POPC   C3B69693  19.294   5.861   7.047
 5497POPC   C4B69694  19.514   5.763   7.393
 5498POPC   NC369695  44.996  16.316   5.202
 5498POPC   PO469696  44.488  15.843   5.371
 5498POPC   GL169697  44.706  15.938   5.755
 5498POPC   GL269698  44.789  16.307   5.685
 5498POPC   C1A69699  44.643  15.763   6.206
 5498POPC   D2A69700  44.785  15.631   6.656
 5498POPC   C3A69701  44.561  15.826   7.012
 5498POPC   C4A69702  44.318  15.657   7.388
 5498POPC   C1B69703  44.642  16.302   6.137
 5498POPC   C2B69704  44.622  16.165   6.578
 5498POPC   C3B69705  44.542  16.353   7.020
 5498POPC   C4B69706  44.543  16.314   7.506
 5499POPC   NC369707  25.833  24.895   5.621
 5499POPC   PO469708  25.202  25.066   5.342
 5499POPC   GL169709  25.194  25.283   5.755
 5499POPC   GL269710  25.474  25.531   5.736
 5499POPC   C1A69711  24.996  25.315   6.163
 5499POPC   D2A69712  24.961  25.050   6.525
 5499POPC   C3A69713  25.033  25.231   6.930
 5499POPC   C4A69714  24.993  25.083   7.361
 5499POPC   C1B69715  25.529  25.323   6.150
 5499POPC   C2B69716  25.349  25.442   6.554
 5499POPC   C3B69717  25.506  25.465   6.964
 5499POPC   C4B69718  25.464  25.297   7.345
 5500POPC   NC369719   4.308  18.839   5.337
 5500POPC   PO469720   3.965  19.434   5.334
 5500POPC   GL169721   4.280  19.302   5.724
 5500POPC   GL269722   4.354  18.930   5.819
 5500POPC   C1A69723   4.300  19.217   6.212
 5500POPC   D2A69724   4.471  19.272   6.597
 5500POPC   C3A69725   4.226  19.362   6.916
 5500POPC   C4A69726   4.389  19.306   7.280
 5500POPC   C1B69727   4.379  18.700   6.222
 5500POPC   C2B69728   4.475  18.771   6.654
 5500POPC   C3B69729   4.302  18.869   7.030
 5500POPC   C4B69730   4.155  18.700   7.392
 5501POPC   NC369731   8.140  29.280   5.140
 5501POPC   PO469732   7.855  29.068   5.657
 5501POPC   GL169733   8.145  29.274   5.887
 5501POPC   GL269734   8.139  29.570   5.695
 5501POPC   C1A69735   8.326  29.133   6.270
 5501POPC   D2A69736   8.113  29.057   6.649
 5501POPC   C3A69737   8.319  29.056   7.024
 5501POPC   C4A69738   8.054  28.900   7.308
 5501POPC   C1B69739   8.086  29.666   6.173
 5501POPC   C2B69740   8.212  29.549   6.580
 5501POPC   C3B69741   8.013  29.473   6.974
 5501POPC   C4B69742   8.183  29.397   7.377
 5502POPC   NC369743  13.056  17.865   5.472
 5502POPC   PO469744  13.025  17.182   5.454
 5502POPC   GL169745  12.915  17.444   5.787
 5502POPC   GL269746  12.559  17.446   5.765
 5502POPC   C1A69747  12.873  17.671   6.178
 5502POPC   D2A69748  12.990  17.468   6.572
 5502POPC   C3A69749  13.102  17.718   6.916
 5502POPC   C4A69750  12.891  17.669   7.296
 5502POPC   C1B69751  12.521  17.279   6.188
 5502POPC   C2B69752  12.445  17.424   6.601
 5502POPC   C3B69753  12.675  17.256   6.948
 5502POPC   C4B69754  12.573  17.261   7.365
 5503POPC   NC369755   1.864  39.710   5.585
 5503POPC   PO469756   2.237  40.125   5.467
 5503POPC   GL169757   2.164  40.016   5.885
 5503POPC   GL269758   2.383  39.733   5.807
 5503POPC   C1A69759   1.851  40.023   6.254
 5503POPC   D2A69760   1.903  40.256   6.678
 5503POPC   C3A69761   1.836  40.087   7.079
 5503POPC   C4A69762   1.711  39.796   7.388
 5503POPC   C1B69763   2.344  39.678   6.220
 5503POPC   C2B69764   2.237  39.894   6.563
 5503POPC   C3B69765   2.347  39.924   6.953
 5503POPC   C4B69766   2.215  39.772   7.306
 5504POPC   NC369767   2.187  42.109   5.494
 5504POPC   PO469768   2.240  42.776   5.430
 5504POPC   GL169769   1.948  42.614   5.798
 5504POPC   GL269770   1.781  42.263   5.810
 5504POPC   C1A69771   1.965  42.563   6.278
 5504POPC   D2A69772   1.953  42.628   6.742
 5504POPC   C3A69773   2.129  42.395   7.068
 5504POPC   C4A69774   1.719  42.366   7.231
 5504POPC   C1B69775   1.996  42.054   6.167
 5504POPC   C2B69776   2.086  42.121   6.594
 5504POPC   C3B69777   1.890  41.958   6.950
 5504POPC   C4B69778   2.019  41.991   7.381
 5505POPC   NC369779  36.301  16.931   5.457
 5505POPC   PO469780  35.690  16.808   5.667
 5505POPC   GL169781  36.043  16.675   5.857
 5505POPC   GL269782  36.008  16.341   5.747
 5505POPC   C1A69783  36.288  16.891   6.158
 5505POPC   D2A69784  36.200  17.061   6.570
 5505POPC   C3A69785  36.212  16.842   6.936
 5505POPC   C4A69786  36.277  16.599   7.282
 5505POPC   C1B69787  35.896  16.308   6.213
 5505POPC   C2B69788  35.767  16.438   6.662
 5505POPC   C3B69789  35.823  16.485   7.099
 5505POPC   C4B69790  35.802  16.217   7.482
 5506POPC   NC369791  41.620  17.321   5.362
 5506POPC   PO469792  41.357  17.983   5.482
 5506POPC   GL169793  41.614  17.680   5.718
 5506POPC   GL269794  41.940  17.792   5.894
 5506POPC   C1A69795  41.624  17.345   6.045
 5506POPC   D2A69796  41.413  17.177   6.439
 5506POPC   C3A69797  41.595  17.321   6.847
 5506POPC   C4A69798  41.396  17.419   7.227
 5506POPC   C1B69799  41.591  17.878   6.160
 5506POPC   C2B69800  41.473  17.710   6.518
 5506POPC   C3B69801  41.340  17.808   6.872
 5506POPC   C4B69802  41.537  17.896   7.232
 5507POPC   NC369803   6.223   0.058   5.423
 5507POPC   PO469804   5.763  44.525   5.455
 5507POPC   GL169805   5.828  44.615   5.845
 5507POPC   GL269806   5.921  44.940   5.826
 5507POPC   C1A69807   6.114  44.627   6.196
 5507POPC   D2A69808   6.197  44.834   6.587
 5507POPC   C3A69809   6.047  44.561   6.924
 5507POPC   C4A69810   6.152  44.637   7.323
 5507POPC   C1B69811   5.711  44.949   6.215
 5507POPC   C2B69812   5.683  44.807   6.635
 5507POPC   C3B69813   5.801  44.987   7.039
 5507POPC   C4B69814   5.750  44.969   7.511
 5508POPC   NC369815   8.200   4.606   5.091
 5508POPC   PO469816   7.904   4.029   5.272
 5508POPC   GL169817   8.090   4.131   5.741
 5508POPC   GL269818   8.446   3.962   5.818
 5508POPC   C1A69819   7.908   4.383   6.165
 5508POPC   D2A69820   7.890   4.255   6.639
 5508POPC   C3A69821   8.003   4.557   6.955
 5508POPC   C4A69822   8.276   4.584   7.316
 5508POPC   C1B69823   8.355   4.164   6.220
 5508POPC   C2B69824   8.405   4.345   6.636
 5508POPC   C3B69825   8.269   4.118   7.010
 5508POPC   C4B69826   8.167   3.863   7.373
 5509POPC   NC369827  16.986  41.911   5.431
 5509POPC   PO469828  16.420  41.497   5.464
 5509POPC   GL169829  16.521  41.769   5.848
 5509POPC   GL269830  16.873  41.706   5.882
 5509POPC   C1A69831  16.626  41.840   6.329
 5509POPC   D2A69832  16.703  41.547   6.706
 5509POPC   C3A69833  16.583  41.584   7.160
 5509POPC   C4A69834  16.420  41.446   7.553
 5509POPC   C1B69835  17.088  41.617   6.260
 5509POPC   C2B69836  17.143  41.801   6.652
 5509POPC   C3B69837  17.082  41.613   7.077
 5509POPC   C4B69838  16.976  41.417   7.482
 5510POPC   NC369839  31.517  36.156   5.296
 5510POPC   PO469840  31.031  36.418   5.487
 5510POPC   GL169841  31.399  36.379   5.827
 5510POPC   GL269842  31.696  36.128   5.767
 5510POPC   C1A69843  31.452  36.472   6.308
 5510POPC   D2A69844  31.340  36.533   6.767
 5510POPC   C3A69845  31.459  36.158   7.037
 5510POPC   C4A69846  31.194  35.789   7.136
 5510POPC   C1B69847  31.819  36.129   6.171
 5510POPC   C2B69848  31.681  36.012   6.568
 5510POPC   C3B69849  31.929  35.985   6.908
 5510POPC   C4B69850  31.925  36.215   7.262
 5511POPC   NC369851  29.134  32.440   5.461
 5511POPC   PO469852  29.361  33.065   5.376
 5511POPC   GL169853  29.068  32.906   5.694
 5511POPC   GL269854  29.327  32.701   5.855
 5511POPC   C1A69855  28.877  32.793   6.124
 5511POPC   D2A69856  28.872  33.054   6.516
 5511POPC   C3A69857  28.997  32.891   6.957
 5511POPC   C4A69858  28.993  33.200   7.348
 5511POPC   C1B69859  29.276  33.096   6.131
 5511POPC   C2B69860  29.375  33.075   6.566
 5511POPC   C3B69861  29.335  33.263   6.959
 5511POPC   C4B69862  29.426  33.531   7.315
 5512POPC   NC369863   7.535   4.893   5.417
 5512POPC   PO469864   7.149   5.490   5.357
 5512POPC   GL169865   7.314   5.299   5.747
 5512POPC   GL269866   7.683   5.321   5.749
 5512POPC   C1A69867   7.453   5.026   6.108
 5512POPC   D2A69868   7.466   5.126   6.541
 5512POPC   C3A69869   7.685   4.953   6.880
 5512POPC   C4A69870   7.467   5.053   7.226
 5512POPC   C1B69871   7.763   5.425   6.212
 5512POPC   C2B69872   7.950   5.294   6.595
 5512POPC   C3B69873   7.812   5.450   7.000
 5512POPC   C4B69874   7.674   5.481   7.425
 5513POPC   NC369875  18.298  43.564   5.439
 5513POPC   PO469876  18.262  42.923   5.224
 5513POPC   GL169877  18.156  43.098   5.676
 5513POPC   GL269878  18.310  42.841   5.853
 5513POPC   C1A69879  18.273  43.304   6.122
 5513POPC   D2A69880  18.477  43.356   6.561
 5513POPC   C3A69881  18.295  43.459   6.979
 5513POPC   C4A69882  18.438  43.517   7.418
 5513POPC   C1B69883  18.239  42.838   6.299
 5513POPC   C2B69884  18.287  42.647   6.680
 5513POPC   C3B69885  18.063  42.803   7.007
 5513POPC   C4B69886  18.180  43.053   7.335
 5514POPC   NC369887  19.629  16.083   5.551
 5514POPC   PO469888  20.288  16.205   5.554
 5514POPC   GL169889  20.033  16.162   5.903
 5514POPC   GL269890  19.982  15.850   5.988
 5514POPC   C1A69891  20.163  16.325   6.314
 5514POPC   D2A69892  20.103  16.362   6.770
 5514POPC   C3A69893  19.827  16.032   6.910
 5514POPC   C4A69894  19.799  15.841   7.284
 5514POPC   C1B69895  19.747  15.595   6.233
 5514POPC   C2B69896  19.574  15.677   6.635
 5514POPC   C3B69897  19.491  15.555   7.038
 5514POPC   C4B69898  19.654  15.368   7.460
 5515POPC   NC369899  24.428  12.321   5.180
 5515POPC   PO469900  24.740  11.845   5.502
 5515POPC   GL169901  24.518  11.965   5.881
 5515POPC   GL269902  24.203  11.782   5.874
 5515POPC   C1A69903  24.684  12.011   6.327
 5515POPC   D2A69904  24.785  12.290   6.671
 5515POPC   C3A69905  24.640  12.175   7.077
 5515POPC   C4A69906  24.685  12.487   7.393
 5515POPC   C1B69907  24.183  11.936   6.317
 5515POPC   C2B69908  24.247  12.050   6.761
 5515POPC   C3B69909  24.129  11.971   7.187
 5515POPC   C4B69910  24.208  11.648   7.525
 5516POPC   NC369911  33.286  10.353   5.488
 5516POPC   PO469912  32.798  10.687   5.200
 5516POPC   GL169913  32.886  10.549   5.706
 5516POPC   GL269914  33.029  10.203   5.910
 5516POPC   C1A69915  32.967  10.626   6.183
 5516POPC   D2A69916  32.810  10.475   6.611
 5516POPC   C3A69917  32.892  10.678   7.029
 5516POPC   C4A69918  33.164  10.972   7.248
 5516POPC   C1B69919  33.307  10.074   6.275
 5516POPC   C2B69920  33.348  10.071   6.759
 5516POPC   C3B69921  33.068  10.181   7.135
 5516POPC   C4B69922  33.094  10.074   7.622
 5517POPC   NC369923  19.163  28.544   5.517
 5517POPC   PO469924  18.884  27.907   5.431
 5517POPC   GL169925  19.020  28.107   5.813
 5517POPC   GL269926  18.791  28.368   5.857
 5517POPC   C1A69927  19.175  28.360   6.191
 5517POPC   D2A69928  18.953  28.618   6.508
 5517POPC   C3A69929  19.098  28.549   6.930
 5517POPC   C4A69930  18.995  28.184   7.135
 5517POPC   C1B69931  18.673  28.235   6.287
 5517POPC   C2B69932  18.511  28.028   6.655
 5517POPC   C3B69933  18.516  28.019   7.134
 5517POPC   C4B69934  18.677  28.227   7.533
 5518POPC   NC369935  31.624   3.167   5.433
 5518POPC   PO469936  31.258   3.718   5.279
 5518POPC   GL169937  31.335   3.503   5.716
 5518POPC   GL269938  31.710   3.413   5.860
 5518POPC   C1A69939  31.354   3.543   6.185
 5518POPC   D2A69940  31.564   3.435   6.582
 5518POPC   C3A69941  31.310   3.583   6.937
 5518POPC   C4A69942  31.124   3.378   7.295
 5518POPC   C1B69943  31.841   3.762   6.178
 5518POPC   C2B69944  31.961   3.763   6.638
 5518POPC   C3B69945  31.816   3.523   7.025
 5518POPC   C4B69946  31.910   3.536   7.465
 5519POPC   NC369947   8.776  16.449   5.481
 5519POPC   PO469948   8.452  17.064   5.346
 5519POPC   GL169949   8.846  16.916   5.688
 5519POPC   GL269950   8.705  16.668   5.939
 5519POPC   C1A69951   9.179  16.654   6.038
 5519POPC   D2A69952   9.088  16.606   6.513
 5519POPC   C3A69953   9.241  16.427   6.915
 5519POPC   C4A69954   9.095  16.259   7.308
 5519POPC   C1B69955   8.885  17.028   6.224
 5519POPC   C2B69956   8.950  17.166   6.672
 5519POPC   C3B69957   9.012  16.870   7.022
 5519POPC   C4B69958   8.878  16.734   7.447
 5520POPC   NC369959  34.388  11.453   5.180
 5520POPC   PO469960  34.602  12.018   5.533
 5520POPC   GL169961  34.515  12.030   5.962
 5520POPC   GL269962  34.424  12.381   5.989
 5520POPC   C1A69963  34.414  11.744   6.309
 5520POPC   D2A69964  34.377  11.973   6.659
 5520POPC   C3A69965  34.635  11.977   7.013
 5520POPC   C4A69966  34.417  12.247   7.303
 5520POPC   C1B69967  34.548  12.423   6.437
 5520POPC   C2B69968  34.798  12.506   6.838
 5520POPC   C3B69969  34.905  12.338   7.263
 5520POPC   C4B69970  35.127  12.126   7.602
 5521POPC   NC369971  27.111   1.104   5.476
 5521POPC   PO469972  26.675   1.500   5.260
 5521POPC   GL169973  26.695   1.374   5.704
 5521POPC   GL269974  27.031   1.474   5.841
 5521POPC   C1A69975  26.619   1.411   6.176
 5521POPC   D2A69976  26.492   1.189   6.563
 5521POPC   C3A69977  26.667   1.248   6.977
 5521POPC   C4A69978  26.379   1.341   7.302
 5521POPC   C1B69979  27.073   1.639   6.269
 5521POPC   C2B69980  26.944   1.636   6.699
 5521POPC   C3B69981  27.110   1.509   7.071
 5521POPC   C4B69982  27.192   1.189   7.309
 5522POPC   NC369983  43.463  20.992   5.507
 5522POPC   PO469984  43.131  20.370   5.481
 5522POPC   GL169985  43.032  20.703   5.760
 5522POPC   GL269986  43.348  20.748   5.968
 5522POPC   C1A69987  42.890  20.649   6.188
 5522POPC   D2A69988  43.165  20.675   6.538
 5522POPC   C3A69989  43.011  20.570   6.914
 5522POPC   C4A69990  43.096  20.707   7.308
 5522POPC   C1B69991  43.285  20.317   6.193
 5522POPC   C2B69992  43.222  20.153   6.646
 5522POPC   C3B69993  43.394  20.245   7.078
 5522POPC   C4B69994  43.412  20.366   7.527
 5523POPC   NC369995  34.980  30.158   5.442
 5523POPC   PO469996  34.452  29.706   5.506
 5523POPC   GL169997  34.357  29.832   5.884
 5523POPC   GL269998  34.260  30.144   5.820
 5523POPC   C1A69999  34.388  29.814   6.313
 5523POPC   D2A70000  34.697  29.847   6.621
 5523POPC   C3A70001  34.351  29.812   6.903
 5523POPC   C4A70002  34.246  29.560   7.254
 5523POPC   C1B70003  34.623  30.225   6.107
 5523POPC   C2B70004  34.505  30.324   6.534
 5523POPC   C3B70005  34.638  30.246   6.948
 5523POPC   C4B70006  34.640  29.971   7.293
 5524POPC   NC370007  11.633  30.281   5.677
 5524POPC   PO470008  11.431  30.829   5.400
 5524POPC   GL170009  11.220  30.668   5.756
 5524POPC   GL270010  11.475  30.645   6.002
 5524POPC   C1A70011  11.022  30.788   6.135
 5524POPC   D2A70012  11.266  30.913   6.464
 5524POPC   C3A70013  11.037  30.907   6.813
 5524POPC   C4A70014  11.030  30.906   7.207
 5524POPC   C1B70015  11.308  30.397   6.334
 5524POPC   C2B70016  11.245  30.455   6.749
 5524POPC   C3B70017  11.486  30.675   7.054
 5524POPC   C4B70018  11.628  30.403   7.353
 5525POPC   NC370019  25.138   8.603   5.331
 5525POPC   PO470020  25.486   9.170   5.313
 5525POPC   GL170021  25.277   9.025   5.728
 5525POPC   GL270022  25.142   8.698   5.874
 5525POPC   C1A70023  25.434   9.055   6.191
 5525POPC   D2A70024  25.389   9.162   6.653
 5525POPC   C3A70025  25.362   9.050   7.090
 5525POPC   C4A70026  25.335   9.116   7.545
 5525POPC   C1B70027  25.172   8.625   6.365
 5525POPC   C2B70028  25.160   8.614   6.854
 5525POPC   C3B70029  25.049   8.703   7.310
 5525POPC   C4B70030  24.682   8.756   7.609
 5526POPC   NC370031  23.928  44.334   5.474
 5526POPC   PO470032  23.601  44.904   5.530
 5526POPC   GL170033  23.908  44.744   5.803
 5526POPC   GL270034  23.792  44.398   5.954
 5526POPC   C1A70035  24.103  44.706   6.204
 5526POPC   D2A70036  23.912  44.417   6.482
 5526POPC   C3A70037  23.957  44.492   6.905
 5526POPC   C4A70038  23.795  44.225   7.193
 5526POPC   C1B70039  23.467  44.530   6.220
 5526POPC   C2B70040  23.428  44.721   6.611
 5526POPC   C3B70041  23.432  44.555   7.015
 5526POPC   C4B70042  23.086  44.438   7.270
 5527POPC   NC370043  17.925  11.375   5.620
 5527POPC   PO470044  18.507  11.269   5.198
 5527POPC   GL170045  18.375  11.184   5.731
 5527POPC   GL270046  18.296  11.489   5.950
 5527POPC   C1A70047  18.452  11.110   6.232
 5527POPC   D2A70048  18.452  11.354   6.642
 5527POPC   C3A70049  18.236  11.225   7.046
 5527POPC   C4A70050  18.344  11.251   7.511
 5527POPC   C1B70051  17.971  11.472   6.308
 5527POPC   C2B70052  17.808  11.756   6.655
 5527POPC   C3B70053  17.816  11.721   7.114
 5527POPC   C4B70054  17.900  11.508   7.531
 5528POPC   NC370055  39.573  41.721   5.601
 5528POPC   PO470056  38.959  41.487   5.411
 5528POPC   GL170057  39.101  41.563   5.805
 5528POPC   GL270058  39.391  41.358   5.881
 5528POPC   C1A70059  39.192  41.685   6.221
 5528POPC   D2A70060  39.345  41.453   6.553
 5528POPC   C3A70061  39.289  41.676   6.914
 5528POPC   C4A70062  39.542  41.594   7.252
 5528POPC   C1B70063  39.186  41.138   6.153
 5528POPC   C2B70064  38.958  41.105   6.507
 5528POPC   C3B70065  39.017  41.228   6.905
 5528POPC   C4B70066  38.898  41.356   7.309
 5529POPC   NC370067  37.080  17.700   5.444
 5529POPC   PO470068  36.680  17.183   5.596
 5529POPC   GL170069  36.894  17.466   5.876
 5529POPC   GL270070  37.175  17.326   5.866
 5529POPC   C1A70071  36.943  17.471   6.328
 5529POPC   D2A70072  36.953  17.685   6.729
 5529POPC   C3A70073  36.610  17.555   6.994
 5529POPC   C4A70074  36.678  17.727   7.400
 5529POPC   C1B70075  37.406  17.174   6.211
 5529POPC   C2B70076  37.356  17.034   6.622
 5529POPC   C3B70077  37.085  17.020   6.963
 5529POPC   C4B70078  36.957  17.316   7.254
 5530POPC   NC370079   9.285  19.139   5.437
 5530POPC   PO470080   8.774  18.657   5.398
 5530POPC   GL170081   8.896  18.884   5.779
 5530POPC   GL270082   9.237  18.928   5.909
 5530POPC   C1A70083   8.790  19.065   6.180
 5530POPC   D2A70084   8.946  19.222   6.549
 5530POPC   C3A70085   8.760  19.097   6.934
 5530POPC   C4A70086   8.816  18.777   7.203
 5530POPC   C1B70087   9.357  19.320   6.164
 5530POPC   C2B70088   9.339  19.536   6.594
 5530POPC   C3B70089   9.221  19.304   6.986
 5530POPC   C4B70090   8.940  19.270   7.385
 5531POPC   NC370091  42.633  29.063   5.373
 5531POPC   PO470092  42.280  29.533   5.675
 5531POPC   GL170093  42.248  29.130   5.838
 5531POPC   GL270094  41.982  28.881   5.732
 5531POPC   C1A70095  42.168  29.224   6.247
 5531POPC   D2A70096  42.400  29.178   6.565
 5531POPC   C3A70097  42.449  29.483   6.858
 5531POPC   C4A70098  42.390  29.363   7.273
 5531POPC   C1B70099  41.875  28.824   6.182
 5531POPC   C2B70100  42.101  28.751   6.617
 5531POPC   C3B70101  42.363  28.889   6.974
 5531POPC   C4B70102  42.145  28.919   7.344
 5532POPC   NC370103  23.036  26.948   5.517
 5532POPC   PO470104  22.400  27.254   5.427
 5532POPC   GL170105  22.618  27.072   5.822
 5532POPC   GL270106  22.796  26.716   5.871
 5532POPC   C1A70107  22.866  27.056   6.225
 5532POPC   D2A70108  22.812  26.830   6.595
 5532POPC   C3A70109  23.030  26.893   6.970
 5532POPC   C4A70110  22.712  27.010   7.229
 5532POPC   C1B70111  22.976  26.470   6.266
 5532POPC   C2B70112  22.998  26.372   6.751
 5532POPC   C3B70113  22.881  26.473   7.201
 5532POPC   C4B70114  22.829  26.299   7.599
 5533POPC   NC370115  34.178  44.709   5.164
 5533POPC   PO470116  34.733   0.028   5.380
 5533POPC   GL170117  34.678  44.638   5.623
 5533POPC   GL270118  34.396  44.432   5.728
 5533POPC   C1A70119  34.715  44.648   6.094
 5533POPC   D2A70120  34.864  44.620   6.532
 5533POPC   C3A70121  34.859  44.901   6.869
 5533POPC   C4A70122  34.687  44.920   7.279
 5533POPC   C1B70123  34.307  44.294   6.172
 5533POPC   C2B70124  34.456  44.321   6.614
 5533POPC   C3B70125  34.278  44.344   7.026
 5533POPC   C4B70126  34.424  44.462   7.459
 5534POPC   NC370127  33.728   0.524   5.528
 5534POPC   PO470128  33.114   0.552   5.291
 5534POPC   GL170129  33.148   0.423   5.704
 5534POPC   GL270130  33.331   0.700   5.779
 5534POPC   C1A70131  32.843   0.359   6.062
 5534POPC   D2A70132  32.582   0.477   6.443
 5534POPC   C3A70133  32.714   0.275   6.843
 5534POPC   C4A70134  32.818   0.460   7.240
 5534POPC   C1B70135  33.330   0.604   6.188
 5534POPC   C2B70136  33.268   0.794   6.560
 5534POPC   C3B70137  33.203   0.549   6.912
 5534POPC   C4B70138  33.292   0.712   7.305
 5535POPC   NC370139   8.336   1.392   5.526
 5535POPC   PO470140   7.866   0.962   5.449
 5535POPC   GL170141   8.039   1.145   5.845
 5535POPC   GL270142   8.307   0.917   5.859
 5535POPC   C1A70143   8.246   1.350   6.227
 5535POPC   D2A70144   8.570   1.403   6.561
 5535POPC   C3A70145   8.364   1.460   6.957
 5535POPC   C4A70146   8.061   1.449   7.269
 5535POPC   C1B70147   8.084   0.858   6.261
 5535POPC   C2B70148   8.075   1.074   6.632
 5535POPC   C3B70149   8.169   0.978   7.031
 5535POPC   C4B70150   7.931   0.951   7.363
 5536POPC   NC370151  39.542  20.719   5.336
 5536POPC   PO470152  40.161  20.535   5.345
 5536POPC   GL170153  40.200  20.467   5.776
 5536POPC   GL270154  39.979  20.717   5.842
 5536POPC   C1A70155  40.085  20.325   6.189
 5536POPC   D2A70156  40.196  20.502   6.583
 5536POPC   C3A70157  40.113  20.282   6.917
 5536POPC   C4A70158  40.269  20.427   7.299
 5536POPC   C1B70159  40.121  20.877   6.230
 5536POPC   C2B70160  39.973  20.987   6.635
 5536POPC   C3B70161  40.091  20.813   7.012
 5536POPC   C4B70162  39.889  20.756   7.413
 5537POPC   NC370163   1.280  12.577   5.539
 5537POPC   PO470164   1.446  13.217   5.665
 5537POPC   GL170165   1.319  12.908   5.953
 5537POPC   GL270166   1.007  12.806   5.931
 5537POPC   C1A70167   1.278  12.745   6.368
 5537POPC   D2A70168   1.514  12.801   6.715
 5537POPC   C3A70169   1.291  12.696   7.028
 5537POPC   C4A70170   1.135  13.117   7.121
 5537POPC   C1B70171   0.763  12.797   6.299
 5537POPC   C2B70172   0.890  12.882   6.717
 5537POPC   C3B70173   0.799  12.727   7.112
 5537POPC   C4B70174   1.037  12.523   7.448
 5538POPC   NC370175  18.338   4.495   5.524
 5538POPC   PO470176  18.676   3.946   5.758
 5538POPC   GL170177  18.213   4.052   5.824
 5538POPC   GL270178  18.005   4.394   5.886
 5538POPC   C1A70179  18.124   4.067   6.262
 5538POPC   D2A70180  18.441   4.132   6.574
 5538POPC   C3A70181  18.241   4.215   6.963
 5538POPC   C4A70182  18.397   3.919   7.237
 5538POPC   C1B70183  18.329   4.571   6.176
 5538POPC   C2B70184  18.371   4.625   6.608
 5538POPC   C3B70185  18.289   4.737   6.998
 5538POPC   C4B70186  18.586   4.962   7.179
 5539POPC   NC370187   0.528  32.008   5.500
 5539POPC   PO470188   0.280  32.619   5.394
 5539POPC   GL170189   0.274  32.362   5.780
 5539POPC   GL270190   0.074  32.064   5.742
 5539POPC   C1A70191   0.496  32.314   6.185
 5539POPC   D2A70192   0.484  32.491   6.604
 5539POPC   C3A70193   0.645  32.325   6.936
 5539POPC   C4A70194   0.596  32.022   7.221
 5539POPC   C1B70195   0.044  32.031   6.162
 5539POPC   C2B70196   0.016  32.293   6.519
 5539POPC   C3B70197   0.161  32.153   6.918
 5539POPC   C4B70198   0.174  32.337   7.282
 5540POPC   NC370199  23.150   0.039   5.476
 5540POPC   PO470200  22.685  44.511   5.560
 5540POPC   GL170201  22.989  44.599   5.908
 5540POPC   GL270202  23.221  44.885   5.951
 5540POPC   C1A70203  22.979  44.669   6.359
 5540POPC   D2A70204  23.002  44.459   6.744
 5540POPC   C3A70205  22.665  44.526   7.036
 5540POPC   C4A70206  22.673  44.531   7.541
 5540POPC   C1B70207  23.201   0.187   6.297
 5540POPC   C2B70208  23.213   0.178   6.749
 5540POPC   C3B70209  23.047  44.905   7.023
 5540POPC   C4B70210  22.731  44.958   7.307
 5541POPC   NC370211  44.008  29.224   5.536
 5541POPC   PO470212  43.714  28.739   5.850
 5541POPC   GL170213  43.717  29.186   5.998
 5541POPC   GL270214  44.024  29.419   5.997
 5541POPC   C1A70215  43.815  29.219   6.440
 5541POPC   D2A70216  43.884  29.425   6.844
 5541POPC   C3A70217  43.749  29.101   7.174
 5541POPC   C4A70218  43.561  28.658   7.141
 5541POPC   C1B70219  44.318  29.165   6.228
 5541POPC   C2B70220  44.276  29.072   6.653
 5541POPC   C3B70221  44.245  29.131   7.055
 5541POPC   C4B70222  44.247  28.861   7.404
 5542POPC   NC370223   0.918  39.985   5.417
 5542POPC   PO470224   1.453  39.504   5.488
 5542POPC   GL170225   1.412  39.786   5.847
 5542POPC   GL270226   1.158  40.059   5.861
 5542POPC   C1A70227   1.354  39.815   6.289
 5542POPC   D2A70228   1.508  39.936   6.681
 5542POPC   C3A70229   1.340  39.715   7.032
 5542POPC   C4A70230   1.214  39.780   7.480
 5542POPC   C1B70231   1.149  40.309   6.223
 5542POPC   C2B70232   1.054  40.188   6.669
 5542POPC   C3B70233   1.324  40.234   7.033
 5542POPC   C4B70234   1.468  40.303   7.402
 5543POPC   NC370235   5.668  36.477   5.503
 5543POPC   PO470236   5.882  35.804   5.483
 5543POPC   GL170237   5.958  36.089   5.776
 5543POPC   GL270238   6.149  36.372   5.649
 5543POPC   C1A70239   5.776  36.068   6.184
 5543POPC   D2A70240   5.880  35.881   6.558
 5543POPC   C3A70241   5.688  36.047   6.917
 5543POPC   C4A70242   5.754  35.951   7.324
 5543POPC   C1B70243   6.121  36.430   6.115
 5543POPC   C2B70244   5.968  36.402   6.546
 5543POPC   C3B70245   6.181  36.216   6.900
 5543POPC   C4B70246   6.195  36.206   7.342
 5544POPC   NC370247  26.365   9.905   5.392
 5544POPC   PO470248  25.721   9.717   5.449
 5544POPC   GL170249  25.968   9.842   5.746
 5544POPC   GL270250  26.220   9.621   5.800
 5544POPC   C1A70251  26.063   9.990   6.135
 5544POPC   D2A70252  25.907   9.890   6.522
 5544POPC   C3A70253  26.172   9.663   6.766
 5544POPC   C4A70254  26.146   9.764   7.198
 5544POPC   C1B70255  25.883   9.446   6.080
 5544POPC   C2B70256  25.882   9.300   6.518
 5544POPC   C3B70257  25.730   9.459   6.916
 5544POPC   C4B70258  25.768   9.349   7.336
 5545POPC   NC370259  16.200  22.397   5.521
 5545POPC   PO470260  15.686  22.009   5.402
 5545POPC   GL170261  15.933  22.103   5.829
 5545POPC   GL270262  15.831  22.467   5.882
 5545POPC   C1A70263  16.235  21.966   6.239
 5545POPC   D2A70264  16.359  22.251   6.591
 5545POPC   C3A70265  16.347  22.081   6.995
 5545POPC   C4A70266  16.199  22.153   7.384
 5545POPC   C1B70267  15.821  22.248   6.292
 5545POPC   C2B70268  15.627  22.184   6.650
 5545POPC   C3B70269  15.806  22.207   7.036
 5545POPC   C4B70270  15.692  22.069   7.419
 5546POPC   NC370271   8.879  37.941   5.453
 5546POPC   PO470272   9.470  37.493   5.386
 5546POPC   GL170273   9.140  37.577   5.704
 5546POPC   GL270274   9.162  37.914   5.867
 5546POPC   C1A70275   8.800  37.585   6.035
 5546POPC   D2A70276   8.785  37.795   6.437
 5546POPC   C3A70277   8.760  37.608   6.842
 5546POPC   C4A70278   8.887  37.632   7.253
 5546POPC   C1B70279   9.279  37.737   6.218
 5546POPC   C2B70280   9.449  37.621   6.565
 5546POPC   C3B70281   9.290  37.777   6.928
 5546POPC   C4B70282   9.188  38.049   7.257
 5547POPC   NC370283  33.042  24.870   5.522
 5547POPC   PO470284  33.431  25.437   5.311
 5547POPC   GL170285  33.177  25.306   5.730
 5547POPC   GL270286  33.219  25.517   6.026
 5547POPC   C1A70287  32.998  25.093   6.148
 5547POPC   D2A70288  33.025  25.346   6.527
 5547POPC   C3A70289  33.142  25.195   6.902
 5547POPC   C4A70290  33.316  25.323   7.299
 5547POPC   C1B70291  32.761  25.578   6.165
 5547POPC   C2B70292  32.533  25.540   6.581
 5547POPC   C3B70293  32.587  25.713   6.997
 5547POPC   C4B70294  32.982  25.658   7.182
 5548POPC   NC370295  19.587  42.737   5.407
 5548POPC   PO470296  19.837  43.387   5.505
 5548POPC   GL170297  19.692  43.101   5.795
 5548POPC   GL270298  19.812  42.762   5.873
 5548POPC   C1A70299  19.727  43.203   6.230
 5548POPC   D2A70300  19.555  43.401   6.599
 5548POPC   C3A70301  19.706  43.270   6.999
 5548POPC   C4A70302  19.601  43.062   7.369
 5548POPC   C1B70303  19.963  42.747   6.310
 5548POPC   C2B70304  20.041  43.104   6.619
 5548POPC   C3B70305  20.222  43.182   7.011
 5548POPC   C4B70306  20.057  42.851   7.275
 5549POPC   NC370307   3.670   5.352   5.225
 5549POPC   PO470308   3.648   5.974   5.405
 5549POPC   GL170309   3.455   6.047   5.772
 5549POPC   GL270310   3.698   6.099   6.008
 5549POPC   C1A70311   3.190   6.034   6.126
 5549POPC   D2A70312   3.103   5.933   6.541
 5549POPC   C3A70313   3.335   5.902   6.926
 5549POPC   C4A70314   3.299   5.585   7.247
 5549POPC   C1B70315   3.590   6.165   6.425
 5549POPC   C2B70316   3.808   6.206   6.779
 5549POPC   C3B70317   3.965   5.844   6.896
 5549POPC   C4B70318   3.789   5.742   7.265
 5550POPC   NC370319  21.706  27.597   5.640
 5550POPC   PO470320  22.227  27.814   5.244
 5550POPC   GL170321  22.211  27.636   5.721
 5550POPC   GL270322  22.049  27.240   5.786
 5550POPC   C1A70323  22.105  27.867   6.131
 5550POPC   D2A70324  22.114  28.084   6.546
 5550POPC   C3A70325  22.277  27.829   6.885
 5550POPC   C4A70326  22.168  27.784   7.289
 5550POPC   C1B70327  22.110  27.351   6.208
 5550POPC   C2B70328  22.189  27.411   6.631
 5550POPC   C3B70329  21.964  27.422   7.028
 5550POPC   C4B70330  22.147  27.290   7.430
 5551POPC   NC370331  37.101  40.468   5.376
 5551POPC   PO470332  37.116  41.140   5.353
 5551POPC   GL170333  37.025  40.835   5.768
 5551POPC   GL270334  37.211  40.491   5.883
 5551POPC   C1A70335  36.847  40.691   6.199
 5551POPC   D2A70336  36.905  40.481   6.624
 5551POPC   C3A70337  36.876  40.788   6.986
 5551POPC   C4A70338  36.589  40.833   7.332
 5551POPC   C1B70339  37.496  40.397   6.254
 5551POPC   C2B70340  37.439  40.353   6.712
 5551POPC   C3B70341  37.187  40.364   7.059
 5551POPC   C4B70342  37.279  40.655   7.363
 5552POPC   NC370343  37.778  17.038   5.368
 5552POPC   PO470344  37.383  16.469   5.381
 5552POPC   GL170345  37.594  16.616   5.749
 5552POPC   GL270346  37.493  16.925   5.781
 5552POPC   C1A70347  37.452  16.661   6.212
 5552POPC   D2A70348  37.680  16.636   6.590
 5552POPC   C3A70349  37.542  16.777   7.043
 5552POPC   C4A70350  37.536  16.785   7.521
 5552POPC   C1B70351  37.856  16.958   6.074
 5552POPC   C2B70352  37.863  17.107   6.513
 5552POPC   C3B70353  37.796  17.224   6.927
 5552POPC   C4B70354  37.928  17.061   7.318
 5553POPC   NC370355  20.663  37.287   5.429
 5553POPC   PO470356  20.602  36.650   5.453
 5553POPC   GL170357  20.437  36.861   5.805
 5553POPC   GL270358  20.120  36.762   5.902
 5553POPC   C1A70359  20.514  36.832   6.251
 5553POPC   D2A70360  20.580  37.105   6.587
 5553POPC   C3A70361  20.569  36.923   6.987
 5553POPC   C4A70362  20.814  36.801   7.345
 5553POPC   C1B70363  20.088  36.546   6.277
 5553POPC   C2B70364  20.220  36.631   6.715
 5553POPC   C3B70365  20.177  36.663   7.163
 5553POPC   C4B70366  20.376  36.655   7.585
 5554POPC   NC370367  40.006  30.281   5.265
 5554POPC   PO470368  39.623  30.795   5.387
 5554POPC   GL170369  39.851  30.562   5.678
 5554POPC   GL270370  40.047  30.849   5.759
 5554POPC   C1A70371  39.906  30.512   6.124
 5554POPC   D2A70372  39.841  30.670   6.555
 5554POPC   C3A70373  39.962  30.451   6.924
 5554POPC   C4A70374  40.021  30.449   7.362
 5554POPC   C1B70375  39.986  31.046   6.186
 5554POPC   C2B70376  40.067  31.136   6.642
 5554POPC   C3B70377  40.007  30.956   7.071
 5554POPC   C4B70378  40.069  30.897   7.557
 5555POPC   NC370379  34.246  18.072   5.405
 5555POPC   PO470380  34.877  18.430   5.446
 5555POPC   GL170381  34.664  18.558   5.849
 5555POPC   GL270382  34.341  18.393   5.923
 5555POPC   C1A70383  34.677  18.543   6.329
 5555POPC   D2A70384  34.669  18.144   6.586
 5555POPC   C3A70385  34.532  18.095   7.017
 5555POPC   C4A70386  34.724  17.932   7.399
 5555POPC   C1B70387  34.201  18.269   6.363
 5555POPC   C2B70388  34.279  18.485   6.761
 5555POPC   C3B70389  34.353  18.588   7.200
 5555POPC   C4B70390  34.254  18.410   7.616
 5556POPC   NC370391  15.871  40.328   5.482
 5556POPC   PO470392  16.367  39.917   5.376
 5556POPC   GL170393  16.101  39.909   5.765
 5556POPC   GL270394  16.285  40.200   5.889
 5556POPC   C1A70395  15.936  39.750   6.191
 5556POPC   D2A70396  16.087  39.617   6.564
 5556POPC   C3A70397  16.001  39.836   6.897
 5556POPC   C4A70398  15.954  39.724   7.293
 5556POPC   C1B70399  15.875  40.235   6.116
 5556POPC   C2B70400  15.892  40.202   6.546
 5556POPC   C3B70401  16.177  40.313   6.885
 5556POPC   C4B70402  15.984  40.222   7.257
 5557POPC   NC370403  41.228  35.466   5.445
 5557POPC   PO470404  40.614  35.689   5.451
 5557POPC   GL170405  40.841  35.446   5.794
 5557POPC   GL270406  40.679  35.134   5.841
 5557POPC   C1A70407  40.852  35.335   6.269
 5557POPC   D2A70408  41.048  35.316   6.692
 5557POPC   C3A70409  40.810  35.263   7.079
 5557POPC   C4A70410  40.701  35.677   7.217
 5557POPC   C1B70411  40.400  35.095   6.220
 5557POPC   C2B70412  40.494  35.207   6.653
 5557POPC   C3B70413  40.345  35.017   7.028
 5557POPC   C4B70414  40.504  34.871   7.416
 5558POPC   NC370415  20.971   6.383   5.451
 5558POPC   PO470416  20.262   6.485   5.417
 5558POPC   GL170417  20.566   6.562   5.762
 5558POPC   GL270418  20.675   6.881   5.898
 5558POPC   C1A70419  20.535   6.407   6.182
 5558POPC   D2A70420  20.359   6.584   6.545
 5558POPC   C3A70421  20.638   6.502   6.864
 5558POPC   C4A70422  20.608   6.484   7.293
 5558POPC   C1B70423  20.536   7.038   6.284
 5558POPC   C2B70424  20.669   7.006   6.721
 5558POPC   C3B70425  20.667   7.049   7.164
 5558POPC   C4B70426  20.941   6.896   7.462
 5559POPC   NC370427   7.235   9.879   5.276
 5559POPC   PO470428   7.746   9.400   5.386
 5559POPC   GL170429   7.530   9.735   5.712
 5559POPC   GL270430   7.145   9.833   5.767
 5559POPC   C1A70431   7.642   9.800   6.164
 5559POPC   D2A70432   7.714   9.633   6.592
 5559POPC   C3A70433   7.480   9.504   6.994
 5559POPC   C4A70434   7.489   9.776   7.348
 5559POPC   C1B70435   7.139   9.814   6.209
 5559POPC   C2B70436   7.202   9.688   6.621
 5559POPC   C3B70437   7.091   9.827   7.038
 5559POPC   C4B70438   6.973  10.220   7.151
 5560POPC   NC370439   3.809  27.414   5.409
 5560POPC   PO470440   3.228  27.738   5.278
 5560POPC   GL170441   3.306  27.570   5.729
 5560POPC   GL270442   3.635  27.685   5.879
 5560POPC   C1A70443   3.193  27.598   6.194
 5560POPC   D2A70444   3.346  27.827   6.573
 5560POPC   C3A70445   3.468  27.644   6.981
 5560POPC   C4A70446   3.297  27.549   7.402
 5560POPC   C1B70447   3.754  27.941   6.248
 5560POPC   C2B70448   3.874  27.835   6.674
 5560POPC   C3B70449   3.875  27.942   7.107
 5560POPC   C4B70450   3.804  27.662   7.383
 5561POPC   NC370451  35.778  44.527   5.348
 5561POPC   PO470452  36.299  44.967   5.195
 5561POPC   GL170453  36.154  44.800   5.586
 5561POPC   GL270454  36.361  44.517   5.692
 5561POPC   C1A70455  35.971  44.767   6.017
 5561POPC   D2A70456  36.008  44.565   6.457
 5561POPC   C3A70457  35.992  44.800   6.862
 5561POPC   C4A70458  35.602  44.896   7.100
 5561POPC   C1B70459  36.467  44.619   6.138
 5561POPC   C2B70460  36.494  44.827   6.545
 5561POPC   C3B70461  36.501  44.907   6.976
 5561POPC   C4B70462  36.362  44.555   7.148
 5562POPC   NC370463   1.936  18.539   5.482
 5562POPC   PO470464   1.761  17.916   5.608
 5562POPC   GL170465   1.939  18.213   5.911
 5562POPC   GL270466   1.755  18.542   5.968
 5562POPC   C1A70467   2.285  18.283   6.215
 5562POPC   D2A70468   2.380  18.527   6.606
 5562POPC   C3A70469   2.086  18.365   6.914
 5562POPC   C4A70470   2.122  18.145   7.304
 5562POPC   C1B70471   1.545  18.391   6.315
 5562POPC   C2B70472   1.427  18.500   6.727
 5562POPC   C3B70473   1.670  18.620   7.060
 5562POPC   C4B70474   1.761  18.465   7.471
 5563POPC   NC370475  33.924  16.596   5.203
 5563POPC   PO470476  33.590  17.123   5.432
 5563POPC   GL170477  33.863  16.878   5.694
 5563POPC   GL270478  33.652  16.610   5.789
 5563POPC   C1A70479  33.982  16.778   6.137
 5563POPC   D2A70480  33.978  17.007   6.522
 5563POPC   C3A70481  33.779  16.801   6.845
 5563POPC   C4A70482  33.969  16.661   7.204
 5563POPC   C1B70483  33.711  16.340   6.169
 5563POPC   C2B70484  33.881  16.286   6.594
 5563POPC   C3B70485  33.692  16.314   6.985
 5563POPC   C4B70486  33.460  16.474   7.303
 5564POPC   NC370487  42.923  36.538   5.509
 5564POPC   PO470488  43.202  37.176   5.283
 5564POPC   GL170489  43.316  36.819   5.659
 5564POPC   GL270490  43.037  36.864   5.892
 5564POPC   C1A70491  43.451  36.646   6.119
 5564POPC   D2A70492  43.508  36.710   6.598
 5564POPC   C3A70493  43.140  36.851   6.809
 5564POPC   C4A70494  42.959  36.878   7.197
 5564POPC   C1B70495  42.836  36.753   6.272
 5564POPC   C2B70496  42.883  36.433   6.580
 5564POPC   C3B70497  42.738  36.440   6.979
 5564POPC   C4B70498  42.552  36.620   7.354
 5565POPC   NC370499  39.625  40.059   5.428
 5565POPC   PO470500  40.315  40.303   5.460
 5565POPC   GL170501  40.049  40.316   5.801
 5565POPC   GL270502  40.022  39.972   5.836
 5565POPC   C1A70503  40.122  40.296   6.251
 5565POPC   D2A70504  40.352  40.317   6.655
 5565POPC   C3A70505  40.079  40.239   7.009
 5565POPC   C4A70506  39.678  40.034   7.043
 5565POPC   C1B70507  40.023  39.761   6.228
 5565POPC   C2B70508  39.958  39.868   6.643
 5565POPC   C3B70509  40.053  39.683   7.033
 5565POPC   C4B70510  40.170  39.831   7.426
 5566POPC   NC370511  25.102  28.337   5.450
 5566POPC   PO470512  25.453  28.795   5.223
 5566POPC   GL170513  25.425  28.639   5.726
 5566POPC   GL270514  25.384  28.295   5.860
 5566POPC   C1A70515  25.129  28.607   6.154
 5566POPC   D2A70516  25.066  28.391   6.585
 5566POPC   C3A70517  25.168  28.622   6.988
 5566POPC   C4A70518  25.459  28.935   7.215
 5566POPC   C1B70519  25.395  28.106   6.254
 5566POPC   C2B70520  25.551  28.217   6.653
 5566POPC   C3B70521  25.376  28.125   7.050
 5566POPC   C4B70522  25.502  27.894   7.414
 5567POPC   NC370523  36.104  40.461   5.310
 5567POPC   PO470524  36.329  41.043   5.472
 5567POPC   GL170525  36.063  40.896   5.840
 5567POPC   GL270526  35.955  40.539   5.816
 5567POPC   C1A70527  36.155  40.864   6.281
 5567POPC   D2A70528  36.405  40.553   6.500
 5567POPC   C3A70529  36.331  40.569   6.939
 5567POPC   C4A70530  36.109  40.931   7.151
 5567POPC   C1B70531  35.745  40.565   6.207
 5567POPC   C2B70532  35.869  40.441   6.638
 5567POPC   C3B70533  35.831  40.486   7.104
 5567POPC   C4B70534  35.834  40.446   7.575
 5568POPC   NC370535  38.786  29.980   5.459
 5568POPC   PO470536  38.213  30.160   5.453
 5568POPC   GL170537  38.421  30.106   5.844
 5568POPC   GL270538  38.580  30.425   5.916
 5568POPC   C1A70539  38.525  29.758   6.169
 5568POPC   D2A70540  38.718  29.803   6.585
 5568POPC   C3A70541  38.466  29.753   6.951
 5568POPC   C4A70542  38.578  29.640   7.343
 5568POPC   C1B70543  38.755  30.211   6.245
 5568POPC   C2B70544  39.002  30.229   6.598
 5568POPC   C3B70545  38.810  30.148   7.009
 5568POPC   C4B70546  38.712  30.376   7.385
 5569POPC   NC370547  17.101  38.795   5.536
 5569POPC   PO470548  16.829  38.225   5.316
 5569POPC   GL170549  16.767  38.239   5.793
 5569POPC   GL270550  16.461  38.046   5.824
 5569POPC   C1A70551  16.801  38.508   6.239
 5569POPC   D2A70552  16.647  38.680   6.697
 5569POPC   C3A70553  16.688  38.417   7.100
 5569POPC   C4A70554  16.995  38.458   7.438
 5569POPC   C1B70555  16.431  38.152   6.243
 5569POPC   C2B70556  16.639  38.141   6.645
 5569POPC   C3B70557  16.455  37.972   7.018
 5569POPC   C4B70558  16.385  38.152   7.431
 5570POPC   NC370559  34.354  11.630   5.663
 5570POPC   PO470560  34.631  11.042   5.320
 5570POPC   GL170561  34.555  11.008   5.783
 5570POPC   GL270562  34.235  10.928   5.943
 5570POPC   C1A70563  34.643  11.156   6.225
 5570POPC   D2A70564  34.426  11.300   6.614
 5570POPC   C3A70565  34.562  11.362   7.021
 5570POPC   C4A70566  34.302  11.130   7.298
 5570POPC   C1B70567  34.163  11.296   6.191
 5570POPC   C2B70568  33.946  11.505   6.507
 5570POPC   C3B70569  34.118  11.612   6.896
 5570POPC   C4B70570  34.302  11.719   7.288
 5571POPC   NC370571  19.871  27.174   5.423
 5571POPC   PO470572  20.029  26.565   5.505
 5571POPC   GL170573  19.894  26.824   5.864
 5571POPC   GL270574  20.161  27.107   5.853
 5571POPC   C1A70575  19.742  26.740   6.350
 5571POPC   D2A70576  19.841  26.673   6.826
 5571POPC   C3A70577  19.554  26.661   7.192
 5571POPC   C4A70578  19.393  26.986   7.501
 5571POPC   C1B70579  20.258  26.806   6.211
 5571POPC   C2B70580  20.252  26.944   6.656
 5571POPC   C3B70581  20.224  26.852   7.109
 5571POPC   C4B70582  19.996  26.503   7.343
 5572POPC   NC370583  34.728  17.170   5.353
 5572POPC   PO470584  34.429  17.645   5.485
 5572POPC   GL170585  34.478  17.344   5.818
 5572POPC   GL270586  34.782  17.130   5.872
 5572POPC   C1A70587  34.350  17.417   6.235
 5572POPC   D2A70588  34.374  17.285   6.665
 5572POPC   C3A70589  34.493  17.574   6.994
 5572POPC   C4A70590  34.451  17.468   7.424
 5572POPC   C1B70591  34.838  17.269   6.299
 5572POPC   C2B70592  34.874  17.309   6.751
 5572POPC   C3B70593  34.643  17.080   7.094
 5572POPC   C4B70594  34.799  17.061   7.522
 5573POPC   NC370595  36.072   8.041   5.268
 5573POPC   PO470596  35.671   8.118   5.751
 5573POPC   GL170597  36.045   8.280   5.815
 5573POPC   GL270598  36.257   7.997   5.758
 5573POPC   C1A70599  36.147   8.369   6.258
 5573POPC   D2A70600  35.946   8.370   6.677
 5573POPC   C3A70601  36.199   8.500   7.028
 5573POPC   C4A70602  36.185   8.359   7.449
 5573POPC   C1B70603  36.062   7.849   6.164
 5573POPC   C2B70604  36.183   7.925   6.576
 5573POPC   C3B70605  36.157   7.972   7.007
 5573POPC   C4B70606  36.554   8.049   7.189
 5574POPC   NC370607  23.518  13.198   5.433
 5574POPC   PO470608  23.938  13.778   5.460
 5574POPC   GL170609  23.683  13.540   5.811
 5574POPC   GL270610  23.451  13.259   5.914
 5574POPC   C1A70611  23.603  13.586   6.261
 5574POPC   D2A70612  23.716  13.745   6.647
 5574POPC   C3A70613  23.648  13.566   7.075
 5574POPC   C4A70614  23.609  13.799   7.501
 5574POPC   C1B70615  23.339  13.147   6.309
 5574POPC   C2B70616  23.320  13.392   6.674
 5574POPC   C3B70617  23.125  13.421   7.045
 5574POPC   C4B70618  23.327  13.372   7.430
 5575POPC   NC370619  27.336  44.432   5.203
 5575POPC   PO470620  26.907  44.933   5.241
 5575POPC   GL170621  26.837  44.838   5.730
 5575POPC   GL270622  26.653  44.504   5.820
 5575POPC   C1A70623  27.043  44.870   6.196
 5575POPC   D2A70624  27.294  44.670   6.589
 5575POPC   C3A70625  27.117  44.882   6.984
 5575POPC   C4A70626  26.865  44.919   7.342
 5575POPC   C1B70627  26.752  44.449   6.283
 5575POPC   C2B70628  26.806  44.653   6.652
 5575POPC   C3B70629  26.709  44.533   7.070
 5575POPC   C4B70630  26.277  44.457   7.115
 5576POPC   NC370631  35.629  18.933   5.440
 5576POPC   PO470632  35.173  19.384   5.314
 5576POPC   GL170633  35.353  19.229   5.747
 5576POPC   GL270634  35.408  18.873   5.896
 5576POPC   C1A70635  35.504  19.301   6.170
 5576POPC   D2A70636  35.629  19.250   6.592
 5576POPC   C3A70637  35.291  19.210   6.893
 5576POPC   C4A70638  35.483  19.232   7.261
 5576POPC   C1B70639  35.307  18.622   6.298
 5576POPC   C2B70640  35.424  18.766   6.686
 5576POPC   C3B70641  35.279  18.743   7.116
 5576POPC   C4B70642  35.471  18.638   7.486
 5577POPC   NC370643  41.609   3.179   5.372
 5577POPC   PO470644  41.346   3.807   5.434
 5577POPC   GL170645  41.322   3.471   5.717
 5577POPC   GL270646  41.660   3.440   5.815
 5577POPC   C1A70647  41.211   3.306   6.118
 5577POPC   D2A70648  41.397   3.451   6.510
 5577POPC   C3A70649  41.220   3.488   6.933
 5577POPC   C4A70650  41.390   3.385   7.321
 5577POPC   C1B70651  41.830   3.251   6.179
 5577POPC   C2B70652  41.734   3.045   6.558
 5577POPC   C3B70653  41.803   3.242   6.948
 5577POPC   C4B70654  41.899   3.422   7.331
 5578POPC   NC370655  19.336   1.813   5.489
 5578POPC   PO470656  18.818   2.118   5.699
 5578POPC   GL170657  19.076   1.871   5.944
 5578POPC   GL270658  19.432   1.935   5.963
 5578POPC   C1A70659  19.177   1.819   6.375
 5578POPC   D2A70660  19.296   1.583   6.725
 5578POPC   C3A70661  19.292   1.832   7.079
 5578POPC   C4A70662  18.961   2.127   7.234
 5578POPC   C1B70663  19.436   2.270   6.256
 5578POPC   C2B70664  19.251   2.227   6.678
 5578POPC   C3B70665  19.446   2.305   7.067
 5578POPC   C4B70666  19.409   2.462   7.483
 5579POPC   NC370667  37.427  22.701   5.613
 5579POPC   PO470668  37.827  23.192   5.663
 5579POPC   GL170669  37.809  23.041   6.065
 5579POPC   GL270670  37.826  22.691   6.000
 5579POPC   C1A70671  37.472  23.129   6.380
 5579POPC   D2A70672  37.247  23.183   6.752
 5579POPC   C3A70673  37.584  23.133   7.074
 5579POPC   C4A70674  37.910  22.842   7.268
 5579POPC   C1B70675  37.496  22.633   6.313
 5579POPC   C2B70676  37.475  22.732   6.776
 5579POPC   C3B70677  37.369  22.698   7.231
 5579POPC   C4B70678  37.503  22.920   7.590
 5580POPC   NC370679  42.074  33.451   5.377
 5580POPC   PO470680  42.321  34.079   5.362
 5580POPC   GL170681  42.361  33.884   5.775
 5580POPC   GL270682  42.576  33.575   5.750
 5580POPC   C1A70683  42.186  34.016   6.199
 5580POPC   D2A70684  42.332  33.932   6.621
 5580POPC   C3A70685  42.059  33.991   6.945
 5580POPC   C4A70686  42.027  33.872   7.346
 5580POPC   C1B70687  42.460  33.593   6.208
 5580POPC   C2B70688  42.246  33.438   6.591
 5580POPC   C3B70689  42.275  33.519   7.056
 5580POPC   C4B70690  42.366  33.529   7.519
 5581POPC   NC370691  25.267  30.226   5.283
 5581POPC   PO470692  25.446  30.877   5.347
 5581POPC   GL170693  25.203  30.765   5.753
 5581POPC   GL270694  25.141  30.409   5.747
 5581POPC   C1A70695  25.031  30.695   6.217
 5581POPC   D2A70696  25.160  30.865   6.652
 5581POPC   C3A70697  25.184  30.830   7.124
 5581POPC   C4A70698  25.533  30.964   7.412
 5581POPC   C1B70699  25.168  30.201   6.130
 5581POPC   C2B70700  25.279  30.334   6.549
 5581POPC   C3B70701  25.168  30.183   6.940
 5581POPC   C4B70702  25.129  30.260   7.362
 5582POPC   NC370703  41.858   0.197   5.493
 5582POPC   PO470704  41.387   0.682   5.319
 5582POPC   GL170705  41.546   0.459   5.758
 5582POPC   GL270706  41.735   0.763   5.840
 5582POPC   C1A70707  41.408   0.262   6.176
 5582POPC   D2A70708  41.623   0.232   6.584
 5582POPC   C3A70709  41.484   0.186   7.007
 5582POPC   C4A70710  41.399   0.336   7.409
 5582POPC   C1B70711  41.743   0.970   6.251
 5582POPC   C2B70712  41.761   0.742   6.650
 5582POPC   C3B70713  41.580   0.709   7.066
 5582POPC   C4B70714  41.271   0.847   7.385
 5583POPC   NC370715  31.071  29.577   5.424
 5583POPC   PO470716  30.449  29.840   5.306
 5583POPC   GL170717  30.725  29.869   5.733
 5583POPC   GL270718  30.905  29.596   5.882
 5583POPC   C1A70719  30.840  29.989   6.186
 5583POPC   D2A70720  30.629  30.066   6.577
 5583POPC   C3A70721  30.802  29.963   6.988
 5583POPC   C4A70722  31.027  30.208   7.274
 5583POPC   C1B70723  31.014  29.451   6.249
 5583POPC   C2B70724  30.890  29.598   6.625
 5583POPC   C3B70725  31.015  29.467   7.029
 5583POPC   C4B70726  30.941  29.695   7.410
 5584POPC   NC370727  31.927  41.308   5.726
 5584POPC   PO470728  31.267  41.517   5.549
 5584POPC   GL170729  31.475  41.476   5.883
 5584POPC   GL270730  31.655  41.789   5.877
 5584POPC   C1A70731  31.572  41.348   6.283
 5584POPC   D2A70732  31.312  41.273   6.613
 5584POPC   C3A70733  31.491  41.440   6.933
 5584POPC   C4A70734  31.244  41.366   7.291
 5584POPC   C1B70735  31.328  41.854   6.214
 5584POPC   C2B70736  31.240  41.978   6.652
 5584POPC   C3B70737  31.263  41.863   7.103
 5584POPC   C4B70738  31.641  41.679   7.350
 5585POPC   NC370739  24.101  29.018   5.389
 5585POPC   PO470740  24.711  29.306   5.293
 5585POPC   GL170741  24.603  29.422   5.713
 5585POPC   GL270742  24.396  29.164   5.836
 5585POPC   C1A70743  24.785  29.468   6.141
 5585POPC   D2A70744  24.639  29.324   6.534
 5585POPC   C3A70745  24.650  29.409   6.952
 5585POPC   C4A70746  24.344  29.220   7.246
 5585POPC   C1B70747  24.245  29.136   6.278
 5585POPC   C2B70748  24.249  29.049   6.738
 5585POPC   C3B70749  24.051  28.837   7.082
 5585POPC   C4B70750  24.073  28.881   7.546
 5586POPC   NC370751  27.790  15.606   5.476
 5586POPC   PO470752  28.026  16.228   5.335
 5586POPC   GL170753  27.759  16.039   5.757
 5586POPC   GL270754  27.452  15.757   5.823
 5586POPC   C1A70755  27.549  16.146   6.169
 5586POPC   D2A70756  27.621  15.956   6.578
 5586POPC   C3A70757  27.759  16.202   6.919
 5586POPC   C4A70758  27.785  16.275   7.363
 5586POPC   C1B70759  27.364  15.638   6.249
 5586POPC   C2B70760  27.277  15.578   6.692
 5586POPC   C3B70761  27.455  15.801   7.055
 5586POPC   C4B70762  27.288  16.169   7.246
 5587POPC   NC370763  11.570   1.090   5.340
 5587POPC   PO470764  11.000   1.404   5.485
 5587POPC   GL170765  11.224   1.150   5.810
 5587POPC   GL270766  11.610   1.199   5.866
 5587POPC   C1A70767  11.269   1.191   6.255
 5587POPC   D2A70768  11.577   1.120   6.550
 5587POPC   C3A70769  11.365   1.212   6.905
 5587POPC   C4A70770  11.083   1.050   7.164
 5587POPC   C1B70771  11.644   1.529   6.198
 5587POPC   C2B70772  11.409   1.612   6.563
 5587POPC   C3B70773  11.615   1.656   6.940
 5587POPC   C4B70774  11.606   1.439   7.300
 5588POPC   NC370775  22.618  22.009   5.390
 5588POPC   PO470776  23.129  22.414   5.276
 5588POPC   GL170777  22.989  22.289   5.755
 5588POPC   GL270778  22.710  22.112   5.873
 5588POPC   C1A70779  23.062  21.961   6.180
 5588POPC   D2A70780  22.846  21.765   6.572
 5588POPC   C3A70781  22.897  21.910   7.019
 5588POPC   C4A70782  23.169  21.866   7.382
 5588POPC   C1B70783  22.845  22.421   6.222
 5588POPC   C2B70784  22.858  22.280   6.646
 5588POPC   C3B70785  22.750  22.483   7.031
 5588POPC   C4B70786  22.832  22.345   7.439
 5589POPC   NC370787  12.495  29.136   5.525
 5589POPC   PO470788  12.042  29.611   5.423
 5589POPC   GL170789  12.077  29.333   5.803
 5589POPC   GL270790  12.099  28.954   5.846
 5589POPC   C1A70791  12.350  29.293   6.176
 5589POPC   D2A70792  12.320  29.065   6.554
 5589POPC   C3A70793  12.356  29.260   6.926
 5589POPC   C4A70794  12.248  29.393   7.321
 5589POPC   C1B70795  11.876  29.098   6.232
 5589POPC   C2B70796  11.816  29.222   6.650
 5589POPC   C3B70797  11.854  29.128   7.084
 5589POPC   C4B70798  11.936  28.971   7.477
 5590POPC   NC370799  18.123   3.170   5.314
 5590POPC   PO470800  18.422   3.857   5.309
 5590POPC   GL170801  18.374   3.475   5.659
 5590POPC   GL270802  18.129   3.528   5.930
 5590POPC   C1A70803  18.575   3.269   6.022
 5590POPC   D2A70804  18.561   3.106   6.447
 5590POPC   C3A70805  18.556   3.402   6.793
 5590POPC   C4A70806  18.319   3.408   7.177
 5590POPC   C1B70807  18.153   3.478   6.370
 5590POPC   C2B70808  18.147   3.736   6.736
 5590POPC   C3B70809  17.929   3.828   7.093
 5590POPC   C4B70810  18.037   3.689   7.525
 5591POPC   NC370811   2.281  14.437   5.545
 5591POPC   PO470812   1.719  14.117   5.536
 5591POPC   GL170813   1.872  14.269   5.900
 5591POPC   GL270814   1.898  14.579   5.851
 5591POPC   C1A70815   1.678  14.409   6.292
 5591POPC   D2A70816   1.860  14.610   6.663
 5591POPC   C3A70817   2.185  14.397   6.899
 5591POPC   C4A70818   2.075  14.327   7.328
 5591POPC   C1B70819   2.140  14.637   6.229
 5591POPC   C2B70820   2.523  14.718   6.460
 5591POPC   C3B70821   2.509  14.828   6.890
 5591POPC   C4B70822   2.193  14.817   7.186
 5592POPC   NC370823  24.766   4.755   5.594
 5592POPC   PO470824  25.022   4.125   5.248
 5592POPC   GL170825  25.095   4.180   5.723
 5592POPC   GL270826  25.067   4.518   5.905
 5592POPC   C1A70827  25.350   4.198   6.147
 5592POPC   D2A70828  25.285   4.512   6.506
 5592POPC   C3A70829  25.406   4.393   6.951
 5592POPC   C4A70830  25.384   4.140   7.356
 5592POPC   C1B70831  24.855   4.326   6.286
 5592POPC   C2B70832  24.924   4.210   6.722
 5592POPC   C3B70833  24.923   4.168   7.138
 5592POPC   C4B70834  25.019   4.548   7.269
 5593POPC   NC370835  43.699  33.532   5.502
 5593POPC   PO470836  43.920  34.181   5.325
 5593POPC   GL170837  43.884  33.980   5.704
 5593POPC   GL270838  43.514  34.018   5.691
 5593POPC   C1A70839  44.012  33.753   6.101
 5593POPC   D2A70840  44.232  33.566   6.480
 5593POPC   C3A70841  44.079  33.685   6.899
 5593POPC   C4A70842  44.154  33.932   7.251
 5593POPC   C1B70843  43.485  33.815   6.113
 5593POPC   C2B70844  43.711  33.695   6.512
 5593POPC   C3B70845  43.558  33.641   6.932
 5593POPC   C4B70846  43.716  33.500   7.301
 5594POPC   NC370847  35.159  18.055   5.532
 5594POPC   PO470848  35.697  18.510   5.644
 5594POPC   GL170849  35.486  18.237   5.867
 5594POPC   GL270850  35.165  18.426   5.869
 5594POPC   C1A70851  35.590  18.048   6.226
 5594POPC   D2A70852  35.760  18.380   6.498
 5594POPC   C3A70853  35.597  18.350   6.917
 5594POPC   C4A70854  35.261  18.171   7.136
 5594POPC   C1B70855  35.081  18.145   6.200
 5594POPC   C2B70856  35.257  18.145   6.594
 5594POPC   C3B70857  35.053  18.428   6.763
 5594POPC   C4B70858  34.830  18.503   7.110
 5595POPC   NC370859   3.782   1.384   5.552
 5595POPC   PO470860   4.204   1.142   5.116
 5595POPC   GL170861   4.292   1.191   5.627
 5595POPC   GL270862   4.486   1.450   5.846
 5595POPC   C1A70863   4.325   1.042   6.085
 5595POPC   D2A70864   4.520   1.159   6.506
 5595POPC   C3A70865   4.462   1.067   6.926
 5595POPC   C4A70866   4.556   1.082   7.354
 5595POPC   C1B70867   4.233   1.513   6.254
 5595POPC   C2B70868   4.144   1.445   6.715
 5595POPC   C3B70869   4.347   1.531   7.128
 5595POPC   C4B70870   4.097   1.608   7.482
 5596POPC   NC370871  16.782   5.282   5.359
 5596POPC   PO470872  16.555   4.700   5.309
 5596POPC   GL170873  16.615   4.984   5.729
 5596POPC   GL270874  16.912   5.219   5.838
 5596POPC   C1A70875  16.586   5.065   6.194
 5596POPC   D2A70876  16.538   4.848   6.605
 5596POPC   C3A70877  16.772   4.907   6.993
 5596POPC   C4A70878  16.460   4.818   7.267
 5596POPC   C1B70879  17.070   5.262   6.260
 5596POPC   C2B70880  16.926   5.288   6.677
 5596POPC   C3B70881  17.025   5.345   7.120
 5596POPC   C4B70882  17.047   5.413   7.592
 5597POPC   NC370883  43.307  16.788   5.462
 5597POPC   PO470884  43.989  16.621   5.455
 5597POPC   GL170885  43.859  16.620   5.881
 5597POPC   GL270886  43.671  16.924   5.891
 5597POPC   C1A70887  44.002  16.518   6.295
 5597POPC   D2A70888  44.141  16.318   6.665
 5597POPC   C3A70889  43.952  16.458   7.026
 5597POPC   C4A70890  43.803  16.681   7.382
 5597POPC   C1B70891  43.851  17.028   6.312
 5597POPC   C2B70892  43.791  16.941   6.760
 5597POPC   C3B70893  43.516  17.026   7.129
 5597POPC   C4B70894  43.579  17.051   7.622
 5598POPC   NC370895  33.535  14.736   5.253
 5598POPC   PO470896  33.943  15.317   5.338
 5598POPC   GL170897  33.865  15.117   5.758
 5598POPC   GL270898  33.540  14.973   5.725
 5598POPC   C1A70899  33.863  14.982   6.216
 5598POPC   D2A70900  33.955  14.841   6.679
 5598POPC   C3A70901  33.743  15.070   6.999
 5598POPC   C4A70902  33.896  15.404   7.234
 5598POPC   C1B70903  33.409  15.182   6.112
 5598POPC   C2B70904  33.582  15.313   6.528
 5598POPC   C3B70905  33.535  15.515   6.905
 5598POPC   C4B70906  33.340  15.417   7.259
 5599POPC   NC370907  39.210  16.455   5.560
 5599POPC   PO470908  39.718  16.921   5.412
 5599POPC   GL170909  39.529  16.830   5.781
 5599POPC   GL270910  39.180  16.959   5.716
 5599POPC   C1A70911  39.343  16.748   6.206
 5599POPC   D2A70912  39.267  16.870   6.647
 5599POPC   C3A70913  39.228  16.608   7.019
 5599POPC   C4A70914  39.536  16.400   7.261
 5599POPC   C1B70915  38.938  17.111   6.099
 5599POPC   C2B70916  38.888  17.192   6.560
 5599POPC   C3B70917  38.913  17.015   6.992
 5599POPC   C4B70918  39.006  17.199   7.392
 5600POPC   NC370919   2.855   6.868   5.487
 5600POPC   PO470920   3.077   6.230   5.452
 5600POPC   GL170921   2.996   6.444   5.863
 5600POPC   GL270922   2.754   6.723   5.963
 5600POPC   C1A70923   2.814   6.364   6.312
 5600POPC   D2A70924   2.778   6.661   6.642
 5600POPC   C3A70925   2.896   6.581   7.061
 5600POPC   C4A70926   2.682   6.524   7.447
 5600POPC   C1B70927   2.458   6.887   6.282
 5600POPC   C2B70928   2.253   6.990   6.670
 5600POPC   C3B70929   2.480   6.871   7.026
 5600POPC   C4B70930   2.535   7.049   7.438
 5601POPC   NC370931   8.737   0.045   5.520
 5601POPC   PO470932   9.104   0.490   5.171
 5601POPC   GL170933   9.004   0.507   5.645
 5601POPC   GL270934   8.654   0.532   5.761
 5601POPC   C1A70935   9.048   0.719   6.063
 5601POPC   D2A70936   8.916   0.621   6.480
 5601POPC   C3A70937   9.018   0.690   6.909
 5601POPC   C4A70938   9.059   0.489   7.295
 5601POPC   C1B70939   8.773   0.275   6.126
 5601POPC   C2B70940   8.833   0.128   6.563
 5601POPC   C3B70941   8.629   0.378   6.854
 5601POPC   C4B70942   8.545   0.629   7.188
 5602POPC   NC370943  13.096  10.192   5.317
 5602POPC   PO470944  12.620   9.870   5.582
 5602POPC   GL170945  13.017   9.916   5.735
 5602POPC   GL270946  13.208   9.597   5.770
 5602POPC   C1A70947  13.056   9.963   6.137
 5602POPC   D2A70948  13.027   9.794   6.526
 5602POPC   C3A70949  12.749   9.959   6.821
 5602POPC   C4A70950  12.688   9.925   7.277
 5602POPC   C1B70951  13.077   9.406   6.181
 5602POPC   C2B70952  12.973   9.305   6.632
 5602POPC   C3B70953  12.840   9.437   7.054
 5602POPC   C4B70954  12.904   9.452   7.511
 5603POPC   NC370955  18.160  40.723   5.403
 5603POPC   PO470956  18.433  41.338   5.122
 5603POPC   GL170957  18.454  41.070   5.602
 5603POPC   GL270958  18.123  41.005   5.810
 5603POPC   C1A70959  18.507  40.944   6.115
 5603POPC   D2A70960  18.407  40.704   6.536
 5603POPC   C3A70961  18.581  40.779   6.961
 5603POPC   C4A70962  18.670  41.092   7.298
 5603POPC   C1B70963  18.026  40.727   6.173
 5603POPC   C2B70964  17.881  40.495   6.546
 5603POPC   C3B70965  18.049  40.569   6.964
 5603POPC   C4B70966  18.167  40.930   7.239
 5604POPC   NC370967  30.406  21.305   5.097
 5604POPC   PO470968  30.897  21.662   5.348
 5604POPC   GL170969  30.639  21.473   5.713
 5604POPC   GL270970  30.354  21.225   5.652
 5604POPC   C1A70971  30.730  21.401   6.180
 5604POPC   D2A70972  30.916  21.534   6.594
 5604POPC   C3A70973  30.892  21.319   7.021
 5604POPC   C4A70974  30.693  21.118   7.354
 5604POPC   C1B70975  30.203  21.408   6.076
 5604POPC   C2B70976  30.351  21.360   6.538
 5604POPC   C3B70977  30.389  21.377   6.990
 5604POPC   C4B70978  30.584  21.681   7.279
 5605POPC   NC370979  20.951  25.544   5.385
 5605POPC   PO470980  21.615  25.458   5.546
 5605POPC   GL170981  21.473  25.229   5.836
 5605POPC   GL270982  21.168  25.054   5.730
 5605POPC   C1A70983  21.414  25.444   6.203
 5605POPC   D2A70984  21.518  25.629   6.579
 5605POPC   C3A70985  21.363  25.314   6.835
 5605POPC   C4A70986  21.205  25.405   7.210
 5605POPC   C1B70987  21.233  24.957   6.179
 5605POPC   C2B70988  21.604  25.013   6.449
 5605POPC   C3B70989  21.707  24.923   6.888
 5605POPC   C4B70990  21.631  25.095   7.295
 5606POPC   NC370991  28.909  34.498   5.420
 5606POPC   PO470992  28.142  34.835   5.470
 5606POPC   GL170993  28.256  34.580   5.840
 5606POPC   GL270994  28.628  34.563   5.888
 5606POPC   C1A70995  28.062  34.657   6.271
 5606POPC   D2A70996  28.223  34.566   6.654
 5606POPC   C3A70997  28.028  34.627   7.049
 5606POPC   C4A70998  28.243  34.437   7.347
 5606POPC   C1B70999  28.453  34.325   6.217
 5606POPC   C2B71000  28.571  34.167   6.593
 5606POPC   C3B71001  28.577  34.334   6.996
 5606POPC   C4B71002  28.711  34.234   7.433
 5607POPC   NC371003   1.701  37.778   5.151
 5607POPC   PO471004   2.207  37.644   5.546
 5607POPC   GL171005   1.902  37.610   5.814
 5607POPC   GL271006   1.781  37.946   5.721
 5607POPC   C1A71007   1.921  37.427   6.230
 5607POPC   D2A71008   2.271  37.458   6.531
 5607POPC   C3A71009   2.167  37.692   6.881
 5607POPC   C4A71010   2.018  37.594   7.260
 5607POPC   C1B71011   1.877  38.007   6.174
 5607POPC   C2B71012   1.737  38.108   6.618
 5607POPC   C3B71013   1.804  38.017   7.063
 5607POPC   C4B71014   1.861  38.021   7.516
 5608POPC   NC371015  15.177  31.213   5.358
 5608POPC   PO471016  15.272  30.540   5.458
 5608POPC   GL171017  15.180  30.587   5.868
 5608POPC   GL271018  15.251  30.234   5.903
 5608POPC   C1A71019  15.263  30.767   6.286
 5608POPC   D2A71020  15.375  30.709   6.734
 5608POPC   C3A71021  15.108  30.860   7.084
 5608POPC   C4A71022  15.202  30.984   7.521
 5608POPC   C1B71023  15.333  30.268   6.314
 5608POPC   C2B71024  15.031  30.294   6.618
 5608POPC   C3B71025  15.045  30.262   7.039
 5608POPC   C4B71026  15.396  30.469   7.225
 5609POPC   NC371027  16.284   1.679   5.528
 5609POPC   PO471028  15.852   1.311   5.127
 5609POPC   GL171029  15.897   1.333   5.623
 5609POPC   GL271030  15.784   1.043   5.827
 5609POPC   C1A71031  16.075   1.374   6.079
 5609POPC   D2A71032  16.075   1.229   6.546
 5609POPC   C3A71033  16.089   1.542   6.864
 5609POPC   C4A71034  16.258   1.757   7.227
 5609POPC   C1B71035  15.663   1.121   6.269
 5609POPC   C2B71036  15.603   0.958   6.679
 5609POPC   C3B71037  15.887   0.984   6.966
 5609POPC   C4B71038  16.069   1.263   7.279
 5610POPC   NC371039  28.759   9.320   5.257
 5610POPC   PO471040  28.584   9.950   5.235
 5610POPC   GL171041  28.529   9.779   5.732
 5610POPC   GL271042  28.691   9.456   5.744
 5610POPC   C1A71043  28.317   9.918   6.216
 5610POPC   D2A71044  28.155   9.783   6.682
 5610POPC   C3A71045  28.253   9.898   7.144
 5610POPC   C4A71046  28.184   9.773   7.599
 5610POPC   C1B71047  28.447   9.439   6.123
 5610POPC   C2B71048  28.618   9.527   6.551
 5610POPC   C3B71049  28.560   9.478   6.998
 5610POPC   C4B71050  28.632   9.665   7.401
 5611POPC   NC371051  17.836   9.600   5.400
 5611POPC   PO471052  18.397  10.017   5.213
 5611POPC   GL171053  18.168   9.999   5.622
 5611POPC   GL271054  18.494  10.008   5.751
 5611POPC   C1A71055  18.123   9.774   6.064
 5611POPC   D2A71056  18.331   9.583   6.460
 5611POPC   C3A71057  18.071   9.418   6.794
 5611POPC   C4A71058  17.956   9.552   7.187
 5611POPC   C1B71059  18.637   9.925   6.174
 5611POPC   C2B71060  18.569  10.020   6.613
 5611POPC   C3B71061  18.341   9.853   6.958
 5611POPC   C4B71062  18.502   9.465   7.144
 5612POPC   NC371063  43.889  30.216   5.583
 5612POPC   PO471064  43.587  29.578   5.408
 5612POPC   GL171065  43.615  29.724   5.898
 5612POPC   GL271066  43.758  30.073   6.037
 5612POPC   C1A71067  43.777  29.710   6.361
 5612POPC   D2A71068  44.020  29.926   6.677
 5612POPC   C3A71069  43.852  29.881   7.092
 5612POPC   C4A71070  43.559  30.192   7.149
 5612POPC   C1B71071  44.094  30.295   6.255
 5612POPC   C2B71072  44.239  30.427   6.652
 5612POPC   C3B71073  44.067  30.403   7.059
 5612POPC   C4B71074  44.016  30.213   7.446
 5613POPC   NC371075  40.879  20.919   5.453
 5613POPC   PO471076  40.727  20.292   5.514
 5613POPC   GL171077  40.691  20.603   5.824
 5613POPC   GL271078  40.492  20.906   5.829
 5613POPC   C1A71079  40.545  20.572   6.225
 5613POPC   D2A71080  40.703  20.363   6.563
 5613POPC   C3A71081  40.638  20.502   6.965
 5613POPC   C4A71082  40.733  20.215   7.298
 5613POPC   C1B71083  40.839  20.973   6.168
 5613POPC   C2B71084  40.848  20.867   6.644
 5613POPC   C3B71085  40.853  20.988   7.120
 5613POPC   C4B71086  40.889  20.934   7.607
 5614POPC   NC371087  30.891   9.144   5.389
 5614POPC   PO471088  30.590   8.616   5.500
 5614POPC   GL171089  30.712   8.872   5.857
 5614POPC   GL271090  30.631   9.238   5.861
 5614POPC   C1A71091  30.520   8.936   6.259
 5614POPC   D2A71092  30.595   9.172   6.606
 5614POPC   C3A71093  30.631   8.936   6.984
 5614POPC   C4A71094  30.502   8.877   7.394
 5614POPC   C1B71095  30.934   9.257   6.217
 5614POPC   C2B71096  31.108   9.135   6.637
 5614POPC   C3B71097  30.939   9.336   7.019
 5614POPC   C4B71098  30.868   9.260   7.486
 5615POPC   NC371099  22.213   0.026   5.309
 5615POPC   PO471100  22.077  44.360   5.289
 5615POPC   GL171101  22.151  44.526   5.716
 5615POPC   GL271102  21.944  44.808   5.687
 5615POPC   C1A71103  22.277  44.743   6.135
 5615POPC   D2A71104  22.456  44.618   6.543
 5615POPC   C3A71105  22.182  44.590   6.901
 5615POPC   C4A71106  22.267  44.678   7.299
 5615POPC   C1B71107  21.769  44.705   6.082
 5615POPC   C2B71108  21.899  44.758   6.505
 5615POPC   C3B71109  21.819  44.936   6.917
 5615POPC   C4B71110  21.781  44.756   7.307
 5616POPC   NC371111  16.350  36.207   5.254
 5616POPC   PO471112  16.998  36.238   5.445
 5616POPC   GL171113  16.751  36.149   5.836
 5616POPC   GL271114  16.607  35.796   5.838
 5616POPC   C1A71115  16.865  35.984   6.261
 5616POPC   D2A71116  16.738  36.159   6.661
 5616POPC   C3A71117  16.942  36.153   7.056
 5616POPC   C4A71118  16.833  36.410   7.400
 5616POPC   C1B71119  16.543  35.574   6.254
 5616POPC   C2B71120  16.702  35.634   6.666
 5616POPC   C3B71121  16.472  35.842   6.981
 5616POPC   C4B71122  16.573  35.988   7.389
 5617POPC   NC371123  41.508  35.039   5.271
 5617POPC   PO471124  41.620  35.721   5.504
 5617POPC   GL171125  41.505  35.519   5.876
 5617POPC   GL271126  41.416  35.165   5.819
 5617POPC   C1A71127  41.721  35.320   6.228
 5617POPC   D2A71128  41.899  35.390   6.650
 5617POPC   C3A71129  41.608  35.386   7.029
 5617POPC   C4A71130  41.607  35.609   7.456
 5617POPC   C1B71131  41.171  34.960   6.140
 5617POPC   C2B71132  41.377  34.943   6.554
 5617POPC   C3B71133  41.265  34.976   7.019
 5617POPC   C4B71134  41.291  35.223   7.417
 5618POPC   NC371135  15.920  16.398   5.662
 5618POPC   PO471136  15.405  16.743   5.404
 5618POPC   GL171137  15.744  16.855   5.786
 5618POPC   GL271138  16.053  17.002   5.668
 5618POPC   C1A71139  15.987  16.668   6.225
 5618POPC   D2A71140  16.099  16.818   6.625
 5618POPC   C3A71141  15.968  16.690   7.062
 5618POPC   C4A71142  16.087  16.375   7.364
 5618POPC   C1B71143  16.084  17.150   6.105
 5618POPC   C2B71144  16.306  17.277   6.508
 5618POPC   C3B71145  16.325  17.119   6.950
 5618POPC   C4B71146  16.116  17.214   7.333
 5619POPC   NC371147  37.857  19.260   5.558
 5619POPC   PO471148  37.486  18.711   5.458
 5619POPC   GL171149  37.638  18.890   5.826
 5619POPC   GL271150  37.453  19.235   5.882
 5619POPC   C1A71151  37.524  18.923   6.258
 5619POPC   D2A71152  37.401  19.229   6.506
 5619POPC   C3A71153  37.413  18.988   6.845
 5619POPC   C4A71154  37.442  18.797   7.227
 5619POPC   C1B71155  37.758  19.395   6.177
 5619POPC   C2B71156  37.899  19.258   6.565
 5619POPC   C3B71157  37.700  19.407   6.899
 5619POPC   C4B71158  37.812  19.467   7.269
 5620POPC   NC371159  32.889  18.610   5.508
 5620POPC   PO471160  32.978  17.951   5.504
 5620POPC   GL171161  33.189  18.224   5.796
 5620POPC   GL271162  33.366  18.546   5.805
 5620POPC   C1A71163  33.245  18.262   6.234
 5620POPC   D2A71164  33.079  18.141   6.625
 5620POPC   C3A71165  32.722  18.399   6.742
 5620POPC   C4A71166  32.871  18.460   7.149
 5620POPC   C1B71167  33.369  18.767   6.210
 5620POPC   C2B71168  33.426  18.565   6.621
 5620POPC   C3B71169  33.452  18.675   7.056
 5620POPC   C4B71170  33.407  18.561   7.513
 5621POPC   NC371171  38.792   9.385   5.094
 5621POPC   PO471172  38.933   9.992   5.350
 5621POPC   GL171173  39.010   9.651   5.693
 5621POPC   GL271174  39.348   9.480   5.712
 5621POPC   C1A71175  39.048   9.518   6.161
 5621POPC   D2A71176  39.291   9.589   6.559
 5621POPC   C3A71177  39.093   9.686   6.961
 5621POPC   C4A71178  38.865   9.887   7.290
 5621POPC   C1B71179  39.496   9.286   6.101
 5621POPC   C2B71180  39.599   9.147   6.530
 5621POPC   C3B71181  39.510   9.346   6.946
 5621POPC   C4B71182  39.466   9.598   7.338
 5622POPC   NC371183  20.331  29.536   5.072
 5622POPC   PO471184  20.628  30.037   5.453
 5622POPC   GL171185  20.767  29.987   5.901
 5622POPC   GL271186  20.592  29.678   5.971
 5622POPC   C1A71187  20.905  29.899   6.354
 5622POPC   D2A71188  21.006  29.581   6.665
 5622POPC   C3A71189  20.800  29.702   7.038
 5622POPC   C4A71190  20.702  29.967   7.385
 5622POPC   C1B71191  20.412  30.036   6.249
 5622POPC   C2B71192  20.516  30.192   6.658
 5622POPC   C3B71193  20.351  30.030   7.020
 5622POPC   C4B71194  20.328  29.639   7.250
 5623POPC   NC371195  39.017  15.140   5.169
 5623POPC   PO471196  39.669  15.308   5.491
 5623POPC   GL171197  39.339  15.197   5.885
 5623POPC   GL271198  38.988  15.053   5.891
 5623POPC   C1A71199  39.225  15.140   6.347
 5623POPC   D2A71200  39.060  15.446   6.650
 5623POPC   C3A71201  39.100  15.402   7.082
 5623POPC   C4A71202  38.908  15.523   7.420
 5623POPC   C1B71203  38.732  14.953   6.279
 5623POPC   C2B71204  38.770  14.999   6.737
 5623POPC   C3B71205  39.028  14.908   7.123
 5623POPC   C4B71206  38.930  15.009   7.577
 5624POPC   NC371207  28.762  30.898   5.567
 5624POPC   PO471208  28.385  31.550   5.505
 5624POPC   GL171209  28.333  31.593   5.921
 5624POPC   GL271210  28.600  31.850   5.908
 5624POPC   C1A71211  28.171  31.443   6.335
 5624POPC   D2A71212  28.075  31.558   6.782
 5624POPC   C3A71213  28.166  31.270   7.137
 5624POPC   C4A71214  28.185  30.988   7.490
 5624POPC   C1B71215  28.653  31.719   6.333
 5624POPC   C2B71216  28.530  31.829   6.726
 5624POPC   C3B71217  28.466  31.697   7.144
 5624POPC   C4B71218  28.782  31.533   7.452
 5625POPC   NC371219  43.578   7.246   5.346
 5625POPC   PO471220  44.030   7.746   5.220
 5625POPC   GL171221  43.908   7.407   5.668
 5625POPC   GL271222  44.162   7.209   5.846
 5625POPC   C1A71223  43.686   7.111   6.013
 5625POPC   D2A71224  43.556   7.170   6.471
 5625POPC   C3A71225  43.753   7.198   6.907
 5625POPC   C4A71226  43.541   7.381   7.269
 5625POPC   C1B71227  44.013   7.436   6.222
 5625POPC   C2B71228  43.853   7.607   6.587
 5625POPC   C3B71229  43.700   7.766   6.958
 5625POPC   C4B71230  43.920   7.886   7.313
 5626POPC   NC371231  40.787  14.966   5.462
 5626POPC   PO471232  41.151  15.496   5.309
 5626POPC   GL171233  40.931  15.391   5.730
 5626POPC   GL271234  40.550  15.264   5.793
 5626POPC   C1A71235  40.909  15.252   6.177
 5626POPC   D2A71236  41.088  15.191   6.584
 5626POPC   C3A71237  41.011  15.387   6.978
 5626POPC   C4A71238  40.983  15.000   7.203
 5626POPC   C1B71239  40.560  14.910   6.107
 5626POPC   C2B71240  40.552  15.027   6.542
 5626POPC   C3B71241  40.523  15.292   6.883
 5626POPC   C4B71242  40.510  15.155   7.261
 5627POPC   NC371243   3.106   5.758   5.462
 5627POPC   PO471244   2.371   5.705   5.447
 5627POPC   GL171245   2.688   5.710   5.769
 5627POPC   GL271246   2.944   5.450   5.835
 5627POPC   C1A71247   2.686   5.872   6.179
 5627POPC   D2A71248   2.479   6.019   6.552
 5627POPC   C3A71249   2.770   6.121   6.878
 5627POPC   C4A71250   2.737   6.025   7.325
 5627POPC   C1B71251   3.057   5.518   6.259
 5627POPC   C2B71252   2.745   5.595   6.611
 5627POPC   C3B71253   2.797   5.618   7.033
 5627POPC   C4B71254   2.831   5.438   7.434
 5628POPC   NC371255  31.548  12.393   5.436
 5628POPC   PO471256  31.083  11.984   5.434
 5628POPC   GL171257  31.399  11.919   5.783
 5628POPC   GL271258  31.747  11.947   5.676
 5628POPC   C1A71259  31.592  12.185   6.137
 5628POPC   D2A71260  31.445  12.213   6.576
 5628POPC   C3A71261  31.584  12.367   6.981
 5628POPC   C4A71262  31.411  12.262   7.401
 5628POPC   C1B71263  31.810  11.709   6.068
 5628POPC   C2B71264  31.733  11.781   6.518
 5628POPC   C3B71265  31.838  11.685   6.926
 5628POPC   C4B71266  31.837  12.011   7.244
 5629POPC   NC371267   0.259  23.722   5.310
 5629POPC   PO471268   0.816  23.592   5.380
 5629POPC   GL171269   0.570  23.780   5.746
 5629POPC   GL271270   0.211  23.837   5.825
 5629POPC   C1A71271   0.530  23.813   6.221
 5629POPC   D2A71272   0.639  23.555   6.567
 5629POPC   C3A71273   0.489  23.648   6.974
 5629POPC   C4A71274   0.736  23.771   7.333
 5629POPC   C1B71275   0.036  24.022   6.234
 5629POPC   C2B71276   0.055  24.098   6.702
 5629POPC   C3B71277   0.027  23.875   7.072
 5629POPC   C4B71278   0.238  23.717   7.406
 5630POPC   NC371279  44.215  28.269   5.324
 5630POPC   PO471280  44.903  28.587   5.389
 5630POPC   GL171281  44.803  28.440   5.791
 5630POPC   GL271282  44.473  28.469   5.723
 5630POPC   C1A71283  44.885  28.395   6.228
 5630POPC   D2A71284  44.648  28.206   6.568
 5630POPC   C3A71285  44.758  28.334   6.947
 5630POPC   C4A71286  44.795  28.032   7.243
 5630POPC   C1B71287  44.365  28.417   6.166
 5630POPC   C2B71288  44.139  28.577   6.529
 5630POPC   C3B71289  44.242  28.571   6.972
 5630POPC   C4B71290  44.494  28.438   7.350
 5631POPC   NC371291   3.410  29.638   5.307
 5631POPC   PO471292   3.359  30.359   5.622
 5631POPC   GL171293   3.648  30.127   5.962
 5631POPC   GL271294   3.727  29.744   5.904
 5631POPC   C1A71295   3.478  29.876   6.341
 5631POPC   D2A71296   3.414  30.173   6.642
 5631POPC   C3A71297   3.515  30.097   7.032
 5631POPC   C4A71298   3.722  30.180   7.373
 5631POPC   C1B71299   3.983  29.873   6.263
 5631POPC   C2B71300   3.964  29.701   6.677
 5631POPC   C3B71301   3.946  29.800   7.107
 5631POPC   C4B71302   3.866  29.690   7.540
 5632POPC   NC371303   3.688  39.019   5.465
 5632POPC   PO471304   3.790  39.679   5.175
 5632POPC   GL171305   3.820  39.498   5.666
 5632POPC   GL271306   3.473  39.342   5.814
 5632POPC   C1A71307   3.862  39.327   6.132
 5632POPC   D2A71308   3.599  39.362   6.500
 5632POPC   C3A71309   3.658  39.168   6.906
 5632POPC   C4A71310   3.788  39.319   7.283
 5632POPC   C1B71311   3.340  39.045   6.188
 5632POPC   C2B71312   3.208  39.075   6.650
 5632POPC   C3B71313   3.212  39.344   7.035
 5632POPC   C4B71314   3.316  39.195   7.437
 5633POPC   NC371315  27.159   0.305   5.326
 5633POPC   PO471316  26.561   0.513   5.371
 5633POPC   GL171317  26.756   0.359   5.702
 5633POPC   GL271318  27.030   0.618   5.756
 5633POPC   C1A71319  26.730   0.373   6.149
 5633POPC   D2A71320  26.937   0.325   6.547
 5633POPC   C3A71321  26.653   0.476   6.869
 5633POPC   C4A71322  26.732   0.404   7.280
 5633POPC   C1B71323  27.036   0.852   6.175
 5633POPC   C2B71324  26.859   0.851   6.603
 5633POPC   C3B71325  26.946   0.837   7.067
 5633POPC   C4B71326  27.157   0.717   7.485
 5634POPC   NC371327   8.834  24.197   5.367
 5634POPC   PO471328   9.259  23.632   5.445
 5634POPC   GL171329   9.030  23.611   5.804
 5634POPC   GL271330   8.964  23.960   5.828
 5634POPC   C1A71331   8.950  23.357   6.174
 5634POPC   D2A71332   8.774  23.351   6.577
 5634POPC   C3A71333   8.914  23.520   6.964
 5634POPC   C4A71334   8.617  23.661   7.299
 5634POPC   C1B71335   8.799  23.877   6.248
 5634POPC   C2B71336   8.925  23.954   6.668
 5634POPC   C3B71337   8.957  24.007   7.098
 5634POPC   C4B71338   9.228  24.021   7.443
 5635POPC   NC371339  42.662  16.148   5.484
 5635POPC   PO471340  42.915  15.501   5.442
 5635POPC   GL171341  43.117  15.821   5.732
 5635POPC   GL271342  43.061  16.129   5.811
 5635POPC   C1A71343  43.235  15.795   6.165
 5635POPC   D2A71344  43.254  16.033   6.535
 5635POPC   C3A71345  43.140  15.802   6.902
 5635POPC   C4A71346  43.304  15.764   7.330
 5635POPC   C1B71347  42.919  16.311   6.176
 5635POPC   C2B71348  43.056  16.520   6.521
 5635POPC   C3B71349  43.023  16.324   6.882
 5635POPC   C4B71350  43.075  16.219   7.268
 5636POPC   NC371351  29.084   6.086   5.412
 5636POPC   PO471352  29.726   5.815   5.411
 5636POPC   GL171353  29.480   6.077   5.706
 5636POPC   GL271354  29.223   5.827   5.834
 5636POPC   C1A71355  29.432   6.154   6.140
 5636POPC   D2A71356  29.230   5.936   6.470
 5636POPC   C3A71357  29.480   5.971   6.803
 5636POPC   C4A71358  29.474   6.027   7.206
 5636POPC   C1B71359  28.899   5.693   6.159
 5636POPC   C2B71360  28.816   5.666   6.608
 5636POPC   C3B71361  29.110   5.643   6.945
 5636POPC   C4B71362  29.032   5.843   7.328
 5637POPC   NC371363  12.250  13.419   5.452
 5637POPC   PO471364  11.884  13.962   5.396
 5637POPC   GL171365  11.966  13.699   5.807
 5637POPC   GL271366  12.349  13.667   5.880
 5637POPC   C1A71367  12.056  13.667   6.274
 5637POPC   D2A71368  12.162  13.988   6.597
 5637POPC   C3A71369  12.128  13.747   7.001
 5637POPC   C4A71370  11.831  13.554   7.296
 5637POPC   C1B71371  12.373  13.213   6.060
 5637POPC   C2B71372  12.473  13.106   6.480
 5637POPC   C3B71373  12.310  13.197   6.867
 5637POPC   C4B71374  12.322  13.334   7.273
 5638POPC   NC371375   2.819  27.785   5.050
 5638POPC   PO471376   2.700  27.393   5.601
 5638POPC   GL171377   2.462  27.471   5.951
 5638POPC   GL271378   2.446  27.792   5.852
 5638POPC   C1A71379   2.565  27.400   6.365
 5638POPC   D2A71380   2.882  27.578   6.654
 5638POPC   C3A71381   2.705  27.505   7.087
 5638POPC   C4A71382   2.821  27.346   7.514
 5638POPC   C1B71383   2.716  27.897   6.235
 5638POPC   C2B71384   2.892  28.083   6.609
 5638POPC   C3B71385   3.014  27.929   7.018
 5638POPC   C4B71386   2.877  27.837   7.435
 5639POPC   NC371387   7.616  11.621   5.268
 5639POPC   PO471388   7.456  10.966   5.543
 5639POPC   GL171389   7.397  11.239   5.886
 5639POPC   GL271390   7.235  11.575   5.836
 5639POPC   C1A71391   7.302  11.188   6.303
 5639POPC   D2A71392   7.056  11.059   6.632
 5639POPC   C3A71393   7.331  11.094   6.946
 5639POPC   C4A71394   7.381  11.019   7.348
 5639POPC   C1B71395   7.533  11.651   6.188
 5639POPC   C2B71396   7.668  11.545   6.610
 5639POPC   C3B71397   7.464  11.567   7.031
 5639POPC   C4B71398   7.447  11.497   7.489
 5640POPC   NC371399  30.118  22.432   5.368
 5640POPC   PO471400  29.782  23.028   5.344
 5640POPC   GL171401  29.917  23.018   5.768
 5640POPC   GL271402  29.810  22.680   5.746
 5640POPC   C1A71403  30.072  22.857   6.168
 5640POPC   D2A71404  30.351  23.032   6.489
 5640POPC   C3A71405  30.109  23.056   6.841
 5640POPC   C4A71406  30.062  22.972   7.253
 5640POPC   C1B71407  29.499  22.677   6.068
 5640POPC   C2B71408  29.473  22.622   6.495
 5640POPC   C3B71409  29.755  22.648   6.833
 5640POPC   C4B71410  29.699  22.617   7.270
 5641POPC   NC371411  18.475  41.727   5.422
 5641POPC   PO471412  19.139  41.558   5.372
 5641POPC   GL171413  19.195  41.570   5.777
 5641POPC   GL271414  19.389  41.267   5.897
 5641POPC   C1A71415  18.885  41.675   6.120
 5641POPC   D2A71416  18.704  41.874   6.511
 5641POPC   C3A71417  18.724  41.577   6.846
 5641POPC   C4A71418  18.849  41.575   7.251
 5641POPC   C1B71419  19.352  41.524   6.240
 5641POPC   C2B71420  19.144  41.552   6.569
 5641POPC   C3B71421  19.277  41.634   6.935
 5641POPC   C4B71422  19.421  41.497   7.310
 5642POPC   NC371423  34.273  21.197   5.538
 5642POPC   PO471424  34.748  21.665   5.322
 5642POPC   GL171425  34.549  21.626   5.788
 5642POPC   GL271426  34.593  21.262   5.932
 5642POPC   C1A71427  34.479  21.611   6.279
 5642POPC   D2A71428  34.624  21.336   6.625
 5642POPC   C3A71429  34.443  21.378   7.039
 5642POPC   C4A71430  34.682  21.373   7.414
 5642POPC   C1B71431  34.350  21.043   6.241
 5642POPC   C2B71432  34.452  20.842   6.640
 5642POPC   C3B71433  34.235  20.863   7.012
 5642POPC   C4B71434  34.296  21.044   7.418
 5643POPC   NC371435  39.724  36.010   5.400
 5643POPC   PO471436  40.233  36.414   5.496
 5643POPC   GL171437  39.950  36.253   5.769
 5643POPC   GL271438  40.115  35.949   5.749
 5643POPC   C1A71439  39.727  36.291   6.148
 5643POPC   D2A71440  39.944  36.399   6.519
 5643POPC   C3A71441  39.820  36.235   6.884
 5643POPC   C4A71442  39.817  35.901   7.170
 5643POPC   C1B71443  40.200  36.076   6.176
 5643POPC   C2B71444  40.300  36.020   6.601
 5643POPC   C3B71445  40.287  36.060   7.025
 5643POPC   C4B71446  40.269  35.858   7.420
 5644POPC   NC371447  18.905  32.728   5.258
 5644POPC   PO471448  19.409  33.113   5.065
 5644POPC   GL171449  19.203  32.978   5.598
 5644POPC   GL271450  18.896  32.884   5.757
 5644POPC   C1A71451  19.271  32.955   6.104
 5644POPC   D2A71452  19.355  33.170   6.520
 5644POPC   C3A71453  19.244  32.956   6.909
 5644POPC   C4A71454  19.257  33.137   7.321
 5644POPC   C1B71455  18.772  33.113   6.136
 5644POPC   C2B71456  18.860  33.049   6.565
 5644POPC   C3B71457  18.679  33.072   6.983
 5644POPC   C4B71458  18.826  32.850   7.327
 5645POPC   NC371459   5.428  32.886   5.588
 5645POPC   PO471460   4.862  32.788   5.318
 5645POPC   GL171461   4.903  33.066   5.707
 5645POPC   GL271462   5.201  33.234   5.874
 5645POPC   C1A71463   4.870  32.969   6.162
 5645POPC   D2A71464   5.180  32.876   6.486
 5645POPC   C3A71465   4.975  32.881   6.892
 5645POPC   C4A71466   4.789  33.094   7.216
 5645POPC   C1B71467   5.447  33.345   6.263
 5645POPC   C2B71468   5.554  33.210   6.680
 5645POPC   C3B71469   5.422  33.077   7.087
 5645POPC   C4B71470   5.252  33.193   7.471
 5646POPC   NC371471   4.548  38.513   5.526
 5646POPC   PO471472   4.099  38.744   5.110
 5646POPC   GL171473   4.043  38.560   5.629
 5646POPC   GL271474   4.314  38.697   5.938
 5646POPC   C1A71475   4.039  38.314   6.068
 5646POPC   D2A71476   4.173  38.557   6.455
 5646POPC   C3A71477   4.154  38.339   6.848
 5646POPC   C4A71478   4.137  38.467   7.265
 5646POPC   C1B71479   4.654  38.512   6.188
 5646POPC   C2B71480   4.672  38.421   6.623
 5646POPC   C3B71481   4.603  38.410   7.054
 5646POPC   C4B71482   4.413  38.001   7.188
 5647POPC   NC371483  25.879  37.071   5.416
 5647POPC   PO471484  26.075  36.554   5.115
 5647POPC   GL171485  26.227  36.775   5.632
 5647POPC   GL271486  26.220  37.149   5.776
 5647POPC   C1A71487  26.210  36.765   6.128
 5647POPC   D2A71488  26.107  36.941   6.578
 5647POPC   C3A71489  26.165  36.693   6.973
 5647POPC   C4A71490  26.006  36.344   7.240
 5647POPC   C1B71491  25.915  37.209   6.122
 5647POPC   C2B71492  25.750  37.338   6.542
 5647POPC   C3B71493  25.772  37.136   6.927
 5647POPC   C4B71494  26.105  37.175   7.164
 5648POPC   NC371495  20.468  38.056   5.448
 5648POPC   PO471496  21.055  37.541   5.416
 5648POPC   GL171497  20.788  37.607   5.820
 5648POPC   GL271498  20.509  37.371   5.919
 5648POPC   C1A71499  20.824  37.507   6.306
 5648POPC   D2A71500  20.603  37.604   6.698
 5648POPC   C3A71501  20.807  37.648   7.083
 5648POPC   C4A71502  20.699  37.310   7.304
 5648POPC   C1B71503  20.353  37.683   6.243
 5648POPC   C2B71504  20.215  37.921   6.656
 5648POPC   C3B71505  20.306  37.781   7.120
 5648POPC   C4B71506  20.305  37.591   7.554
 5649POPC   NC371507  42.626   4.390   5.558
 5649POPC   PO471508  43.323   4.571   5.341
 5649POPC   GL171509  43.368   4.403   5.763
 5649POPC   GL271510  43.070   4.258   5.751
 5649POPC   C1A71511  43.217   4.394   6.225
 5649POPC   D2A71512  43.141   4.538   6.658
 5649POPC   C3A71513  43.171   4.354   7.084
 5649POPC   C4A71514  43.334   4.110   7.430
 5649POPC   C1B71515  42.805   4.100   6.101
 5649POPC   C2B71516  42.880   4.087   6.524
 5649POPC   C3B71517  42.848   3.946   6.922
 5649POPC   C4B71518  42.567   4.060   7.246
 5650POPC   NC371519  28.573   1.453   5.630
 5650POPC   PO471520  28.287   0.899   5.287
 5650POPC   GL171521  28.213   1.002   5.740
 5650POPC   GL271522  28.069   1.307   5.814
 5650POPC   C1A71523  28.381   1.055   6.160
 5650POPC   D2A71524  28.269   1.065   6.565
 5650POPC   C3A71525  28.528   1.215   6.870
 5650POPC   C4A71526  28.419   1.140   7.261
 5650POPC   C1B71527  27.962   1.411   6.247
 5650POPC   C2B71528  27.917   1.433   6.705
 5650POPC   C3B71529  28.143   1.522   7.097
 5650POPC   C4B71530  28.270   1.495   7.590
 5651POPC   NC371531   6.717   5.298   5.415
 5651POPC   PO471532   6.443   4.710   5.691
 5651POPC   GL171533   6.597   5.092   5.873
 5651POPC   GL271534   6.444   5.430   5.838
 5651POPC   C1A71535   6.950   5.184   6.146
 5651POPC   D2A71536   6.960   5.279   6.602
 5651POPC   C3A71537   6.660   5.021   6.836
 5651POPC   C4A71538   6.512   4.751   7.142
 5651POPC   C1B71539   6.524   5.439   6.271
 5651POPC   C2B71540   6.311   5.406   6.639
 5651POPC   C3B71541   6.605   5.516   6.913
 5651POPC   C4B71542   6.718   5.349   7.304
 5652POPC   NC371543  42.677  20.392   5.386
 5652POPC   PO471544  42.231  20.822   5.107
 5652POPC   GL171545  42.245  20.586   5.571
 5652POPC   GL271546  42.512  20.688   5.811
 5652POPC   C1A71547  42.121  20.439   6.022
 5652POPC   D2A71548  42.273  20.422   6.469
 5652POPC   C3A71549  42.183  20.673   6.847
 5652POPC   C4A71550  42.229  20.588   7.286
 5652POPC   C1B71551  42.440  20.873   6.240
 5652POPC   C2B71552  42.671  20.885   6.657
 5652POPC   C3B71553  42.631  20.842   7.139
 5652POPC   C4B71554  42.619  20.745   7.601
 5653POPC   NC371555  41.876  40.977   5.598
 5653POPC   PO471556  41.192  40.784   5.433
 5653POPC   GL171557  41.425  40.739   5.820
 5653POPC   GL271558  41.355  41.072   5.913
 5653POPC   C1A71559  41.607  40.487   6.173
 5653POPC   D2A71560  41.946  40.565   6.479
 5653POPC   C3A71561  41.862  40.412   6.893
 5653POPC   C4A71562  41.591  40.538   7.212
 5653POPC   C1B71563  41.684  41.013   6.232
 5653POPC   C2B71564  41.843  41.167   6.633
 5653POPC   C3B71565  41.798  40.982   7.038
 5653POPC   C4B71566  41.835  40.925   7.509
 5654POPC   NC371567  27.069   3.460   5.519
 5654POPC   PO471568  26.414   3.647   5.463
 5654POPC   GL171569  26.586   3.536   5.831
 5654POPC   GL271570  26.916   3.609   5.968
 5654POPC   C1A71571  26.492   3.550   6.237
 5654POPC   D2A71572  26.654   3.362   6.565
 5654POPC   C3A71573  26.667   3.548   6.949
 5654POPC   C4A71574  26.443   3.621   7.312
 5654POPC   C1B71575  27.008   3.226   6.197
 5654POPC   C2B71576  27.018   2.981   6.575
 5654POPC   C3B71577  26.970   3.135   7.011
 5654POPC   C4B71578  26.912   3.423   7.399
 5655POPC   NC371579  19.201  24.725   5.251
 5655POPC   PO471580  18.747  24.294   5.553
 5655POPC   GL171581  18.975  24.548   5.818
 5655POPC   GL271582  19.252  24.772   5.768
 5655POPC   C1A71583  19.123  24.450   6.226
 5655POPC   D2A71584  18.974  24.568   6.612
 5655POPC   C3A71585  19.067  24.288   6.931
 5655POPC   C4A71586  19.109  24.442   7.297
 5655POPC   C1B71587  19.088  24.957   6.158
 5655POPC   C2B71588  19.277  25.050   6.556
 5655POPC   C3B71589  19.272  24.825   6.941
 5655POPC   C4B71590  18.840  24.817   7.061
 5656POPC   NC371591   1.701  29.543   5.281
 5656POPC   PO471592   1.159  29.032   5.310
 5656POPC   GL171593   1.121  29.310   5.663
 5656POPC   GL271594   1.474  29.428   5.762
 5656POPC   C1A71595   1.080  29.215   6.090
 5656POPC   D2A71596   1.324  29.034   6.417
 5656POPC   C3A71597   1.139  29.178   6.782
 5656POPC   C4A71598   0.902  28.986   7.065
 5656POPC   C1B71599   1.654  29.423   6.217
 5656POPC   C2B71600   1.561  29.485   6.677
 5656POPC   C3B71601   1.538  29.246   7.098
 5656POPC   C4B71602   1.596  29.191   7.562
 5657POPC   NC371603  30.734  13.316   5.364
 5657POPC   PO471604  30.435  13.897   5.480
 5657POPC   GL171605  30.673  13.679   5.828
 5657POPC   GL271606  30.621  13.294   5.863
 5657POPC   C1A71607  30.905  13.787   6.251
 5657POPC   D2A71608  30.996  13.902   6.718
 5657POPC   C3A71609  30.946  13.568   7.022
 5657POPC   C4A71610  30.816  13.495   7.442
 5657POPC   C1B71611  30.457  13.484   6.245
 5657POPC   C2B71612  30.535  13.626   6.637
 5657POPC   C3B71613  30.301  13.856   6.899
 5657POPC   C4B71614  30.491  13.860   7.283
 5658POPC   NC371615  43.213  27.108   5.431
 5658POPC   PO471616  43.095  26.403   5.471
 5658POPC   GL171617  43.315  26.704   5.767
 5658POPC   GL271618  43.186  27.054   5.917
 5658POPC   C1A71619  43.412  26.718   6.204
 5658POPC   D2A71620  43.252  27.029   6.506
 5658POPC   C3A71621  43.304  26.912   6.920
 5658POPC   C4A71622  43.352  26.708   7.270
 5658POPC   C1B71623  42.848  26.990   6.181
 5658POPC   C2B71624  42.602  27.057   6.541
 5658POPC   C3B71625  42.821  27.096   6.900
 5658POPC   C4B71626  42.873  26.878   7.229
 5659POPC   NC371627  25.775   4.930   5.447
 5659POPC   PO471628  26.427   5.232   5.496
 5659POPC   GL171629  26.192   4.986   5.769
 5659POPC   GL271630  26.022   5.246   5.959
 5659POPC   C1A71631  26.085   4.789   6.174
 5659POPC   D2A71632  26.188   4.971   6.570
 5659POPC   C3A71633  26.175   4.819   6.975
 5659POPC   C4A71634  26.152   5.090   7.310
 5659POPC   C1B71635  25.779   5.182   6.321
 5659POPC   C2B71636  25.779   5.251   6.741
 5659POPC   C3B71637  25.956   5.488   7.058
 5659POPC   C4B71638  25.641   5.374   7.264
 5660POPC   NC371639  41.293  26.752   5.252
 5660POPC   PO471640  41.903  26.476   5.537
 5660POPC   GL171641  41.707  26.828   5.794
 5660POPC   GL271642  41.333  26.896   5.749
 5660POPC   C1A71643  41.639  26.953   6.240
 5660POPC   D2A71644  41.517  26.862   6.689
 5660POPC   C3A71645  41.824  26.801   7.044
 5660POPC   C4A71646  42.011  26.431   7.223
 5660POPC   C1B71647  41.172  27.143   6.101
 5660POPC   C2B71648  41.256  27.308   6.530
 5660POPC   C3B71649  41.162  27.146   6.937
 5660POPC   C4B71650  41.377  26.940   7.258
 5661POPC   NC371651  43.392   9.693   5.591
 5661POPC   PO471652  42.809   9.793   5.307
 5661POPC   GL171653  42.879   9.668   5.765
 5661POPC   GL271654  43.159   9.557   5.994
 5661POPC   C1A71655  42.795   9.828   6.201
 5661POPC   D2A71656  43.020   9.925   6.572
 5661POPC   C3A71657  42.916   9.738   6.966
 5661POPC   C4A71658  42.841   9.821   7.398
 5661POPC   C1B71659  43.444   9.693   6.279
 5661POPC   C2B71660  43.345   9.511   6.646
 5661POPC   C3B71661  43.427   9.702   7.005
 5661POPC   C4B71662  43.432   9.669   7.419
 5662POPC   NC371663  25.224  26.328   5.378
 5662POPC   PO471664  25.574  26.987   5.404
 5662POPC   GL171665  25.302  26.986   5.779
 5662POPC   GL271666  25.234  26.646   5.841
 5662POPC   C1A71667  25.246  27.025   6.212
 5662POPC   D2A71668  25.055  26.757   6.495
 5662POPC   C3A71669  25.155  26.828   6.911
 5662POPC   C4A71670  25.315  27.100   7.223
 5662POPC   C1B71671  25.384  26.414   6.252
 5662POPC   C2B71672  25.416  26.381   6.728
 5662POPC   C3B71673  25.410  26.335   7.198
 5662POPC   C4B71674  25.599  26.286   7.598
 5663POPC   NC371675   8.257   3.759   5.376
 5663POPC   PO471676   8.201   3.076   5.337
 5663POPC   GL171677   8.106   3.372   5.690
 5663POPC   GL271678   8.399   3.435   5.784
 5663POPC   C1A71679   8.131   3.616   6.148
 5663POPC   D2A71680   8.168   3.826   6.552
 5663POPC   C3A71681   8.221   3.596   6.912
 5663POPC   C4A71682   8.200   3.364   7.277
 5663POPC   C1B71683   8.555   3.269   6.153
 5663POPC   C2B71684   8.558   3.398   6.565
 5663POPC   C3B71685   8.601   3.240   6.963
 5663POPC   C4B71686   8.691   3.345   7.375
 5664POPC   NC371687  37.081  31.837   5.362
 5664POPC   PO471688  36.634  32.387   5.413
 5664POPC   GL171689  36.662  32.337   5.855
 5664POPC   GL271690  36.684  31.977   5.764
 5664POPC   C1A71691  36.836  32.456   6.280
 5664POPC   D2A71692  37.125  32.597   6.670
 5664POPC   C3A71693  36.894  32.701   7.082
 5664POPC   C4A71694  36.637  32.446   7.400
 5664POPC   C1B71695  36.894  31.927   6.167
 5664POPC   C2B71696  36.972  32.091   6.600
 5664POPC   C3B71697  36.767  32.201   6.943
 5664POPC   C4B71698  36.600  31.924   7.224
 5665POPC   NC371699   5.387  17.892   5.314
 5665POPC   PO471700   5.008  18.418   5.373
 5665POPC   GL171701   5.318  18.403   5.685
 5665POPC   GL271702   5.214  18.064   5.761
 5665POPC   C1A71703   5.479  18.476   6.120
 5665POPC   D2A71704   5.240  18.513   6.492
 5665POPC   C3A71705   5.269  18.560   6.910
 5665POPC   C4A71706   5.096  18.257   7.215
 5665POPC   C1B71707   4.995  18.286   6.082
 5665POPC   C2B71708   4.752  18.406   6.416
 5665POPC   C3B71709   4.761  18.371   6.844
 5665POPC   C4B71710   4.580  18.472   7.230
 5666POPC   NC371711  29.913  34.760   5.367
 5666POPC   PO471712  30.085  34.117   5.603
 5666POPC   GL171713  29.959  34.456   5.873
 5666POPC   GL271714  29.754  34.759   5.856
 5666POPC   C1A71715  29.955  34.435   6.309
 5666POPC   D2A71716  30.225  34.398   6.630
 5666POPC   C3A71717  29.976  34.489   6.961
 5666POPC   C4A71718  29.941  34.617   7.408
 5666POPC   C1B71719  29.705  34.888   6.309
 5666POPC   C2B71720  29.559  34.605   6.659
 5666POPC   C3B71721  29.503  34.543   7.116
 5666POPC   C4B71722  29.495  34.866   7.422
 5667POPC   NC371723  14.218   3.668   5.381
 5667POPC   PO471724  14.721   3.295   5.488
 5667POPC   GL171725  14.423   3.390   5.790
 5667POPC   GL271726  14.130   3.212   5.634
 5667POPC   C1A71727  14.493   3.641   6.197
 5667POPC   D2A71728  14.652   3.613   6.657
 5667POPC   C3A71729  14.403   3.774   7.013
 5667POPC   C4A71730  13.999   3.648   7.235
 5667POPC   C1B71731  14.089   3.189   6.104
 5667POPC   C2B71732  14.256   3.306   6.481
 5667POPC   C3B71733  14.148   3.364   6.841
 5667POPC   C4B71734  14.139   3.164   7.194
 5668POPC   NC371735  28.100  11.994   5.303
 5668POPC   PO471736  28.801  12.083   5.374
 5668POPC   GL171737  28.461  12.109   5.690
 5668POPC   GL271738  28.569  11.867   5.904
 5668POPC   C1A71739  28.258  12.194   6.116
 5668POPC   D2A71740  28.308  12.333   6.558
 5668POPC   C3A71741  28.318  12.073   6.913
 5668POPC   C4A71742  28.056  12.065   7.275
 5668POPC   C1B71743  28.773  11.849   6.273
 5668POPC   C2B71744  28.791  11.912   6.695
 5668POPC   C3B71745  28.748  11.901   7.126
 5668POPC   C4B71746  28.551  11.967   7.484
 5669POPC   NC371747  13.718  22.374   5.638
 5669POPC   PO471748  13.869  21.720   5.441
 5669POPC   GL171749  13.510  21.882   5.773
 5669POPC   GL271750  13.490  22.209   6.027
 5669POPC   C1A71751  13.466  21.770   6.223
 5669POPC   D2A71752  13.436  22.114   6.531
 5669POPC   C3A71753  13.538  22.007   6.934
 5669POPC   C4A71754  13.415  21.821   7.296
 5669POPC   C1B71755  13.742  22.491   6.301
 5669POPC   C2B71756  13.864  22.365   6.735
 5669POPC   C3B71757  13.743  22.379   7.184
 5669POPC   C4B71758  13.980  22.602   7.524
 5670POPC   NC371759  31.125  39.336   5.407
 5670POPC   PO471760  31.748  39.066   5.489
 5670POPC   GL171761  31.515  39.324   5.751
 5670POPC   GL271762  31.212  39.126   5.844
 5670POPC   C1A71763  31.554  39.298   6.204
 5670POPC   D2A71764  31.697  39.476   6.582
 5670POPC   C3A71765  31.771  39.255   6.967
 5670POPC   C4A71766  31.644  39.520   7.343
 5670POPC   C1B71767  31.145  39.560   6.040
 5670POPC   C2B71768  31.163  39.558   6.501
 5670POPC   C3B71769  31.272  39.237   6.839
 5670POPC   C4B71770  31.251  39.200   7.309
 5671POPC   NC371771   3.864  20.804   5.562
 5671POPC   PO471772   4.525  20.925   5.437
 5671POPC   GL171773   4.440  20.635   5.802
 5671POPC   GL271774   4.126  20.401   5.809
 5671POPC   C1A71775   4.520  20.475   6.217
 5671POPC   D2A71776   4.293  20.259   6.574
 5671POPC   C3A71777   4.426  20.352   7.005
 5671POPC   C4A71778   4.564  20.761   7.101
 5671POPC   C1B71779   4.049  20.634   6.220
 5671POPC   C2B71780   4.220  20.751   6.665
 5671POPC   C3B71781   4.056  20.683   7.100
 5671POPC   C4B71782   4.000  20.506   7.517
 5672POPC   NC371783  28.607  12.535   5.411
 5672POPC   PO471784  28.158  12.954   5.537
 5672POPC   GL171785  28.300  12.739   5.913
 5672POPC   GL271786  28.689  12.746   5.882
 5672POPC   C1A71787  28.119  12.893   6.329
 5672POPC   D2A71788  28.070  13.162   6.708
 5672POPC   C3A71789  28.097  12.871   7.045
 5672POPC   C4A71790  28.303  12.510   7.143
 5672POPC   C1B71791  28.630  12.916   6.289
 5672POPC   C2B71792  28.522  12.847   6.730
 5672POPC   C3B71793  28.678  12.904   7.168
 5672POPC   C4B71794  28.857  12.838   7.595
 5673POPC   NC371795  26.026  29.996   5.295
 5673POPC   PO471796  26.178  29.375   5.447
 5673POPC   GL171797  26.156  29.737   5.771
 5673POPC   GL271798  26.141  30.120   5.780
 5673POPC   C1A71799  26.118  29.819   6.231
 5673POPC   D2A71800  26.003  29.623   6.622
 5673POPC   C3A71801  26.061  29.806   7.024
 5673POPC   C4A71802  26.319  29.674   7.371
 5673POPC   C1B71803  25.989  30.299   6.176
 5673POPC   C2B71804  25.979  30.153   6.620
 5673POPC   C3B71805  26.013  30.330   7.017
 5673POPC   C4B71806  26.081  30.159   7.421
 5674POPC   NC371807   7.966  17.031   5.544
 5674POPC   PO471808   8.213  17.638   5.468
 5674POPC   GL171809   8.172  17.527   5.879
 5674POPC   GL271810   8.525  17.582   5.960
 5674POPC   C1A71811   7.871  17.631   6.221
 5674POPC   D2A71812   7.739  17.454   6.625
 5674POPC   C3A71813   7.777  17.723   6.980
 5674POPC   C4A71814   7.833  17.632   7.402
 5674POPC   C1B71815   8.392  17.428   6.357
 5674POPC   C2B71816   8.199  17.195   6.683
 5674POPC   C3B71817   8.093  17.306   7.111
 5674POPC   C4B71818   8.265  17.401   7.550
 5675POPC   NC371819   2.935  26.986   5.580
 5675POPC   PO471820   2.348  26.763   5.611
 5675POPC   GL171821   2.642  26.643   5.891
 5675POPC   GL271822   3.012  26.663   5.952
 5675POPC   C1A71823   2.599  26.796   6.298
 5675POPC   D2A71824   2.460  26.612   6.667
 5675POPC   C3A71825   2.648  26.612   7.027
 5675POPC   C4A71826   2.758  26.987   7.163
 5675POPC   C1B71827   3.011  27.075   6.222
 5675POPC   C2B71828   2.853  27.080   6.660
 5675POPC   C3B71829   3.133  27.255   6.969
 5675POPC   C4B71830   3.220  27.067   7.339
 5676POPC   NC371831  15.577  19.891   5.462
 5676POPC   PO471832  16.112  19.412   5.376
 5676POPC   GL171833  15.978  19.689   5.749
 5676POPC   GL271834  15.630  19.689   5.923
 5676POPC   C1A71835  15.991  19.963   6.141
 5676POPC   D2A71836  15.723  19.933   6.512
 5676POPC   C3A71837  15.944  19.927   6.916
 5676POPC   C4A71838  15.806  19.941   7.319
 5676POPC   C1B71839  15.762  19.479   6.312
 5676POPC   C2B71840  15.912  19.325   6.747
 5676POPC   C3B71841  15.933  19.471   7.190
 5676POPC   C4B71842  16.075  19.559   7.641
 5677POPC   NC371843  10.847  19.964   5.126
 5677POPC   PO471844  11.476  19.874   5.328
 5677POPC   GL171845  11.470  20.040   5.751
 5677POPC   GL271846  11.750  20.258   5.814
 5677POPC   C1A71847  11.297  19.923   6.154
 5677POPC   D2A71848  11.042  19.761   6.490
 5677POPC   C3A71849  11.091  19.938   6.891
 5677POPC   C4A71850  11.062  19.688   7.246
 5677POPC   C1B71851  11.812  19.975   6.162
 5677POPC   C2B71852  11.628  19.871   6.560
 5677POPC   C3B71853  11.543  19.743   6.985
 5677POPC   C4B71854  11.468  19.944   7.375
 5678POPC   NC371855  44.118   9.185   5.279
 5678POPC   PO471856  43.880   8.556   5.349
 5678POPC   GL171857  43.868   8.806   5.747
 5678POPC   GL271858  43.722   9.143   5.691
 5678POPC   C1A71859  43.999   8.912   6.164
 5678POPC   D2A71860  44.109   8.778   6.571
 5678POPC   C3A71861  44.116   9.098   6.865
 5678POPC   C4A71862  43.959   8.930   7.251
 5678POPC   C1B71863  43.583   9.211   6.112
 5678POPC   C2B71864  43.629   9.058   6.544
 5678POPC   C3B71865  43.621   9.219   6.973
 5678POPC   C4B71866  43.873   9.448   7.226
 5679POPC   NC371867   8.534   5.815   5.634
 5679POPC   PO471868   7.924   5.939   5.503
 5679POPC   GL171869   8.146   6.040   5.855
 5679POPC   GL271870   8.047   5.721   5.944
 5679POPC   C1A71871   8.353   5.972   6.260
 5679POPC   D2A71872   8.075   5.776   6.554
 5679POPC   C3A71873   8.159   5.847   6.973
 5679POPC   C4A71874   8.564   5.887   7.132
 5679POPC   C1B71875   8.276   5.437   6.186
 5679POPC   C2B71876   8.482   5.245   6.515
 5679POPC   C3B71877   8.591   5.344   6.918
 5679POPC   C4B71878   8.293   5.443   7.235
 5680POPC   NC371879  21.244  20.035   5.536
 5680POPC   PO471880  21.581  19.428   5.430
 5680POPC   GL171881  21.468  19.647   5.822
 5680POPC   GL271882  21.562  19.985   5.931
 5680POPC   C1A71883  21.344  19.641   6.270
 5680POPC   D2A71884  21.329  19.966   6.588
 5680POPC   C3A71885  21.276  19.894   7.009
 5680POPC   C4A71886  20.907  19.646   7.110
 5680POPC   C1B71887  21.788  19.899   6.339
 5680POPC   C2B71888  21.750  19.683   6.753
 5680POPC   C3B71889  21.784  19.810   7.196
 5680POPC   C4B71890  21.563  19.779   7.603
 5681POPC   NC371891  25.001  28.936   5.268
 5681POPC   PO471892  24.578  28.347   5.401
 5681POPC   GL171893  24.738  28.436   5.806
 5681POPC   GL271894  24.808  28.777   5.744
 5681POPC   C1A71895  24.613  28.443   6.242
 5681POPC   D2A71896  24.456  28.604   6.629
 5681POPC   C3A71897  24.678  28.401   6.947
 5681POPC   C4A71898  24.623  28.198   7.328
 5681POPC   C1B71899  24.735  28.944   6.163
 5681POPC   C2B71900  24.884  28.868   6.573
 5681POPC   C3B71901  24.715  28.907   7.003
 5681POPC   C4B71902  24.493  28.692   7.327
 5682POPC   NC371903  14.150  14.509   5.591
 5682POPC   PO471904  14.802  14.270   5.538
 5682POPC   GL171905  14.640  14.362   5.909
 5682POPC   GL271906  14.313  14.219   5.968
 5682POPC   C1A71907  14.624  14.289   6.355
 5682POPC   D2A71908  14.578  14.566   6.683
 5682POPC   C3A71909  14.473  14.390   7.069
 5682POPC   C4A71910  14.466  14.056   7.405
 5682POPC   C1B71911  14.096  14.417   6.280
 5682POPC   C2B71912  14.084  14.402   6.712
 5682POPC   C3B71913  14.072  14.695   7.025
 5682POPC   C4B71914  14.132  15.008   7.282
 5683POPC   NC371915  18.792   6.623   5.436
 5683POPC   PO471916  18.056   6.632   5.439
 5683POPC   GL171917  18.127   6.563   5.823
 5683POPC   GL271918  18.455   6.727   5.848
 5683POPC   C1A71919  18.234   6.343   6.191
 5683POPC   D2A71920  18.077   6.461   6.591
 5683POPC   C3A71921  18.321   6.527   6.958
 5683POPC   C4A71922  18.087   6.730   7.184
 5683POPC   C1B71923  18.233   6.837   6.235
 5683POPC   C2B71924  18.346   6.932   6.650
 5683POPC   C3B71925  18.509   7.033   7.046
 5683POPC   C4B71926  18.443   6.947   7.469
 5684POPC   NC371927  31.742  17.854   5.524
 5684POPC   PO471928  31.276  17.460   5.299
 5684POPC   GL171929  31.338  17.566   5.742
 5684POPC   GL271930  31.670  17.419   5.794
 5684POPC   C1A71931  31.324  17.773   6.180
 5684POPC   D2A71932  31.119  17.867   6.613
 5684POPC   C3A71933  31.307  17.685   6.976
 5684POPC   C4A71934  31.698  17.672   7.134
 5684POPC   C1B71935  31.441  17.278   6.186
 5684POPC   C2B71936  31.557  17.415   6.614
 5684POPC   C3B71937  31.500  17.197   7.016
 5684POPC   C4B71938  31.124  17.013   7.220
 5685POPC   NC371939  34.294  15.670   5.284
 5685POPC   PO471940  33.822  16.224   5.482
 5685POPC   GL171941  33.934  15.975   5.847
 5685POPC   GL271942  33.942  15.648   5.714
 5685POPC   C1A71943  34.118  15.937   6.280
 5685POPC   D2A71944  33.949  15.717   6.678
 5685POPC   C3A71945  33.946  15.881   7.072
 5685POPC   C4A71946  34.202  16.199   7.213
 5685POPC   C1B71947  33.831  15.530   6.128
 5685POPC   C2B71948  33.614  15.869   6.345
 5685POPC   C3B71949  33.450  15.964   6.722
 5685POPC   C4B71950  33.444  15.936   7.204
 5686POPC   NC371951   5.396  26.943   5.472
 5686POPC   PO471952   4.925  26.538   5.493
 5686POPC   GL171953   5.077  26.550   5.906
 5686POPC   GL271954   5.282  26.848   5.956
 5686POPC   C1A71955   5.091  26.612   6.353
 5686POPC   D2A71956   5.403  26.525   6.641
 5686POPC   C3A71957   5.128  26.524   6.957
 5686POPC   C4A71958   5.082  26.878   7.176
 5686POPC   C1B71959   4.903  27.068   6.107
 5686POPC   C2B71960   4.883  27.359   6.447
 5686POPC   C3B71961   4.968  27.243   6.838
 5686POPC   C4B71962   4.766  27.272   7.246
 5687POPC   NC371963  21.790   5.832   5.325
 5687POPC   PO471964  21.439   6.374   5.511
 5687POPC   GL171965  21.404   6.071   5.847
 5687POPC   GL271966  21.219   5.734   5.823
 5687POPC   C1A71967  21.397   6.018   6.293
 5687POPC   D2A71968  21.292   5.848   6.693
 5687POPC   C3A71969  21.402   6.107   7.046
 5687POPC   C4A71970  21.572   6.011   7.451
 5687POPC   C1B71971  21.026   5.413   6.106
 5687POPC   C2B71972  20.858   5.431   6.528
 5687POPC   C3B71973  20.949   5.559   6.936
 5687POPC   C4B71974  21.139   5.732   7.304
 5688POPC   NC371975  24.278   3.295   5.642
 5688POPC   PO471976  24.916   3.448   5.446
 5688POPC   GL171977  24.750   3.514   5.790
 5688POPC   GL271978  24.707   3.168   5.879
 5688POPC   C1A71979  24.821   3.826   6.079
 5688POPC   D2A71980  24.648   3.872   6.482
 5688POPC   C3A71981  24.831   3.717   6.890
 5688POPC   C4A71982  24.711   3.739   7.318
 5688POPC   C1B71983  24.562   3.375   6.258
 5688POPC   C2B71984  24.447   3.457   6.676
 5688POPC   C3B71985  24.322   3.528   7.073
 5688POPC   C4B71986  24.378   3.338   7.505
 5689POPC   NC371987  13.410  15.445   5.581
 5689POPC   PO471988  13.790  14.842   5.487
 5689POPC   GL171989  13.704  14.754   5.912
 5689POPC   GL271990  13.546  15.082   5.947
 5689POPC   C1A71991  13.759  14.847   6.360
 5689POPC   D2A71992  13.810  15.061   6.760
 5689POPC   C3A71993  13.632  14.936   7.162
 5689POPC   C4A71994  13.718  15.103   7.620
 5689POPC   C1B71995  13.299  15.256   6.273
 5689POPC   C2B71996  13.416  15.394   6.668
 5689POPC   C3B71997  13.602  15.445   7.037
 5689POPC   C4B71998  13.373  15.338   7.350
 5690POPC   NC371999  17.990  39.058   5.163
 5690POPC   PO472000  17.666  39.406   5.613
 5690POPC   GL172001  17.537  39.112   5.881
 5690POPC   GL272002  17.443  39.393   6.089
 5690POPC   C1A72003  17.592  38.961   6.313
 5690POPC   D2A72004  17.574  39.331   6.597
 5690POPC   C3A72005  17.722  39.316   7.033
 5690POPC   C4A72006  17.661  39.574   7.415
 5690POPC   C1B72007  17.119  39.053   6.147
 5690POPC   C2B72008  17.122  38.818   6.516
 5690POPC   C3B72009  17.288  39.011   6.867
 5690POPC   C4B72010  17.242  39.312   7.204
 5691POPC   NC372011  38.144  22.898   5.514
 5691POPC   PO472012  38.809  22.693   5.520
 5691POPC   GL172013  38.764  22.901   5.911
 5691POPC   GL272014  38.461  23.132   5.877
 5691POPC   C1A72015  38.539  22.858   6.299
 5691POPC   D2A72016  38.494  23.041   6.695
 5691POPC   C3A72017  38.350  22.732   6.988
 5691POPC   C4A72018  38.663  22.520   7.205
 5691POPC   C1B72019  38.231  23.283   6.273
 5691POPC   C2B72020  37.975  23.160   6.654
 5691POPC   C3B72021  38.169  23.224   7.055
 5691POPC   C4B72022  38.354  23.596   7.151
 5692POPC   NC372023  35.447   4.086   5.540
 5692POPC   PO472024  35.601   4.775   5.523
 5692POPC   GL172025  35.369   4.691   5.904
 5692POPC   GL272026  35.269   4.333   5.946
 5692POPC   C1A72027  35.091   4.706   6.270
 5692POPC   D2A72028  34.979   4.486   6.655
 5692POPC   C3A72029  35.302   4.525   6.974
 5692POPC   C4A72030  35.304   4.492   7.424
 5692POPC   C1B72031  35.485   4.028   6.222
 5692POPC   C2B72032  35.480   4.024   6.665
 5692POPC   C3B72033  35.437   4.042   7.079
 5692POPC   C4B72034  35.085   4.065   7.280
 5693POPC   NC372035   2.244  27.210   5.574
 5693POPC   PO472036   1.837  26.793   5.264
 5693POPC   GL172037   1.854  26.830   5.731
 5693POPC   GL272038   1.795  26.530   5.818
 5693POPC   C1A72039   1.965  26.827   6.219
 5693POPC   D2A72040   2.223  27.028   6.588
 5693POPC   C3A72041   2.225  26.910   7.015
 5693POPC   C4A72042   2.326  27.191   7.325
 5693POPC   C1B72043   1.761  26.348   6.225
 5693POPC   C2B72044   1.595  26.422   6.633
 5693POPC   C3B72045   1.781  26.618   6.972
 5693POPC   C4B72046   1.823  26.858   7.337
 5694POPC   NC372047   2.959  31.767   5.468
 5694POPC   PO472048   3.479  32.232   5.376
 5694POPC   GL172049   3.719  32.191   5.745
 5694POPC   GL272050   3.413  32.265   5.932
 5694POPC   C1A72051   3.857  32.282   6.178
 5694POPC   D2A72052   3.627  32.381   6.560
 5694POPC   C3A72053   3.832  32.330   6.969
 5694POPC   C4A72054   3.667  32.497   7.353
 5694POPC   C1B72055   3.317  31.979   6.269
 5694POPC   C2B72056   3.348  31.942   6.677
 5694POPC   C3B72057   3.294  32.259   6.955
 5694POPC   C4B72058   3.433  32.067   7.289
 5695POPC   NC372059  34.762  43.337   5.512
 5695POPC   PO472060  34.519  42.625   5.481
 5695POPC   GL172061  34.510  42.848   5.828
 5695POPC   GL272062  34.853  42.932   5.852
 5695POPC   C1A72063  34.294  42.808   6.205
 5695POPC   D2A72064  34.161  42.988   6.573
 5695POPC   C3A72065  34.439  43.027   6.905
 5695POPC   C4A72066  34.401  43.003   7.331
 5695POPC   C1B72067  34.785  43.106   6.290
 5695POPC   C2B72068  34.934  43.111   6.749
 5695POPC   C3B72069  34.816  43.337   7.134
 5695POPC   C4B72070  34.933  43.773   7.171
 5696POPC   NC372071  39.543  38.326   5.388
 5696POPC   PO472072  40.114  38.677   5.136
 5696POPC   GL172073  40.009  38.492   5.623
 5696POPC   GL272074  40.019  38.754   5.867
 5696POPC   C1A72075  39.980  38.324   6.129
 5696POPC   D2A72076  40.014  38.452   6.601
 5696POPC   C3A72077  39.961  38.275   7.010
 5696POPC   C4A72078  40.154  37.921   7.235
 5696POPC   C1B72079  40.260  38.754   6.257
 5696POPC   C2B72080  40.387  38.797   6.687
 5696POPC   C3B72081  40.277  38.695   7.095
 5696POPC   C4B72082  40.288  38.388   7.378
 5697POPC   NC372083   6.345  32.503   5.477
 5697POPC   PO472084   6.593  31.890   5.463
 5697POPC   GL172085   6.662  32.183   5.795
 5697POPC   GL272086   6.849  32.473   5.693
 5697POPC   C1A72087   6.543  32.434   6.176
 5697POPC   D2A72088   6.574  32.306   6.606
 5697POPC   C3A72089   6.324  32.434   6.963
 5697POPC   C4A72090   6.525  32.401   7.350
 5697POPC   C1B72091   7.015  32.662   6.077
 5697POPC   C2B72092   6.955  32.679   6.521
 5697POPC   C3B72093   6.956  32.463   6.927
 5697POPC   C4B72094   6.988  32.642   7.338
 5698POPC   NC372095  42.962  16.914   4.916
 5698POPC   PO472096  43.004  16.450   5.421
 5698POPC   GL172097  42.972  16.665   5.821
 5698POPC   GL272098  43.306  16.560   5.925
 5698POPC   C1A72099  43.087  16.927   6.188
 5698POPC   D2A72100  43.294  16.995   6.616
 5698POPC   C3A72101  43.034  16.830   6.953
 5698POPC   C4A72102  42.805  16.947   7.304
 5698POPC   C1B72103  43.506  16.656   6.293
 5698POPC   C2B72104  43.577  16.463   6.655
 5698POPC   C3B72105  43.442  16.541   7.049
 5698POPC   C4B72106  43.235  16.693   7.430
 5699POPC   NC372107   1.460  40.865   5.291
 5699POPC   PO472108   1.061  40.423   5.509
 5699POPC   GL172109   1.396  40.576   5.766
 5699POPC   GL272110   1.444  40.947   5.798
 5699POPC   C1A72111   1.611  40.577   6.165
 5699POPC   D2A72112   1.471  40.467   6.575
 5699POPC   C3A72113   1.175  40.667   6.805
 5699POPC   C4A72114   1.340  40.762   7.186
 5699POPC   C1B72115   1.113  40.859   6.108
 5699POPC   C2B72116   0.982  41.056   6.494
 5699POPC   C3B72117   1.095  41.151   6.923
 5699POPC   C4B72118   0.953  41.055   7.346
 5700POPC   NC372119  38.941  37.727   5.430
 5700POPC   PO472120  39.525  37.878   5.257
 5700POPC   GL172121  39.420  37.644   5.763
 5700POPC   GL272122  39.095  37.685   5.904
 5700POPC   C1A72123  39.301  37.422   6.263
 5700POPC   D2A72124  39.190  37.128   6.650
 5700POPC   C3A72125  39.096  37.308   7.071
 5700POPC   C4A72126  39.364  37.563   7.326
 5700POPC   C1B72127  39.085  37.902   6.289
 5700POPC   C2B72128  39.056  38.057   6.689
 5700POPC   C3B72129  39.162  37.977   7.108
 5700POPC   C4B72130  38.968  37.888   7.493
 5701POPC   NC372131  19.186  22.952   5.334
 5701POPC   PO472132  18.688  22.568   5.548
 5701POPC   GL172133  19.046  22.810   5.805
 5701POPC   GL272134  19.412  23.003   5.784
 5701POPC   C1A72135  18.988  22.812   6.228
 5701POPC   D2A72136  18.714  22.826   6.569
 5701POPC   C3A72137  18.900  22.774   6.955
 5701POPC   C4A72138  18.808  23.138   7.151
 5701POPC   C1B72139  19.346  23.171   6.214
 5701POPC   C2B72140  19.248  23.018   6.652
 5701POPC   C3B72141  19.320  23.085   7.093
 5701POPC   C4B72142  19.592  23.400   7.230
 5702POPC   NC372143   0.176  35.067   5.778
 5702POPC   PO472144   0.480  34.544   5.414
 5702POPC   GL172145   0.568  34.747   5.812
 5702POPC   GL272146   0.592  34.438   5.932
 5702POPC   C1A72147   0.539  34.793   6.278
 5702POPC   D2A72148   0.179  34.603   6.497
 5702POPC   C3A72149   0.241  34.603   6.933
 5702POPC   C4A72150   0.610  34.834   7.139
 5702POPC   C1B72151   0.808  34.372   6.313
 5702POPC   C2B72152   0.775  34.529   6.720
 5702POPC   C3B72153   0.645  34.300   7.061
 5702POPC   C4B72154   0.605  34.326   7.501
 5703POPC   NC372155  16.200  35.522   5.619
 5703POPC   PO472156  16.819  35.254   5.482
 5703POPC   GL172157  16.797  35.314   5.873
 5703POPC   GL272158  16.473  35.190   5.913
 5703POPC   C1A72159  17.033  35.468   6.215
 5703POPC   D2A72160  17.128  35.321   6.620
 5703POPC   C3A72161  16.915  35.250   7.010
 5703POPC   C4A72162  16.841  35.602   7.233
 5703POPC   C1B72163  16.669  35.070   6.300
 5703POPC   C2B72164  16.552  35.146   6.679
 5703POPC   C3B72165  16.416  35.323   7.045
 5703POPC   C4B72166  16.314  35.529   7.406
 5704POPC   NC372167  22.264  34.912   5.342
 5704POPC   PO472168  22.099  34.247   5.389
 5704POPC   GL172169  22.298  34.527   5.695
 5704POPC   GL272170  22.129  34.816   5.815
 5704POPC   C1A72171  22.411  34.520   6.130
 5704POPC   D2A72172  22.541  34.626   6.540
 5704POPC   C3A72173  22.193  34.565   6.862
 5704POPC   C4A72174  22.207  34.405   7.268
 5704POPC   C1B72175  21.925  34.782   6.201
 5704POPC   C2B72176  21.765  34.824   6.601
 5704POPC   C3B72177  21.815  35.014   6.976
 5704POPC   C4B72178  21.964  34.851   7.309
 5705POPC   NC372179   2.664  42.986   5.461
 5705POPC   PO472180   3.365  43.122   5.493
 5705POPC   GL172181   3.000  43.062   5.853
 5705POPC   GL272182   2.710  43.303   5.868
 5705POPC   C1A72183   2.876  43.215   6.329
 5705POPC   D2A72184   2.565  43.245   6.691
 5705POPC   C3A72185   2.825  43.191   7.073
 5705POPC   C4A72186   3.239  43.297   7.275
 5705POPC   C1B72187   2.558  42.889   6.093
 5705POPC   C2B72188   2.397  42.767   6.512
 5705POPC   C3B72189   2.426  42.799   6.970
 5705POPC   C4B72190   2.370  43.084   7.319
 5706POPC   NC372191   7.658  21.071   5.688
 5706POPC   PO472192   7.677  21.675   5.325
 5706POPC   GL172193   7.379  21.701   5.695
 5706POPC   GL272194   7.212  21.383   5.703
 5706POPC   C1A72195   7.349  21.791   6.167
 5706POPC   D2A72196   7.394  21.534   6.575
 5706POPC   C3A72197   7.282  21.655   6.988
 5706POPC   C4A72198   7.396  21.533   7.410
 5706POPC   C1B72199   7.141  21.332   6.149
 5706POPC   C2B72200   7.172  21.071   6.533
 5706POPC   C3B72201   7.067  21.187   6.978
 5706POPC   C4B72202   7.024  21.175   7.448
 5707POPC   NC372203  36.550   9.787   5.269
 5707POPC   PO472204  35.975   9.666   5.390
 5707POPC   GL172205  35.951   9.459   5.796
 5707POPC   GL272206  36.313   9.473   5.812
 5707POPC   C1A72207  35.847   9.368   6.225
 5707POPC   D2A72208  36.032   9.341   6.631
 5707POPC   C3A72209  35.906   9.608   7.009
 5707POPC   C4A72210  35.932   9.629   7.460
 5707POPC   C1B72211  36.248   9.668   6.243
 5707POPC   C2B72212  36.289   9.783   6.693
 5707POPC   C3B72213  36.391   9.767   7.138
 5707POPC   C4B72214  36.549  10.102   7.422
 5708POPC   NC372215   6.841  19.830   5.105
 5708POPC   PO472216   7.444  19.871   5.343
 5708POPC   GL172217   7.384  19.676   5.717
 5708POPC   GL272218   7.535  19.956   5.855
 5708POPC   C1A72219   7.366  19.582   6.175
 5708POPC   D2A72220   7.575  19.571   6.579
 5708POPC   C3A72221   7.348  19.669   6.957
 5708POPC   C4A72222   7.097  19.848   7.283
 5708POPC   C1B72223   7.755  19.914   6.226
 5708POPC   C2B72224   7.830  20.181   6.541
 5708POPC   C3B72225   7.853  20.153   6.960
 5708POPC   C4B72226   7.582  20.001   7.301
 5709POPC   NC372227  40.888  10.003   5.301
 5709POPC   PO472228  40.613  10.576   5.360
 5709POPC   GL172229  40.880  10.529   5.767
 5709POPC   GL272230  41.158  10.263   5.838
 5709POPC   C1A72231  40.914  10.544   6.238
 5709POPC   D2A72232  40.679  10.667   6.622
 5709POPC   C3A72233  40.835  10.813   7.019
 5709POPC   C4A72234  40.968  10.601   7.355
 5709POPC   C1B72235  41.306  10.195   6.307
 5709POPC   C2B72236  41.231  10.195   6.803
 5709POPC   C3B72237  41.192   9.997   7.236
 5709POPC   C4B72238  41.053  10.203   7.651
 5710POPC   NC372239  22.444  33.031   5.654
 5710POPC   PO472240  21.773  32.988   5.521
 5710POPC   GL172241  21.891  32.944   5.948
 5710POPC   GL272242  22.083  33.243   5.962
 5710POPC   C1A72243  21.991  32.963   6.404
 5710POPC   D2A72244  22.388  32.914   6.594
 5710POPC   C3A72245  22.315  32.916   7.010
 5710POPC   C4A72246  22.314  33.195   7.303
 5710POPC   C1B72247  21.928  33.443   6.320
 5710POPC   C2B72248  22.030  33.348   6.774
 5710POPC   C3B72249  21.833  33.121   7.100
 5710POPC   C4B72250  21.826  33.179   7.531
 5711POPC   NC372251   5.981  22.965   5.357
 5711POPC   PO472252   5.293  22.997   5.332
 5711POPC   GL172253   5.599  22.832   5.707
 5711POPC   GL272254   5.933  22.695   5.796
 5711POPC   C1A72255   5.679  23.006   6.149
 5711POPC   D2A72256   5.700  23.286   6.536
 5711POPC   C3A72257   5.658  23.146   6.955
 5711POPC   C4A72258   5.576  22.764   7.187
 5711POPC   C1B72259   6.125  22.743   6.223
 5711POPC   C2B72260   5.940  22.814   6.633
 5711POPC   C3B72261   6.115  22.956   7.009
 5711POPC   C4B72262   6.432  22.898   7.257
 5712POPC   NC372263  13.597  41.955   5.480
 5712POPC   PO472264  13.546  41.376   5.127
 5712POPC   GL172265  13.441  41.422   5.612
 5712POPC   GL272266  13.732  41.541   5.772
 5712POPC   C1A72267  13.398  41.363   6.121
 5712POPC   D2A72268  13.250  41.228   6.574
 5712POPC   C3A72269  13.491  41.327   6.963
 5712POPC   C4A72270  13.858  41.299   7.265
 5712POPC   C1B72271  13.664  41.835   6.126
 5712POPC   C2B72272  13.698  41.909   6.565
 5712POPC   C3B72273  13.810  41.726   6.948
 5712POPC   C4B72274  13.803  41.781   7.385
 5713POPC   NC372275  20.051  31.372   5.469
 5713POPC   PO472276  19.589  31.838   5.521
 5713POPC   GL172277  19.825  31.654   5.849
 5713POPC   GL272278  19.576  31.402   5.908
 5713POPC   C1A72279  20.027  31.477   6.237
 5713POPC   D2A72280  20.258  31.312   6.605
 5713POPC   C3A72281  20.173  31.457   7.011
 5713POPC   C4A72282  20.079  31.362   7.440
 5713POPC   C1B72283  19.510  31.498   6.338
 5713POPC   C2B72284  19.757  31.329   6.694
 5713POPC   C3B72285  19.663  31.348   7.130
 5713POPC   C4B72286  19.351  31.284   7.441
 5714POPC   NC372287  34.278   4.715   5.403
 5714POPC   PO472288  34.479   4.060   5.544
 5714POPC   GL172289  34.755   4.188   5.856
 5714POPC   GL272290  34.554   4.503   5.841
 5714POPC   C1A72291  34.944   4.099   6.276
 5714POPC   D2A72292  34.979   3.938   6.713
 5714POPC   C3A72293  34.703   4.178   6.978
 5714POPC   C4A72294  34.844   4.513   7.212
 5714POPC   C1B72295  34.433   4.282   6.242
 5714POPC   C2B72296  34.432   4.469   6.648
 5714POPC   C3B72297  34.411   4.705   7.030
 5714POPC   C4B72298  34.411   4.589   7.484
 5715POPC   NC372299  24.251  13.510   5.267
 5715POPC   PO472300  24.759  13.213   5.539
 5715POPC   GL172301  24.533  13.308   5.923
 5715POPC   GL272302  24.177  13.389   5.797
 5715POPC   C1A72303  24.613  13.325   6.380
 5715POPC   D2A72304  24.712  13.241   6.806
 5715POPC   C3A72305  24.809  13.601   7.021
 5715POPC   C4A72306  24.502  13.877   7.159
 5715POPC   C1B72307  24.120  13.465   6.243
 5715POPC   C2B72308  24.234  13.569   6.665
 5715POPC   C3B72309  24.275  13.418   7.065
 5715POPC   C4B72310  24.091  13.599   7.416
 5716POPC   NC372311  41.066   9.361   5.292
 5716POPC   PO472312  41.579   8.993   5.374
 5716POPC   GL172313  41.526   8.918   5.785
 5716POPC   GL272314  41.855   8.853   5.817
 5716POPC   C1A72315  41.311   9.011   6.168
 5716POPC   D2A72316  41.168   9.170   6.554
 5716POPC   C3A72317  41.414   8.966   6.848
 5716POPC   C4A72318  41.304   9.034   7.242
 5716POPC   C1B72319  42.031   8.674   6.151
 5716POPC   C2B72320  41.857   8.703   6.525
 5716POPC   C3B72321  41.832   8.590   6.919
 5716POPC   C4B72322  41.805   8.884   7.243
 5717POPC   NC372323  39.622  13.887   5.068
 5717POPC   PO472324  39.059  13.728   5.464
 5717POPC   GL172325  39.097  13.693   5.897
 5717POPC   GL272326  39.388  13.462   5.872
 5717POPC   C1A72327  39.142  13.655   6.368
 5717POPC   D2A72328  39.374  13.342   6.612
 5717POPC   C3A72329  39.160  13.319   7.002
 5717POPC   C4A72330  39.147  13.522   7.375
 5717POPC   C1B72331  39.593  13.718   6.166
 5717POPC   C2B72332  39.551  13.871   6.563
 5717POPC   C3B72333  39.418  13.749   6.967
 5717POPC   C4B72334  39.455  13.939   7.380
 5718POPC   NC372335  34.759  31.129   5.620
 5718POPC   PO472336  34.872  30.574   5.263
 5718POPC   GL172337  34.558  30.562   5.684
 5718POPC   GL272338  34.704  30.753   5.965
 5718POPC   C1A72339  34.246  30.559   6.124
 5718POPC   D2A72340  34.314  30.796   6.525
 5718POPC   C3A72341  34.236  30.576   6.928
 5718POPC   C4A72342  34.445  30.512   7.335
 5718POPC   C1B72343  34.770  31.022   6.336
 5718POPC   C2B72344  34.824  30.921   6.777
 5718POPC   C3B72345  34.845  30.845   7.228
 5718POPC   C4B72346  35.001  30.894   7.635
 5719POPC   NC372347  19.828  39.119   5.491
 5719POPC   PO472348  20.079  39.714   5.173
 5719POPC   GL172349  19.698  39.682   5.560
 5719POPC   GL272350  19.417  39.415   5.619
 5719POPC   C1A72351  19.678  39.624   6.054
 5719POPC   D2A72352  20.022  39.571   6.432
 5719POPC   C3A72353  19.936  39.376   6.843
 5719POPC   C4A72354  19.694  39.243   7.210
 5719POPC   C1B72355  19.414  39.192   6.053
 5719POPC   C2B72356  19.437  39.152   6.524
 5719POPC   C3B72357  19.343  38.997   6.944
 5719POPC   C4B72358  19.621  38.727   7.208
 5720POPC   NC372359  24.370  12.976   5.574
 5720POPC   PO472360  24.825  12.578   5.299
 5720POPC   GL172361  24.550  12.455   5.677
 5720POPC   GL272362  24.238  12.596   5.861
 5720POPC   C1A72363  24.627  12.473   6.142
 5720POPC   D2A72364  24.318  12.471   6.483
 5720POPC   C3A72365  24.405  12.602   6.924
 5720POPC   C4A72366  24.521  12.966   7.185
 5720POPC   C1B72367  24.336  12.911   6.213
 5720POPC   C2B72368  24.266  13.026   6.641
 5720POPC   C3B72369  24.033  12.955   7.022
 5720POPC   C4B72370  24.109  13.078   7.449
 5721POPC   NC372371  33.603  31.516   5.506
 5721POPC   PO472372  34.219  31.372   5.325
 5721POPC   GL172373  33.989  31.379   5.805
 5721POPC   GL272374  33.639  31.290   5.945
 5721POPC   C1A72375  34.049  31.475   6.273
 5721POPC   D2A72376  34.178  31.717   6.669
 5721POPC   C3A72377  34.087  31.532   7.062
 5721POPC   C4A72378  33.695  31.346   7.158
 5721POPC   C1B72379  33.565  31.598   6.243
 5721POPC   C2B72380  33.669  31.574   6.676
 5721POPC   C3B72381  33.486  31.797   7.017
 5721POPC   C4B72382  33.242  31.658   7.352
 5722POPC   NC372383  20.550  13.107   5.405
 5722POPC   PO472384  20.952  12.673   5.605
 5722POPC   GL172385  20.757  12.870   5.912
 5722POPC   GL272386  20.471  12.722   5.852
 5722POPC   C1A72387  20.660  12.925   6.340
 5722POPC   D2A72388  20.921  12.794   6.675
 5722POPC   C3A72389  20.699  12.878   7.057
 5722POPC   C4A72390  20.421  12.868   7.401
 5722POPC   C1B72391  20.235  12.513   6.173
 5722POPC   C2B72392  20.016  12.587   6.586
 5722POPC   C3B72393  20.264  12.617   6.951
 5722POPC   C4B72394  20.496  12.344   7.199
 5723POPC   NC372395  39.485  28.535   5.397
 5723POPC   PO472396  38.853  28.398   5.423
 5723POPC   GL172397  38.934  28.269   5.833
 5723POPC   GL272398  39.242  28.475   5.844
 5723POPC   C1A72399  39.192  28.035   6.151
 5723POPC   D2A72400  39.404  28.036   6.553
 5723POPC   C3A72401  39.237  28.005   6.970
 5723POPC   C4A72402  39.435  28.122   7.340
 5723POPC   C1B72403  39.079  28.541   6.256
 5723POPC   C2B72404  39.003  28.439   6.683
 5723POPC   C3B72405  39.269  28.522   7.013
 5723POPC   C4B72406  39.342  28.709   7.367
 5724POPC   NC372407  41.369  42.925   5.354
 5724POPC   PO472408  41.754  43.428   5.326
 5724POPC   GL172409  41.528  43.294   5.744
 5724POPC   GL272410  41.405  42.940   5.846
 5724POPC   C1A72411  41.655  43.218   6.209
 5724POPC   D2A72412  41.772  43.431   6.601
 5724POPC   C3A72413  41.551  43.355   6.988
 5724POPC   C4A72414  41.649  43.079   7.323
 5724POPC   C1B72415  41.184  42.986   6.225
 5724POPC   C2B72416  41.242  43.166   6.621
 5724POPC   C3B72417  41.242  42.948   7.012
 5724POPC   C4B72418  40.999  42.859   7.335
 5725POPC   NC372419   9.900  22.536   5.054
 5725POPC   PO472420   9.660  23.043   5.344
 5725POPC   GL172421   9.539  22.944   5.810
 5725POPC   GL272422   9.387  23.251   5.919
 5725POPC   C1A72423   9.645  22.796   6.267
 5725POPC   D2A72424  10.037  22.855   6.561
 5725POPC   C3A72425  10.001  22.926   7.016
 5725POPC   C4A72426   9.624  22.799   7.253
 5725POPC   C1B72427   9.707  23.332   6.208
 5725POPC   C2B72428   9.677  23.430   6.641
 5725POPC   C3B72429   9.618  23.271   7.046
 5725POPC   C4B72430   9.866  23.211   7.439
 5726POPC   NC372431   7.123  33.032   5.521
 5726POPC   PO472432   6.468  32.932   5.295
 5726POPC   GL172433   6.639  32.987   5.741
 5726POPC   GL272434   6.821  33.294   5.847
 5726POPC   C1A72435   6.654  32.984   6.217
 5726POPC   D2A72436   6.444  32.809   6.607
 5726POPC   C3A72437   6.609  32.870   7.049
 5726POPC   C4A72438   6.509  33.147   7.424
 5726POPC   C1B72439   6.835  33.474   6.281
 5726POPC   C2B72440   6.715  33.249   6.652
 5726POPC   C3B72441   6.746  33.386   7.033
 5726POPC   C4B72442   7.098  33.447   7.244
 5727POPC   NC372443  30.889  18.820   5.540
 5727POPC   PO472444  30.640  19.439   5.599
 5727POPC   GL172445  30.747  19.141   5.890
 5727POPC   GL272446  30.471  18.888   5.877
 5727POPC   C1A72447  30.956  18.970   6.270
 5727POPC   D2A72448  31.046  18.599   6.529
 5727POPC   C3A72449  31.147  18.678   6.959
 5727POPC   C4A72450  30.891  18.976   7.181
 5727POPC   C1B72451  30.482  19.123   6.308
 5727POPC   C2B72452  30.639  19.073   6.721
 5727POPC   C3B72453  30.411  19.136   7.129
 5727POPC   C4B72454  30.466  18.866   7.481
 5728POPC   NC372455  41.000  11.674   5.167
 5728POPC   PO472456  40.889  12.335   5.185
 5728POPC   GL172457  40.818  12.132   5.597
 5728POPC   GL272458  40.661  11.812   5.669
 5728POPC   C1A72459  40.830  12.088   6.055
 5728POPC   D2A72460  40.834  12.000   6.487
 5728POPC   C3A72461  40.728  12.246   6.858
 5728POPC   C4A72462  40.928  12.283   7.270
 5728POPC   C1B72463  40.373  11.839   6.079
 5728POPC   C2B72464  40.440  11.640   6.492
 5728POPC   C3B72465  40.372  11.639   6.932
 5728POPC   C4B72466  40.601  11.878   7.227
 5729POPC   NC372467  12.683  40.429   5.638
 5729POPC   PO472468  13.011  39.818   5.406
 5729POPC   GL172469  13.003  39.965   5.782
 5729POPC   GL272470  13.369  39.851   5.812
 5729POPC   C1A72471  12.752  40.012   6.197
 5729POPC   D2A72472  12.765  39.747   6.590
 5729POPC   C3A72473  12.660  39.971   6.948
 5729POPC   C4A72474  12.528  39.919   7.352
 5729POPC   C1B72475  13.258  40.156   6.155
 5729POPC   C2B72476  13.113  40.130   6.559
 5729POPC   C3B72477  13.167  39.943   6.928
 5729POPC   C4B72478  13.009  39.762   7.279
 5730POPC   NC372479  15.342  17.227   5.337
 5730POPC   PO472480  15.101  17.903   5.446
 5730POPC   GL172481  15.283  17.734   5.814
 5730POPC   GL272482  15.181  17.377   5.824
 5730POPC   C1A72483  15.148  17.664   6.248
 5730POPC   D2A72484  15.371  17.552   6.601
 5730POPC   C3A72485  15.203  17.773   6.945
 5730POPC   C4A72486  15.265  17.764   7.328
 5730POPC   C1B72487  15.216  17.164   6.242
 5730POPC   C2B72488  15.323  17.033   6.662
 5730POPC   C3B72489  15.303  17.262   7.023
 5730POPC   C4B72490  15.218  17.271   7.416
 5731POPC   NC372491  32.542   7.428   5.499
 5731POPC   PO472492  32.007   7.306   5.095
 5731POPC   GL172493  32.056   7.408   5.640
 5731POPC   GL272494  32.246   7.114   5.853
 5731POPC   C1A72495  32.273   7.558   6.085
 5731POPC   D2A72496  32.242   7.519   6.524
 5731POPC   C3A72497  32.443   7.492   6.919
 5731POPC   C4A72498  32.049   7.417   7.106
 5731POPC   C1B72499  32.350   7.030   6.303
 5731POPC   C2B72500  32.278   7.042   6.765
 5731POPC   C3B72501  32.369   7.010   7.220
 5731POPC   C4B72502  32.207   6.961   7.667
 5732POPC   NC372503  22.475   5.709   5.341
 5732POPC   PO472504  22.036   6.218   5.255
 5732POPC   GL172505  22.047   6.190   5.696
 5732POPC   GL272506  22.406   6.158   5.706
 5732POPC   C1A72507  21.867   6.246   6.136
 5732POPC   D2A72508  21.777   6.289   6.600
 5732POPC   C3A72509  21.822   5.887   6.813
 5732POPC   C4A72510  21.950   5.750   7.236
 5732POPC   C1B72511  22.327   5.881   6.043
 5732POPC   C2B72512  22.209   5.997   6.470
 5732POPC   C3B72513  22.299   6.182   6.883
 5732POPC   C4B72514  22.459   5.954   7.274
 5733POPC   NC372515  42.015   6.642   5.273
 5733POPC   PO472516  42.718   6.674   5.332
 5733POPC   GL172517  42.444   6.390   5.600
 5733POPC   GL272518  42.190   6.621   5.758
 5733POPC   C1A72519  42.324   6.229   6.029
 5733POPC   D2A72520  42.467   6.397   6.412
 5733POPC   C3A72521  42.451   6.393   6.845
 5733POPC   C4A72522  42.334   6.461   7.274
 5733POPC   C1B72523  42.245   6.811   6.189
 5733POPC   C2B72524  42.108   7.040   6.576
 5733POPC   C3B72525  42.173   6.877   6.974
 5733POPC   C4B72526  42.012   6.821   7.353
 5734POPC   NC372527  18.224  39.968   5.506
 5734POPC   PO472528  18.642  40.525   5.454
 5734POPC   GL172529  18.482  40.305   5.876
 5734POPC   GL272530  18.421  39.921   5.958
 5734POPC   C1A72531  18.264  40.266   6.298
 5734POPC   D2A72532  18.091  40.074   6.724
 5734POPC   C3A72533  18.313  40.134   7.105
 5734POPC   C4A72534  18.665  39.865   7.219
 5734POPC   C1B72535  18.144  39.775   6.310
 5734POPC   C2B72536  18.062  39.549   6.688
 5734POPC   C3B72537  18.110  39.647   7.097
 5734POPC   C4B72538  18.084  39.835   7.466
 5735POPC   NC372539  10.045   6.088   5.422
 5735POPC   PO472540   9.561   5.593   5.464
 5735POPC   GL172541   9.655   5.806   5.800
 5735POPC   GL272542   9.991   5.777   5.810
 5735POPC   C1A72543   9.622   5.990   6.188
 5735POPC   D2A72544   9.611   6.214   6.579
 5735POPC   C3A72545   9.642   5.982   6.968
 5735POPC   C4A72546   9.883   6.117   7.275
 5735POPC   C1B72547  10.084   5.677   6.192
 5735POPC   C2B72548   9.881   5.726   6.560
 5735POPC   C3B72549   9.967   5.543   6.922
 5735POPC   C4B72550   9.826   5.637   7.320
 5736POPC   NC372551  30.864  22.105   5.231
 5736POPC   PO472552  30.406  22.370   5.728
 5736POPC   GL172553  30.695  22.171   5.995
 5736POPC   GL272554  30.888  21.928   5.802
 5736POPC   C1A72555  30.539  21.869   6.330
 5736POPC   D2A72556  30.510  21.832   6.777
 5736POPC   C3A72557  30.630  22.192   7.051
 5736POPC   C4A72558  30.591  22.242   7.502
 5736POPC   C1B72559  31.046  21.867   6.211
 5736POPC   C2B72560  30.959  22.048   6.618
 5736POPC   C3B72561  31.002  21.836   7.012
 5736POPC   C4B72562  30.999  21.931   7.468
 5737POPC   NC372563  42.941   2.114   5.397
 5737POPC   PO472564  43.414   1.654   5.495
 5737POPC   GL172565  43.472   1.887   5.848
 5737POPC   GL272566  43.196   2.082   5.837
 5737POPC   C1A72567  43.449   2.017   6.292
 5737POPC   D2A72568  43.537   2.064   6.726
 5737POPC   C3A72569  43.274   2.210   7.002
 5737POPC   C4A72570  43.108   1.874   7.186
 5737POPC   C1B72571  42.920   1.995   6.155
 5737POPC   C2B72572  42.995   2.145   6.552
 5737POPC   C3B72573  42.742   2.022   6.861
 5737POPC   C4B72574  42.690   2.148   7.258
 5738POPC   NC372575  12.809  38.716   5.357
 5738POPC   PO472576  12.959  38.134   5.548
 5738POPC   GL172577  12.762  38.342   5.920
 5738POPC   GL272578  12.704  38.715   5.896
 5738POPC   C1A72579  12.892  38.312   6.362
 5738POPC   D2A72580  12.779  38.462   6.769
 5738POPC   C3A72581  12.858  38.226   7.164
 5738POPC   C4A72582  13.129  38.223   7.553
 5738POPC   C1B72583  12.537  38.703   6.331
 5738POPC   C2B72584  12.429  38.836   6.765
 5738POPC   C3B72585  12.484  38.608   7.154
 5738POPC   C4B72586  12.619  38.486   7.583
 5739POPC   NC372587  20.079  19.044   5.484
 5739POPC   PO472588  19.389  19.120   5.251
 5739POPC   GL172589  19.562  18.967   5.656
 5739POPC   GL272590  19.721  19.272   5.762
 5739POPC   C1A72591  19.805  18.859   6.080
 5739POPC   D2A72592  19.903  18.765   6.524
 5739POPC   C3A72593  19.759  18.924   6.915
 5739POPC   C4A72594  19.902  18.980   7.307
 5739POPC   C1B72595  19.857  19.371   6.176
 5739POPC   C2B72596  19.996  19.271   6.594
 5739POPC   C3B72597  19.935  19.416   7.010
 5739POPC   C4B72598  20.099  19.622   7.335
 5740POPC   NC372599  29.343  15.755   5.588
 5740POPC   PO472600  28.988  15.231   5.282
 5740POPC   GL172601  28.982  15.040   5.687
 5740POPC   GL272602  29.165  15.309   5.773
 5740POPC   C1A72603  28.903  15.020   6.138
 5740POPC   D2A72604  28.788  15.340   6.465
 5740POPC   C3A72605  28.864  15.264   6.895
 5740POPC   C4A72606  28.749  15.060   7.278
 5740POPC   C1B72607  29.200  15.442   6.172
 5740POPC   C2B72608  29.323  15.377   6.586
 5740POPC   C3B72609  29.298  15.509   7.012
 5740POPC   C4B72610  29.149  15.360   7.383
 5741POPC   NC372611  31.696  42.871   5.508
 5741POPC   PO472612  31.260  43.550   5.424
 5741POPC   GL172613  31.491  43.278   5.765
 5741POPC   GL272614  31.301  42.984   5.891
 5741POPC   C1A72615  31.755  43.153   6.130
 5741POPC   D2A72616  31.838  43.068   6.583
 5741POPC   C3A72617  31.557  43.321   6.845
 5741POPC   C4A72618  31.524  43.405   7.288
 5741POPC   C1B72619  31.451  42.749   6.264
 5741POPC   C2B72620  31.409  42.803   6.714
 5741POPC   C3B72621  31.396  42.926   7.152
 5741POPC   C4B72622  31.143  43.123   7.503
 5742POPC   NC372623  38.258  41.082   5.469
 5742POPC   PO472624  38.804  40.823   5.484
 5742POPC   GL172625  38.592  40.594   5.816
 5742POPC   GL272626  38.247  40.669   5.799
 5742POPC   C1A72627  38.482  40.512   6.241
 5742POPC   D2A72628  38.628  40.745   6.611
 5742POPC   C3A72629  38.583  40.717   7.042
 5742POPC   C4A72630  38.294  40.488   7.246
 5742POPC   C1B72631  38.434  40.996   6.137
 5742POPC   C2B72632  38.465  41.220   6.567
 5742POPC   C3B72633  38.494  41.223   7.021
 5742POPC   C4B72634  38.341  41.003   7.436
 5743POPC   NC372635   6.867   1.649   5.560
 5743POPC   PO472636   6.236   1.405   5.403
 5743POPC   GL172637   6.512   1.238   5.782
 5743POPC   GL272638   6.732   0.931   5.883
 5743POPC   C1A72639   6.352   1.102   6.192
 5743POPC   D2A72640   6.266   1.212   6.628
 5743POPC   C3A72641   6.327   0.973   7.030
 5743POPC   C4A72642   6.736   0.985   7.188
 5743POPC   C1B72643   6.842   1.058   6.340
 5743POPC   C2B72644   6.848   1.431   6.618
 5743POPC   C3B72645   6.958   1.617   7.022
 5743POPC   C4B72646   7.034   1.363   7.377
 5744POPC   NC372647  39.307  25.704   5.401
 5744POPC   PO472648  39.238  26.362   5.562
 5744POPC   GL172649  39.298  26.065   5.846
 5744POPC   GL272650  39.588  25.794   5.827
 5744POPC   C1A72651  39.134  26.215   6.221
 5744POPC   D2A72652  38.968  26.070   6.569
 5744POPC   C3A72653  39.161  26.282   6.877
 5744POPC   C4A72654  38.993  26.237   7.258
 5744POPC   C1B72655  39.687  25.653   6.251
 5744POPC   C2B72656  39.472  25.862   6.607
 5744POPC   C3B72657  39.279  25.803   7.022
 5744POPC   C4B72658  39.436  25.977   7.412
 5745POPC   NC372659  16.644  28.332   5.294
 5745POPC   PO472660  17.284  28.336   5.276
 5745POPC   GL172661  17.021  28.393   5.689
 5745POPC   GL272662  16.752  28.124   5.764
 5745POPC   C1A72663  16.773  28.537   6.095
 5745POPC   D2A72664  16.524  28.701   6.492
 5745POPC   C3A72665  16.594  28.544   6.940
 5745POPC   C4A72666  16.750  28.436   7.336
 5745POPC   C1B72667  16.744  28.027   6.206
 5745POPC   C2B72668  16.587  28.153   6.634
 5745POPC   C3B72669  16.577  27.985   7.093
 5745POPC   C4B72670  16.768  27.971   7.548
 5746POPC   NC372671  15.182   2.218   5.263
 5746POPC   PO472672  15.219   2.849   5.459
 5746POPC   GL172673  15.208   2.655   5.876
 5746POPC   GL272674  14.899   2.744   5.967
 5746POPC   C1A72675  15.068   2.417   6.292
 5746POPC   D2A72676  14.770   2.479   6.643
 5746POPC   C3A72677  14.911   2.542   7.074
 5746POPC   C4A72678  15.276   2.710   7.220
 5746POPC   C1B72679  15.124   2.938   6.302
 5746POPC   C2B72680  15.238   2.879   6.725
 5746POPC   C3B72681  15.116   3.164   7.070
 5746POPC   C4B72682  15.083   3.275   7.506
 5747POPC   NC372683  19.230  18.682   5.101
 5747POPC   PO472684  19.089  18.080   5.367
 5747POPC   GL172685  18.864  18.191   5.739
 5747POPC   GL272686  18.796  17.856   5.868
 5747POPC   C1A72687  18.910  18.432   6.130
 5747POPC   D2A72688  19.051  18.275   6.502
 5747POPC   C3A72689  18.969  18.514   6.845
 5747POPC   C4A72690  18.967  18.469   7.296
 5747POPC   C1B72691  19.219  17.984   6.077
 5747POPC   C2B72692  19.482  17.974   6.457
 5747POPC   C3B72693  19.275  17.977   6.854
 5747POPC   C4B72694  19.390  18.113   7.230
 5748POPC   NC372695   7.472   3.895   5.395
 5748POPC   PO472696   7.212   4.573   5.514
 5748POPC   GL172697   7.259   4.206   5.817
 5748POPC   GL272698   7.598   4.085   5.858
 5748POPC   C1A72699   7.331   4.266   6.270
 5748POPC   D2A72700   7.491   4.566   6.608
 5748POPC   C3A72701   7.347   4.551   7.068
 5748POPC   C4A72702   6.937   4.433   7.309
 5748POPC   C1B72703   7.728   3.919   6.284
 5748POPC   C2B72704   7.444   3.950   6.647
 5748POPC   C3B72705   7.392   4.040   7.065
 5748POPC   C4B72706   7.783   4.179   7.206
 5749POPC   NC372707  28.824  38.770   5.380
 5749POPC   PO472708  29.388  38.396   5.321
 5749POPC   GL172709  29.303  38.477   5.750
 5749POPC   GL272710  28.982  38.616   5.860
 5749POPC   C1A72711  29.442  38.582   6.149
 5749POPC   D2A72712  29.290  38.654   6.534
 5749POPC   C3A72713  29.519  38.523   6.905
 5749POPC   C4A72714  29.459  38.729   7.297
 5749POPC   C1B72715  28.702  38.677   6.249
 5749POPC   C2B72716  28.797  38.753   6.684
 5749POPC   C3B72717  29.029  38.470   6.949
 5749POPC   C4B72718  29.033  38.444   7.385
 5750POPC   NC372719  26.425  13.867   5.016
 5750POPC   PO472720  26.962  13.712   5.429
 5750POPC   GL172721  26.774  13.552   5.807
 5750POPC   GL272722  26.445  13.411   5.852
 5750POPC   C1A72723  26.849  13.414   6.238
 5750POPC   D2A72724  26.569  13.324   6.615
 5750POPC   C3A72725  26.658  13.422   7.073
 5750POPC   C4A72726  26.890  13.406   7.471
 5750POPC   C1B72727  26.456  13.717   6.233
 5750POPC   C2B72728  26.558  13.818   6.697
 5750POPC   C3B72729  26.416  13.870   7.122
 5750POPC   C4B72730  26.406  13.638   7.500
 5751POPC   NC372731  36.918  42.062   5.383
 5751POPC   PO472732  37.158  42.736   5.287
 5751POPC   GL172733  37.125  42.447   5.685
 5751POPC   GL272734  36.812  42.358   5.799
 5751POPC   C1A72735  37.196  42.349   6.141
 5751POPC   D2A72736  36.994  42.379   6.552
 5751POPC   C3A72737  37.120  42.132   6.916
 5751POPC   C4A72738  37.111  42.332   7.298
 5751POPC   C1B72739  36.668  42.187   6.195
 5751POPC   C2B72740  36.509  42.166   6.646
 5751POPC   C3B72741  36.655  42.361   7.041
 5751POPC   C4B72742  36.665  42.308   7.503
 5752POPC   NC372743   6.147   2.099   5.404
 5752POPC   PO472744   6.820   2.205   5.536
 5752POPC   GL172745   6.648   1.996   5.889
 5752POPC   GL272746   6.414   1.746   5.779
 5752POPC   C1A72747   6.433   2.126   6.272
 5752POPC   D2A72748   6.572   2.370   6.649
 5752POPC   C3A72749   6.670   2.097   6.992
 5752POPC   C4A72750   6.310   1.890   7.181
 5752POPC   C1B72751   6.523   1.602   6.214
 5752POPC   C2B72752   6.407   1.719   6.662
 5752POPC   C3B72753   6.493   1.451   7.023
 5752POPC   C4B72754   6.533   1.446   7.462
 5753POPC   NC372755  42.723  18.449   5.495
 5753POPC   PO472756  42.093  18.496   5.487
 5753POPC   GL172757  42.344  18.352   5.840
 5753POPC   GL272758  42.503  18.031   5.734
 5753POPC   C1A72759  42.334  18.499   6.277
 5753POPC   D2A72760  42.120  18.445   6.682
 5753POPC   C3A72761  42.386  18.309   7.021
 5753POPC   C4A72762  42.366  18.400   7.462
 5753POPC   C1B72763  42.647  18.083   6.158
 5753POPC   C2B72764  42.540  18.058   6.587
 5753POPC   C3B72765  42.835  18.028   6.939
 5753POPC   C4B72766  42.726  18.065   7.366
 5754POPC   NC372767  39.585  17.264   5.106
 5754POPC   PO472768  38.941  17.528   5.243
 5754POPC   GL172769  39.119  17.492   5.719
 5754POPC   GL272770  39.487  17.388   5.658
 5754POPC   C1A72771  39.139  17.676   6.189
 5754POPC   D2A72772  39.079  17.667   6.654
 5754POPC   C3A72773  39.090  17.871   7.085
 5754POPC   C4A72774  39.231  17.637   7.464
 5754POPC   C1B72775  39.434  17.233   6.079
 5754POPC   C2B72776  39.515  17.291   6.522
 5754POPC   C3B72777  39.342  17.328   6.952
 5754POPC   C4B72778  39.596  17.312   7.331
 5755POPC   NC372779  11.857  17.833   5.519
 5755POPC   PO472780  12.112  17.227   5.526
 5755POPC   GL172781  12.083  17.325   5.935
 5755POPC   GL272782  11.808  17.480   5.924
 5755POPC   C1A72783  12.013  17.136   6.353
 5755POPC   D2A72784  11.922  17.179   6.799
 5755POPC   C3A72785  12.169  17.349   7.076
 5755POPC   C4A72786  12.434  17.712   7.063
 5755POPC   C1B72787  12.009  17.638   6.321
 5755POPC   C2B72788  12.075  17.807   6.696
 5755POPC   C3B72789  11.872  17.771   7.055
 5755POPC   C4B72790  11.629  17.416   7.195
 5756POPC   NC372791  34.053  42.665   5.591
 5756POPC   PO472792  33.500  42.947   5.628
 5756POPC   GL172793  33.799  43.050   5.946
 5756POPC   GL272794  34.092  43.221   5.832
 5756POPC   C1A72795  33.800  43.303   6.322
 5756POPC   D2A72796  33.746  43.278   6.751
 5756POPC   C3A72797  33.939  43.061   7.038
 5756POPC   C4A72798  33.855  43.318   7.359
 5756POPC   C1B72799  34.299  43.337   6.221
 5756POPC   C2B72800  34.223  43.491   6.671
 5756POPC   C3B72801  34.302  43.475   7.136
 5756POPC   C4B72802  34.174  43.657   7.542
 5757POPC   NC372803  10.024   4.423   5.368
 5757POPC   PO472804   9.468   4.029   5.455
 5757POPC   GL172805   9.752   4.190   5.762
 5757POPC   GL272806  10.081   3.986   5.674
 5757POPC   C1A72807   9.710   4.417   6.182
 5757POPC   D2A72808   9.490   4.335   6.591
 5757POPC   C3A72809   9.780   4.347   6.937
 5757POPC   C4A72810   9.750   4.496   7.343
 5757POPC   C1B72811  10.076   4.065   6.125
 5757POPC   C2B72812   9.846   3.978   6.502
 5757POPC   C3B72813   9.949   3.862   6.936
 5757POPC   C4B72814   9.826   3.988   7.351
 5758POPC   NC372815  13.516   3.108   5.418
 5758POPC   PO472816  13.968   2.626   5.545
 5758POPC   GL172817  13.789   2.871   5.845
 5758POPC   GL272818  13.426   2.911   5.868
 5758POPC   C1A72819  13.916   2.718   6.231
 5758POPC   D2A72820  13.883   2.969   6.554
 5758POPC   C3A72821  13.951   2.766   6.928
 5758POPC   C4A72822  13.767   2.846   7.332
 5758POPC   C1B72823  13.421   2.779   6.296
 5758POPC   C2B72824  13.557   2.586   6.653
 5758POPC   C3B72825  13.394   2.654   7.049
 5758POPC   C4B72826  13.119   2.370   7.208
 5759POPC   NC372827  44.715  33.330   5.446
 5759POPC   PO472828  44.414  32.663   5.500
 5759POPC   GL172829  44.675  32.932   5.785
 5759POPC   GL272830   0.025  32.879   5.801
 5759POPC   C1A72831  44.529  33.208   6.129
 5759POPC   D2A72832  44.306  33.049   6.477
 5759POPC   C3A72833  44.396  33.262   6.878
 5759POPC   C4A72834  44.572  33.095   7.251
 5759POPC   C1B72835   0.035  33.187   6.171
 5759POPC   C2B72836  44.819  33.204   6.577
 5759POPC   C3B72837  44.893  33.421   6.971
 5759POPC   C4B72838  44.980  33.341   7.414
 5760POPC   NC372839  39.321  24.129   5.503
 5760POPC   PO472840  38.718  24.459   5.463
 5760POPC   GL172841  39.076  24.557   5.800
 5760POPC   GL272842  39.399  24.337   5.946
 5760POPC   C1A72843  39.200  24.696   6.227
 5760POPC   D2A72844  39.434  24.482   6.559
 5760POPC   C3A72845  39.274  24.600   6.950
 5760POPC   C4A72846  39.188  24.871   7.269
 5760POPC   C1B72847  39.533  24.044   6.284
 5760POPC   C2B72848  39.553  23.987   6.731
 5760POPC   C3B72849  39.644  24.274   7.052
 5760POPC   C4B72850  39.444  24.427   7.451
 5761POPC   NC372851  15.400  42.697   5.509
 5761POPC   PO472852  16.017  43.065   5.551
 5761POPC   GL172853  15.959  43.023   5.973
 5761POPC   GL272854  15.612  42.952   5.889
 5761POPC   C1A72855  15.975  43.285   6.357
 5761POPC   D2A72856  16.211  43.606   6.611
 5761POPC   C3A72857  16.173  43.456   7.045
 5761POPC   C4A72858  16.042  43.029   7.022
 5761POPC   C1B72859  15.566  42.857   6.296
 5761POPC   C2B72860  15.633  42.990   6.706
 5761POPC   C3B72861  15.588  42.905   7.150
 5761POPC   C4B72862  15.512  43.013   7.620
 5762POPC   NC372863  21.932   4.082   5.339
 5762POPC   PO472864  22.198   4.614   5.322
 5762POPC   GL172865  22.227   4.423   5.763
 5762POPC   GL272866  22.025   4.127   5.856
 5762POPC   C1A72867  22.341   4.302   6.227
 5762POPC   D2A72868  22.259   4.183   6.683
 5762POPC   C3A72869  22.399   4.418   7.068
 5762POPC   C4A72870  22.254   4.328   7.512
 5762POPC   C1B72871  21.876   4.035   6.290
 5762POPC   C2B72872  21.742   4.209   6.703
 5762POPC   C3B72873  21.940   4.222   7.126
 5762POPC   C4B72874  21.784   4.131   7.588
 5763POPC   NC372875  39.821  31.207   5.327
 5763POPC   PO472876  40.343  31.543   5.439
 5763POPC   GL172877  39.954  31.451   5.770
 5763POPC   GL272878  39.659  31.170   5.802
 5763POPC   C1A72879  40.098  31.563   6.198
 5763POPC   D2A72880  40.301  31.767   6.555
 5763POPC   C3A72881  40.184  31.558   6.939
 5763POPC   C4A72882  39.966  31.542   7.314
 5763POPC   C1B72883  39.602  31.422   6.173
 5763POPC   C2B72884  39.753  31.548   6.585
 5763POPC   C3B72885  39.659  31.380   6.976
 5763POPC   C4B72886  39.674  31.121   7.393
 5764POPC   NC372887  17.089   7.621   5.458
 5764POPC   PO472888  17.782   7.338   5.473
 5764POPC   GL172889  17.478   7.459   5.773
 5764POPC   GL272890  17.231   7.201   5.705
 5764POPC   C1A72891  17.515   7.561   6.221
 5764POPC   D2A72892  17.634   7.378   6.634
 5764POPC   C3A72893  17.591   7.460   7.072
 5764POPC   C4A72894  17.780   7.742   7.321
 5764POPC   C1B72895  17.172   7.192   6.144
 5764POPC   C2B72896  17.111   7.403   6.555
 5764POPC   C3B72897  17.180   7.174   6.954
 5764POPC   C4B72898  17.248   7.191   7.389
 5765POPC   NC372899  24.270  41.265   5.653
 5765POPC   PO472900  24.524  41.803   5.371
 5765POPC   GL172901  24.555  41.663   5.762
 5765POPC   GL272902  24.732  41.915   5.884
 5765POPC   C1A72903  24.501  41.591   6.194
 5765POPC   D2A72904  24.452  41.803   6.563
 5765POPC   C3A72905  24.510  41.454   6.814
 5765POPC   C4A72906  24.458  41.461   7.208
 5765POPC   C1B72907  24.957  41.837   6.289
 5765POPC   C2B72908  24.963  41.667   6.719
 5765POPC   C3B72909  24.772  41.830   7.106
 5765POPC   C4B72910  24.855  41.909   7.562
 5766POPC   NC372911  40.312  20.096   5.436
 5766POPC   PO472912  39.793  19.627   5.514
 5766POPC   GL172913  39.950  19.960   5.779
 5766POPC   GL272914  39.727  20.265   5.738
 5766POPC   C1A72915  40.078  19.770   6.164
 5766POPC   D2A72916  40.042  19.416   6.468
 5766POPC   C3A72917  40.174  19.578   6.848
 5766POPC   C4A72918  39.885  19.717   7.126
 5766POPC   C1B72919  39.630  20.076   6.156
 5766POPC   C2B72920  39.803  19.991   6.566
 5766POPC   C3B72921  39.605  20.089   6.945
 5766POPC   C4B72922  39.789  20.244   7.308
 5767POPC   NC372923   8.788  27.543   5.172
 5767POPC   PO472924   9.207  27.970   5.494
 5767POPC   GL172925   8.988  27.625   5.729
 5767POPC   GL272926   9.086  27.305   5.630
 5767POPC   C1A72927   8.753  27.455   6.101
 5767POPC   D2A72928   8.665  27.513   6.548
 5767POPC   C3A72929   8.983  27.778   6.770
 5767POPC   C4A72930   8.886  27.712   7.170
 5767POPC   C1B72931   9.222  27.267   6.073
 5767POPC   C2B72932   9.136  27.318   6.525
 5767POPC   C3B72933   9.215  27.334   6.989
 5767POPC   C4B72934   9.531  27.330   7.315
 5768POPC   NC372935  36.651  36.786   5.629
 5768POPC   PO472936  35.967  36.935   5.447
 5768POPC   GL172937  36.202  36.999   5.799
 5768POPC   GL272938  36.247  37.321   5.830
 5768POPC   C1A72939  36.259  36.824   6.220
 5768POPC   D2A72940  36.358  36.529   6.544
 5768POPC   C3A72941  36.464  36.712   6.930
 5768POPC   C4A72942  36.174  36.866   7.251
 5768POPC   C1B72943  36.376  37.318   6.257
 5768POPC   C2B72944  36.267  37.137   6.669
 5768POPC   C3B72945  36.488  37.218   7.051
 5768POPC   C4B72946  36.480  37.185   7.496
 5769POPC   NC372947  37.969   6.743   5.370
 5769POPC   PO472948  37.366   6.918   5.426
 5769POPC   GL172949  37.609   6.839   5.784
 5769POPC   GL272950  37.763   6.555   5.817
 5769POPC   C1A72951  37.523   6.777   6.221
 5769POPC   D2A72952  37.267   6.594   6.522
 5769POPC   C3A72953  37.462   6.746   6.865
 5769POPC   C4A72954  37.618   6.719   7.238
 5769POPC   C1B72955  38.003   6.601   6.190
 5769POPC   C2B72956  37.877   6.581   6.585
 5769POPC   C3B72957  38.005   6.509   6.982
 5769POPC   C4B72958  37.843   6.258   7.296
 5770POPC   NC372959   9.487  16.389   5.421
 5770POPC   PO472960   9.874  15.788   5.452
 5770POPC   GL172961   9.878  15.962   5.876
 5770POPC   GL272962   9.608  16.202   5.877
 5770POPC   C1A72963   9.875  15.964   6.342
 5770POPC   D2A72964   9.655  16.237   6.666
 5770POPC   C3A72965   9.606  16.119   7.110
 5770POPC   C4A72966   9.831  15.789   7.361
 5770POPC   C1B72967   9.382  16.070   6.230
 5770POPC   C2B72968   9.429  15.768   6.551
 5770POPC   C3B72969   9.304  15.760   6.956
 5770POPC   C4B72970   9.297  15.801   7.376
 5771POPC   NC372971  44.172  15.385   5.502
 5771POPC   PO472972  43.732  14.925   5.451
 5771POPC   GL172973  44.004  14.988   5.799
 5771POPC   GL272974  43.765  15.270   5.876
 5771POPC   C1A72975  44.101  15.155   6.227
 5771POPC   D2A72976  43.986  15.399   6.615
 5771POPC   C3A72977  44.201  15.315   6.999
 5771POPC   C4A72978  44.292  14.897   7.189
 5771POPC   C1B72979  43.714  15.602   6.207
 5771POPC   C2B72980  43.483  15.547   6.590
 5771POPC   C3B72981  43.569  15.128   6.716
 5771POPC   C4B72982  43.671  15.002   7.109
 5772POPC   NC372983  41.279  16.622   5.413
 5772POPC   PO472984  41.870  16.877   5.322
 5772POPC   GL172985  41.664  16.854   5.732
 5772POPC   GL272986  41.313  16.953   5.806
 5772POPC   C1A72987  41.746  16.852   6.176
 5772POPC   D2A72988  41.895  17.029   6.546
 5772POPC   C3A72989  41.821  16.819   6.903
 5772POPC   C4A72990  41.691  17.007   7.279
 5772POPC   C1B72991  41.289  16.622   6.137
 5772POPC   C2B72992  41.416  16.649   6.565
 5772POPC   C3B72993  41.302  16.860   6.943
 5772POPC   C4B72994  41.368  16.593   7.296
 5773POPC   NC372995  11.592  15.030   5.393
 5773POPC   PO472996  11.246  14.405   5.391
 5773POPC   GL172997  11.255  14.465   5.794
 5773POPC   GL272998  10.933  14.568   5.782
 5773POPC   C1A72999  11.345  14.379   6.214
 5773POPC   D2A73000  11.336  14.185   6.608
 5773POPC   C3A73001  11.422  14.498   6.888
 5773POPC   C4A73002  11.582  14.567   7.278
 5773POPC   C1B73003  10.973  14.798   6.141
 5773POPC   C2B73004  11.119  14.735   6.534
 5773POPC   C3B73005  10.931  14.843   6.879
 5773POPC   C4B73006  11.047  14.657   7.242
 5774POPC   NC373007  41.829  21.512   5.416
 5774POPC   PO473008  41.301  21.095   5.355
 5774POPC   GL173009  41.213  21.265   5.746
 5774POPC   GL273010  41.419  21.533   5.746
 5774POPC   C1A73011  41.313  21.165   6.186
 5774POPC   D2A73012  41.348  21.000   6.617
 5774POPC   C3A73013  41.558  21.190   6.991
 5774POPC   C4A73014  41.348  21.115   7.387
 5774POPC   C1B73015  41.502  21.636   6.156
 5774POPC   C2B73016  41.462  21.516   6.573
 5774POPC   C3B73017  41.599  21.709   6.941
 5774POPC   C4B73018  41.409  21.630   7.277
 5775POPC   NC373019  21.504  25.049   5.328
 5775POPC   PO473020  21.169  24.311   5.397
 5775POPC   GL173021  21.231  24.501   5.809
 5775POPC   GL273022  21.551  24.707   5.715
 5775POPC   C1A73023  21.144  24.460   6.282
 5775POPC   D2A73024  21.241  24.725   6.669
 5775POPC   C3A73025  21.070  24.617   7.078
 5775POPC   C4A73026  21.180  24.257   7.281
 5775POPC   C1B73027  21.611  24.596   6.132
 5775POPC   C2B73028  21.699  24.490   6.542
 5775POPC   C3B73029  21.574  24.405   6.949
 5775POPC   C4B73030  21.555  24.603   7.322
 5776POPC   NC373031  33.927  12.489   5.491
 5776POPC   PO473032  33.957  11.772   5.433
 5776POPC   GL173033  34.048  12.065   5.764
 5776POPC   GL273034  33.733  12.171   5.838
 5776POPC   C1A73035  34.067  12.122   6.238
 5776POPC   D2A73036  34.032  12.368   6.639
 5776POPC   C3A73037  34.024  12.096   7.015
 5776POPC   C4A73038  33.882  12.056   7.441
 5776POPC   C1B73039  33.604  12.333   6.223
 5776POPC   C2B73040  33.497  12.279   6.633
 5776POPC   C3B73041  33.596  12.353   7.068
 5776POPC   C4B73042  33.375  12.115   7.392
 5777POPC   NC373043   5.462  32.077   5.470
 5777POPC   PO473044   5.884  32.595   5.435
 5777POPC   GL173045   5.807  32.315   5.816
 5777POPC   GL273046   5.892  31.953   5.750
 5777POPC   C1A73047   5.672  32.353   6.286
 5777POPC   D2A73048   5.459  32.455   6.703
 5777POPC   C3A73049   5.720  32.300   7.049
 5777POPC   C4A73050   5.838  32.352   7.490
 5777POPC   C1B73051   6.089  32.054   6.170
 5777POPC   C2B73052   6.067  32.162   6.603
 5777POPC   C3B73053   6.100  31.954   6.998
 5777POPC   C4B73054   6.255  31.983   7.405
 5778POPC   NC373055   1.030  13.129   5.501
 5778POPC   PO473056   1.102  13.824   5.457
 5778POPC   GL173057   1.152  13.630   5.867
 5778POPC   GL273058   1.020  13.342   5.956
 5778POPC   C1A73059   1.399  13.577   6.256
 5778POPC   D2A73060   1.501  13.764   6.683
 5778POPC   C3A73061   1.237  13.662   7.050
 5778POPC   C4A73062   1.109  14.077   7.186
 5778POPC   C1B73063   1.082  13.205   6.348
 5778POPC   C2B73064   0.938  13.397   6.699
 5778POPC   C3B73065   0.747  13.471   7.077
 5778POPC   C4B73066   0.914  13.408   7.475
 5779POPC   NC373067  10.395  22.892   5.543
 5779POPC   PO473068  11.075  23.230   5.449
 5779POPC   GL173069  10.788  23.134   5.782
 5779POPC   GL273070  10.825  22.768   5.834
 5779POPC   C1A73071  10.578  23.108   6.189
 5779POPC   D2A73072  10.670  23.259   6.597
 5779POPC   C3A73073  10.644  23.051   6.982
 5779POPC   C4A73074  10.881  23.229   7.318
 5779POPC   C1B73075  10.649  22.579   6.233
 5779POPC   C2B73076  10.477  22.560   6.686
 5779POPC   C3B73077  10.405  22.624   7.142
 5779POPC   C4B73078  10.566  22.863   7.483
 5780POPC   NC373079  42.223  29.969   5.477
 5780POPC   PO473080  42.877  30.154   5.304
 5780POPC   GL173081  42.643  30.129   5.775
 5780POPC   GL273082  42.255  30.219   5.916
 5780POPC   C1A73083  42.541  29.912   6.210
 5780POPC   D2A73084  42.326  30.064   6.618
 5780POPC   C3A73085  42.570  29.974   7.002
 5780POPC   C4A73086  42.712  29.735   7.325
 5780POPC   C1B73087  42.015  29.876   6.173
 5780POPC   C2B73088  42.037  29.629   6.576
 5780POPC   C3B73089  42.063  29.763   7.040
 5780POPC   C4B73090  42.069  29.753   7.517
 5781POPC   NC373091  10.383  32.706   5.636
 5781POPC   PO473092  10.742  32.113   5.354
 5781POPC   GL173093  10.682  32.244   5.802
 5781POPC   GL273094  10.899  32.517   5.870
 5781POPC   C1A73095  10.425  32.209   6.216
 5781POPC   D2A73096  10.302  32.011   6.635
 5781POPC   C3A73097  10.317  32.237   7.044
 5781POPC   C4A73098  10.181  32.642   7.215
 5781POPC   C1B73099  10.916  32.254   6.259
 5781POPC   C2B73100  10.731  32.297   6.655
 5781POPC   C3B73101  10.834  32.191   7.044
 5781POPC   C4B73102  10.948  32.222   7.476
 5782POPC   NC373103  12.557  15.146   5.155
 5782POPC   PO473104  12.967  15.414   5.684
 5782POPC   GL173105  13.017  15.027   5.882
 5782POPC   GL273106  13.211  14.748   5.746
 5782POPC   C1A73107  12.839  15.027   6.277
 5782POPC   D2A73108  12.899  15.261   6.646
 5782POPC   C3A73109  12.691  15.239   7.027
 5782POPC   C4A73110  12.870  15.289   7.413
 5782POPC   C1B73111  13.262  14.728   6.218
 5782POPC   C2B73112  13.265  14.902   6.638
 5782POPC   C3B73113  13.140  15.001   7.054
 5782POPC   C4B73114  13.234  14.886   7.522
 5783POPC   NC373115  41.063  10.992   5.536
 5783POPC   PO473116  40.628  11.365   5.082
 5783POPC   GL173117  40.582  11.278   5.608
 5783POPC   GL273118  40.607  10.975   5.825
 5783POPC   C1A73119  40.698  11.468   6.070
 5783POPC   D2A73120  41.005  11.497   6.434
 5783POPC   C3A73121  40.888  11.644   6.854
 5783POPC   C4A73122  40.872  11.459   7.267
 5783POPC   C1B73123  40.950  11.040   6.163
 5783POPC   C2B73124  41.099  10.970   6.566
 5783POPC   C3B73125  41.152  11.204   6.906
 5783POPC   C4B73126  41.302  11.135   7.285
 5784POPC   NC373127  42.364  26.581   5.469
 5784POPC   PO473128  42.540  27.227   5.361
 5784POPC   GL173129  42.529  27.005   5.763
 5784POPC   GL273130  42.791  26.746   5.737
 5784POPC   C1A73131  42.266  26.969   6.152
 5784POPC   D2A73132  42.054  26.875   6.555
 5784POPC   C3A73133  42.163  27.144   6.877
 5784POPC   C4A73134  42.262  27.023   7.277
 5784POPC   C1B73135  42.586  26.556   6.116
 5784POPC   C2B73136  42.451  26.554   6.514
 5784POPC   C3B73137  42.449  26.723   6.910
 5784POPC   C4B73138  42.498  26.556   7.296
 5785POPC   NC373139  16.582   8.600   5.397
 5785POPC   PO473140  16.720   7.888   5.262
 5785POPC   GL173141  16.679   7.997   5.701
 5785POPC   GL273142  16.868   8.291   5.683
 5785POPC   C1A73143  16.466   8.199   6.080
 5785POPC   D2A73144  16.304   8.343   6.496
 5785POPC   C3A73145  16.376   8.085   6.830
 5785POPC   C4A73146  16.534   8.081   7.256
 5785POPC   C1B73147  16.961   8.357   6.103
 5785POPC   C2B73148  16.803   8.230   6.503
 5785POPC   C3B73149  16.880   8.243   6.922
 5785POPC   C4B73150  16.840   8.489   7.320
 5786POPC   NC373151  36.762  20.477   5.425
 5786POPC   PO473152  37.257  20.715   4.923
 5786POPC   GL173153  37.124  20.809   5.531
 5786POPC   GL273154  37.210  20.607   5.885
 5786POPC   C1A73155  36.786  20.845   5.991
 5786POPC   D2A73156  36.625  20.852   6.463
 5786POPC   C3A73157  36.741  21.032   6.870
 5786POPC   C4A73158  36.872  20.725   7.193
 5786POPC   C1B73159  36.956  20.448   6.267
 5786POPC   C2B73160  37.028  20.491   6.730
 5786POPC   C3B73161  37.157  20.285   7.130
 5786POPC   C4B73162  36.966  20.302   7.536
 5787POPC   NC373163   5.532   0.644   5.541
 5787POPC   PO473164   4.890   0.487   5.521
 5787POPC   GL173165   5.161   0.488   5.886
 5787POPC   GL273166   5.444   0.230   5.871
 5787POPC   C1A73167   5.057   0.672   6.285
 5787POPC   D2A73168   4.896   0.530   6.693
 5787POPC   C3A73169   4.963   0.780   7.075
 5787POPC   C4A73170   4.890   0.674   7.518
 5787POPC   C1B73171   5.294   0.216   6.322
 5787POPC   C2B73172   5.354   0.191   6.781
 5787POPC   C3B73173   5.400   0.215   7.242
 5787POPC   C4B73174   5.462   0.344   7.697
 5788POPC   NC373175  24.897   2.010   5.379
 5788POPC   PO473176  24.193   2.220   5.291
 5788POPC   GL173177  24.302   2.129   5.731
 5788POPC   GL273178  24.582   1.954   5.790
 5788POPC   C1A73179  24.284   2.206   6.188
 5788POPC   D2A73180  24.163   2.070   6.611
 5788POPC   C3A73181  24.426   2.076   6.972
 5788POPC   C4A73182  24.347   2.059   7.407
 5788POPC   C1B73183  24.728   1.876   6.203
 5788POPC   C2B73184  24.797   2.031   6.603
 5788POPC   C3B73185  24.870   1.772   6.977
 5788POPC   C4B73186  24.693   1.681   7.368
 5789POPC   NC373187   4.769  20.480   5.411
 5789POPC   PO473188   5.255  20.973   5.396
 5789POPC   GL173189   4.956  20.867   5.770
 5789POPC   GL273190   4.941  20.481   5.886
 5789POPC   C1A73191   4.961  20.856   6.246
 5789POPC   D2A73192   4.743  20.693   6.615
 5789POPC   C3A73193   5.013  20.569   6.933
 5789POPC   C4A73194   5.035  20.917   7.219
 5789POPC   C1B73195   5.012  20.347   6.319
 5789POPC   C2B73196   4.779  20.181   6.657
 5789POPC   C3B73197   4.854  20.077   7.062
 5789POPC   C4B73198   5.209  20.093   7.330
 5790POPC   NC373199  12.964  43.195   5.451
 5790POPC   PO473200  12.425  42.748   5.393
 5790POPC   GL173201  12.728  42.792   5.770
 5790POPC   GL273202  13.119  42.834   5.809
 5790POPC   C1A73203  12.707  42.964   6.209
 5790POPC   D2A73204  12.443  43.055   6.581
 5790POPC   C3A73205  12.610  43.107   6.982
 5790POPC   C4A73206  12.758  43.516   7.044
 5790POPC   C1B73207  13.189  43.156   6.163
 5790POPC   C2B73208  13.024  43.234   6.608
 5790POPC   C3B73209  13.127  43.116   7.044
 5790POPC   C4B73210  13.038  42.717   7.220
 5791POPC   NC373211  37.394  41.367   5.052
 5791POPC   PO473212  37.811  40.937   5.436
 5791POPC   GL173213  37.538  40.860   5.710
 5791POPC   GL273214  37.715  40.582   5.834
 5791POPC   C1A73215  37.417  40.911   6.141
 5791POPC   D2A73216  37.628  40.809   6.549
 5791POPC   C3A73217  37.571  40.830   6.979
 5791POPC   C4A73218  37.336  41.140   7.183
 5791POPC   C1B73219  37.935  40.830   6.149
 5791POPC   C2B73220  38.128  40.731   6.554
 5791POPC   C3B73221  38.092  40.875   6.983
 5791POPC   C4B73222  37.896  40.734   7.413
 5792POPC   NC373223  35.791  13.019   5.375
 5792POPC   PO473224  35.160  12.831   5.364
 5792POPC   GL173225  35.340  12.936   5.794
 5792POPC   GL273226  35.637  13.149   5.876
 5792POPC   C1A73227  35.361  12.955   6.267
 5792POPC   D2A73228  35.288  13.216   6.638
 5792POPC   C3A73229  35.351  13.002   7.035
 5792POPC   C4A73230  35.449  13.109   7.456
 5792POPC   C1B73231  35.874  13.054   6.285
 5792POPC   C2B73232  35.739  12.977   6.696
 5792POPC   C3B73233  35.830  13.159   7.113
 5792POPC   C4B73234  35.909  12.888   7.513
 5793POPC   NC373235  14.900  30.267   5.527
 5793POPC   PO473236  15.131  29.596   5.380
 5793POPC   GL173237  15.086  29.748   5.787
 5793POPC   GL273238  14.750  29.832   5.748
 5793POPC   C1A73239  15.300  29.754   6.220
 5793POPC   D2A73240  15.340  29.893   6.663
 5793POPC   C3A73241  15.270  29.800   7.085
 5793POPC   C4A73242  15.248  30.064   7.501
 5793POPC   C1B73243  14.860  30.019   6.161
 5793POPC   C2B73244  14.858  29.807   6.528
 5793POPC   C3B73245  14.733  29.814   6.944
 5793POPC   C4B73246  14.873  29.738   7.369
 5794POPC   NC373247  12.439   0.745   5.331
 5794POPC   PO473248  12.278   0.079   5.423
 5794POPC   GL173249  12.184   0.449   5.739
 5794POPC   GL273250  12.417   0.693   5.862
 5794POPC   C1A73251  11.916   0.560   6.123
 5794POPC   D2A73252  11.929   0.290   6.509
 5794POPC   C3A73253  11.905   0.427   6.931
 5794POPC   C4A73254  11.875   0.621   7.300
 5794POPC   C1B73255  12.386   0.412   6.256
 5794POPC   C2B73256  12.378   0.489   6.724
 5794POPC   C3B73257  12.333   0.799   7.076
 5794POPC   C4B73258  12.352   0.789   7.542
 5795POPC   NC373259   3.918  35.866   5.436
 5795POPC   PO473260   3.483  35.760   5.814
 5795POPC   GL173261   3.471  36.229   5.917
 5795POPC   GL273262   3.186  36.434   5.788
 5795POPC   C1A73263   3.645  36.331   6.309
 5795POPC   D2A73264   3.678  36.017   6.640
 5795POPC   C3A73265   3.740  36.191   7.041
 5795POPC   C4A73266   3.608  36.060   7.441
 5795POPC   C1B73267   3.124  36.559   6.238
 5795POPC   C2B73268   3.259  36.407   6.667
 5795POPC   C3B73269   3.245  36.340   7.141
 5795POPC   C4B73270   3.317  36.471   7.592
 5796POPC   NC373271   9.273   8.462   5.314
 5796POPC   PO473272   8.876   7.968   5.515
 5796POPC   GL173273   8.862   8.201   5.913
 5796POPC   GL273274   8.868   8.586   5.862
 5796POPC   C1A73275   8.955   8.007   6.301
 5796POPC   D2A73276   9.172   7.813   6.629
 5796POPC   C3A73277   8.900   7.900   6.968
 5796POPC   C4A73278   8.621   8.204   7.120
 5796POPC   C1B73279   9.129   8.520   6.257
 5796POPC   C2B73280   9.140   8.359   6.701
 5796POPC   C3B73281   8.995   8.544   7.072
 5796POPC   C4B73282   8.606   8.723   7.199
 5797POPC   NC373283  34.924  10.635   5.390
 5797POPC   PO473284  34.379  10.269   5.459
 5797POPC   GL173285  34.477  10.484   5.787
 5797POPC   GL273286  34.784  10.352   5.800
 5797POPC   C1A73287  34.600  10.648   6.173
 5797POPC   D2A73288  34.456  10.552   6.547
 5797POPC   C3A73289  34.410  10.832   6.878
 5797POPC   C4A73290  34.441  10.613   7.236
 5797POPC   C1B73291  35.004  10.303   6.167
 5797POPC   C2B73292  35.044  10.479   6.564
 5797POPC   C3B73293  34.837  10.562   6.925
 5797POPC   C4B73294  34.912  10.488   7.357
 5798POPC   NC373295  19.379  21.973   5.393
 5798POPC   PO473296  20.082  22.155   5.354
 5798POPC   GL173297  19.924  22.237   5.793
 5798POPC   GL273298  19.632  22.470   5.823
 5798POPC   C1A73299  19.743  22.156   6.208
 5798POPC   D2A73300  19.569  22.226   6.603
 5798POPC   C3A73301  19.657  21.985   6.963
 5798POPC   C4A73302  19.961  21.779   7.236
 5798POPC   C1B73303  19.515  22.676   6.179
 5798POPC   C2B73304  19.671  22.730   6.574
 5798POPC   C3B73305  19.515  22.641   6.953
 5798POPC   C4B73306  19.617  22.383   7.278
 5799POPC   NC373307  31.325  23.391   5.521
 5799POPC   PO473308  31.132  24.097   5.488
 5799POPC   GL173309  31.318  23.816   5.805
 5799POPC   GL273310  31.624  23.699   5.958
 5799POPC   C1A73311  31.178  23.527   6.169
 5799POPC   D2A73312  31.244  23.365   6.613
 5799POPC   C3A73313  31.297  23.686   6.930
 5799POPC   C4A73314  31.135  23.827   7.298
 5799POPC   C1B73315  31.666  23.326   6.246
 5799POPC   C2B73316  31.763  23.334   6.685
 5799POPC   C3B73317  31.603  23.322   7.092
 5799POPC   C4B73318  31.651  23.710   7.342
 5800POPC   NC373319   6.604  34.862   5.235
 5800POPC   PO473320   6.509  35.542   5.281
 5800POPC   GL173321   6.560  35.372   5.688
 5800POPC   GL273322   6.435  35.047   5.724
 5800POPC   C1A73323   6.453  35.409   6.129
 5800POPC   D2A73324   6.699  35.455   6.492
 5800POPC   C3A73325   6.558  35.318   6.870
 5800POPC   C4A73326   6.656  35.288   7.279
 5800POPC   C1B73327   6.311  34.914   6.141
 5800POPC   C2B73328   6.444  34.891   6.572
 5800POPC   C3B73329   6.336  34.882   7.006
 5800POPC   C4B73330   6.167  35.194   7.223
 5801POPC   NC373331  43.455  28.077   5.383
 5801POPC   PO473332  43.910  28.640   5.282
 5801POPC   GL173333  43.840  28.286   5.670
 5801POPC   GL273334  44.130  28.104   5.800
 5801POPC   C1A73335  43.788  28.194   6.176
 5801POPC   D2A73336  43.642  28.274   6.622
 5801POPC   C3A73337  43.833  28.231   7.047
 5801POPC   C4A73338  43.934  28.474   7.419
 5801POPC   C1B73339  44.201  27.923   6.178
 5801POPC   C2B73340  44.151  28.071   6.606
 5801POPC   C3B73341  44.309  28.049   7.039
 5801POPC   C4B73342  44.171  28.044   7.485
 5802POPC   NC373343   7.988   8.998   5.354
 5802POPC   PO473344   8.621   8.861   5.419
 5802POPC   GL173345   8.357   8.850   5.729
 5802POPC   GL273346   8.307   9.215   5.775
 5802POPC   C1A73347   8.432   8.792   6.152
 5802POPC   D2A73348   8.385   9.096   6.473
 5802POPC   C3A73349   8.291   8.954   6.874
 5802POPC   C4A73350   8.306   9.121   7.320
 5802POPC   C1B73351   8.007   9.068   6.093
 5802POPC   C2B73352   7.865   9.151   6.538
 5802POPC   C3B73353   7.881   9.211   6.995
 5802POPC   C4B73354   7.837   8.935   7.301
 5803POPC   NC373355  28.429  37.407   5.483
 5803POPC   PO473356  28.717  38.052   5.463
 5803POPC   GL173357  28.597  37.786   5.844
 5803POPC   GL273358  28.289  37.578   5.927
 5803POPC   C1A73359  28.703  37.792   6.265
 5803POPC   D2A73360  28.855  37.544   6.610
 5803POPC   C3A73361  28.674  37.728   6.984
 5803POPC   C4A73362  28.369  37.676   7.311
 5803POPC   C1B73363  28.139  37.831   6.227
 5803POPC   C2B73364  28.316  37.867   6.624
 5803POPC   C3B73365  28.249  38.072   6.990
 5803POPC   C4B73366  28.065  38.081   7.352
 5804POPC   NC373367  17.721  17.742   5.303
 5804POPC   PO473368  17.229  17.307   5.535
 5804POPC   GL173369  17.364  17.533   5.837
 5804POPC   GL273370  17.724  17.604   5.808
 5804POPC   C1A73371  17.196  17.524   6.230
 5804POPC   D2A73372  17.415  17.581   6.559
 5804POPC   C3A73373  17.271  17.384   6.874
 5804POPC   C4A73374  17.244  17.273   7.269
 5804POPC   C1B73375  17.819  17.646   6.250
 5804POPC   C2B73376  17.906  17.559   6.716
 5804POPC   C3B73377  17.709  17.608   7.147
 5804POPC   C4B73378  17.756  17.845   7.568
 5805POPC   NC373379  35.214  23.086   5.158
 5805POPC   PO473380  35.776  23.105   5.543
 5805POPC   GL173381  35.462  23.038   5.925
 5805POPC   GL273382  35.193  22.770   5.959
 5805POPC   C1A73383  35.415  23.120   6.371
 5805POPC   D2A73384  35.763  23.053   6.652
 5805POPC   C3A73385  35.607  23.055   7.046
 5805POPC   C4A73386  35.282  23.184   7.355
 5805POPC   C1B73387  35.431  22.620   6.322
 5805POPC   C2B73388  35.440  22.671   6.748
 5805POPC   C3B73389  35.247  22.699   7.133
 5805POPC   C4B73390  34.841  22.601   7.264
 5806POPC   NC373391  32.736  26.371   5.482
 5806POPC   PO473392  32.172  26.032   5.385
 5806POPC   GL173393  32.402  26.040   5.769
 5806POPC   GL273394  32.314  25.739   5.950
 5806POPC   C1A73395  32.662  26.093   6.142
 5806POPC   D2A73396  32.720  26.012   6.545
 5806POPC   C3A73397  32.407  26.163   6.807
 5806POPC   C4A73398  32.426  26.220   7.248
 5806POPC   C1B73399  32.170  26.017   6.302
 5806POPC   C2B73400  31.920  26.161   6.663
 5806POPC   C3B73401  31.952  26.063   7.119
 5806POPC   C4B73402  31.983  25.855   7.538
 5807POPC   NC373403  21.008  41.086   5.282
 5807POPC   PO473404  21.461  40.591   5.466
 5807POPC   GL173405  21.372  40.556   5.921
 5807POPC   GL273406  21.616  40.794   6.076
 5807POPC   C1A73407  21.262  40.650   6.387
 5807POPC   D2A73408  21.664  40.640   6.614
 5807POPC   C3A73409  21.605  40.546   7.044
 5807POPC   C4A73410  21.160  40.466   7.127
 5807POPC   C1B73411  21.548  41.096   6.415
 5807POPC   C2B73412  21.372  41.030   6.818
 5807POPC   C3B73413  21.453  41.001   7.235
 5807POPC   C4B73414  21.638  40.721   7.546
 5808POPC   NC373415  40.289  13.960   5.505
 5808POPC   PO473416  39.669  13.627   5.447
 5808POPC   GL173417  39.920  13.662   5.788
 5808POPC   GL273418  39.892  13.999   5.871
 5808POPC   C1A73419  40.084  13.575   6.223
 5808POPC   D2A73420  40.154  13.293   6.566
 5808POPC   C3A73421  39.883  13.353   6.920
 5808POPC   C4A73422  39.831  13.621   7.251
 5808POPC   C1B73423  39.978  14.070   6.322
 5808POPC   C2B73424  40.036  13.830   6.701
 5808POPC   C3B73425  40.271  13.841   7.058
 5808POPC   C4B73426  40.258  13.862   7.567
 5809POPC   NC373427  37.575  34.133   5.455
 5809POPC   PO473428  37.486  34.860   5.372
 5809POPC   GL173429  37.658  34.701   5.746
 5809POPC   GL273430  37.396  34.488   5.761
 5809POPC   C1A73431  37.741  34.565   6.183
 5809POPC   D2A73432  37.877  34.433   6.582
 5809POPC   C3A73433  37.744  34.590   6.935
 5809POPC   C4A73434  38.040  34.725   7.190
 5809POPC   C1B73435  37.352  34.237   6.102
 5809POPC   C2B73436  37.397  34.267   6.550
 5809POPC   C3B73437  37.454  34.166   6.987
 5809POPC   C4B73438  37.205  34.253   7.342
 5810POPC   NC373439  44.971  18.834   5.423
 5810POPC   PO473440  44.343  19.071   5.333
 5810POPC   GL173441  44.634  19.128   5.680
 5810POPC   GL273442  44.692  18.809   5.842
 5810POPC   C1A73443  44.612  19.234   6.135
 5810POPC   D2A73444  44.600  19.389   6.586
 5810POPC   C3A73445  44.513  19.074   6.927
 5810POPC   C4A73446  44.667  19.065   7.370
 5810POPC   C1B73447  44.907  18.792   6.238
 5810POPC   C2B73448  44.770  18.675   6.670
 5810POPC   C3B73449  44.963  18.853   7.039
 5810POPC   C4B73450   0.183  18.955   7.432
 5811POPC   NC373451   6.409   9.334   5.419
 5811POPC   PO473452   6.914   8.907   5.634
 5811POPC   GL173453   6.708   8.750   5.989
 5811POPC   GL273454   6.412   8.872   5.888
 5811POPC   C1A73455   6.586   8.918   6.396
 5811POPC   D2A73456   6.935   8.985   6.677
 5811POPC   C3A73457   6.831   9.001   7.083
 5811POPC   C4A73458   6.586   8.758   7.280
 5811POPC   C1B73459   6.456   9.295   6.071
 5811POPC   C2B73460   6.322   9.434   6.492
 5811POPC   C3B73461   6.336   9.129   6.827
 5811POPC   C4B73462   6.392   9.262   7.228
 5812POPC   NC373463  39.833  23.439   5.108
 5812POPC   PO473464  39.229  23.600   5.494
 5812POPC   GL173465  39.063  23.761   5.835
 5812POPC   GL273466  38.896  24.079   5.762
 5812POPC   C1A73467  39.192  23.661   6.238
 5812POPC   D2A73468  39.091  23.806   6.618
 5812POPC   C3A73469  39.320  23.601   6.958
 5812POPC   C4A73470  39.310  23.225   7.156
 5812POPC   C1B73471  39.018  24.141   6.183
 5812POPC   C2B73472  38.925  24.343   6.522
 5812POPC   C3B73473  38.946  24.217   6.883
 5812POPC   C4B73474  39.199  24.057   7.157
 5813POPC   NC373475  40.364  29.818   5.491
 5813POPC   PO473476  39.690  29.938   5.406
 5813POPC   GL173477  39.780  30.009   5.842
 5813POPC   GL273478  40.127  30.087   5.865
 5813POPC   C1A73479  39.821  30.045   6.307
 5813POPC   D2A73480  39.823  29.794   6.672
 5813POPC   C3A73481  39.779  29.988   7.036
 5813POPC   C4A73482  40.070  29.961   7.280
 5813POPC   C1B73483  40.244  29.761   6.232
 5813POPC   C2B73484  40.346  29.532   6.605
 5813POPC   C3B73485  40.445  29.705   7.017
 5813POPC   C4B73486  40.437  29.719   7.491
 5814POPC   NC373487  18.156  32.799   5.190
 5814POPC   PO473488  18.705  33.138   5.371
 5814POPC   GL173489  18.404  33.039   5.747
 5814POPC   GL273490  18.169  32.713   5.763
 5814POPC   C1A73491  18.243  33.243   6.162
 5814POPC   D2A73492  18.004  33.229   6.548
 5814POPC   C3A73493  18.173  33.210   6.974
 5814POPC   C4A73494  18.000  33.136   7.390
 5814POPC   C1B73495  18.389  32.763   6.191
 5814POPC   C2B73496  18.378  32.888   6.618
 5814POPC   C3B73497  18.273  32.695   7.042
 5814POPC   C4B73498  18.369  32.654   7.494
 5815POPC   NC373499  20.363  27.718   5.091
 5815POPC   PO473500  19.776  27.606   5.310
 5815POPC   GL173501  19.878  27.561   5.778
 5815POPC   GL273502  19.672  27.297   5.906
 5815POPC   C1A73503  19.882  27.713   6.235
 5815POPC   D2A73504  20.119  27.565   6.637
 5815POPC   C3A73505  19.885  27.633   7.012
 5815POPC   C4A73506  19.877  27.956   7.309
 5815POPC   C1B73507  19.929  27.211   6.288
 5815POPC   C2B73508  19.781  27.174   6.706
 5815POPC   C3B73509  19.755  27.110   7.127
 5815POPC   C4B73510  19.684  27.396   7.470
 5816POPC   NC373511   6.198   0.906   5.517
 5816POPC   PO473512   5.769   0.262   5.456
 5816POPC   GL173513   5.973   0.450   5.792
 5816POPC   GL273514   5.905   0.780   5.901
 5816POPC   C1A73515   6.069   0.341   6.208
 5816POPC   D2A73516   5.846   0.286   6.585
 5816POPC   C3A73517   5.998   0.474   6.939
 5816POPC   C4A73518   5.842   0.423   7.321
 5816POPC   C1B73519   5.619   0.610   6.183
 5816POPC   C2B73520   5.487   0.650   6.569
 5816POPC   C3B73521   5.481   0.652   6.988
 5816POPC   C4B73522   5.382   0.738   7.390
 5817POPC   NC373523  30.619   6.976   5.425
 5817POPC   PO473524  30.961   6.396   5.508
 5817POPC   GL173525  30.701   6.433   5.884
 5817POPC   GL273526  30.484   6.695   5.817
 5817POPC   C1A73527  30.429   6.500   6.283
 5817POPC   D2A73528  30.150   6.515   6.631
 5817POPC   C3A73529  30.346   6.689   6.985
 5817POPC   C4A73530  30.600   6.475   7.303
 5817POPC   C1B73531  30.653   6.943   6.136
 5817POPC   C2B73532  30.718   6.850   6.574
 5817POPC   C3B73533  30.843   6.855   6.996
 5817POPC   C4B73534  30.653   6.988   7.305
 5818POPC   NC373535  39.657  23.301   5.602
 5818POPC   PO473536  39.990  23.816   5.348
 5818POPC   GL173537  39.964  23.816   5.820
 5818POPC   GL273538  39.597  23.816   5.832
 5818POPC   C1A73539  40.107  23.808   6.285
 5818POPC   D2A73540  40.148  23.425   6.582
 5818POPC   C3A73541  40.191  23.563   7.018
 5818POPC   C4A73542  39.919  23.863   7.143
 5818POPC   C1B73543  39.682  23.535   6.197
 5818POPC   C2B73544  39.534  23.330   6.560
 5818POPC   C3B73545  39.764  23.298   6.938
 5818POPC   C4B73546  39.704  23.461   7.358
 5819POPC   NC373547  42.690  25.266   5.464
 5819POPC   PO473548  42.107  24.937   5.300
 5819POPC   GL173549  42.097  25.034   5.759
 5819POPC   GL273550  42.410  25.220   5.898
 5819POPC   C1A73551  42.115  24.923   6.200
 5819POPC   D2A73552  42.336  25.078   6.566
 5819POPC   C3A73553  42.135  25.044   6.957
 5819POPC   C4A73554  42.317  24.947   7.343
 5819POPC   C1B73555  42.614  25.405   6.269
 5819POPC   C2B73556  42.724  25.562   6.686
 5819POPC   C3B73557  42.563  25.329   7.040
 5819POPC   C4B73558  42.250  25.440   7.300
 5820POPC   NC373559  26.503  33.603   5.447
 5820POPC   PO473560  27.102  33.336   5.498
 5820POPC   GL173561  26.830  33.582   5.832
 5820POPC   GL273562  26.785  33.958   5.790
 5820POPC   C1A73563  26.668  33.728   6.234
 5820POPC   D2A73564  26.804  33.645   6.656
 5820POPC   C3A73565  26.692  33.872   7.018
 5820POPC   C4A73566  26.678  33.575   7.353
 5820POPC   C1B73567  27.087  33.992   6.149
 5820POPC   C2B73568  27.101  34.108   6.599
 5820POPC   C3B73569  27.121  34.184   7.055
 5820POPC   C4B73570  26.970  34.017   7.479
 5821POPC   NC373571   4.720  18.062   5.480
 5821POPC   PO473572   4.148  18.412   5.353
 5821POPC   GL173573   4.185  18.444   5.780
 5821POPC   GL273574   4.535  18.386   5.857
 5821POPC   C1A73575   4.024  18.311   6.177
 5821POPC   D2A73576   4.262  18.309   6.551
 5821POPC   C3A73577   4.092  18.410   6.927
 5821POPC   C4A73578   4.068  18.107   7.238
 5821POPC   C1B73579   4.514  18.025   6.177
 5821POPC   C2B73580   4.569  17.908   6.648
 5821POPC   C3B73581   4.546  17.977   7.118
 5821POPC   C4B73582   4.441  18.124   7.584
 5822POPC   NC373583  11.913  32.497   5.394
 5822POPC   PO473584  12.467  32.052   5.431
 5822POPC   GL173585  12.229  32.136   5.846
 5822POPC   GL273586  11.864  32.139   5.892
 5822POPC   C1A73587  12.146  31.975   6.293
 5822POPC   D2A73588  11.941  31.992   6.721
 5822POPC   C3A73589  12.176  32.087   7.124
 5822POPC   C4A73590  12.286  32.096   7.586
 5822POPC   C1B73591  11.710  32.283   6.301
 5822POPC   C2B73592  11.729  32.512   6.671
 5822POPC   C3B73593  11.688  32.287   7.062
 5822POPC   C4B73594  11.806  32.197   7.467
 5823POPC   NC373595  34.306   5.492   5.624
 5823POPC   PO473596  34.724   5.876   5.206
 5823POPC   GL173597  34.718   6.037   5.682
 5823POPC   GL273598  34.397   5.908   5.895
 5823POPC   C1A73599  34.767   6.105   6.166
 5823POPC   D2A73600  34.397   6.057   6.493
 5823POPC   C3A73601  34.509   6.064   6.939
 5823POPC   C4A73602  34.859   6.333   7.098
 5823POPC   C1B73603  34.575   5.635   6.252
 5823POPC   C2B73604  34.589   5.592   6.709
 5823POPC   C3B73605  34.551   5.534   7.164
 5823POPC   C4B73606  34.682   5.438   7.588
 5824POPC   NC373607  29.391  23.289   5.281
 5824POPC   PO473608  29.012  22.694   5.396
 5824POPC   GL173609  29.087  22.886   5.782
 5824POPC   GL273610  29.402  23.046   5.744
 5824POPC   C1A73611  29.020  23.072   6.189
 5824POPC   D2A73612  29.215  23.080   6.589
 5824POPC   C3A73613  28.968  22.999   6.951
 5824POPC   C4A73614  28.961  22.829   7.337
 5824POPC   C1B73615  29.550  23.228   6.160
 5824POPC   C2B73616  29.668  23.337   6.619
 5824POPC   C3B73617  29.554  23.097   7.012
 5824POPC   C4B73618  29.543  23.059   7.460
 5825POPC   NC373619  21.406  10.658   5.423
 5825POPC   PO473620  21.812  10.125   5.628
 5825POPC   GL173621  21.501  10.356   5.860
 5825POPC   GL273622  21.197  10.198   6.002
 5825POPC   C1A73623  21.447  10.594   6.208
 5825POPC   D2A73624  21.614  10.620   6.594
 5825POPC   C3A73625  21.328  10.554   6.923
 5825POPC   C4A73626  21.466  10.570   7.323
 5825POPC   C1B73627  21.222  10.196   6.475
 5825POPC   C2B73628  21.127  10.062   6.908
 5825POPC   C3B73629  21.050  10.281   7.302
 5825POPC   C4B73630  21.270  10.298   7.711
 5826POPC   NC373631  19.952   0.045   5.604
 5826POPC   PO473632  19.457   0.485   5.455
 5826POPC   GL173633  19.567   0.313   5.836
 5826POPC   GL273634  19.891   0.467   5.899
 5826POPC   C1A73635  19.519   0.153   6.239
 5826POPC   D2A73636  19.392   0.250   6.666
 5826POPC   C3A73637  19.502   0.640   6.892
 5826POPC   C4A73638  19.702   0.582   7.305
 5826POPC   C1B73639  20.029   0.268   6.284
 5826POPC   C2B73640  19.916   0.385   6.694
 5826POPC   C3B73641  19.772   0.167   7.033
 5826POPC   C4B73642  20.107   0.084   7.291
 5827POPC   NC373643  11.778  16.655   5.423
 5827POPC   PO473644  11.195  16.915   5.281
 5827POPC   GL173645  11.218  16.777   5.717
 5827POPC   GL273646  11.541  16.655   5.860
 5827POPC   C1A73647  11.123  16.514   6.078
 5827POPC   D2A73648  11.395  16.556   6.460
 5827POPC   C3A73649  11.245  16.442   6.890
 5827POPC   C4A73650  11.368  16.583   7.314
 5827POPC   C1B73651  11.594  16.998   6.106
 5827POPC   C2B73652  11.491  17.061   6.529
 5827POPC   C3B73653  11.511  16.924   6.957
 5827POPC   C4B73654  11.776  16.935   7.343
 5828POPC   NC373655  16.831  32.228   5.142
 5828POPC   PO473656  16.430  31.961   5.611
 5828POPC   GL173657  16.638  32.219   5.873
 5828POPC   GL273658  16.899  32.477   5.832
 5828POPC   C1A73659  16.821  32.131   6.244
 5828POPC   D2A73660  16.910  31.810   6.520
 5828POPC   C3A73661  16.863  31.956   6.916
 5828POPC   C4A73662  16.626  32.190   7.197
 5828POPC   C1B73663  16.630  32.647   6.137
 5828POPC   C2B73664  16.721  32.539   6.526
 5828POPC   C3B73665  16.653  32.617   6.909
 5828POPC   C4B73666  16.589  32.693   7.301
 5829POPC   NC373667  17.646  10.579   5.474
 5829POPC   PO473668  16.988  10.404   5.466
 5829POPC   GL173669  17.286  10.547   5.843
 5829POPC   GL273670  17.663  10.385   5.932
 5829POPC   C1A73671  17.344  10.552   6.308
 5829POPC   D2A73672  17.606  10.648   6.712
 5829POPC   C3A73673  17.400  10.768   7.062
 5829POPC   C4A73674  17.049  10.564   7.207
 5829POPC   C1B73675  17.805  10.340   6.364
 5829POPC   C2B73676  17.453  10.155   6.612
 5829POPC   C3B73677  17.314  10.179   7.004
 5829POPC   C4B73678  17.618  10.344   7.253
 5830POPC   NC373679  41.507  38.587   5.335
 5830POPC   PO473680  41.952  38.155   5.494
 5830POPC   GL173681  41.790  38.422   5.866
 5830POPC   GL273682  41.412  38.522   5.837
 5830POPC   C1A73683  41.546  38.270   6.250
 5830POPC   D2A73684  41.387  38.441   6.612
 5830POPC   C3A73685  41.627  38.267   6.931
 5830POPC   C4A73686  41.423  38.059   7.220
 5830POPC   C1B73687  41.219  38.745   6.210
 5830POPC   C2B73688  41.340  38.983   6.610
 5830POPC   C3B73689  41.200  38.981   7.034
 5830POPC   C4B73690  41.299  38.566   7.190
 5831POPC   NC373691   9.670   6.892   5.462
 5831POPC   PO473692   9.619   6.218   5.314
 5831POPC   GL173693   9.742   6.311   5.784
 5831POPC   GL273694   9.771   6.663   5.892
 5831POPC   C1A73695   9.974   6.351   6.209
 5831POPC   D2A73696   9.878   6.659   6.558
 5831POPC   C3A73697   9.764   6.512   6.983
 5831POPC   C4A73698   9.946   6.584   7.416
 5831POPC   C1B73699   9.485   6.600   6.240
 5831POPC   C2B73700   9.358   6.712   6.678
 5831POPC   C3B73701   9.468   6.927   7.089
 5831POPC   C4B73702   9.515   6.844   7.534
 5832POPC   NC373703  34.226  16.372   5.673
 5832POPC   PO473704  34.717  15.948   5.386
 5832POPC   GL173705  34.549  15.995   5.807
 5832POPC   GL273706  34.428  15.671   5.906
 5832POPC   C1A73707  34.604  16.183   6.226
 5832POPC   D2A73708  34.830  16.323   6.607
 5832POPC   C3A73709  34.671  16.152   7.005
 5832POPC   C4A73710  34.852  15.777   7.204
 5832POPC   C1B73711  34.533  15.626   6.365
 5832POPC   C2B73712  34.452  15.675   6.840
 5832POPC   C3B73713  34.355  15.647   7.300
 5832POPC   C4B73714  34.198  15.897   7.672
 5833POPC   NC373715   5.455  17.007   5.708
 5833POPC   PO473716   5.228  17.447   5.274
 5833POPC   GL173717   5.198  17.545   5.724
 5833POPC   GL273718   5.538  17.612   5.796
 5833POPC   C1A73719   5.023  17.774   6.139
 5833POPC   D2A73720   5.080  18.020   6.557
 5833POPC   C3A73721   5.028  17.792   6.975
 5833POPC   C4A73722   4.839  17.425   7.232
 5833POPC   C1B73723   5.417  17.450   6.202
 5833POPC   C2B73724   5.494  17.215   6.577
 5833POPC   C3B73725   5.300  17.302   6.977
 5833POPC   C4B73726   5.406  17.216   7.379
 5834POPC   NC373727  14.661   2.058   5.351
 5834POPC   PO473728  14.188   1.651   5.527
 5834POPC   GL173729  14.428   1.902   5.816
 5834POPC   GL273730  14.793   1.818   5.776
 5834POPC   C1A73731  14.274   2.037   6.233
 5834POPC   D2A73732  14.153   2.299   6.645
 5834POPC   C3A73733  14.338   2.246   7.096
 5834POPC   C4A73734  14.159   2.232   7.560
 5834POPC   C1B73735  14.787   1.980   6.212
 5834POPC   C2B73736  14.589   1.965   6.627
 5834POPC   C3B73737  14.640   1.770   6.997
 5834POPC   C4B73738  14.881   2.042   7.205
 5835POPC   NC373739  38.591  32.510   5.475
 5835POPC   PO473740  38.152  32.046   5.347
 5835POPC   GL173741  38.345  31.997   5.760
 5835POPC   GL273742  38.581  32.298   5.937
 5835POPC   C1A73743  38.233  32.021   6.178
 5835POPC   D2A73744  38.528  32.212   6.454
 5835POPC   C3A73745  38.429  32.287   6.843
 5835POPC   C4A73746  38.244  31.982   7.035
 5835POPC   C1B73747  38.791  32.590   6.265
 5835POPC   C2B73748  38.695  32.715   6.694
 5835POPC   C3B73749  38.805  32.524   7.082
 5835POPC   C4B73750  38.711  32.120   7.272
 5836POPC   NC373751  41.068  38.951   5.593
 5836POPC   PO473752  40.469  39.312   5.568
 5836POPC   GL173753  40.612  39.223   5.948
 5836POPC   GL273754  40.637  38.869   5.936
 5836POPC   C1A73755  40.768  39.482   6.291
 5836POPC   D2A73756  41.113  39.453   6.571
 5836POPC   C3A73757  41.076  39.609   6.973
 5836POPC   C4A73758  40.996  39.383   7.316
 5836POPC   C1B73759  40.772  38.967   6.373
 5836POPC   C2B73760  40.693  39.211   6.761
 5836POPC   C3B73761  40.666  39.038   7.179
 5836POPC   C4B73762  40.498  38.844   7.548
 5837POPC   NC373763  32.373  25.614   5.414
 5837POPC   PO473764  32.572  24.974   5.529
 5837POPC   GL173765  32.441  25.234   5.915
 5837POPC   GL273766  32.057  25.191   6.048
 5837POPC   C1A73767  32.459  25.100   6.338
 5837POPC   D2A73768  32.177  25.080   6.686
 5837POPC   C3A73769  32.348  25.263   7.040
 5837POPC   C4A73770  32.731  25.223   7.306
 5837POPC   C1B73771  32.071  25.509   6.360
 5837POPC   C2B73772  32.091  25.692   6.787
 5837POPC   C3B73773  31.879  25.517   7.141
 5837POPC   C4B73774  31.863  25.060   7.112
 5838POPC   NC373775  32.151  38.830   5.539
 5838POPC   PO473776  32.333  38.174   5.496
 5838POPC   GL173777  32.237  38.404   5.865
 5838POPC   GL273778  32.526  38.281   5.957
 5838POPC   C1A73779  32.014  38.541   6.270
 5838POPC   D2A73780  32.027  38.830   6.632
 5838POPC   C3A73781  32.138  38.591   6.990
 5838POPC   C4A73782  32.296  38.428   7.365
 5838POPC   C1B73783  32.388  38.181   6.325
 5838POPC   C2B73784  32.174  38.187   6.677
 5838POPC   C3B73785  32.497  38.170   6.973
 5838POPC   C4B73786  32.738  38.152   7.351
 5839POPC   NC373787   9.635  32.453   5.356
 5839POPC   PO473788  10.252  32.267   5.538
 5839POPC   GL173789  10.051  32.412   5.892
 5839POPC   GL273790   9.766  32.286   5.840
 5839POPC   C1A73791   9.941  32.306   6.323
 5839POPC   D2A73792   9.873  32.301   6.716
 5839POPC   C3A73793   9.601  32.405   6.979
 5839POPC   C4A73794   9.837  32.284   7.312
 5839POPC   C1B73795   9.538  32.046   6.121
 5839POPC   C2B73796   9.409  32.131   6.524
 5839POPC   C3B73797   9.454  31.901   6.865
 5839POPC   C4B73798   9.400  32.039   7.264
 5840POPC   NC373799  17.711  23.448   5.522
 5840POPC   PO473800  17.371  24.084   5.515
 5840POPC   GL173801  17.530  23.854   5.833
 5840POPC   GL273802  17.887  23.867   5.777
 5840POPC   C1A73803  17.337  23.735   6.221
 5840POPC   D2A73804  17.095  23.776   6.591
 5840POPC   C3A73805  17.288  23.464   6.851
 5840POPC   C4A73806  17.444  23.516   7.242
 5840POPC   C1B73807  17.856  23.614   6.169
 5840POPC   C2B73808  17.830  23.717   6.590
 5840POPC   C3B73809  17.862  23.544   6.969
 5840POPC   C4B73810  17.965  23.651   7.367
 5841POPC   NC373811   9.064  29.027   5.159
 5841POPC   PO473812   8.592  29.269   5.600
 5841POPC   GL173813   8.783  29.117   5.944
 5841POPC   GL273814   9.140  29.048   5.885
 5841POPC   C1A73815   8.862  28.898   6.324
 5841POPC   D2A73816   9.094  29.041   6.684
 5841POPC   C3A73817   8.823  29.127   6.992
 5841POPC   C4A73818   8.733  28.969   7.359
 5841POPC   C1B73819   9.291  29.366   6.224
 5841POPC   C2B73820   9.529  29.581   6.582
 5841POPC   C3B73821   9.691  29.423   6.972
 5841POPC   C4B73822   9.313  29.235   7.111
 5842POPC   NC373823  12.515  17.034   5.440
 5842POPC   PO473824  12.161  16.445   5.247
 5842POPC   GL173825  12.154  16.543   5.767
 5842POPC   GL273826  12.033  16.836   5.849
 5842POPC   C1A73827  11.890  16.534   6.222
 5842POPC   D2A73828  11.871  16.697   6.648
 5842POPC   C3A73829  11.801  16.478   7.056
 5842POPC   C4A73830  11.727  16.215   7.441
 5842POPC   C1B73831  12.355  16.784   6.195
 5842POPC   C2B73832  12.364  16.920   6.656
 5842POPC   C3B73833  12.435  16.766   7.075
 5842POPC   C4B73834  12.275  16.866   7.477
 5843POPC   NC373835  11.530  23.369   5.530
 5843POPC   PO473836  11.588  24.082   5.513
 5843POPC   GL173837  11.403  23.765   5.879
 5843POPC   GL273838  11.128  23.516   5.865
 5843POPC   C1A73839  11.367  23.465   6.296
 5843POPC   D2A73840  11.480  23.582   6.727
 5843POPC   C3A73841  11.340  23.410   7.110
 5843POPC   C4A73842  11.402  23.596   7.519
 5843POPC   C1B73843  10.851  23.592   6.235
 5843POPC   C2B73844  10.947  23.686   6.686
 5843POPC   C3B73845  11.167  24.023   6.894
 5843POPC   C4B73846  11.353  24.082   7.306
 5844POPC   NC373847  28.118  41.520   5.254
 5844POPC   PO473848  28.737  41.529   5.481
 5844POPC   GL173849  28.519  41.345   5.816
 5844POPC   GL273850  28.156  41.418   5.772
 5844POPC   C1A73851  28.382  41.481   6.235
 5844POPC   D2A73852  28.039  41.504   6.551
 5844POPC   C3A73853  28.248  41.515   6.980
 5844POPC   C4A73854  28.349  41.674   7.413
 5844POPC   C1B73855  27.988  41.156   6.124
 5844POPC   C2B73856  27.813  41.020   6.538
 5844POPC   C3B73857  27.944  41.097   6.972
 5844POPC   C4B73858  27.942  41.343   7.363
 5845POPC   NC373859   3.337  36.023   5.471
 5845POPC   PO473860   2.669  35.987   5.369
 5845POPC   GL173861   2.703  36.018   5.806
 5845POPC   GL273862   3.007  35.925   5.843
 5845POPC   C1A73863   2.784  36.165   6.239
 5845POPC   D2A73864   2.549  36.230   6.600
 5845POPC   C3A73865   2.812  36.264   6.881
 5845POPC   C4A73866   2.707  36.234   7.247
 5845POPC   C1B73867   3.011  35.723   6.241
 5845POPC   C2B73868   3.146  35.888   6.647
 5845POPC   C3B73869   3.328  35.836   7.067
 5845POPC   C4B73870   3.124  35.974   7.464
 5846POPC   NC373871  42.154  40.060   5.311
 5846POPC   PO473872  42.807  40.306   5.428
 5846POPC   GL173873  42.457  40.139   5.747
 5846POPC   GL273874  42.218  39.856   5.798
 5846POPC   C1A73875  42.172  40.221   6.148
 5846POPC   D2A73876  42.264  40.120   6.583
 5846POPC   C3A73877  42.363  40.255   6.995
 5846POPC   C4A73878  42.076  40.162   7.312
 5846POPC   C1B73879  42.322  39.726   6.203
 5846POPC   C2B73880  42.097  39.649   6.583
 5846POPC   C3B73881  42.241  39.750   6.973
 5846POPC   C4B73882  42.378  39.765   7.379
 5847POPC   NC373883  19.601  10.891   5.556
 5847POPC   PO473884  19.976  10.359   5.445
 5847POPC   GL173885  19.808  10.465   5.809
 5847POPC   GL273886  20.046  10.733   5.807
 5847POPC   C1A73887  19.844  10.306   6.216
 5847POPC   D2A73888  19.972  10.166   6.628
 5847POPC   C3A73889  19.711  10.324   6.953
 5847POPC   C4A73890  19.688  10.560   7.311
 5847POPC   C1B73891  20.083  10.744   6.220
 5847POPC   C2B73892  19.776  10.687   6.557
 5847POPC   C3B73893  19.864  10.832   6.936
 5847POPC   C4B73894  20.204  10.953   7.210
 5848POPC   NC373895  19.661  35.735   5.547
 5848POPC   PO473896  20.106  35.205   5.445
 5848POPC   GL173897  19.999  35.420   5.792
 5848POPC   GL273898  19.640  35.332   5.850
 5848POPC   C1A73899  19.968  35.489   6.227
 5848POPC   D2A73900  19.820  35.261   6.593
 5848POPC   C3A73901  20.038  35.418   6.909
 5848POPC   C4A73902  20.099  35.210   7.246
 5848POPC   C1B73903  19.458  35.422   6.256
 5848POPC   C2B73904  19.332  35.422   6.690
 5848POPC   C3B73905  19.534  35.381   7.109
 5848POPC   C4B73906  19.467  35.573   7.518
 5849POPC   NC373907  30.490  40.683   5.393
 5849POPC   PO473908  31.175  40.499   5.478
 5849POPC   GL173909  30.835  40.700   5.778
 5849POPC   GL273910  30.513  40.953   5.816
 5849POPC   C1A73911  30.582  40.556   6.134
 5849POPC   D2A73912  30.822  40.576   6.469
 5849POPC   C3A73913  30.748  40.531   6.892
 5849POPC   C4A73914  31.028  40.681   7.188
 5849POPC   C1B73915  30.705  41.038   6.218
 5849POPC   C2B73916  30.492  40.941   6.619
 5849POPC   C3B73917  30.598  41.011   7.044
 5849POPC   C4B73918  30.810  41.123   7.422
 5850POPC   NC373919  23.771  24.441   5.304
 5850POPC   PO473920  23.108  24.397   5.536
 5850POPC   GL173921  23.387  24.608   5.806
 5850POPC   GL273922  23.693  24.408   5.804
 5850POPC   C1A73923  23.636  24.718   6.203
 5850POPC   D2A73924  23.961  24.665   6.542
 5850POPC   C3A73925  23.752  24.571   6.939
 5850POPC   C4A73926  23.507  24.762   7.276
 5850POPC   C1B73927  23.915  24.264   6.177
 5850POPC   C2B73928  23.888  24.062   6.578
 5850POPC   C3B73929  23.978  24.101   7.011
 5850POPC   C4B73930  23.745  24.218   7.345
 5851POPC   NC373931  20.154  39.886   5.598
 5851POPC   PO473932  20.888  40.029   5.403
 5851POPC   GL173933  20.670  40.104   5.826
 5851POPC   GL273934  20.350  40.203   5.941
 5851POPC   C1A73935  20.811  40.305   6.238
 5851POPC   D2A73936  20.924  40.292   6.676
 5851POPC   C3A73937  20.600  40.168   7.017
 5851POPC   C4A73938  20.743  40.137   7.452
 5851POPC   C1B73939  20.458  39.929   6.293
 5851POPC   C2B73940  20.523  39.724   6.704
 5851POPC   C3B73941  20.253  39.771   7.040
 5851POPC   C4B73942  20.279  39.807   7.484
 5852POPC   NC373943   7.209  34.599   5.500
 5852POPC   PO473944   7.673  34.131   5.558
 5852POPC   GL173945   7.857  34.400   5.846
 5852POPC   GL273946   7.569  34.617   5.903
 5852POPC   C1A73947   7.851  34.379   6.288
 5852POPC   D2A73948   7.616  34.159   6.621
 5852POPC   C3A73949   7.376  34.400   6.916
 5852POPC   C4A73950   7.043  34.366   7.195
 5852POPC   C1B73951   7.388  34.589   6.357
 5852POPC   C2B73952   7.432  34.861   6.719
 5852POPC   C3B73953   7.421  34.930   7.152
 5852POPC   C4B73954   7.142  35.134   7.432
 5853POPC   NC373955  10.887  28.843   5.477
 5853POPC   PO473956  10.317  29.056   5.369
 5853POPC   GL173957  10.468  29.163   5.800
 5853POPC   GL273958  10.250  29.387   5.900
 5853POPC   C1A73959  10.556  28.965   6.225
 5853POPC   D2A73960  10.705  28.751   6.611
 5853POPC   C3A73961  10.828  29.027   6.973
 5853POPC   C4A73962  10.581  29.182   7.291
 5853POPC   C1B73963  10.416  29.462   6.329
 5853POPC   C2B73964  10.454  29.350   6.772
 5853POPC   C3B73965  10.311  29.585   7.137
 5853POPC   C4B73966  10.505  29.616   7.538
 5854POPC   NC373967  40.183  28.836   5.542
 5854POPC   PO473968  39.832  28.194   5.432
 5854POPC   GL173969  39.987  28.393   5.780
 5854POPC   GL273970  39.755  28.666   5.855
 5854POPC   C1A73971  40.087  28.394   6.202
 5854POPC   D2A73972  40.142  28.479   6.632
 5854POPC   C3A73973  40.266  28.172   6.918
 5854POPC   C4A73974  40.290  28.428   7.248
 5854POPC   C1B73975  39.587  28.428   6.216
 5854POPC   C2B73976  39.638  28.466   6.657
 5854POPC   C3B73977  39.802  28.477   7.067
 5854POPC   C4B73978  39.787  28.544   7.516
 5855POPC   NC373979  20.478  14.794   5.249
 5855POPC   PO473980  20.745  15.366   5.530
 5855POPC   GL173981  20.551  15.158   5.879
 5855POPC   GL273982  20.402  14.846   5.750
 5855POPC   C1A73983  20.660  15.300   6.295
 5855POPC   D2A73984  20.426  15.374   6.674
 5855POPC   C3A73985  20.494  15.202   7.060
 5855POPC   C4A73986  20.725  15.538   7.162
 5855POPC   C1B73987  20.266  14.760   6.141
 5855POPC   C2B73988  20.295  14.901   6.560
 5855POPC   C3B73989  20.289  14.730   6.964
 5855POPC   C4B73990  20.434  14.748   7.368
 5856POPC   NC373991  30.644  31.195   5.193
 5856POPC   PO473992  31.038  31.706   5.382
 5856POPC   GL173993  30.857  31.569   5.782
 5856POPC   GL273994  30.873  31.204   5.773
 5856POPC   C1A73995  30.672  31.472   6.200
 5856POPC   D2A73996  30.820  31.484   6.632
 5856POPC   C3A73997  30.690  31.565   7.050
 5856POPC   C4A73998  30.753  31.917   7.322
 5856POPC   C1B73999  30.902  30.976   6.160
 5856POPC   C2B74000  31.016  31.019   6.577
 5856POPC   C3B74001  30.792  31.058   6.938
 5856POPC   C4B74002  30.902  31.105   7.346
 5857POPC   NC374003  18.864  35.959   5.426
 5857POPC   PO474004  19.579  36.150   5.346
 5857POPC   GL174005  19.395  36.064   5.804
 5857POPC   GL274006  19.094  36.143   5.836
 5857POPC   C1A74007  19.293  35.929   6.273
 5857POPC   D2A74008  19.069  35.914   6.715
 5857POPC   C3A74009  19.165  35.893   7.203
 5857POPC   C4A74010  19.144  35.941   7.693
 5857POPC   C1B74011  18.933  36.293   6.198
 5857POPC   C2B74012  18.800  36.363   6.577
 5857POPC   C3B74013  18.997  36.373   6.967
 5857POPC   C4B74014  18.950  36.337   7.392
 5858POPC   NC374015   0.454  37.060   5.386
 5858POPC   PO474016   0.133  36.485   5.259
 5858POPC   GL174017   0.278  36.639   5.690
 5858POPC   GL274018   0.621  36.735   5.755
 5858POPC   C1A74019   0.182  36.688   6.157
 5858POPC   D2A74020   0.201  36.958   6.564
 5858POPC   C3A74021   0.212  36.776   7.013
 5858POPC   C4A74022   0.575  36.696   7.292
 5858POPC   C1B74023   0.562  37.096   6.069
 5858POPC   C2B74024   0.707  37.143   6.500
 5858POPC   C3B74025   0.617  37.144   6.944
 5858POPC   C4B74026   0.669  37.177   7.399
 5859POPC   NC374027  39.553  29.492   5.680
 5859POPC   PO474028  39.385  28.996   5.267
 5859POPC   GL174029  39.342  28.995   5.744
 5859POPC   GL274030  39.120  29.271   5.888
 5859POPC   C1A74031  39.466  29.014   6.196
 5859POPC   D2A74032  39.310  28.862   6.603
 5859POPC   C3A74033  39.293  29.080   6.994
 5859POPC   C4A74034  39.403  29.207   7.415
 5859POPC   C1B74035  38.972  29.434   6.310
 5859POPC   C2B74036  38.899  29.343   6.764
 5859POPC   C3B74037  39.026  29.506   7.167
 5859POPC   C4B74038  39.026  29.455   7.618
 5860POPC   NC374039  40.187  41.456   5.433
 5860POPC   PO474040  40.363  42.062   5.305
 5860POPC   GL174041  40.293  41.822   5.769
 5860POPC   GL274042  39.958  41.603   5.890
 5860POPC   C1A74043  40.165  41.879   6.224
 5860POPC   D2A74044  39.956  41.684   6.572
 5860POPC   C3A74045  40.116  41.719   7.001
 5860POPC   C4A74046  39.970  41.759   7.445
 5860POPC   C1B74047  39.748  41.315   6.241
 5860POPC   C2B74048  39.815  41.214   6.709
 5860POPC   C3B74049  39.931  41.251   7.173
 5860POPC   C4B74050  39.991  41.125   7.600
 5861POPC   NC374051  12.382  30.069   5.347
 5861POPC   PO474052  11.699  30.015   5.316
 5861POPC   GL174053  12.042  30.024   5.712
 5861POPC   GL274054  11.854  29.801   5.850
 5861POPC   C1A74055  12.155  30.069   6.177
 5861POPC   D2A74056  12.221  30.272   6.590
 5861POPC   C3A74057  12.312  30.035   6.962
 5861POPC   C4A74058  12.155  29.903   7.353
 5861POPC   C1B74059  11.939  29.601   6.233
 5861POPC   C2B74060  12.186  29.634   6.593
 5861POPC   C3B74061  11.963  29.625   6.967
 5861POPC   C4B74062  11.762  29.562   7.372
 5862POPC   NC374063  20.720  28.654   5.335
 5862POPC   PO474064  20.564  28.028   5.361
 5862POPC   GL174065  20.504  28.331   5.752
 5862POPC   GL274066  20.385  28.716   5.794
 5862POPC   C1A74067  20.646  28.338   6.213
 5862POPC   D2A74068  20.849  28.198   6.611
 5862POPC   C3A74069  20.703  28.332   7.036
 5862POPC   C4A74070  20.771  28.165   7.458
 5862POPC   C1B74071  20.201  28.610   6.234
 5862POPC   C2B74072  20.358  28.576   6.670
 5862POPC   C3B74073  20.371  28.744   7.104
 5862POPC   C4B74074  20.574  28.629   7.486
 5863POPC   NC374075  16.387  20.775   5.613
 5863POPC   PO474076  15.948  20.248   5.503
 5863POPC   GL174077  16.067  20.447   5.881
 5863POPC   GL274078  15.954  20.791   5.893
 5863POPC   C1A74079  15.831  20.459   6.268
 5863POPC   D2A74080  15.872  20.374   6.685
 5863POPC   C3A74081  16.090  20.450   7.030
 5863POPC   C4A74082  15.828  20.691   7.268
 5863POPC   C1B74083  16.169  20.868   6.281
 5863POPC   C2B74084  16.066  20.859   6.711
 5863POPC   C3B74085  16.183  21.003   7.091
 5863POPC   C4B74086  16.303  20.772   7.472
 5864POPC   NC374087  36.942   4.618   5.061
 5864POPC   PO474088  36.527   4.398   5.556
 5864POPC   GL174089  36.799   4.423   5.886
 5864POPC   GL274090  36.955   4.125   5.784
 5864POPC   C1A74091  36.624   4.507   6.279
 5864POPC   D2A74092  36.470   4.313   6.665
 5864POPC   C3A74093  36.760   4.398   6.989
 5864POPC   C4A74094  36.684   4.540   7.404
 5864POPC   C1B74095  36.752   4.013   6.181
 5864POPC   C2B74096  36.983   4.165   6.538
 5864POPC   C3B74097  37.160   4.048   6.927
 5864POPC   C4B74098  37.083   4.172   7.348
 5865POPC   NC374099  30.513  28.755   5.539
 5865POPC   PO474100  31.123  28.514   5.376
 5865POPC   GL174101  31.051  28.566   5.842
 5865POPC   GL274102  30.741  28.712   5.997
 5865POPC   C1A74103  31.043  28.413   6.292
 5865POPC   D2A74104  30.791  28.460   6.679
 5865POPC   C3A74105  30.970  28.418   7.084
 5865POPC   C4A74106  30.832  28.259   7.479
 5865POPC   C1B74107  30.441  28.685   6.383
 5865POPC   C2B74108  30.278  28.464   6.791
 5865POPC   C3B74109  30.408  28.322   7.227
 5865POPC   C4B74110  30.415  28.494   7.700
 5866POPC   NC374111  21.888  22.204   5.380
 5866POPC   PO474112  22.548  22.460   5.496
 5866POPC   GL174113  22.253  22.268   5.753
 5866POPC   GL274114  22.372  22.481   6.026
 5866POPC   C1A74115  22.026  22.047   6.065
 5866POPC   D2A74116  21.962  21.990   6.516
 5866POPC   C3A74117  21.972  22.155   6.960
 5866POPC   C4A74118  21.946  22.023   7.382
 5866POPC   C1B74119  22.458  22.107   6.337
 5866POPC   C2B74120  22.418  21.949   6.777
 5866POPC   C3B74121  22.433  22.123   7.190
 5866POPC   C4B74122  22.322  22.486   7.385
 5867POPC   NC374123  41.407  23.571   5.469
 5867POPC   PO474124  41.522  24.150   5.102
 5867POPC   GL174125  41.587  24.041   5.593
 5867POPC   GL274126  41.842  23.769   5.719
 5867POPC   C1A74127  41.526  23.964   6.085
 5867POPC   D2A74128  41.481  23.670   6.459
 5867POPC   C3A74129  41.435  23.852   6.880
 5867POPC   C4A74130  41.629  23.871   7.299
 5867POPC   C1B74131  41.862  23.520   6.144
 5867POPC   C2B74132  41.924  23.414   6.605
 5867POPC   C3B74133  41.764  23.459   7.048
 5867POPC   C4B74134  41.874  23.267   7.453
 5868POPC   NC374135  11.443  21.301   5.361
 5868POPC   PO474136  10.875  21.647   5.404
 5868POPC   GL174137  11.087  21.383   5.722
 5868POPC   GL274138  11.401  21.556   5.818
 5868POPC   C1A74139  11.130  21.105   6.087
 5868POPC   D2A74140  11.365  20.987   6.473
 5868POPC   C3A74141  11.216  21.219   6.851
 5868POPC   C4A74142  11.207  21.241   7.291
 5868POPC   C1B74143  11.465  21.462   6.258
 5868POPC   C2B74144  11.645  21.439   6.683
 5868POPC   C3B74145  11.586  21.532   7.107
 5868POPC   C4B74146  11.256  21.775   7.239
 5869POPC   NC374147   4.636  19.646   5.525
 5869POPC   PO474148   5.099  20.107   5.481
 5869POPC   GL174149   5.021  19.921   5.865
 5869POPC   GL274150   5.041  19.576   5.835
 5869POPC   C1A74151   5.135  19.854   6.282
 5869POPC   D2A74152   5.257  19.999   6.679
 5869POPC   C3A74153   5.228  19.641   6.893
 5869POPC   C4A74154   5.271  19.594   7.279
 5869POPC   C1B74155   4.759  19.504   6.201
 5869POPC   C2B74156   4.790  19.671   6.632
 5869POPC   C3B74157   4.762  19.582   7.066
 5869POPC   C4B74158   4.849  19.791   7.486
 5870POPC   NC374159  12.099  42.860   5.076
 5870POPC   PO474160  12.172  42.270   5.375
 5870POPC   GL174161  11.964  42.239   5.834
 5870POPC   GL274162  11.816  41.970   5.978
 5870POPC   C1A74163  11.758  42.370   6.289
 5870POPC   D2A74164  11.710  42.401   6.764
 5870POPC   C3A74165  11.844  42.268   7.182
 5870POPC   C4A74166  12.157  42.386   7.527
 5870POPC   C1B74167  12.166  42.072   6.295
 5870POPC   C2B74168  12.182  42.220   6.725
 5870POPC   C3B74169  12.331  42.063   7.117
 5870POPC   C4B74170  12.014  41.793   7.211
 5871POPC   NC374171  13.975  36.977   5.429
 5871POPC   PO474172  14.644  36.997   5.327
 5871POPC   GL174173  14.426  36.994   5.716
 5871POPC   GL274174  14.249  37.284   5.809
 5871POPC   C1A74175  14.255  36.815   6.111
 5871POPC   D2A74176  14.273  36.783   6.597
 5871POPC   C3A74177  14.638  36.706   6.913
 5871POPC   C4A74178  14.476  36.587   7.301
 5871POPC   C1B74179  14.568  37.224   6.168
 5871POPC   C2B74180  14.640  37.129   6.625
 5871POPC   C3B74181  14.399  37.131   7.060
 5871POPC   C4B74182  14.490  37.142   7.535
 5872POPC   NC374183  36.772  42.976   5.112
 5872POPC   PO474184  37.118  43.355   5.638
 5872POPC   GL174185  36.954  43.159   6.022
 5872POPC   GL274186  37.113  42.873   5.933
 5872POPC   C1A74187  36.711  42.838   6.282
 5872POPC   D2A74188  36.768  42.795   6.733
 5872POPC   C3A74189  36.952  43.202   6.906
 5872POPC   C4A74190  36.992  43.196   7.370
 5872POPC   C1B74191  37.228  42.833   6.320
 5872POPC   C2B74192  37.289  42.792   6.706
 5872POPC   C3B74193  37.129  42.777   7.092
 5872POPC   C4B74194  37.402  42.798   7.394
 5873POPC   NC374195  26.270  10.908   5.591
 5873POPC   PO474196  26.067  10.253   5.467
 5873POPC   GL174197  25.776  10.319   5.857
 5873POPC   GL274198  25.838  10.659   5.888
 5873POPC   C1A74199  25.757  10.356   6.325
 5873POPC   D2A74200  26.135  10.373   6.633
 5873POPC   C3A74201  26.024  10.625   6.983
 5873POPC   C4A74202  25.686  10.347   7.111
 5873POPC   C1B74203  26.199  10.586   6.174
 5873POPC   C2B74204  26.374  10.832   6.551
 5873POPC   C3B74205  26.631  10.905   6.924
 5873POPC   C4B74206  26.428  10.886   7.338
 5874POPC   NC374207  32.865  44.110   5.422
 5874POPC   PO474208  33.413  43.738   5.490
 5874POPC   GL174209  33.136  43.823   5.825
 5874POPC   GL274210  32.841  43.614   5.856
 5874POPC   C1A74211  32.990  43.987   6.212
 5874POPC   D2A74212  33.042  43.839   6.610
 5874POPC   C3A74213  32.987  44.065   6.944
 5874POPC   C4A74214  32.749  44.005   7.278
 5874POPC   C1B74215  33.056  43.474   6.247
 5874POPC   C2B74216  33.268  43.398   6.652
 5874POPC   C3B74217  33.072  43.402   7.075
 5874POPC   C4B74218  33.172  43.362   7.546
 5875POPC   NC374219  29.260   2.233   5.511
 5875POPC   PO474220  28.963   1.681   5.704
 5875POPC   GL174221  29.169   1.963   5.960
 5875POPC   GL274222  28.978   2.253   5.930
 5875POPC   C1A74223  29.376   2.039   6.370
 5875POPC   D2A74224  29.519   2.141   6.771
 5875POPC   C3A74225  29.269   1.878   7.002
 5875POPC   C4A74226  29.159   1.788   7.392
 5875POPC   C1B74227  28.935   2.327   6.352
 5875POPC   C2B74228  29.010   2.300   6.799
 5875POPC   C3B74229  29.184   2.373   7.210
 5875POPC   C4B74230  29.429   2.231   7.564
 5876POPC   NC374231  19.339  33.409   5.420
 5876POPC   PO474232  18.887  33.933   5.301
 5876POPC   GL174233  18.890  33.785   5.718
 5876POPC   GL274234  18.918  33.420   5.738
 5876POPC   C1A74235  18.947  33.996   6.100
 5876POPC   D2A74236  19.135  34.051   6.476
 5876POPC   C3A74237  18.918  33.918   6.888
 5876POPC   C4A74238  19.125  33.776   7.291
 5876POPC   C1B74239  19.157  33.481   6.116
 5876POPC   C2B74240  19.016  33.556   6.528
 5876POPC   C3B74241  19.043  33.422   6.940
 5876POPC   C4B74242  18.816  33.381   7.360
 5877POPC   NC374243  27.750  35.099   5.551
 5877POPC   PO474244  27.362  35.666   5.500
 5877POPC   GL174245  27.527  35.464   5.859
 5877POPC   GL274246  27.426  35.122   5.939
 5877POPC   C1A74247  27.606  35.628   6.266
 5877POPC   D2A74248  27.772  35.438   6.636
 5877POPC   C3A74249  27.901  35.640   6.982
 5877POPC   C4A74250  27.585  35.471   7.213
 5877POPC   C1B74251  27.742  35.074   6.259
 5877POPC   C2B74252  27.794  34.916   6.693
 5877POPC   C3B74253  27.951  35.129   7.082
 5877POPC   C4B74254  27.831  35.054   7.562
 5878POPC   NC374255  21.481  37.362   5.443
 5878POPC   PO474256  21.836  36.830   5.412
 5878POPC   GL174257  21.941  36.849   5.863
 5878POPC   GL274258  21.827  36.579   6.045
 5878POPC   C1A74259  22.029  36.930   6.338
 5878POPC   D2A74260  22.362  36.850   6.614
 5878POPC   C3A74261  22.258  36.935   7.016
 5878POPC   C4A74262  22.217  37.183   7.361
 5878POPC   C1B74263  21.631  36.616   6.453
 5878POPC   C2B74264  21.821  36.795   6.816
 5878POPC   C3B74265  21.789  36.912   7.261
 5878POPC   C4B74266  21.558  36.900   7.666
 5879POPC   NC374267   9.944  26.399   5.344
 5879POPC   PO474268  10.062  25.763   5.222
 5879POPC   GL174269   9.776  25.930   5.595
 5879POPC   GL274270   9.670  25.641   5.796
 5879POPC   C1A74271   9.694  26.118   6.064
 5879POPC   D2A74272   9.766  25.984   6.516
 5879POPC   C3A74273   9.616  26.086   6.952
 5879POPC   C4A74274   9.877  26.010   7.336
 5879POPC   C1B74275   9.373  25.730   6.139
 5879POPC   C2B74276   9.272  25.835   6.554
 5879POPC   C3B74277   9.195  25.745   6.977
 5879POPC   C4B74278   9.351  25.852   7.355
 5880POPC   NC374279   5.518  17.107   5.127
 5880POPC   PO474280   5.082  16.756   5.522
 5880POPC   GL174281   5.140  16.629   5.931
 5880POPC   GL274282   4.791  16.698   5.967
 5880POPC   C1A74283   5.312  16.699   6.355
 5880POPC   D2A74284   5.236  16.526   6.767
 5880POPC   C3A74285   5.411  16.739   7.161
 5880POPC   C4A74286   5.256  16.588   7.598
 5880POPC   C1B74287   4.835  16.450   6.338
 5880POPC   C2B74288   4.726  16.629   6.732
 5880POPC   C3B74289   4.901  16.710   7.115
 5880POPC   C4B74290   4.987  16.973   7.452
 5881POPC   NC374291  27.153  17.305   5.523
 5881POPC   PO474292  27.790  17.560   5.449
 5881POPC   GL174293  27.605  17.388   5.781
 5881POPC   GL274294  27.479  17.711   5.831
 5881POPC   C1A74295  27.592  17.222   6.197
 5881POPC   D2A74296  27.558  16.983   6.594
 5881POPC   C3A74297  27.514  17.315   6.928
 5881POPC   C4A74298  27.295  17.680   7.149
 5881POPC   C1B74299  27.807  17.702   6.154
 5881POPC   C2B74300  27.691  17.749   6.585
 5881POPC   C3B74301  27.781  17.772   7.007
 5881POPC   C4B74302  28.102  17.880   7.241
 5882POPC   NC374303  20.288  35.629   5.359
 5882POPC   PO474304  20.721  35.213   5.114
 5882POPC   GL174305  20.694  35.406   5.599
 5882POPC   GL274306  20.512  35.179   5.825
 5882POPC   C1A74307  20.739  35.582   6.069
 5882POPC   D2A74308  20.918  35.810   6.458
 5882POPC   C3A74309  20.840  35.684   6.884
 5882POPC   C4A74310  20.571  35.426   7.142
 5882POPC   C1B74311  20.751  35.081   6.231
 5882POPC   C2B74312  20.809  35.192   6.665
 5882POPC   C3B74313  20.688  34.960   7.022
 5882POPC   C4B74314  20.949  34.993   7.310
 5883POPC   NC374315  37.266  43.923   5.393
 5883POPC   PO474316  36.733  43.425   5.267
 5883POPC   GL174317  36.839  43.790   5.659
 5883POPC   GL274318  37.092  43.719   5.953
 5883POPC   C1A74319  36.665  43.896   6.130
 5883POPC   D2A74320  36.588  43.782   6.613
 5883POPC   C3A74321  36.693  44.066   6.986
 5883POPC   C4A74322  36.558  44.100   7.417
 5883POPC   C1B74323  37.155  43.912   6.344
 5883POPC   C2B74324  37.097  43.826   6.779
 5883POPC   C3B74325  37.210  43.616   7.144
 5883POPC   C4B74326  37.138  43.623   7.628
 5884POPC   NC374327  20.385  16.610   5.340
 5884POPC   PO474328  19.648  16.659   5.244
 5884POPC   GL174329  19.677  16.817   5.718
 5884POPC   GL274330  19.962  16.635   5.754
 5884POPC   C1A74331  19.843  16.949   6.153
 5884POPC   D2A74332  19.799  16.743   6.553
 5884POPC   C3A74333  20.054  16.859   6.899
 5884POPC   C4A74334  20.088  16.800   7.319
 5884POPC   C1B74335  19.673  16.466   6.119
 5884POPC   C2B74336  19.535  16.314   6.560
 5884POPC   C3B74337  19.620  16.502   6.980
 5884POPC   C4B74338  19.885  16.347   7.312
 5885POPC   NC374339  14.625  10.862   5.717
 5885POPC   PO474340  14.242  10.464   5.273
 5885POPC   GL174341  14.409  10.348   5.712
 5885POPC   GL274342  14.704  10.092   5.741
 5885POPC   C1A74343  14.233  10.454   6.115
 5885POPC   D2A74344  14.310  10.297   6.524
 5885POPC   C3A74345  14.044  10.344   6.881
 5885POPC   C4A74346  14.217  10.440   7.269
 5885POPC   C1B74347  14.731  10.328   6.124
 5885POPC   C2B74348  14.701  10.630   6.462
 5885POPC   C3B74349  14.488  10.678   6.878
 5885POPC   C4B74350  14.670  10.709   7.299
 5886POPC   NC374351  29.405  13.249   5.433
 5886POPC   PO474352  28.994  12.769   5.449
 5886POPC   GL174353  29.242  12.738   5.802
 5886POPC   GL274354  29.535  12.909   5.795
 5886POPC   C1A74355  29.278  12.631   6.200
 5886POPC   D2A74356  29.035  12.699   6.556
 5886POPC   C3A74357  29.148  12.689   6.979
 5886POPC   C4A74358  29.285  12.945   7.276
 5886POPC   C1B74359  29.609  13.017   6.223
 5886POPC   C2B74360  29.556  12.804   6.617
 5886POPC   C3B74361  29.754  12.955   6.950
 5886POPC   C4B74362  29.726  13.221   7.263
 5887POPC   NC374363  42.045  10.821   5.613
 5887POPC   PO474364  42.118  11.437   5.393
 5887POPC   GL174365  42.369  11.396   5.768
 5887POPC   GL274366  42.634  11.100   5.738
 5887POPC   C1A74367  42.282  11.545   6.191
 5887POPC   D2A74368  42.482  11.539   6.578
 5887POPC   C3A74369  42.229  11.584   6.933
 5887POPC   C4A74370  42.182  11.447   7.324
 5887POPC   C1B74371  42.425  11.047   6.148
 5887POPC   C2B74372  42.506  11.003   6.580
 5887POPC   C3B74373  42.515  11.164   6.975
 5887POPC   C4B74374  42.567  10.991   7.367
 5888POPC   NC374375  43.478  11.518   5.446
 5888POPC   PO474376  43.747  10.949   5.487
 5888POPC   GL174377  43.713  11.118   5.919
 5888POPC   GL274378  43.631  11.480   5.922
 5888POPC   C1A74379  43.946  11.062   6.341
 5888POPC   D2A74380  44.007  10.916   6.794
 5888POPC   C3A74381  43.757  11.031   7.126
 5888POPC   C4A74382  43.556  11.396   7.273
 5888POPC   C1B74383  44.017  11.546   6.137
 5888POPC   C2B74384  44.176  11.491   6.533
 5888POPC   C3B74385  43.957  11.428   6.887
 5888POPC   C4B74386  44.026  11.576   7.275
 5889POPC   NC374387   7.396  39.715   5.392
 5889POPC   PO474388   7.625  39.118   5.599
 5889POPC   GL174389   7.226  39.243   5.798
 5889POPC   GL274390   7.351  39.532   5.887
 5889POPC   C1A74391   7.058  39.272   6.215
 5889POPC   D2A74392   7.211  39.425   6.596
 5889POPC   C3A74393   7.273  39.130   6.913
 5889POPC   C4A74394   7.621  39.162   7.117
 5889POPC   C1B74395   7.580  39.320   6.225
 5889POPC   C2B74396   7.731  39.447   6.635
 5889POPC   C3B74397   7.695  39.704   6.975
 5889POPC   C4B74398   7.588  39.619   7.398
 5890POPC   NC374399   2.994  33.327   5.467
 5890POPC   PO474400   2.650  32.785   5.286
 5890POPC   GL174401   2.605  33.084   5.716
 5890POPC   GL274402   2.930  33.131   5.932
 5890POPC   C1A74403   2.430  33.160   6.150
 5890POPC   D2A74404   2.364  32.915   6.560
 5890POPC   C3A74405   2.686  32.921   6.886
 5890POPC   C4A74406   2.650  33.114   7.279
 5890POPC   C1B74407   2.886  32.963   6.369
 5890POPC   C2B74408   3.118  32.721   6.694
 5890POPC   C3B74409   3.120  32.690   7.159
 5890POPC   C4B74410   3.040  32.884   7.546
 5891POPC   NC374411  19.797  33.066   5.372
 5891POPC   PO474412  20.339  33.469   5.562
 5891POPC   GL174413  20.028  33.214   5.842
 5891POPC   GL274414  19.645  33.174   5.847
 5891POPC   C1A74415  20.003  32.896   6.148
 5891POPC   D2A74416  19.787  32.886   6.526
 5891POPC   C3A74417  19.917  32.836   6.934
 5891POPC   C4A74418  19.601  32.751   7.247
 5891POPC   C1B74419  19.745  33.360   6.250
 5891POPC   C2B74420  19.831  33.364   6.714
 5891POPC   C3B74421  20.042  33.322   7.131
 5891POPC   C4B74422  19.966  33.370   7.563
 5892POPC   NC374423   4.783   7.390   5.463
 5892POPC   PO474424   5.295   7.836   5.564
 5892POPC   GL174425   5.056   7.515   5.863
 5892POPC   GL274426   4.648   7.570   5.907
 5892POPC   C1A74427   5.204   7.333   6.257
 5892POPC   D2A74428   5.041   7.210   6.661
 5892POPC   C3A74429   5.090   7.401   7.058
 5892POPC   C4A74430   5.241   7.344   7.493
 5892POPC   C1B74431   4.713   7.436   6.318
 5892POPC   C2B74432   4.753   7.658   6.694
 5892POPC   C3B74433   4.653   7.778   7.090
 5892POPC   C4B74434   4.745   7.541   7.413
 5893POPC   NC374435   6.360  17.457   5.450
 5893POPC   PO474436   5.821  17.782   5.408
 5893POPC   GL174437   6.061  17.717   5.797
 5893POPC   GL274438   6.054  17.363   5.857
 5893POPC   C1A74439   6.202  17.839   6.219
 5893POPC   D2A74440   6.030  17.841   6.658
 5893POPC   C3A74441   5.718  17.618   6.865
 5893POPC   C4A74442   5.790  17.526   7.299
 5893POPC   C1B74443   5.916  17.425   6.280
 5893POPC   C2B74444   6.034  17.259   6.670
 5893POPC   C3B74445   5.781  17.118   7.001
 5893POPC   C4B74446   5.873  17.031   7.416
 5894POPC   NC374447  36.879  25.870   5.363
 5894POPC   PO474448  37.266  26.417   5.577
 5894POPC   GL174449  36.977  26.136   5.800
 5894POPC   GL274450  36.588  26.116   5.730
 5894POPC   C1A74451  37.042  26.095   6.229
 5894POPC   D2A74452  37.185  26.273   6.633
 5894POPC   C3A74453  36.957  26.107   7.003
 5894POPC   C4A74454  36.946  25.880   7.409
 5894POPC   C1B74455  36.538  26.225   6.163
 5894POPC   C2B74456  36.620  26.106   6.610
 5894POPC   C3B74457  36.460  26.077   7.057
 5894POPC   C4B74458  36.475  25.723   7.332
 5895POPC   NC374459  18.555  31.954   5.546
 5895POPC   PO474460  18.313  31.401   5.214
 5895POPC   GL174461  18.493  31.419   5.662
 5895POPC   GL274462  18.193  31.351   5.817
 5895POPC   C1A74463  18.557  31.400   6.142
 5895POPC   D2A74464  18.424  31.682   6.495
 5895POPC   C3A74465  18.256  31.446   6.834
 5895POPC   C4A74466  18.356  31.432   7.242
 5895POPC   C1B74467  18.042  31.448   6.221
 5895POPC   C2B74468  17.902  31.186   6.540
 5895POPC   C3B74469  17.613  31.195   6.820
 5895POPC   C4B74470  17.832  31.252   7.183
 5896POPC   NC374471   5.579  33.866   5.594
 5896POPC   PO474472   6.222  34.080   5.424
 5896POPC   GL174473   6.059  33.872   5.808
 5896POPC   GL274474   5.808  34.070   5.982
 5896POPC   C1A74475   5.901  33.579   6.148
 5896POPC   D2A74476   5.873  33.729   6.558
 5896POPC   C3A74477   5.834  33.543   6.949
 5896POPC   C4A74478   5.949  33.821   7.287
 5896POPC   C1B74479   5.464  33.871   6.228
 5896POPC   C2B74480   5.372  33.747   6.618
 5896POPC   C3B74481   5.479  33.914   6.992
 5896POPC   C4B74482   5.492  33.627   7.333
 5897POPC   NC374483  38.105  44.150   5.345
 5897POPC   PO474484  37.707  43.648   5.226
 5897POPC   GL174485  37.591  43.743   5.747
 5897POPC   GL274486  37.449  44.074   5.905
 5897POPC   C1A74487  37.614  43.683   6.228
 5897POPC   D2A74488  37.596  43.883   6.640
 5897POPC   C3A74489  37.711  43.652   7.026
 5897POPC   C4A74490  37.601  43.779   7.445
 5897POPC   C1B74491  37.838  44.126   6.168
 5897POPC   C2B74492  37.930  44.280   6.591
 5897POPC   C3B74493  37.862  44.132   7.035
 5897POPC   C4B74494  37.621  44.278   7.379
 5898POPC   NC374495   1.650  44.207   5.522
 5898POPC   PO474496   1.311  44.763   5.374
 5898POPC   GL174497   1.323  44.703   5.810
 5898POPC   GL274498   1.662  44.611   5.841
 5898POPC   C1A74499   1.110  44.803   6.208
 5898POPC   D2A74500   0.980  44.972   6.618
 5898POPC   C3A74501   1.212  44.781   6.965
 5898POPC   C4A74502   1.110  44.500   7.270
 5898POPC   C1B74503   1.525  44.439   6.217
 5898POPC   C2B74504   1.654  44.549   6.616
 5898POPC   C3B74505   1.622  44.434   7.023
 5898POPC   C4B74506   1.582  44.708   7.362
 5899POPC   NC374507  11.043  17.331   5.372
 5899POPC   PO474508  11.381  17.894   5.385
 5899POPC   GL174509  11.343  17.666   5.815
 5899POPC   GL274510  11.239  17.295   5.872
 5899POPC   C1A74511  11.459  17.556   6.264
 5899POPC   D2A74512  11.593  17.538   6.668
 5899POPC   C3A74513  11.241  17.371   6.861
 5899POPC   C4A74514  11.103  17.555   7.194
 5899POPC   C1B74515  11.085  17.018   6.219
 5899POPC   C2B74516  10.942  16.987   6.642
 5899POPC   C3B74517  11.011  16.898   7.076
 5899POPC   C4B74518  11.262  17.098   7.382
 5900POPC   NC374519  40.872  30.711   5.517
 5900POPC   PO474520  40.454  30.241   5.341
 5900POPC   GL174521  40.584  30.392   5.768
 5900POPC   GL274522  40.513  30.713   5.915
 5900POPC   C1A74523  40.895  30.452   6.161
 5900POPC   D2A74524  40.733  30.405   6.608
 5900POPC   C3A74525  40.854  30.640   6.975
 5900POPC   C4A74526  40.873  30.509   7.379
 5900POPC   C1B74527  40.343  30.680   6.352
 5900POPC   C2B74528  40.376  30.737   6.797
 5900POPC   C3B74529  40.436  30.730   7.255
 5900POPC   C4B74530  40.570  30.899   7.666
 5901POPC   NC374531  18.049  44.906   5.648
 5901POPC   PO474532  17.447  44.706   5.425
 5901POPC   GL174533  17.409  44.714   5.836
 5901POPC   GL274534  17.739  44.563   5.924
 5901POPC   C1A74535  17.273  44.887   6.214
 5901POPC   D2A74536  17.502  44.951   6.589
 5901POPC   C3A74537  17.346  44.806   6.961
 5901POPC   C4A74538  17.556  44.731   7.357
 5901POPC   C1B74539  17.851  44.196   6.203
 5901POPC   C2B74540  17.637  44.162   6.610
 5901POPC   C3B74541  17.716  44.333   7.014
 5901POPC   C4B74542  17.921  44.347   7.407
 5902POPC   NC374543  44.427  39.040   5.575
 5902POPC   PO474544   0.069  39.242   5.521
 5902POPC   GL174545  44.890  39.474   5.861
 5902POPC   GL274546  44.504  39.492   5.862
 5902POPC   C1A74547  44.815  39.596   6.267
 5902POPC   D2A74548  44.486  39.468   6.539
 5902POPC   C3A74549  44.666  39.318   6.903
 5902POPC   C4A74550  44.415  39.382   7.263
 5902POPC   C1B74551  44.610  39.131   6.176
 5902POPC   C2B74552  44.391  38.937   6.520
 5902POPC   C3B74553  44.279  38.992   6.949
 5902POPC   C4B74554  44.643  38.917   7.224
 5903POPC   NC374555  17.475  28.705   5.459
 5903POPC   PO474556  17.245  29.327   5.402
 5903POPC   GL174557  17.538  29.295   5.780
 5903POPC   GL274558  17.792  29.038   5.842
 5903POPC   C1A74559  17.775  29.415   6.165
 5903POPC   D2A74560  17.717  29.245   6.556
 5903POPC   C3A74561  17.847  29.371   6.925
 5903POPC   C4A74562  17.604  29.397   7.272
 5903POPC   C1B74563  17.677  28.848   6.258
 5903POPC   C2B74564  17.516  28.796   6.715
 5903POPC   C3B74565  17.612  28.876   7.172
 5903POPC   C4B74566  17.896  28.682   7.520
 5904POPC   NC374567  33.298  13.769   5.157
 5904POPC   PO474568  33.924  13.656   5.397
 5904POPC   GL174569  33.803  13.525   5.822
 5904POPC   GL274570  33.893  13.184   5.956
 5904POPC   C1A74571  33.597  13.563   6.196
 5904POPC   D2A74572  33.757  13.688   6.564
 5904POPC   C3A74573  33.663  13.450   6.918
 5904POPC   C4A74574  33.760  13.622   7.313
 5904POPC   C1B74575  34.091  13.337   6.309
 5904POPC   C2B74576  34.179  13.423   6.729
 5904POPC   C3B74577  34.093  13.279   7.178
 5904POPC   C4B74578  34.116  13.401   7.680
 5905POPC   NC374579   3.833  30.391   5.533
 5905POPC   PO474580   3.637  30.975   5.355
 5905POPC   GL174581   3.525  30.966   5.805
 5905POPC   GL274582   3.694  30.667   5.920
 5905POPC   C1A74583   3.664  31.054   6.236
 5905POPC   D2A74584   3.766  30.744   6.573
 5905POPC   C3A74585   3.474  30.617   6.903
 5905POPC   C4A74586   3.586  30.668   7.321
 5905POPC   C1B74587   3.429  30.532   6.251
 5905POPC   C2B74588   3.099  30.557   6.538
 5905POPC   C3B74589   2.963  30.344   6.891
 5905POPC   C4B74590   3.154  30.380   7.274
 5906POPC   NC374591  31.002   8.213   5.395
 5906POPC   PO474592  30.428   8.095   5.193
 5906POPC   GL174593  30.480   8.185   5.725
 5906POPC   GL274594  30.841   8.355   5.869
 5906POPC   C1A74595  30.439   8.352   6.187
 5906POPC   D2A74596  30.440   8.574   6.623
 5906POPC   C3A74597  30.555   8.426   7.053
 5906POPC   C4A74598  30.755   8.040   7.260
 5906POPC   C1B74599  30.921   8.618   6.285
 5906POPC   C2B74600  30.961   8.619   6.760
 5906POPC   C3B74601  31.042   8.497   7.228
 5906POPC   C4B74602  30.944   8.674   7.653
 5907POPC   NC374603  11.807  12.479   5.466
 5907POPC   PO474604  11.277  11.918   5.519
 5907POPC   GL174605  11.475  12.173   5.806
 5907POPC   GL274606  11.164  12.308   5.869
 5907POPC   C1A74607  11.527  12.315   6.244
 5907POPC   D2A74608  11.350  12.053   6.580
 5907POPC   C3A74609  11.406  12.031   7.028
 5907POPC   C4A74610  11.058  12.002   7.323
 5907POPC   C1B74611  11.011  12.348   6.244
 5907POPC   C2B74612  11.162  12.578   6.580
 5907POPC   C3B74613  11.045  12.383   6.942
 5907POPC   C4B74614  10.862  12.484   7.314
 5908POPC   NC374615  37.217  38.659   5.265
 5908POPC   PO474616  36.713  38.310   5.430
 5908POPC   GL174617  36.782  38.569   5.752
 5908POPC   GL274618  37.143  38.599   5.773
 5908POPC   C1A74619  36.778  38.422   6.171
 5908POPC   D2A74620  36.888  38.610   6.555
 5908POPC   C3A74621  36.726  38.470   6.950
 5908POPC   C4A74622  36.921  38.557   7.364
 5908POPC   C1B74623  37.272  38.544   6.185
 5908POPC   C2B74624  37.317  38.341   6.555
 5908POPC   C3B74625  37.231  38.536   6.929
 5908POPC   C4B74626  37.398  38.383   7.279
 5909POPC   NC374627  41.448  33.088   5.373
 5909POPC   PO474628  41.975  32.638   5.440
 5909POPC   GL174629  41.762  32.928   5.747
 5909POPC   GL274630  41.444  32.737   5.778
 5909POPC   C1A74631  41.457  33.129   6.094
 5909POPC   D2A74632  41.369  32.913   6.495
 5909POPC   C3A74633  41.376  33.108   6.896
 5909POPC   C4A74634  41.644  33.067   7.227
 5909POPC   C1B74635  41.687  32.687   6.179
 5909POPC   C2B74636  41.887  32.773   6.541
 5909POPC   C3B74637  41.715  32.697   6.899
 5909POPC   C4B74638  41.891  32.620   7.297
 5910POPC   NC374639  23.961  32.179   5.473
 5910POPC   PO474640  23.463  32.596   5.153
 5910POPC   GL174641  23.343  32.393   5.645
 5910POPC   GL274642  23.593  32.157   5.836
 5910POPC   C1A74643  23.461  32.535   6.147
 5910POPC   D2A74644  23.692  32.470   6.567
 5910POPC   C3A74645  23.471  32.426   6.989
 5910POPC   C4A74646  23.644  32.483   7.426
 5910POPC   C1B74647  23.966  32.251   6.145
 5910POPC   C2B74648  24.147  32.254   6.563
 5910POPC   C3B74649  23.897  32.165   6.948
 5910POPC   C4B74650  23.651  31.962   7.307
 5911POPC   NC374651  27.722  12.902   5.376
 5911POPC   PO474652  27.084  12.666   5.407
 5911POPC   GL174653  27.397  12.740   5.749
 5911POPC   GL274654  27.769  12.586   5.785
 5911POPC   C1A74655  27.604  12.925   6.115
 5911POPC   D2A74656  27.503  12.854   6.520
 5911POPC   C3A74657  27.599  13.017   6.916
 5911POPC   C4A74658  27.415  12.761   7.195
 5911POPC   C1B74659  27.844  12.469   6.231
 5911POPC   C2B74660  27.887  12.570   6.671
 5911POPC   C3B74661  27.770  12.426   7.043
 5911POPC   C4B74662  27.847  12.558   7.438
 5912POPC   NC374663  15.689   2.859   5.541
 5912POPC   PO474664  16.224   2.448   5.427
 5912POPC   GL174665  16.033   2.527   5.825
 5912POPC   GL274666  15.679   2.466   5.864
 5912POPC   C1A74667  16.053   2.696   6.242
 5912POPC   D2A74668  15.876   2.923   6.608
 5912POPC   C3A74669  16.133   2.830   6.937
 5912POPC   C4A74670  16.290   3.001   7.276
 5912POPC   C1B74671  15.555   2.609   6.273
 5912POPC   C2B74672  15.774   2.425   6.619
 5912POPC   C3B74673  15.728   2.547   7.030
 5912POPC   C4B74674  15.744   2.958   7.241
 5913POPC   NC374675  33.925   6.740   5.434
 5913POPC   PO474676  33.341   6.512   5.430
 5913POPC   GL174677  33.444   6.321   5.789
 5913POPC   GL274678  33.768   6.211   5.685
 5913POPC   C1A74679  33.594   6.513   6.179
 5913POPC   D2A74680  33.778   6.832   6.487
 5913POPC   C3A74681  33.725   6.667   6.896
 5913POPC   C4A74682  33.914   6.540   7.290
 5913POPC   C1B74683  33.980   6.162   6.084
 5913POPC   C2B74684  33.953   6.332   6.509
 5913POPC   C3B74685  33.879   6.176   6.917
 5913POPC   C4B74686  34.090   6.062   7.262
 5914POPC   NC374687  30.682  33.126   5.338
 5914POPC   PO474688  31.141  32.698   5.455
 5914POPC   GL174689  30.800  32.934   5.776
 5914POPC   GL274690  30.865  33.313   5.791
 5914POPC   C1A74691  30.539  32.850   6.160
 5914POPC   D2A74692  30.519  32.560   6.538
 5914POPC   C3A74693  30.475  32.742   6.948
 5914POPC   C4A74694  30.733  32.769   7.312
 5914POPC   C1B74695  30.612  33.436   6.155
 5914POPC   C2B74696  30.461  33.270   6.544
 5914POPC   C3B74697  30.216  33.370   6.876
 5914POPC   C4B74698  30.331  33.161   7.231
 5915POPC   NC374699  38.060   2.715   5.664
 5915POPC   PO474700  37.472   2.929   5.273
 5915POPC   GL174701  37.633   2.983   5.683
 5915POPC   GL274702  37.483   2.681   5.758
 5915POPC   C1A74703  37.698   2.908   6.175
 5915POPC   D2A74704  37.494   3.106   6.573
 5915POPC   C3A74705  37.448   2.987   7.043
 5915POPC   C4A74706  37.463   2.949   7.515
 5915POPC   C1B74707  37.399   2.398   6.082
 5915POPC   C2B74708  37.524   2.544   6.491
 5915POPC   C3B74709  37.436   2.494   6.907
 5915POPC   C4B74710  37.541   2.473   7.329
 5916POPC   NC374711  35.975  25.456   5.467
 5916POPC   PO474712  36.353  24.874   5.556
 5916POPC   GL174713  35.978  25.033   5.853
 5916POPC   GL274714  36.021  25.409   5.962
 5916POPC   C1A74715  35.981  25.077   6.328
 5916POPC   D2A74716  36.411  25.170   6.449
 5916POPC   C3A74717  36.460  25.311   6.862
 5916POPC   C4A74718  36.241  25.279   7.224
 5916POPC   C1B74719  35.706  25.521   6.261
 5916POPC   C2B74720  35.532  25.380   6.632
 5916POPC   C3B74721  35.843  25.273   6.885
 5916POPC   C4B74722  35.768  25.352   7.312
 5917POPC   NC374723  39.835   2.511   5.432
 5917POPC   PO474724  40.232   3.060   5.479
 5917POPC   GL174725  40.145   2.707   5.785
 5917POPC   GL274726  39.784   2.773   5.859
 5917POPC   C1A74727  40.059   2.482   6.189
 5917POPC   D2A74728  40.043   2.692   6.597
 5917POPC   C3A74729  40.045   2.448   6.964
 5917POPC   C4A74730  40.221   2.415   7.373
 5917POPC   C1B74731  39.909   2.997   6.205
 5917POPC   C2B74732  39.708   3.098   6.611
 5917POPC   C3B74733  39.705   2.862   6.952
 5917POPC   C4B74734  39.801   3.015   7.320
 5918POPC   NC374735   3.775   0.421   5.281
 5918POPC   PO474736   3.162   0.272   5.469
 5918POPC   GL174737   3.420   0.434   5.765
 5918POPC   GL274738   3.778   0.412   5.793
 5918POPC   C1A74739   3.426   0.264   6.165
 5918POPC   D2A74740   3.343   0.361   6.571
 5918POPC   C3A74741   3.613   0.103   6.873
 5918POPC   C4A74742   3.564   0.172   7.317
 5918POPC   C1B74743   3.794   0.619   6.184
 5918POPC   C2B74744   3.837   0.493   6.600
 5918POPC   C3B74745   3.572   0.589   7.009
 5918POPC   C4B74746   3.654   0.829   7.382
 5919POPC   NC374747  10.867  14.646   5.248
 5919POPC   PO474748  10.374  14.149   5.266
 5919POPC   GL174749  10.580  14.195   5.678
 5919POPC   GL274750  10.919  14.054   5.595
 5919POPC   C1A74751  10.534  14.456   6.086
 5919POPC   D2A74752  10.586  14.689   6.518
 5919POPC   C3A74753  10.475  14.558   6.951
 5919POPC   C4A74754  10.623  14.248   7.267
 5919POPC   C1B74755  10.943  14.106   6.035
 5919POPC   C2B74756  10.875  14.286   6.428
 5919POPC   C3B74757  10.930  14.328   6.868
 5919POPC   C4B74758  11.180  14.161   7.212
 5920POPC   NC374759  30.048  30.067   5.346
 5920POPC   PO474760  29.466  29.803   5.485
 5920POPC   GL174761  29.811  29.912   5.819
 5920POPC   GL274762  30.189  29.875   5.791
 5920POPC   C1A74763  29.738  30.045   6.264
 5920POPC   D2A74764  29.679  30.315   6.641
 5920POPC   C3A74765  29.780  30.045   6.970
 5920POPC   C4A74766  29.558  29.781   7.191
 5920POPC   C1B74767  30.261  30.090   6.179
 5920POPC   C2B74768  30.126  29.984   6.593
 5920POPC   C3B74769  30.289  29.996   6.992
 5920POPC   C4B74770  30.266  30.326   7.285
 5921POPC   NC374771  43.546  39.567   5.323
 5921POPC   PO474772  44.077  39.265   5.403
 5921POPC   GL174773  43.717  39.235   5.712
 5921POPC   GL274774  43.523  39.519   5.828
 5921POPC   C1A74775  43.767  39.116   6.143
 5921POPC   D2A74776  43.986  39.248   6.536
 5921POPC   C3A74777  43.805  39.174   6.932
 5921POPC   C4A74778  43.895  39.062   7.328
 5921POPC   C1B74779  43.517  39.665   6.234
 5921POPC   C2B74780  43.567  39.534   6.653
 5921POPC   C3B74781  43.502  39.564   7.090
 5921POPC   C4B74782  43.540  39.429   7.543
 5922POPC   NC374783  25.704  13.833   5.383
 5922POPC   PO474784  26.347  13.571   5.365
 5922POPC   GL174785  26.095  13.760   5.727
 5922POPC   GL274786  25.876  13.494   5.774
 5922POPC   C1A74787  25.967  13.802   6.189
 5922POPC   D2A74788  26.099  13.593   6.612
 5922POPC   C3A74789  25.898  13.673   7.042
 5922POPC   C4A74790  25.984  13.972   7.376
 5922POPC   C1B74791  26.030  13.303   6.165
 5922POPC   C2B74792  26.125  13.056   6.519
 5922POPC   C3B74793  25.980  13.168   6.900
 5922POPC   C4B74794  26.157  13.266   7.250
 5923POPC   NC374795  43.034  35.762   5.277
 5923POPC   PO474796  43.362  36.309   5.494
 5923POPC   GL174797  43.058  36.050   5.727
 5923POPC   GL274798  42.810  35.759   5.756
 5923POPC   C1A74799  43.166  35.962   6.142
 5923POPC   D2A74800  43.344  36.158   6.512
 5923POPC   C3A74801  43.238  36.047   6.935
 5923POPC   C4A74802  43.187  36.384   7.204
 5923POPC   C1B74803  42.658  35.866   6.160
 5923POPC   C2B74804  42.858  35.914   6.548
 5923POPC   C3B74805  42.757  35.916   6.941
 5923POPC   C4B74806  42.970  35.672   7.238
 5924POPC   NC374807  32.703  13.854   5.692
 5924POPC   PO474808  32.978  13.443   5.154
 5924POPC   GL174809  32.990  13.430   5.634
 5924POPC   GL274810  33.292  13.573   5.782
 5924POPC   C1A74811  32.963  13.421   6.135
 5924POPC   D2A74812  33.190  13.529   6.533
 5924POPC   C3A74813  33.115  13.401   6.943
 5924POPC   C4A74814  33.281  13.488   7.317
 5924POPC   C1B74815  33.156  13.887   6.157
 5924POPC   C2B74816  32.873  13.961   6.516
 5924POPC   C3B74817  32.970  13.912   6.970
 5924POPC   C4B74818  32.924  13.987   7.419
 5925POPC   NC374819  43.141  13.916   5.429
 5925POPC   PO474820  42.553  13.605   5.209
 5925POPC   GL174821  42.724  13.474   5.731
 5925POPC   GL274822  43.081  13.625   5.849
 5925POPC   C1A74823  42.794  13.353   6.185
 5925POPC   D2A74824  42.925  13.545   6.581
 5925POPC   C3A74825  42.889  13.352   7.005
 5925POPC   C4A74826  42.999  13.636   7.345
 5925POPC   C1B74827  43.334  13.486   6.233
 5925POPC   C2B74828  43.371  13.289   6.672
 5925POPC   C3B74829  43.397  13.407   7.122
 5925POPC   C4B74830  43.292  13.250   7.568
 5926POPC   NC374831  24.830  21.268   5.310
 5926POPC   PO474832  24.333  21.745   5.377
 5926POPC   GL174833  24.610  21.548   5.681
 5926POPC   GL274834  24.581  21.173   5.746
 5926POPC   C1A74835  24.798  21.546   6.096
 5926POPC   D2A74836  24.888  21.383   6.506
 5926POPC   C3A74837  24.646  21.553   6.845
 5926POPC   C4A74838  24.782  21.426   7.231
 5926POPC   C1B74839  24.512  21.112   6.194
 5926POPC   C2B74840  24.287  21.320   6.521
 5926POPC   C3B74841  24.175  21.276   6.942
 5926POPC   C4B74842  24.389  21.131   7.278
 5927POPC   NC374843  36.833  37.877   5.536
 5927POPC   PO474844  36.691  37.256   5.568
 5927POPC   GL174845  36.729  37.518   5.887
 5927POPC   GL274846  37.085  37.595   5.895
 5927POPC   C1A74847  36.765  37.647   6.300
 5927POPC   D2A74848  37.004  37.611   6.613
 5927POPC   C3A74849  36.746  37.680   6.932
 5927POPC   C4A74850  36.516  37.708   7.283
 5927POPC   C1B74851  37.090  38.013   6.156
 5927POPC   C2B74852  36.878  38.099   6.574
 5927POPC   C3B74853  37.081  38.062   6.985
 5927POPC   C4B74854  37.041  38.060   7.433
 5928POPC   NC374855   0.518  30.241   5.371
 5928POPC   PO474856   0.648  30.839   5.303
 5928POPC   GL174857   0.573  30.801   5.765
 5928POPC   GL274858   0.324  30.508   5.798
 5928POPC   C1A74859   0.675  30.625   6.207
 5928POPC   D2A74860   0.525  30.630   6.660
 5928POPC   C3A74861   0.749  30.650   7.064
 5928POPC   C4A74862   0.671  30.764   7.504
 5928POPC   C1B74863   0.160  30.301   6.203
 5928POPC   C2B74864   0.218  30.180   6.662
 5928POPC   C3B74865   0.259  30.415   7.073
 5928POPC   C4B74866   0.176  30.791   7.325
 5929POPC   NC374867   9.787  23.477   5.438
 5929POPC   PO474868   9.847  24.075   5.188
 5929POPC   GL174869   9.830  23.924   5.687
 5929POPC   GL274870   9.542  23.756   5.830
 5929POPC   C1A74871   9.863  23.832   6.196
 5929POPC   D2A74872   9.953  23.870   6.662
 5929POPC   C3A74873   9.939  23.669   7.083
 5929POPC   C4A74874  10.024  23.669   7.549
 5929POPC   C1B74875   9.334  23.714   6.221
 5929POPC   C2B74876   9.434  23.878   6.623
 5929POPC   C3B74877   9.398  23.740   7.030
 5929POPC   C4B74878   9.546  23.624   7.419
 5930POPC   NC374879  23.316   7.202   5.637
 5930POPC   PO474880  22.990   7.763   5.380
 5930POPC   GL174881  22.974   7.531   5.862
 5930POPC   GL274882  23.030   7.166   6.042
 5930POPC   C1A74883  22.817   7.487   6.337
 5930POPC   D2A74884  22.640   7.469   6.749
 5930POPC   C3A74885  22.950   7.454   7.077
 5930POPC   C4A74886  22.840   7.089   7.295
 5930POPC   C1B74887  23.365   7.191   6.345
 5930POPC   C2B74888  23.371   7.349   6.764
 5930POPC   C3B74889  23.332   7.107   7.142
 5930POPC   C4B74890  23.291   7.194   7.574
 5931POPC   NC374891  30.166  43.127   5.491
 5931POPC   PO474892  29.485  43.283   5.502
 5931POPC   GL174893  29.765  43.011   5.793
 5931POPC   GL274894  30.151  42.913   5.939
 5931POPC   C1A74895  29.848  43.203   6.199
 5931POPC   D2A74896  29.756  43.063   6.579
 5931POPC   C3A74897  29.590  43.328   6.878
 5931POPC   C4A74898  29.632  43.263   7.315
 5931POPC   C1B74899  30.276  42.929   6.337
 5931POPC   C2B74900  30.238  43.045   6.721
 5931POPC   C3B74901  29.996  42.961   7.100
 5931POPC   C4B74902  30.177  42.882   7.520
 5932POPC   NC374903  16.366  19.994   5.538
 5932POPC   PO474904  17.016  19.798   5.560
 5932POPC   GL174905  16.677  19.737   5.868
 5932POPC   GL274906  16.450  19.447   5.774
 5932POPC   C1A74907  16.509  19.995   6.237
 5932POPC   D2A74908  16.358  20.186   6.651
 5932POPC   C3A74909  16.635  20.103   7.015
 5932POPC   C4A74910  16.821  19.705   7.152
 5932POPC   C1B74911  16.245  19.494   6.154
 5932POPC   C2B74912  16.203  19.693   6.535
 5932POPC   C3B74913  16.366  19.613   6.925
 5932POPC   C4B74914  16.422  19.369   7.295
 5933POPC   NC374915  17.355  40.406   5.395
 5933POPC   PO474916  18.008  40.346   5.646
 5933POPC   GL174917  17.849  40.031   5.955
 5933POPC   GL274918  17.497  39.882   5.895
 5933POPC   C1A74919  17.663  39.994   6.389
 5933POPC   D2A74920  17.626  39.812   6.815
 5933POPC   C3A74921  17.752  40.093   7.142
 5933POPC   C4A74922  17.661  40.105   7.573
 5933POPC   C1B74923  17.239  40.224   6.099
 5933POPC   C2B74924  17.103  40.336   6.511
 5933POPC   C3B74925  17.282  40.261   6.909
 5933POPC   C4B74926  17.311  40.427   7.296
 5934POPC   NC374927   8.166  24.518   5.287
 5934POPC   PO474928   8.691  24.575   5.574
 5934POPC   GL174929   8.355  24.616   5.818
 5934POPC   GL274930   8.350  24.282   5.894
 5934POPC   C1A74931   8.129  24.700   6.205
 5934POPC   D2A74932   8.024  24.414   6.495
 5934POPC   C3A74933   8.131  24.563   6.896
 5934POPC   C4A74934   7.987  24.424   7.278
 5934POPC   C1B74935   8.490  24.334   6.256
 5934POPC   C2B74936   8.437  24.115   6.606
 5934POPC   C3B74937   8.495  24.185   7.021
 5934POPC   C4B74938   8.527  24.516   7.267
 5935POPC   NC374939   5.737  28.168   5.535
 5935POPC   PO474940   6.205  28.633   5.462
 5935POPC   GL174941   6.019  28.561   5.878
 5935POPC   GL274942   5.936  28.199   5.977
 5935POPC   C1A74943   5.897  28.582   6.315
 5935POPC   D2A74944   5.996  28.312   6.706
 5935POPC   C3A74945   6.024  28.349   7.185
 5935POPC   C4A74946   6.004  28.371   7.652
 5935POPC   C1B74947   5.575  28.179   6.230
 5935POPC   C2B74948   5.582  28.014   6.620
 5935POPC   C3B74949   5.561  28.170   6.989
 5935POPC   C4B74950   5.663  28.027   7.373
 5936POPC   NC374951  31.508  28.672   5.599
 5936POPC   PO474952  31.510  28.031   5.522
 5936POPC   GL174953  31.507  28.165   5.912
 5936POPC   GL274954  31.509  28.510   6.079
 5936POPC   C1A74955  31.444  28.064   6.319
 5936POPC   D2A74956  31.470  28.378   6.604
 5936POPC   C3A74957  31.404  28.151   6.940
 5936POPC   C4A74958  31.647  28.181   7.275
 5936POPC   C1B74959  31.835  28.730   6.310
 5936POPC   C2B74960  32.037  28.851   6.706
 5936POPC   C3B74961  31.824  28.818   7.093
 5936POPC   C4B74962  31.442  28.628   7.131
 5937POPC   NC374963  26.844  20.034   5.420
 5937POPC   PO474964  26.433  19.508   5.343
 5937POPC   GL174965  26.592  19.574   5.765
 5937POPC   GL274966  26.887  19.712   5.848
 5937POPC   C1A74967  26.545  19.786   6.196
 5937POPC   D2A74968  26.623  20.062   6.532
 5937POPC   C3A74969  26.604  19.829   6.877
 5937POPC   C4A74970  26.558  19.950   7.260
 5937POPC   C1B74971  27.058  19.883   6.251
 5937POPC   C2B74972  27.098  19.912   6.699
 5937POPC   C3B74973  27.069  19.897   7.148
 5937POPC   C4B74974  26.923  19.909   7.608
 5938POPC   NC374975  22.366  23.578   5.306
 5938POPC   PO474976  22.217  24.125   5.463
 5938POPC   GL174977  22.260  23.843   5.791
 5938POPC   GL274978  21.909  23.819   5.909
 5938POPC   C1A74979  22.324  23.499   6.100
 5938POPC   D2A74980  22.428  23.523   6.527
 5938POPC   C3A74981  22.147  23.628   6.841
 5938POPC   C4A74982  22.173  23.487   7.238
 5938POPC   C1B74983  21.966  23.799   6.357
 5938POPC   C2B74984  21.832  24.011   6.713
 5938POPC   C3B74985  21.967  24.093   7.137
 5938POPC   C4B74986  22.079  23.886   7.512
 5939POPC   NC374987  13.777  20.629   5.196
 5939POPC   PO474988  13.151  20.500   5.528
 5939POPC   GL174989  13.401  20.785   5.817
 5939POPC   GL274990  13.772  20.856   5.811
 5939POPC   C1A74991  13.542  20.752   6.255
 5939POPC   D2A74992  13.399  20.680   6.635
 5939POPC   C3A74993  13.570  20.575   6.986
 5939POPC   C4A74994  13.418  20.745   7.344
 5939POPC   C1B74995  14.025  20.645   6.182
 5939POPC   C2B74996  13.994  20.733   6.617
 5939POPC   C3B74997  14.066  20.682   7.028
 5939POPC   C4B74998  13.907  20.725   7.410
 5940POPC   NC374999  37.956  34.907   5.320
 5940POPC   PO475000  38.389  34.462   5.520
 5940POPC   GL175001  38.370  34.684   5.870
 5940POPC   GL275002  38.122  34.941   5.811
 5940POPC   C1A75003  38.246  34.466   6.234
 5940POPC   D2A75004  38.271  34.111   6.521
 5940POPC   C3A75005  38.469  34.331   6.862
 5940POPC   C4A75006  38.428  34.394   7.291
 5940POPC   C1B75007  38.252  34.996   6.245
 5940POPC   C2B75008  38.319  34.818   6.667
 5940POPC   C3B75009  38.505  34.911   7.073
 5940POPC   C4B75010  38.460  34.851   7.510
 5941POPC   NC375011  36.992  31.123   5.403
 5941POPC   PO475012  36.622  31.642   5.265
 5941POPC   GL175013  36.702  31.470   5.677
 5941POPC   GL275014  37.007  31.508   5.784
 5941POPC   C1A75015  36.657  31.428   6.170
 5941POPC   D2A75016  36.820  31.585   6.602
 5941POPC   C3A75017  36.967  31.364   6.997
 5941POPC   C4A75018  36.778  31.470   7.437
 5941POPC   C1B75019  37.157  31.475   6.207
 5941POPC   C2B75020  37.310  31.753   6.442
 5941POPC   C3B75021  37.281  31.769   6.849
 5941POPC   C4B75022  37.082  31.805   7.206
 5942POPC   NC375023   5.594  10.876   5.355
 5942POPC   PO475024   5.919  10.281   5.284
 5942POPC   GL175025   5.991  10.508   5.668
 5942POPC   GL275026   5.699  10.414   5.841
 5942POPC   C1A75027   6.140  10.467   6.118
 5942POPC   D2A75028   5.934  10.304   6.530
 5942POPC   C3A75029   6.063  10.591   6.877
 5942POPC   C4A75030   5.956  10.595   7.297
 5942POPC   C1B75031   5.691  10.680   6.231
 5942POPC   C2B75032   5.569  10.627   6.665
 5942POPC   C3B75033   5.641  10.318   6.995
 5942POPC   C4B75034   5.449  10.579   7.280
 5943POPC   NC375035   8.366  20.454   5.345
 5943POPC   PO475036   7.856  20.708   5.481
 5943POPC   GL175037   8.164  20.918   5.768
 5943POPC   GL275038   8.521  20.793   5.747
 5943POPC   C1A75039   8.093  20.924   6.224
 5943POPC   D2A75040   8.075  20.643   6.582
 5943POPC   C3A75041   8.006  20.751   7.018
 5943POPC   C4A75042   8.071  20.422   7.333
 5943POPC   C1B75043   8.460  20.558   6.154
 5943POPC   C2B75044   8.637  20.601   6.586
 5943POPC   C3B75045   8.460  20.473   6.974
 5943POPC   C4B75046   8.562  20.544   7.387
 5944POPC   NC375047   3.816  41.758   5.153
 5944POPC   PO475048   3.479  41.437   5.648
 5944POPC   GL175049   3.249  41.671   5.904
 5944POPC   GL275050   3.223  41.374   6.074
 5944POPC   C1A75051   3.425  41.838   6.281
 5944POPC   D2A75052   3.528  42.055   6.666
 5944POPC   C3A75053   3.586  41.773   7.013
 5944POPC   C4A75054   3.683  41.507   7.367
 5944POPC   C1B75055   3.352  41.255   6.446
 5944POPC   C2B75056   3.388  41.214   6.881
 5944POPC   C3B75057   3.210  41.051   7.246
 5944POPC   C4B75058   3.244  41.286   7.608
 5945POPC   NC375059   5.268  18.881   5.397
 5945POPC   PO475060   4.594  19.222   5.311
 5945POPC   GL175061   4.799  19.138   5.740
 5945POPC   GL275062   5.138  19.064   5.854
 5945POPC   C1A75063   4.785  19.000   6.216
 5945POPC   D2A75064   4.973  19.176   6.610
 5945POPC   C3A75065   4.780  19.078   7.012
 5945POPC   C4A75066   4.920  19.263   7.430
 5945POPC   C1B75067   5.304  18.960   6.244
 5945POPC   C2B75068   5.450  18.983   6.656
 5945POPC   C3B75069   5.304  19.093   7.058
 5945POPC   C4B75070   5.522  18.849   7.376
 5946POPC   NC375071  21.763  36.407   5.578
 5946POPC   PO475072  21.270  36.003   5.387
 5946POPC   GL175073  21.456  35.965   5.777
 5946POPC   GL275074  21.450  36.268   5.945
 5946POPC   C1A75075  21.352  35.841   6.190
 5946POPC   D2A75076  21.508  35.696   6.575
 5946POPC   C3A75077  21.345  35.851   6.963
 5946POPC   C4A75078  21.413  36.071   7.359
 5946POPC   C1B75079  21.758  36.134   6.289
 5946POPC   C2B75080  21.694  36.155   6.751
 5946POPC   C3B75081  21.568  36.437   7.062
 5946POPC   C4B75082  21.746  36.463   7.467
 5947POPC   NC375083  24.806  43.031   5.382
 5947POPC   PO475084  25.135  43.525   5.569
 5947POPC   GL175085  25.095  43.278   5.943
 5947POPC   GL275086  24.920  42.959   5.897
 5947POPC   C1A75087  25.418  43.074   6.202
 5947POPC   D2A75088  25.496  42.850   6.571
 5947POPC   C3A75089  25.289  43.039   6.862
 5947POPC   C4A75090  25.403  42.965   7.243
 5947POPC   C1B75091  24.961  42.844   6.342
 5947POPC   C2B75092  24.878  42.718   6.760
 5947POPC   C3B75093  24.907  42.830   7.211
 5947POPC   C4B75094  24.909  42.710   7.663
 5948POPC   NC375095  29.500   8.896   5.513
 5948POPC   PO475096  28.844   8.893   5.399
 5948POPC   GL175097  29.082   9.101   5.740
 5948POPC   GL275098  29.069   8.760   5.866
 5948POPC   C1A75099  29.247   9.112   6.206
 5948POPC   D2A75100  29.062   9.230   6.658
 5948POPC   C3A75101  29.195   8.976   7.021
 5948POPC   C4A75102  29.131   9.008   7.485
 5948POPC   C1B75103  28.754   8.591   6.183
 5948POPC   C2B75104  28.920   8.704   6.620
 5948POPC   C3B75105  28.932   8.509   7.034
 5948POPC   C4B75106  29.190   8.516   7.397
 5949POPC   NC375107  27.693  13.900   5.175
 5949POPC   PO475108  27.486  13.320   5.377
 5949POPC   GL175109  27.618  13.645   5.684
 5949POPC   GL275110  27.289  13.602   5.824
 5949POPC   C1A75111  27.684  13.817   6.139
 5949POPC   D2A75112  27.977  13.893   6.522
 5949POPC   C3A75113  27.862  13.709   6.934
 5949POPC   C4A75114  27.633  13.941   7.235
 5949POPC   C1B75115  27.382  13.377   6.175
 5949POPC   C2B75116  27.593  13.414   6.566
 5949POPC   C3B75117  27.374  13.505   6.955
 5949POPC   C4B75118  27.089  13.774   7.182
 5950POPC   NC375119  44.959  21.748   5.090
 5950POPC   PO475120   0.487  21.495   5.391
 5950POPC   GL175121   0.471  21.262   5.838
 5950POPC   GL275122   0.174  21.466   6.002
 5950POPC   C1A75123   0.528  21.243   6.308
 5950POPC   D2A75124   0.578  21.473   6.677
 5950POPC   C3A75125   0.683  21.210   7.022
 5950POPC   C4A75126   0.866  21.434   7.365
 5950POPC   C1B75127   0.037  21.154   6.226
 5950POPC   C2B75128   0.085  21.318   6.632
 5950POPC   C3B75129   0.213  21.401   7.046
 5950POPC   C4B75130   0.196  21.145   7.390
 5951POPC   NC375131  19.448  41.209   5.402
 5951POPC   PO475132  20.115  41.346   5.485
 5951POPC   GL175133  19.869  41.461   5.820
 5951POPC   GL275134  19.676  41.755   5.888
 5951POPC   C1A75135  19.807  41.319   6.209
 5951POPC   D2A75136  19.738  41.520   6.561
 5951POPC   C3A75137  19.726  41.346   6.920
 5951POPC   C4A75138  19.960  41.538   7.216
 5951POPC   C1B75139  19.630  41.963   6.323
 5951POPC   C2B75140  19.683  41.956   6.811
 5951POPC   C3B75141  19.461  42.021   7.209
 5951POPC   C4B75142  19.625  41.824   7.620
 5952POPC   NC375143  16.680  33.276   5.231
 5952POPC   PO475144  16.703  32.621   5.377
 5952POPC   GL175145  16.677  32.978   5.716
 5952POPC   GL275146  16.980  33.156   5.841
 5952POPC   C1A75147  16.562  33.164   6.144
 5952POPC   D2A75148  16.567  33.033   6.579
 5952POPC   C3A75149  16.692  33.167   7.012
 5952POPC   C4A75150  16.502  33.151   7.461
 5952POPC   C1B75151  17.033  32.947   6.250
 5952POPC   C2B75152  17.053  32.902   6.705
 5952POPC   C3B75153  17.064  32.853   7.149
 5952POPC   C4B75154  17.009  33.211   7.450
 5953POPC   NC375155  38.561   0.688   5.367
 5953POPC   PO475156  38.587   1.384   5.597
 5953POPC   GL175157  38.347   1.060   5.793
 5953POPC   GL275158  38.661   0.881   5.835
 5953POPC   C1A75159  38.205   1.088   6.224
 5953POPC   D2A75160  38.395   1.334   6.573
 5953POPC   C3A75161  38.289   1.191   6.985
 5953POPC   C4A75162  38.386   1.318   7.406
 5953POPC   C1B75163  38.739   1.129   6.219
 5953POPC   C2B75164  38.926   1.419   6.558
 5953POPC   C3B75165  38.762   1.447   7.003
 5953POPC   C4B75166  38.756   1.039   7.219
 5954POPC   NC375167   1.805  16.105   5.495
 5954POPC   PO475168   2.434  15.779   5.328
 5954POPC   GL175169   2.307  16.101   5.682
 5954POPC   GL275170   2.103  15.886   5.859
 5954POPC   C1A75171   2.250  16.223   6.184
 5954POPC   D2A75172   1.920  16.183   6.513
 5954POPC   C3A75173   2.035  16.122   6.923
 5954POPC   C4A75174   2.175  16.224   7.332
 5954POPC   C1B75175   1.884  15.785   6.214
 5954POPC   C2B75176   1.991  15.680   6.619
 5954POPC   C3B75177   1.839  15.663   7.000
 5954POPC   C4B75178   2.119  15.695   7.317
 5955POPC   NC375179  24.315  19.783   5.506
 5955POPC   PO475180  24.761  20.216   5.591
 5955POPC   GL175181  24.872  19.828   5.767
 5955POPC   GL275182  24.659  19.510   5.785
 5955POPC   C1A75183  24.836  19.758   6.196
 5955POPC   D2A75184  24.504  19.939   6.476
 5955POPC   C3A75185  24.512  19.854   6.910
 5955POPC   C4A75186  24.636  19.883   7.323
 5955POPC   C1B75187  24.403  19.515   6.193
 5955POPC   C2B75188  24.183  19.545   6.562
 5955POPC   C3B75189  24.007  19.526   6.949
 5955POPC   C4B75190  24.178  19.654   7.307
 5956POPC   NC375191   8.950  37.094   5.284
 5956POPC   PO475192   9.305  36.662   5.662
 5956POPC   GL175193   8.891  36.777   5.861
 5956POPC   GL275194   8.878  37.136   5.803
 5956POPC   C1A75195   8.722  36.927   6.287
 5956POPC   D2A75196   8.615  37.092   6.734
 5956POPC   C3A75197   8.747  36.789   7.069
 5956POPC   C4A75198   9.047  36.446   7.094
 5956POPC   C1B75199   9.140  37.228   6.207
 5956POPC   C2B75200   9.133  37.240   6.693
 5956POPC   C3B75201   9.087  37.173   7.157
 5956POPC   C4B75202   9.046  37.280   7.629
 5957POPC   NC375203  26.365  23.387   5.353
 5957POPC   PO475204  27.039  23.508   5.520
 5957POPC   GL175205  26.680  23.630   5.721
 5957POPC   GL275206  26.895  23.843   5.914
 5957POPC   C1A75207  26.497  23.582   6.124
 5957POPC   D2A75208  26.618  23.698   6.553
 5957POPC   C3A75209  26.468  23.761   6.965
 5957POPC   C4A75210  26.478  23.424   7.267
 5957POPC   C1B75211  27.024  23.554   6.252
 5957POPC   C2B75212  27.104  23.626   6.689
 5957POPC   C3B75213  26.936  23.628   7.126
 5957POPC   C4B75214  27.153  23.635   7.502
 5958POPC   NC375215  22.255  20.305   5.626
 5958POPC   PO475216  22.532  20.894   5.480
 5958POPC   GL175217  22.316  20.823   5.843
 5958POPC   GL275218  21.968  20.725   5.786
 5958POPC   C1A75219  22.186  20.714   6.242
 5958POPC   D2A75220  22.032  20.487   6.593
 5958POPC   C3A75221  22.126  20.624   6.970
 5958POPC   C4A75222  22.023  20.828   7.336
 5958POPC   C1B75223  21.820  20.392   6.121
 5958POPC   C2B75224  21.566  20.385   6.476
 5958POPC   C3B75225  21.673  20.229   6.886
 5958POPC   C4B75226  21.746  20.402   7.283
 5959POPC   NC375227  25.594   0.529   5.043
 5959POPC   PO475228  25.384   0.848   5.529
 5959POPC   GL175229  25.361   0.523   5.809
 5959POPC   GL275230  24.996   0.499   5.887
 5959POPC   C1A75231  25.546   0.357   6.184
 5959POPC   D2A75232  25.369   0.326   6.591
 5959POPC   C3A75233  25.542   0.094   6.925
 5959POPC   C4A75234  25.450   0.324   7.341
 5959POPC   C1B75235  25.195   0.725   6.261
 5959POPC   C2B75236  25.197   0.863   6.695
 5959POPC   C3B75237  25.061   0.774   7.097
 5959POPC   C4B75238  24.978   0.503   7.454
 5960POPC   NC375239  26.712  17.602   5.391
 5960POPC   PO475240  26.818  17.015   5.660
 5960POPC   GL175241  26.734  17.404   5.870
 5960POPC   GL275242  27.046  17.518   6.003
 5960POPC   C1A75243  26.612  17.652   6.243
 5960POPC   D2A75244  26.859  17.815   6.582
 5960POPC   C3A75245  26.715  17.645   6.964
 5960POPC   C4A75246  26.831  17.695   7.388
 5960POPC   C1B75247  27.081  17.178   6.339
 5960POPC   C2B75248  27.086  17.002   6.786
 5960POPC   C3B75249  26.975  17.255   7.161
 5960POPC   C4B75250  27.184  17.350   7.551
 5961POPC   NC375251  34.072   3.858   5.441
 5961POPC   PO475252  33.836   4.531   5.320
 5961POPC   GL175253  33.753   4.241   5.700
 5961POPC   GL275254  34.088   4.240   5.847
 5961POPC   C1A75255  33.692   4.320   6.176
 5961POPC   D2A75256  33.852   4.393   6.610
 5961POPC   C3A75257  33.581   4.307   6.984
 5961POPC   C4A75258  33.627   4.214   7.463
 5961POPC   C1B75259  34.079   4.646   6.114
 5961POPC   C2B75260  34.088   4.853   6.525
 5961POPC   C3B75261  33.920   4.808   6.950
 5961POPC   C4B75262  33.978   4.494   7.246
 5962POPC   NC375263  30.822  20.465   5.405
 5962POPC   PO475264  30.309  20.868   5.197
 5962POPC   GL175265  30.397  20.677   5.683
 5962POPC   GL275266  30.726  20.596   5.887
 5962POPC   C1A75267  30.293  20.456   6.135
 5962POPC   D2A75268  30.500  20.352   6.546
 5962POPC   C3A75269  30.299  20.398   6.967
 5962POPC   C4A75270  30.564  20.438   7.313
 5962POPC   C1B75271  30.909  20.911   6.185
 5962POPC   C2B75272  30.806  21.030   6.607
 5962POPC   C3B75273  30.819  20.775   6.994
 5962POPC   C4B75274  31.090  20.531   7.289
 5963POPC   NC375275  31.936  43.737   5.482
 5963POPC   PO475276  32.418  44.142   5.390
 5963POPC   GL175277  32.231  44.092   5.797
 5963POPC   GL275278  32.246  43.739   5.879
 5963POPC   C1A75279  32.100  44.101   6.254
 5963POPC   D2A75280  32.158  43.803   6.598
 5963POPC   C3A75281  32.247  43.994   6.979
 5963POPC   C4A75282  32.036  44.054   7.322
 5963POPC   C1B75283  32.513  43.762   6.211
 5963POPC   C2B75284  32.623  43.526   6.532
 5963POPC   C3B75285  32.647  43.664   6.907
 5963POPC   C4B75286  32.604  43.508   7.286
 5964POPC   NC375287  36.858  30.461   5.636
 5964POPC   PO475288  37.216  31.022   5.779
 5964POPC   GL175289  37.022  30.804   5.975
 5964POPC   GL275290  36.711  30.995   5.870
 5964POPC   C1A75291  37.134  30.617   6.359
 5964POPC   D2A75292  36.982  30.428   6.766
 5964POPC   C3A75293  37.191  30.529   7.147
 5964POPC   C4A75294  37.129  30.591   7.606
 5964POPC   C1B75295  36.654  30.880   6.288
 5964POPC   C2B75296  36.914  30.997   6.631
 5964POPC   C3B75297  36.740  30.900   7.021
 5964POPC   C4B75298  36.684  30.799   7.427
 5965POPC   NC375299   3.747  18.285   5.540
 5965POPC   PO475300   3.261  17.950   5.231
 5965POPC   GL175301   3.327  17.991   5.738
 5965POPC   GL275302   3.377  18.296   5.892
 5965POPC   C1A75303   3.522  17.953   6.214
 5965POPC   D2A75304   3.777  18.090   6.597
 5965POPC   C3A75305   3.581  18.079   7.022
 5965POPC   C4A75306   3.635  18.061   7.483
 5965POPC   C1B75307   3.491  18.577   6.209
 5965POPC   C2B75308   3.371  18.782   6.576
 5965POPC   C3B75309   3.405  18.574   6.960
 5965POPC   C4B75310   3.709  18.521   7.262
 5966POPC   NC375311  20.408  10.604   5.469
 5966POPC   PO475312  21.033  10.477   5.622
 5966POPC   GL175313  20.691  10.404   5.896
 5966POPC   GL275314  20.357  10.202   5.823
 5966POPC   C1A75315  20.814  10.476   6.320
 5966POPC   D2A75316  20.720  10.322   6.720
 5966POPC   C3A75317  20.802  10.687   6.950
 5966POPC   C4A75318  20.993  10.794   7.321
 5966POPC   C1B75319  20.346  10.290   6.281
 5966POPC   C2B75320  20.272  10.573   6.660
 5966POPC   C3B75321  20.197  10.461   7.075
 5966POPC   C4B75322  20.558  10.432   7.320
 5967POPC   NC375323  26.946  35.622   5.311
 5967POPC   PO475324  26.609  35.021   5.260
 5967POPC   GL175325  26.705  35.257   5.683
 5967POPC   GL275326  27.017  35.378   5.767
 5967POPC   C1A75327  26.588  35.434   6.124
 5967POPC   D2A75328  26.419  35.585   6.561
 5967POPC   C3A75329  26.575  35.437   6.995
 5967POPC   C4A75330  26.757  35.207   7.393
 5967POPC   C1B75331  27.105  35.514   6.200
 5967POPC   C2B75332  26.998  35.516   6.655
 5967POPC   C3B75333  27.070  35.505   7.131
 5967POPC   C4B75334  27.082  35.588   7.605
 5968POPC   NC375335  24.422   9.288   5.461
 5968POPC   PO475336  24.617   8.699   5.161
 5968POPC   GL175337  24.431   8.760   5.616
 5968POPC   GL275338  24.659   8.955   5.799
 5968POPC   C1A75339  24.316   8.731   6.108
 5968POPC   D2A75340  24.486   8.779   6.565
 5968POPC   C3A75341  24.225   8.737   6.944
 5968POPC   C4A75342  24.363   8.994   7.268
 5968POPC   C1B75343  24.889   9.010   6.183
 5968POPC   C2B75344  24.899   9.256   6.536
 5968POPC   C3B75345  24.945   9.309   6.956
 5968POPC   C4B75346  24.864   9.183   7.366
 5969POPC   NC375347   1.367   6.248   5.348
 5969POPC   PO475348   0.889   5.775   5.254
 5969POPC   GL175349   1.065   5.950   5.671
 5969POPC   GL275350   0.817   5.826   5.873
 5969POPC   C1A75351   1.196   6.016   6.148
 5969POPC   D2A75352   1.445   5.798   6.470
 5969POPC   C3A75353   1.393   5.846   6.916
 5969POPC   C4A75354   1.371   5.952   7.370
 5969POPC   C1B75355   0.681   5.945   6.272
 5969POPC   C2B75356   0.923   5.969   6.645
 5969POPC   C3B75357   0.919   5.811   7.076
 5969POPC   C4B75358   1.009   5.622   7.487
 5970POPC   NC375359  14.597  42.785   5.375
 5970POPC   PO475360  14.042  43.123   5.625
 5970POPC   GL175361  14.276  42.981   5.913
 5970POPC   GL275362  14.603  43.079   5.811
 5970POPC   C1A75363  14.237  43.053   6.331
 5970POPC   D2A75364  14.158  43.309   6.640
 5970POPC   C3A75365  14.257  43.239   7.070
 5970POPC   C4A75366  14.003  43.061   7.383
 5970POPC   C1B75367  14.710  43.182   6.240
 5970POPC   C2B75368  14.618  43.038   6.677
 5970POPC   C3B75369  14.703  42.949   7.136
 5970POPC   C4B75370  14.734  43.256   7.446
 5971POPC   NC375371  34.247   2.876   5.337
 5971POPC   PO475372  34.714   2.494   5.412
 5971POPC   GL175373  34.615   2.792   5.732
 5971POPC   GL275374  34.280   2.818   5.851
 5971POPC   C1A75375  34.688   2.904   6.169
 5971POPC   D2A75376  34.570   2.844   6.595
 5971POPC   C3A75377  34.841   2.840   6.937
 5971POPC   C4A75378  34.683   2.693   7.285
 5971POPC   C1B75379  34.182   2.709   6.275
 5971POPC   C2B75380  34.062   2.834   6.713
 5971POPC   C3B75381  34.221   2.702   7.097
 5971POPC   C4B75382  34.302   2.982   7.470
 5972POPC   NC375383  29.010  24.848   5.369
 5972POPC   PO475384  29.213  25.460   5.480
 5972POPC   GL175385  29.244  25.115   5.779
 5972POPC   GL275386  28.926  24.995   5.904
 5972POPC   C1A75387  29.350  24.938   6.193
 5972POPC   D2A75388  29.349  24.852   6.649
 5972POPC   C3A75389  29.231  25.068   7.041
 5972POPC   C4A75390  28.827  25.105   7.331
 5972POPC   C1B75391  28.978  25.248   6.310
 5972POPC   C2B75392  29.188  25.479   6.654
 5972POPC   C3B75393  29.068  25.548   7.097
 5972POPC   C4B75394  29.243  25.350   7.466
 5973POPC   NC375395   4.098  15.609   5.504
 5973POPC   PO475396   4.224  14.971   5.640
 5973POPC   GL175397   4.231  15.187   6.009
 5973POPC   GL275398   4.449  15.442   5.844
 5973POPC   C1A75399   4.248  14.912   6.375
 5973POPC   D2A75400   4.431  14.940   6.797
 5973POPC   C3A75401   4.145  15.034   7.180
 5973POPC   C4A75402   4.147  15.392   7.489
 5973POPC   C1B75403   4.695  15.391   6.199
 5973POPC   C2B75404   4.649  15.440   6.616
 5973POPC   C3B75405   4.757  15.443   7.032
 5973POPC   C4B75406   4.649  15.475   7.477
 5974POPC   NC375407  43.905   2.336   5.544
 5974POPC   PO475408  44.206   1.776   5.364
 5974POPC   GL175409  44.051   1.789   5.796
 5974POPC   GL275410  43.920   2.083   5.970
 5974POPC   C1A75411  43.823   1.626   6.157
 5974POPC   D2A75412  43.939   1.906   6.478
 5974POPC   C3A75413  43.959   1.788   6.920
 5974POPC   C4A75414  43.623   1.864   7.225
 5974POPC   C1B75415  43.768   2.423   6.226
 5974POPC   C2B75416  43.863   2.448   6.633
 5974POPC   C3B75417  43.836   2.324   7.056
 5974POPC   C4B75418  43.615   2.350   7.432
 5975POPC   NC375419  22.035  12.956   5.344
 5975POPC   PO475420  22.561  12.485   5.390
 5975POPC   GL175421  22.366  12.790   5.748
 5975POPC   GL275422  21.970  12.795   5.828
 5975POPC   C1A75423  22.299  12.939   6.200
 5975POPC   D2A75424  22.380  13.172   6.583
 5975POPC   C3A75425  22.275  12.957   6.966
 5975POPC   C4A75426  22.130  13.265   7.262
 5975POPC   C1B75427  21.750  12.868   6.229
 5975POPC   C2B75428  21.879  13.048   6.617
 5975POPC   C3B75429  21.760  12.976   7.034
 5975POPC   C4B75430  21.897  12.648   7.262
 5976POPC   NC375431   7.360  41.240   5.473
 5976POPC   PO475432   7.099  41.906   5.523
 5976POPC   GL175433   7.269  41.597   5.831
 5976POPC   GL275434   7.116  41.277   5.928
 5976POPC   C1A75435   7.515  41.501   6.212
 5976POPC   D2A75436   7.313  41.591   6.621
 5976POPC   C3A75437   7.480  41.612   7.041
 5976POPC   C4A75438   7.404  41.933   7.395
 5976POPC   C1B75439   7.126  41.167   6.363
 5976POPC   C2B75440   7.200  41.125   6.811
 5976POPC   C3B75441   7.075  41.275   7.214
 5976POPC   C4B75442   7.007  41.241   7.686
 5977POPC   NC375443   9.005  25.629   5.334
 5977POPC   PO475444   8.762  26.189   5.203
 5977POPC   GL175445   8.949  26.146   5.651
 5977POPC   GL275446   8.961  25.799   5.800
 5977POPC   C1A75447   9.041  26.174   6.134
 5977POPC   D2A75448   8.852  26.121   6.557
 5977POPC   C3A75449   9.135  26.285   6.863
 5977POPC   C4A75450   9.261  26.376   7.274
 5977POPC   C1B75451   8.856  25.669   6.207
 5977POPC   C2B75452   8.824  25.571   6.619
 5977POPC   C3B75453   8.660  25.643   7.011
 5977POPC   C4B75454   8.820  25.990   7.217
 5978POPC   NC375455  43.863  35.326   5.068
 5978POPC   PO475456  43.911  35.247   5.708
 5978POPC   GL175457  43.961  35.258   6.084
 5978POPC   GL275458  44.297  35.404   6.038
 5978POPC   C1A75459  43.813  35.283   6.508
 5978POPC   D2A75460  44.003  35.137   6.877
 5978POPC   C3A75461  43.859  35.269   7.253
 5978POPC   C4A75462  43.585  35.201   7.608
 5978POPC   C1B75463  44.152  35.646   6.332
 5978POPC   C2B75464  44.169  35.618   6.756
 5978POPC   C3B75465  44.297  35.670   7.148
 5978POPC   C4B75466  43.993  35.703   7.490
 5979POPC   NC375467  44.972   2.647   5.389
 5979POPC   PO475468  44.272   2.563   5.357
 5979POPC   GL175469  44.538   2.711   5.672
 5979POPC   GL275470  44.459   3.010   5.876
 5979POPC   C1A75471  44.657   2.574   6.083
 5979POPC   D2A75472  44.641   2.521   6.529
 5979POPC   C3A75473  44.702   2.827   6.866
 5979POPC   C4A75474  44.633   2.612   7.238
 5979POPC   C1B75475  44.659   3.083   6.292
 5979POPC   C2B75476  44.856   3.287   6.670
 5979POPC   C3B75477  44.979   3.272   7.110
 5979POPC   C4B75478  44.965   3.009   7.446
 5980POPC   NC375479  18.565  16.358   5.223
 5980POPC   PO475480  17.993  16.684   5.365
 5980POPC   GL175481  17.978  16.696   5.847
 5980POPC   GL275482  18.158  16.450   6.008
 5980POPC   C1A75483  17.889  16.759   6.317
 5980POPC   D2A75484  18.121  16.564   6.625
 5980POPC   C3A75485  18.153  16.708   7.062
 5980POPC   C4A75486  18.488  16.520   7.276
 5980POPC   C1B75487  18.390  16.787   6.228
 5980POPC   C2B75488  18.600  16.828   6.594
 5980POPC   C3B75489  18.602  16.985   6.979
 5980POPC   C4B75490  18.756  16.930   7.357
 5981POPC   NC375491   3.551   4.771   5.464
 5981POPC   PO475492   3.284   5.316   5.462
 5981POPC   GL175493   3.613   5.220   5.736
 5981POPC   GL275494   3.731   5.531   5.713
 5981POPC   C1A75495   3.817   5.203   6.149
 5981POPC   D2A75496   3.538   5.139   6.504
 5981POPC   C3A75497   3.518   4.905   6.918
 5981POPC   C4A75498   3.240   4.671   7.224
 5981POPC   C1B75499   3.543   5.636   6.111
 5981POPC   C2B75500   3.597   5.665   6.551
 5981POPC   C3B75501   3.658   5.411   6.915
 5981POPC   C4B75502   3.704   5.193   7.306
 5982POPC   NC375503  31.435   6.375   5.517
 5982POPC   PO475504  31.729   7.031   5.597
 5982POPC   GL175505  31.447   6.761   5.837
 5982POPC   GL275506  31.066   6.837   5.788
 5982POPC   C1A75507  31.537   6.460   6.175
 5982POPC   D2A75508  31.508   6.638   6.573
 5982POPC   C3A75509  31.616   6.420   6.928
 5982POPC   C4A75510  31.702   6.470   7.316
 5982POPC   C1B75511  31.057   6.629   6.192
 5982POPC   C2B75512  30.940   6.394   6.521
 5982POPC   C3B75513  31.103   6.455   6.875
 5982POPC   C4B75514  31.164   6.417   7.275
 5983POPC   NC375515   0.409  38.916   5.433
 5983POPC   PO475516   0.638  39.570   5.459
 5983POPC   GL175517   0.433  39.402   5.849
 5983POPC   GL275518   0.436  39.021   5.925
 5983POPC   C1A75519   0.376  39.348   6.314
 5983POPC   D2A75520   0.467  38.990   6.609
 5983POPC   C3A75521   0.506  39.125   7.059
 5983POPC   C4A75522   0.605  39.570   7.144
 5983POPC   C1B75523   0.096  38.916   6.234
 5983POPC   C2B75524  44.872  38.783   6.626
 5983POPC   C3B75525  44.978  38.589   7.012
 5983POPC   C4B75526   0.208  38.707   7.379
 5984POPC   NC375527  38.391   0.096   5.497
 5984POPC   PO475528  38.044   0.622   5.243
 5984POPC   GL175529  38.264   0.538   5.735
 5984POPC   GL275530  38.216   0.230   5.957
 5984POPC   C1A75531  38.380   0.624   6.200
 5984POPC   D2A75532  38.227   0.720   6.608
 5984POPC   C3A75533  38.539   0.711   6.894
 5984POPC   C4A75534  38.611   0.538   7.285
 5984POPC   C1B75535  38.493   0.115   6.257
 5984POPC   C2B75536  38.490   0.259   6.624
 5984POPC   C3B75537  38.698   0.161   6.957
 5984POPC   C4B75538  38.496   0.043   7.313
 5985POPC   NC375539  28.330   2.422   5.593
 5985POPC   PO475540  28.416   3.129   5.503
 5985POPC   GL175541  28.418   2.885   5.885
 5985POPC   GL275542  28.570   2.571   6.017
 5985POPC   C1A75543  28.487   2.984   6.312
 5985POPC   D2A75544  28.347   2.822   6.683
 5985POPC   C3A75545  28.434   2.972   7.068
 5985POPC   C4A75546  28.351   3.189   7.432
 5985POPC   C1B75547  28.153   2.554   6.256
 5985POPC   C2B75548  27.996   2.462   6.689
 5985POPC   C3B75549  28.244   2.475   7.069
 5985POPC   C4B75550  28.695   2.545   7.142
 5986POPC   NC375551  10.999  11.547   5.438
 5986POPC   PO475552  11.505  11.003   5.193
 5986POPC   GL175553  11.302  11.173   5.663
 5986POPC   GL275554  11.364  11.496   5.790
 5986POPC   C1A75555  11.415  11.160   6.160
 5986POPC   D2A75556  11.252  10.902   6.526
 5986POPC   C3A75557  11.167  11.088   6.929
 5986POPC   C4A75558  11.413  11.010   7.305
 5986POPC   C1B75559  11.393  11.702   6.188
 5986POPC   C2B75560  11.416  11.489   6.588
 5986POPC   C3B75561  11.655  11.357   6.946
 5986POPC   C4B75562  11.557  11.599   7.305
 5987POPC   NC375563  32.996   6.446   5.139
 5987POPC   PO475564  32.632   6.915   5.511
 5987POPC   GL175565  32.682   6.783   5.935
 5987POPC   GL275566  32.784   6.446   5.794
 5987POPC   C1A75567  32.876   6.826   6.326
 5987POPC   D2A75568  33.264   6.723   6.552
 5987POPC   C3A75569  33.273   6.947   6.944
 5987POPC   C4A75570  33.482   6.841   7.310
 5987POPC   C1B75571  33.080   6.379   6.143
 5987POPC   C2B75572  32.939   6.327   6.558
 5987POPC   C3B75573  33.107   6.433   6.967
 5987POPC   C4B75574  32.930   6.297   7.369
 5988POPC   NC375575  19.764  44.272   5.383
 5988POPC   PO475576  19.525  44.893   5.488
 5988POPC   GL175577  19.724  44.600   5.778
 5988POPC   GL275578  19.504  44.288   5.799
 5988POPC   C1A75579  19.852  44.709   6.210
 5988POPC   D2A75580  19.797  44.894   6.593
 5988POPC   C3A75581  19.984  44.700   6.948
 5988POPC   C4A75582  20.057  44.463   7.302
 5988POPC   C1B75583  19.672  44.241   6.204
 5988POPC   C2B75584  19.689  44.383   6.654
 5988POPC   C3B75585  19.603  44.372   7.111
 5988POPC   C4B75586  19.582  44.362   7.595
 5989POPC   NC375587  13.056  16.011   5.296
 5989POPC   PO475588  13.684  15.832   5.469
 5989POPC   GL175589  13.459  15.911   5.850
 5989POPC   GL275590  13.471  16.283   5.903
 5989POPC   C1A75591  13.539  15.704   6.260
 5989POPC   D2A75592  13.879  15.590   6.588
 5989POPC   C3A75593  13.916  15.842   6.979
 5989POPC   C4A75594  13.550  15.926   7.232
 5989POPC   C1B75595  13.631  16.201   6.340
 5989POPC   C2B75596  13.489  15.951   6.704
 5989POPC   C3B75597  13.136  16.068   6.935
 5989POPC   C4B75598  13.178  16.263   7.296
 5990POPC   NC375599   7.063   7.699   5.376
 5990POPC   PO475600   7.650   7.411   5.219
 5990POPC   GL175601   7.591   7.549   5.707
 5990POPC   GL275602   7.237   7.537   5.826
 5990POPC   C1A75603   7.583   7.639   6.212
 5990POPC   D2A75604   7.851   7.692   6.655
 5990POPC   C3A75605   7.724   7.549   7.092
 5990POPC   C4A75606   7.604   7.137   7.274
 5990POPC   C1B75607   7.290   7.205   6.131
 5990POPC   C2B75608   7.126   7.128   6.569
 5990POPC   C3B75609   7.224   7.321   6.990
 5990POPC   C4B75610   7.204   7.592   7.360
 5991POPC   NC375611   9.354  33.971   5.470
 5991POPC   PO475612   8.780  33.564   5.437
 5991POPC   GL175613   8.952  33.833   5.781
 5991POPC   GL275614   8.986  34.186   5.741
 5991POPC   C1A75615   9.216  33.936   6.165
 5991POPC   D2A75616   9.356  33.915   6.618
 5991POPC   C3A75617   9.030  33.804   6.907
 5991POPC   C4A75618   8.875  33.823   7.341
 5991POPC   C1B75619   8.755  34.207   6.139
 5991POPC   C2B75620   8.733  34.022   6.555
 5991POPC   C3B75621   8.694  34.182   6.957
 5991POPC   C4B75622   8.555  34.297   7.336
 5992POPC   NC375623   8.067  44.842   5.130
 5992POPC   PO475624   7.930  44.290   5.439
 5992POPC   GL175625   8.064  44.518   5.790
 5992POPC   GL275626   8.339  44.726   5.634
 5992POPC   C1A75627   8.014  44.535   6.254
 5992POPC   D2A75628   8.232  44.479   6.664
 5992POPC   C3A75629   8.100  44.273   7.058
 5992POPC   C4A75630   8.117  44.315   7.547
 5992POPC   C1B75631   8.372  44.878   6.073
 5992POPC   C2B75632   8.325   0.020   6.503
 5992POPC   C3B75633   8.250   0.052   6.937
 5992POPC   C4B75634   8.223  44.734   7.235
 5993POPC   NC375635  19.981  30.661   5.559
 5993POPC   PO475636  19.635  31.127   5.474
 5993POPC   GL175637  19.534  30.785   5.819
 5993POPC   GL275638  19.317  30.958   6.040
 5993POPC   C1A75639  19.704  30.505   6.206
 5993POPC   D2A75640  20.074  30.380   6.486
 5993POPC   C3A75641  19.985  30.391   6.921
 5993POPC   C4A75642  19.615  30.593   7.049
 5993POPC   C1B75643  19.724  31.023   6.257
 5993POPC   C2B75644  19.863  30.832   6.644
 5993POPC   C3B75645  19.981  30.960   7.057
 5993POPC   C4B75646  19.739  30.921   7.392
 5994POPC   NC375647  18.942  37.824   5.552
 5994POPC   PO475648  19.289  37.299   5.509
 5994POPC   GL175649  19.249  37.542   5.838
 5994POPC   GL275650  19.587  37.454   5.933
 5994POPC   C1A75651  18.908  37.650   6.174
 5994POPC   D2A75652  18.777  37.903   6.520
 5994POPC   C3A75653  18.889  37.704   6.878
 5994POPC   C4A75654  18.939  37.719   7.314
 5994POPC   C1B75655  19.339  37.266   6.237
 5994POPC   C2B75656  19.057  37.296   6.522
 5994POPC   C3B75657  19.174  37.295   6.917
 5994POPC   C4B75658  19.334  37.270   7.293
 5995POPC   NC375659   8.415   2.374   5.355
 5995POPC   PO475660   8.082   1.785   5.528
 5995POPC   GL175661   8.138   2.125   5.826
 5995POPC   GL275662   7.813   2.145   5.897
 5995POPC   C1A75663   8.153   2.153   6.318
 5995POPC   D2A75664   8.300   1.872   6.633
 5995POPC   C3A75665   8.182   1.940   7.056
 5995POPC   C4A75666   8.504   1.991   7.314
 5995POPC   C1B75667   7.902   1.730   6.162
 5995POPC   C2B75668   7.867   1.613   6.607
 5995POPC   C3B75669   7.768   2.037   6.769
 5995POPC   C4B75670   7.765   2.325   7.147
 5996POPC   NC375671   8.296  26.232   5.217
 5996POPC   PO475672   7.867  25.702   5.373
 5996POPC   GL175673   8.149  25.825   5.699
 5996POPC   GL275674   8.504  25.862   5.549
 5996POPC   C1A75675   8.013  26.035   6.100
 5996POPC   D2A75676   8.066  26.340   6.438
 5996POPC   C3A75677   7.888  26.236   6.827
 5996POPC   C4A75678   8.089  26.344   7.210
 5996POPC   C1B75679   8.527  25.999   6.005
 5996POPC   C2B75680   8.406  25.902   6.445
 5996POPC   C3B75681   8.375  26.044   6.879
 5996POPC   C4B75682   8.281  25.865   7.293
 5997POPC   NC375683  27.177  12.207   5.385
 5997POPC   PO475684  27.863  12.396   5.307
 5997POPC   GL175685  27.671  12.089   5.640
 5997POPC   GL275686  27.396  12.228   5.830
 5997POPC   C1A75687  27.695  11.961   6.116
 5997POPC   D2A75688  27.885  12.039   6.535
 5997POPC   C3A75689  27.635  11.954   6.897
 5997POPC   C4A75690  27.551  11.972   7.292
 5997POPC   C1B75691  27.341  12.466   6.201
 5997POPC   C2B75692  27.430  12.322   6.614
 5997POPC   C3B75693  27.246  12.300   7.036
 5997POPC   C4B75694  27.310  12.358   7.509
 5998POPC   NC375695  22.505  30.602   5.372
 5998POPC   PO475696  21.875  30.416   5.497
 5998POPC   GL175697  22.145  30.628   5.793
 5998POPC   GL275698  22.341  30.956   5.732
 5998POPC   C1A75699  22.189  30.404   6.176
 5998POPC   D2A75700  22.279  30.538   6.590
 5998POPC   C3A75701  21.977  30.566   6.881
 5998POPC   C4A75702  22.114  30.643   7.303
 5998POPC   C1B75703  22.326  31.130   6.165
 5998POPC   C2B75704  22.208  31.075   6.569
 5998POPC   C3B75705  22.211  31.022   6.981
 5998POPC   C4B75706  22.418  31.074   7.379
 5999POPC   NC375707  27.250  41.855   5.551
 5999POPC   PO475708  27.602  42.465   5.409
 5999POPC   GL175709  27.681  42.454   5.842
 5999POPC   GL275710  27.642  42.107   5.878
 5999POPC   C1A75711  27.612  42.447   6.287
 5999POPC   D2A75712  27.460  42.268   6.641
 5999POPC   C3A75713  27.642  42.305   7.029
 5999POPC   C4A75714  27.516  42.621   7.291
 5999POPC   C1B75715  27.261  42.089   6.158
 5999POPC   C2B75716  27.132  41.898   6.529
 5999POPC   C3B75717  27.303  41.875   6.917
 5999POPC   C4B75718  27.214  42.128   7.257
 6000POPC   NC375719  16.054  43.531   5.620
 6000POPC   PO475720  15.491  43.908   5.447
 6000POPC   GL175721  15.758  43.953   5.822
 6000POPC   GL275722  16.072  43.809   6.049
 6000POPC   C1A75723  15.616  43.867   6.224
 6000POPC   D2A75724  15.858  44.028   6.530
 6000POPC   C3A75725  15.851  43.830   6.883
 6000POPC   C4A75726  15.926  43.896   7.257
 6000POPC   C1B75727  16.351  44.036   6.348
 6000POPC   C2B75728  16.317  44.088   6.797
 6000POPC   C3B75729  16.239  44.307   7.164
 6000POPC   C4B75730  16.160  44.208   7.610
 6001POPC   NC375731  12.258  43.613   5.465
 6001POPC   PO475732  11.940  44.221   5.566
 6001POPC   GL175733  11.859  43.989   5.900
 6001POPC   GL275734  11.954  43.606   5.887
 6001POPC   C1A75735  11.860  44.134   6.280
 6001POPC   D2A75736  12.065  44.105   6.658
 6001POPC   C3A75737  11.865  44.045   7.036
 6001POPC   C4A75738  12.146  44.082   7.331
 6001POPC   C1B75739  12.177  43.723   6.271
 6001POPC   C2B75740  12.433  43.741   6.640
 6001POPC   C3B75741  12.270  43.694   7.034
 6001POPC   C4B75742  11.973  43.597   7.359
 6002POPC   NC375743  34.651  12.509   5.517
 6002POPC   PO475744  34.177  12.852   5.180
 6002POPC   GL175745  34.541  13.129   5.528
 6002POPC   GL275746  34.829  13.039   5.678
 6002POPC   C1A75747  34.530  13.160   6.061
 6002POPC   D2A75748  34.321  12.876   6.366
 6002POPC   C3A75749  34.381  12.816   6.824
 6002POPC   C4A75750  34.426  12.916   7.273
 6002POPC   C1B75751  34.895  12.809   6.062
 6002POPC   C2B75752  34.834  12.957   6.470
 6002POPC   C3B75753  34.849  13.054   6.882
 6002POPC   C4B75754  34.919  12.843   7.240
 6003POPC   NC375755  19.660  12.939   4.980
 6003POPC   PO475756  20.197  12.826   5.416
 6003POPC   GL175757  19.970  12.778   5.808
 6003POPC   GL275758  19.814  12.455   5.780
 6003POPC   C1A75759  20.020  12.968   6.234
 6003POPC   D2A75760  19.756  13.026   6.607
 6003POPC   C3A75761  19.909  13.006   7.015
 6003POPC   C4A75762  19.819  12.638   7.215
 6003POPC   C1B75763  19.665  12.604   6.203
 6003POPC   C2B75764  19.348  12.752   6.521
 6003POPC   C3B75765  19.411  12.841   6.968
 6003POPC   C4B75766  19.367  12.771   7.423
 6004POPC   NC375767  20.714  33.731   5.452
 6004POPC   PO475768  20.518  34.232   5.722
 6004POPC   GL175769  20.373  33.957   6.001
 6004POPC   GL275770  20.568  33.683   5.952
 6004POPC   C1A75771  20.534  33.921   6.398
 6004POPC   D2A75772  20.781  34.166   6.649
 6004POPC   C3A75773  20.748  33.903   6.983
 6004POPC   C4A75774  20.635  34.112   7.299
 6004POPC   C1B75775  20.784  33.470   6.280
 6004POPC   C2B75776  20.683  33.483   6.682
 6004POPC   C3B75777  20.601  33.407   7.089
 6004POPC   C4B75778  20.828  33.485   7.464
 6005POPC   NC375779  39.356   3.832   5.150
 6005POPC   PO475780  38.833   3.630   5.610
 6005POPC   GL175781  39.114   3.374   5.876
 6005POPC   GL275782  38.873   3.255   6.037
 6005POPC   C1A75783  39.371   3.239   6.212
 6005POPC   D2A75784  39.272   3.392   6.599
 6005POPC   C3A75785  39.420   3.298   7.008
 6005POPC   C4A75786  39.081   3.110   7.226
 6005POPC   C1B75787  38.943   3.677   6.253
 6005POPC   C2B75788  39.098   3.877   6.600
 6005POPC   C3B75789  39.093   3.710   6.984
 6005POPC   C4B75790  39.091   4.001   7.259
 6006POPC   NC375791  17.565  29.701   5.439
 6006POPC   PO475792  17.110  30.215   5.536
 6006POPC   GL175793  17.301  30.035   5.859
 6006POPC   GL275794  17.623  30.133   5.805
 6006POPC   C1A75795  17.408  29.816   6.231
 6006POPC   D2A75796  17.703  29.755   6.551
 6006POPC   C3A75797  17.563  29.813   6.936
 6006POPC   C4A75798  17.202  29.762   7.184
 6006POPC   C1B75799  17.713  30.264   6.216
 6006POPC   C2B75800  17.576  30.272   6.642
 6006POPC   C3B75801  17.447  30.299   7.072
 6006POPC   C4B75802  17.814  30.351   7.323
 6007POPC   NC375803  10.767  23.653   5.530
 6007POPC   PO475804  10.189  23.302   5.605
 6007POPC   GL175805  10.422  23.535   5.913
 6007POPC   GL275806  10.302  23.867   5.871
 6007POPC   C1A75807  10.302  23.543   6.342
 6007POPC   D2A75808  10.180  23.367   6.726
 6007POPC   C3A75809  10.435  23.516   7.054
 6007POPC   C4A75810  10.397  23.334   7.439
 6007POPC   C1B75811  10.317  24.044   6.306
 6007POPC   C2B75812  10.456  23.904   6.704
 6007POPC   C3B75813  10.686  23.963   7.053
 6007POPC   C4B75814  10.962  23.718   7.254
 6008POPC   NC375815  21.687  26.062   5.246
 6008POPC   PO475816  22.268  25.796   5.558
 6008POPC   GL175817  22.157  26.027   6.000
 6008POPC   GL275818  21.923  26.308   5.954
 6008POPC   C1A75819  21.956  25.914   6.413
 6008POPC   D2A75820  22.173  26.050   6.808
 6008POPC   C3A75821  22.080  25.843   7.210
 6008POPC   C4A75822  22.185  25.836   7.633
 6008POPC   C1B75823  22.040  26.414   6.394
 6008POPC   C2B75824  21.957  26.594   6.791
 6008POPC   C3B75825  21.952  26.343   7.165
 6008POPC   C4B75826  21.962  26.303   7.597
 6009POPC   NC375827  30.912  34.727   5.335
 6009POPC   PO475828  30.281  34.505   5.146
 6009POPC   GL175829  30.418  34.591   5.646
 6009POPC   GL275830  30.795  34.605   5.799
 6009POPC   C1A75831  30.442  34.450   6.111
 6009POPC   D2A75832  30.715  34.410   6.477
 6009POPC   C3A75833  30.610  34.690   6.791
 6009POPC   C4A75834  30.351  34.769   7.130
 6009POPC   C1B75835  31.047  34.381   6.093
 6009POPC   C2B75836  31.227  34.372   6.505
 6009POPC   C3B75837  31.018  34.380   6.937
 6009POPC   C4B75838  30.858  34.708   7.236
 6010POPC   NC375839  30.182  44.301   5.552
 6010POPC   PO475840  29.802  44.867   5.391
 6010POPC   GL175841  29.853  44.678   5.769
 6010POPC   GL275842  30.208  44.761   5.795
 6010POPC   C1A75843  29.697  44.719   6.206
 6010POPC   D2A75844  29.771  44.542   6.622
 6010POPC   C3A75845  29.738  44.720   7.033
 6010POPC   C4A75846  29.660  44.344   7.210
 6010POPC   C1B75847  30.422  44.554   6.146
 6010POPC   C2B75848  30.305  44.630   6.563
 6010POPC   C3B75849  30.197  44.481   6.941
 6010POPC   C4B75850  30.258  44.646   7.346
 6011POPC   NC375851  41.361   2.218   5.492
 6011POPC   PO475852  41.558   1.596   5.470
 6011POPC   GL175853  41.598   1.900   5.813
 6011POPC   GL275854  41.254   1.985   5.923
 6011POPC   C1A75855  41.826   2.016   6.188
 6011POPC   D2A75856  41.751   2.098   6.621
 6011POPC   C3A75857  42.010   2.147   6.950
 6011POPC   C4A75858  41.923   1.947   7.342
 6011POPC   C1B75859  41.332   1.854   6.336
 6011POPC   C2B75860  41.262   2.080   6.723
 6011POPC   C3B75861  41.300   2.090   7.194
 6011POPC   C4B75862  41.065   2.150   7.621
 6012POPC   NC375863  15.457  18.898   5.460
 6012POPC   PO475864  14.761  18.957   5.380
 6012POPC   GL175865  14.799  19.207   5.782
 6012POPC   GL275866  15.165  19.138   5.842
 6012POPC   C1A75867  14.831  19.203   6.223
 6012POPC   D2A75868  15.003  19.026   6.567
 6012POPC   C3A75869  14.938  19.268   6.873
 6012POPC   C4A75870  14.942  19.163   7.254
 6012POPC   C1B75871  15.374  19.130   6.256
 6012POPC   C2B75872  15.409  19.317   6.639
 6012POPC   C3B75873  15.424  19.213   7.048
 6012POPC   C4B75874  15.628  19.124   7.382
 6013POPC   NC375875  18.512  44.118   5.665
 6013POPC   PO475876  17.921  43.806   5.545
 6013POPC   GL175877  18.163  43.847   5.932
 6013POPC   GL275878  18.495  43.691   5.922
 6013POPC   C1A75879  18.155  43.757   6.370
 6013POPC   D2A75880  17.897  43.714   6.724
 6013POPC   C3A75881  18.054  43.916   7.111
 6013POPC   C4A75882  18.184  43.925   7.550
 6013POPC   C1B75883  18.668  43.761   6.308
 6013POPC   C2B75884  18.546  43.874   6.730
 6013POPC   C3B75885  18.699  44.027   7.115
 6013POPC   C4B75886  18.713  43.937   7.567
 6014POPC   NC375887  12.022  10.933   5.112
 6014POPC   PO475888  11.837  11.331   5.618
 6014POPC   GL175889  11.840  11.519   5.993
 6014POPC   GL275890  12.088  11.747   5.873
 6014POPC   C1A75891  11.929  11.429   6.429
 6014POPC   D2A75892  12.313  11.313   6.669
 6014POPC   C3A75893  12.174  11.132   7.047
 6014POPC   C4A75894  11.885  11.217   7.402
 6014POPC   C1B75895  12.343  11.672   6.226
 6014POPC   C2B75896  12.354  11.835   6.620
 6014POPC   C3B75897  12.489  11.693   6.983
 6014POPC   C4B75898  12.228  11.573   7.313
 6015POPC   NC375899  32.404   6.130   5.498
 6015POPC   PO475900  32.206   5.469   5.293
 6015POPC   GL175901  32.237   5.717   5.741
 6015POPC   GL275902  31.940   5.930   5.820
 6015POPC   C1A75903  32.248   5.882   6.211
 6015POPC   D2A75904  32.354   6.108   6.581
 6015POPC   C3A75905  32.372   5.835   6.921
 6015POPC   C4A75906  32.482   6.076   7.257
 6015POPC   C1B75907  31.745   5.964   6.256
 6015POPC   C2B75908  31.862   5.993   6.712
 6015POPC   C3B75909  31.988   6.106   7.118
 6015POPC   C4B75910  32.054   6.098   7.581
 6016POPC   NC375911  13.793  38.871   5.450
 6016POPC   PO475912  13.801  38.205   5.585
 6016POPC   GL175913  13.687  38.553   5.865
 6016POPC   GL275914  13.890  38.847   5.947
 6016POPC   C1A75915  13.438  38.467   6.228
 6016POPC   D2A75916  13.222  38.685   6.562
 6016POPC   C3A75917  13.260  38.507   6.983
 6016POPC   C4A75918  13.071  38.668   7.349
 6016POPC   C1B75919  13.812  38.788   6.388
 6016POPC   C2B75920  13.697  38.486   6.688
 6016POPC   C3B75921  13.762  38.452   7.116
 6016POPC   C4B75922  13.626  38.332   7.491
 6017POPC   NC375923  37.843  23.594   5.437
 6017POPC   PO475924  37.296  23.930   5.246
 6017POPC   GL175925  37.438  23.913   5.724
 6017POPC   GL275926  37.517  23.570   5.860
 6017POPC   C1A75927  37.448  23.938   6.219
 6017POPC   D2A75928  37.770  24.017   6.532
 6017POPC   C3A75929  37.591  24.037   6.939
 6017POPC   C4A75930  37.680  23.972   7.390
 6017POPC   C1B75931  37.750  23.532   6.270
 6017POPC   C2B75932  37.620  23.551   6.709
 6017POPC   C3B75933  37.819  23.577   7.111
 6017POPC   C4B75934  37.839  23.293   7.487
 6018POPC   NC375935  21.161  23.842   5.366
 6018POPC   PO475936  21.487  23.335   5.415
 6018POPC   GL175937  21.230  23.550   5.775
 6018POPC   GL275938  21.319  23.951   5.827
 6018POPC   C1A75939  21.284  23.619   6.223
 6018POPC   D2A75940  21.520  23.559   6.617
 6018POPC   C3A75941  21.261  23.419   6.983
 6018POPC   C4A75942  21.089  23.661   7.325
 6018POPC   C1B75943  21.523  24.090   6.212
 6018POPC   C2B75944  21.338  24.073   6.612
 6018POPC   C3B75945  21.430  23.902   7.014
 6018POPC   C4B75946  21.558  23.967   7.435
 6019POPC   NC375947   4.825  30.420   5.408
 6019POPC   PO475948   4.929  31.039   5.400
 6019POPC   GL175949   4.934  30.779   5.807
 6019POPC   GL275950   4.713  30.459   5.887
 6019POPC   C1A75951   5.174  30.678   6.201
 6019POPC   D2A75952   5.350  30.421   6.534
 6019POPC   C3A75953   5.213  30.542   6.930
 6019POPC   C4A75954   5.043  30.657   7.349
 6019POPC   C1B75955   4.657  30.687   6.235
 6019POPC   C2B75956   4.797  30.724   6.659
 6019POPC   C3B75957   4.612  30.681   7.053
 6019POPC   C4B75958   4.547  30.502   7.466
 6020POPC   NC375959   5.965  37.809   5.171
 6020POPC   PO475960   6.254  37.446   5.594
 6020POPC   GL175961   6.010  37.632   5.857
 6020POPC   GL275962   6.048  37.935   5.690
 6020POPC   C1A75963   5.771  37.588   6.239
 6020POPC   D2A75964   5.880  37.644   6.652
 6020POPC   C3A75965   5.713  37.461   7.007
 6020POPC   C4A75966   5.742  37.272   7.429
 6020POPC   C1B75967   5.903  38.078   6.110
 6020POPC   C2B75968   5.749  38.138   6.532
 6020POPC   C3B75969   5.927  38.068   6.947
 6020POPC   C4B75970   5.957  37.804   7.307
 6021POPC   NC375971  25.853   0.841   5.588
 6021POPC   PO475972  26.001   0.351   5.174
 6021POPC   GL175973  26.149   0.341   5.631
 6021POPC   GL275974  26.268   0.636   5.789
 6021POPC   C1A75975  26.170   0.257   6.110
 6021POPC   D2A75976  25.954   0.320   6.532
 6021POPC   C3A75977  26.152   0.334   6.923
 6021POPC   C4A75978  25.916   0.170   7.240
 6021POPC   C1B75979  25.955   0.710   6.187
 6021POPC   C2B75980  25.674   0.759   6.523
 6021POPC   C3B75981  25.653   0.601   6.933
 6021POPC   C4B75982  25.929   0.676   7.259
 6022POPC   NC375983   4.698  31.435   5.400
 6022POPC   PO475984   4.058  31.521   5.302
 6022POPC   GL175985   4.166  31.509   5.775
 6022POPC   GL275986   4.514  31.625   5.824
 6022POPC   C1A75987   4.104  31.369   6.235
 6022POPC   D2A75988   4.282  31.547   6.644
 6022POPC   C3A75989   4.092  31.354   7.009
 6022POPC   C4A75990   4.049  31.445   7.446
 6022POPC   C1B75991   4.598  31.555   6.223
 6022POPC   C2B75992   4.819  31.517   6.584
 6022POPC   C3B75993   4.704  31.719   6.955
 6022POPC   C4B75994   4.487  31.576   7.253
 6023POPC   NC375995  21.814  27.687   5.067
 6023POPC   PO475996  21.338  27.398   5.436
 6023POPC   GL175997  21.217  27.410   5.842
 6023POPC   GL275998  21.232  27.741   5.862
 6023POPC   C1A75999  21.059  27.347   6.256
 6023POPC   D2A76000  21.250  27.215   6.623
 6023POPC   C3A76001  21.459  27.486   6.915
 6023POPC   C4A76002  21.300  27.426   7.346
 6023POPC   C1B76003  21.448  27.685   6.243
 6023POPC   C2B76004  21.767  27.667   6.527
 6023POPC   C3B76005  21.776  27.883   6.908
 6023POPC   C4B76006  21.676  27.783   7.309
 6024POPC   NC376007  35.472  19.750   5.261
 6024POPC   PO476008  35.076  20.165   5.615
 6024POPC   GL176009  35.409  19.896   5.792
 6024POPC   GL276010  35.184  19.663   5.947
 6024POPC   C1A76011  35.563  19.808   6.240
 6024POPC   D2A76012  35.254  19.603   6.540
 6024POPC   C3A76013  35.364  19.694   6.984
 6024POPC   C4A76014  35.835  19.636   7.080
 6024POPC   C1B76015  34.994  19.958   6.237
 6024POPC   C2B76016  34.866  19.908   6.658
 6024POPC   C3B76017  34.987  20.089   7.026
 6024POPC   C4B76018  35.091  19.988   7.444
 6025POPC   NC376019   8.812  15.419   5.575
 6025POPC   PO476020   9.110  16.120   5.459
 6025POPC   GL176021   9.058  16.188   5.846
 6025POPC   GL276022   9.000  15.832   5.908
 6025POPC   C1A76023   8.881  16.216   6.232
 6025POPC   D2A76024   9.033  16.065   6.632
 6025POPC   C3A76025   8.799  15.921   6.995
 6025POPC   C4A76026   8.807  15.852   7.445
 6025POPC   C1B76027   8.858  15.689   6.312
 6025POPC   C2B76028   8.946  15.493   6.700
 6025POPC   C3B76029   8.960  15.445   7.154
 6025POPC   C4B76030   9.087  15.385   7.590
 6026POPC   NC376031   2.388   0.547   5.486
 6026POPC   PO476032   1.824   0.255   5.160
 6026POPC   GL176033   1.992   0.265   5.632
 6026POPC   GL276034   1.922   0.584   5.751
 6026POPC   C1A76035   2.060   0.212   6.111
 6026POPC   D2A76036   2.183   0.431   6.517
 6026POPC   C3A76037   2.134   0.301   6.949
 6026POPC   C4A76038   2.318   0.473   7.355
 6026POPC   C1B76039   1.620   0.504   6.063
 6026POPC   C2B76040   1.657   0.505   6.491
 6026POPC   C3B76041   1.621   0.613   6.915
 6026POPC   C4B76042   1.819   0.523   7.304
 6027POPC   NC376043  33.723  22.640   5.416
 6027POPC   PO476044  34.169  23.128   5.536
 6027POPC   GL176045  33.895  22.898   5.820
 6027POPC   GL276046  33.581  23.123   5.798
 6027POPC   C1A76047  33.642  22.796   6.207
 6027POPC   D2A76048  33.604  22.576   6.598
 6027POPC   C3A76049  33.784  22.797   6.950
 6027POPC   C4A76050  33.563  23.155   7.098
 6027POPC   C1B76051  33.863  23.264   6.159
 6027POPC   C2B76052  33.751  23.213   6.602
 6027POPC   C3B76053  34.042  23.250   6.929
 6027POPC   C4B76054  33.999  23.231   7.343
 6028POPC   NC376055  44.287  16.984   5.427
 6028POPC   PO476056  44.975  16.755   5.362
 6028POPC   GL176057  44.729  16.845   5.746
 6028POPC   GL276058  44.408  16.642   5.788
 6028POPC   C1A76059  44.762  16.823   6.208
 6028POPC   D2A76060  44.784  16.640   6.602
 6028POPC   C3A76061  44.793  16.871   6.939
 6028POPC   C4A76062  44.804  16.721   7.306
 6028POPC   C1B76063  44.298  16.970   6.088
 6028POPC   C2B76064  44.324  16.861   6.522
 6028POPC   C3B76065  44.272  16.926   6.940
 6028POPC   C4B76066  44.300  16.727   7.308
 6029POPC   NC376067  26.930  43.556   5.462
 6029POPC   PO476068  26.644  42.900   5.461
 6029POPC   GL176069  26.925  43.021   5.805
 6029POPC   GL276070  26.660  43.219   5.932
 6029POPC   C1A76071  27.023  43.119   6.277
 6029POPC   D2A76072  26.738  43.269   6.641
 6029POPC   C3A76073  26.842  43.121   7.072
 6029POPC   C4A76074  27.164  43.202   7.423
 6029POPC   C1B76075  26.653  42.786   6.171
 6029POPC   C2B76076  26.674  42.778   6.615
 6029POPC   C3B76077  26.389  42.954   6.918
 6029POPC   C4B76078  26.469  42.775   7.312
 6030POPC   NC376079   6.088  26.621   5.469
 6030POPC   PO476080   5.772  27.242   5.528
 6030POPC   GL176081   5.771  26.862   5.797
 6030POPC   GL276082   6.078  26.876   5.920
 6030POPC   C1A76083   5.739  26.616   6.200
 6030POPC   D2A76084   6.032  26.752   6.562
 6030POPC   C3A76085   5.956  26.565   6.971
 6030POPC   C4A76086   5.564  26.640   7.148
 6030POPC   C1B76087   5.832  27.120   6.235
 6030POPC   C2B76088   6.088  27.293   6.518
 6030POPC   C3B76089   6.003  27.270   6.935
 6030POPC   C4B76090   5.900  27.045   7.292
 6031POPC   NC376091   8.982  24.896   5.400
 6031POPC   PO476092   9.396  25.412   5.408
 6031POPC   GL176093   9.238  25.365   5.819
 6031POPC   GL276094   8.979  25.218   5.814
 6031POPC   C1A76095   9.172  25.280   6.291
 6031POPC   D2A76096   9.245  25.322   6.713
 6031POPC   C3A76097   8.955  25.238   7.047
 6031POPC   C4A76098   8.859  25.463   7.467
 6031POPC   C1B76099   8.881  24.903   6.125
 6031POPC   C2B76100   8.833  25.002   6.572
 6031POPC   C3B76101   8.544  24.935   6.913
 6031POPC   C4B76102   8.601  25.006   7.345
 6032POPC   NC376103   2.264   6.156   5.496
 6032POPC   PO476104   2.403   6.782   5.597
 6032POPC   GL176105   2.124   6.837   5.893
 6032POPC   GL276106   1.992   6.485   5.851
 6032POPC   C1A76107   1.933   6.764   6.296
 6032POPC   D2A76108   1.812   6.532   6.621
 6032POPC   C3A76109   1.942   6.679   6.969
 6032POPC   C4A76110   1.733   6.786   7.348
 6032POPC   C1B76111   2.282   6.386   6.196
 6032POPC   C2B76112   2.312   6.481   6.632
 6032POPC   C3B76113   2.365   6.378   7.061
 6032POPC   C4B76114   2.208   6.632   7.391
 6033POPC   NC376115  15.244  33.953   5.394
 6033POPC   PO476116  14.802  33.522   5.420
 6033POPC   GL176117  15.015  33.570   5.803
 6033POPC   GL276118  15.229  33.848   5.880
 6033POPC   C1A76119  14.801  33.516   6.201
 6033POPC   D2A76120  14.585  33.505   6.627
 6033POPC   C3A76121  14.797  33.803   6.893
 6033POPC   C4A76122  15.189  33.792   7.139
 6033POPC   C1B76123  15.377  33.561   6.201
 6033POPC   C2B76124  15.331  33.709   6.638
 6033POPC   C3B76125  15.624  33.950   6.920
 6033POPC   C4B76126  15.675  33.731   7.304
 6034POPC   NC376127   2.095  32.174   5.563
 6034POPC   PO476128   1.639  31.997   5.201
 6034POPC   GL176129   1.551  32.273   5.722
 6034POPC   GL276130   1.862  32.427   5.923
 6034POPC   C1A76131   1.614  32.165   6.233
 6034POPC   D2A76132   1.886  32.403   6.524
 6034POPC   C3A76133   1.827  32.243   6.923
 6034POPC   C4A76134   1.932  32.365   7.305
 6034POPC   C1B76135   2.178  32.148   6.224
 6034POPC   C2B76136   2.325  32.159   6.719
 6034POPC   C3B76137   2.384  32.133   7.211
 6034POPC   C4B76138   2.285  31.849   7.588
 6035POPC   NC376139  43.744  42.123   5.320
 6035POPC   PO476140  44.319  42.377   5.354
 6035POPC   GL176141  44.133  42.280   5.778
 6035POPC   GL276142  43.781  42.334   5.793
 6035POPC   C1A76143  44.010  42.400   6.244
 6035POPC   D2A76144  44.117  42.603   6.644
 6035POPC   C3A76145  44.040  42.392   7.054
 6035POPC   C4A76146  43.999  42.196   7.501
 6035POPC   C1B76147  43.535  42.546   6.111
 6035POPC   C2B76148  43.599  42.639   6.531
 6035POPC   C3B76149  43.629  42.740   6.963
 6035POPC   C4B76150  43.766  42.654   7.380
 6036POPC   NC376151  19.111  40.430   5.499
 6036POPC   PO476152  19.298  39.809   5.250
 6036POPC   GL176153  19.246  39.899   5.701
 6036POPC   GL276154  18.925  40.013   5.826
 6036POPC   C1A76155  19.396  40.055   6.098
 6036POPC   D2A76156  19.225  40.140   6.509
 6036POPC   C3A76157  18.997  39.851   6.768
 6036POPC   C4A76158  19.169  39.925   7.165
 6036POPC   C1B76159  18.782  40.057   6.272
 6036POPC   C2B76160  18.623  40.220   6.665
 6036POPC   C3B76161  18.791  40.320   7.048
 6036POPC   C4B76162  18.924  40.271   7.471
 6037POPC   NC376163  17.659  25.466   5.436
 6037POPC   PO476164  17.386  24.974   5.741
 6037POPC   GL176165  17.740  25.184   5.925
 6037POPC   GL276166  17.685  25.538   5.926
 6037POPC   C1A76167  17.708  25.304   6.366
 6037POPC   D2A76168  17.331  25.319   6.565
 6037POPC   C3A76169  17.336  24.979   6.810
 6037POPC   C4A76170  17.429  25.075   7.202
 6037POPC   C1B76171  17.402  25.739   6.250
 6037POPC   C2B76172  17.282  25.805   6.707
 6037POPC   C3B76173  17.385  25.588   7.071
 6037POPC   C4B76174  17.160  25.461   7.427
 6038POPC   NC376175  38.322  33.997   5.515
 6038POPC   PO476176  38.869  33.658   5.487
 6038POPC   GL176177  38.594  33.442   5.812
 6038POPC   GL276178  38.249  33.515   5.738
 6038POPC   C1A76179  38.610  33.522   6.247
 6038POPC   D2A76180  38.670  33.754   6.595
 6038POPC   C3A76181  38.716  33.574   6.976
 6038POPC   C4A76182  38.582  33.919   7.178
 6038POPC   C1B76183  38.160  33.722   6.139
 6038POPC   C2B76184  38.198  33.584   6.586
 6038POPC   C3B76185  38.182  33.610   7.039
 6038POPC   C4B76186  38.175  33.509   7.500
 6039POPC   NC376187  21.858  19.020   5.426
 6039POPC   PO476188  21.261  18.772   5.655
 6039POPC   GL176189  21.393  18.990   5.998
 6039POPC   GL276190  21.643  19.173   5.869
 6039POPC   C1A76191  21.346  19.145   6.409
 6039POPC   D2A76192  21.077  19.409   6.680
 6039POPC   C3A76193  21.015  19.142   7.044
 6039POPC   C4A76194  21.185  18.726   7.196
 6039POPC   C1B76195  21.804  19.336   6.248
 6039POPC   C2B76196  21.827  19.117   6.641
 6039POPC   C3B76197  21.507  19.221   6.907
 6039POPC   C4B76198  21.374  19.460   7.256
 6040POPC   NC376199  23.592  41.747   5.420
 6040POPC   PO476200  23.881  41.104   5.439
 6040POPC   GL176201  23.780  41.427   5.769
 6040POPC   GL276202  24.021  41.729   5.721
 6040POPC   C1A76203  23.493  41.640   6.111
 6040POPC   D2A76204  23.640  41.733   6.544
 6040POPC   C3A76205  23.469  41.623   6.957
 6040POPC   C4A76206  23.437  41.734   7.359
 6040POPC   C1B76207  24.004  41.672   6.171
 6040POPC   C2B76208  24.078  41.437   6.540
 6040POPC   C3B76209  24.032  41.636   6.938
 6040POPC   C4B76210  23.930  41.637   7.381
 6041POPC   NC376211  17.016  13.114   5.481
 6041POPC   PO476212  16.795  13.761   5.553
 6041POPC   GL176213  16.753  13.435   5.832
 6041POPC   GL276214  16.858  13.697   6.060
 6041POPC   C1A76215  16.839  13.238   6.249
 6041POPC   D2A76216  16.783  13.511   6.621
 6041POPC   C3A76217  16.811  13.301   7.026
 6041POPC   C4A76218  16.813  13.392   7.467
 6041POPC   C1B76219  16.501  13.876   6.226
 6041POPC   C2B76220  16.623  14.029   6.622
 6041POPC   C3B76221  16.652  13.860   7.040
 6041POPC   C4B76222  16.599  14.153   7.345
 6042POPC   NC376223  40.891  15.917   5.323
 6042POPC   PO476224  40.290  15.542   5.291
 6042POPC   GL176225  40.525  15.758   5.671
 6042POPC   GL276226  40.691  16.101   5.774
 6042POPC   C1A76227  40.718  15.711   6.082
 6042POPC   D2A76228  40.705  15.589   6.518
 6042POPC   C3A76229  40.795  15.875   6.851
 6042POPC   C4A76230  41.019  15.855   7.232
 6042POPC   C1B76231  40.946  16.177   6.179
 6042POPC   C2B76232  40.905  16.369   6.588
 6042POPC   C3B76233  41.000  16.360   7.019
 6042POPC   C4B76234  40.802  16.354   7.410
 6043POPC   NC376235   0.740  17.280   5.197
 6043POPC   PO476236   0.692  16.728   5.694
 6043POPC   GL176237   0.554  16.904   6.077
 6043POPC   GL276238   0.252  16.718   6.134
 6043POPC   C1A76239   0.589  16.745   6.513
 6043POPC   D2A76240   0.268  16.594   6.805
 6043POPC   C3A76241   0.295  16.747   7.200
 6043POPC   C4A76242   0.487  17.112   7.376
 6043POPC   C1B76243   0.125  16.348   6.363
 6043POPC   C2B76244   0.079  16.127   6.767
 6043POPC   C3B76245   0.040  16.268   7.190
 6043POPC   C4B76246   0.039  16.362   7.627
 6044POPC   NC376247  28.041  43.727   5.119
 6044POPC   PO476248  28.430  44.087   5.552
 6044POPC   GL176249  28.415  43.964   5.945
 6044POPC   GL276250  28.055  44.022   5.957
 6044POPC   C1A76251  28.586  43.860   6.350
 6044POPC   D2A76252  28.651  43.772   6.771
 6044POPC   C3A76253  28.329  43.874   7.061
 6044POPC   C4A76254  28.122  44.197   7.276
 6044POPC   C1B76255  28.132  43.627   6.206
 6044POPC   C2B76256  28.238  43.474   6.595
 6044POPC   C3B76257  28.024  43.477   6.966
 6044POPC   C4B76258  28.153  43.464   7.368
 6045POPC   NC376259  39.595   8.969   5.342
 6045POPC   PO476260  40.209   8.687   5.379
 6045POPC   GL176261  39.900   8.754   5.698
 6045POPC   GL276262  39.940   9.088   5.744
 6045POPC   C1A76263  40.002   8.753   6.144
 6045POPC   D2A76264  40.186   8.789   6.554
 6045POPC   C3A76265  39.939   8.955   6.875
 6045POPC   C4A76266  39.779   8.736   7.235
 6045POPC   C1B76267  39.995   9.254   6.188
 6045POPC   C2B76268  40.240   9.314   6.553
 6045POPC   C3B76269  40.165   9.443   6.998
 6045POPC   C4B76270  39.866   9.263   7.289
 6046POPC   NC376271  25.676  38.833   5.432
 6046POPC   PO476272  26.196  38.319   5.437
 6046POPC   GL176273  26.044  38.574   5.775
 6046POPC   GL276274  25.717  38.502   5.809
 6046POPC   C1A76275  26.243  38.617   6.197
 6046POPC   D2A76276  26.154  38.339   6.559
 6046POPC   C3A76277  26.321  38.522   6.922
 6046POPC   C4A76278  26.184  38.477   7.318
 6046POPC   C1B76279  25.755  38.666   6.226
 6046POPC   C2B76280  25.953  38.819   6.603
 6046POPC   C3B76281  25.846  38.743   7.028
 6046POPC   C4B76282  25.702  38.770   7.459
 6047POPC   NC376283   7.107  32.058   5.294
 6047POPC   PO476284   7.296  32.601   5.470
 6047POPC   GL176285   7.356  32.359   5.851
 6047POPC   GL276286   7.185  32.030   5.799
 6047POPC   C1A76287   7.302  32.285   6.317
 6047POPC   D2A76288   7.463  32.008   6.659
 6047POPC   C3A76289   7.494  32.169   7.087
 6047POPC   C4A76290   7.860  32.232   7.375
 6047POPC   C1B76291   7.130  31.823   6.186
 6047POPC   C2B76292   6.962  31.964   6.579
 6047POPC   C3B76293   7.086  31.886   6.997
 6047POPC   C4B76294   6.985  32.145   7.347
 6048POPC   NC376295  37.325   2.489   5.293
 6048POPC   PO476296  36.848   2.864   5.394
 6048POPC   GL176297  36.897   3.026   5.825
 6048POPC   GL276298  37.223   3.180   5.931
 6048POPC   C1A76299  36.755   3.020   6.278
 6048POPC   D2A76300  37.020   2.958   6.666
 6048POPC   C3A76301  36.793   2.971   6.996
 6048POPC   C4A76302  36.544   2.687   7.150
 6048POPC   C1B76303  37.205   2.836   6.200
 6048POPC   C2B76304  36.996   2.495   6.426
 6048POPC   C3B76305  36.927   2.468   6.884
 6048POPC   C4B76306  37.088   2.673   7.274
 6049POPC   NC376307  35.154  40.572   5.353
 6049POPC   PO476308  35.757  40.776   5.407
 6049POPC   GL176309  35.483  40.764   5.750
 6049POPC   GL276310  35.233  41.006   5.712
 6049POPC   C1A76311  35.244  40.642   6.118
 6049POPC   D2A76312  35.355  40.406   6.507
 6049POPC   C3A76313  35.382  40.635   6.894
 6049POPC   C4A76314  35.366  40.506   7.309
 6049POPC   C1B76315  35.467  41.160   6.091
 6049POPC   C2B76316  35.497  40.991   6.510
 6049POPC   C3B76317  35.360  41.144   6.921
 6049POPC   C4B76318  35.166  41.059   7.293
 6050POPC   NC376319  23.864  34.842   5.251
 6050POPC   PO476320  23.770  34.164   5.354
 6050POPC   GL176321  23.760  34.393   5.746
 6050POPC   GL276322  23.904  34.739   5.772
 6050POPC   C1A76323  23.827  34.409   6.188
 6050POPC   D2A76324  23.632  34.560   6.567
 6050POPC   C3A76325  23.759  34.432   6.970
 6050POPC   C4A76326  23.919  34.087   7.193
 6050POPC   C1B76327  23.862  34.925   6.207
 6050POPC   C2B76328  24.009  34.961   6.641
 6050POPC   C3B76329  23.931  34.950   7.076
 6050POPC   C4B76330  23.768  34.689   7.400
 6051POPC   NC376331   5.750   7.794   5.535
 6051POPC   PO476332   5.940   7.151   5.462
 6051POPC   GL176333   5.870   7.197   5.858
 6051POPC   GL276334   5.541   7.334   5.826
 6051POPC   C1A76335   6.181   7.319   6.177
 6051POPC   D2A76336   6.134   7.573   6.531
 6051POPC   C3A76337   6.200   7.311   6.893
 6051POPC   C4A76338   5.947   7.276   7.241
 6051POPC   C1B76339   5.684   7.512   6.240
 6051POPC   C2B76340   5.671   7.403   6.688
 6051POPC   C3B76341   5.564   7.596   7.068
 6051POPC   C4B76342   5.700   7.720   7.458
 6052POPC   NC376343   8.736  10.312   5.437
 6052POPC   PO476344   8.330  10.842   5.519
 6052POPC   GL176345   8.296  10.481   5.798
 6052POPC   GL276346   7.990  10.268   5.728
 6052POPC   C1A76347   8.306  10.502   6.253
 6052POPC   D2A76348   8.384  10.451   6.687
 6052POPC   C3A76349   8.176  10.782   6.886
 6052POPC   C4A76350   8.177  10.806   7.296
 6052POPC   C1B76351   7.863  10.265   6.175
 6052POPC   C2B76352   7.859  10.427   6.628
 6052POPC   C3B76353   7.983  10.314   7.075
 6052POPC   C4B76354   7.778  10.184   7.482
 6053POPC   NC376355  28.960  36.190   5.328
 6053POPC   PO476356  29.410  35.788   5.527
 6053POPC   GL176357  29.133  36.055   5.783
 6053POPC   GL276358  28.861  35.836   5.813
 6053POPC   C1A76359  29.163  36.309   6.161
 6053POPC   D2A76360  29.080  36.137   6.571
 6053POPC   C3A76361  29.239  36.336   6.925
 6053POPC   C4A76362  29.195  36.229   7.337
 6053POPC   C1B76363  29.136  35.772   6.201
 6053POPC   C2B76364  29.277  35.655   6.618
 6053POPC   C3B76365  29.157  35.829   7.003
 6053POPC   C4B76366  28.745  35.849   7.158
 6054POPC   NC376367  38.449  37.108   5.109
 6054POPC   PO476368  38.291  37.723   5.401
 6054POPC   GL176369  38.572  37.727   5.786
 6054POPC   GL276370  38.735  38.079   5.809
 6054POPC   C1A76371  38.737  37.495   6.195
 6054POPC   D2A76372  38.903  37.546   6.639
 6054POPC   C3A76373  38.588  37.448   6.987
 6054POPC   C4A76374  38.235  37.416   7.300
 6054POPC   C1B76375  38.592  37.994   6.227
 6054POPC   C2B76376  38.506  37.863   6.644
 6054POPC   C3B76377  38.664  37.965   7.047
 6054POPC   C4B76378  38.431  37.891   7.395
 6055POPC   NC376379  20.226  36.395   5.565
 6055POPC   PO476380  19.755  36.814   5.300
 6055POPC   GL176381  19.749  37.036   5.690
 6055POPC   GL276382  20.053  37.224   5.665
 6055POPC   C1A76383  19.687  36.906   6.132
 6055POPC   D2A76384  19.504  36.895   6.566
 6055POPC   C3A76385  19.700  36.718   6.932
 6055POPC   C4A76386  19.736  36.941   7.322
 6055POPC   C1B76387  20.040  37.282   6.090
 6055POPC   C2B76388  20.071  37.047   6.460
 6055POPC   C3B76389  20.044  37.119   6.903
 6055POPC   C4B76390  20.214  37.145   7.315
 6056POPC   NC376391   9.858  25.377   5.367
 6056POPC   PO476392  10.205  24.866   5.476
 6056POPC   GL176393   9.776  25.006   5.717
 6056POPC   GL276394   9.419  24.885   5.772
 6056POPC   C1A76395   9.635  25.220   6.113
 6056POPC   D2A76396   9.671  25.486   6.498
 6056POPC   C3A76397   9.669  25.451   6.978
 6056POPC   C4A76398   9.816  25.126   7.304
 6056POPC   C1B76399   9.382  24.740   6.185
 6056POPC   C2B76400   9.454  24.880   6.605
 6056POPC   C3B76401   9.407  24.993   7.053
 6056POPC   C4B76402   9.344  25.342   7.359
 6057POPC   NC376403  15.028   5.971   5.434
 6057POPC   PO476404  15.673   6.108   5.565
 6057POPC   GL176405  15.324   5.948   5.844
 6057POPC   GL276406  14.982   6.147   5.890
 6057POPC   C1A76407  15.198   5.683   6.196
 6057POPC   D2A76408  15.400   5.817   6.583
 6057POPC   C3A76409  15.362   5.601   6.982
 6057POPC   C4A76410  15.344   5.811   7.378
 6057POPC   C1B76411  15.150   6.194   6.262
 6057POPC   C2B76412  14.980   6.116   6.638
 6057POPC   C3B76413  15.178   6.129   7.005
 6057POPC   C4B76414  14.961   6.166   7.374
 6058POPC   NC376415  24.795  39.729   5.358
 6058POPC   PO476416  25.270  40.068   5.402
 6058POPC   GL176417  25.318  40.172   5.828
 6058POPC   GL276418  25.697  40.074   5.830
 6058POPC   C1A76419  25.053  40.294   6.223
 6058POPC   D2A76420  24.927  40.022   6.602
 6058POPC   C3A76421  24.943  40.056   7.058
 6058POPC   C4A76422  25.105  39.757   7.400
 6058POPC   C1B76423  25.594  40.304   6.222
 6058POPC   C2B76424  25.394  40.210   6.599
 6058POPC   C3B76425  25.438  40.017   6.965
 6058POPC   C4B76426  25.657  40.307   7.137
 6059POPC   NC376427   5.449  15.249   5.025
 6059POPC   PO476428   4.943  14.928   5.382
 6059POPC   GL176429   4.962  15.092   5.799
 6059POPC   GL276430   4.673  14.987   5.864
 6059POPC   C1A76431   5.195  15.267   6.134
 6059POPC   D2A76432   5.184  15.519   6.507
 6059POPC   C3A76433   5.247  15.349   6.933
 6059POPC   C4A76434   5.114  15.184   7.337
 6059POPC   C1B76435   4.747  14.866   6.252
 6059POPC   C2B76436   5.008  15.021   6.563
 6059POPC   C3B76437   4.935  14.913   6.958
 6059POPC   C4B76438   4.641  15.011   7.264
 6060POPC   NC376439  12.335  22.866   5.400
 6060POPC   PO476440  12.333  22.259   5.202
 6060POPC   GL176441  12.053  22.553   5.643
 6060POPC   GL276442  12.318  22.728   5.891
 6060POPC   C1A76443  11.895  22.597   6.125
 6060POPC   D2A76444  12.039  22.846   6.522
 6060POPC   C3A76445  12.019  22.764   7.000
 6060POPC   C4A76446  12.038  22.846   7.457
 6060POPC   C1B76447  12.462  23.033   6.256
 6060POPC   C2B76448  12.425  23.133   6.723
 6060POPC   C3B76449  12.313  23.194   7.177
 6060POPC   C4B76450  12.358  23.176   7.657
 6061POPC   NC376451  27.232  31.912   5.472
 6061POPC   PO476452  27.827  32.295   5.558
 6061POPC   GL176453  27.543  32.079   5.842
 6061POPC   GL276454  27.856  31.862   5.900
 6061POPC   C1A76455  27.298  32.270   6.224
 6061POPC   D2A76456  27.489  32.557   6.538
 6061POPC   C3A76457  27.376  32.432   6.956
 6061POPC   C4A76458  27.326  32.166   7.335
 6061POPC   C1B76459  27.746  32.075   6.294
 6061POPC   C2B76460  27.560  31.995   6.687
 6061POPC   C3B76461  27.760  32.111   7.064
 6061POPC   C4B76462  27.942  32.481   7.234
 6062POPC   NC376463  31.460  25.236   5.257
 6062POPC   PO476464  31.963  25.509   5.641
 6062POPC   GL176465  31.593  25.436   5.827
 6062POPC   GL276466  31.590  25.080   5.761
 6062POPC   C1A76467  31.586  25.302   6.262
 6062POPC   D2A76468  31.653  24.996   6.587
 6062POPC   C3A76469  31.389  25.129   6.914
 6062POPC   C4A76470  31.313  25.529   7.107
 6062POPC   C1B76471  31.240  25.000   6.047
 6062POPC   C2B76472  31.112  24.958   6.472
 6062POPC   C3B76473  30.886  25.018   6.853
 6062POPC   C4B76474  31.005  25.116   7.282
 6063POPC   NC376475  31.798  18.597   5.580
 6063POPC   PO476476  31.349  18.105   5.518
 6063POPC   GL176477  31.509  18.251   5.887
 6063POPC   GL276478  31.873  18.184   5.887
 6063POPC   C1A76479  31.375  18.261   6.315
 6063POPC   D2A76480  31.590  18.114   6.684
 6063POPC   C3A76481  31.336  18.179   7.026
 6063POPC   C4A76482  31.351  17.937   7.418
 6063POPC   C1B76483  31.825  18.478   6.232
 6063POPC   C2B76484  31.614  18.626   6.626
 6063POPC   C3B76485  31.735  18.507   7.047
 6063POPC   C4B76486  31.793  18.150   7.302
 6064POPC   NC376487  31.620  32.868   5.106
 6064POPC   PO476488  31.496  32.291   5.385
 6064POPC   GL176489  31.311  32.308   5.805
 6064POPC   GL276490  31.106  32.012   5.910
 6064POPC   C1A76491  31.398  32.329   6.244
 6064POPC   D2A76492  31.476  32.103   6.618
 6064POPC   C3A76493  31.431  32.359   6.951
 6064POPC   C4A76494  31.624  32.471   7.317
 6064POPC   C1B76495  31.049  31.902   6.382
 6064POPC   C2B76496  31.067  31.895   6.861
 6064POPC   C3B76497  31.280  31.990   7.266
 6064POPC   C4B76498  31.081  31.968   7.708
 6065POPC   NC376499  44.170  39.972   5.321
 6065POPC   PO476500  44.805  40.124   5.452
 6065POPC   GL176501  44.707  39.973   5.803
 6065POPC   GL276502  44.347  40.052   5.801
 6065POPC   C1A76503  44.872  40.103   6.179
 6065POPC   D2A76504  44.885  40.393   6.524
 6065POPC   C3A76505  44.961  40.233   6.928
 6065POPC   C4A76506  44.810  40.167   7.327
 6065POPC   C1B76507  44.396  39.909   6.203
 6065POPC   C2B76508  44.600  39.965   6.591
 6065POPC   C3B76509  44.638  39.817   6.980
 6065POPC   C4B76510  44.344  39.928   7.260
 6066POPC   NC376511  27.420   7.291   5.339
 6066POPC   PO476512  27.974   7.612   5.477
 6066POPC   GL176513  27.660   7.626   5.800
 6066POPC   GL276514  27.285   7.566   5.812
 6066POPC   C1A76515  27.802   7.615   6.220
 6066POPC   D2A76516  27.663   7.526   6.621
 6066POPC   C3A76517  27.913   7.616   6.958
 6066POPC   C4A76518  27.961   7.518   7.381
 6066POPC   C1B76519  27.370   7.321   6.198
 6066POPC   C2B76520  27.427   7.081   6.591
 6066POPC   C3B76521  27.494   7.219   7.015
 6066POPC   C4B76522  27.717   7.083   7.361
 6067POPC   NC376523  41.748  15.753   5.573
 6067POPC   PO476524  41.186  16.192   5.571
 6067POPC   GL176525  41.483  16.150   5.891
 6067POPC   GL276526  41.404  15.803   5.953
 6067POPC   C1A76527  41.492  16.164   6.345
 6067POPC   D2A76528  41.285  16.017   6.729
 6067POPC   C3A76529  41.454  16.099   7.152
 6067POPC   C4A76530  41.259  16.150   7.595
 6067POPC   C1B76531  41.782  15.718   6.229
 6067POPC   C2B76532  41.749  15.747   6.660
 6067POPC   C3B76533  41.834  15.509   7.017
 6067POPC   C4B76534  41.923  15.868   7.255
 6068POPC   NC376535   5.575  29.841   5.474
 6068POPC   PO476536   4.852  29.954   5.392
 6068POPC   GL176537   5.054  30.081   5.775
 6068POPC   GL276538   5.282  30.358   5.811
 6068POPC   C1A76539   5.091  30.057   6.222
 6068POPC   D2A76540   5.158  29.744   6.548
 6068POPC   C3A76541   4.885  29.901   6.865
 6068POPC   C4A76542   4.852  30.244   7.103
 6068POPC   C1B76543   5.586  30.160   6.148
 6068POPC   C2B76544   5.644  29.984   6.558
 6068POPC   C3B76545   5.373  30.045   6.926
 6068POPC   C4B76546   5.177  29.874   7.282
 6069POPC   NC376547  41.780  41.972   5.570
 6069POPC   PO476548  41.372  42.452   5.377
 6069POPC   GL176549  41.459  42.383   5.805
 6069POPC   GL276550  41.361  42.034   5.812
 6069POPC   C1A76551  41.609  42.593   6.198
 6069POPC   D2A76552  41.443  42.705   6.599
 6069POPC   C3A76553  41.665  42.636   6.986
 6069POPC   C4A76554  41.422  42.567   7.325
 6069POPC   C1B76555  41.583  42.071   6.221
 6069POPC   C2B76556  41.758  42.253   6.605
 6069POPC   C3B76557  41.563  42.141   6.996
 6069POPC   C4B76558  41.543  41.792   7.238
 6070POPC   NC376559   1.260  18.004   5.624
 6070POPC   PO476560   1.433  18.646   5.579
 6070POPC   GL176561   1.208  18.513   5.966
 6070POPC   GL276562   1.138  18.132   6.085
 6070POPC   C1A76563   1.026  18.502   6.387
 6070POPC   D2A76564   1.080  18.085   6.619
 6070POPC   C3A76565   1.029  18.149   7.057
 6070POPC   C4A76566   1.252  18.447   7.250
 6070POPC   C1B76567   1.475  17.889   6.260
 6070POPC   C2B76568   1.633  18.011   6.641
 6070POPC   C3B76569   1.609  18.120   7.058
 6070POPC   C4B76570   1.404  17.956   7.384
 6071POPC   NC376571  40.907  23.148   5.218
 6071POPC   PO476572  41.115  22.620   5.491
 6071POPC   GL176573  40.895  22.839   5.823
 6071POPC   GL276574  40.669  23.131   5.728
 6071POPC   C1A76575  40.993  22.955   6.250
 6071POPC   D2A76576  41.187  23.158   6.593
 6071POPC   C3A76577  40.966  22.967   6.934
 6071POPC   C4A76578  40.941  22.745   7.324
 6071POPC   C1B76579  40.528  23.177   6.188
 6071POPC   C2B76580  40.641  23.265   6.644
 6071POPC   C3B76581  40.600  23.273   7.111
 6071POPC   C4B76582  40.572  23.032   7.516
 6072POPC   NC376583  17.675  18.603   5.116
 6072POPC   PO476584  17.355  18.047   5.242
 6072POPC   GL176585  17.425  18.028   5.670
 6072POPC   GL276586  17.395  18.361   5.778
 6072POPC   C1A76587  17.391  17.974   6.122
 6072POPC   D2A76588  17.556  18.072   6.517
 6072POPC   C3A76589  17.379  17.945   6.916
 6072POPC   C4A76590  17.695  18.130   7.166
 6072POPC   C1B76591  17.280  18.489   6.191
 6072POPC   C2B76592  17.174  18.436   6.624
 6072POPC   C3B76593  17.274  18.419   7.074
 6072POPC   C4B76594  17.358  18.331   7.535
 6073POPC   NC376595  31.781   0.349   5.429
 6073POPC   PO476596  32.417   0.424   5.457
 6073POPC   GL176597  32.261   0.380   5.907
 6073POPC   GL276598  31.913   0.274   5.920
 6073POPC   C1A76599  32.189   0.152   6.347
 6073POPC   D2A76600  32.108   0.359   6.752
 6073POPC   C3A76601  32.293   0.298   7.160
 6073POPC   C4A76602  32.482   0.283   7.568
 6073POPC   C1B76603  31.926   0.588   6.282
 6073POPC   C2B76604  31.765   0.738   6.677
 6073POPC   C3B76605  31.967   0.729   7.104
 6073POPC   C4B76606  31.997   0.486   7.535
 6074POPC   NC376607  29.345  14.859   5.360
 6074POPC   PO476608  28.992  14.261   5.525
 6074POPC   GL176609  29.253  14.294   5.868
 6074POPC   GL276610  29.296  14.632   5.841
 6074POPC   C1A76611  29.143  14.084   6.242
 6074POPC   D2A76612  28.928  14.176   6.591
 6074POPC   C3A76613  29.147  14.276   6.936
 6074POPC   C4A76614  29.508  14.106   7.200
 6074POPC   C1B76615  29.153  14.592   6.293
 6074POPC   C2B76616  29.105  14.886   6.617
 6074POPC   C3B76617  29.140  14.840   7.051
 6074POPC   C4B76618  29.232  14.546   7.344
 6075POPC   NC376619   4.043   8.936   5.473
 6075POPC   PO476620   4.569   9.183   5.814
 6075POPC   GL176621   4.240   8.994   6.001
 6075POPC   GL276622   4.003   8.757   5.961
 6075POPC   C1A76623   4.130   9.009   6.441
 6075POPC   D2A76624   4.483   8.823   6.704
 6075POPC   C3A76625   4.422   8.862   7.132
 6075POPC   C4A76626   4.287   9.211   7.414
 6075POPC   C1B76627   4.218   8.538   6.313
 6075POPC   C2B76628   4.065   8.540   6.747
 6075POPC   C3B76629   3.940   8.720   7.156
 6075POPC   C4B76630   4.185   8.744   7.579
 6076POPC   NC376631   2.776  29.137   5.326
 6076POPC   PO476632   3.194  29.460   5.681
 6076POPC   GL176633   2.950  29.136   5.855
 6076POPC   GL276634   2.692  29.370   5.962
 6076POPC   C1A76635   2.806  28.981   6.275
 6076POPC   D2A76636   2.437  29.075   6.570
 6076POPC   C3A76637   2.573  29.175   7.014
 6076POPC   C4A76638   2.895  28.901   7.234
 6076POPC   C1B76639   3.009  29.450   6.322
 6076POPC   C2B76640   2.983  29.301   6.722
 6076POPC   C3B76641   3.043  29.370   7.128
 6076POPC   C4B76642   3.039  29.315   7.586
 6077POPC   NC376643  14.035  10.091   5.482
 6077POPC   PO476644  13.480   9.818   5.322
 6077POPC   GL176645  13.713   9.778   5.755
 6077POPC   GL276646  13.521   9.999   5.854
 6077POPC   C1A76647  13.938   9.946   6.182
 6077POPC   D2A76648  14.108   9.844   6.625
 6077POPC   C3A76649  13.937   9.502   6.831
 6077POPC   C4A76650  13.707   9.725   7.127
 6077POPC   C1B76651  13.486   9.729   6.220
 6077POPC   C2B76652  13.526   9.837   6.660
 6077POPC   C3B76653  13.211   9.811   7.012
 6077POPC   C4B76654  13.190  10.021   7.405
 6078POPC   NC376655  27.032  11.239   5.404
 6078POPC   PO476656  26.404  11.162   5.223
 6078POPC   GL176657  26.644  11.473   5.656
 6078POPC   GL276658  26.989  11.353   5.876
 6078POPC   C1A76659  26.697  11.646   6.117
 6078POPC   D2A76660  26.962  11.541   6.470
 6078POPC   C3A76661  26.676  11.415   6.805
 6078POPC   C4A76662  26.652  11.561   7.208
 6078POPC   C1B76663  27.165  11.024   6.167
 6078POPC   C2B76664  27.341  11.141   6.553
 6078POPC   C3B76665  27.125  11.238   6.918
 6078POPC   C4B76666  26.925  11.139   7.296
 6079POPC   NC376667  21.204  21.586   5.569
 6079POPC   PO476668  20.591  21.334   5.403
 6079POPC   GL176669  20.613  21.456   5.786
 6079POPC   GL276670  20.698  21.132   5.906
 6079POPC   C1A76671  20.429  21.505   6.187
 6079POPC   D2A76672  20.553  21.285   6.556
 6079POPC   C3A76673  20.420  21.499   6.952
 6079POPC   C4A76674  20.419  21.245   7.331
 6079POPC   C1B76675  20.938  21.420   6.202
 6079POPC   C2B76676  20.887  21.670   6.612
 6079POPC   C3B76677  20.923  21.456   7.034
 6079POPC   C4B76678  20.905  21.258   7.494
 6080POPC   NC376679  12.683  11.066   5.574
 6080POPC   PO476680  12.786  10.526   5.190
 6080POPC   GL176681  12.880  10.497   5.690
 6080POPC   GL276682  12.593  10.625   5.857
 6080POPC   C1A76683  12.945  10.449   6.192
 6080POPC   D2A76684  12.727  10.466   6.628
 6080POPC   C3A76685  12.916  10.381   7.062
 6080POPC   C4A76686  12.845  10.368   7.509
 6080POPC   C1B76687  12.707  10.897   6.223
 6080POPC   C2B76688  12.755  11.022   6.654
 6080POPC   C3B76689  12.590  10.811   7.005
 6080POPC   C4B76690  12.433  10.459   7.239
 6081POPC   NC376691  12.691  44.993   5.218
 6081POPC   PO476692  12.862   0.559   5.214
 6081POPC   GL176693  12.878   0.533   5.683
 6081POPC   GL276694  12.689   0.231   5.816
 6081POPC   C1A76695  12.833   0.624   6.142
 6081POPC   D2A76696  12.843   0.370   6.526
 6081POPC   C3A76697  12.839   0.546   6.951
 6081POPC   C4A76698  12.570   0.382   7.284
 6081POPC   C1B76699  13.091   0.179   6.103
 6081POPC   C2B76700  13.334   0.231   6.512
 6081POPC   C3B76701  13.120   0.113   6.898
 6081POPC   C4B76702  13.210   0.136   7.317
 6082POPC   NC376703   1.036  28.557   5.381
 6082POPC   PO476704   1.725  28.365   5.425
 6082POPC   GL176705   1.332  28.343   5.761
 6082POPC   GL276706   1.135  27.997   5.856
 6082POPC   C1A76707   1.198  28.347   6.215
 6082POPC   D2A76708   1.362  28.035   6.500
 6082POPC   C3A76709   1.516  28.224   6.868
 6082POPC   C4A76710   1.277  28.627   6.934
 6082POPC   C1B76711   0.768  28.023   6.185
 6082POPC   C2B76712   0.618  28.090   6.619
 6082POPC   C3B76713   0.987  28.217   6.805
 6082POPC   C4B76714   1.164  28.159   7.197
 6083POPC   NC376715  38.599  17.140   5.213
 6083POPC   PO476716  38.811  16.541   5.338
 6083POPC   GL176717  38.512  16.651   5.693
 6083POPC   GL276718  38.142  16.542   5.665
 6083POPC   C1A76719  38.568  16.735   6.154
 6083POPC   D2A76720  38.787  16.679   6.564
 6083POPC   C3A76721  38.554  16.661   6.940
 6083POPC   C4A76722  38.454  16.967   7.271
 6083POPC   C1B76723  38.106  16.477   6.122
 6083POPC   C2B76724  38.196  16.696   6.508
 6083POPC   C3B76725  38.056  16.774   6.912
 6083POPC   C4B76726  38.122  16.558   7.279
 6084POPC   NC376727  29.509  21.709   5.275
 6084POPC   PO476728  30.199  21.618   5.354
 6084POPC   GL176729  29.853  21.381   5.583
 6084POPC   GL276730  29.793  21.675   5.747
 6084POPC   C1A76731  29.643  21.259   6.000
 6084POPC   D2A76732  29.784  21.318   6.432
 6084POPC   C3A76733  29.955  21.126   6.829
 6084POPC   C4A76734  30.015  21.199   7.294
 6084POPC   C1B76735  29.905  21.823   6.186
 6084POPC   C2B76736  29.994  21.718   6.634
 6084POPC   C3B76737  30.073  21.792   7.052
 6084POPC   C4B76738  29.783  21.638   7.339
 6085POPC   NC376739  28.158  40.598   5.377
 6085POPC   PO476740  28.849  40.665   5.438
 6085POPC   GL176741  28.528  40.539   5.726
 6085POPC   GL276742  28.313  40.846   5.796
 6085POPC   C1A76743  28.438  40.387   6.125
 6085POPC   D2A76744  28.423  40.594   6.541
 6085POPC   C3A76745  28.464  40.437   6.948
 6085POPC   C4A76746  28.433  40.637   7.350
 6085POPC   C1B76747  28.476  40.968   6.180
 6085POPC   C2B76748  28.325  41.085   6.573
 6085POPC   C3B76749  28.448  40.979   6.963
 6085POPC   C4B76750  28.449  41.176   7.348
 6086POPC   NC376751  13.155   1.831   5.148
 6086POPC   PO476752  12.509   2.083   5.064
 6086POPC   GL176753  12.622   1.859   5.551
 6086POPC   GL276754  12.974   1.900   5.724
 6086POPC   C1A76755  12.594   1.830   6.074
 6086POPC   D2A76756  12.773   2.088   6.475
 6086POPC   C3A76757  12.791   1.954   6.944
 6086POPC   C4A76758  12.441   1.878   7.241
 6086POPC   C1B76759  13.081   1.673   6.137
 6086POPC   C2B76760  12.926   1.586   6.552
 6086POPC   C3B76761  13.128   1.558   6.955
 6086POPC   C4B76762  13.318   1.895   7.173
 6087POPC   NC376763   6.354  34.498   5.596
 6087POPC   PO476764   6.915  34.990   5.541
 6087POPC   GL176765   6.789  34.688   5.811
 6087POPC   GL276766   7.074  34.734   5.977
 6087POPC   C1A76767   6.654  34.525   6.206
 6087POPC   D2A76768   6.449  34.362   6.549
 6087POPC   C3A76769   6.639  34.496   6.924
 6087POPC   C4A76770   6.516  34.384   7.361
 6087POPC   C1B76771   6.854  35.006   6.230
 6087POPC   C2B76772   6.934  34.781   6.589
 6087POPC   C3B76773   6.930  34.926   6.972
 6087POPC   C4B76774   6.802  34.791   7.332
 6088POPC   NC376775  43.441  44.740   5.650
 6088POPC   PO476776  42.785  44.598   5.441
 6088POPC   GL176777  42.983  44.505   5.873
 6088POPC   GL276778  43.073  44.803   6.049
 6088POPC   C1A76779  42.895  44.486   6.375
 6088POPC   D2A76780  43.193  44.795   6.627
 6088POPC   C3A76781  43.106  44.823   7.057
 6088POPC   C4A76782  42.774  44.509   7.096
 6088POPC   C1B76783  43.391  44.502   6.257
 6088POPC   C2B76784  43.458  44.329   6.706
 6088POPC   C3B76785  43.279  44.366   7.158
 6088POPC   C4B76786  43.312  44.524   7.607
 6089POPC   NC376787  20.067  25.998   5.491
 6089POPC   PO476788  19.362  26.048   5.480
 6089POPC   GL176789  19.623  25.918   5.810
 6089POPC   GL276790  19.822  26.245   5.886
 6089POPC   C1A76791  19.565  25.989   6.256
 6089POPC   D2A76792  19.808  26.256   6.545
 6089POPC   C3A76793  19.781  26.178   6.974
 6089POPC   C4A76794  19.701  25.805   7.158
 6089POPC   C1B76795  20.148  26.108   6.198
 6089POPC   C2B76796  20.232  25.950   6.644
 6089POPC   C3B76797  20.230  25.878   7.115
 6089POPC   C4B76798  20.050  25.983   7.518
 6090POPC   NC376799   2.138  26.414   5.386
 6090POPC   PO476800   1.651  25.940   5.513
 6090POPC   GL176801   1.964  26.053   5.814
 6090POPC   GL276802   2.251  26.278   5.843
 6090POPC   C1A76803   2.083  25.949   6.195
 6090POPC   D2A76804   2.410  25.893   6.469
 6090POPC   C3A76805   2.180  25.771   6.818
 6090POPC   C4A76806   2.230  25.737   7.244
 6090POPC   C1B76807   2.284  26.403   6.236
 6090POPC   C2B76808   2.097  26.271   6.614
 6090POPC   C3B76809   2.318  26.219   6.965
 6090POPC   C4B76810   2.175  26.447   7.256
 6091POPC   NC376811  29.696  30.973   5.421
 6091POPC   PO476812  30.194  30.487   5.441
 6091POPC   GL176813  29.841  30.567   5.741
 6091POPC   GL276814  29.945  30.917   5.866
 6091POPC   C1A76815  29.735  30.569   6.185
 6091POPC   D2A76816  30.027  30.744   6.473
 6091POPC   C3A76817  30.108  30.482   6.832
 6091POPC   C4A76818  29.812  30.503   7.177
 6091POPC   C1B76819  29.623  31.068   6.152
 6091POPC   C2B76820  29.519  30.932   6.561
 6091POPC   C3B76821  29.778  30.923   6.898
 6091POPC   C4B76822  29.877  31.142   7.243
 6092POPC   NC376823  39.369  19.771   5.510
 6092POPC   PO476824  38.774  19.856   5.492
 6092POPC   GL176825  38.889  20.059   5.850
 6092POPC   GL276826  39.205  20.215   5.747
 6092POPC   C1A76827  39.121  19.851   6.193
 6092POPC   D2A76828  39.218  19.487   6.484
 6092POPC   C3A76829  39.361  19.609   6.911
 6092POPC   C4A76830  39.038  19.672   7.240
 6092POPC   C1B76831  39.201  20.357   6.147
 6092POPC   C2B76832  39.268  20.209   6.556
 6092POPC   C3B76833  39.081  20.266   6.955
 6092POPC   C4B76834  39.271  20.155   7.322
 6093POPC   NC376835  25.328  22.859   5.508
 6093POPC   PO476836  24.737  23.159   5.336
 6093POPC   GL176837  25.014  23.178   5.783
 6093POPC   GL276838  25.096  22.892   5.959
 6093POPC   C1A76839  25.293  23.279   6.206
 6093POPC   D2A76840  25.122  23.276   6.560
 6093POPC   C3A76841  25.160  23.315   6.963
 6093POPC   C4A76842  25.109  23.064   7.339
 6093POPC   C1B76843  25.373  22.781   6.316
 6093POPC   C2B76844  25.398  22.887   6.731
 6093POPC   C3B76845  25.110  22.706   6.997
 6093POPC   C4B76846  25.176  22.491   7.365
 6094POPC   NC376847  26.380  37.919   5.243
 6094POPC   PO476848  26.925  37.706   5.578
 6094POPC   GL176849  26.820  37.550   5.938
 6094POPC   GL276850  26.876  37.888   6.055
 6094POPC   C1A76851  26.890  37.449   6.355
 6094POPC   D2A76852  26.901  37.819   6.596
 6094POPC   C3A76853  26.778  37.748   7.022
 6094POPC   C4A76854  26.884  37.529   7.406
 6094POPC   C1B76855  27.168  38.163   6.225
 6094POPC   C2B76856  27.422  38.160   6.587
 6094POPC   C3B76857  27.241  38.029   6.965
 6094POPC   C4B76858  27.053  37.996   7.399
 6095POPC   NC376859  30.382  21.922   5.646
 6095POPC   PO476860  29.750  22.127   5.359
 6095POPC   GL176861  29.828  22.180   5.778
 6095POPC   GL276862  29.486  22.094   5.806
 6095POPC   C1A76863  29.899  22.355   6.204
 6095POPC   D2A76864  30.139  22.192   6.584
 6095POPC   C3A76865  30.118  22.336   7.021
 6095POPC   C4A76866  30.113  22.391   7.451
 6095POPC   C1B76867  29.390  22.188   6.208
 6095POPC   C2B76868  29.621  22.098   6.547
 6095POPC   C3B76869  29.615  21.983   6.938
 6095POPC   C4B76870  29.698  22.122   7.335
 6096POPC   NC376871  44.228  20.373   5.330
 6096POPC   PO476872  43.926  20.975   5.449
 6096POPC   GL176873  43.847  20.721   5.798
 6096POPC   GL276874  44.016  20.403   5.787
 6096POPC   C1A76875  43.773  20.528   6.213
 6096POPC   D2A76876  43.636  20.409   6.604
 6096POPC   C3A76877  43.526  20.713   6.917
 6096POPC   C4A76878  43.622  20.782   7.336
 6096POPC   C1B76879  44.183  20.171   6.146
 6096POPC   C2B76880  44.109  20.178   6.578
 6096POPC   C3B76881  44.035  20.463   6.903
 6096POPC   C4B76882  44.090  20.611   7.277
 6097POPC   NC376883  14.161   9.195   5.352
 6097POPC   PO476884  14.684   8.821   5.472
 6097POPC   GL176885  14.515   9.026   5.811
 6097POPC   GL276886  14.235   8.861   5.875
 6097POPC   C1A76887  14.501   9.088   6.247
 6097POPC   D2A76888  14.338   8.938   6.635
 6097POPC   C3A76889  14.283   9.131   7.003
 6097POPC   C4A76890  14.563   9.229   7.339
 6097POPC   C1B76891  13.990   8.869   6.262
 6097POPC   C2B76892  13.810   8.933   6.695
 6097POPC   C3B76893  13.914   8.768   7.115
 6097POPC   C4B76894  14.122   8.985   7.477
 6098POPC   NC376895  14.509   1.324   5.413
 6098POPC   PO476896  13.974   1.053   5.408
 6098POPC   GL176897  14.187   1.153   5.786
 6098POPC   GL276898  14.534   0.991   5.802
 6098POPC   C1A76899  14.405   1.416   6.105
 6098POPC   D2A76900  14.358   1.514   6.540
 6098POPC   C3A76901  14.114   1.305   6.860
 6098POPC   C4A76902  14.241   1.401   7.274
 6098POPC   C1B76903  14.399   0.882   6.216
 6098POPC   C2B76904  14.484   0.983   6.648
 6098POPC   C3B76905  14.344   0.876   7.074
 6098POPC   C4B76906  14.545   0.958   7.462
 6099POPC   NC376907   1.565  13.673   5.569
 6099POPC   PO476908   2.126  13.423   5.254
 6099POPC   GL176909   2.029  13.414   5.725
 6099POPC   GL276910   2.004  13.772   5.828
 6099POPC   C1A76911   1.892  13.407   6.193
 6099POPC   D2A76912   1.646  13.286   6.615
 6099POPC   C3A76913   1.734  13.464   7.048
 6099POPC   C4A76914   1.935  13.351   7.473
 6099POPC   C1B76915   1.782  13.906   6.224
 6099POPC   C2B76916   1.906  14.072   6.612
 6099POPC   C3B76917   1.980  13.924   7.024
 6099POPC   C4B76918   2.074  13.827   7.479
 6100POPC   NC376919  21.164   9.215   5.378
 6100POPC   PO476920  21.558   8.676   5.443
 6100POPC   GL176921  21.358   8.871   5.774
 6100POPC   GL276922  21.546   9.152   5.771
 6100POPC   C1A76923  21.141   8.784   6.170
 6100POPC   D2A76924  20.998   8.893   6.582
 6100POPC   C3A76925  21.200   8.779   6.933
 6100POPC   C4A76926  21.212   9.005   7.279
 6100POPC   C1B76927  21.659   8.953   6.178
 6100POPC   C2B76928  21.513   8.970   6.559
 6100POPC   C3B76929  21.531   9.167   6.938
 6100POPC   C4B76930  21.712   9.151   7.362
 6101POPC   NC376931   6.352  10.226   5.410
 6101POPC   PO476932   6.798   9.713   5.322
 6101POPC   GL176933   6.601   9.832   5.729
 6101POPC   GL276934   6.658  10.182   5.833
 6101POPC   C1A76935   6.650   9.747   6.181
 6101POPC   D2A76936   6.825   9.421   6.436
 6101POPC   C3A76937   6.744   9.470   6.882
 6101POPC   C4A76938   6.886   9.449   7.340
 6101POPC   C1B76939   6.814  10.231   6.261
 6101POPC   C2B76940   6.780  10.010   6.678
 6101POPC   C3B76941   6.582   9.900   7.125
 6101POPC   C4B76942   6.440  10.171   7.505
 6102POPC   NC376943  17.085  24.901   5.387
 6102POPC   PO476944  16.468  25.018   5.207
 6102POPC   GL176945  16.596  25.197   5.647
 6102POPC   GL276946  16.577  24.939   5.897
 6102POPC   C1A76947  16.826  25.340   6.078
 6102POPC   D2A76948  16.847  25.545   6.529
 6102POPC   C3A76949  16.962  25.316   6.939
 6102POPC   C4A76950  16.865  25.053   7.304
 6102POPC   C1B76951  16.310  25.283   6.140
 6102POPC   C2B76952  16.229  25.472   6.590
 6102POPC   C3B76953  16.471  25.480   7.020
 6102POPC   C4B76954  16.634  25.525   7.483
 6103POPC   NC376955  23.220  28.599   5.607
 6103POPC   PO476956  22.759  28.187   5.436
 6103POPC   GL176957  22.886  28.240   5.850
 6103POPC   GL276958  22.759  28.560   5.888
 6103POPC   C1A76959  23.005  28.028   6.256
 6103POPC   D2A76960  23.134  27.891   6.682
 6103POPC   C3A76961  23.061  28.241   6.949
 6103POPC   C4A76962  22.931  28.285   7.352
 6103POPC   C1B76963  22.978  28.540   6.275
 6103POPC   C2B76964  22.778  28.553   6.646
 6103POPC   C3B76965  22.767  28.688   7.057
 6103POPC   C4B76966  23.178  28.719   7.225
 6104POPC   NC376967  11.783   6.501   5.512
 6104POPC   PO476968  11.125   6.400   5.373
 6104POPC   GL176969  11.287   6.455   5.780
 6104POPC   GL276970  11.398   6.788   5.840
 6104POPC   C1A76971  11.136   6.542   6.199
 6104POPC   D2A76972  11.288   6.635   6.582
 6104POPC   C3A76973  11.076   6.481   6.897
 6104POPC   C4A76974  11.082   6.670   7.277
 6104POPC   C1B76975  11.640   6.588   6.200
 6104POPC   C2B76976  11.794   6.533   6.621
 6104POPC   C3B76977  11.576   6.645   7.018
 6104POPC   C4B76978  11.545   6.647   7.464
 6105POPC   NC376979  20.412   9.609   5.367
 6105POPC   PO476980  20.893  10.013   5.248
 6105POPC   GL176981  20.805   9.921   5.714
 6105POPC   GL276982  20.578   9.617   5.874
 6105POPC   C1A76983  20.788   9.972   6.175
 6105POPC   D2A76984  20.528   9.852   6.495
 6105POPC   C3A76985  20.655   9.831   6.915
 6105POPC   C4A76986  20.323   9.979   7.162
 6105POPC   C1B76987  20.328   9.435   6.260
 6105POPC   C2B76988  20.229   9.509   6.726
 6105POPC   C3B76989  20.436   9.429   7.149
 6105POPC   C4B76990  20.837   9.426   7.416
 6106POPC   NC376991   7.504  44.351   5.600
 6106POPC   PO476992   7.382   0.002   5.372
 6106POPC   GL176993   7.261  44.801   5.789
 6106POPC   GL276994   7.585  44.726   5.948
 6106POPC   C1A76995   7.173  44.814   6.263
 6106POPC   D2A76996   7.281  44.602   6.680
 6106POPC   C3A76997   7.286  44.784   7.089
 6106POPC   C4A76998   7.232  44.579   7.495
 6106POPC   C1B76999   7.508  44.403   6.266
 6106POPC   C2B77000   7.728  44.298   6.645
 6106POPC   C3B77001   7.574  44.331   7.046
 6106POPC   C4B77002   7.736  44.610   7.333
 6107POPC   NC377003  33.088   6.845   5.643
 6107POPC   PO477004  33.047   7.533   5.569
 6107POPC   GL177005  32.869   7.259   5.876
 6107POPC   GL277006  33.187   7.171   6.052
 6107POPC   C1A77007  32.727   7.371   6.276
 6107POPC   D2A77008  32.930   7.708   6.479
 6107POPC   C3A77009  32.918   7.714   6.903
 6107POPC   C4A77010  32.831   7.766   7.310
 6107POPC   C1B77011  33.159   7.231   6.509
 6107POPC   C2B77012  32.793   7.111   6.774
 6107POPC   C3B77013  32.845   7.279   7.168
 6107POPC   C4B77014  33.273   7.440   7.152
 6108POPC   NC377015  21.681  44.599   5.272
 6108POPC   PO477016  21.085  44.503   5.495
 6108POPC   GL177017  21.418  44.515   5.765
 6108POPC   GL277018  21.683  44.260   5.654
 6108POPC   C1A77019  21.275  44.620   6.210
 6108POPC   D2A77020  21.399  44.829   6.617
 6108POPC   C3A77021  21.308  44.750   7.085
 6108POPC   C4A77022  21.358  44.853   7.554
 6108POPC   C1B77023  21.733  44.196   6.092
 6108POPC   C2B77024  21.584  44.314   6.489
 6108POPC   C3B77025  21.677  44.434   6.895
 6108POPC   C4B77026  21.906  44.278   7.216
 6109POPC   NC377027  10.258  42.524   5.370
 6109POPC   PO477028  10.805  42.203   5.530
 6109POPC   GL177029  10.566  42.426   5.816
 6109POPC   GL277030  10.273  42.244   5.872
 6109POPC   C1A77031  10.625  42.397   6.261
 6109POPC   D2A77032  10.775  42.490   6.663
 6109POPC   C3A77033  10.571  42.245   6.970
 6109POPC   C4A77034  10.518  42.400   7.359
 6109POPC   C1B77035  10.156  42.562   6.168
 6109POPC   C2B77036  10.264  42.639   6.609
 6109POPC   C3B77037  10.121  42.519   7.057
 6109POPC   C4B77038  10.117  42.642   7.525
 6110POPC   NC377039  22.416   1.635   5.368
 6110POPC   PO477040  23.071   1.272   5.389
 6110POPC   GL177041  23.090   1.283   5.810
 6110POPC   GL277042  22.757   1.415   5.760
 6110POPC   C1A77043  22.936   1.089   6.189
 6110POPC   D2A77044  22.912   1.078   6.645
 6110POPC   C3A77045  23.119   1.281   7.001
 6110POPC   C4A77046  23.152   1.141   7.423
 6110POPC   C1B77047  22.559   1.475   6.105
 6110POPC   C2B77048  22.457   1.367   6.514
 6110POPC   C3B77049  22.620   1.370   6.938
 6110POPC   C4B77050  22.681   0.948   7.095
 6111POPC   NC377051  41.434  42.060   5.075
 6111POPC   PO477052  41.831  41.552   5.397
 6111POPC   GL177053  41.627  41.526   5.799
 6111POPC   GL277054  41.280  41.535   5.680
 6111POPC   C1A77055  41.675  41.552   6.251
 6111POPC   D2A77056  41.545  41.748   6.648
 6111POPC   C3A77057  41.422  41.402   6.910
 6111POPC   C4A77058  41.533  41.290   7.327
 6111POPC   C1B77059  41.160  41.677   6.100
 6111POPC   C2B77060  40.976  41.823   6.492
 6111POPC   C3B77061  41.093  41.829   6.929
 6111POPC   C4B77062  41.088  41.530   7.285
 6112POPC   NC377063  13.515  14.463   5.426
 6112POPC   PO477064  14.024  14.024   5.600
 6112POPC   GL177065  13.746  14.242   5.888
 6112POPC   GL277066  13.363  14.259   5.855
 6112POPC   C1A77067  13.591  14.334   6.318
 6112POPC   D2A77068  13.584  14.540   6.718
 6112POPC   C3A77069  13.656  14.402   7.077
 6112POPC   C4A77070  14.022  14.228   7.230
 6112POPC   C1B77071  13.098  14.253   6.177
 6112POPC   C2B77072  13.114  14.336   6.589
 6112POPC   C3B77073  13.121  14.491   6.977
 6112POPC   C4B77074  13.176  14.384   7.364
 6113POPC   NC377075  27.945   8.902   5.386
 6113POPC   PO477076  27.305   9.170   5.442
 6113POPC   GL177077  27.575   8.970   5.810
 6113POPC   GL277078  27.849   9.225   5.881
 6113POPC   C1A77079  27.754   8.885   6.277
 6113POPC   D2A77080  27.963   8.793   6.699
 6113POPC   C3A77081  27.736   8.871   7.112
 6113POPC   C4A77082  27.803   8.815   7.572
 6113POPC   C1B77083  27.694   9.383   6.303
 6113POPC   C2B77084  27.693   9.282   6.765
 6113POPC   C3B77085  27.433   9.290   7.121
 6113POPC   C4B77086  27.056   9.317   7.325
 6114POPC   NC377087  36.357  24.406   5.414
 6114POPC   PO477088  35.692  24.318   5.415
 6114POPC   GL177089  36.015  24.232   5.750
 6114POPC   GL277090  36.156  24.530   5.883
 6114POPC   C1A77091  36.058  24.167   6.225
 6114POPC   D2A77092  35.908  24.077   6.662
 6114POPC   C3A77093  35.998  24.420   6.976
 6114POPC   C4A77094  35.934  24.851   7.166
 6114POPC   C1B77095  36.289  24.659   6.308
 6114POPC   C2B77096  36.252  24.802   6.757
 6114POPC   C3B77097  36.480  24.845   7.159
 6114POPC   C4B77098  36.726  24.846   7.579
 6115POPC   NC377099  19.822  22.525   5.365
 6115POPC   PO477100  19.857  23.144   5.394
 6115POPC   GL177101  19.931  22.897   5.765
 6115POPC   GL277102  20.203  22.658   5.704
 6115POPC   C1A77103  19.880  23.035   6.199
 6115POPC   D2A77104  19.712  23.246   6.562
 6115POPC   C3A77105  19.877  23.094   6.935
 6115POPC   C4A77106  19.749  22.903   7.320
 6115POPC   C1B77107  20.123  22.590   6.157
 6115POPC   C2B77108  20.181  22.783   6.578
 6115POPC   C3B77109  20.036  22.626   6.989
 6115POPC   C4B77110  20.116  22.509   7.421
 6116POPC   NC377111  23.961   4.160   5.554
 6116POPC   PO477112  23.381   3.813   5.505
 6116POPC   GL177113  23.521   4.125   5.835
 6116POPC   GL277114  23.542   4.490   5.755
 6116POPC   C1A77115  23.766   4.219   6.212
 6116POPC   D2A77116  23.681   4.066   6.627
 6116POPC   C3A77117  23.914   4.242   6.962
 6116POPC   C4A77118  23.809   4.224   7.396
 6116POPC   C1B77119  23.409   4.648   6.163
 6116POPC   C2B77120  23.534   4.554   6.567
 6116POPC   C3B77121  23.425   4.683   6.952
 6116POPC   C4B77122  23.568   4.683   7.341
 6117POPC   NC377123  32.659  20.470   5.368
 6117POPC   PO477124  33.066  20.981   5.455
 6117POPC   GL177125  32.960  20.829   5.839
 6117POPC   GL277126  32.915  20.458   5.816
 6117POPC   C1A77127  32.808  20.767   6.250
 6117POPC   D2A77128  32.993  20.552   6.613
 6117POPC   C3A77129  32.948  20.600   7.023
 6117POPC   C4A77130  33.307  20.694   7.328
 6117POPC   C1B77131  32.967  20.260   6.204
 6117POPC   C2B77132  32.945  20.025   6.562
 6117POPC   C3B77133  33.070  20.078   6.961
 6117POPC   C4B77134  33.081  20.242   7.347
 6118POPC   NC377135  20.536   4.001   5.557
 6118POPC   PO477136  20.286   3.354   5.399
 6118POPC   GL177137  20.529   3.546   5.804
 6118POPC   GL277138  20.453   3.861   6.049
 6118POPC   C1A77139  20.828   3.494   6.146
 6118POPC   D2A77140  20.735   3.328   6.565
 6118POPC   C3A77141  20.688   3.593   6.906
 6118POPC   C4A77142  20.789   3.344   7.236
 6118POPC   C1B77143  20.329   3.556   6.362
 6118POPC   C2B77144  20.239   3.372   6.801
 6118POPC   C3B77145  20.332   3.511   7.270
 6118POPC   C4B77146  20.246   3.702   7.762
 6119POPC   NC377147  22.551   7.525   5.560
 6119POPC   PO477148  22.355   7.050   5.082
 6119POPC   GL177149  22.287   7.107   5.604
 6119POPC   GL277150  22.081   7.397   5.764
 6119POPC   C1A77151  22.443   7.214   6.111
 6119POPC   D2A77152  22.205   7.265   6.533
 6119POPC   C3A77153  22.294   7.179   7.008
 6119POPC   C4A77154  22.026   7.333   7.361
 6119POPC   C1B77155  22.236   7.686   6.133
 6119POPC   C2B77156  22.116   7.776   6.547
 6119POPC   C3B77157  22.283   7.828   6.926
 6119POPC   C4B77158  22.489   7.595   7.245
 6120POPC   NC377159  17.503   2.845   5.242
 6120POPC   PO477160  17.973   3.071   5.733
 6120POPC   GL177161  17.654   2.753   5.842
 6120POPC   GL277162  17.364   2.886   5.742
 6120POPC   C1A77163  17.448   2.582   6.223
 6120POPC   D2A77164  17.530   2.810   6.607
 6120POPC   C3A77165  17.595   2.714   7.035
 6120POPC   C4A77166  17.804   2.887   7.395
 6120POPC   C1B77167  17.145   2.989   6.139
 6120POPC   C2B77168  17.021   2.751   6.531
 6120POPC   C3B77169  17.131   2.883   6.956
 6120POPC   C4B77170  17.308   2.951   7.381
 6121POPC   NC377171  32.409   9.345   5.381
 6121POPC   PO477172  32.060   8.723   5.402
 6121POPC   GL177173  32.219   8.897   5.787
 6121POPC   GL277174  32.567   8.940   5.800
 6121POPC   C1A77175  32.159   9.054   6.224
 6121POPC   D2A77176  31.918   9.201   6.593
 6121POPC   C3A77177  32.105   9.238   7.000
 6121POPC   C4A77178  32.404   8.944   7.191
 6121POPC   C1B77179  32.643   8.904   6.225
 6121POPC   C2B77180  32.464   8.944   6.654
 6121POPC   C3B77181  32.769   8.717   6.927
 6121POPC   C4B77182  32.901   8.821   7.337
 6122POPC   NC377183  33.319  28.053   5.331
 6122POPC   PO477184  33.112  27.427   5.131
 6122POPC   GL177185  33.132  27.479   5.617
 6122POPC   GL277186  33.082  27.795   5.727
 6122POPC   C1A77187  33.176  27.427   6.076
 6122POPC   D2A77188  33.334  27.632   6.442
 6122POPC   C3A77189  33.155  27.550   6.858
 6122POPC   C4A77190  33.201  27.709   7.296
 6122POPC   C1B77191  32.861  27.858   6.115
 6122POPC   C2B77192  32.798  27.764   6.555
 6122POPC   C3B77193  32.750  27.839   7.016
 6122POPC   C4B77194  32.717  27.514   7.357
 6123POPC   NC377195  11.884   3.908   5.228
 6123POPC   PO477196  12.319   4.334   5.372
 6123POPC   GL177197  12.134   4.469   5.821
 6123POPC   GL277198  11.847   4.643   5.776
 6123POPC   C1A77199  12.043   4.314   6.233
 6123POPC   D2A77200  12.306   4.241   6.568
 6123POPC   C3A77201  12.164   4.139   6.975
 6123POPC   C4A77202  12.005   4.130   7.406
 6123POPC   C1B77203  11.806   4.774   6.239
 6123POPC   C2B77204  11.919   4.594   6.684
 6123POPC   C3B77205  11.970   4.609   7.167
 6123POPC   C4B77206  11.912   4.589   7.652
 6124POPC   NC377207  16.075  19.043   5.641
 6124POPC   PO477208  15.481  19.364   5.496
 6124POPC   GL177209  15.688  19.186   5.894
 6124POPC   GL277210  15.626  18.832   5.923
 6124POPC   C1A77211  15.973  19.021   6.298
 6124POPC   D2A77212  16.138  18.773   6.683
 6124POPC   C3A77213  16.106  18.969   7.101
 6124POPC   C4A77214  16.080  19.055   7.551
 6124POPC   C1B77215  15.646  18.622   6.306
 6124POPC   C2B77216  15.628  18.839   6.712
 6124POPC   C3B77217  15.662  18.675   7.131
 6124POPC   C4B77218  15.769  18.650   7.593
 6125POPC   NC377219   3.854  26.705   5.128
 6125POPC   PO477220   3.346  26.780   5.538
 6125POPC   GL177221   3.644  26.981   5.813
 6125POPC   GL277222   3.817  26.739   6.058
 6125POPC   C1A77223   3.589  27.223   6.193
 6125POPC   D2A77224   3.820  27.175   6.598
 6125POPC   C3A77225   3.632  27.131   7.008
 6125POPC   C4A77226   3.579  26.749   7.198
 6125POPC   C1B77227   3.411  26.732   6.248
 6125POPC   C2B77228   3.051  26.639   6.491
 6125POPC   C3B77229   3.135  26.723   6.925
 6125POPC   C4B77230   3.074  26.586   7.333
 6126POPC   NC377231   6.318  39.277   5.393
 6126POPC   PO477232   6.907  38.945   5.485
 6126POPC   GL177233   6.688  39.134   5.880
 6126POPC   GL277234   6.384  39.332   5.880
 6126POPC   C1A77235   6.559  39.230   6.341
 6126POPC   D2A77236   6.836  39.093   6.672
 6126POPC   C3A77237   6.740  39.113   7.108
 6126POPC   C4A77238   6.329  38.956   7.121
 6126POPC   C1B77239   6.098  39.571   6.143
 6126POPC   C2B77240   6.268  39.646   6.521
 6126POPC   C3B77241   6.265  39.416   6.891
 6126POPC   C4B77242   6.218  39.619   7.248
 6127POPC   NC377243  34.311  38.372   5.473
 6127POPC   PO477244  34.982  38.533   5.395
 6127POPC   GL177245  34.761  38.453   5.767
 6127POPC   GL277246  34.906  38.140   5.843
 6127POPC   C1A77247  34.524  38.505   6.157
 6127POPC   D2A77248  34.292  38.519   6.542
 6127POPC   C3A77249  34.402  38.723   6.933
 6127POPC   C4A77250  34.636  38.511   7.247
 6127POPC   C1B77251  34.738  38.045   6.242
 6127POPC   C2B77252  34.516  38.024   6.651
 6127POPC   C3B77253  34.713  38.025   7.054
 6127POPC   C4B77254  34.975  38.117   7.387
 6128POPC   NC377255  44.863  13.916   5.468
 6128POPC   PO477256  44.468  13.342   5.347
 6128POPC   GL177257  44.644  13.516   5.736
 6128POPC   GL277258  44.517  13.859   5.839
 6128POPC   C1A77259  44.688  13.420   6.174
 6128POPC   D2A77260  44.405  13.268   6.500
 6128POPC   C3A77261  44.497  13.523   6.825
 6128POPC   C4A77262  44.773  13.470   7.166
 6128POPC   C1B77263  44.778  13.935   6.189
 6128POPC   C2B77264  44.906  13.775   6.590
 6128POPC   C3B77265  44.843  13.939   7.006
 6128POPC   C4B77266  44.920  13.937   7.456
 6129POPC   NC377267  28.789   3.013   5.279
 6129POPC   PO477268  28.782   2.340   5.425
 6129POPC   GL177269  28.952   2.706   5.692
 6129POPC   GL277270  29.298   2.652   5.797
 6129POPC   C1A77271  28.980   2.859   6.157
 6129POPC   D2A77272  28.848   2.757   6.606
 6129POPC   C3A77273  29.053   2.879   6.977
 6129POPC   C4A77274  29.428   3.046   7.120
 6129POPC   C1B77275  29.377   2.542   6.251
 6129POPC   C2B77276  29.389   2.640   6.680
 6129POPC   C3B77277  29.635   2.572   7.055
 6129POPC   C4B77278  29.801   2.583   7.488
 6130POPC   NC377279  40.825   5.887   5.319
 6130POPC   PO477280  41.114   5.648   5.832
 6130POPC   GL177281  40.773   5.918   5.845
 6130POPC   GL277282  40.548   5.626   5.851
 6130POPC   C1A77283  40.859   6.156   6.212
 6130POPC   D2A77284  40.638   6.140   6.584
 6130POPC   C3A77285  40.737   5.913   6.935
 6130POPC   C4A77286  40.965   6.196   7.150
 6130POPC   C1B77287  40.677   5.626   6.311
 6130POPC   C2B77288  40.634   5.345   6.667
 6130POPC   C3B77289  40.558   5.449   7.090
 6130POPC   C4B77290  40.246   5.721   7.218
 6131POPC   NC377291  17.101   0.019   5.351
 6131POPC   PO477292  16.577  44.579   5.334
 6131POPC   GL177293  16.918  44.623   5.648
 6131POPC   GL277294  16.931  44.961   5.815
 6131POPC   C1A77295  16.888  44.513   6.106
 6131POPC   D2A77296  16.601  44.574   6.477
 6131POPC   C3A77297  16.703  44.462   6.898
 6131POPC   C4A77298  16.755  44.253   7.305
 6131POPC   C1B77299  16.769   0.004   6.213
 6131POPC   C2B77300  16.932  44.949   6.615
 6131POPC   C3B77301  16.827  44.953   7.012
 6131POPC   C4B77302  17.015  44.680   7.308
 6132POPC   NC377303  30.770  17.816   5.744
 6132POPC   PO477304  30.599  18.445   5.498
 6132POPC   GL177305  30.668  18.305   5.899
 6132POPC   GL277306  30.904  18.558   5.995
 6132POPC   C1A77307  30.812  18.168   6.323
 6132POPC   D2A77308  30.691  18.218   6.757
 6132POPC   C3A77309  30.863  17.975   7.122
 6132POPC   C4A77310  30.938  18.129   7.564
 6132POPC   C1B77311  30.529  18.607   6.287
 6132POPC   C2B77312  30.220  18.537   6.599
 6132POPC   C3B77313  30.437  18.651   6.953
 6132POPC   C4B77314  30.731  18.466   7.224
 6133POPC   NC377315  23.421  22.654   5.543
 6133POPC   PO477316  23.907  23.047   5.260
 6133POPC   GL177317  23.849  22.951   5.708
 6133POPC   GL277318  23.916  23.238   5.916
 6133POPC   C1A77319  23.649  22.849   6.139
 6133POPC   D2A77320  23.738  23.021   6.559
 6133POPC   C3A77321  23.570  22.790   6.947
 6133POPC   C4A77322  23.660  22.779   7.412
 6133POPC   C1B77323  24.157  23.348   6.283
 6133POPC   C2B77324  24.221  23.213   6.724
 6133POPC   C3B77325  23.961  23.091   7.070
 6133POPC   C4B77326  23.945  23.208   7.540
 6134POPC   NC377327  34.176  32.496   5.496
 6134POPC   PO477328  33.594  32.333   5.500
 6134POPC   GL177329  33.477  31.972   5.795
 6134POPC   GL277330  33.798  31.845   5.852
 6134POPC   C1A77331  33.370  32.071   6.268
 6134POPC   D2A77332  33.481  32.423   6.563
 6134POPC   C3A77333  33.479  32.312   7.022
 6134POPC   C4A77334  33.656  32.330   7.444
 6134POPC   C1B77335  33.901  31.983   6.270
 6134POPC   C2B77336  33.801  32.061   6.697
 6134POPC   C3B77337  33.973  32.037   7.113
 6134POPC   C4B77338  34.258  31.879   7.471
 6135POPC   NC377339  11.710  11.768   5.528
 6135POPC   PO477340  12.219  12.224   5.380
 6135POPC   GL177341  12.288  12.211   5.808
 6135POPC   GL277342  11.957  12.272   5.944
 6135POPC   C1A77343  12.349  12.198   6.252
 6135POPC   D2A77344  12.075  12.273   6.602
 6135POPC   C3A77345  12.334  12.281   6.945
 6135POPC   C4A77346  12.377  12.066   7.306
 6135POPC   C1B77347  11.865  11.935   6.288
 6135POPC   C2B77348  11.827  11.826   6.744
 6135POPC   C3B77349  11.900  11.971   7.174
 6135POPC   C4B77350  11.620  12.075   7.514
 6136POPC   NC377351  31.679  19.196   5.056
 6136POPC   PO477352  31.180  19.244   5.490
 6136POPC   GL177353  31.275  19.138   5.900
 6136POPC   GL277354  31.385  18.782   5.895
 6136POPC   C1A77355  31.309  19.340   6.324
 6136POPC   D2A77356  31.164  19.140   6.713
 6136POPC   C3A77357  31.225  19.363   7.070
 6136POPC   C4A77358  31.529  19.537   7.319
 6136POPC   C1B77359  31.667  18.977   6.218
 6136POPC   C2B77360  31.751  19.117   6.667
 6136POPC   C3B77361  31.568  18.989   7.069
 6136POPC   C4B77362  31.697  18.817   7.465
 6137POPC   NC377363  12.723   8.624   5.438
 6137POPC   PO477364  13.326   8.994   5.520
 6137POPC   GL177365  13.067   8.780   5.841
 6137POPC   GL277366  12.659   8.773   5.902
 6137POPC   C1A77367  12.966   8.902   6.265
 6137POPC   D2A77368  12.653   8.923   6.572
 6137POPC   C3A77369  12.880   8.898   6.967
 6137POPC   C4A77370  12.722   8.993   7.342
 6137POPC   C1B77371  12.602   8.521   6.268
 6137POPC   C2B77372  12.475   8.410   6.727
 6137POPC   C3B77373  12.630   8.454   7.194
 6137POPC   C4B77374  12.595   8.593   7.662
 6138POPC   NC377375  33.462  39.929   5.454
 6138POPC   PO477376  32.765  39.887   5.320
 6138POPC   GL177377  33.005  39.832   5.680
 6138POPC   GL277378  33.110  40.175   5.778
 6138POPC   C1A77379  32.954  39.801   6.106
 6138POPC   D2A77380  32.974  39.979   6.541
 6138POPC   C3A77381  33.006  39.864   6.966
 6138POPC   C4A77382  33.384  39.731   7.150
 6138POPC   C1B77383  32.973  40.338   6.182
 6138POPC   C2B77384  32.896  40.482   6.610
 6138POPC   C3B77385  33.013  40.363   7.024
 6138POPC   C4B77386  32.917  40.296   7.469
 6139POPC   NC377387   3.808   7.173   5.503
 6139POPC   PO477388   4.350   7.575   5.430
 6139POPC   GL177389   4.116   7.521   5.797
 6139POPC   GL277390   4.222   7.172   5.831
 6139POPC   C1A77391   4.216   7.510   6.249
 6139POPC   D2A77392   4.214   7.343   6.690
 6139POPC   C3A77393   4.176   7.595   7.065
 6139POPC   C4A77394   4.294   7.728   7.515
 6139POPC   C1B77395   4.258   7.005   6.261
 6139POPC   C2B77396   4.580   7.017   6.586
 6139POPC   C3B77397   4.623   7.186   7.006
 6139POPC   C4B77398   4.320   7.182   7.341
 6140POPC   NC377399  38.959  13.278   5.547
 6140POPC   PO477400  39.408  12.793   5.518
 6140POPC   GL177401  39.466  12.883   5.924
 6140POPC   GL277402  39.160  13.009   5.921
 6140POPC   C1A77403  39.370  12.864   6.357
 6140POPC   D2A77404  39.306  12.642   6.705
 6140POPC   C3A77405  39.207  12.821   7.094
 6140POPC   C4A77406  39.438  12.676   7.452
 6140POPC   C1B77407  38.997  13.199   6.260
 6140POPC   C2B77408  38.928  13.010   6.678
 6140POPC   C3B77409  38.744  13.029   7.132
 6140POPC   C4B77410  38.918  12.784   7.499
 6141POPC   NC377411  28.718  22.316   5.347
 6141POPC   PO477412  28.367  21.728   5.431
 6141POPC   GL177413  28.491  21.855   5.863
 6141POPC   GL277414  28.523  22.241   5.832
 6141POPC   C1A77415  28.405  21.898   6.332
 6141POPC   D2A77416  28.068  21.968   6.687
 6141POPC   C3A77417  28.275  21.875   7.087
 6141POPC   C4A77418  28.746  21.964   7.117
 6141POPC   C1B77419  28.286  22.374   6.181
 6141POPC   C2B77420  28.424  22.340   6.617
 6141POPC   C3B77421  28.244  22.384   6.994
 6141POPC   C4B77422  28.309  22.389   7.399
 6142POPC   NC377423  39.013  44.103   5.693
 6142POPC   PO477424  39.456  43.809   5.433
 6142POPC   GL177425  39.489  44.091   5.861
 6142POPC   GL277426  39.211  44.298   6.093
 6142POPC   C1A77427  39.518  43.931   6.289
 6142POPC   D2A77428  39.300  43.719   6.635
 6142POPC   C3A77429  39.271  44.047   6.941
 6142POPC   C4A77430  39.287  44.153   7.371
 6142POPC   C1B77431  38.956  44.005   6.321
 6142POPC   C2B77432  38.803  43.910   6.708
 6142POPC   C3B77433  38.791  44.153   7.063
 6142POPC   C4B77434  38.731  43.880   7.329
 6143POPC   NC377435   6.700  40.134   5.585
 6143POPC   PO477436   6.225  39.711   5.520
 6143POPC   GL177437   6.490  39.827   5.922
 6143POPC   GL277438   6.823  39.646   5.911
 6143POPC   C1A77439   6.593  40.149   6.256
 6143POPC   D2A77440   6.547  40.055   6.684
 6143POPC   C3A77441   6.825  40.085   7.040
 6143POPC   C4A77442   6.678  40.075   7.474
 6143POPC   C1B77443   6.805  39.696   6.368
 6143POPC   C2B77444   6.744  39.586   6.809
 6143POPC   C3B77445   6.711  39.607   7.277
 6143POPC   C4B77446   6.729  39.625   7.749
 6144POPC   NC377447  12.958   3.442   5.314
 6144POPC   PO477448  12.594   3.897   5.549
 6144POPC   GL177449  12.788   3.528   5.786
 6144POPC   GL277450  13.173   3.424   5.762
 6144POPC   C1A77451  12.634   3.384   6.154
 6144POPC   D2A77452  12.695   3.441   6.544
 6144POPC   C3A77453  12.694   3.161   6.843
 6144POPC   C4A77454  12.700   3.328   7.229
 6144POPC   C1B77455  13.145   3.632   6.152
 6144POPC   C2B77456  13.168   3.696   6.564
 6144POPC   C3B77457  12.972   3.666   6.931
 6144POPC   C4B77458  13.118   3.600   7.316
 6145POPC   NC377459  18.054  15.490   5.291
 6145POPC   PO477460  18.485  15.011   5.533
 6145POPC   GL177461  18.161  15.084   5.806
 6145POPC   GL277462  18.061  15.447   5.818
 6145POPC   C1A77463  18.221  15.074   6.242
 6145POPC   D2A77464  18.080  15.259   6.629
 6145POPC   C3A77465  18.382  15.199   6.905
 6145POPC   C4A77466  18.206  15.082   7.255
 6145POPC   C1B77467  18.176  15.588   6.234
 6145POPC   C2B77468  18.124  15.779   6.647
 6145POPC   C3B77469  18.140  15.623   7.077
 6145POPC   C4B77470  18.566  15.540   7.267
 6146POPC   NC377471  18.440  30.975   5.375
 6146POPC   PO477472  18.757  30.337   5.421
 6146POPC   GL177473  18.404  30.502   5.711
 6146POPC   GL277474  18.375  30.852   5.848
 6146POPC   C1A77475  18.255  30.432   6.157
 6146POPC   D2A77476  18.460  30.415   6.586
 6146POPC   C3A77477  18.211  30.419   6.970
 6146POPC   C4A77478  18.410  30.540   7.344
 6146POPC   C1B77479  18.241  30.965   6.230
 6146POPC   C2B77480  18.388  30.952   6.650
 6146POPC   C3B77481  18.256  30.956   7.067
 6146POPC   C4B77482  18.002  30.821   7.421
 6147POPC   NC377483  30.189  37.421   5.346
 6147POPC   PO477484  29.692  37.873   5.278
 6147POPC   GL177485  29.866  37.750   5.706
 6147POPC   GL277486  30.177  37.975   5.777
 6147POPC   C1A77487  29.734  37.612   6.142
 6147POPC   D2A77488  29.872  37.756   6.540
 6147POPC   C3A77489  29.829  37.548   6.924
 6147POPC   C4A77490  29.897  37.782   7.273
 6147POPC   C1B77491  30.263  37.623   6.051
 6147POPC   C2B77492  30.315  37.406   6.438
 6147POPC   C3B77493  30.351  37.508   6.860
 6147POPC   C4B77494  30.201  37.344   7.256
 6148POPC   NC377495  20.486  20.041   5.454
 6148POPC   PO477496  20.962  19.705   5.698
 6148POPC   GL177497  20.607  19.840   5.901
 6148POPC   GL277498  20.797  20.155   5.878
 6148POPC   C1A77499  20.413  19.656   6.260
 6148POPC   D2A77500  20.556  19.533   6.671
 6148POPC   C3A77501  20.444  19.831   6.988
 6148POPC   C4A77502  20.493  19.946   7.392
 6148POPC   C1B77503  20.905  19.942   6.293
 6148POPC   C2B77504  20.825  20.011   6.715
 6148POPC   C3B77505  20.856  20.156   7.130
 6148POPC   C4B77506  21.030  19.915   7.523
 6149POPC   NC377507  27.062  39.322   5.748
 6149POPC   PO477508  27.615  39.098   5.398
 6149POPC   GL177509  27.525  39.081   5.786
 6149POPC   GL277510  27.594  39.439   5.805
 6149POPC   C1A77511  27.710  39.086   6.191
 6149POPC   D2A77512  28.029  39.105   6.514
 6149POPC   C3A77513  27.835  39.060   6.894
 6149POPC   C4A77514  27.681  38.909   7.295
 6149POPC   C1B77515  27.583  39.619   6.197
 6149POPC   C2B77516  27.686  39.484   6.573
 6149POPC   C3B77517  27.771  39.645   6.943
 6149POPC   C4B77518  27.714  39.400   7.254
 6150POPC   NC377519   5.460  44.897   5.460
 6150POPC   PO477520   4.886  44.596   5.264
 6150POPC   GL177521   5.017  44.778   5.696
 6150POPC   GL277522   5.303  44.553   5.797
 6150POPC   C1A77523   4.966  44.826   6.171
 6150POPC   D2A77524   4.901   0.024   6.593
 6150POPC   C3A77525   4.847  44.774   6.950
 6150POPC   C4A77526   4.762  44.780   7.358
 6150POPC   C1B77527   5.420  44.516   6.215
 6150POPC   C2B77528   5.214  44.617   6.607
 6150POPC   C3B77529   5.344  44.734   7.026
 6150POPC   C4B77530   5.630  44.551   7.291
 6151POPC   NC377531  44.937  14.741   5.469
 6151POPC   PO477532  44.518  14.259   5.499
 6151POPC   GL177533  44.407  14.371   5.882
 6151POPC   GL277534  44.499  14.692   5.880
 6151POPC   C1A77535  44.309  14.198   6.263
 6151POPC   D2A77536  44.592  14.199   6.607
 6151POPC   C3A77537  44.562  14.539   6.883
 6151POPC   C4A77538  44.735  14.388   7.241
 6151POPC   C1B77539  44.574  14.644   6.304
 6151POPC   C2B77540  44.887  14.782   6.579
 6151POPC   C3B77541   0.048  14.740   6.980
 6151POPC   C4B77542  44.821  14.867   7.335
 6152POPC   NC377543   2.279  36.237   5.456
 6152POPC   PO477544   1.700  35.834   5.563
 6152POPC   GL177545   1.923  36.096   5.796
 6152POPC   GL277546   2.213  35.865   5.791
 6152POPC   C1A77547   1.860  36.387   6.130
 6152POPC   D2A77548   2.077  36.496   6.504
 6152POPC   C3A77549   1.980  36.304   6.886
 6152POPC   C4A77550   1.800  36.351   7.277
 6152POPC   C1B77551   2.290  36.125   6.144
 6152POPC   C2B77552   2.123  35.975   6.506
 6152POPC   C3B77553   2.286  35.894   6.901
 6152POPC   C4B77554   2.215  36.034   7.270
 6153POPC   NC377555  17.372  22.730   5.427
 6153POPC   PO477556  17.192  23.362   5.538
 6153POPC   GL177557  17.483  23.053   5.831
 6153POPC   GL277558  17.461  22.655   5.908
 6153POPC   C1A77559  17.615  22.940   6.279
 6153POPC   D2A77560  17.715  23.200   6.619
 6153POPC   C3A77561  17.576  23.038   7.010
 6153POPC   C4A77562  17.301  23.025   7.328
 6153POPC   C1B77563  17.179  22.573   6.243
 6153POPC   C2B77564  17.246  22.775   6.640
 6153POPC   C3B77565  17.152  22.610   7.042
 6153POPC   C4B77566  17.240  22.470   7.429
 6154POPC   NC377567  39.344   0.055   5.205
 6154POPC   PO477568  39.130  44.518   5.546
 6154POPC   GL177569  39.429  44.683   5.810
 6154POPC   GL277570  39.314   0.045   5.738
 6154POPC   C1A77571  39.643  44.501   6.190
 6154POPC   D2A77572  39.409  44.395   6.585
 6154POPC   C3A77573  39.543  44.486   7.030
 6154POPC   C4A77574  39.581  44.571   7.500
 6154POPC   C1B77575  39.045   0.014   6.111
 6154POPC   C2B77576  38.896  44.930   6.530
 6154POPC   C3B77577  39.163  44.800   6.881
 6154POPC   C4B77578  39.091  44.617   7.298
 6155POPC   NC377579  14.364  30.594   5.206
 6155POPC   PO477580  14.718  31.090   5.381
 6155POPC   GL177581  14.692  30.719   5.701
 6155POPC   GL277582  14.357  30.574   5.782
 6155POPC   C1A77583  14.768  30.572   6.168
 6155POPC   D2A77584  14.849  30.774   6.611
 6155POPC   C3A77585  14.674  30.611   7.015
 6155POPC   C4A77586  14.370  30.578   7.340
 6155POPC   C1B77587  14.233  30.669   6.242
 6155POPC   C2B77588  14.278  30.768   6.706
 6155POPC   C3B77589  13.982  30.718   7.062
 6155POPC   C4B77590  13.988  30.826   7.578
 6156POPC   NC377591   9.660  21.618   5.370
 6156POPC   PO477592   9.574  22.212   5.084
 6156POPC   GL177593   9.698  22.227   5.534
 6156POPC   GL277594   9.543  21.977   5.731
 6156POPC   C1A77595   9.795  22.327   6.010
 6156POPC   D2A77596   9.700  22.276   6.476
 6156POPC   C3A77597   9.807  22.462   6.873
 6156POPC   C4A77598   9.825  22.351   7.316
 6156POPC   C1B77599   9.548  21.874   6.182
 6156POPC   C2B77600   9.423  21.865   6.640
 6156POPC   C3B77601   9.612  21.945   7.063
 6156POPC   C4B77602   9.552  21.982   7.523
 6157POPC   NC377603  11.544  18.254   5.149
 6157POPC   PO477604  11.482  18.889   5.156
 6157POPC   GL177605  11.497  18.570   5.657
 6157POPC   GL277606  11.424  18.219   5.760
 6157POPC   C1A77607  11.547  18.483   6.164
 6157POPC   D2A77608  11.306  18.373   6.573
 6157POPC   C3A77609  11.408  18.508   7.014
 6157POPC   C4A77610  11.371  18.514   7.489
 6157POPC   C1B77611  11.216  18.036   6.164
 6157POPC   C2B77612  11.152  17.855   6.580
 6157POPC   C3B77613  11.382  17.929   6.940
 6157POPC   C4B77614  11.277  18.052   7.317
 6158POPC   NC377615  41.250   5.035   5.545
 6158POPC   PO477616  40.556   4.879   5.519
 6158POPC   GL177617  40.520   5.081   5.917
 6158POPC   GL277618  40.864   5.203   5.924
 6158POPC   C1A77619  40.678   4.920   6.330
 6158POPC   D2A77620  40.975   4.878   6.685
 6158POPC   C3A77621  40.704   4.962   7.017
 6158POPC   C4A77622  40.681   5.053   7.434
 6158POPC   C1B77623  41.070   5.249   6.340
 6158POPC   C2B77624  41.117   5.424   6.750
 6158POPC   C3B77625  41.053   5.347   7.214
 6158POPC   C4B77626  41.014   5.336   7.694
 6159POPC   NC377627   6.719  22.423   5.575
 6159POPC   PO477628   6.474  21.832   5.256
 6159POPC   GL177629   6.407  22.012   5.719
 6159POPC   GL277630   6.272  21.795   5.949
 6159POPC   C1A77631   6.519  22.169   6.191
 6159POPC   D2A77632   6.710  22.355   6.585
 6159POPC   C3A77633   6.498  22.414   6.964
 6159POPC   C4A77634   6.730  22.493   7.320
 6159POPC   C1B77635   6.130  21.792   6.340
 6159POPC   C2B77636   6.388  21.910   6.667
 6159POPC   C3B77637   6.242  21.981   7.061
 6159POPC   C4B77638   6.575  22.028   7.314
 6160POPC   NC377639   3.853   9.915   5.403
 6160POPC   PO477640   4.326  10.254   5.452
 6160POPC   GL177641   4.511  10.409   5.838
 6160POPC   GL277642   4.796  10.624   5.827
 6160POPC   C1A77643   4.642  10.276   6.253
 6160POPC   D2A77644   4.413  10.474   6.595
 6160POPC   C3A77645   4.133  10.338   6.935
 6160POPC   C4A77646   4.210  10.403   7.372
 6160POPC   C1B77647   4.693  10.788   6.260
 6160POPC   C2B77648   4.654  10.899   6.729
 6160POPC   C3B77649   4.494  10.837   7.162
 6160POPC   C4B77650   4.678  11.019   7.533
 6161POPC   NC377651  41.443  26.403   5.638
 6161POPC   PO477652  41.577  25.743   5.435
 6161POPC   GL177653  41.764  25.994   5.815
 6161POPC   GL277654  41.453  26.026   5.979
 6161POPC   C1A77655  41.799  25.951   6.332
 6161POPC   D2A77656  41.931  26.097   6.779
 6161POPC   C3A77657  41.625  26.038   7.131
 6161POPC   C4A77658  41.424  25.789   7.452
 6161POPC   C1B77659  41.368  26.354   6.282
 6161POPC   C2B77660  41.433  26.268   6.692
 6161POPC   C3B77661  41.400  26.486   7.038
 6161POPC   C4B77662  41.028  26.574   7.220
 6162POPC   NC377663  38.978  29.158   5.406
 6162POPC   PO477664  38.405  29.192   5.290
 6162POPC   GL177665  38.560  29.072   5.738
 6162POPC   GL277666  38.850  28.814   5.760
 6162POPC   C1A77667  38.366  29.221   6.159
 6162POPC   D2A77668  38.404  29.388   6.589
 6162POPC   C3A77669  38.445  29.208   7.036
 6162POPC   C4A77670  38.146  29.118   7.399
 6162POPC   C1B77671  38.801  28.957   6.190
 6162POPC   C2B77672  38.641  28.900   6.610
 6162POPC   C3B77673  38.789  28.801   7.020
 6162POPC   C4B77674  38.924  29.022   7.372
 6163POPC   NC377675  28.315   7.710   5.189
 6163POPC   PO477676  28.567   7.079   5.327
 6163POPC   GL177677  28.384   7.292   5.692
 6163POPC   GL277678  28.610   7.109   5.879
 6163POPC   C1A77679  28.411   7.535   6.118
 6163POPC   D2A77680  28.187   7.418   6.518
 6163POPC   C3A77681  28.392   7.454   6.889
 6163POPC   C4A77682  28.419   7.614   7.238
 6163POPC   C1B77683  28.451   7.027   6.295
 6163POPC   C2B77684  28.331   6.943   6.705
 6163POPC   C3B77685  28.035   7.114   6.964
 6163POPC   C4B77686  28.268   7.130   7.332
 6164POPC   NC377687  27.585   5.357   5.355
 6164POPC   PO477688  27.825   4.651   5.432
 6164POPC   GL177689  27.589   4.965   5.711
 6164POPC   GL277690  27.286   4.780   5.784
 6164POPC   C1A77691  27.513   5.192   6.142
 6164POPC   D2A77692  27.304   5.339   6.565
 6164POPC   C3A77693  27.532   5.283   6.990
 6164POPC   C4A77694  27.481   5.041   7.377
 6164POPC   C1B77695  27.599   4.664   6.140
 6164POPC   C2B77696  27.803   4.822   6.536
 6164POPC   C3B77697  27.742   4.800   6.982
 6164POPC   C4B77698  27.375   4.606   7.124
 6165POPC   NC377699  22.219  17.973   5.633
 6165POPC   PO477700  22.017  18.557   5.321
 6165POPC   GL177701  21.979  18.430   5.753
 6165POPC   GL277702  22.319  18.465   5.808
 6165POPC   C1A77703  21.887  18.247   6.183
 6165POPC   D2A77704  21.929  18.062   6.618
 6165POPC   C3A77705  21.958  18.294   6.989
 6165POPC   C4A77706  21.743  18.399   7.356
 6165POPC   C1B77707  22.278  18.553   6.244
 6165POPC   C2B77708  22.340  18.351   6.625
 6165POPC   C3B77709  22.468  18.242   7.031
 6165POPC   C4B77710  22.499  17.952   7.369
 6166POPC   NC377711   6.396  36.916   5.041
 6166POPC   PO477712   6.956  36.893   5.489
 6166POPC   GL177713   6.828  36.749   5.869
 6166POPC   GL277714   6.468  36.721   5.899
 6166POPC   C1A77715   6.824  36.832   6.308
 6166POPC   D2A77716   6.658  37.166   6.567
 6166POPC   C3A77717   6.637  37.088   6.979
 6166POPC   C4A77718   6.953  37.170   7.272
 6166POPC   C1B77719   6.323  36.854   6.312
 6166POPC   C2B77720   6.338  36.714   6.719
 6166POPC   C3B77721   6.334  36.672   7.139
 6166POPC   C4B77722   6.748  36.691   7.293
 6167POPC   NC377723  27.957  44.494   5.516
 6167POPC   PO477724  27.320  44.761   5.537
 6167POPC   GL177725  27.605  44.644   5.887
 6167POPC   GL277726  27.887  44.867   5.996
 6167POPC   C1A77727  27.586  44.391   6.246
 6167POPC   D2A77728  27.554  44.224   6.664
 6167POPC   C3A77729  27.790  44.433   6.953
 6167POPC   C4A77730  27.763  44.560   7.361
 6167POPC   C1B77731  27.557  44.990   6.281
 6167POPC   C2B77732  27.434   0.147   6.661
 6167POPC   C3B77733  27.623  44.924   7.004
 6167POPC   C4B77734  27.869   0.069   7.343
 6168POPC   NC377735  20.594  41.399   5.423
 6168POPC   PO477736  21.061  40.923   5.706
 6168POPC   GL177737  20.878  41.344   5.849
 6168POPC   GL277738  20.540  41.581   5.882
 6168POPC   C1A77739  20.866  41.565   6.241
 6168POPC   D2A77740  20.670  41.513   6.624
 6168POPC   C3A77741  20.884  41.743   6.924
 6168POPC   C4A77742  20.715  41.531   7.223
 6168POPC   C1B77743  20.273  41.547   6.254
 6168POPC   C2B77744  20.198  41.248   6.619
 6168POPC   C3B77745  20.347  41.193   7.065
 6168POPC   C4B77746  20.333  41.384   7.517
 6169POPC   NC377747  10.224  35.994   5.361
 6169POPC   PO477748  10.723  36.313   5.118
 6169POPC   GL177749  10.635  36.217   5.724
 6169POPC   GL277750  10.336  36.148   5.808
 6169POPC   C1A77751  10.574  36.322   6.186
 6169POPC   D2A77752  10.374  36.155   6.537
 6169POPC   C3A77753  10.401  36.344   6.899
 6169POPC   C4A77754  10.533  36.378   7.317
 6169POPC   C1B77755  10.249  35.860   6.136
 6169POPC   C2B77756  10.160  35.678   6.548
 6169POPC   C3B77757  10.229  35.841   6.937
 6169POPC   C4B77758  10.356  35.821   7.333
 6170POPC   NC377759  30.076  39.773   5.408
 6170POPC   PO477760  29.501  40.145   5.413
 6170POPC   GL177761  29.765  40.010   5.754
 6170POPC   GL277762  29.582  39.680   5.739
 6170POPC   C1A77763  30.008  40.142   6.172
 6170POPC   D2A77764  29.815  40.190   6.613
 6170POPC   C3A77765  30.015  40.155   7.049
 6170POPC   C4A77766  30.322  40.100   7.408
 6170POPC   C1B77767  29.637  39.794   6.196
 6170POPC   C2B77768  29.651  39.710   6.613
 6170POPC   C3B77769  29.588  39.860   7.056
 6170POPC   C4B77770  29.601  40.169   7.389
 6171POPC   NC377771  20.543  20.896   5.285
 6171POPC   PO477772  20.889  20.328   5.398
 6171POPC   GL177773  20.647  20.622   5.723
 6171POPC   GL277774  20.831  20.650   6.053
 6171POPC   C1A77775  20.351  20.761   6.087
 6171POPC   D2A77776  20.389  20.742   6.560
 6171POPC   C3A77777  20.828  20.851   6.719
 6171POPC   C4A77778  21.087  20.955   7.087
 6171POPC   C1B77779  20.554  20.326   6.274
 6171POPC   C2B77780  20.323  20.203   6.637
 6171POPC   C3B77781  20.343  20.340   7.054
 6171POPC   C4B77782  20.662  20.643   7.170
 6172POPC   NC377783  28.051  30.245   5.307
 6172POPC   PO477784  28.686  30.427   5.531
 6172POPC   GL177785  28.640  30.055   5.843
 6172POPC   GL277786  28.256  29.999   5.944
 6172POPC   C1A77787  28.593  29.846   6.273
 6172POPC   D2A77788  28.392  29.907   6.675
 6172POPC   C3A77789  28.578  29.883   7.061
 6172POPC   C4A77790  28.305  29.753   7.372
 6172POPC   C1B77791  28.162  30.253   6.372
 6172POPC   C2B77792  28.113  30.430   6.792
 6172POPC   C3B77793  28.143  30.167   7.142
 6172POPC   C4B77794  28.160  30.156   7.632
 6173POPC   NC377795  19.161  44.230   5.197
 6173POPC   PO477796  18.747  43.757   5.483
 6173POPC   GL177797  19.057  44.029   5.683
 6173POPC   GL277798  19.299  43.797   5.830
 6173POPC   C1A77799  19.134  44.177   6.120
 6173POPC   D2A77800  18.981  44.103   6.509
 6173POPC   C3A77801  19.198  44.123   6.895
 6173POPC   C4A77802  19.151  44.249   7.313
 6173POPC   C1B77803  19.186  43.645   6.249
 6173POPC   C2B77804  19.033  43.639   6.683
 6173POPC   C3B77805  18.820  43.511   7.032
 6173POPC   C4B77806  19.081  43.719   7.312
 6174POPC   NC377807   3.558  34.935   5.367
 6174POPC   PO477808   3.414  35.613   5.258
 6174POPC   GL177809   3.317  35.316   5.622
 6174POPC   GL277810   3.652  35.246   5.793
 6174POPC   C1A77811   3.219  35.259   6.077
 6174POPC   D2A77812   3.429  35.503   6.407
 6174POPC   C3A77813   3.248  35.395   6.802
 6174POPC   C4A77814   3.461  35.287   7.159
 6174POPC   C1B77815   3.891  35.177   6.196
 6174POPC   C2B77816   4.052  35.050   6.613
 6174POPC   C3B77817   3.947  35.195   7.035
 6174POPC   C4B77818   4.134  35.119   7.430
 6175POPC   NC377819   8.574   8.333   5.508
 6175POPC   PO477820   8.017   7.835   5.499
 6175POPC   GL177821   8.238   8.091   5.818
 6175POPC   GL277822   8.107   8.395   5.760
 6175POPC   C1A77823   8.370   8.292   6.248
 6175POPC   D2A77824   8.345   8.390   6.725
 6175POPC   C3A77825   8.154   8.042   7.041
 6175POPC   C4A77826   8.023   7.825   7.439
 6175POPC   C1B77827   7.886   8.472   6.121
 6175POPC   C2B77828   8.003   8.680   6.452
 6175POPC   C3B77829   7.853   8.696   6.844
 6175POPC   C4B77830   8.128   8.540   7.165
 6176POPC   NC377831  26.856  37.257   5.522
 6176POPC   PO477832  26.736  36.661   5.542
 6176POPC   GL177833  26.960  36.863   5.877
 6176POPC   GL277834  26.679  37.045   5.943
 6176POPC   C1A77835  26.908  36.914   6.353
 6176POPC   D2A77836  26.592  36.718   6.607
 6176POPC   C3A77837  26.689  36.682   7.052
 6176POPC   C4A77838  26.829  36.768   7.494
 6176POPC   C1B77839  26.450  37.191   6.298
 6176POPC   C2B77840  26.485  37.320   6.752
 6176POPC   C3B77841  26.614  37.172   7.188
 6176POPC   C4B77842  26.620  37.213   7.674
 6177POPC   NC377843  15.157   4.897   5.409
 6177POPC   PO477844  15.243   5.559   5.452
 6177POPC   GL177845  15.187   5.249   5.784
 6177POPC   GL277846  14.841   5.103   5.758
 6177POPC   C1A77847  15.265   5.129   6.196
 6177POPC   D2A77848  15.372   5.306   6.554
 6177POPC   C3A77849  15.393   5.031   6.869
 6177POPC   C4A77850  15.625   5.062   7.209
 6177POPC   C1B77851  14.783   5.308   6.156
 6177POPC   C2B77852  14.874   5.113   6.556
 6177POPC   C3B77853  14.956   5.289   6.937
 6177POPC   C4B77854  15.168   5.286   7.341
 6178POPC   NC377855   8.759  21.649   5.616
 6178POPC   PO477856   9.264  21.138   5.476
 6178POPC   GL177857   9.039  21.318   5.870
 6178POPC   GL277858   8.693  21.241   5.931
 6178POPC   C1A77859   8.942  21.533   6.258
 6178POPC   D2A77860   8.685  21.454   6.606
 6178POPC   C3A77861   8.920  21.544   6.952
 6178POPC   C4A77862   8.878  21.415   7.374
 6178POPC   C1B77863   8.587  21.036   6.300
 6178POPC   C2B77864   8.390  21.039   6.713
 6178POPC   C3B77865   8.607  20.964   7.096
 6178POPC   C4B77866   8.560  21.031   7.548
 6179POPC   NC377867  22.347  28.260   5.255
 6179POPC   PO477868  21.987  28.761   5.546
 6179POPC   GL177869  22.193  28.497   5.882
 6179POPC   GL277870  22.363  28.170   5.777
 6179POPC   C1A77871  22.154  28.574   6.335
 6179POPC   D2A77872  22.287  28.562   6.747
 6179POPC   C3A77873  22.046  28.647   7.065
 6179POPC   C4A77874  21.953  28.248   7.202
 6179POPC   C1B77875  22.517  28.208   6.215
 6179POPC   C2B77876  22.638  28.081   6.633
 6179POPC   C3B77877  22.525  28.227   7.047
 6179POPC   C4B77878  22.520  28.032   7.486
 6180POPC   NC377879  31.187  13.175   5.772
 6180POPC   PO477880  30.622  12.871   5.423
 6180POPC   GL177881  30.539  12.776   5.824
 6180POPC   GL277882  30.679  12.454   5.893
 6180POPC   C1A77883  30.775  12.852   6.189
 6180POPC   D2A77884  30.669  12.781   6.593
 6180POPC   C3A77885  30.669  13.135   6.876
 6180POPC   C4A77886  30.573  13.062   7.311
 6180POPC   C1B77887  30.370  12.503   6.226
 6180POPC   C2B77888  30.419  12.331   6.640
 6180POPC   C3B77889  30.619  12.479   7.001
 6180POPC   C4B77890  30.358  12.432   7.322
 6181POPC   NC377891  28.893   1.887   5.303
 6181POPC   PO477892  28.183   1.672   5.481
 6181POPC   GL177893  28.202   1.946   5.797
 6181POPC   GL277894  28.562   1.994   5.761
 6181POPC   C1A77895  28.002   2.028   6.200
 6181POPC   D2A77896  28.160   1.885   6.592
 6181POPC   C3A77897  28.017   2.019   6.985
 6181POPC   C4A77898  28.253   1.950   7.343
 6181POPC   C1B77899  28.500   2.109   6.198
 6181POPC   C2B77900  28.487   2.314   6.610
 6181POPC   C3B77901  28.570   2.069   6.970
 6181POPC   C4B77902  28.761   2.085   7.375
 6182POPC   NC377903   5.414   3.373   5.517
 6182POPC   PO477904   6.089   3.549   5.446
 6182POPC   GL177905   6.028   3.777   5.822
 6182POPC   GL277906   5.780   3.507   5.889
 6182POPC   C1A77907   6.031   3.766   6.279
 6182POPC   D2A77908   5.716   3.552   6.548
 6182POPC   C3A77909   5.681   3.754   6.938
 6182POPC   C4A77910   5.948   3.825   7.273
 6182POPC   C1B77911   6.014   3.269   6.194
 6182POPC   C2B77912   6.177   3.288   6.590
 6182POPC   C3B77913   5.957   3.320   6.943
 6182POPC   C4B77914   6.080   3.348   7.321
 6183POPC   NC377915  22.762   2.549   5.545
 6183POPC   PO477916  23.327   3.006   5.511
 6183POPC   GL177917  23.038   2.933   5.813
 6183POPC   GL277918  23.161   2.611   5.918
 6183POPC   C1A77919  22.819   2.923   6.199
 6183POPC   D2A77920  22.899   2.717   6.566
 6183POPC   C3A77921  22.759   2.882   6.942
 6183POPC   C4A77922  22.704   2.947   7.377
 6183POPC   C1B77923  23.359   2.571   6.342
 6183POPC   C2B77924  23.284   2.520   6.812
 6183POPC   C3B77925  23.219   2.611   7.217
 6183POPC   C4B77926  23.203   2.915   7.523
 6184POPC   NC377927  14.593   4.382   5.170
 6184POPC   PO477928  15.206   4.466   5.223
 6184POPC   GL177929  15.266   4.436   5.708
 6184POPC   GL277930  15.217   4.720   5.909
 6184POPC   C1A77931  15.091   4.163   6.058
 6184POPC   D2A77932  15.036   3.904   6.459
 6184POPC   C3A77933  14.862   4.054   6.872
 6184POPC   C4A77934  15.117   4.141   7.220
 6184POPC   C1B77935  15.155   4.565   6.361
 6184POPC   C2B77936  15.305   4.309   6.735
 6184POPC   C3B77937  15.333   4.580   7.109
 6184POPC   C4B77938  14.931   4.843   7.200
 6185POPC   NC377939  17.214  20.220   5.519
 6185POPC   PO477940  17.531  20.831   5.540
 6185POPC   GL177941  17.715  20.688   5.905
 6185POPC   GL277942  17.672  20.337   5.811
 6185POPC   C1A77943  17.570  20.764   6.332
 6185POPC   D2A77944  17.728  20.748   6.753
 6185POPC   C3A77945  17.517  20.923   7.134
 6185POPC   C4A77946  17.590  20.973   7.593
 6185POPC   C1B77947  17.711  20.283   6.251
 6185POPC   C2B77948  17.393  20.322   6.608
 6185POPC   C3B77949  17.461  20.419   7.037
 6185POPC   C4B77950  17.907  20.358   7.075
 6186POPC   NC377951   9.128  13.816   5.205
 6186POPC   PO477952   8.704  13.372   5.440
 6186POPC   GL177953   8.893  13.510   5.794
 6186POPC   GL277954   9.119  13.733   5.699
 6186POPC   C1A77955   8.808  13.569   6.245
 6186POPC   D2A77956   8.805  13.886   6.578
 6186POPC   C3A77957   8.902  13.751   7.007
 6186POPC   C4A77958   9.000  13.449   7.322
 6186POPC   C1B77959   9.259  13.730   6.101
 6186POPC   C2B77960   9.306  13.708   6.547
 6186POPC   C3B77961   9.362  13.536   6.959
 6186POPC   C4B77962   9.449  13.731   7.331
 6187POPC   NC377963  29.101   3.489   5.536
 6187POPC   PO477964  29.396   4.065   5.543
 6187POPC   GL177965  29.255   3.846   5.917
 6187POPC   GL277966  28.956   3.701   5.966
 6187POPC   C1A77967  29.353   3.547   6.278
 6187POPC   D2A77968  29.272   3.252   6.644
 6187POPC   C3A77969  29.240   3.509   6.988
 6187POPC   C4A77970  28.998   3.844   7.104
 6187POPC   C1B77971  28.848   3.377   6.284
 6187POPC   C2B77972  28.735   3.262   6.707
 6187POPC   C3B77973  28.816   3.299   7.152
 6187POPC   C4B77974  28.827   2.970   7.431
 6188POPC   NC377975  34.214  10.769   5.450
 6188POPC   PO477976  33.724  10.346   5.366
 6188POPC   GL177977  33.951  10.431   5.751
 6188POPC   GL277978  33.788  10.716   5.796
 6188POPC   C1A77979  34.075  10.519   6.203
 6188POPC   D2A77980  33.846  10.440   6.648
 6188POPC   C3A77981  33.954  10.642   7.087
 6188POPC   C4A77982  34.101  10.660   7.584
 6188POPC   C1B77983  33.523  10.547   6.148
 6188POPC   C2B77984  33.337  10.678   6.562
 6188POPC   C3B77985  33.427  10.593   6.993
 6188POPC   C4B77986  33.588  10.236   7.199
 6189POPC   NC377987  14.251   6.379   5.412
 6189POPC   PO477988  14.263   5.747   5.386
 6189POPC   GL177989  14.523   5.767   5.774
 6189POPC   GL277990  14.475   6.106   5.797
 6189POPC   C1A77991  14.676   5.877   6.219
 6189POPC   D2A77992  14.470   5.990   6.612
 6189POPC   C3A77993  14.629   5.968   7.029
 6189POPC   C4A77994  14.880   5.688   7.239
 6189POPC   C1B77995  14.253   6.234   6.177
 6189POPC   C2B77996  14.138   6.364   6.609
 6189POPC   C3B77997  14.191   6.234   7.036
 6189POPC   C4B77998  14.406   6.368   7.438
 6190POPC   NC377999  21.614  31.749   5.495
 6190POPC   PO478000  21.216  31.164   5.574
 6190POPC   GL178001  21.443  31.281   5.904
 6190POPC   GL278002  21.332  31.611   5.888
 6190POPC   C1A78003  21.350  31.305   6.338
 6190POPC   D2A78004  21.506  31.484   6.704
 6190POPC   C3A78005  21.407  31.335   7.086
 6190POPC   C4A78006  21.459  31.286   7.509
 6190POPC   C1B78007  21.086  31.746   6.221
 6190POPC   C2B78008  20.974  31.575   6.599
 6190POPC   C3B78009  21.119  31.816   6.907
 6190POPC   C4B78010  21.114  31.694   7.299
 6191POPC   NC378011  14.937  12.458   5.421
 6191POPC   PO478012  15.239  11.926   5.479
 6191POPC   GL178013  15.308  12.176   5.832
 6191POPC   GL278014  14.974  12.260   5.883
 6191POPC   C1A78015  15.303  12.067   6.280
 6191POPC   D2A78016  15.115  11.922   6.644
 6191POPC   C3A78017  15.289  12.101   6.979
 6191POPC   C4A78018  15.339  12.264   7.345
 6191POPC   C1B78019  14.956  12.465   6.257
 6191POPC   C2B78020  15.142  12.456   6.644
 6191POPC   C3B78021  15.085  12.604   7.055
 6191POPC   C4B78022  15.071  12.673   7.490
 6192POPC   NC378023  18.608  33.576   5.327
 6192POPC   PO478024  18.026  33.883   5.412
 6192POPC   GL178025  18.348  33.899   5.728
 6192POPC   GL278026  18.417  33.567   5.801
 6192POPC   C1A78027  18.249  33.951   6.176
 6192POPC   D2A78028  18.396  33.909   6.604
 6192POPC   C3A78029  18.147  33.905   6.996
 6192POPC   C4A78030  18.148  34.023   7.444
 6192POPC   C1B78031  18.627  33.598   6.189
 6192POPC   C2B78032  18.514  33.414   6.591
 6192POPC   C3B78033  18.539  33.584   6.994
 6192POPC   C4B78034  18.311  33.538   7.376
 6193POPC   NC378035  44.515  19.845   5.591
 6193POPC   PO478036   0.128  19.537   5.457
 6193POPC   GL178037  44.951  19.651   5.815
 6193POPC   GL278038  44.959  20.026   5.792
 6193POPC   C1A78039  44.790  19.714   6.212
 6193POPC   D2A78040  44.602  19.925   6.577
 6193POPC   C3A78041  44.756  19.754   6.954
 6193POPC   C4A78042  44.465  19.500   7.199
 6193POPC   C1B78043  44.706  20.213   6.156
 6193POPC   C2B78044  44.793  20.394   6.582
 6193POPC   C3B78045  44.554  20.294   6.980
 6193POPC   C4B78046  44.556  19.992   7.366
 6194POPC   NC378047   9.422  43.353   5.485
 6194POPC   PO478048   9.964  42.889   5.419
 6194POPC   GL178049   9.790  43.033   5.754
 6194POPC   GL278050   9.841  43.368   5.799
 6194POPC   C1A78051   9.987  43.045   6.164
 6194POPC   D2A78052   9.984  43.215   6.546
 6194POPC   C3A78053  10.034  43.000   6.906
 6194POPC   C4A78054   9.840  43.035   7.314
 6194POPC   C1B78055   9.481  43.179   6.124
 6194POPC   C2B78056   9.368  43.003   6.524
 6194POPC   C3B78057   9.551  43.189   6.888
 6194POPC   C4B78058   9.524  43.450   7.239
 6195POPC   NC378059  19.999  27.978   5.488
 6195POPC   PO478060  19.636  28.592   5.403
 6195POPC   GL178061  19.632  28.352   5.765
 6195POPC   GL278062  19.980  28.395   5.813
 6195POPC   C1A78063  19.693  28.230   6.204
 6195POPC   D2A78064  19.897  28.341   6.581
 6195POPC   C3A78065  19.634  28.167   6.894
 6195POPC   C4A78066  19.472  28.272   7.278
 6195POPC   C1B78067  20.189  28.116   6.117
 6195POPC   C2B78068  20.335  28.050   6.542
 6195POPC   C3B78069  20.207  28.177   6.964
 6195POPC   C4B78070  19.954  28.446   7.195
 6196POPC   NC378071   8.652   6.770   5.516
 6196POPC   PO478072   9.280   7.067   5.674
 6196POPC   GL178073   9.079   6.685   5.850
 6196POPC   GL278074   9.177   6.315   5.957
 6196POPC   C1A78075   8.967   6.679   6.274
 6196POPC   D2A78076   8.765   6.654   6.647
 6196POPC   C3A78077   8.927   6.918   6.934
 6196POPC   C4A78078   9.021   6.947   7.361
 6196POPC   C1B78079   8.842   6.173   6.318
 6196POPC   C2B78080   8.540   6.199   6.705
 6196POPC   C3B78081   8.769   6.359   7.088
 6196POPC   C4B78082   9.197   6.514   7.137
 6197POPC   NC378083   7.547  13.524   5.308
 6197POPC   PO478084   7.106  13.996   5.235
 6197POPC   GL178085   7.247  13.782   5.653
 6197POPC   GL278086   7.221  13.425   5.712
 6197POPC   C1A78087   7.427  13.735   6.086
 6197POPC   D2A78088   7.451  13.602   6.554
 6197POPC   C3A78089   7.400  13.835   6.953
 6197POPC   C4A78090   7.213  13.927   7.373
 6197POPC   C1B78091   7.190  13.279   6.150
 6197POPC   C2B78092   7.020  13.278   6.559
 6197POPC   C3B78093   7.183  13.354   6.946
 6197POPC   C4B78094   7.584  13.403   7.126
 6198POPC   NC378095  33.618  13.946   5.583
 6198POPC   PO478096  33.897  14.629   5.511
 6198POPC   GL178097  33.981  14.596   5.906
 6198POPC   GL278098  33.960  14.236   5.898
 6198POPC   C1A78099  33.887  14.488   6.329
 6198POPC   D2A78100  33.790  14.268   6.673
 6198POPC   C3A78101  34.064  14.387   6.926
 6198POPC   C4A78102  33.936  14.675   7.232
 6198POPC   C1B78103  33.624  14.082   6.214
 6198POPC   C2B78104  33.369  14.012   6.605
 6198POPC   C3B78105  33.527  13.937   7.000
 6198POPC   C4B78106  33.804  14.168   7.300
 6199POPC   NC378107   7.628  29.722   5.475
 6199POPC   PO478108   7.339  30.267   5.520
 6199POPC   GL178109   7.399  30.010   5.872
 6199POPC   GL278110   7.195  29.715   5.850
 6199POPC   C1A78111   7.444  30.150   6.310
 6199POPC   D2A78112   7.259  29.957   6.664
 6199POPC   C3A78113   7.321  30.126   7.056
 6199POPC   C4A78114   7.510  30.137   7.454
 6199POPC   C1B78115   7.420  29.663   6.265
 6199POPC   C2B78116   7.705  29.689   6.612
 6199POPC   C3B78117   7.510  29.604   7.026
 6199POPC   C4B78118   7.073  29.655   7.034
 6200POPC   NC378119  44.403   5.508   5.625
 6200POPC   PO478120  44.389   6.036   5.231
 6200POPC   GL178121  44.428   6.062   5.715
 6200POPC   GL278122  44.742   5.878   5.817
 6200POPC   C1A78123  44.331   5.919   6.162
 6200POPC   D2A78124  44.453   5.798   6.602
 6200POPC   C3A78125  44.492   6.066   6.950
 6200POPC   C4A78126  44.242   5.971   7.268
 6200POPC   C1B78127  44.806   5.706   6.231
 6200POPC   C2B78128  44.936   5.603   6.628
 6200POPC   C3B78129  44.982   5.902   6.938
 6200POPC   C4B78130  44.967   6.025   7.345
 6201POPC   NC378131  12.965   7.126   5.337
 6201POPC   PO478132  12.622   7.557   5.670
 6201POPC   GL178133  12.899   7.251   5.834
 6201POPC   GL278134  12.678   6.961   5.796
 6201POPC   C1A78135  13.073   7.360   6.242
 6201POPC   D2A78136  12.849   7.407   6.640
 6201POPC   C3A78137  13.142   7.593   6.929
 6201POPC   C4A78138  13.254   7.485   7.344
 6201POPC   C1B78139  12.619   7.097   6.236
 6201POPC   C2B78140  12.339   7.129   6.587
 6201POPC   C3B78141  12.498   7.137   6.975
 6201POPC   C4B78142  12.925   7.150   7.121
 6202POPC   NC378143  33.388  37.734   5.528
 6202POPC   PO478144  34.079  37.960   5.439
 6202POPC   GL178145  33.836  37.837   5.783
 6202POPC   GL278146  33.827  37.473   5.750
 6202POPC   C1A78147  33.791  37.907   6.226
 6202POPC   D2A78148  33.510  37.774   6.553
 6202POPC   C3A78149  33.664  37.924   6.953
 6202POPC   C4A78150  33.748  37.733   7.343
 6202POPC   C1B78151  33.621  37.429   6.139
 6202POPC   C2B78152  33.707  37.301   6.562
 6202POPC   C3B78153  33.502  37.428   6.952
 6202POPC   C4B78154  33.216  37.251   7.215
 6203POPC   NC378155  12.336  23.449   5.398
 6203POPC   PO478156  12.496  24.119   5.460
 6203POPC   GL178157  12.267  23.808   5.778
 6203POPC   GL278158  11.921  23.700   5.678
 6203POPC   C1A78159  12.332  23.570   6.214
 6203POPC   D2A78160  12.326  23.641   6.678
 6203POPC   C3A78161  12.156  23.677   7.092
 6203POPC   C4A78162  12.367  23.648   7.504
 6203POPC   C1B78163  11.829  23.610   6.129
 6203POPC   C2B78164  11.912  23.355   6.526
 6203POPC   C3B78165  11.839  23.258   6.984
 6203POPC   C4B78166  11.913  23.395   7.442
 6204POPC   NC378167  18.426   0.726   5.426
 6204POPC   PO478168  18.278   0.107   5.293
 6204POPC   GL178169  18.339   0.316   5.726
 6204POPC   GL278170  18.619   0.519   5.845
 6204POPC   C1A78171  18.219   0.345   6.177
 6204POPC   D2A78172  18.425   0.331   6.594
 6204POPC   C3A78173  18.071   0.281   6.828
 6204POPC   C4A78174  18.020   0.218   7.232
 6204POPC   C1B78175  18.574   0.692   6.274
 6204POPC   C2B78176  18.385   0.837   6.689
 6204POPC   C3B78177  18.248   0.678   7.099
 6204POPC   C4B78178  17.786   0.656   7.267
 6205POPC   NC378179  37.599  41.352   5.524
 6205POPC   PO478180  37.320  41.964   5.606
 6205POPC   GL178181  37.732  41.677   5.864
 6205POPC   GL278182  37.941  41.278   5.862
 6205POPC   C1A78183  37.603  41.406   6.247
 6205POPC   D2A78184  37.482  41.296   6.703
 6205POPC   C3A78185  37.559  41.569   7.063
 6205POPC   C4A78186  37.889  41.703   7.394
 6205POPC   C1B78187  38.119  41.390   6.207
 6205POPC   C2B78188  37.968  41.230   6.575
 6205POPC   C3B78189  38.009  41.379   6.956
 6205POPC   C4B78190  37.849  41.212   7.282
 6206POPC   NC378191  39.046   8.459   5.371
 6206POPC   PO478192  39.117   9.145   5.378
 6206POPC   GL178193  39.319   8.949   5.756
 6206POPC   GL278194  39.136   8.671   5.828
 6206POPC   C1A78195  39.482   8.782   6.168
 6206POPC   D2A78196  39.254   8.643   6.542
 6206POPC   C3A78197  39.394   8.848   6.926
 6206POPC   C4A78198  39.400   9.050   7.354
 6206POPC   C1B78199  39.017   8.987   6.171
 6206POPC   C2B78200  39.085   9.129   6.580
 6206POPC   C3B78201  39.014   9.196   6.999
 6206POPC   C4B78202  39.018   9.392   7.403
 6207POPC   NC378203  21.612  34.154   5.331
 6207POPC   PO478204  21.205  34.565   5.075
 6207POPC   GL178205  21.339  34.581   5.568
 6207POPC   GL278206  21.724  34.562   5.627
 6207POPC   C1A78207  21.413  34.595   6.078
 6207POPC   D2A78208  21.348  34.400   6.524
 6207POPC   C3A78209  21.388  34.655   6.926
 6207POPC   C4A78210  21.445  34.864   7.331
 6207POPC   C1B78211  21.878  34.319   6.000
 6207POPC   C2B78212  21.895  34.335   6.461
 6207POPC   C3B78213  21.720  34.274   6.877
 6207POPC   C4B78214  21.706  34.422   7.295
 6208POPC   NC378215  41.333  39.708   5.213
 6208POPC   PO478216  41.506  39.047   5.424
 6208POPC   GL178217  41.543  39.017   5.849
 6208POPC   GL278218  41.881  38.929   5.866
 6208POPC   C1A78219  41.459  39.274   6.208
 6208POPC   D2A78220  41.600  39.573   6.519
 6208POPC   C3A78221  41.560  39.394   6.913
 6208POPC   C4A78222  41.489  39.531   7.330
 6208POPC   C1B78223  41.717  38.771   6.272
 6208POPC   C2B78224  41.797  38.716   6.727
 6208POPC   C3B78225  41.724  38.933   7.075
 6208POPC   C4B78226  41.529  38.935   7.451
 6209POPC   NC378227   8.646  42.550   5.367
 6209POPC   PO478228   8.850  42.020   5.567
 6209POPC   GL178229   9.086  42.314   5.848
 6209POPC   GL278230   9.266  42.072   6.057
 6209POPC   C1A78231   9.182  42.525   6.280
 6209POPC   D2A78232   9.364  42.333   6.662
 6209POPC   C3A78233   9.157  42.526   7.042
 6209POPC   C4A78234   8.712  42.472   7.091
 6209POPC   C1B78235   8.818  42.128   6.252
 6209POPC   C2B78236   8.670  42.032   6.682
 6209POPC   C3B78237   9.000  42.044   6.964
 6209POPC   C4B78238   9.037  42.145   7.393
 6210POPC   NC378239  29.704  42.094   5.499
 6210POPC   PO478240  30.095  42.671   5.512
 6210POPC   GL178241  29.865  42.490   5.837
 6210POPC   GL278242  29.950  42.165   5.931
 6210POPC   C1A78243  29.860  42.620   6.262
 6210POPC   D2A78244  29.965  42.603   6.694
 6210POPC   C3A78245  29.785  42.484   7.082
 6210POPC   C4A78246  30.035  42.400   7.436
 6210POPC   C1B78247  30.041  42.018   6.329
 6210POPC   C2B78248  30.184  42.131   6.718
 6210POPC   C3B78249  30.012  42.042   7.071
 6210POPC   C4B78250  29.575  42.021   7.180
 6211POPC   NC378251  39.304   7.727   5.392
 6211POPC   PO478252  39.508   8.468   5.384
 6211POPC   GL178253  39.296   8.180   5.724
 6211POPC   GL278254  39.436   7.855   5.886
 6211POPC   C1A78255  39.190   8.274   6.165
 6211POPC   D2A78256  39.426   8.129   6.534
 6211POPC   C3A78257  39.413   8.327   6.948
 6211POPC   C4A78258  39.141   8.381   7.309
 6211POPC   C1B78259  39.097   7.774   6.209
 6211POPC   C2B78260  38.992   7.868   6.668
 6211POPC   C3B78261  38.984   7.873   7.153
 6211POPC   C4B78262  39.040   7.754   7.613
 6212POPC   NC378263  24.319  29.729   5.288
 6212POPC   PO478264  24.904  30.029   5.487
 6212POPC   GL178265  24.829  29.904   5.868
 6212POPC   GL278266  24.477  29.900   5.853
 6212POPC   C1A78267  24.697  30.017   6.292
 6212POPC   D2A78268  24.562  29.833   6.666
 6212POPC   C3A78269  24.725  29.924   7.071
 6212POPC   C4A78270  24.684  30.071   7.476
 6212POPC   C1B78271  24.318  29.647   6.194
 6212POPC   C2B78272  24.152  29.542   6.624
 6212POPC   C3B78273  24.226  29.696   7.075
 6212POPC   C4B78274  24.241  29.788   7.540
 6213POPC   NC378275   6.509  28.993   5.558
 6213POPC   PO478276   6.984  29.367   5.266
 6213POPC   GL178277   6.888  29.310   5.744
 6213POPC   GL278278   6.785  29.025   5.976
 6213POPC   C1A78279   6.804  29.522   6.160
 6213POPC   D2A78280   6.514  29.416   6.515
 6213POPC   C3A78281   6.656  29.340   6.960
 6213POPC   C4A78282   6.757  29.033   7.303
 6213POPC   C1B78283   6.433  28.777   6.183
 6213POPC   C2B78284   6.268  28.743   6.603
 6213POPC   C3B78285   6.233  29.011   6.929
 6213POPC   C4B78286   6.433  28.674   7.150
 6214POPC   NC378287  11.060  37.982   5.409
 6214POPC   PO478288  11.400  37.441   5.426
 6214POPC   GL178289  11.215  37.560   5.827
 6214POPC   GL278290  11.329  37.901   5.843
 6214POPC   C1A78291  11.434  37.643   6.252
 6214POPC   D2A78292  11.461  37.906   6.608
 6214POPC   C3A78293  11.553  37.583   6.873
 6214POPC   C4A78294  11.305  37.450   7.223
 6214POPC   C1B78295  11.155  38.103   6.236
 6214POPC   C2B78296  10.977  38.195   6.655
 6214POPC   C3B78297  11.132  38.039   7.057
 6214POPC   C4B78298  11.510  37.950   7.213
 6215POPC   NC378299  26.030  25.832   5.332
 6215POPC   PO478300  26.121  25.140   5.369
 6215POPC   GL178301  26.223  25.212   5.788
 6215POPC   GL278302  26.013  25.523   5.790
 6215POPC   C1A78303  26.057  25.223   6.221
 6215POPC   D2A78304  25.866  25.382   6.589
 6215POPC   C3A78305  25.933  25.143   6.933
 6215POPC   C4A78306  26.217  24.989   7.189
 6215POPC   C1B78307  25.862  25.729   6.180
 6215POPC   C2B78308  25.687  25.863   6.605
 6215POPC   C3B78309  25.913  25.771   6.999
 6215POPC   C4B78310  25.942  25.467   7.330
 6216POPC   NC378311  43.362  15.436   5.551
 6216POPC   PO478312  42.858  14.968   5.533
 6216POPC   GL178313  43.015  15.212   5.861
 6216POPC   GL278314  42.797  15.489   5.957
 6216POPC   C1A78315  43.237  15.257   6.237
 6216POPC   D2A78316  43.076  15.201   6.649
 6216POPC   C3A78317  43.233  15.295   7.050
 6216POPC   C4A78318  43.186  14.975   7.351
 6216POPC   C1B78319  42.666  15.294   6.359
 6216POPC   C2B78320  42.682  15.511   6.761
 6216POPC   C3B78321  42.812  15.534   7.185
 6216POPC   C4B78322  42.997  15.403   7.528
 6217POPC   NC378323   7.333   9.035   5.496
 6217POPC   PO478324   7.819   8.569   5.376
 6217POPC   GL178325   7.589   8.630   5.749
 6217POPC   GL278326   7.268   8.539   5.658
 6217POPC   C1A78327   7.530   8.902   6.143
 6217POPC   D2A78328   7.359   9.210   6.453
 6217POPC   C3A78329   7.433   9.014   6.838
 6217POPC   C4A78330   7.315   9.008   7.223
 6217POPC   C1B78331   7.188   8.527   6.105
 6217POPC   C2B78332   7.341   8.610   6.543
 6217POPC   C3B78333   7.108   8.566   6.952
 6217POPC   C4B78334   7.051   8.614   7.423
 6218POPC   NC378335   2.873  27.839   5.580
 6218POPC   PO478336   2.794  28.607   5.433
 6218POPC   GL178337   2.772  28.574   5.835
 6218POPC   GL278338   2.616  28.263   5.785
 6218POPC   C1A78339   2.817  28.455   6.259
 6218POPC   D2A78340   2.758  28.639   6.666
 6218POPC   C3A78341   3.004  28.457   6.971
 6218POPC   C4A78342   3.287  28.522   7.274
 6218POPC   C1B78343   2.354  28.254   6.130
 6218POPC   C2B78344   2.410  28.258   6.554
 6218POPC   C3B78345   2.554  28.203   6.983
 6218POPC   C4B78346   2.443  28.077   7.379
 6219POPC   NC378347  29.756  28.670   5.490
 6219POPC   PO478348  30.237  28.476   5.770
 6219POPC   GL178349  29.939  28.644   6.014
 6219POPC   GL278350  29.738  28.400   5.918
 6219POPC   C1A78351  29.930  28.658   6.462
 6219POPC   D2A78352  29.746  28.555   6.844
 6219POPC   C3A78353  29.981  28.578   7.221
 6219POPC   C4A78354  30.004  28.258   7.555
 6219POPC   C1B78355  29.789  28.194   6.300
 6219POPC   C2B78356  29.811  28.013   6.708
 6219POPC   C3B78357  29.757  28.109   7.122
 6219POPC   C4B78358  29.493  28.454   7.296
 6220POPC   NC378359  18.577  23.708   5.094
 6220POPC   PO478360  18.182  23.502   5.573
 6220POPC   GL178361  18.330  23.626   5.946
 6220POPC   GL278362  18.341  23.988   5.974
 6220POPC   C1A78363  18.481  23.518   6.311
 6220POPC   D2A78364  18.227  23.409   6.614
 6220POPC   C3A78365  18.456  23.437   6.917
 6220POPC   C4A78366  18.432  23.479   7.308
 6220POPC   C1B78367  18.212  23.943   6.334
 6220POPC   C2B78368  18.364  23.897   6.678
 6220POPC   C3B78369  18.197  23.920   7.003
 6220POPC   C4B78370  18.302  24.042   7.362
 6221POPC   NC378371  28.878  16.866   5.076
 6221POPC   PO478372  28.286  16.836   5.499
 6221POPC   GL178373  28.319  16.725   5.886
 6221POPC   GL278374  28.642  16.622   5.895
 6221POPC   C1A78375  28.354  16.501   6.287
 6221POPC   D2A78376  28.332  16.735   6.632
 6221POPC   C3A78377  28.417  16.542   6.957
 6221POPC   C4A78378  28.221  16.537   7.323
 6221POPC   C1B78379  28.615  16.931   6.245
 6221POPC   C2B78380  28.477  17.212   6.569
 6221POPC   C3B78381  28.569  17.106   6.973
 6221POPC   C4B78382  28.653  16.813   7.298
 6222POPC   NC378383  36.819  24.879   5.479
 6222POPC   PO478384  37.178  25.448   5.346
 6222POPC   GL178385  37.122  25.187   5.758
 6222POPC   GL278386  37.325  25.145   6.053
 6222POPC   C1A78387  36.842  25.075   6.146
 6222POPC   D2A78388  36.911  25.268   6.549
 6222POPC   C3A78389  36.943  25.106   6.950
 6222POPC   C4A78390  36.742  25.274   7.311
 6222POPC   C1B78391  37.181  25.565   6.197
 6222POPC   C2B78392  37.043  25.765   6.598
 6222POPC   C3B78393  36.873  25.620   6.956
 6222POPC   C4B78394  37.193  25.487   7.220
 6223POPC   NC378395   5.311  21.455   5.384
 6223POPC   PO478396   4.717  21.769   5.440
 6223POPC   GL178397   4.952  21.481   5.737
 6223POPC   GL278398   5.336  21.504   5.881
 6223POPC   C1A78399   4.953  21.353   6.164
 6223POPC   D2A78400   5.239  21.273   6.485
 6223POPC   C3A78401   5.125  21.329   6.908
 6223POPC   C4A78402   5.076  21.416   7.309
 6223POPC   C1B78403   5.424  21.082   6.036
 6223POPC   C2B78404   5.493  20.832   6.417
 6223POPC   C3B78405   5.398  20.904   6.851
 6223POPC   C4B78406   5.511  21.092   7.260
 6224POPC   NC378407  34.144  25.912   5.454
 6224POPC   PO478408  34.420  26.464   5.265
 6224POPC   GL178409  34.485  26.208   5.690
 6224POPC   GL278410  34.805  26.010   5.694
 6224POPC   C1A78411  34.388  26.114   6.169
 6224POPC   D2A78412  34.186  25.913   6.563
 6224POPC   C3A78413  34.377  26.095   6.952
 6224POPC   C4A78414  34.696  26.355   7.177
 6224POPC   C1B78415  34.754  25.773   6.075
 6224POPC   C2B78416  34.736  25.836   6.515
 6224POPC   C3B78417  34.661  25.642   6.898
 6224POPC   C4B78418  34.610  25.790   7.293
 6225POPC   NC378419  40.712  31.634   5.167
 6225POPC   PO478420  41.008  31.138   5.618
 6225POPC   GL178421  40.706  31.413   5.850
 6225POPC   GL278422  40.400  31.224   5.857
 6225POPC   C1A78423  40.744  31.613   6.283
 6225POPC   D2A78424  41.099  31.499   6.594
 6225POPC   C3A78425  41.022  31.551   7.038
 6225POPC   C4A78426  40.634  31.727   7.192
 6225POPC   C1B78427  40.468  31.183   6.299
 6225POPC   C2B78428  40.603  31.335   6.701
 6225POPC   C3B78429  40.662  31.172   7.090
 6225POPC   C4B78430  40.357  31.247   7.354
 6226POPC   NC378431  43.115  29.668   5.471
 6226POPC   PO478432  43.434  30.146   5.651
 6226POPC   GL178433  43.207  30.054   5.973
 6226POPC   GL278434  42.998  29.780   5.964
 6226POPC   C1A78435  43.379  30.086   6.369
 6226POPC   D2A78436  43.473  29.909   6.726
 6226POPC   C3A78437  43.093  29.859   6.918
 6226POPC   C4A78438  43.128  29.994   7.323
 6226POPC   C1B78439  43.271  29.596   6.277
 6226POPC   C2B78440  43.393  29.412   6.679
 6226POPC   C3B78441  43.439  29.533   7.110
 6226POPC   C4B78442  43.167  29.517   7.454
 6227POPC   NC378443  41.393  13.963   5.634
 6227POPC   PO478444  41.587  13.365   5.360
 6227POPC   GL178445  41.594  13.509   5.786
 6227POPC   GL278446  41.248  13.522   5.879
 6227POPC   C1A78447  41.754  13.409   6.204
 6227POPC   D2A78448  41.502  13.380   6.604
 6227POPC   C3A78449  41.633  13.588   7.012
 6227POPC   C4A78450  41.920  13.457   7.304
 6227POPC   C1B78451  41.370  13.751   6.249
 6227POPC   C2B78452  41.492  13.917   6.619
 6227POPC   C3B78453  41.245  13.916   6.989
 6227POPC   C4B78454  41.478  14.041   7.326
 6228POPC   NC378455  29.540  19.243   5.370
 6228POPC   PO478456  29.808  18.683   5.325
 6228POPC   GL178457  29.917  18.877   5.767
 6228POPC   GL278458  29.687  19.153   5.864
 6228POPC   C1A78459  30.034  18.896   6.235
 6228POPC   D2A78460  30.119  19.025   6.698
 6228POPC   C3A78461  29.992  18.861   7.128
 6228POPC   C4A78462  29.998  19.012   7.566
 6228POPC   C1B78463  29.518  18.837   6.140
 6228POPC   C2B78464  29.650  18.796   6.591
 6228POPC   C3B78465  29.661  19.128   6.909
 6228POPC   C4B78466  29.538  19.076   7.342
 6229POPC   NC378467  40.729  34.476   5.311
 6229POPC   PO478468  41.082  35.022   5.466
 6229POPC   GL178469  40.860  34.680   5.757
 6229POPC   GL278470  40.699  34.320   5.778
 6229POPC   C1A78471  40.704  34.691   6.177
 6229POPC   D2A78472  40.864  34.857   6.562
 6229POPC   C3A78473  40.800  34.731   6.995
 6229POPC   C4A78474  40.997  34.811   7.431
 6229POPC   C1B78475  40.658  34.184   6.174
 6229POPC   C2B78476  40.722  34.335   6.587
 6229POPC   C3B78477  40.547  34.273   7.003
 6229POPC   C4B78478  40.786  34.354   7.372
 6230POPC   NC378479  33.708  12.868   5.190
 6230POPC   PO478480  34.246  12.752   5.680
 6230POPC   GL178481  33.969  12.636   5.999
 6230POPC   GL278482  33.642  12.737   5.927
 6230POPC   C1A78483  33.826  12.777   6.402
 6230POPC   D2A78484  33.899  12.999   6.764
 6230POPC   C3A78485  33.935  12.763   7.143
 6230POPC   C4A78486  33.893  12.979   7.539
 6230POPC   C1B78487  33.330  12.761   6.309
 6230POPC   C2B78488  33.430  12.781   6.766
 6230POPC   C3B78489  33.478  13.018   7.158
 6230POPC   C4B78490  33.404  13.008   7.609
 6231POPC   NC378491  20.145  24.998   5.616
 6231POPC   PO478492  19.876  25.578   5.453
 6231POPC   GL178493  19.826  25.408   5.826
 6231POPC   GL278494  19.595  25.165   5.701
 6231POPC   C1A78495  19.939  25.615   6.220
 6231POPC   D2A78496  19.790  25.726   6.631
 6231POPC   C3A78497  19.989  25.487   6.908
 6231POPC   C4A78498  19.860  25.333   7.292
 6231POPC   C1B78499  19.639  24.982   6.113
 6231POPC   C2B78500  19.765  25.205   6.492
 6231POPC   C3B78501  19.786  25.020   6.884
 6231POPC   C4B78502  19.727  24.807   7.219
 6232POPC   NC378503  23.725  14.168   5.560
 6232POPC   PO478504  23.602  14.802   5.407
 6232POPC   GL178505  23.552  14.570   5.863
 6232POPC   GL278506  23.329  14.273   5.900
 6232POPC   C1A78507  23.695  14.557   6.338
 6232POPC   D2A78508  23.976  14.652   6.723
 6232POPC   C3A78509  23.806  14.575   7.133
 6232POPC   C4A78510  23.969  14.253   7.418
 6232POPC   C1B78511  23.458  14.104   6.332
 6232POPC   C2B78512  23.633  14.234   6.761
 6232POPC   C3B78513  23.480  14.190   7.182
 6232POPC   C4B78514  23.494  14.318   7.626
 6233POPC   NC378515   6.872  18.315   5.559
 6233POPC   PO478516   6.295  18.660   5.487
 6233POPC   GL178517   6.447  18.418   5.846
 6233POPC   GL278518   6.761  18.609   5.989
 6233POPC   C1A78519   6.642  18.145   6.181
 6233POPC   D2A78520   6.778  18.296   6.578
 6233POPC   C3A78521   6.614  18.095   6.917
 6233POPC   C4A78522   6.383  18.187   7.302
 6233POPC   C1B78523   7.131  18.444   6.221
 6233POPC   C2B78524   7.274  18.376   6.631
 6233POPC   C3B78525   7.016  18.568   6.961
 6233POPC   C4B78526   6.854  18.362   7.307
 6234POPC   NC378527  13.554  11.711   5.143
 6234POPC   PO478528  13.995  11.982   5.565
 6234POPC   GL178529  13.831  12.048   5.943
 6234POPC   GL278530  13.495  12.003   6.023
 6234POPC   C1A78531  13.825  12.055   6.387
 6234POPC   D2A78532  13.995  12.255   6.682
 6234POPC   C3A78533  13.795  12.074   7.008
 6234POPC   C4A78534  13.778  12.288   7.366
 6234POPC   C1B78535  13.270  11.754   6.308
 6234POPC   C2B78536  13.317  11.476   6.640
 6234POPC   C3B78537  13.473  11.627   7.012
 6234POPC   C4B78538  13.318  11.789   7.357
 6235POPC   NC378539  33.302  42.517   5.584
 6235POPC   PO478540  33.922  42.164   5.471
 6235POPC   GL178541  33.800  42.268   5.884
 6235POPC   GL278542  33.866  41.926   5.928
 6235POPC   C1A78543  33.610  42.493   6.262
 6235POPC   D2A78544  33.700  42.778   6.626
 6235POPC   C3A78545  33.676  42.609   7.041
 6235POPC   C4A78546  33.633  42.200   7.161
 6235POPC   C1B78547  33.794  42.023   6.350
 6235POPC   C2B78548  33.870  42.263   6.686
 6235POPC   C3B78549  34.187  42.510   6.772
 6235POPC   C4B78550  34.183  42.600   7.145
 6236POPC   NC378551  30.692   1.864   5.357
 6236POPC   PO478552  30.258   1.617   5.774
 6236POPC   GL178553  30.523   1.960   5.870
 6236POPC   GL278554  30.873   2.071   5.815
 6236POPC   C1A78555  30.691   1.893   6.275
 6236POPC   D2A78556  30.523   2.128   6.636
 6236POPC   C3A78557  30.584   1.897   7.022
 6236POPC   C4A78558  30.766   1.797   7.460
 6236POPC   C1B78559  30.756   2.374   6.153
 6236POPC   C2B78560  30.875   2.488   6.562
 6236POPC   C3B78561  30.876   2.336   6.970
 6236POPC   C4B78562  30.642   2.279   7.351
 6237W        W78563  39.609  33.129  10.733
 6238W        W78564  30.574  33.447  11.088
 6239W        W78565  31.222   7.107   0.577
 6240W        W78566  24.993   9.658  11.004
 6241W        W78567  30.018  27.639   3.013
 6242W        W78568  44.798  27.064   1.505
 6243W        W78569  22.393  28.596   3.880
 6244W        W78570  44.016  37.542   4.235
 6245W        W78571  31.997  18.042   4.559
 6246W        W78572   2.767  15.267   4.253
 6247W        W78573   6.066  21.933  12.834
 6248W        W78574  17.801  10.017  12.058
 6249W        W78575  29.811  38.538  11.177
 6250W        W78576   0.755  10.755  10.538
 6251W        W78577   2.447   6.862  12.992
 6252W        W78578  10.743  31.629   4.225
 6253W        W78579  26.056  26.775  11.950
 6254W        W78580   8.909  18.756  11.305
 6255W        W78581   1.641   3.672  13.069
 6256W        W78582   4.484  22.556  11.018
 6257W        W78583  25.638  15.226   2.264
 6258W        W78584  19.253  33.209   3.395
 6259W        W78585  42.452   4.454  10.748
 6260W        W78586  31.203  43.547  14.896
 6261W        W78587  21.694  38.073  14.827
 6262W        W78588  33.972  12.265  13.061
 6263W        W78589  28.329  36.366   4.239
 6264W        W78590  20.192  38.586   3.651
 6265W        W78591  20.167   4.341  11.417
 6266W        W78592  42.701  29.099   0.905
 6267W        W78593  16.745  12.584   2.312
 6268W        W78594   1.963   7.779  12.523
 6269W        W78595   9.075  39.522   2.253
 6270W        W78596  32.665  10.260  12.021
 6271W        W78597  33.422  22.636   3.641
 6272W        W78598  42.979   1.459   2.849
 6273W        W78599  26.973   8.838   1.862
 6274W        W78600  17.841   3.399   3.235
 6275W        W78601  15.803  36.824   3.629
 6276W        W78602  29.012   2.679   0.262
 6277W        W78603   1.163  43.842   2.295
 6278W        W78604   2.656   2.220  13.383
 6279W        W78605  29.435  32.683   1.146
 6280W        W78606  24.422   0.478  11.273
 6281W        W78607   9.185  32.147  12.369
 6282W        W78608  28.605  21.599  11.123
 6283W        W78609   7.271  43.858   3.955
 6284W        W78610  18.324  37.880  13.958
 6285W        W78611  15.745   3.950   1.259
 6286W        W78612  37.921  27.203  11.559
 6287W        W78613  10.888   2.589   0.789
 6288W        W78614  33.522   8.382   2.241
 6289W        W78615  35.987  36.991  11.628
 6290W        W78616  43.603   7.851   4.336
 6291W        W78617  41.887  36.641   0.947
 6292W        W78618  27.918  23.271  13.018
 6293W        W78619  36.798  28.690   0.453
 6294W        W78620   9.759   7.235   4.306
 6295W        W78621  43.520  41.101   4.557
 6296W        W78622  23.010   4.175   2.709
 6297W        W78623  33.988  42.831  10.937
 6298W        W78624  28.397   5.223  13.882
 6299W        W78625  22.479  16.851  11.480
 6300W        W78626  31.384   9.693  13.183
 6301W        W78627  40.098  34.626   2.179
 6302W        W78628  20.950  38.486  14.510
 6303W        W78629  27.788  10.208   0.926
 6304W        W78630  28.964  15.015  13.454
 6305W        W78631  41.994  10.591  11.279
 6306W        W78632  43.477  29.151   4.676
 6307W        W78633  16.801  17.091  10.640
 6308W        W78634   1.732  17.263  13.530
 6309W        W78635   8.078  15.312   0.279
 6310W        W78636  14.737  42.435  12.613
 6311W        W78637  31.084  26.663  10.440
 6312W        W78638   8.786  23.059  13.699
 6313W        W78639  41.209   3.782  12.742
 6314W        W78640  13.222  23.459  13.075
 6315W        W78641   4.926  12.757  14.391
 6316W        W78642  15.025  22.196   3.437
 6317W        W78643  36.951  38.289  14.777
 6318W        W78644  31.514   4.725   4.614
 6319W        W78645  14.120  10.371   3.245
 6320W        W78646  27.725  27.188   3.108
 6321W        W78647  39.899  43.223  12.335
 6322W        W78648  32.893  13.061  14.371
 6323W        W78649  22.851  44.813   3.191
 6324W        W78650  26.070   3.507  10.868
 6325W        W78651   5.972  42.463  14.562
 6326W        W78652  16.119   8.334  12.881
 6327W        W78653   5.968  31.052   1.462
 6328W        W78654  41.326  15.800  14.522
 6329W        W78655  31.114  33.916   0.859
 6330W        W78656  38.448   9.056  13.507
 6331W        W78657   8.248  19.000   2.693
 6332W        W78658  23.956  19.000  12.626
 6333W        W78659   9.721  15.158   0.321
 6334W        W78660  37.369  12.657   2.842
 6335W        W78661   1.382   7.704   3.666
 6336W        W78662  31.471  36.323   0.033
 6337W        W78663  20.494  17.423   3.277
 6338W        W78664  17.776  34.340  12.533
 6339W        W78665  10.101  14.189   2.267
 6340W        W78666  14.212  29.528   5.022
 6341W        W78667   3.752   3.410  10.290
 6342W        W78668  12.139  24.589  14.920
 6343W        W78669  10.290  33.844   0.945
 6344W        W78670  17.497  43.566   2.781
 6345W        W78671  38.291  12.673   2.695
 6346W        W78672  40.999  12.656   0.949
 6347W        W78673  16.976   3.134  14.294
 6348W        W78674  25.596   9.563   4.966
 6349W        W78675  15.083  33.154  10.924
 6350W        W78676  28.566  39.511   0.367
 6351W        W78677  19.302  27.220  12.216
 6352W        W78678  27.712  13.750  12.836
 6353W        W78679  33.964  10.752   3.966
 6354W        W78680  29.194  28.198   3.231
 6355W        W78681  17.238   5.011  11.604
 6356W        W78682  42.838  31.185   3.653
 6357W        W78683  43.849  39.752  14.827
 6358W        W78684  42.251  11.445   2.024
 6359W        W78685  43.912  16.633   0.178
 6360W        W78686  32.832   1.752  14.851
 6361W        W78687  34.384  27.175  14.343
 6362W        W78688  43.572  44.914  12.851
 6363W        W78689  23.768  35.333  14.829
 6364W        W78690  10.833  30.901  12.619
 6365W        W78691  14.126  37.374   4.438
 6366W        W78692  10.723  38.331  13.081
 6367W        W78693  19.589  14.327  10.752
 6368W        W78694  23.140   2.500  12.022
 6369W        W78695  16.837  40.136   0.904
 6370W        W78696  28.082  42.954   0.995
 6371W        W78697   7.190   7.643   1.845
 6372W        W78698  13.715  17.944  11.870
 6373W        W78699  34.505  12.262  11.473
 6374W        W78700  25.258  38.344  12.154
 6375W        W78701  12.617   4.696  13.944
 6376W        W78702   6.300   3.250  14.771
 6377W        W78703  35.428  13.579   1.955
 6378W        W78704  17.794   8.460   0.482
 6379W        W78705  38.599  24.679   0.229
 6380W        W78706  31.151   2.368   0.844
 6381W        W78707   0.966  44.625   3.323
 6382W        W78708  10.330  28.443   1.139
 6383W        W78709  29.472   5.027   3.744
 6384W        W78710   1.902  17.673  10.595
 6385W        W78711  16.160  41.737  12.547
 6386W        W78712  41.409  24.542  11.195
 6387W        W78713  35.664   6.451   1.634
 6388W        W78714   3.021  24.958  11.036
 6389W        W78715  43.447  16.004  11.101
 6390W        W78716  44.147  42.849   0.959
 6391W        W78717  10.647  19.917   0.414
 6392W        W78718  26.300  34.451  12.949
 6393W        W78719   6.327  39.927   4.505
 6394W        W78720  31.487  23.596  11.704
 6395W        W78721  20.276  26.053  11.988
 6396W        W78722   7.948  22.948  11.340
 6397W        W78723   6.412   0.689   4.661
 6398W        W78724  21.249  10.392  11.047
 6399W        W78725   8.968  14.151  13.302
 6400W        W78726  15.676   7.832   3.356
 6401W        W78727  17.185  16.714  14.961
 6402W        W78728  17.014  19.104  11.553
 6403W        W78729  42.492  36.559  11.708
 6404W        W78730  26.621  15.625   2.661
 6405W        W78731  17.115  15.075   1.148
 6406W        W78732  29.838  41.451  12.052
 6407W        W78733  25.772  13.741  14.511
 6408W        W78734  29.782  18.197  14.825
 6409W        W78735   6.689  26.118  11.601
 6410W        W78736  34.513  28.807   4.944
 6411W        W78737  38.306   3.757  13.593
 6412W        W78738  38.402  11.446   4.208
 6413W        W78739  33.985  20.549   0.880
 6414W        W78740  26.507  17.806   3.966
 6415W        W78741   6.822  28.052  12.079
 6416W        W78742  22.056  27.024  10.562
 6417W        W78743  18.736  40.954   0.808
 6418W        W78744  36.018  27.983   0.292
 6419W        W78745   9.128  38.258   3.828
 6420W        W78746  18.078  34.493   3.689
 6421W        W78747  34.384  40.278  12.293
 6422W        W78748   7.687  11.387  11.178
 6423W        W78749  39.505   3.339  12.073
 6424W        W78750  35.449  12.781   1.445
 6425W        W78751  10.856  19.335   1.235
 6426W        W78752  35.524   4.918   0.238
 6427W        W78753  11.650  25.669  11.040
 6428W        W78754  26.501  38.051   0.205
 6429W        W78755  20.484  42.217  11.159
 6430W        W78756  39.004  43.495   2.834
 6431W        W78757  38.340   9.624   4.156
 6432W        W78758  30.142  29.542   3.690
 6433W        W78759   8.721  19.713  10.853
 6434W        W78760  19.525  14.620   1.492
 6435W        W78761   6.329   3.508   3.550
 6436W        W78762   7.391   4.933   1.891
 6437W        W78763   0.118  12.931   0.820
 6438W        W78764  36.831  15.649   0.674
 6439W        W78765  28.275  30.579   4.964
 6440W        W78766  44.497  10.785   2.231
 6441W        W78767  34.422  43.434  10.959
 6442W        W78768  12.353  43.534   2.665
 6443W        W78769  40.504  26.390  10.729
 6444W        W78770  30.403  20.377   5.105
 6445W        W78771  19.522  12.844   2.111
 6446W        W78772  20.199  13.881  11.404
 6447W        W78773  18.543  39.087   2.730
 6448W        W78774   1.862  29.829  11.498
 6449W        W78775  32.343  44.234   2.846
 6450W        W78776  44.990  30.905  11.256
 6451W        W78777  43.867  25.786  11.208
 6452W        W78778  40.604  29.154  10.868
 6453W        W78779  37.608  19.189  13.324
 6454W        W78780   4.884  16.626  13.590
 6455W        W78781   0.154  27.074   2.537
 6456W        W78782   9.494  23.672   4.496
 6457W        W78783  25.001  14.453   0.368
 6458W        W78784   0.377  11.166   1.426
 6459W        W78785  43.275  33.322   3.148
 6460W        W78786   0.705   5.695  11.250
 6461W        W78787  30.570  13.886   3.178
 6462W        W78788  14.762  25.448   4.637
 6463W        W78789   1.464   9.569  13.477
 6464W        W78790   2.498  32.524   4.869
 6465W        W78791   5.835  12.842   0.234
 6466W        W78792  35.135  21.794  12.382
 6467W        W78793  26.499  29.012   0.713
 6468W        W78794  37.459  40.856   4.103
 6469W        W78795  26.460  19.635   0.901
 6470W        W78796  10.440  32.076   0.565
 6471W        W78797  29.166   0.724  14.411
 6472W        W78798  12.717  14.698  12.321
 6473W        W78799  33.496  35.013   4.076
 6474W        W78800  17.942  20.585   2.838
 6475W        W78801  29.852  27.517  13.440
 6476W        W78802  11.208  15.958   3.885
 6477W        W78803  37.956  13.671   2.877
 6478W        W78804  16.576  30.155   0.210
 6479W        W78805   1.998  31.597  13.527
 6480W        W78806   8.059   2.973   3.729
 6481W        W78807   1.069   5.384  11.017
 6482W        W78808  34.559  42.801  12.937
 6483W        W78809  39.485   1.483   1.407
 6484W        W78810  11.036   9.075   3.197
 6485W        W78811  10.230  19.841   4.704
 6486W        W78812  24.958  14.795  14.536
 6487W        W78813   5.271  17.379   2.758
 6488W        W78814  12.361   5.923   0.053
 6489W        W78815  16.069  27.023  13.855
 6490W        W78816  29.232  24.250   4.052
 6491W        W78817   2.540  42.090   1.386
 6492W        W78818  15.010   9.603  14.462
 6493W        W78819   8.913  36.984  10.705
 6494W        W78820  40.003  34.462  14.013
 6495W        W78821  31.436  27.616   0.386
 6496W        W78822   3.258  35.471  13.771
 6497W        W78823   7.866  21.934  14.137
 6498W        W78824  15.320  27.061   3.610
 6499W        W78825  25.511   2.019  11.968
 6500W        W78826  30.144   7.383  11.156
 6501W        W78827  30.940  14.499   2.697
 6502W        W78828  42.196  44.230  12.417
 6503W        W78829  33.041  36.583   4.487
 6504W        W78830  29.240   9.247  12.258
 6505W        W78831  38.519  13.355  12.313
 6506W        W78832   7.299  33.710   1.253
 6507W        W78833  22.723  28.902  13.499
 6508W        W78834  44.216  11.918   0.951
 6509W        W78835  28.015  37.286   0.890
 6510W        W78836  25.100  19.836  13.274
 6511W        W78837  27.245  21.220   1.742
 6512W        W78838  36.387  27.219  11.870
 6513W        W78839  41.821  29.034   2.047
 6514W        W78840  23.819  41.290  13.965
 6515W        W78841  26.886   8.737   1.327
 6516W        W78842  35.314  11.547   3.771
 6517W        W78843  11.959  34.710  12.393
 6518W        W78844  38.974   7.428  13.613
 6519W        W78845   6.185   5.314   0.543
 6520W        W78846  40.013  26.168  12.078
 6521W        W78847  26.149  24.980   2.743
 6522W        W78848  38.102  12.836   2.189
 6523W        W78849  25.971  40.541  12.164
 6524W        W78850   2.648  42.857  14.886
 6525W        W78851  13.107  29.041   1.482
 6526W        W78852   5.440   5.936   3.342
 6527W        W78853  26.930  14.662  10.549
 6528W        W78854   1.944   2.840  11.635
 6529W        W78855  23.083  41.718  13.372
 6530W        W78856  24.751  16.515   1.369
 6531W        W78857  31.590  43.753   3.347
 6532W        W78858  24.574   0.206  10.748
 6533W        W78859  43.411  11.701  12.414
 6534W        W78860  13.905  25.036   3.260
 6535W        W78861  36.016  24.526  11.188
 6536W        W78862  17.777  39.523   4.226
 6537W        W78863   1.535  23.049  14.244
 6538W        W78864   3.938   8.545   2.949
 6539W        W78865  17.059  44.424  11.164
 6540W        W78866   2.314   5.238  11.565
 6541W        W78867  28.545  27.464  13.780
 6542W        W78868  23.604  39.672   5.437
 6543W        W78869  31.913  24.030  11.167
 6544W        W78870  28.431  20.181  11.955
 6545W        W78871  22.207   3.729  10.643
 6546W        W78872  30.676  29.486  10.843
 6547W        W78873  43.503   8.079   4.786
 6548W        W78874   6.566  30.676   3.800
 6549W        W78875  19.239   6.772  11.111
 6550W        W78876  12.169  17.215  10.671
 6551W        W78877  26.459   2.263   0.145
 6552W        W78878  31.662  33.334   3.597
 6553W        W78879  35.000  21.555  14.128
 6554W        W78880  37.390  17.075   2.101
 6555W        W78881  22.038   5.466  10.753
 6556W        W78882  13.207   4.302  12.631
 6557W        W78883  28.713  25.209   2.911
 6558W        W78884  39.842  15.450   1.760
 6559W        W78885  27.070  37.507   2.357
 6560W        W78886   1.192  39.963   0.539
 6561W        W78887  34.045  35.017   4.942
 6562W        W78888   5.427   6.328   2.101
 6563W        W78889   1.426  27.450   3.538
 6564W        W78890  38.540  42.501  12.147
 6565W        W78891   5.969  38.802  12.934
 6566W        W78892  41.694  24.134   0.807
 6567W        W78893  12.829  10.749   4.070
 6568W        W78894  28.003   5.033   2.296
 6569W        W78895  40.818  32.893  12.478
 6570W        W78896  13.026  33.921   1.735
 6571W        W78897  25.204  36.985   1.700
 6572W        W78898  39.707  44.025   3.217
 6573W        W78899  43.981  41.960   3.175
 6574W        W78900  42.283  15.980  10.396
 6575W        W78901  19.248  28.773   0.357
 6576W        W78902  42.823  13.351   4.664
 6577W        W78903   0.278   9.647   1.868
 6578W        W78904  15.704  38.257  10.812
 6579W        W78905  42.586  23.863   2.286
 6580W        W78906   2.865   2.448  13.905
 6581W        W78907  28.315  38.901  10.419
 6582W        W78908  22.269  39.478  13.037
 6583W        W78909   9.236   2.178   3.752
 6584W        W78910  39.076  41.382   2.689
 6585W        W78911   4.299  24.611   2.972
 6586W        W78912  11.749  13.114   1.824
 6587W        W78913   5.344  20.943   3.974
 6588W        W78914  18.259  31.951   2.750
 6589W        W78915  33.831   5.562  11.957
 6590W        W78916  16.751   8.238   3.851
 6591W        W78917  21.545  16.633  13.746
 6592W        W78918  22.737  25.445  13.541
 6593W        W78919  12.643  11.517   2.223
 6594W        W78920  27.524  10.816  11.128
 6595W        W78921  21.777  23.690   1.889
 6596W        W78922   6.816  34.587  12.849
 6597W        W78923  12.951  38.378   4.953
 6598W        W78924  38.396  12.771  12.381
 6599W        W78925  28.817  21.144   2.139
 6600W        W78926  19.036  24.584   3.866
 6601W        W78927  25.979  11.897   1.752
 6602W        W78928  28.390  43.992   1.935
 6603W        W78929  35.557  33.890   4.195
 6604W        W78930  42.873  41.500   4.954
 6605W        W78931  14.067  20.618   0.773
 6606W        W78932   1.729   3.425   3.316
 6607W        W78933  26.272  37.637   0.410
 6608W        W78934  31.780   6.953   0.676
 6609W        W78935  11.070  26.470   2.064
 6610W        W78936  22.471  30.001  14.691
 6611W        W78937  37.537  33.008   0.590
 6612W        W78938  40.073  29.140  12.046
 6613W        W78939  29.628  30.466  13.833
 6614W        W78940  28.266  35.094   1.898
 6615W        W78941  12.654  16.721   4.508
 6616W        W78942  11.965  10.610  11.603
 6617W        W78943  44.040  18.175   4.668
 6618W        W78944  14.995   1.490   1.945
 6619W        W78945  39.506  13.693   0.163
 6620W        W78946  43.276   3.300   4.564
 6621W        W78947   0.717  37.335   3.507
 6622W        W78948  44.898  16.278  12.975
 6623W        W78949  42.507  33.914   3.156
 6624W        W78950  40.266  14.563   0.309
 6625W        W78951  38.100  41.622  12.192
 6626W        W78952   4.410  40.801   4.352
 6627W        W78953   3.734   8.171   0.233
 6628W        W78954   0.784   8.706   1.617
 6629W        W78955  43.858  25.890  13.950
 6630W        W78956  18.729  39.361  11.705
 6631W        W78957  36.410  16.283  10.954
 6632W        W78958  37.323  15.064  11.924
 6633W        W78959  13.749  20.292   1.037
 6634W        W78960  34.591  44.964  11.268
 6635W        W78961  25.632  23.409  11.933
 6636W        W78962  37.054  16.602  10.601
 6637W        W78963  21.249   8.979   1.433
 6638W        W78964  14.162  29.923   3.908
 6639W        W78965  38.105  11.059   2.238
 6640W        W78966  24.009   0.297   1.812
 6641W        W78967  28.083  16.926   0.995
 6642W        W78968  18.627  38.050   1.151
 6643W        W78969  35.695  33.368  10.620
 6644W        W78970   4.468   1.403  10.917
 6645W        W78971  34.713  22.144   2.871
 6646W        W78972  37.958  38.367  12.209
 6647W        W78973   0.865  28.644   1.689
 6648W        W78974   0.895  19.049  13.549
 6649W        W78975  22.259  29.124   1.103
 6650W        W78976  40.781  14.102  13.818
 6651W        W78977  37.434  12.469  11.021
 6652W        W78978   5.752  15.292   0.377
 6653W        W78979  21.188  40.566  10.772
 6654W        W78980  21.322  13.255  12.627
 6655W        W78981   7.340  15.374   3.540
 6656W        W78982  29.763   2.429  13.983
 6657W        W78983  28.286  33.511   3.829
 6658W        W78984   7.974  39.027   5.199
 6659W        W78985  41.581  29.700   1.922
 6660W        W78986   7.335  38.892  14.875
 6661W        W78987   6.995  12.238  12.979
 6662W        W78988  24.076   9.642   3.779
 6663W        W78989   9.181   2.539  13.093
 6664W        W78990  44.265   4.949   5.345
 6665W        W78991  37.470  25.407  11.879
 6666W        W78992  36.174  33.869  12.256
 6667W        W78993   1.987  35.451   3.872
 6668W        W78994   8.655  10.804   1.974
 6669W        W78995   8.787  22.253   3.217
 6670W        W78996  16.955  10.332  14.795
 6671W        W78997  31.484  41.250   3.243
 6672W        W78998  39.048  11.622   4.721
 6673W        W78999  11.397  23.428   4.135
 6674W        W79000  28.965  27.111  10.596
 6675W        W79001  34.493  18.249   0.458
 6676W        W79002  35.304  18.619  14.994
 6677W        W79003  40.843  27.050  12.083
 6678W        W79004   6.247  15.748   5.133
 6679W        W79005   1.684   1.715   9.571
 6680W        W79006  14.362  11.428  14.473
 6681W        W79007  16.460  27.544   1.006
 6682W        W79008  35.822  14.949   0.992
 6683W        W79009  33.354  16.101   3.725
 6684W        W79010  11.880  24.166  10.425
 6685W        W79011  12.427   8.155   0.296
 6686W        W79012  13.750  35.415   1.293
 6687W        W79013   9.139   7.771   4.515
 6688W        W79014  35.859  14.083  11.456
 6689W        W79015  33.869  36.510  14.824
 6690W        W79016  15.832  32.843  14.914
 6691W        W79017  19.308  20.333  13.527
 6692W        W79018  40.284  23.918  11.174
 6693W        W79019  26.970  10.596  12.376
 6694W        W79020  43.523  26.683   4.607
 6695W        W79021  16.308  22.903  11.864
 6696W        W79022  15.637  42.823   1.929
 6697W        W79023  39.076  30.481  14.527
 6698W        W79024  15.308  10.077  11.515
 6699W        W79025  34.018  21.088   1.834
 6700W        W79026  20.959  35.858  13.058
 6701W        W79027  16.840  35.436   0.822
 6702W        W79028  18.714   3.579   2.220
 6703W        W79029   9.148  12.697  13.789
 6704W        W79030  10.340   3.749  12.271
 6705W        W79031  30.722  37.997  12.315
 6706W        W79032  11.688   3.365  14.287
 6707W        W79033   0.937  23.468   0.324
 6708W        W79034  14.076  10.799  13.972
 6709W        W79035  31.649  32.583   4.075
 6710W        W79036  42.761  43.946   3.315
 6711W        W79037  22.217  21.438  13.774
 6712W        W79038  34.384   0.922   2.375
 6713W        W79039  18.253  43.447   3.070
 6714W        W79040   7.320  36.443   0.133
 6715W        W79041  27.198  22.721   2.325
 6716W        W79042   4.191   3.585   9.998
 6717W        W79043   7.888   1.303   3.495
 6718W        W79044   5.022  22.553   0.430
 6719W        W79045  32.959  28.138  14.854
 6720W        W79046   7.323  35.330  12.873
 6721W        W79047   1.762  11.152   0.454
 6722W        W79048  40.790  10.441  13.518
 6723W        W79049  41.675  12.068  12.509
 6724W        W79050  14.010  27.167  12.968
 6725W        W79051  24.574  31.182  13.773
 6726W        W79052  34.512   3.682  12.076
 6727W        W79053   6.726   8.796   0.328
 6728W        W79054  22.602  33.130  12.272
 6729W        W79055  38.271  39.450   3.173
 6730W        W79056  42.672   5.878  11.527
 6731W        W79057  24.609  25.685  10.439
 6732W        W79058  43.428   4.866   2.198
 6733W        W79059   9.235  23.240  14.508
 6734W        W79060  11.542  27.806   4.120
 6735W        W79061  16.117  42.565  11.091
 6736W        W79062  34.347  31.984  14.913
 6737W        W79063  23.601   5.226   1.948
 6738W        W79064  44.776  36.926   3.127
 6739W        W79065  27.015  34.707  11.023
 6740W        W79066  44.793  10.831  13.111
 6741W        W79067  10.869  21.812   1.257
 6742W        W79068  22.090  35.978  14.009
 6743W        W79069  43.880   0.308  11.031
 6744W        W79070  17.144  41.291  13.292
 6745W        W79071  27.070  33.927  13.784
 6746W        W79072  23.111  43.935   3.179
 6747W        W79073  16.674   3.756   3.184
 6748W        W79074  10.714   9.055  13.038
 6749W        W79075  10.187  31.716   2.053
 6750W        W79076  25.739   2.808  13.425
 6751W        W79077  43.890  41.017   0.879
 6752W        W79078  28.471   7.757  11.356
 6753W        W79079  10.868  25.224  14.779
 6754W        W79080  40.877  29.041  13.481
 6755W        W79081  22.123  21.472  10.999
 6756W        W79082  37.957   6.141  14.739
 6757W        W79083  16.780  12.354   0.963
 6758W        W79084  36.098  12.321  10.297
 6759W        W79085  31.395   8.745   0.519
 6760W        W79086   1.311   5.807   4.128
 6761W        W79087   7.807  44.655   2.751
 6762W        W79088  17.076  29.803  14.357
 6763W        W79089  43.014  21.974   3.781
 6764W        W79090   0.806   3.876   4.563
 6765W        W79091  42.355  43.462   2.035
 6766W        W79092  15.378  33.575   1.779
 6767W        W79093  34.140  38.661  13.834
 6768W        W79094   4.973  39.583  12.070
 6769W        W79095  27.541  18.152   1.368
 6770W        W79096  11.574  44.775   2.497
 6771W        W79097   6.845  34.589   2.108
 6772W        W79098   2.865  31.306  14.524
 6773W        W79099  33.467   0.285   2.470
 6774W        W79100  21.327  19.332   3.659
 6775W        W79101  35.280  10.112   0.467
 6776W        W79102  27.952  33.723   0.322
 6777W        W79103  33.904  17.104  12.205
 6778W        W79104  42.458  33.455   3.471
 6779W        W79105  16.784  41.192   5.059
 6780W        W79106  40.919  16.150  12.942
 6781W        W79107  14.437  15.134  14.922
 6782W        W79108  44.321  18.690  11.772
 6783W        W79109  30.746  13.187  10.680
 6784W        W79110  10.090  13.676   4.922
 6785W        W79111  27.075  42.735  14.539
 6786W        W79112  28.436   1.865   0.941
 6787W        W79113  27.461  20.281   0.429
 6788W        W79114  16.648  10.399   1.188
 6789W        W79115   4.347  27.115  11.138
 6790W        W79116  33.100  20.749  11.074
 6791W        W79117  21.246   0.439   3.919
 6792W        W79118  24.635   9.882  14.551
 6793W        W79119  31.645  28.073   1.461
 6794W        W79120  25.009  37.575  11.473
 6795W        W79121  12.388  19.180  10.748
 6796W        W79122   4.954   1.770  13.463
 6797W        W79123  42.923  20.118  14.888
 6798W        W79124  43.333  42.787  11.554
 6799W        W79125  11.912  21.515   2.185
 6800W        W79126   8.036  13.569  10.784
 6801W        W79127   1.604  38.385   4.313
 6802W        W79128  28.297  29.181  11.398
 6803W        W79129  11.327   4.574  12.840
 6804W        W79130  24.798  33.006   2.810
 6805W        W79131  35.484  39.815  10.662
 6806W        W79132  23.498  33.045  13.894
 6807W        W79133  15.126  26.761  12.497
 6808W        W79134  14.191   4.503   3.128
 6809W        W79135   5.005  30.701  14.376
 6810W        W79136   6.211   5.377  14.531
 6811W        W79137  34.037   9.536   0.650
 6812W        W79138   6.316   5.922   4.901
 6813W        W79139   5.169  19.592  11.910
 6814W        W79140  39.455   3.668   1.909
 6815W        W79141   0.805  24.685   3.967
 6816W        W79142  32.888   7.415  14.845
 6817W        W79143  12.552  44.411   4.366
 6818W        W79144  29.184  15.628  12.199
 6819W        W79145  22.578   7.211   2.930
 6820W        W79146  31.635  19.062  14.538
 6821W        W79147  42.395  35.984  11.378
 6822W        W79148  19.847  21.238   1.341
 6823W        W79149  25.614   2.941  14.364
 6824W        W79150  27.144  14.862   3.206
 6825W        W79151   4.162  22.391  13.839
 6826W        W79152   4.185  13.323   2.682
 6827W        W79153  25.038   4.302   1.428
 6828W        W79154  11.401  26.118  11.700
 6829W        W79155  12.898  14.630   0.242
 6830W        W79156   4.263  42.408  14.354
 6831W        W79157  29.472  10.679  14.493
 6832W        W79158   7.640  25.119  13.628
 6833W        W79159  22.182  14.112  13.426
 6834W        W79160  40.013  31.349  11.457
 6835W        W79161   2.824  30.092  11.679
 6836W        W79162  18.024  43.470   0.744
 6837W        W79163  42.233  39.964  12.566
 6838W        W79164  25.488  42.617   3.739
 6839W        W79165  25.426  25.542   2.933
 6840W        W79166  24.671  23.644  14.739
 6841W        W79167   1.309  28.571   3.914
 6842W        W79168  44.388  36.459   3.151
 6843W        W79169  36.044   0.256   4.070
 6844W        W79170  22.520  16.641  14.032
 6845W        W79171  18.194  36.081   1.796
 6846W        W79172  10.216  16.975  10.769
 6847W        W79173  39.552  42.106  10.680
 6848W        W79174  41.324  18.348   3.698
 6849W        W79175  39.966  40.244  10.630
 6850W        W79176  28.900  25.642   4.345
 6851W        W79177  10.870   5.039  11.479
 6852W        W79178  32.107  28.574   3.980
 6853W        W79179  25.350  18.722  12.853
 6854W        W79180  18.730   6.720  12.277
 6855W        W79181   3.978   5.682   3.338
 6856W        W79182  36.908   6.578   4.171
 6857W        W79183  40.992   1.688   0.315
 6858W        W79184  18.723   6.539  14.284
 6859W        W79185  29.104  37.579  13.480
 6860W        W79186  22.157  23.202  14.424
 6861W        W79187  16.670  12.579   2.842
 6862W        W79188  42.879  22.559  11.548
 6863W        W79189  34.711  38.466   1.109
 6864W        W79190  35.389  39.437  12.825
 6865W        W79191  16.084  35.070  14.362
 6866W        W79192  26.526  27.188  11.069
 6867W        W79193  43.492  15.802  12.945
 6868W        W79194  40.943  11.903   2.430
 6869W        W79195   7.240  34.197   0.398
 6870W        W79196  21.540  34.251   3.804
 6871W        W79197  39.625   3.711  12.410
 6872W        W79198   7.294  27.042   4.899
 6873W        W79199  19.133  10.178  10.657
 6874W        W79200  12.513  39.951   1.185
 6875W        W79201  44.979  19.305   3.255
 6876W        W79202   7.647  15.853   2.284
 6877W        W79203  18.810  15.346   3.087
 6878W        W79204  22.924   5.824  14.911
 6879W        W79205  25.877   0.521  11.181
 6880W        W79206  21.169  40.036   2.428
 6881W        W79207  34.661   7.300  13.147
 6882W        W79208  26.127  17.752   4.325
 6883W        W79209  23.885  32.435   1.437
 6884W        W79210   8.159  27.024  11.109
 6885W        W79211  38.583   5.147   9.977
 6886W        W79212  22.542  42.227   2.608
 6887W        W79213   1.826  18.128   0.913
 6888W        W79214  23.529   5.659   1.677
 6889W        W79215   3.840   2.223   2.689
 6890W        W79216  41.178  18.976   1.772
 6891W        W79217   7.737  31.601   3.312
 6892W        W79218   4.703  12.719  11.936
 6893W        W79219  12.166  43.849  14.723
 6894W        W79220  13.952  26.587   5.178
 6895W        W79221   1.795   5.718   4.930
 6896W        W79222   4.751   1.402  13.022
 6897W        W79223  14.105  19.030   2.111
 6898W        W79224  30.157  26.477   3.359
 6899W        W79225   2.944  14.706  13.899
 6900W        W79226   5.348   4.072   1.584
 6901W        W79227  35.909  41.596   0.265
 6902W        W79228  16.151  12.132   4.600
 6903W        W79229  43.996  15.122  10.285
 6904W        W79230   1.839   1.679  13.830
 6905W        W79231   3.952   8.669  11.999
 6906W        W79232   8.714  36.059   3.739
 6907W        W79233  33.136  21.609   3.751
 6908W        W79234  24.291   4.952  11.489
 6909W        W79235  32.276  22.236  10.244
 6910W        W79236  28.489  34.919   3.756
 6911W        W79237  44.804  30.780  13.392
 6912W        W79238  42.504  13.784  10.835
 6913W        W79239  29.529  10.224  11.703
 6914W        W79240  25.019  13.335  14.025
 6915W        W79241  37.118  10.317   4.120
 6916W        W79242  41.492  27.111  12.394
 6917W        W79243  23.472  33.456   3.648
 6918W        W79244   1.825  44.800   1.762
 6919W        W79245   6.929   0.014  14.493
 6920W        W79246  22.228  43.097   9.991
 6921W        W79247  13.701  24.140   3.738
 6922W        W79248  17.208  24.429   2.620
 6923W        W79249  34.858  11.161  12.873
 6924W        W79250   3.537  30.559   1.257
 6925W        W79251  44.288  27.161   2.772
 6926W        W79252  23.073  21.587   1.915
 6927W        W79253  30.240  24.445  12.947
 6928W        W79254  43.790  18.629  13.404
 6929W        W79255  16.669  21.331   2.289
 6930W        W79256  36.229  34.513  13.268
 6931W        W79257   9.711  42.469   0.770
 6932W        W79258   2.689  28.565   1.192
 6933W        W79259  11.661  44.474  13.978
 6934W        W79260   8.753  31.521  13.879
 6935W        W79261  37.343  35.364   3.993
 6936W        W79262  13.722   6.764   2.709
 6937W        W79263  36.100  11.163   3.619
 6938W        W79264  13.057  39.792   3.368
 6939W        W79265  23.309  28.098  11.968
 6940W        W79266  36.926  33.846   2.786
 6941W        W79267  40.644  41.639  12.068
 6942W        W79268  27.646  28.974  12.360
 6943W        W79269  36.844  34.087   4.444
 6944W        W79270   2.208  16.227  13.475
 6945W        W79271  33.332  36.604  12.855
 6946W        W79272  23.804  32.659   3.252
 6947W        W79273   6.052  21.248  11.251
 6948W        W79274   5.484  42.079  12.933
 6949W        W79275  16.420  26.802   3.756
 6950W        W79276  38.444  10.696  14.570
 6951W        W79277  14.681  12.346  13.446
 6952W        W79278   9.327   3.111  11.936
 6953W        W79279  27.270  34.307   0.721
 6954W        W79280   2.965  37.022  12.342
 6955W        W79281  25.745  32.341   3.660
 6956W        W79282   1.304  18.052  12.026
 6957W        W79283  14.656  26.597  13.993
 6958W        W79284  23.576  20.369   0.820
 6959W        W79285  21.943  41.283  12.025
 6960W        W79286  29.679  11.807  11.452
 6961W        W79287  29.027  32.371  14.907
 6962W        W79288   0.984  39.957  13.341
 6963W        W79289  40.819  33.908   3.600
 6964W        W79290  11.027  22.330   4.655
 6965W        W79291  42.520  40.997  13.295
 6966W        W79292  19.844  16.221  11.223
 6967W        W79293   1.069  39.455  11.940
 6968W        W79294  16.551  14.983   4.445
 6969W        W79295  33.491  33.682  13.367
 6970W        W79296  16.330  29.763  13.954
 6971W        W79297   2.464  16.122   4.379
 6972W        W79298  40.084  26.999   4.923
 6973W        W79299  13.488  25.454  10.652
 6974W        W79300   8.916   2.704  10.690
 6975W        W79301   1.410   8.501  13.125
 6976W        W79302  12.668  44.639  12.394
 6977W        W79303   1.954  19.564   0.899
 6978W        W79304   0.359   2.835  10.991
 6979W        W79305  33.355  24.294  14.838
 6980W        W79306  20.445  40.342   2.450
 6981W        W79307  20.982   9.911   4.278
 6982W        W79308  24.160   8.803  10.217
 6983W        W79309  35.955  22.146  14.932
 6984W        W79310   0.193  38.632  12.588
 6985W        W79311  36.469   8.089  12.441
 6986W        W79312  40.371  33.820   2.637
 6987W        W79313  23.672  36.137   0.479
 6988W        W79314  17.366  35.993   0.249
 6989W        W79315   9.899  20.383   0.400
 6990W        W79316   3.377  21.543   3.722
 6991W        W79317  34.978  28.151   1.161
 6992W        W79318  28.941  33.322  14.725
 6993W        W79319  44.206  14.749   0.610
 6994W        W79320  17.304  12.063   3.300
 6995W        W79321  41.305   1.823   3.276
 6996W        W79322   8.469  17.614   1.263
 6997W        W79323   1.385  15.756   2.090
 6998W        W79324  34.022  23.107  12.168
 6999W        W79325  25.634   2.698   0.671
 7000W        W79326  44.414  12.553  13.070
 7001W        W79327  30.453   0.645   1.904
 7002W        W79328  18.067  12.037   1.204
 7003W        W79329  15.299  11.166   4.731
 7004W        W79330  44.867  33.322   4.596
 7005W        W79331  19.577  32.653   0.013
 7006W        W79332  26.104  30.632   1.326
 7007W        W79333  29.608  33.028  13.856
 7008W        W79334  33.914  12.798   3.414
 7009W        W79335  35.486  42.974  11.092
 7010W        W79336  31.288  38.361  13.300
 7011W        W79337   1.256  37.414   3.461
 7012W        W79338   8.425  27.230  12.954
 7013W        W79339  32.246  38.750   1.715
 7014W        W79340  22.097   5.004  11.134
 7015W        W79341   7.288  21.207  14.407
 7016W        W79342  40.033  17.654   1.965
 7017W        W79343  28.132  18.664  11.063
 7018W        W79344   3.747  35.457   2.228
 7019W        W79345  41.173  23.509  10.899
 7020W        W79346  26.993  18.399  11.590
 7021W        W79347  18.774  37.947  14.229
 7022W        W79348  25.464  30.837  13.399
 7023W        W79349  29.400  28.983   0.945
 7024W        W79350  36.415   9.720   3.866
 7025W        W79351  10.162   2.466  13.043
 7026W        W79352  39.344   6.648   4.584
 7027W        W79353  43.016  12.312   3.558
 7028W        W79354  32.969  16.758   4.163
 7029W        W79355  21.188  32.635   4.631
 7030W        W79356  25.510  27.929  12.679
 7031W        W79357  44.525  33.117   0.221
 7032W        W79358  40.249  26.504   4.258
 7033W        W79359  14.323  12.838   0.540
 7034W        W79360   4.325  20.776  10.819
 7035W        W79361  32.203  32.990  10.243
 7036W        W79362  19.698  43.287  13.507
 7037W        W79363  21.296  32.375   0.561
 7038W        W79364   3.869  35.916   4.064
 7039W        W79365  26.966   5.402   0.854
 7040W        W79366  34.416   6.220   1.388
 7041W        W79367   0.921  44.025  10.733
 7042W        W79368  12.695   9.050  13.461
 7043W        W79369  34.579  36.409  10.521
 7044W        W79370  13.825   9.070   3.300
 7045W        W79371  36.323   9.315   2.682
 7046W        W79372  22.365   0.984  10.118
 7047W        W79373   1.488  30.674  12.536
 7048W        W79374   8.881  35.604   0.214
 7049W        W79375  29.860   5.839   1.866
 7050W        W79376   6.723  15.673   2.602
 7051W        W79377   5.697  20.623  12.130
 7052W        W79378  18.266  41.048   4.660
 7053W        W79379  20.115  43.709   2.624
 7054W        W79380  18.603  35.377  12.040
 7055W        W79381   7.872  31.664  12.812
 7056W        W79382  35.673  41.408   1.558
 7057W        W79383  26.715  19.843   3.093
 7058W        W79384  29.834  28.087  11.652
 7059W        W79385  32.581   4.246   4.183
 7060W        W79386  21.987   7.326   1.798
 7061W        W79387  42.604  38.562  10.740
 7062W        W79388  33.783  28.437  13.401
 7063W        W79389  37.601  21.718   0.773
 7064W        W79390  21.898  20.598   1.469
 7065W        W79391   3.352  33.904  10.682
 7066W        W79392  26.973  16.206   1.355
 7067W        W79393  17.498  34.086   3.171
 7068W        W79394   8.153   2.464  14.707
 7069W        W79395  35.352   9.438  14.876
 7070W        W79396  13.594  16.562   4.293
 7071W        W79397  21.547  44.235   3.837
 7072W        W79398  14.802   3.265  14.999
 7073W        W79399  22.740  14.979   0.904
 7074W        W79400  12.732  39.606   1.907
 7075W        W79401  17.171  18.537  14.392
 7076W        W79402   7.915   0.350   3.333
 7077W        W79403   0.319  43.299   2.123
 7078W        W79404  37.480  31.676  10.131
 7079W        W79405  42.157   7.049   9.917
 7080W        W79406  18.506   0.972  10.636
 7081W        W79407  27.712  23.472  14.925
 7082W        W79408  16.113  23.942   0.749
 7083W        W79409  20.504  27.702  11.912
 7084W        W79410   3.532  25.021   1.659
 7085W        W79411  11.632  41.055   3.290
 7086W        W79412  19.725   5.740   0.543
 7087W        W79413   3.481  22.996  12.907
 7088W        W79414  23.941  11.859  13.504
 7089W        W79415   3.349  33.589   0.726
 7090W        W79416   5.481   7.157   1.820
 7091W        W79417  10.543   6.495   2.822
 7092W        W79418  18.235  11.753  10.592
 7093W        W79419  18.198  29.890   3.286
 7094W        W79420  16.349  10.293   2.750
 7095W        W79421  17.632   7.576   3.341
 7096W        W79422  27.359   6.720   2.194
 7097W        W79423   7.235  31.676  10.755
 7098W        W79424  43.660  25.746   0.456
 7099W        W79425  43.782  13.678   2.757
 7100W        W79426  16.045  31.084   2.081
 7101W        W79427  26.453   2.712  14.372
 7102W        W79428  39.937  13.850   1.833
 7103W        W79429  20.121  44.297   1.036
 7104W        W79430  29.983   4.390   2.743
 7105W        W79431  23.587   8.527  11.690
 7106W        W79432  26.733  25.542   3.865
 7107W        W79433  17.188  13.850  11.404
 7108W        W79434   3.511   4.035  14.423
 7109W        W79435  35.497  12.557   2.765
 7110W        W79436   7.952  21.971  12.363
 7111W        W79437  28.642  13.495  10.742
 7112W        W79438  20.026  33.183  14.349
 7113W        W79439  37.620  44.527  12.964
 7114W        W79440  44.437  29.709  14.018
 7115W        W79441  42.120  14.696  14.421
 7116W        W79442  16.897  34.856  14.975
 7117W        W79443  17.150   1.094   0.810
 7118W        W79444   8.857   1.686   1.493
 7119W        W79445  24.508  16.138  13.042
 7120W        W79446   5.956   8.374  12.560
 7121W        W79447  42.926  14.229  10.743
 7122W        W79448  32.281  38.365  13.455
 7123W        W79449  34.149   3.004   3.808
 7124W        W79450  19.716  27.711  11.473
 7125W        W79451  35.386   8.911   9.844
 7126W        W79452  35.102  30.461   1.990
 7127W        W79453   5.884   1.299  14.861
 7128W        W79454  12.772  42.858  11.880
 7129W        W79455  44.022  25.001   1.602
 7130W        W79456   2.911  27.651  12.076
 7131W        W79457  36.332  15.808   0.740
 7132W        W79458   4.432  42.298  11.018
 7133W        W79459  25.756  20.374  12.411
 7134W        W79460   7.179  25.090  10.650
 7135W        W79461  20.150  40.053  10.912
 7136W        W79462  11.381  12.615   1.253
 7137W        W79463  27.101  35.729  12.132
 7138W        W79464   1.107  15.852  14.327
 7139W        W79465  13.844   7.096   2.319
 7140W        W79466  15.383   3.762   0.324
 7141W        W79467  21.019   0.364   1.718
 7142W        W79468   8.262  12.286  13.522
 7143W        W79469  41.830  42.972  12.200
 7144W        W79470  18.882  26.004  13.857
 7145W        W79471  21.829  35.626  12.908
 7146W        W79472  43.061  32.132   4.547
 7147W        W79473  11.344  26.084  11.191
 7148W        W79474   8.172  28.885  14.096
 7149W        W79475  44.303  16.517   0.772
 7150W        W79476   3.799  14.731   1.191
 7151W        W79477   7.391  23.258  11.955
 7152W        W79478  34.391  27.091   1.939
 7153W        W79479  16.042   8.820   1.777
 7154W        W79480  10.275   1.611   5.197
 7155W        W79481  16.210  18.026   1.600
 7156W        W79482   0.264  41.688  13.031
 7157W        W79483   7.738   8.651  10.798
 7158W        W79484  15.934  26.115  13.810
 7159W        W79485  26.775  36.442  12.145
 7160W        W79486   1.192  24.261   2.260
 7161W        W79487  25.332  43.441   1.681
 7162W        W79488  30.156  36.663  12.562
 7163W        W79489  30.441  30.342  11.136
 7164W        W79490  23.984  31.653   3.206
 7165W        W79491   7.327  25.834  13.154
 7166W        W79492  36.162   4.487  12.441
 7167W        W79493  11.351  22.279   0.708
 7168W        W79494  18.782  30.389   1.742
 7169W        W79495   6.400  31.137   1.164
 7170W        W79496  43.071  42.518   0.862
 7171W        W79497  41.606  17.095  14.772
 7172W        W79498   7.096  39.452   3.562
 7173W        W79499  14.522  26.014   1.190
 7174W        W79500  42.155  13.280   0.150
 7175W        W79501   5.179  13.104  13.397
 7176W        W79502  44.358  14.732  10.320
 7177W        W79503   4.194  36.083   3.167
 7178W        W79504   8.240  30.546   4.484
 7179W        W79505  11.636   5.328  13.390
 7180W        W79506  26.381  24.613  12.257
 7181W        W79507   6.428  32.678  14.030
 7182W        W79508  37.361  13.675   5.194
 7183W        W79509  20.093  22.963   1.699
 7184W        W79510   9.452  39.039   1.598
 7185W        W79511   1.698  10.121   0.246
 7186W        W79512  14.750  21.731   3.337
 7187W        W79513  14.764  11.327   4.594
 7188W        W79514   7.138  41.427  13.121
 7189W        W79515   1.498   2.181  11.538
 7190W        W79516  31.248   2.562  12.813
 7191W        W79517  16.244  18.261   0.349
 7192W        W79518  13.128  32.556   4.548
 7193W        W79519   0.341  21.595   2.845
 7194W        W79520  18.087  35.876   1.323
 7195W        W79521   2.858  12.687  12.009
 7196W        W79522  13.153  15.127   2.248
 7197W        W79523  14.337  21.083  12.438
 7198W        W79524   0.914  36.874   4.851
 7199W        W79525  43.039  19.919   4.163
 7200W        W79526  40.607  22.109  12.496
 7201W        W79527  43.064  25.637  13.317
 7202W        W79528  22.138  41.915   1.313
 7203W        W79529  15.617   1.843  13.586
 7204W        W79530  27.107  14.858   2.655
 7205W        W79531  27.956  26.188   4.141
 7206W        W79532   9.359  34.965   2.272
 7207W        W79533  25.521  10.065  12.870
 7208W        W79534  13.806   2.325  12.046
 7209W        W79535  22.033  15.518  11.529
 7210W        W79536  10.691  12.846  11.673
 7211W        W79537  35.328  21.280  10.829
 7212W        W79538  41.911  21.209  14.855
 7213W        W79539  17.090  18.118   3.620
 7214W        W79540  19.827  32.528  12.379
 7215W        W79541   2.115  38.578   2.670
 7216W        W79542  16.597  42.231   3.280
 7217W        W79543  35.093  19.072   1.707
 7218W        W79544  37.001  29.854   3.301
 7219W        W79545  29.288  32.103   2.822
 7220W        W79546  32.999  34.395  10.708
 7221W        W79547  24.310  13.050   4.303
 7222W        W79548  28.213  36.942  11.530
 7223W        W79549  12.665   2.237   1.381
 7224W        W79550  38.985   8.285  14.990
 7225W        W79551  20.982  27.041   0.491
 7226W        W79552  17.436  38.196  14.027
 7227W        W79553   7.756  14.039   1.632
 7228W        W79554  21.990  10.096   2.846
 7229W        W79555  24.236  21.483  14.314
 7230W        W79556  31.393  22.443   5.087
 7231W        W79557  28.934  36.917  14.050
 7232W        W79558  30.910  14.555  14.676
 7233W        W79559  23.139  22.407   0.752
 7234W        W79560  21.500  16.112   3.641
 7235W        W79561  37.048  38.294  10.683
 7236W        W79562   7.908  39.393  12.809
 7237W        W79563  35.574  44.993   2.345
 7238W        W79564  12.937  29.024   3.647
 7239W        W79565  22.094  16.786   5.726
 7240W        W79566  16.231  44.042  14.223
 7241W        W79567  31.778  19.636   1.503
 7242W        W79568  17.297   7.644   1.452
 7243W        W79569   1.417  25.044   0.362
 7244W        W79570  32.555  35.033   1.123
 7245W        W79571   5.167  28.194   2.164
 7246W        W79572   3.277  18.513  12.521
 7247W        W79573  44.346  23.022   2.248
 7248W        W79574  15.579   1.853   0.270
 7249W        W79575  15.190  39.397  14.351
 7250W        W79576  35.405  32.077  12.812
 7251W        W79577  23.535  40.485  13.757
 7252W        W79578  28.551  14.795   0.694
 7253W        W79579  37.396  41.497   3.289
 7254W        W79580   3.414   3.355  11.962
 7255W        W79581  12.322  20.213  11.629
 7256W        W79582  35.845   6.314   2.082
 7257W        W79583   4.402  39.522  14.022
 7258W        W79584  42.087  30.659  12.579
 7259W        W79585  18.293  13.401  11.572
 7260W        W79586  20.769   9.752  13.101
 7261W        W79587  27.640  13.633   4.574
 7262W        W79588   4.186  36.889   1.422
 7263W        W79589  22.834  13.485   3.213
 7264W        W79590   1.889  12.107   2.344
 7265W        W79591  36.537  10.266   1.684
 7266W        W79592  29.675   0.746   5.053
 7267W        W79593   3.399   7.882  12.494
 7268W        W79594  11.810  41.308  14.673
 7269W        W79595  38.383  10.638   2.929
 7270W        W79596  16.510   6.895   1.294
 7271W        W79597  33.111  35.719  12.454
 7272W        W79598  44.695  43.879   1.326
 7273W        W79599  29.008  30.087   1.925
 7274W        W79600  18.254  34.048   4.632
 7275W        W79601  37.116  25.723   0.848
 7276W        W79602  27.328  42.999  12.112
 7277W        W79603  44.080   0.263  13.011
 7278W        W79604  12.623  33.894  12.172
 7279W        W79605   6.484  23.639   1.841
 7280W        W79606   6.854  30.991   4.089
 7281W        W79607  13.745   8.272   0.750
 7282W        W79608  28.484   0.171  14.913
 7283W        W79609   5.867  10.098  11.877
 7284W        W79610   6.426  37.405  14.491
 7285W        W79611  26.608  10.007   3.444
 7286W        W79612  15.746  29.560  13.432
 7287W        W79613   7.769   6.363  13.061
 7288W        W79614  33.303   9.322  10.742
 7289W        W79615   4.479  17.853  14.263
 7290W        W79616  27.196  14.330  14.331
 7291W        W79617  10.167   0.384  12.918
 7292W        W79618  26.551  26.917   5.450
 7293W        W79619  43.012  25.434  14.355
 7294W        W79620  24.653  27.010   4.132
 7295W        W79621  11.933   1.638  11.092
 7296W        W79622  35.588  36.336  12.087
 7297W        W79623   6.299  32.560   4.338
 7298W        W79624   6.926  13.268  12.942
 7299W        W79625   7.666   6.080   0.813
 7300W        W79626  15.609   3.144  13.347
 7301W        W79627   8.761  35.916   4.641
 7302W        W79628  13.678  34.378  12.415
 7303W        W79629  32.359   8.207  11.925
 7304W        W79630  10.368   9.575  11.596
 7305W        W79631   3.415  42.768  14.539
 7306W        W79632  32.171  26.653   2.656
 7307W        W79633  38.301   9.882   3.223
 7308W        W79634  34.043  19.296  10.711
 7309W        W79635  35.041  34.833  13.829
 7310W        W79636  43.109  38.478   0.068
 7311W        W79637  13.626  37.480   3.614
 7312W        W79638  19.585  20.015   0.607
 7313W        W79639  39.750  30.872   3.676
 7314W        W79640  44.964  31.694   0.404
 7315W        W79641  21.254  12.642   4.086
 7316W        W79642  11.424  26.459   3.737
 7317W        W79643  23.149  26.733   4.666
 7318W        W79644  30.418  24.078  11.506
 7319W        W79645  34.498  32.985  14.671
 7320W        W79646  12.715  23.056  13.354
 7321W        W79647  30.120   9.297   3.321
 7322W        W79648  40.186  28.580   0.290
 7323W        W79649  27.528  33.956   3.782
 7324W        W79650  40.568   4.947   0.357
 7325W        W79651  28.052  14.357   1.680
 7326W        W79652   0.525   2.280  14.002
 7327W        W79653  39.311  20.595   1.633
 7328W        W79654  18.321   4.092   0.307
 7329W        W79655   8.828  34.099   0.254
 7330W        W79656   3.902  22.300   9.782
 7331W        W79657  22.795  12.206  10.464
 7332W        W79658  29.103  31.939  12.514
 7333W        W79659   4.159  28.942   2.753
 7334W        W79660  15.084   1.276  11.301
 7335W        W79661  33.547  20.932   2.002
 7336W        W79662  16.620   1.695  12.355
 7337W        W79663  10.926  14.349  10.748
 7338W        W79664   9.021  17.220  13.050
 7339W        W79665   0.823  43.982  14.353
 7340W        W79666  34.968  37.140  10.921
 7341W        W79667   6.521  24.886  11.952
 7342W        W79668  29.529  20.598  10.721
 7343W        W79669  43.211  22.247   2.261
 7344W        W79670  19.231  11.846   3.705
 7345W        W79671  10.314  43.782   3.629
 7346W        W79672  25.430  42.989   1.886
 7347W        W79673  40.945  20.747   0.769
 7348W        W79674  22.972  42.859  14.310
 7349W        W79675  17.989  35.525  13.902
 7350W        W79676   2.647  39.497  13.058
 7351W        W79677   3.842   0.188  10.016
 7352W        W79678  27.234  35.544   1.919
 7353W        W79679  12.764   3.728   2.281
 7354W        W79680  42.705   3.285  12.325
 7355W        W79681   2.172  11.165   1.741
 7356W        W79682  20.106  25.900  14.456
 7357W        W79683  22.424  20.604   1.310
 7358W        W79684  26.117  35.430  12.662
 7359W        W79685  21.906  20.260  12.414
 7360W        W79686  27.868  35.291   1.253
 7361W        W79687  41.077  42.604  13.378
 7362W        W79688   0.320  22.721   9.776
 7363W        W79689  14.240  18.424  13.556
 7364W        W79690  15.781  38.925   3.217
 7365W        W79691  35.898  11.820   0.694
 7366W        W79692  15.838  43.056   2.357
 7367W        W79693  22.847  36.947  11.223
 7368W        W79694   2.794  16.241   3.537
 7369W        W79695  20.816  43.219  11.989
 7370W        W79696  13.880  38.943  11.552
 7371W        W79697  31.952   1.113  14.360
 7372W        W79698   7.453  24.633   1.344
 7373W        W79699  17.540  10.779  10.713
 7374W        W79700  44.201  24.710  13.077
 7375W        W79701  16.005  16.272   4.729
 7376W        W79702   5.289   8.148   3.345
 7377W        W79703  34.544   4.105  14.087
 7378W        W79704  28.724  24.143  14.290
 7379W        W79705  36.013  33.737   0.936
 7380W        W79706  31.068   1.726   2.313
 7381W        W79707  25.689  11.624  10.204
 7382W        W79708   3.396  36.317   0.681
 7383W        W79709  12.307  32.882   2.365
 7384W        W79710  21.641  34.390   2.904
 7385W        W79711  39.437  11.643  11.905
 7386W        W79712  35.155   6.277   1.829
 7387W        W79713   1.921   9.107   0.775
 7388W        W79714  14.882  34.586   9.828
 7389W        W79715   8.478  28.484  12.823
 7390W        W79716  28.919   0.824   0.302
 7391W        W79717   8.720  20.715  10.752
 7392W        W79718   2.483  22.181  11.606
 7393W        W79719  39.023  40.874   2.791
 7394W        W79720  21.856  41.396   0.010
 7395W        W79721  34.464  15.094  11.235
 7396W        W79722   2.760  33.939  14.403
 7397W        W79723   3.315  13.805  14.479
 7398W        W79724  35.434  28.362   1.016
 7399W        W79725  29.779  17.084  13.978
 7400W        W79726  15.845  36.471  11.463
 7401W        W79727  31.173  18.262  12.959
 7402W        W79728  16.758  29.142  11.268
 7403W        W79729   0.126   8.734  12.483
 7404W        W79730  25.670   2.176   0.718
 7405W        W79731   6.074  15.219  13.397
 7406W        W79732  11.189  23.662  10.568
 7407W        W79733   3.362  41.268  10.913
 7408W        W79734  17.275  43.546   4.840
 7409W        W79735  43.386  42.400   4.750
 7410W        W79736   7.192  18.623  13.340
 7411W        W79737  20.623  39.345  13.521
 7412W        W79738   3.286  34.455   4.042
 7413W        W79739  15.645  36.053   4.671
 7414W        W79740  32.375   0.297  10.141
 7415W        W79741  18.013  28.247   3.729
 7416W        W79742  24.358  29.126   4.465
 7417W        W79743   6.185  14.827   3.067
 7418W        W79744   6.152   2.568   4.484
 7419W        W79745   1.681   3.940  11.896
 7420W        W79746  37.727  35.642  14.206
 7421W        W79747   3.039  18.533  13.445
 7422W        W79748  21.211  24.438   4.122
 7423W        W79749   0.905  19.643  14.853
 7424W        W79750  44.896  43.990  10.503
 7425W        W79751  23.623  38.708  14.347
 7426W        W79752  29.027   5.294   3.862
 7427W        W79753  20.477  16.587  13.065
 7428W        W79754  15.846  17.542   3.381
 7429W        W79755   9.959  31.859   4.887
 7430W        W79756   4.001  42.961   1.419
 7431W        W79757  23.358  34.471  11.636
 7432W        W79758  34.840  34.852   2.837
 7433W        W79759  41.565   3.652   0.803
 7434W        W79760  16.645  37.351   3.801
 7435W        W79761  40.223  32.919   3.126
 7436W        W79762   3.797  13.781   3.234
 7437W        W79763  38.558  27.894  13.377
 7438W        W79764  43.546  34.286  11.742
 7439W        W79765  42.829  42.972  11.894
 7440W        W79766   1.278  25.062   4.675
 7441W        W79767  28.541  37.920  14.619
 7442W        W79768   7.425  30.031   0.926
 7443W        W79769  33.433  17.143   3.158
 7444W        W79770   2.776   5.462  11.439
 7445W        W79771  35.152  17.323   0.937
 7446W        W79772  34.857  42.828   2.865
 7447W        W79773  30.139   5.703  14.627
 7448W        W79774  13.238  43.372  14.030
 7449W        W79775  25.974  18.608  11.387
 7450W        W79776  35.101  41.409   4.457
 7451W        W79777  14.081  14.733   2.666
 7452W        W79778   2.674  43.872   1.371
 7453W        W79779  38.802  16.649  14.303
 7454W        W79780  12.747  29.170  11.926
 7455W        W79781  29.153   5.524   0.953
 7456W        W79782   9.168   0.980   1.442
 7457W        W79783  32.034  31.958  11.527
 7458W        W79784  33.580  19.488  10.801
 7459W        W79785  34.712  27.914   2.504
 7460W        W79786  40.388  30.642   2.379
 7461W        W79787  37.000   0.768  10.388
 7462W        W79788  32.341   0.745   4.985
 7463W        W79789  21.152   7.320  13.810
 7464W        W79790  10.251  35.074   1.783
 7465W        W79791  40.624  11.806  13.404
 7466W        W79792  18.180   1.344  12.349
 7467W        W79793  38.914  41.694   3.206
 7468W        W79794  30.053  37.861  11.645
 7469W        W79795  40.915  12.376   2.622
 7470W        W79796   5.566  18.943   2.360
 7471W        W79797   8.163  10.837   1.411
 7472W        W79798   6.179  28.836   2.755
 7473W        W79799  34.794   8.185   2.751
 7474W        W79800  11.603  40.650   4.241
 7475W        W79801  10.748  12.847   3.131
 7476W        W79802   5.762  31.026   4.321
 7477W        W79803   9.211  28.805  14.478
 7478W        W79804   5.376  39.784  12.337
 7479W        W79805  40.311   5.696  11.620
 7480W        W79806  44.372  22.003  11.494
 7481W        W79807  35.075   0.660  13.972
 7482W        W79808  22.551  43.782   3.270
 7483W        W79809  33.825  42.376  11.704
 7484W        W79810  12.015   1.173   5.062
 7485W        W79811  32.363  12.203  13.740
 7486W        W79812  20.402  21.785  10.220
 7487W        W79813  34.593  32.439  10.885
 7488W        W79814  12.294  38.425  10.639
 7489W        W79815   7.829  35.122  12.863
 7490W        W79816  18.830  23.715   2.301
 7491W        W79817  31.968  19.699   2.363
 7492W        W79818  18.365   5.497  12.008
 7493W        W79819   8.324  12.280  12.506
 7494W        W79820  25.496   4.281  12.751
 7495W        W79821  32.963  18.171   2.250
 7496W        W79822  42.503  20.687   3.924
 7497W        W79823  28.668  30.539  10.595
 7498W        W79824   6.185  25.083  11.557
 7499W        W79825  17.059   9.582  11.214
 7500W        W79826   0.292  10.447   0.835
 7501W        W79827   9.911  16.851  12.697
 7502W        W79828  42.802   0.858  12.350
 7503W        W79829  29.136  40.651  11.987
 7504W        W79830   7.769  35.324   1.329
 7505W        W79831  35.948  19.034  13.043
 7506W        W79832  30.650  35.308  13.461
 7507W        W79833  30.697  34.275  13.533
 7508W        W79834  16.230   4.323   2.598
 7509W        W79835  22.075  14.045   3.250
 7510W        W79836   2.255  29.669   0.229
 7511W        W79837  39.272  39.407   0.112
 7512W        W79838  21.679   3.520  12.121
 7513W        W79839  38.120   5.815   2.745
 7514W        W79840  10.376  27.089   5.041
 7515W        W79841  28.063  23.486  11.821
 7516W        W79842   9.097  42.073  12.950
 7517W        W79843  41.411  34.565  13.220
 7518W        W79844  29.649  26.651  14.552
 7519W        W79845  11.171  21.092  14.906
 7520W        W79846  19.078  35.690  13.503
 7521W        W79847  37.045  36.958   4.443
 7522W        W79848  27.832   5.346  10.644
 7523W        W79849  41.849  37.345  13.379
 7524W        W79850  21.398  28.033  11.145
 7525W        W79851  25.959  12.560   3.883
 7526W        W79852  33.058   5.193  14.004
 7527W        W79853  20.827  36.143  13.469
 7528W        W79854  44.410  18.644   4.133
 7529W        W79855  22.197   4.682   0.967
 7530W        W79856  31.144  38.955   0.788
 7531W        W79857  21.630  40.326  12.044
 7532W        W79858   1.377  43.650   1.852
 7533W        W79859  32.673   2.792   0.017
 7534W        W79860  15.568  32.990  11.501
 7535W        W79861   2.573  33.563  13.556
 7536W        W79862  41.890  33.063   4.544
 7537W        W79863  27.453   9.488  13.919
 7538W        W79864  17.754  16.413  12.974
 7539W        W79865  20.515  20.057  10.905
 7540W        W79866  25.972  15.273  10.113
 7541W        W79867  35.960  25.445  13.476
 7542W        W79868   4.395  38.079  10.360
 7543W        W79869   6.283   7.349   1.494
 7544W        W79870  43.218   7.441   3.212
 7545W        W79871  36.151   5.982  12.185
 7546W        W79872  41.211  24.010  12.012
 7547W        W79873   9.236  37.426  10.517
 7548W        W79874   4.679  21.830  10.985
 7549W        W79875  16.373   6.025  11.392
 7550W        W79876  17.979  30.856   4.327
 7551W        W79877  31.957   8.483  10.988
 7552W        W79878   3.466  38.459  14.000
 7553W        W79879   6.145  32.088   5.217
 7554W        W79880  38.052  43.856   1.813
 7555W        W79881  13.663  16.725  13.999
 7556W        W79882   3.884  24.111  10.137
 7557W        W79883  30.913  43.974  14.894
 7558W        W79884   9.626  31.657   1.290
 7559W        W79885   4.540  10.709   4.181
 7560W        W79886  33.384  10.841   2.148
 7561W        W79887  32.884   6.963  11.278
 7562W        W79888  39.007  10.833   1.732
 7563W        W79889  43.948  35.245  12.078
 7564W        W79890  21.736  26.472  12.578
 7565W        W79891  20.267  26.655  13.115
 7566W        W79892  44.587   8.803  11.165
 7567W        W79893  23.788  25.583   1.441
 7568W        W79894  37.501  28.449   1.390
 7569W        W79895  42.025  30.281   2.367
 7570W        W79896  40.928  22.163   1.746
 7571W        W79897  36.397  16.517   4.369
 7572W        W79898   0.850  19.678  13.949
 7573W        W79899  21.235  34.721  12.330
 7574W        W79900  42.261  33.920  13.731
 7575W        W79901  26.477  28.034  13.988
 7576W        W79902   1.343  22.608  13.039
 7577W        W79903   6.241  43.307   0.945
 7578W        W79904  30.462  24.517   4.273
 7579W        W79905  29.727  26.550   0.872
 7580W        W79906  35.443  44.184  12.942
 7581W        W79907  41.639   6.080  11.648
 7582W        W79908  36.511  18.982   1.723
 7583W        W79909  17.078  29.878  11.858
 7584W        W79910  23.700  13.043   0.282
 7585W        W79911   2.743  28.448  10.628
 7586W        W79912  26.712  26.049  10.141
 7587W        W79913  11.343   0.975   1.307
 7588W        W79914  44.382  17.555  11.125
 7589W        W79915  12.639  23.308  10.945
 7590W        W79916  23.699  29.374   2.662
 7591W        W79917   1.786  41.073   3.529
 7592W        W79918  38.156   9.755  13.049
 7593W        W79919  38.085  36.871  13.387
 7594W        W79920  42.453   5.904   1.308
 7595W        W79921  10.604  17.286   3.367
 7596W        W79922   7.894  18.292  10.706
 7597W        W79923  22.410  11.659   3.175
 7598W        W79924  41.877  36.290  12.528
 7599W        W79925  17.189  31.958   3.724
 7600W        W79926  15.672   5.771   2.729
 7601W        W79927  30.183  34.055   2.556
 7602W        W79928  39.395  33.392   3.361
 7603W        W79929   9.562  38.852  11.697
 7604W        W79930  33.353  16.701  13.196
 7605W        W79931  25.018  26.895  11.585
 7606W        W79932  11.323  33.246  10.684
 7607W        W79933  15.854  31.332  14.869
 7608W        W79934  41.541   5.182  11.470
 7609W        W79935  24.659  28.534   2.359
 7610W        W79936  23.521   4.642   3.408
 7611W        W79937  33.952  37.321   1.425
 7612W        W79938  29.484  11.931  14.861
 7613W        W79939  15.044   6.236   4.027
 7614W        W79940  32.035  22.093  14.939
 7615W        W79941  15.692  22.742   2.440
 7616W        W79942  17.221  32.875  12.975
 7617W        W79943  11.635   6.192  10.936
 7618W        W79944   7.854  26.257  14.368
 7619W        W79945  21.103  28.029   3.591
 7620W        W79946  17.808  32.466  11.686
 7621W        W79947  34.218  26.037  11.462
 7622W        W79948  39.736   2.345   0.980
 7623W        W79949   9.639   9.185  12.004
 7624W        W79950   8.687  12.447   4.477
 7625W        W79951  11.655   2.720   3.381
 7626W        W79952  34.326  16.200   0.835
 7627W        W79953  38.543  41.600  12.438
 7628W        W79954  31.587  38.494   2.357
 7629W        W79955   4.200  44.171   0.125
 7630W        W79956  10.810  32.679   4.209
 7631W        W79957   4.161  40.856  12.163
 7632W        W79958   7.573  35.453  14.976
 7633W        W79959   4.505  33.988  12.502
 7634W        W79960  41.351  37.546   3.782
 7635W        W79961  29.888  33.509  12.385
 7636W        W79962  18.136   1.864   1.343
 7637W        W79963  24.974  36.025   1.755
 7638W        W79964  38.984   5.348  14.065
 7639W        W79965  22.164  19.226  12.950
 7640W        W79966  31.944  39.093  14.068
 7641W        W79967  32.371   2.719   4.893
 7642W        W79968  34.065   2.826   1.335
 7643W        W79969  18.384  41.428  14.115
 7644W        W79970  37.406  28.415  13.808
 7645W        W79971  40.898  23.097  10.782
 7646W        W79972  33.476  42.434   1.275
 7647W        W79973  26.667  25.039  13.339
 7648W        W79974  18.001  37.008  12.526
 7649W        W79975  26.530  43.392  14.307
 7650W        W79976   7.064  11.712  11.586
 7651W        W79977  20.303  27.625  14.984
 7652W        W79978  24.454  31.851   1.810
 7653W        W79979  42.690  40.839  12.418
 7654W        W79980   3.027  11.808  11.904
 7655W        W79981  28.243  20.828  11.612
 7656W        W79982   6.398   5.218  13.508
 7657W        W79983   2.918  32.520  12.226
 7658W        W79984   9.745   5.150  12.592
 7659W        W79985  43.220  33.357   0.250
 7660W        W79986  34.841  42.339  13.932
 7661W        W79987   6.603  39.401   3.737
 7662W        W79988  28.736  25.188   4.174
 7663W        W79989   0.839  34.146   0.978
 7664W        W79990   9.697   1.945   3.773
 7665W        W79991  15.183  10.203  14.393
 7666W        W79992  29.106   2.622  11.584
 7667W        W79993  40.713  23.875  12.053
 7668W        W79994  36.324   6.726  10.638
 7669W        W79995   2.914   7.716   0.218
 7670W        W79996  37.315  42.881  14.984
 7671W        W79997  29.481   6.140  11.470
 7672W        W79998  10.929   2.573   1.761
 7673W        W79999  31.585   7.432   4.847
 7674W        W80000  44.999  43.835  11.505
 7675W        W80001  35.693  22.966   1.101
 7676W        W80002   3.034  36.106   0.380
 7677W        W80003  37.352   2.516  14.373
 7678W        W80004  23.517   5.383   0.714
 7679W        W80005  13.325  16.180   4.077
 7680W        W80006  31.642  14.559  13.389
 7681W        W80007  44.507   1.939   4.634
 7682W        W80008   6.064  18.183   1.199
 7683W        W80009  10.086   3.391  12.938
 7684W        W80010   4.346  27.074  13.722
 7685W        W80011  24.771   5.856   0.171
 7686W        W80012  10.749  31.150   3.307
 7687W        W80013   3.714  12.172   5.348
 7688W        W80014   3.783  39.517   1.956
 7689W        W80015  42.327  18.048  10.744
 7690W        W80016  31.178  12.767   4.587
 7691W        W80017  16.126   5.079   3.128
 7692W        W80018  16.664  19.945  14.005
 7693W        W80019  35.597   9.069  11.222
 7694W        W80020  14.895  20.210  12.609
 7695W        W80021  36.828  38.788   3.862
 7696W        W80022  28.929  10.802   1.855
 7697W        W80023  10.189  22.966  14.613
 7698W        W80024  15.519  22.212   3.319
 7699W        W80025  33.329  23.498  12.571
 7700W        W80026  30.282   2.562  13.781
 7701W        W80027  44.067  38.477  10.712
 7702W        W80028  27.904  29.578  12.246
 7703W        W80029  12.499  24.449   2.821
 7704W        W80030  10.620   5.395  14.895
 7705W        W80031  22.116  29.903   0.285
 7706W        W80032  34.777   0.698  13.512
 7707W        W80033  25.653  12.883  14.801
 7708W        W80034   3.435  36.358  14.292
 7709W        W80035  17.525  37.070   0.871
 7710W        W80036  26.957  23.783   4.108
 7711W        W80037  17.721  40.454  11.568
 7712W        W80038  42.879  38.263   0.927
 7713W        W80039  25.033   5.805   2.473
 7714W        W80040  12.893  25.782   9.942
 7715W        W80041  21.016  37.147  14.007
 7716W        W80042  43.098  35.492   1.958
 7717W        W80043   3.770   7.468   2.912
 7718W        W80044  29.148  19.249  12.459
 7719W        W80045   3.986  17.772   0.701
 7720W        W80046   1.225   9.116  14.543
 7721W        W80047  15.809  39.636   4.374
 7722W        W80048  26.620  26.475   9.873
 7723W        W80049   0.616   0.461   1.259
 7724W        W80050  43.774   0.593   4.476
 7725W        W80051   4.695  26.130  14.377
 7726W        W80052  36.040   7.758  11.590
 7727W        W80053   4.461  19.250  10.673
 7728W        W80054  28.618  33.866   3.625
 7729W        W80055  13.145  23.131   3.026
 7730W        W80056  23.102   6.724  11.052
 7731W        W80057  34.578  17.822   3.677
 7732W        W80058  44.492  34.463  12.590
 7733W        W80059   4.831  39.222   1.270
 7734W        W80060  13.452  23.482   0.329
 7735W        W80061  42.944   5.350  10.690
 7736W        W80062  36.612  10.728   5.099
 7737W        W80063   7.125   7.723   4.491
 7738W        W80064  41.020  35.492  13.614
 7739W        W80065  20.646  10.080   3.917
 7740W        W80066  18.482  42.882   4.173
 7741W        W80067  35.078  11.765  11.069
 7742W        W80068  37.816  30.503   4.064
 7743W        W80069  31.416  15.203   1.894
 7744W        W80070  41.124   5.353   0.892
 7745W        W80071  33.178  15.812  12.410
 7746W        W80072  41.776  41.376   1.241
 7747W        W80073   3.780  37.613  10.789
 7748W        W80074  39.159  17.660  13.535
 7749W        W80075  17.028  35.653   2.140
 7750W        W80076   5.837  41.960   3.153
 7751W        W80077  35.563   5.027   4.094
 7752W        W80078  40.501  15.378  14.960
 7753W        W80079   9.869  35.341  14.284
 7754W        W80080  17.259  20.766   4.507
 7755W        W80081  34.555   7.712   2.891
 7756W        W80082  22.920  25.974   0.748
 7757W        W80083  35.857   6.832   0.858
 7758W        W80084  37.517  14.590   1.443
 7759W        W80085  41.902  22.113   0.830
 7760W        W80086  40.955   5.761   4.787
 7761W        W80087  39.194   1.535   4.362
 7762W        W80088  14.802  43.278  12.033
 7763W        W80089  38.371  12.770  10.911
 7764W        W80090  34.418  32.533  12.437
 7765W        W80091  28.159   1.410   1.453
 7766W        W80092  12.190   6.386  12.912
 7767W        W80093  34.014  23.373   4.079
 7768W        W80094  13.388  43.611   1.607
 7769W        W80095  27.672  27.208  13.305
 7770W        W80096  38.472  19.240  10.872
 7771W        W80097  15.832   2.921  12.943
 7772W        W80098  20.742  25.401   2.794
 7773W        W80099  41.239  32.784  14.277
 7774W        W80100   6.808  12.160  11.634
 7775W        W80101  17.200  41.581   4.390
 7776W        W80102  43.715  11.911  11.162
 7777W        W80103   3.483   6.750   0.966
 7778W        W80104  41.259  27.563   2.101
 7779W        W80105  42.305  43.751   3.209
 7780W        W80106  29.478   3.321   0.412
 7781W        W80107  11.656   8.617  13.100
 7782W        W80108   2.795   6.685   2.226
 7783W        W80109  30.052  14.185   3.173
 7784W        W80110  27.966  13.894   2.323
 7785W        W80111   7.118  35.607   0.175
 7786W        W80112   1.425   4.671   1.422
 7787W        W80113  38.436  26.070   1.997
 7788W        W80114   7.653  40.339  13.953
 7789W        W80115  36.662  17.689   2.691
 7790W        W80116  33.068  19.481  11.589
 7791W        W80117  15.999  43.136   4.469
 7792W        W80118  38.756   0.470   4.031
 7793W        W80119  25.235  39.914   2.187
 7794W        W80120  22.129  14.618   2.516
 7795W        W80121   0.502  34.553   1.192
 7796W        W80122  30.691  30.901   0.094
 7797W        W80123  30.600   1.260  13.258
 7798W        W80124   3.161   5.302   1.314
 7799W        W80125   3.702  41.541  10.675
 7800W        W80126  18.241   3.986  12.208
 7801W        W80127  42.007  15.001   3.121
 7802W        W80128  13.411  23.253  13.501
 7803W        W80129   5.712   1.778   2.283
 7804W        W80130  42.400  15.298   0.108
 7805W        W80131  24.636  30.458   3.404
 7806W        W80132  44.224  11.604  13.447
 7807W        W80133   5.221  34.056  14.568
 7808W        W80134  32.708   3.212  14.687
 7809W        W80135  34.567  21.373  13.075
 7810W        W80136  16.342  26.934  14.891
 7811W        W80137  31.645  43.648  12.903
 7812W        W80138  38.933  26.277  13.320
 7813W        W80139   4.289   7.334   2.593
 7814W        W80140  18.081  30.835  12.885
 7815W        W80141  16.748  28.386  14.063
 7816W        W80142   6.759  31.867  12.412
 7817W        W80143  43.593  33.406  12.994
 7818W        W80144  29.555   8.506   4.175
 7819W        W80145  44.347   1.773  14.640
 7820W        W80146  19.288  44.258   0.788
 7821W        W80147  13.503  29.020  13.449
 7822W        W80148  40.383  12.764  13.382
 7823W        W80149  19.799  36.714   2.184
 7824W        W80150   8.373   6.960  14.412
 7825W        W80151  11.162   1.228  14.804
 7826W        W80152  39.570  42.485   4.129
 7827W        W80153  19.386   8.810   3.230
 7828W        W80154  34.079  40.929  14.890
 7829W        W80155   9.644   5.713  14.362
 7830W        W80156   0.263  44.232   0.909
 7831W        W80157  13.718  23.604   3.579
 7832W        W80158  35.943  15.814  14.100
 7833W        W80159  29.455  19.036   0.754
 7834W        W80160  10.698  39.900  14.534
 7835W        W80161  28.262  21.680  14.692
 7836W        W80162  31.924  25.650  14.928
 7837W        W80163   4.050   3.259   4.745
 7838W        W80164  24.057  24.664   2.913
 7839W        W80165  35.092  30.451  10.199
 7840W        W80166  20.519  19.765  14.860
 7841W        W80167  19.751  19.248   1.295
 7842W        W80168   6.000  35.672  11.514
 7843W        W80169  27.627  34.138  11.509
 7844W        W80170  13.086  41.969   1.198
 7845W        W80171   1.044  44.837  14.202
 7846W        W80172  41.038  16.634   1.978
 7847W        W80173  43.769  40.831   3.627
 7848W        W80174  36.616  31.457  12.932
 7849W        W80175   4.147   5.802   1.165
 7850W        W80176  43.272   9.727   1.950
 7851W        W80177  35.085  13.686  14.542
 7852W        W80178  27.977  26.112  14.700
 7853W        W80179  39.933  28.992   2.807
 7854W        W80180  27.564  18.870   0.341
 7855W        W80181  40.446  21.552  13.050
 7856W        W80182  36.873   0.152   1.755
 7857W        W80183  21.455  28.892   4.072
 7858W        W80184  42.689   7.157  12.571
 7859W        W80185  24.722  32.697   4.602
 7860W        W80186  39.487  34.679   1.818
 7861W        W80187  16.087   9.786   3.610
 7862W        W80188   1.419   9.047  13.318
 7863W        W80189  44.409  14.365  13.927
 7864W        W80190  24.513   4.440   2.616
 7865W        W80191  34.067  10.659   4.456
 7866W        W80192  11.453  27.737  13.239
 7867W        W80193  33.466   4.662  12.037
 7868W        W80194  24.934  32.162   0.230
 7869W        W80195  27.480  15.685   4.059
 7870W        W80196  17.782  16.337   3.139
 7871W        W80197  24.076   4.368   4.033
 7872W        W80198  16.886  44.902  11.231
 7873W        W80199  13.144  27.183  10.243
 7874W        W80200  11.627  31.866   4.982
 7875W        W80201  34.822  16.931   0.649
 7876W        W80202   3.864  18.680   4.611
 7877W        W80203  19.273  39.745  10.853
 7878W        W80204   6.588   9.696   4.072
 7879W        W80205  17.605  21.028   1.614
 7880W        W80206  20.199  41.460  13.720
 7881W        W80207  35.480   8.668  13.018
 7882W        W80208  12.552   3.400   4.003
 7883W        W80209  42.600  12.213  14.308
 7884W        W80210   8.681  39.390  13.797
 7885W        W80211   1.535  41.639  12.562
 7886W        W80212  17.390  36.149   5.061
 7887W        W80213  20.042   3.646  11.402
 7888W        W80214   2.238   0.516  11.971
 7889W        W80215  19.597   6.656  13.789
 7890W        W80216  38.471  17.350  10.692
 7891W        W80217  43.908  33.227   4.119
 7892W        W80218  44.032  17.315  12.786
 7893W        W80219   7.947  40.396  11.198
 7894W        W80220  31.937  16.002  13.750
 7895W        W80221   8.693  20.206  13.401
 7896W        W80222  15.655   8.428  14.102
 7897W        W80223  32.590  17.276   3.668
 7898W        W80224  15.188  28.624  10.721
 7899W        W80225  36.927  44.490  13.713
 7900W        W80226  44.610  39.903   2.121
 7901W        W80227  28.639  17.747  13.613
 7902W        W80228   8.390  32.859   4.267
 7903W        W80229   6.692  10.939  11.618
 7904W        W80230  17.703  34.856   3.759
 7905W        W80231  31.416  13.685   1.239
 7906W        W80232   2.729  15.600   0.657
 7907W        W80233  31.585   6.726  12.501
 7908W        W80234  21.779  41.942  11.543
 7909W        W80235  35.980  42.786  11.134
 7910W        W80236  29.931  42.456   0.567
 7911W        W80237  23.373   6.255   3.072
 7912W        W80238  13.223  36.163   0.420
 7913W        W80239   8.720  30.184  10.255
 7914W        W80240  27.477  19.918  12.044
 7915W        W80241  17.772   3.798  11.904
 7916W        W80242   7.771   8.811   4.941
 7917W        W80243  33.123  36.790   3.244
 7918W        W80244   1.898  22.284  12.666
 7919W        W80245  13.954   6.717  14.831
 7920W        W80246  37.035  33.405  12.958
 7921W        W80247  13.813  43.454   0.226
 7922W        W80248  13.670   0.459   4.828
 7923W        W80249  28.687  13.194  14.302
 7924W        W80250  12.628  22.839  10.645
 7925W        W80251   6.137  38.134   3.108
 7926W        W80252  34.976  42.332  14.573
 7927W        W80253  36.345  25.748   4.226
 7928W        W80254  19.988  41.392   0.223
 7929W        W80255  13.691  21.990   4.595
 7930W        W80256  42.221  35.044  11.637
 7931W        W80257  44.404  44.571  13.629
 7932W        W80258  13.186  37.013  13.382
 7933W        W80259  16.069  35.837  12.435
 7934W        W80260  15.173  44.786  11.810
 7935W        W80261   0.367  37.862  11.713
 7936W        W80262  17.120   3.621  11.244
 7937W        W80263   1.736  31.126  13.786
 7938W        W80264  34.825   8.331  10.709
 7939W        W80265  23.595  40.808   0.246
 7940W        W80266  11.672  28.615   2.866
 7941W        W80267   7.185  29.581  12.526
 7942W        W80268   8.635  30.712   4.946
 7943W        W80269  26.211  29.218  13.431
 7944W        W80270  23.661   1.407  14.270
 7945W        W80271   7.691  35.306   4.048
 7946W        W80272   0.209   9.203   0.233
 7947W        W80273  12.934  12.063  12.970
 7948W        W80274   2.950  31.056  14.989
 7949W        W80275  40.762   6.172   4.062
 7950W        W80276  34.222  23.625   1.782
 7951W        W80277   6.730  28.660   4.795
 7952W        W80278  38.371  20.102   4.766
 7953W        W80279  21.319   5.373   1.304
 7954W        W80280   1.799  39.152  12.658
 7955W        W80281  44.253  31.547   4.146
 7956W        W80282  22.191  11.165   0.296
 7957W        W80283  27.672  13.459  13.747
 7958W        W80284  25.798  16.262  10.145
 7959W        W80285  31.607  20.143  13.017
 7960W        W80286   8.950  35.809  10.685
 7961W        W80287  37.554  15.294  10.885
 7962W        W80288  12.833  42.507   0.900
 7963W        W80289  28.172   1.860  12.458
 7964W        W80290  15.261   7.026   4.462
 7965W        W80291  33.539  22.550  14.533
 7966W        W80292  29.817  23.693  10.648
 7967W        W80293  25.273  23.228  13.993
 7968W        W80294   9.147  34.090  11.227
 7969W        W80295  36.053  12.332   3.451
 7970W        W80296  24.514  37.569  13.026
 7971W        W80297  26.732   5.855  14.053
 7972W        W80298  13.852  35.102  13.485
 7973W        W80299   9.749   0.699   0.278
 7974W        W80300  17.491  11.774  11.027
 7975W        W80301   2.673  21.686   2.977
 7976W        W80302  12.923   8.076   0.983
 7977W        W80303  39.494  15.358  14.938
 7978W        W80304   5.332   5.668   0.410
 7979W        W80305  40.525  23.619  13.345
 7980W        W80306  32.836  34.675   0.783
 7981W        W80307  10.188  44.753   0.552
 7982W        W80308  24.536   6.109  12.559
 7983W        W80309  33.857  17.802   3.258
 7984W        W80310  25.710  21.478  14.924
 7985W        W80311  14.192  21.740  13.675
 7986W        W80312   9.423  28.640  10.643
 7987W        W80313  17.498  30.096   4.913
 7988W        W80314  18.157  37.646   1.841
 7989W        W80315   0.695   5.986  10.321
 7990W        W80316  32.435  17.096  10.287
 7991W        W80317  38.068  24.948   1.337
 7992W        W80318  40.491  26.775   2.733
 7993W        W80319  43.327  10.202  13.450
 7994W        W80320  33.594  25.594  12.996
 7995W        W80321   5.203  26.179   4.760
 7996W        W80322   2.319  23.031   2.335
 7997W        W80323   0.003  11.242   4.858
 7998W        W80324  35.549  11.627  14.433
 7999W        W80325  37.123  31.987  13.639
 8000W        W80326  36.066  22.231  12.541
 8001W        W80327   8.319  30.167   3.637
 8002W        W80328  13.146  36.329   4.600
 8003W        W80329   3.865  28.046   4.638
 8004W        W80330  12.802  26.698  14.925
 8005W        W80331   5.858  31.883  12.359
 8006W        W80332  26.926   2.358   2.977
 8007W        W80333  30.202   0.943  13.369
 8008W        W80334   1.224  39.053  10.711
 8009W        W80335  41.550  22.718   0.837
 8010W        W80336   4.403  22.647  11.886
 8011W        W80337  35.688  21.946   2.620
 8012W        W80338  40.803   4.793   3.901
 8013W        W80339  22.103   5.761   1.719
 8014W        W80340  44.485   1.392  14.329
 8015W        W80341   4.892  32.907  14.804
 8016W        W80342  16.831   7.513   2.466
 8017W        W80343  43.759  37.412  13.836
 8018W        W80344  20.037   0.943  13.902
 8019W        W80345  21.076   3.351  12.887
 8020W        W80346  34.906  23.041  10.130
 8021W        W80347   1.969   5.628  12.760
 8022W        W80348  24.359   4.425  11.641
 8023W        W80349   0.864  38.481   2.143
 8024W        W80350  22.751  37.001   3.610
 8025W        W80351  31.901   0.976   2.617
 8026W        W80352  16.311  26.048  12.824
 8027W        W80353   6.883   8.147   1.788
 8028W        W80354  31.210  14.178  10.393
 8029W        W80355  21.176   1.070  12.139
 8030W        W80356  36.904  25.689   1.911
 8031W        W80357  12.014  31.382  13.965
 8032W        W80358   8.641  25.782  14.874
 8033W        W80359   7.890   1.897  12.487
 8034W        W80360  44.882  16.353   0.280
 8035W        W80361  43.920   3.204   0.487
 8036W        W80362   7.832  14.765  10.750
 8037W        W80363   2.310   9.277  11.733
 8038W        W80364  24.316  43.303  12.123
 8039W        W80365  20.186  34.581  11.950
 8040W        W80366  44.928   4.845  14.056
 8041W        W80367   6.388   3.501  10.927
 8042W        W80368  18.209  21.116  13.375
 8043W        W80369   2.496   1.255   1.719
 8044W        W80370   3.492  43.095   0.439
 8045W        W80371  28.653  28.914   4.228
 8046W        W80372   2.470  26.760  11.947
 8047W        W80373   1.951  11.347  14.423
 8048W        W80374  40.873  38.091   2.498
 8049W        W80375  10.732   9.341   3.881
 8050W        W80376  27.188  38.778   4.212
 8051W        W80377  35.536  31.066  11.683
 8052W        W80378  13.801  24.224  13.398
 8053W        W80379  31.178  20.533   3.215
 8054W        W80380   2.767   7.781  13.190
 8055W        W80381  22.273  13.294   0.288
 8056W        W80382  33.616   6.235  13.351
 8057W        W80383  21.205  36.587  13.573
 8058W        W80384  35.407  17.982   4.577
 8059W        W80385  18.067  14.635   0.273
 8060W        W80386  10.679  44.511   4.137
 8061W        W80387  10.628  18.824  13.395
 8062W        W80388  10.879  40.368   3.396
 8063W        W80389   0.258   9.804   5.697
 8064W        W80390  38.277  41.251   4.699
 8065W        W80391  40.080  26.069   3.609
 8066W        W80392   5.768  21.630  14.062
 8067W        W80393  27.235  17.107   4.678
 8068W        W80394   9.258  26.799  10.086
 8069W        W80395  42.523  32.338  13.640
 8070W        W80396  26.465  28.943  11.603
 8071W        W80397  35.975  19.571  12.097
 8072W        W80398  26.783  42.383   3.570
 8073W        W80399  22.733  13.758   1.693
 8074W        W80400  13.542  38.592   4.106
 8075W        W80401   8.907  16.992  11.109
 8076W        W80402  35.098  23.142   2.593
 8077W        W80403  26.153  18.011   1.403
 8078W        W80404   1.441   2.782   1.606
 8079W        W80405  39.428  15.292  11.141
 8080W        W80406   8.468  37.486  13.548
 8081W        W80407  28.017  44.799  14.326
 8082W        W80408  19.956   4.882  10.111
 8083W        W80409  39.448  38.958  11.190
 8084W        W80410   6.018  22.546   2.619
 8085W        W80411  16.803  32.184   4.269
 8086W        W80412  25.134   3.823  13.903
 8087W        W80413  21.154  12.006  13.665
 8088W        W80414   4.971  37.105  10.043
 8089W        W80415  36.328  37.376  11.482
 8090W        W80416  36.167  23.761  11.600
 8091W        W80417  28.177  25.881  11.768
 8092W        W80418  15.390  20.086   2.572
 8093W        W80419  24.585   5.128   4.483
 8094W        W80420   4.986  32.349  13.439
 8095W        W80421   8.240  36.043   1.388
 8096W        W80422  19.256   9.988   4.751
 8097W        W80423  27.762  35.504   5.227
 8098W        W80424   5.304   6.338   1.028
 8099W        W80425  36.280   4.336   0.449
 8100W        W80426  23.477  14.187   4.195
 8101W        W80427  12.180  13.129  12.244
 8102W        W80428   8.126  16.172   2.305
 8103W        W80429  27.440  10.830  13.465
 8104W        W80430  42.377  12.648   1.290
 8105W        W80431  23.265  23.512  12.581
 8106W        W80432  32.037  35.043  13.430
 8107W        W80433  11.145  41.280  14.041
 8108W        W80434   8.928  39.173   5.073
 8109W        W80435  24.482  40.361   4.660
 8110W        W80436  30.810  27.476   3.212
 8111W        W80437  25.991   5.333  12.095
 8112W        W80438   6.310  33.150  12.518
 8113W        W80439  22.805   3.386  14.256
 8114W        W80440  31.667  44.469   2.077
 8115W        W80441  27.136   1.293  13.494
 8116W        W80442   9.687   1.022   3.185
 8117W        W80443  13.819  26.696  13.033
 8118W        W80444  31.347  13.789   4.450
 8119W        W80445  38.893   6.904  12.075
 8120W        W80446  17.135  29.828   1.804
 8121W        W80447  29.255  22.687  12.891
 8122W        W80448  12.707  39.073   1.660
 8123W        W80449   9.250   0.207   1.836
 8124W        W80450  25.964   3.825   3.918
 8125W        W80451  40.373   9.332  12.135
 8126W        W80452  27.166  36.803  11.997
 8127W        W80453   5.764  27.688   1.450
 8128W        W80454  17.049   3.312   2.800
 8129W        W80455   5.436   3.805   2.375
 8130W        W80456  15.651  28.227   0.497
 8131W        W80457   5.984  43.015  11.184
 8132W        W80458  24.420  39.152   4.737
 8133W        W80459  28.683  33.107   2.853
 8134W        W80460  33.169   0.019   1.808
 8135W        W80461  26.958  36.358  12.878
 8136W        W80462  29.710  11.307  11.545
 8137W        W80463  13.539  34.671  13.517
 8138W        W80464   4.042   5.345   4.639
 8139W        W80465  44.383  28.885   3.192
 8140W        W80466  44.141  23.634   3.175
 8141W        W80467  12.861  43.949  12.997
 8142W        W80468  20.571   0.669  13.077
 8143W        W80469  21.782  23.114   4.355
 8144W        W80470  18.093  40.487  13.552
 8145W        W80471  37.465  12.309  12.339
 8146W        W80472  24.148  35.738  10.192
 8147W        W80473  35.629   2.968   4.123
 8148W        W80474  25.075  16.184  14.912
 8149W        W80475  33.999  25.439  14.924
 8150W        W80476  39.468  35.254   3.161
 8151W        W80477  18.210  32.516  11.358
 8152W        W80478   1.196  24.725  11.033
 8153W        W80479   7.211   0.424  14.205
 8154W        W80480  42.926  16.279   2.622
 8155W        W80481  28.548  30.604   1.698
 8156W        W80482  11.933  10.222  12.610
 8157W        W80483   2.772  38.867  10.562
 8158W        W80484  39.890  37.777   1.393
 8159W        W80485  22.743  42.084  11.687
 8160W        W80486  28.118  39.511   4.708
 8161W        W80487  31.304  10.414  13.384
 8162W        W80488  20.064   2.350   1.832
 8163W        W80489  13.847  20.150  13.544
 8164W        W80490   0.587  23.523   4.936
 8165W        W80491  18.173   1.434  12.846
 8166W        W80492  12.288  41.351  12.484
 8167W        W80493  15.274  36.078   1.547
 8168W        W80494   3.292   7.894   2.772
 8169W        W80495   5.102  22.193   0.981
 8170W        W80496  17.744  25.839   1.596
 8171W        W80497  42.917  38.924  14.342
 8172W        W80498  34.096  29.383  14.230
 8173W        W80499  19.225   3.054  14.092
 8174W        W80500   8.623  14.453   0.799
 8175W        W80501  42.774   8.445  14.110
 8176W        W80502  23.819  40.412  12.407
 8177W        W80503  34.377  36.022   4.704
 8178W        W80504  15.986  10.373  13.346
 8179W        W80505   7.873  21.521  11.124
 8180W        W80506  12.130  24.675   3.119
 8181W        W80507  12.441  36.051   4.696
 8182W        W80508  31.322   5.513   4.119
 8183W        W80509   2.232  17.311  14.576
 8184W        W80510   8.838  24.997  11.004
 8185W        W80511  12.841  12.276  14.808
 8186W        W80512  39.562  42.573   2.704
 8187W        W80513  21.542  16.641   3.600
 8188W        W80514  30.645  44.883  14.790
 8189W        W80515  20.645  25.759  14.047
 8190W        W80516   5.892  36.135   3.799
 8191W        W80517   1.820  11.789   1.888
 8192W        W80518  20.242   4.509   4.138
 8193W        W80519  13.614  24.948  10.622
 8194W        W80520  35.295  23.489   4.316
 8195W        W80521  17.740  14.258   3.046
 8196W        W80522  36.547   0.825   0.417
 8197W        W80523  30.782  18.434  12.635
 8198W        W80524   3.479  37.357   2.709
 8199W        W80525  43.195   4.314  12.520
 8200W        W80526  41.298  40.854   2.736
 8201W        W80527  11.406  15.301  13.975
 8202W        W80528   5.307  32.084  12.483
 8203W        W80529  14.102  12.668  13.064
 8204W        W80530  23.285  11.168  13.306
 8205W        W80531  24.319   9.267  11.615
 8206W        W80532   0.853  12.667  13.838
 8207W        W80533  38.232  44.719   3.235
 8208W        W80534  21.267  12.892   3.640
 8209W        W80535  12.156   3.542   3.251
 8210W        W80536  17.718  38.739  12.088
 8211W        W80537   4.407  43.480  11.978
 8212W        W80538  25.296  15.931  13.027
 8213W        W80539   1.718  29.065   2.828
 8214W        W80540   1.992  14.542   4.084
 8215W        W80541  19.405  28.034  11.764
 8216W        W80542  13.782  14.806  12.560
 8217W        W80543  15.363  12.203   4.578
 8218W        W80544  31.225   1.811  12.344
 8219W        W80545   7.855  11.715  13.820
 8220W        W80546   3.089   5.149   4.528
 8221W        W80547   0.026  37.749  13.733
 8222W        W80548   9.868   8.304   3.221
 8223W        W80549  13.828  16.812   0.460
 8224W        W80550  10.793   4.007  13.422
 8225W        W80551  32.479  38.922  10.451
 8226W        W80552  18.273  42.663  14.848
 8227W        W80553  41.589   1.422  13.803
 8228W        W80554  27.440  26.505   0.705
 8229W        W80555  29.283  36.831   2.272
 8230W        W80556   1.373  34.385   4.384
 8231W        W80557  30.931  37.231   3.711
 8232W        W80558  42.842  24.326  13.005
 8233W        W80559  12.256   8.800   3.336
 8234W        W80560  10.310  42.589  13.438
 8235W        W80561  19.429   5.617   2.413
 8236W        W80562  41.233  43.546  12.455
 8237W        W80563  13.871   9.583   2.253
 8238W        W80564  32.400  31.618   2.287
 8239W        W80565  32.940  33.009  12.592
 8240W        W80566  11.150  16.802   3.128
 8241W        W80567  10.410  27.109   4.526
 8242W        W80568   7.003   4.970   0.393
 8243W        W80569   1.453   5.196   2.107
 8244W        W80570  25.542  10.284  14.365
 8245W        W80571  16.148  24.680  10.674
 8246W        W80572  20.373  27.321  13.358
 8247W        W80573  41.563  34.438  12.266
 8248W        W80574  36.319  34.042  10.524
 8249W        W80575  34.351   2.431   1.098
 8250W        W80576  29.952   6.908   4.375
 8251W        W80577   1.835  30.621  11.885
 8252W        W80578  37.868  29.128   0.318
 8253W        W80579  28.432  39.926   4.262
 8254W        W80580  37.478  41.087  10.772
 8255W        W80581  19.473  30.879   4.143
 8256W        W80582  29.338  20.517  12.009
 8257W        W80583  43.085  12.159   1.439
 8258W        W80584  15.244  26.606  13.415
 8259W        W80585  31.146  19.443  12.386
 8260W        W80586  38.915  36.299  13.667
 8261W        W80587  30.546   7.674   3.378
 8262W        W80588  26.490   4.369   2.964
 8263W        W80589   3.787  36.375   3.330
 8264W        W80590  44.946   5.082  12.277
 8265W        W80591  39.319   3.432   4.808
 8266W        W80592  15.623  26.730   4.209
 8267W        W80593  29.987   3.812   4.879
 8268W        W80594   5.219  36.129  11.131
 8269W        W80595  32.662   5.397   0.748
 8270W        W80596  17.373  28.865  12.658
 8271W        W80597   8.657  17.597  10.510
 8272W        W80598   8.853   3.217  12.111
 8273W        W80599  15.958  20.541  12.721
 8274W        W80600  20.676  24.458   2.302
 8275W        W80601  18.745  24.980   0.483
 8276W        W80602  35.092  18.266   2.184
 8277W        W80603  11.168  16.267  14.052
 8278W        W80604  20.696  44.557  11.477
 8279W        W80605  25.540  44.191   5.014
 8280W        W80606  13.419  16.996  11.520
 8281W        W80607  17.220   8.374   3.639
 8282W        W80608  41.985  17.631   4.672
 8283W        W80609  36.328  25.186  14.408
 8284W        W80610  10.252  37.413  11.579
 8285W        W80611  33.958  17.554  13.969
 8286W        W80612  41.793  40.954   2.528
 8287W        W80613  19.671  28.870   0.059
 8288W        W80614   1.491  30.373  13.030
 8289W        W80615  35.348  42.822  11.570
 8290W        W80616  23.672  42.357  12.447
 8291W        W80617  39.421  15.338  12.548
 8292W        W80618  29.549  39.431   4.177
 8293W        W80619  43.691  11.524  13.429
 8294W        W80620  33.481  29.421  11.031
 8295W        W80621  33.340  19.679  11.206
 8296W        W80622  28.543  39.142  12.804
 8297W        W80623   3.998  14.249   2.853
 8298W        W80624   6.038  24.591  10.785
 8299W        W80625  32.706   0.348   1.711
 8300W        W80626  28.155  21.230  14.923
 8301W        W80627  42.295  42.663  11.039
 8302W        W80628  38.592  36.414   4.197
 8303W        W80629  32.029  36.989   2.414
 8304W        W80630   0.209  35.029  11.572
 8305W        W80631  41.011  43.410   1.904
 8306W        W80632  22.354   1.259  13.270
 8307W        W80633   1.969  26.563  10.771
 8308W        W80634   8.122  24.469  12.057
 8309W        W80635   1.221  16.472   4.550
 8310W        W80636   4.770  41.835   3.658
 8311W        W80637   8.514  39.533  11.160
 8312W        W80638   0.547  29.708  13.231
 8313W        W80639  25.236  28.998   4.797
 8314W        W80640   1.881   6.281   0.520
 8315W        W80641  27.243   7.913  14.996
 8316W        W80642  35.224  13.424   0.622
 8317W        W80643  35.797  18.522  14.843
 8318W        W80644  43.809   9.117   2.215
 8319W        W80645  18.289  42.101   3.783
 8320W        W80646  31.424  30.976  11.510
 8321W        W80647  11.858  40.058  13.621
 8322W        W80648  19.186   6.264  11.076
 8323W        W80649  15.132  43.261  14.624
 8324W        W80650  25.297  17.755   3.282
 8325W        W80651  29.061  40.399   0.136
 8326W        W80652   1.208  13.650   1.363
 8327W        W80653  34.141   5.880  12.198
 8328W        W80654  26.964   6.064  13.431
 8329W        W80655   2.518  43.785   1.868
 8330W        W80656   2.791  20.532   5.701
 8331W        W80657   1.008  32.874   4.638
 8332W        W80658  41.394  16.212  11.524
 8333W        W80659  39.408   2.986   4.068
 8334W        W80660  34.100  12.390  12.536
 8335W        W80661  21.404   8.191   4.511
 8336W        W80662  26.910  17.634   2.569
 8337W        W80663  27.706  14.853   0.027
 8338W        W80664  18.566  18.693  14.951
 8339W        W80665   3.293  44.581   4.864
 8340W        W80666  27.488   0.725  12.936
 8341W        W80667  32.068   3.962   3.387
 8342W        W80668  25.095  42.803   1.347
 8343W        W80669  39.137  32.218  12.026
 8344W        W80670  19.235  30.584   1.275
 8345W        W80671  39.468  16.170  11.136
 8346W        W80672  41.941   7.194  13.989
 8347W        W80673  18.566  40.581   2.688
 8348W        W80674  18.693  28.073  12.483
 8349W        W80675  11.277  36.254  11.101
 8350W        W80676  24.556  17.739  13.943
 8351W        W80677  18.872   7.877  11.980
 8352W        W80678  34.927  22.260  14.963
 8353W        W80679  35.978  25.544   0.257
 8354W        W80680   7.819  26.020  13.043
 8355W        W80681  18.065  13.871  11.623
 8356W        W80682  40.252  40.420   4.545
 8357W        W80683  13.460  13.230  11.597
 8358W        W80684   6.862  13.616   1.437
 8359W        W80685   4.372  21.946  10.211
 8360W        W80686  33.360  23.134  10.977
 8361W        W80687  28.461  20.580  10.753
 8362W        W80688   4.966  21.512   0.878
 8363W        W80689   3.438  33.187  14.825
 8364W        W80690  35.786  43.054   2.468
 8365W        W80691  25.616  17.084   0.759
 8366W        W80692  43.856  20.196  12.348
 8367W        W80693  11.916  43.268   0.281
 8368W        W80694  25.045   6.698  13.317
 8369W        W80695  20.999  17.853   2.561
 8370W        W80696  17.281   9.115  11.204
 8371W        W80697  21.085  35.604  11.046
 8372W        W80698   8.446  35.633   4.316
 8373W        W80699   7.948   9.331   0.051
 8374W        W80700   6.909  17.334  12.825
 8375W        W80701  17.549  20.112   0.854
 8376W        W80702  11.577  42.387  12.918
 8377W        W80703  18.519  15.016   0.712
 8378W        W80704  31.942  17.485   5.027
 8379W        W80705   3.788  38.498  11.896
 8380W        W80706  34.192   5.149  10.768
 8381W        W80707  31.481   7.131   3.879
 8382W        W80708  15.650  29.986   3.347
 8383W        W80709  23.514  43.209  13.558
 8384W        W80710  14.928  11.686  11.933
 8385W        W80711  15.377  41.560   4.520
 8386W        W80712  33.186   1.850  13.521
 8387W        W80713  31.861  15.591   3.631
 8388W        W80714  27.205  10.738   4.365
 8389W        W80715  36.967   9.848  13.524
 8390W        W80716  10.575  31.513   1.582
 8391W        W80717   9.795  22.801   2.739
 8392W        W80718  41.323   8.841   4.961
 8393W        W80719  27.367   0.483   2.919
 8394W        W80720  15.352  18.763   3.187
 8395W        W80721  44.219  16.702  13.787
 8396W        W80722   7.330  42.527   2.119
 8397W        W80723  22.956  30.394  14.897
 8398W        W80724  44.493  42.095  13.372
 8399W        W80725  10.681   2.841  12.076
 8400W        W80726  12.189  28.438   0.313
 8401W        W80727   3.716  44.315   4.112
 8402W        W80728  36.574   9.294   0.214
 8403W        W80729   9.259  12.746  10.912
 8404W        W80730  36.421   4.447  14.522
 8405W        W80731  29.940  25.697  14.478
 8406W        W80732  26.074   0.185  11.540
 8407W        W80733  15.122  17.682   1.232
 8408W        W80734   0.517   9.384  13.408
 8409W        W80735  19.867   5.872   2.368
 8410W        W80736  30.135  20.791   1.327
 8411W        W80737  39.058  11.975  12.066
 8412W        W80738  20.980  32.101  10.753
 8413W        W80739  41.467  41.806  11.723
 8414W        W80740  36.883   9.735  12.619
 8415W        W80741   9.900  22.121  10.445
 8416W        W80742  24.213  38.304   4.600
 8417W        W80743  23.625  35.988   0.969
 8418W        W80744  12.900  26.483   1.289
 8419W        W80745  44.526  31.870   5.085
 8420W        W80746  34.994  14.408  14.682
 8421W        W80747  40.001  25.086   0.910
 8422W        W80748  36.640   8.437   2.287
 8423W        W80749  32.485  36.275  13.446
 8424W        W80750  14.824  41.875   3.861
 8425W        W80751  34.482  38.760   3.625
 8426W        W80752  41.315  42.698  12.812
 8427W        W80753  23.044  37.274  12.729
 8428W        W80754  27.781   8.576  12.818
 8429W        W80755  12.540  31.349  14.521
 8430W        W80756  32.656   0.445   1.203
 8431W        W80757  33.392  13.608   4.181
 8432W        W80758   4.551   1.428  10.411
 8433W        W80759  16.319  15.040   0.914
 8434W        W80760   1.758  10.635  12.429
 8435W        W80761  27.653   6.815  13.833
 8436W        W80762  16.934  30.241   0.575
 8437W        W80763  42.227  43.253  12.487
 8438W        W80764  20.850  44.292  11.053
 8439W        W80765   9.958  21.370   1.001
 8440W        W80766  38.004  39.879   3.600
 8441W        W80767   2.626  18.872   4.150
 8442W        W80768   1.960  38.513   4.721
 8443W        W80769   4.519  30.534   0.302
 8444W        W80770  22.602  37.089  10.800
 8445W        W80771  40.057  29.583   3.637
 8446W        W80772   8.369  12.754  10.426
 8447W        W80773  35.431  14.325  14.417
 8448W        W80774  10.040  29.123  14.914
 8449W        W80775  20.738  25.944  14.945
 8450W        W80776  31.568  35.147   3.153
 8451W        W80777  33.667  32.019  14.211
 8452W        W80778  17.786  14.593   0.707
 8453W        W80779  34.051  38.953  13.380
 8454W        W80780   1.901   4.758   4.555
 8455W        W80781  12.669   5.670  10.561
 8456W        W80782  44.395  19.457   4.684
 8457W        W80783  29.021  34.300  13.773
 8458W        W80784  26.427   0.402   3.895
 8459W        W80785  42.819  15.392   3.279
 8460W        W80786  30.595  33.076  14.120
 8461W        W80787  16.046  18.213   3.711
 8462W        W80788   7.748  41.963  12.117
 8463W        W80789   8.017  11.962   5.069
 8464W        W80790   4.876  37.088  10.577
 8465W        W80791  12.692  10.926   1.056
 8466W        W80792  39.577  12.041  11.591
 8467W        W80793  38.765   2.832   4.710
 8468W        W80794   1.747  16.879   0.392
 8469W        W80795  35.429  23.403  13.785
 8470W        W80796  39.665  42.546  10.916
 8471W        W80797  43.815  11.708   3.817
 8472W        W80798   4.252  14.785   0.287
 8473W        W80799  17.605  32.031  11.926
 8474W        W80800  42.306  42.709   2.211
 8475W        W80801  37.449  19.778  10.056
 8476W        W80802  27.141  15.878  12.494
 8477W        W80803   9.269  31.237  13.097
 8478W        W80804  11.032  34.504   5.078
 8479W        W80805  19.912  13.321   4.241
 8480W        W80806  12.872  18.000  11.585
 8481W        W80807  30.444  13.812   1.767
 8482W        W80808  44.356  28.930  11.958
 8483W        W80809   9.418  25.965  12.250
 8484W        W80810  17.205  25.430   0.987
 8485W        W80811   5.698  30.157   1.446
 8486W        W80812  39.814  17.032  13.040
 8487W        W80813   5.234  15.157   3.248
 8488W        W80814  24.280  13.128   0.882
 8489W        W80815  24.194  24.125   1.167
 8490W        W80816   5.698  34.976   0.831
 8491W        W80817  44.807  37.374   1.462
 8492W        W80818  12.109  16.157   4.037
 8493W        W80819  20.623  20.170   3.195
 8494W        W80820   2.869  18.812  12.571
 8495W        W80821  32.997  35.679   4.196
 8496W        W80822  27.536  27.199  14.200
 8497W        W80823  10.805  28.091  14.702
 8498W        W80824   4.300  11.832   0.232
 8499W        W80825  34.897  41.936  11.412
 8500W        W80826  17.270  43.906  14.274
 8501W        W80827  44.459  38.521  11.040
 8502W        W80828  25.457  30.123  13.930
 8503W        W80829   8.732  44.731  11.478
 8504W        W80830  41.809  27.442   0.439
 8505W        W80831  26.430  27.066  10.546
 8506W        W80832   3.786  22.076   5.589
 8507W        W80833  21.741   5.313   4.209
 8508W        W80834  34.545  24.245  11.900
 8509W        W80835  22.228  32.558  14.113
 8510W        W80836  25.718  28.179   0.818
 8511W        W80837  30.856   4.250   1.464
 8512W        W80838  44.218  22.561  12.632
 8513W        W80839  42.069  32.461   2.347
 8514W        W80840  28.549  31.613  11.493
 8515W        W80841  44.101  11.290  14.274
 8516W        W80842  31.960  21.942  12.367
 8517W        W80843  18.269  31.926  11.259
 8518W        W80844  14.796  15.047  11.635
 8519W        W80845  24.265  13.434   3.386
 8520W        W80846  18.889  27.019   3.990
 8521W        W80847   3.415  12.746  10.631
 8522W        W80848   3.700   1.571   5.055
 8523W        W80849  43.319  33.065   0.671
 8524W        W80850   4.285  28.602  10.777
 8525W        W80851  23.683  15.739  11.137
 8526W        W80852   3.198  39.347   2.202
 8527W        W80853  20.944  28.607  12.360
 8528W        W80854  33.842  14.253  13.967
 8529W        W80855  13.703  11.524  12.960
 8530W        W80856  36.700   9.334   3.038
 8531W        W80857  25.522  14.273  10.915
 8532W        W80858   1.747  32.072   4.715
 8533W        W80859   1.677  37.803  12.937
 8534W        W80860  39.017  16.144   0.306
 8535W        W80861  14.629  38.380  10.759
 8536W        W80862  31.613  28.653   3.786
 8537W        W80863  18.836  25.607  13.382
 8538W        W80864  22.246  26.711   4.316
 8539W        W80865  25.507  31.949   4.730
 8540W        W80866   6.825  18.150   4.460
 8541W        W80867  14.730  14.665   3.563
 8542W        W80868  43.390  27.920  11.837
 8543W        W80869  35.161  35.839  13.821
 8544W        W80870   0.566  31.114  11.564
 8545W        W80871   8.853   8.355   2.737
 8546W        W80872  31.350  30.629  11.153
 8547W        W80873  36.045   1.741  13.425
 8548W        W80874   9.097  33.916  11.737
 8549W        W80875   9.000  25.410   1.349
 8550W        W80876  24.636  40.306  10.742
 8551W        W80877  42.340   0.683  12.459
 8552W        W80878  14.662   1.028  11.491
 8553W        W80879   5.092   2.419   1.280
 8554W        W80880  26.964  40.420   0.278
 8555W        W80881  17.625  44.418   1.852
 8556W        W80882  17.769  15.017   1.445
 8557W        W80883  20.798   8.740   1.266
 8558W        W80884  28.456  37.095  14.219
 8559W        W80885  24.560   3.883   4.387
 8560W        W80886  31.004  37.301   2.399
 8561W        W80887  17.347  19.169   4.111
 8562W        W80888  36.110  26.608  10.595
 8563W        W80889  31.567  43.378   0.220
 8564W        W80890   1.720   3.742   2.881
 8565W        W80891   1.803  36.699   0.122
 8566W        W80892  44.483  16.042   0.987
 8567W        W80893  35.646  27.542  10.463
 8568W        W80894  33.310  24.199   4.154
 8569W        W80895   1.432   1.072  10.644
 8570W        W80896  30.815  44.719   2.076
 8571W        W80897  26.087  12.729  14.552
 8572W        W80898  27.895   2.403  13.589
 8573W        W80899   4.938   1.081  10.455
 8574W        W80900  13.746  20.218   0.529
 8575W        W80901  20.663   9.303  13.551
 8576W        W80902  40.287   9.669  11.572
 8577W        W80903  17.613  25.125   0.814
 8578W        W80904   6.560  20.668  11.997
 8579W        W80905  41.785   9.860  14.878
 8580W        W80906  40.805  10.184  13.970
 8581W        W80907   0.624  44.268   3.132
 8582W        W80908   9.899  28.468  13.975
 8583W        W80909  16.292  17.637  12.184
 8584W        W80910  11.406  32.131   4.598
 8585W        W80911  41.644  22.091   2.667
 8586W        W80912  20.958   8.121  11.818
 8587W        W80913   4.547  10.171  13.490
 8588W        W80914   3.742  32.507  11.627
 8589W        W80915  12.725   0.820   3.948
 8590W        W80916  44.066  17.841   9.965
 8591W        W80917   8.889  15.436  11.879
 8592W        W80918  25.018   9.415  13.193
 8593W        W80919  40.306  17.284   3.286
 8594W        W80920  22.768  43.277   4.012
 8595W        W80921  13.696  35.324   3.153
 8596W        W80922  44.497  35.150  12.827
 8597W        W80923  38.447   8.289  13.467
 8598W        W80924  30.433   7.081  13.950
 8599W        W80925   3.969  18.079  10.745
 8600W        W80926  38.984  32.981  13.656
 8601W        W80927  10.385   1.898   1.894
 8602W        W80928  36.495  20.523   0.365
 8603W        W80929   1.305  42.414  10.561
 8604W        W80930  39.686  17.457  11.839
 8605W        W80931  43.891  32.233  13.268
 8606W        W80932  26.919  27.026   1.314
 8607W        W80933  16.774  15.584  14.422
 8608W        W80934   6.390  14.564   0.393
 8609W        W80935   9.252  12.059   0.862
 8610W        W80936  38.958  28.778   1.291
 8611W        W80937  23.671   9.257   4.367
 8612W        W80938  30.962  31.963  10.595
 8613W        W80939  14.412   1.839  11.231
 8614W        W80940  21.908  43.969   2.540
 8615W        W80941  27.459  18.171  14.501
 8616W        W80942  34.581  23.903   3.169
 8617W        W80943   8.573  37.914   0.595
 8618W        W80944  13.210  14.775   0.922
 8619W        W80945   0.802  23.125   5.194
 8620W        W80946   6.234  18.835  13.904
 8621W        W80947  18.894  28.008  11.688
 8622W        W80948   0.817   9.752   1.910
 8623W        W80949   7.985  31.556  11.537
 8624W        W80950  41.847  40.010  13.981
 8625W        W80951  32.591  38.473  10.726
 8626W        W80952   9.672   6.417   0.333
 8627W        W80953  19.687  32.160  11.954
 8628W        W80954  37.821  42.286  11.510
 8629W        W80955  19.885  26.232  12.336
 8630W        W80956  34.504  11.757   0.449
 8631W        W80957  14.490  16.511   3.430
 8632W        W80958  35.767  14.153   1.330
 8633W        W80959  17.356  34.439   1.230
 8634W        W80960  35.893  42.827   3.675
 8635W        W80961  24.101  42.983   4.524
 8636W        W80962   4.483  21.616   1.076
 8637W        W80963  38.987   9.118   2.208
 8638W        W80964  10.678  14.536  13.037
 8639W        W80965  38.869  12.951  12.312
 8640W        W80966  33.376  20.328  12.942
 8641W        W80967  17.024   7.507  12.447
 8642W        W80968  14.157   8.785  10.745
 8643W        W80969   7.914   2.901   1.249
 8644W        W80970  25.467  17.750   4.573
 8645W        W80971   3.828  21.666  11.437
 8646W        W80972  20.532  19.540  12.622
 8647W        W80973  36.978  41.391  14.426
 8648W        W80974  12.125  19.824   3.667
 8649W        W80975   4.410  11.007   9.878
 8650W        W80976   6.332  22.741   0.169
 8651W        W80977  38.476   4.378  12.418
 8652W        W80978  25.550  18.859   1.294
 8653W        W80979  22.590  27.003  12.307
 8654W        W80980   5.568  35.357  11.431
 8655W        W80981   3.973  32.606   3.555
 8656W        W80982  35.091  12.131   3.020
 8657W        W80983  10.598  30.441   4.541
 8658W        W80984  27.894  28.044  10.269
 8659W        W80985   7.256  13.748   1.747
 8660W        W80986  31.048  17.868  10.605
 8661W        W80987  33.910  24.729   0.457
 8662W        W80988  15.577   3.737   2.151
 8663W        W80989   3.842  19.092  14.807
 8664W        W80990  13.672   8.891  13.459
 8665W        W80991  11.910  34.636   2.869
 8666W        W80992   1.756  23.339   5.567
 8667W        W80993  35.465  38.520  12.660
 8668W        W80994  10.322  17.029   3.732
 8669W        W80995  13.843  29.882   0.906
 8670W        W80996  40.046  44.603  12.870
 8671W        W80997  37.060  24.094  10.636
 8672W        W80998  21.736  26.275  11.576
 8673W        W80999  12.820   3.895   0.854
 8674W        W81000   8.908  10.178  11.540
 8675W        W81001   7.624  38.964   0.764
 8676W        W81002   9.893  34.095   3.215
 8677W        W81003  26.033  22.382   3.314
 8678W        W81004   1.660   7.452  14.084
 8679W        W81005  18.610  36.419  13.407
 8680W        W81006  22.605  18.771   0.249
 8681W        W81007  11.337  28.427   1.348
 8682W        W81008  10.606  14.648   0.876
 8683W        W81009  19.776   7.587  13.953
 8684W        W81010  32.552   8.814  11.115
 8685W        W81011  15.579   7.298   1.836
 8686W        W81012   0.724  15.211   3.269
 8687W        W81013  23.951  21.011   4.974
 8688W        W81014  14.678  12.158  10.738
 8689W        W81015  34.990  21.708   2.785
 8690W        W81016  16.362  20.657  13.730
 8691W        W81017  31.875  25.635   1.361
 8692W        W81018   5.159  43.742  11.124
 8693W        W81019  17.837  32.554  12.610
 8694W        W81020  37.443  27.386   0.531
 8695W        W81021  26.142  20.947  14.856
 8696W        W81022  19.857  41.014  14.396
 8697W        W81023  10.261  43.775   4.490
 8698W        W81024  25.635  18.844  12.379
 8699W        W81025   0.601  31.355  12.910
 8700W        W81026  41.937  35.919  13.959
 8701W        W81027   4.216  26.654  11.526
 8702W        W81028  41.913  33.576  14.395
 8703W        W81029  16.668   3.438  11.048
 8704W        W81030  10.799  29.045   2.953
 8705W        W81031  34.673  29.017   3.514
 8706W        W81032  15.887  37.742   4.128
 8707W        W81033  21.228  15.314   1.625
 8708W        W81034   6.440  32.278  11.695
 8709W        W81035  41.634  19.618   0.533
 8710W        W81036   5.988  34.966   1.859
 8711W        W81037  21.561  33.228  13.084
 8712W        W81038  31.704  43.982  14.417
 8713W        W81039  33.824  11.078   0.903
 8714W        W81040  21.123  36.364  13.089
 8715W        W81041  26.753  38.761   3.273
 8716W        W81042  30.478  22.798  12.096
 8717W        W81043  12.190  43.413  12.526
 8718W        W81044  37.656   1.656   0.346
 8719W        W81045  36.100  27.250  14.032
 8720W        W81046   1.897  34.946   1.007
 8721W        W81047   0.575  33.525  11.363
 8722W        W81048  44.446   3.840   4.885
 8723W        W81049  20.786  17.556   1.543
 8724W        W81050   6.708   3.497   4.260
 8725W        W81051  12.797  43.861   4.143
 8726W        W81052  17.608   0.781   1.296
 8727W        W81053  12.286   3.879   0.821
 8728W        W81054  24.022   7.927  14.449
 8729W        W81055   0.856  44.868   1.892
 8730W        W81056   1.446   2.484  14.006
 8731W        W81057   1.043  30.931  11.707
 8732W        W81058  35.324  26.609  13.115
 8733W        W81059  12.287  34.569  11.996
 8734W        W81060  19.541   6.738  14.276
 8735W        W81061   6.334  11.414  13.003
 8736W        W81062  15.352  27.010  13.045
 8737W        W81063  33.220  19.363   0.890
 8738W        W81064  12.945  40.255   3.716
 8739W        W81065  22.430  12.258   3.718
 8740W        W81066   8.920  19.035  10.841
 8741W        W81067  24.509  22.697   4.343
 8742W        W81068  27.522  12.517   3.852
 8743W        W81069  40.500  20.097   4.224
 8744W        W81070  40.143  34.219  14.436
 8745W        W81071  27.571  31.381  12.855
 8746W        W81072  38.063  28.425  11.194
 8747W        W81073  32.611   9.428  11.595
 8748W        W81074   0.968   2.925   1.836
 8749W        W81075  22.809  13.922   4.521
 8750W        W81076  36.831  13.498   5.064
 8751W        W81077  26.612  42.360   0.407
 8752W        W81078  19.176   2.178  14.434
 8753W        W81079  20.696  16.219   1.701
 8754W        W81080   4.867  28.665   0.981
 8755W        W81081  38.418  32.559   1.344
 8756W        W81082  19.791  20.515  12.059
 8757W        W81083  40.526  18.691   0.942
 8758W        W81084  18.037  41.513  12.181
 8759W        W81085   1.783  17.524  14.404
 8760W        W81086   5.898  10.934   4.097
 8761W        W81087  41.010  34.164   0.393
 8762W        W81088  22.679  21.941   1.561
 8763W        W81089  36.827   2.033  14.953
 8764W        W81090  37.450  14.372  11.119
 8765W        W81091  20.121  19.551   4.111
 8766W        W81092  38.342  25.541  13.521
 8767W        W81093  25.277  29.880  13.163
 8768W        W81094  37.077  21.746   2.852
 8769W        W81095   2.358  30.873  12.045
 8770W        W81096  31.403  37.034  14.027
 8771W        W81097  40.757   0.401  11.505
 8772W        W81098  15.208   3.992   3.085
 8773W        W81099  21.273  32.423  11.007
 8774W        W81100  11.606  39.761  10.301
 8775W        W81101  25.316   7.093  12.964
 8776W        W81102   0.606   3.771  14.160
 8777W        W81103  22.700  32.493   0.678
 8778W        W81104  12.500   3.329   2.040
 8779W        W81105  20.414   1.683   4.686
 8780W        W81106  10.156  12.167  11.115
 8781W        W81107  14.980  31.551   1.457
 8782W        W81108  30.910  18.375  10.658
 8783W        W81109   9.435  28.046   0.718
 8784W        W81110  31.847   8.921   3.241
 8785W        W81111  23.284   2.768  13.323
 8786W        W81112  44.768  15.652   9.920
 8787W        W81113   8.164  43.237   3.209
 8788W        W81114  30.869  18.882  10.814
 8789W        W81115  39.673   7.267   3.829
 8790W        W81116  40.687  15.127   2.613
 8791W        W81117  30.593   0.708  14.521
 8792W        W81118   4.420  38.635   2.469
 8793W        W81119  18.852  22.493   1.834
 8794W        W81120  26.399  41.402   2.703
 8795W        W81121  24.516  33.149  11.456
 8796W        W81122  31.390   9.651   3.180
 8797W        W81123  35.161  27.556  10.663
 8798W        W81124  19.073  23.139  13.445
 8799W        W81125  13.611  19.371  13.019
 8800W        W81126  35.380   8.974   3.316
 8801W        W81127  32.503  25.216   0.321
 8802W        W81128  43.690  31.419   0.774
 8803W        W81129  32.956  20.711   0.489
 8804W        W81130  31.995  44.048   3.176
 8805W        W81131  31.496  12.798   2.220
 8806W        W81132  13.533  44.569  10.767
 8807W        W81133  39.958  44.276  14.304
 8808W        W81134  10.304  28.462  13.371
 8809W        W81135  15.683  31.205   2.672
 8810W        W81136  44.807   1.888  11.963
 8811W        W81137  26.099   9.376   4.920
 8812W        W81138  34.757  34.402  14.061
 8813W        W81139  14.301  35.468  14.292
 8814W        W81140  11.831  20.418  10.886
 8815W        W81141  43.457   8.437   1.989
 8816W        W81142  24.558   9.287   2.756
 8817W        W81143   1.953  39.788   4.124
 8818W        W81144  27.492  33.124  11.822
 8819W        W81145  25.552   5.899   3.759
 8820W        W81146  43.393  40.722  14.275
 8821W        W81147   0.859   1.808  14.880
 8822W        W81148   6.987  30.885   4.568
 8823W        W81149  34.141   8.166  12.222
 8824W        W81150   7.844  19.104   2.371
 8825W        W81151  38.989  34.301   2.288
 8826W        W81152   4.458  12.668   2.485
 8827W        W81153   5.215  23.019  14.366
 8828W        W81154  24.114   5.315   2.124
 8829W        W81155  13.068  35.662   1.180
 8830W        W81156   0.394   4.922  12.493
 8831W        W81157  39.608  20.520   4.085
 8832W        W81158  36.461  28.152  11.893
 8833W        W81159  44.958  15.329   0.232
 8834W        W81160  39.322  28.777  10.430
 8835W        W81161  44.474  21.096  13.321
 8836W        W81162  18.711  41.747  11.154
 8837W        W81163  43.568  35.612  11.962
 8838W        W81164  37.618  24.141   4.867
 8839W        W81165  10.009  44.765   1.974
 8840W        W81166  11.530   7.294  13.399
 8841W        W81167  35.207   7.770  10.459
 8842W        W81168  43.894  38.391  13.019
 8843W        W81169   9.684   2.531   3.911
 8844W        W81170   6.751  12.131  10.726
 8845W        W81171  37.423  27.965  10.679
 8846W        W81172  14.274  26.929  14.981
 8847W        W81173  17.664   1.133   0.042
 8848W        W81174  41.622  26.311   1.694
 8849W        W81175  31.299  10.787   1.010
 8850W        W81176  35.826  36.573   4.519
 8851W        W81177   2.867  16.201  10.734
 8852W        W81178  15.518  30.956  13.624
 8853W        W81179  14.327  26.835   9.411
 8854W        W81180  23.094  13.114  13.753
 8855W        W81181  21.234  35.108   4.577
 8856W        W81182  37.698  29.360  10.970
 8857W        W81183  12.389  30.075   2.255
 8858W        W81184   3.003  26.935  12.005
 8859W        W81185  40.477  43.020  10.097
 8860W        W81186   7.917  13.046  10.740
 8861W        W81187  22.090  26.894  13.795
 8862W        W81188   8.177  22.554   1.408
 8863W        W81189  37.896   1.919  13.808
 8864W        W81190  23.095  18.528   1.004
 8865W        W81191  37.877  43.452  12.097
 8866W        W81192  27.055  41.464   4.321
 8867W        W81193  12.582   1.542   1.923
 8868W        W81194  41.530  33.428   2.831
 8869W        W81195  33.639   5.993  14.050
 8870W        W81196  44.222   0.963  14.465
 8871W        W81197  28.027  42.345   4.474
 8872W        W81198  15.735  22.998   4.717
 8873W        W81199  43.994  44.768   2.707
 8874W        W81200   6.231   9.048   2.259
 8875W        W81201  31.667  11.572  13.286
 8876W        W81202  14.357  22.901  14.378
 8877W        W81203  32.940  42.267  13.933
 8878W        W81204  21.458  38.402  14.443
 8879W        W81205  30.724  33.971   4.961
 8880W        W81206  39.789   8.112  13.155
 8881W        W81207  44.001  37.862  11.795
 8882W        W81208  40.758  18.739   1.903
 8883W        W81209  18.386  44.215   1.625
 8884W        W81210  28.642  10.598  13.954
 8885W        W81211  26.484  40.421   4.633
 8886W        W81212  12.131  24.706   2.231
 8887W        W81213  42.856  36.989   3.617
 8888W        W81214   3.016  28.213   5.218
 8889W        W81215  20.556   6.913  13.349
 8890W        W81216  23.536  29.537   0.712
 8891W        W81217  20.651  21.679  14.740
 8892W        W81218  23.340  41.519  13.785
 8893W        W81219  15.394  42.795   3.279
 8894W        W81220  42.105  29.650  10.687
 8895W        W81221   1.989   1.269  11.064
 8896W        W81222  27.708   4.837   2.694
 8897W        W81223  10.665  20.046  10.746
 8898W        W81224   9.757  30.606  11.555
 8899W        W81225  16.397  37.467   1.663
 8900W        W81226  30.018  20.059  12.927
 8901W        W81227  12.652  13.135  11.270
 8902W        W81228  29.158  23.341  14.245
 8903W        W81229  42.574  42.276   2.309
 8904W        W81230  12.594  36.713  12.346
 8905W        W81231  22.224   9.247  11.644
 8906W        W81232   3.464  28.393  12.160
 8907W        W81233  24.586  26.151   3.764
 8908W        W81234  15.588  41.060  12.794
 8909W        W81235  26.521  22.215   3.376
 8910W        W81236  23.519  32.715   2.338
 8911W        W81237   7.676  13.003   4.572
 8912W        W81238  29.480  12.144  13.439
 8913W        W81239  28.269  16.455   3.268
 8914W        W81240   8.077   4.350   3.615
 8915W        W81241  11.065  41.148   3.173
 8916W        W81242   6.898  23.148   4.623
 8917W        W81243   6.722  36.460   0.337
 8918W        W81244  27.467  18.203   2.833
 8919W        W81245  20.231  14.572   4.195
 8920W        W81246  30.415  17.158  13.106
 8921W        W81247   3.262  39.780  13.381
 8922W        W81248   9.841   0.433  11.152
 8923W        W81249  35.405  10.521   1.386
 8924W        W81250  30.690   7.633   3.866
 8925W        W81251  31.237   4.791   2.394
 8926W        W81252  38.463  22.488   4.559
 8927W        W81253   4.290  19.171  13.843
 8928W        W81254   7.355  24.110  10.712
 8929W        W81255   7.240  28.010   1.270
 8930W        W81256  39.083   3.841  13.787
 8931W        W81257   2.220  24.361  11.229
 8932W        W81258  11.473   3.810   4.103
 8933W        W81259   4.928  37.039   3.773
 8934W        W81260  31.452  26.134   0.510
 8935W        W81261   2.234  34.996   1.400
 8936W        W81262  38.109   2.780   3.365
 8937W        W81263  36.015  25.601  14.340
 8938W        W81264  27.107  28.316   9.919
 8939W        W81265  17.326  24.956   0.300
 8940W        W81266  34.173  22.364   4.156
 8941W        W81267  17.482   3.878   1.867
 8942W        W81268  23.926  15.538   5.035
 8943W        W81269   4.963  41.315   1.247
 8944W        W81270   3.277   0.892   1.976
 8945W        W81271  42.951  32.214   3.052
 8946W        W81272  44.255  38.846   4.160
 8947W        W81273  16.067  28.694   2.373
 8948W        W81274   8.432  44.551  12.646
 8949W        W81275   2.382  37.783  14.260
 8950W        W81276  26.526  30.489   2.343
 8951W        W81277  36.587   4.576   1.921
 8952W        W81278  38.005  30.995   4.163
 8953W        W81279  13.779  12.279   2.394
 8954W        W81280  25.957   6.735   4.191
 8955W        W81281   1.776  43.280  13.442
 8956W        W81282  13.551  26.136  14.905
 8957W        W81283  10.685  33.044  14.918
 8958W        W81284  34.464  25.539   2.009
 8959W        W81285  35.584  12.892   4.146
 8960W        W81286  15.040  34.353  11.492
 8961W        W81287  31.657  22.460   4.038
 8962W        W81288  44.063  11.210  11.856
 8963W        W81289  38.055  34.945   2.244
 8964W        W81290  32.493  28.734  12.941
 8965W        W81291  43.685   3.701  11.859
 8966W        W81292  34.961  15.120  13.110
 8967W        W81293  24.572  36.813   2.372
 8968W        W81294  39.100  12.682   2.339
 8969W        W81295  13.653  21.142   3.294
 8970W        W81296  12.658  28.756  13.333
 8971W        W81297  15.502   6.766  10.533
 8972W        W81298  24.550  31.329  11.121
 8973W        W81299  44.875   9.288   4.447
 8974W        W81300   5.084  33.615  12.442
 8975W        W81301  41.033   1.915   0.794
 8976W        W81302  36.000  23.729   2.265
 8977W        W81303  43.842  39.968  10.511
 8978W        W81304   3.812   9.272  14.030
 8979W        W81305  27.914  25.498  12.973
 8980W        W81306   7.239   1.228   0.757
 8981W        W81307  24.551  12.909   1.796
 8982W        W81308  36.488   0.792  11.118
 8983W        W81309  24.809  18.168   2.143
 8984W        W81310  20.814  42.342  12.484
 8985W        W81311  11.714  40.925   4.660
 8986W        W81312  37.785  42.993   0.270
 8987W        W81313  27.953  23.913   1.442
 8988W        W81314  16.720  33.316   3.384
 8989W        W81315  10.218  18.536  10.836
 8990W        W81316   8.799  12.373  12.191
 8991W        W81317   5.849   5.754   0.516
 8992W        W81318  22.622  43.762   1.789
 8993W        W81319  39.631   2.809   0.788
 8994W        W81320  24.739  27.482  14.034
 8995W        W81321  35.456  28.657   4.645
 8996W        W81322  13.765  25.155   2.777
 8997W        W81323  37.553  27.519  10.928
 8998W        W81324  14.178  19.369  13.753
 8999W        W81325  36.076  22.753   0.218
 9000W        W81326  13.141   9.627  12.432
 9001W        W81327  15.250  26.079   2.637
 9002W        W81328  26.985   3.174   2.098
 9003W        W81329  41.122  31.650  14.322
 9004W        W81330  34.039  29.197  13.734
 9005W        W81331  25.731  33.047  11.339
 9006W        W81332  19.233  15.052   0.006
 9007W        W81333   9.363  10.778  10.915
 9008W        W81334   5.986  25.439  13.045
 9009W        W81335  33.026  23.630  11.593
 9010W        W81336   3.652  28.490   3.752
 9011W        W81337   2.388  14.917   2.674
 9012W        W81338   7.806  13.687   3.396
 9013W        W81339  18.521  22.600  14.933
 9014W        W81340  21.777  25.896  13.332
 9015W        W81341  35.294  44.674  14.874
 9016W        W81342  37.847   4.769  12.939
 9017W        W81343  37.384  27.994  14.988
 9018W        W81344  32.558   1.695   4.813
 9019W        W81345  31.595   3.344   2.047
 9020W        W81346  35.890  23.925   5.111
 9021W        W81347  21.215  38.856  14.282
 9022W        W81348   4.101  22.486  10.675
 9023W        W81349  29.924  26.145  12.838
 9024W        W81350   8.649  19.350   2.637
 9025W        W81351  19.618  18.033   3.277
 9026W        W81352  42.289  39.433   3.773
 9027W        W81353   0.747  36.473   4.527
 9028W        W81354  32.511  31.554   4.758
 9029W        W81355  18.702   4.241   1.558
 9030W        W81356  36.471  19.959   2.786
 9031W        W81357  18.691  44.769   0.235
 9032W        W81358  26.463  33.910   0.238
 9033W        W81359  38.431  31.500   1.330
 9034W        W81360  20.941  43.053  13.435
 9035W        W81361   1.351   5.435  11.952
 9036W        W81362  14.234   2.421   3.679
 9037W        W81363  22.614   9.992  14.947
 9038W        W81364  24.670   5.433   3.453
 9039W        W81365  22.293  24.134  12.961
 9040W        W81366  26.613  26.946  10.058
 9041W        W81367   8.395  25.247  10.933
 9042W        W81368  28.646  23.178  14.277
 9043W        W81369  31.399  22.029   4.236
 9044W        W81370   3.454  21.739  14.933
 9045W        W81371   5.820  16.097  12.788
 9046W        W81372  26.614  40.581   1.055
 9047W        W81373  20.582  42.922   3.114
 9048W        W81374  37.926  16.834   4.321
 9049W        W81375   0.484  31.905   2.658
 9050W        W81376  27.167  43.637  12.385
 9051W        W81377  29.385   2.184   4.583
 9052W        W81378   1.138   1.741   1.306
 9053W        W81379   6.874  19.174  14.674
 9054W        W81380  13.594  11.375   3.721
 9055W        W81381   7.545  29.575   1.218
 9056W        W81382  34.087  41.960  12.527
 9057W        W81383   5.382  41.594  10.983
 9058W        W81384  22.477  38.888   4.012
 9059W        W81385  20.215  26.067  14.941
 9060W        W81386  24.778  29.112  12.005
 9061W        W81387   7.232  24.729   0.426
 9062W        W81388  40.042  44.641   0.272
 9063W        W81389   0.394  41.406   0.367
 9064W        W81390   4.212   5.503  12.575
 9065W        W81391  12.784  17.325   1.816
 9066W        W81392  38.872  40.019  14.354
 9067W        W81393  20.654   3.508   1.416
 9068W        W81394  40.389   5.131  10.703
 9069W        W81395   0.405  31.421   0.621
 9070W        W81396  39.822   8.190   0.920
 9071W        W81397  23.318  20.449   0.262
 9072W        W81398  22.579  35.660  11.623
 9073W        W81399  37.043  12.264  11.364
 9074W        W81400  42.112  23.054   0.443
 9075W        W81401  32.576  39.934  13.915
 9076W        W81402  43.720  43.728   3.339
 9077W        W81403  30.962  36.668  13.145
 9078W        W81404  31.950  18.321  13.382
 9079W        W81405  37.535  10.826  14.270
 9080W        W81406  15.271  21.584   4.154
 9081W        W81407  35.783  33.009  14.264
 9082W        W81408   1.771  44.001  12.147
 9083W        W81409  13.611  30.362  10.531
 9084W        W81410  15.179   1.931  10.730
 9085W        W81411  13.259  43.569   0.336
 9086W        W81412  25.996  11.215   2.784
 9087W        W81413  22.362  15.213  12.087
 9088W        W81414   5.054  10.322   4.958
 9089W        W81415  32.138   0.906  10.692
 9090W        W81416  26.461  34.026   3.651
 9091W        W81417  20.844  32.654   0.490
 9092W        W81418  13.768   4.203   0.709
 9093W        W81419   1.926  34.363   4.546
 9094W        W81420  21.445  15.220   0.564
 9095W        W81421  11.748  13.196   3.624
 9096W        W81422  37.759  38.028   2.374
 9097W        W81423  29.472   0.202   1.159
 9098W        W81424  15.078   1.721  14.317
 9099W        W81425  19.641  16.985  13.575
 9100W        W81426  22.902  15.992   2.327
 9101W        W81427  26.398   5.872  12.083
 9102W        W81428   3.400  17.381   3.607
 9103W        W81429  26.962   4.864  14.364
 9104W        W81430  15.259  32.334  11.467
 9105W        W81431  31.065   2.909   4.973
 9106W        W81432   8.881  29.366  12.375
 9107W        W81433   4.594  13.637   0.879
 9108W        W81434  31.160  15.518   0.395
 9109W        W81435  31.048  44.890   4.176
 9110W        W81436  34.489  28.414   0.240
 9111W        W81437   4.786  11.318   4.153
 9112W        W81438  36.825  21.979   3.236
 9113W        W81439  20.244  30.050  12.578
 9114W        W81440   3.112   9.179  14.260
 9115W        W81441   6.647   1.970  14.185
 9116W        W81442  27.433   5.610  12.823
 9117W        W81443  34.067  33.650   5.429
 9118W        W81444  18.146  33.293  13.866
 9119W        W81445  31.923  23.281  12.081
 9120W        W81446  23.019   3.703  13.400
 9121W        W81447   1.732   1.880   4.307
 9122W        W81448  25.978  34.452   4.129
 9123W        W81449  42.816  44.378  10.522
 9124W        W81450  15.299  29.669   1.761
 9125W        W81451  20.076  37.377  14.267
 9126W        W81452  22.869  31.355  12.012
 9127W        W81453  36.545  16.049   0.328
 9128W        W81454  44.627  28.916   1.438
 9129W        W81455  25.900  11.169   4.443
 9130W        W81456  20.034  43.507  14.899
 9131W        W81457   6.331   7.965  12.448
 9132W        W81458   2.254   1.519  14.470
 9133W        W81459  19.696   7.025   4.279
 9134W        W81460  31.035  17.538   1.915
 9135W        W81461  35.975  12.616  14.797
 9136W        W81462  15.210  24.206   3.605
 9137W        W81463   0.338  17.873   0.878
 9138W        W81464  22.189   3.937   2.746
 9139W        W81465  44.964  18.681   4.921
 9140W        W81466  17.983  35.027  13.007
 9141W        W81467   3.935  27.077  12.436
 9142W        W81468  24.550  17.476  14.394
 9143W        W81469  19.575  19.683  14.013
 9144W        W81470   4.365  29.597   3.567
 9145W        W81471   7.932  24.967  12.680
 9146W        W81472  42.903  21.198  11.960
 9147W        W81473  24.142  13.315   0.380
 9148W        W81474  40.576  43.228   4.634
 9149W        W81475  30.185  12.676   1.901
 9150W        W81476  35.990  38.052   4.662
 9151W        W81477  35.094  35.938   2.340
 9152W        W81478  36.616   3.201  13.883
 9153W        W81479  11.918  29.607  12.619
 9154W        W81480   7.749  43.575   3.974
 9155W        W81481  36.158  13.867  11.077
 9156W        W81482  35.140   8.260  11.708
 9157W        W81483  37.840   5.899  11.697
 9158W        W81484  22.578  20.694   0.816
 9159W        W81485  43.053   0.683  11.472
 9160W        W81486  15.575   6.693   2.685
 9161W        W81487  32.559  30.124  13.360
 9162W        W81488   2.985  23.804   1.334
 9163W        W81489  31.138  18.673  12.073
 9164W        W81490  44.538  18.990   4.875
 9165W        W81491  16.293   5.139   1.389
 9166W        W81492  32.387   9.017  12.476
 9167W        W81493  17.743  37.931   3.314
 9168W        W81494  19.999   7.832  14.768
 9169W        W81495  42.874  11.401   3.972
 9170W        W81496   4.921   8.027   3.691
 9171W        W81497  36.442  23.196  14.413
 9172W        W81498   8.838  30.479  14.766
 9173W        W81499  38.757  24.984   5.178
 9174W        W81500  36.334  28.988  13.478
 9175W        W81501  30.375  23.269  14.335
 9176W        W81502  28.913  23.053  12.943
 9177W        W81503  17.698  17.723   1.218
 9178W        W81504  13.525  20.149   4.192
 9179W        W81505   5.721  42.923  12.068
 9180W        W81506  20.719  22.794   1.363
 9181W        W81507   5.311   4.653  10.990
 9182W        W81508  27.054  24.249  11.995
 9183W        W81509  10.225  11.500  10.363
 9184W        W81510  29.734  27.177  11.518
 9185W        W81511  39.342   2.818  12.008
 9186W        W81512  36.572   6.191  11.456
 9187W        W81513   1.789  44.782   1.229
 9188W        W81514  23.381   7.074   4.192
 9189W        W81515  29.576  13.413   2.268
 9190W        W81516  30.012  25.970   1.531
 9191W        W81517  38.072  25.653  11.479
 9192W        W81518  11.856  19.277   4.870
 9193W        W81519  19.663  41.870  11.596
 9194W        W81520  31.893  30.613   4.688
 9195W        W81521  43.114  27.978  12.699
 9196W        W81522   2.471  44.521   2.395
 9197W        W81523  14.673   0.005   4.183
 9198W        W81524  39.547  40.780   3.794
 9199W        W81525  19.780  17.487  11.811
 9200W        W81526  42.956  18.650  12.971
 9201W        W81527   2.400  23.223  13.732
 9202W        W81528  42.463   0.758  10.687
 9203W        W81529  20.802  39.133   4.743
 9204W        W81530  32.077   1.847   4.599
 9205W        W81531   9.194  33.917   0.564
 9206W        W81532  41.787  10.271   1.404
 9207W        W81533  34.775  28.075   4.334
 9208W        W81534   2.311  20.511  12.955
 9209W        W81535   2.603   1.735  12.480
 9210W        W81536  33.388  25.759  13.448
 9211W        W81537  40.239  17.121  13.823
 9212W        W81538  38.324  21.092  14.415
 9213W        W81539  10.987  34.653  10.255
 9214W        W81540  24.216  26.686   2.499
 9215W        W81541   6.343  26.021  13.837
 9216W        W81542  43.463  31.219   0.250
 9217W        W81543  14.875  20.311  14.502
 9218W        W81544  37.770  27.340  14.902
 9219W        W81545  16.019  27.550   3.235
 9220W        W81546  21.817  38.603  11.083
 9221W        W81547  32.498  21.214  14.305
 9222W        W81548  25.053   9.392   2.934
 9223W        W81549  25.937  38.355  12.912
 9224W        W81550  29.458   8.778  14.436
 9225W        W81551  40.280  17.689   4.193
 9226W        W81552  21.486  43.871  11.577
 9227W        W81553  16.716  31.860  12.436
 9228W        W81554  11.721  28.651  11.006
 9229W        W81555   8.868   6.306   3.131
 9230W        W81556   3.377  10.899   1.791
 9231W        W81557  27.736  19.527   1.452
 9232W        W81558  31.075  19.770   4.395
 9233W        W81559  23.951  34.025  14.246
 9234W        W81560  26.662  33.743  11.627
 9235W        W81561   5.438  20.751   4.739
 9236W        W81562  22.252   3.829   2.240
 9237W        W81563  26.909   7.198  11.526
 9238W        W81564  33.248  17.496  14.285
 9239W        W81565   7.892  27.548  12.540
 9240W        W81566   2.693  38.953  11.055
 9241W        W81567  21.113  13.708  12.550
 9242W        W81568   4.196  32.968   0.223
 9243W        W81569   2.482  22.055  13.996
 9244W        W81570  15.804  38.506  10.291
 9245W        W81571  26.068  29.415   2.854
 9246W        W81572  19.511  15.630   2.819
 9247W        W81573  36.144  18.808   3.676
 9248W        W81574  36.510  29.591  14.125
 9249W        W81575  27.100   3.068  13.960
 9250W        W81576  14.295  30.386   3.749
 9251W        W81577  36.421  16.792  11.216
 9252W        W81578  34.180  31.439   0.556
 9253W        W81579   5.563  23.169   1.774
 9254W        W81580  35.843  19.955  11.703
 9255W        W81581   8.875  27.488   3.422
 9256W        W81582   8.241  32.170   1.776
 9257W        W81583  38.912  28.704  14.374
 9258W        W81584  34.479  12.621   3.306
 9259W        W81585   4.604  17.000  14.355
 9260W        W81586  15.399  17.190   4.534
 9261W        W81587  20.032  27.588  12.075
 9262W        W81588  21.329  44.314   2.420
 9263W        W81589  12.400  35.190   0.003
 9264W        W81590   5.653  35.579  11.907
 9265W        W81591  35.900  40.318  11.201
 9266W        W81592  24.550  13.592  14.114
 9267W        W81593   5.469  32.380   4.259
 9268W        W81594   5.367  22.432   1.365
 9269W        W81595  15.692   0.048   0.967
 9270W        W81596  39.433  15.659  10.769
 9271W        W81597   6.460  25.271   0.248
 9272W        W81598  26.128   6.857   2.682
 9273W        W81599  40.808  15.128   0.788
 9274W        W81600   8.441  32.374  11.868
 9275W        W81601  31.899  27.703  12.437
 9276W        W81602   1.723   5.412   3.969
 9277W        W81603  25.081  30.878  10.710
 9278W        W81604   7.647  32.458   3.142
 9279W        W81605  18.632  43.625  12.422
 9280W        W81606  16.368  39.390  11.626
 9281W        W81607   1.949  22.943  14.528
 9282W        W81608  43.492  40.782  13.354
 9283W        W81609  10.304   0.723  11.056
 9284W        W81610  19.766  43.604  14.407
 9285W        W81611  41.057   8.182   0.496
 9286W        W81612  41.090  37.455  11.918
 9287W        W81613  12.511   4.756   9.939
 9288W        W81614  14.693  31.949  10.909
 9289W        W81615  27.960  10.362  10.761
 9290W        W81616   3.471   2.677   4.792
 9291W        W81617   7.320  32.163  10.773
 9292W        W81618  15.947  26.202  10.658
 9293W        W81619  25.640  42.013   3.067
 9294W        W81620  28.639   5.853  11.633
 9295W        W81621  41.862  21.382  11.000
 9296W        W81622  14.290   2.798   0.725
 9297W        W81623  21.492  33.359   0.926
 9298W        W81624  22.996  11.281   2.834
 9299W        W81625  24.599  12.936  12.286
 9300W        W81626  27.075   5.212   4.445
 9301W        W81627  20.578  10.807  12.148
 9302W        W81628  26.155  30.152  14.872
 9303W        W81629  28.296   3.015   2.316
 9304W        W81630  29.915   2.703  12.085
 9305W        W81631  35.339  35.369  13.943
 9306W        W81632  40.379  22.523   3.776
 9307W        W81633  33.563   7.496   1.734
 9308W        W81634  18.148  26.081  10.972
 9309W        W81635  34.518  26.858   2.385
 9310W        W81636  16.817  39.109   4.121
 9311W        W81637  39.788  22.079   3.022
 9312W        W81638   2.429  16.574   3.721
 9313W        W81639  24.934  19.275   0.971
 9314W        W81640  41.957   9.221   0.336
 9315W        W81641  21.993  14.957   3.884
 9316W        W81642  42.508  18.103   4.207
 9317W        W81643  19.040  31.755  12.901
 9318W        W81644  21.101  37.015   5.320
 9319W        W81645  34.522   8.649  14.432
 9320W        W81646  13.869   5.396  11.162
 9321W        W81647  15.477   4.505  12.137
 9322W        W81648  10.102   7.489  12.439
 9323W        W81649  40.134   2.286  11.125
 9324W        W81650  39.519  44.135   4.674
 9325W        W81651  33.606  28.960  14.981
 9326W        W81652  18.253  25.598  11.111
 9327W        W81653  32.941   3.194   3.664
 9328W        W81654  33.241  32.111  14.770
 9329W        W81655  29.017   4.461   3.747
 9330W        W81656  16.542  12.255   3.756
 9331W        W81657  18.607  40.510   1.688
 9332W        W81658  30.547   6.262   4.940
 9333W        W81659  40.470  17.228  14.280
 9334W        W81660  14.347   0.476  13.529
 9335W        W81661  32.630  31.359  11.186
 9336W        W81662  26.057  10.450  13.017
 9337W        W81663  44.243  14.735  11.950
 9338W        W81664  25.215  13.680   2.834
 9339W        W81665   5.789   8.205   0.384
 9340W        W81666   9.848  26.623  12.355
 9341W        W81667  19.755  30.958  13.546
 9342W        W81668   3.886   1.391  12.792
 9343W        W81669  41.324  41.572  12.584
 9344W        W81670  23.297  19.090   0.340
 9345W        W81671   0.259  22.513  10.622
 9346W        W81672   3.255   3.583  14.437
 9347W        W81673  23.268  34.002  13.239
 9348W        W81674  16.184  28.700   1.206
 9349W        W81675  35.960  20.936  11.772
 9350W        W81676  19.974  27.183   3.254
 9351W        W81677  41.526  38.847   0.913
 9352W        W81678   5.460  33.126   2.952
 9353W        W81679  41.564  24.693   2.569
 9354W        W81680  28.444  25.000  12.864
 9355W        W81681  34.859   1.325   4.411
 9356W        W81682  13.519  40.310   1.322
 9357W        W81683  25.266   8.031   4.899
 9358W        W81684  40.961  33.073  12.990
 9359W        W81685  28.956   2.259   3.566
 9360W        W81686  40.740  22.598  12.372
 9361W        W81687  26.789   8.524   4.206
 9362W        W81688  19.168  34.138   0.800
 9363W        W81689  28.202  28.466  10.253
 9364W        W81690  18.989  26.151  10.774
 9365W        W81691   7.814  31.439  13.700
 9366W        W81692  38.605  31.543  12.494
 9367W        W81693  40.981  29.301  13.008
 9368W        W81694  38.239  31.113   4.604
 9369W        W81695   7.672   8.303  10.427
 9370W        W81696  43.980   1.452  14.469
 9371W        W81697   0.032  42.812   3.341
 9372W        W81698  38.140   7.838   0.380
 9373W        W81699  43.989   9.648  11.115
 9374W        W81700  10.593  44.308  13.167
 9375W        W81701  29.912  32.722   3.586
 9376W        W81702   0.709  32.194   0.569
 9377W        W81703  28.621  14.190  12.094
 9378W        W81704   7.484  25.054  14.291
 9379W        W81705   4.840  37.158   2.239
 9380W        W81706  19.754  14.203   3.713
 9381W        W81707   0.109   2.007   2.844
 9382W        W81708  36.489  31.576   0.894
 9383W        W81709  11.944  27.756  11.102
 9384W        W81710  36.910  26.513  12.083
 9385W        W81711  23.904  41.376  11.610
 9386W        W81712  21.086  27.566  12.394
 9387W        W81713  23.051   0.442   4.193
 9388W        W81714  17.679   2.518  14.569
 9389W        W81715  32.390  22.779  13.827
 9390W        W81716  25.138  15.251  14.770
 9391W        W81717  22.448  12.342   2.695
 9392W        W81718   4.011   5.812  11.913
 9393W        W81719  16.737  23.433  14.460
 9394W        W81720  33.053  10.586  11.889
 9395W        W81721   0.537  13.233   2.792
 9396W        W81722  38.800  20.367  11.328
 9397W        W81723   5.746  33.979   4.471
 9398W        W81724  33.531   5.891   2.733
 9399W        W81725  32.676  29.709  14.834
 9400W        W81726  30.826  22.494   2.663
 9401W        W81727  16.563  30.050   0.939
 9402W        W81728  16.677  40.347   4.672
 9403W        W81729  43.800   8.482  10.911
 9404W        W81730  23.108   1.350   0.299
 9405W        W81731  18.215   3.920  14.530
 9406W        W81732  23.066  13.693  13.006
 9407W        W81733   9.096   2.533   4.117
 9408W        W81734  30.448  20.000  14.367
 9409W        W81735  44.245  37.492   4.692
 9410W        W81736  40.864  13.831   0.340
 9411W        W81737  35.537  20.784   0.011
 9412W        W81738   2.280  28.653   1.578
 9413W        W81739  39.891  31.483  13.748
 9414W        W81740  37.326  34.957  14.894
 9415W        W81741  15.633  36.893  11.116
 9416W        W81742  34.985  19.266   3.843
 9417W        W81743  19.904  22.948  13.896
 9418W        W81744  24.817  35.097   0.835
 9419W        W81745  28.381   5.717   0.722
 9420W        W81746  20.755  33.683   1.348
 9421W        W81747  14.748  19.419   0.825
 9422W        W81748  30.555  34.278  12.389
 9423W        W81749  30.940  36.309   2.912
 9424W        W81750  43.872  35.715   3.701
 9425W        W81751  37.981  20.430   4.693
 9426W        W81752  32.610  20.058  12.167
 9427W        W81753  10.246  32.569   2.274
 9428W        W81754  26.591  18.234   5.149
 9429W        W81755  34.436  32.497   3.706
 9430W        W81756  25.663  42.570  12.563
 9431W        W81757  17.768   6.224   4.528
 9432W        W81758  16.501  38.306  14.858
 9433W        W81759  25.975   9.768  14.117
 9434W        W81760   2.068   3.902   2.453
 9435W        W81761  27.951  15.408   1.160
 9436W        W81762  13.695   8.925  12.920
 9437W        W81763  42.164  29.173   0.950
 9438W        W81764  22.263  16.761  10.254
 9439W        W81765  10.238   6.428   4.690
 9440W        W81766  28.033  30.200  14.395
 9441W        W81767  33.062  11.115   0.233
 9442W        W81768  12.837  22.486   3.545
 9443W        W81769   5.055  26.403   3.556
 9444W        W81770  42.533   3.281   1.308
 9445W        W81771  33.412  30.335   1.238
 9446W        W81772  20.411  33.170  11.937
 9447W        W81773  39.916  16.785   0.414
 9448W        W81774  33.447  18.619   3.809
 9449W        W81775  22.226   1.497  14.955
 9450W        W81776  21.042  34.652  14.349
 9451W        W81777  33.344  28.175  13.404
 9452W        W81778  10.521   5.766   2.379
 9453W        W81779  15.130  33.487  10.527
 9454W        W81780  38.945  29.150   0.869
 9455W        W81781  18.668   2.866   2.948
 9456W        W81782  39.281  10.029   0.336
 9457W        W81783  41.127  24.990   4.279
 9458W        W81784   3.988   8.818   2.514
 9459W        W81785  44.880  17.832  12.926
 9460W        W81786   5.824  36.915   0.771
 9461W        W81787   2.163  14.667   1.416
 9462W        W81788   2.761  30.514  14.637
 9463W        W81789   6.912  32.158  14.577
 9464W        W81790  37.419   6.328   3.360
 9465W        W81791  13.118  26.696  14.479
 9466W        W81792   7.151  10.233   3.324
 9467W        W81793  43.942  33.859   3.329
 9468W        W81794  13.414  40.492   4.192
 9469W        W81795  42.451  35.066   4.174
 9470W        W81796   0.824  42.112  13.416
 9471W        W81797  35.298  12.727   3.739
 9472W        W81798  19.850  28.166  13.507
 9473W        W81799  31.099  25.614   0.205
 9474W        W81800   8.938  33.436   3.012
 9475W        W81801  16.693  17.753   3.303
 9476W        W81802  44.055  35.432  11.111
 9477W        W81803  15.606   9.815   3.370
 9478W        W81804  24.437  26.168   1.203
 9479W        W81805  33.445  41.280   4.098
 9480W        W81806  32.190   8.264  14.489
 9481W        W81807  40.285   6.544  12.274
 9482W        W81808  11.247  19.303  10.898
 9483W        W81809  31.480  34.688  11.913
 9484W        W81810   1.501  20.727   0.365
 9485W        W81811  20.169  43.279  13.323
 9486W        W81812  25.717  10.422   3.757
 9487W        W81813   3.017  12.648  10.288
 9488W        W81814  29.329  35.539   0.081
 9489W        W81815  28.917   5.756   0.545
 9490W        W81816  24.105  14.606  12.083
 9491W        W81817  15.702  34.138  14.498
 9492W        W81818   3.241  18.670  14.417
 9493W        W81819  28.885  32.444  13.552
 9494W        W81820  37.022   9.606   5.490
 9495W        W81821  37.993  11.124   4.094
 9496W        W81822  11.269  12.343   2.013
 9497W        W81823  24.672  16.207  14.527
 9498W        W81824  41.534  31.543   0.486
 9499W        W81825  24.674  42.754   3.377
 9500W        W81826  14.713  31.113   4.145
 9501W        W81827  15.254   8.305  13.389
 9502W        W81828  35.918  36.232   9.908
 9503W        W81829  15.724   2.189   4.557
 9504W        W81830  33.505   6.334   3.694
 9505W        W81831  25.220  39.823   3.228
 9506W        W81832  31.692   3.425  14.541
 9507W        W81833   1.919  23.232  10.540
 9508W        W81834  31.124  40.812   1.840
 9509W        W81835  31.470  17.109   4.206
 9510W        W81836  12.753  24.023   2.673
 9511W        W81837  16.887   3.673  14.300
 9512W        W81838  35.012   7.201   0.029
 9513W        W81839  38.868  31.207   1.351
 9514W        W81840  18.199  40.241   4.790
 9515W        W81841  14.787  27.497  11.083
 9516W        W81842   1.999  24.787   2.764
 9517W        W81843   4.965  15.453  12.787
 9518W        W81844   9.859  33.475   3.886
 9519W        W81845  13.169   7.843   2.760
 9520W        W81846  22.718  37.882  14.578
 9521W        W81847  31.427   4.383  12.902
 9522W        W81848  15.193  30.913   4.849
 9523W        W81849  41.799   7.895  14.925
 9524W        W81850   0.368  23.974   2.180
 9525W        W81851   1.252   3.281   0.333
 9526W        W81852  18.550  15.758   2.908
 9527W        W81853  21.922  40.462  13.272
 9528W        W81854  38.993  26.132   1.172
 9529W        W81855  26.211   4.795   1.717
 9530W        W81856   6.866  22.268  14.374
 9531W        W81857   8.646   0.301   2.845
 9532W        W81858  30.371  16.593   2.175
 9533W        W81859   9.247  11.684   3.298
 9534W        W81860   4.768   6.883  12.125
 9535W        W81861  15.097  15.673   0.424
 9536W        W81862  12.937  44.894   0.711
 9537W        W81863   3.268  44.230  12.430
 9538W        W81864  21.209  29.032   2.631
 9539W        W81865  22.688  27.550   3.193
 9540W        W81866  10.373  23.989  10.612
 9541W        W81867  29.762  29.446   2.757
 9542W        W81868   5.770  22.016   3.400
 9543W        W81869  20.009   3.246  11.730
 9544W        W81870  40.296  36.826  11.070
 9545W        W81871   5.739  32.985   0.211
 9546W        W81872  26.450  36.514  14.988
 9547W        W81873   6.733  12.461  14.894
 9548W        W81874  32.074  17.708  13.478
 9549W        W81875   9.287  14.869   0.304
 9550W        W81876  23.520  39.584   9.920
 9551W        W81877  31.038  37.040  12.791
 9552W        W81878  33.945  13.820  11.110
 9553W        W81879   6.409  12.128   3.491
 9554W        W81880   1.906   5.712   0.911
 9555W        W81881  39.464  44.712  11.542
 9556W        W81882  43.205  12.641   4.583
 9557W        W81883  24.627  21.956   0.297
 9558W        W81884  20.456  32.306   4.057
 9559W        W81885  11.396   5.638  12.987
 9560W        W81886  25.024  37.091  11.088
 9561W        W81887   0.519  15.049   4.062
 9562W        W81888  18.317   4.413  12.491
 9563W        W81889  23.658   9.157   1.398
 9564W        W81890  16.439  38.811   1.727
 9565W        W81891  12.206  14.826  10.552
 9566W        W81892  19.211  42.845   4.515
 9567W        W81893  40.495  38.080  13.051
 9568W        W81894  32.551  20.323  14.008
 9569W        W81895  30.953   0.364   4.355
 9570W        W81896  15.683  29.055  13.254
 9571W        W81897  22.463  27.758   4.405
 9572W        W81898  39.310   5.350  10.829
 9573W        W81899  35.799   2.486  10.581
 9574W        W81900  44.779  21.638  11.349
 9575W        W81901  37.380  24.432   3.607
 9576W        W81902  25.409  29.092  13.853
 9577W        W81903  16.317  14.688   2.753
 9578W        W81904   7.222  15.366   1.384
 9579W        W81905  25.529   0.955   0.420
 9580W        W81906  42.384  42.307  14.862
 9581W        W81907  41.491   8.079  14.191
 9582W        W81908   2.367   4.140  12.514
 9583W        W81909  23.889  37.158   1.229
 9584W        W81910  21.214  35.618  12.692
 9585W        W81911   1.770  17.009  13.059
 9586W        W81912  24.274  29.998   4.059
 9587W        W81913  19.496  30.943  13.089
 9588W        W81914  15.554  44.072   3.088
 9589W        W81915  29.972  26.433  12.436
 9590W        W81916   2.372   5.506   1.003
 9591W        W81917  42.376  15.509  12.638
 9592W        W81918   5.433  11.728   3.682
 9593W        W81919  23.090  35.707  12.429
 9594W        W81920  41.870  24.771   1.725
 9595W        W81921   6.435  24.642   1.225
 9596W        W81922  31.672  35.538   4.016
 9597W        W81923  16.679   9.892  14.858
 9598W        W81924  35.455   0.742   2.863
 9599W        W81925  41.725  23.220  11.081
 9600W        W81926  33.925  21.499   2.262
 9601W        W81927  36.042  30.453  11.602
 9602W        W81928  13.130  36.377   2.224
 9603W        W81929  43.952  36.076  13.435
 9604W        W81930  14.584  20.680  13.605
 9605W        W81931  34.278  37.334  13.765
 9606W        W81932  15.832  14.741   4.076
 9607W        W81933  41.693  16.177  14.327
 9608W        W81934  19.227  16.904  12.461
 9609W        W81935  11.188  37.106   2.351
 9610W        W81936  21.849   1.151   3.222
 9611W        W81937  33.000  35.804  14.713
 9612W        W81938  18.180  27.387  13.802
 9613W        W81939  26.138   3.607  14.439
 9614W        W81940  19.822  31.673   0.465
 9615W        W81941  35.449  26.716   4.460
 9616W        W81942  15.179  21.836  13.739
 9617W        W81943  15.652  28.873   2.101
 9618W        W81944  43.899  22.726   0.727
 9619W        W81945  14.821  31.387   0.330
 9620W        W81946   8.180  13.932   4.715
 9621W        W81947  31.135  44.994   1.734
 9622W        W81948  29.913   6.858   1.375
 9623W        W81949  43.646  34.611   4.018
 9624W        W81950   7.882  25.467  12.590
 9625W        W81951   3.277  23.073   0.259
 9626W        W81952  30.592  22.270  14.487
 9627W        W81953  35.466   6.952   1.673
 9628W        W81954  21.662  23.855   1.425
 9629W        W81955  10.173  33.109   4.091
 9630W        W81956   3.901  25.016   5.147
 9631W        W81957  36.959  40.615  13.462
 9632W        W81958  16.115  31.940   4.629
 9633W        W81959  22.095  26.157   0.273
 9634W        W81960  31.710  32.408  13.486
 9635W        W81961  36.375  35.900  10.667
 9636W        W81962  11.227  20.223  13.409
 9637W        W81963  23.223  42.511   4.887
 9638W        W81964  16.663  41.896  12.584
 9639W        W81965  43.286  16.340   3.853
 9640W        W81966  41.645   9.059  11.976
 9641W        W81967  41.393  12.785  14.843
 9642W        W81968  31.675  28.974   0.215
 9643W        W81969  14.295  25.728   1.910
 9644W        W81970  35.337   7.679   2.194
 9645W        W81971  21.130  18.315  11.679
 9646W        W81972  28.858  14.091  13.365
 9647W        W81973  34.614   2.391   2.473
 9648W        W81974  41.364  20.773   2.487
 9649W        W81975   5.791  32.125   1.841
 9650W        W81976  22.598  44.023   4.221
 9651W        W81977  31.185  16.530  11.775
 9652W        W81978  20.085  31.091   2.132
 9653W        W81979  34.047  22.669  10.412
 9654W        W81980  41.425  30.132  13.018
 9655W        W81981  24.451   5.012   1.852
 9656W        W81982   2.711  17.261   2.393
 9657W        W81983  27.424  18.248   3.819
 9658W        W81984  39.243  29.236   2.214
 9659W        W81985  31.427  35.563  12.989
 9660W        W81986  23.698  15.619  13.764
 9661W        W81987  34.958  23.633   1.379
 9662W        W81988  27.035  33.007  11.315
 9663W        W81989  44.056  28.162  14.974
 9664W        W81990   4.448  12.176   2.223
 9665W        W81991   9.577  31.256  10.922
 9666W        W81992  10.623  22.087   0.460
 9667W        W81993  38.601  15.029  13.548
 9668W        W81994   4.764   7.322  10.235
 9669W        W81995  37.381  28.346   1.907
 9670W        W81996  33.963  16.203  11.747
 9671W        W81997  22.523  25.035   0.916
 9672W        W81998  24.489  37.803  14.372
 9673W        W81999  38.787  40.544  11.092
 9674W        W82000  33.563   9.409  14.000
 9675W        W82001  25.684  24.188   0.270
 9676W        W82002   1.823  14.778   1.801
 9677W        W82003  21.224  18.293  14.505
 9678W        W82004   3.890  29.000  14.293
 9679W        W82005  30.916  28.146  14.891
 9680W        W82006  27.545  32.176  11.017
 9681W        W82007   1.065   8.736  14.198
 9682W        W82008  38.884   2.311  14.391
 9683W        W82009  10.964   5.702  12.011
 9684W        W82010  26.071  20.079  11.638
 9685W        W82011   3.281  27.408   0.961
 9686W        W82012  16.079   1.820   2.758
 9687W        W82013  20.704   9.887   4.752
 9688W        W82014  34.401  17.600  10.688
 9689W        W82015  19.554   2.581  12.291
 9690W        W82016   9.293  13.518   3.686
 9691W        W82017  11.240  22.619   2.336
 9692W        W82018  26.414   5.602  10.397
 9693W        W82019  25.181  40.320   3.317
 9694W        W82020   2.838  38.522   3.888
 9695W        W82021  35.622  20.568  14.560
 9696W        W82022  44.668   2.431   4.567
 9697W        W82023  39.744   5.209   3.189
 9698W        W82024  43.949   2.106  12.267
 9699W        W82025  19.036  17.218  11.135
 9700W        W82026  28.627  37.150   2.771
 9701W        W82027  41.514  20.074   0.767
 9702W        W82028  26.046   9.120   1.986
 9703W        W82029   3.459  42.269   1.436
 9704W        W82030  36.790  32.240   1.390
 9705W        W82031   2.348  13.969  12.377
 9706W        W82032   5.429  11.782   1.225
 9707W        W82033  42.355  41.280  11.529
 9708W        W82034  12.201  15.821   3.134
 9709W        W82035  34.874  42.953   5.207
 9710W        W82036  11.196   6.384  10.705
 9711W        W82037  14.533  10.672  14.872
 9712W        W82038  41.353  44.809   3.311
 9713W        W82039  33.577  44.840  14.987
 9714W        W82040   8.725  24.992   3.058
 9715W        W82041  16.013  39.967  11.863
 9716W        W82042  17.586  28.907   1.677
 9717W        W82043  36.382  39.467  14.742
 9718W        W82044  44.511  32.706   1.924
 9719W        W82045  21.241  19.770   4.749
 9720W        W82046   6.813  17.123   3.847
 9721W        W82047  43.565  36.008  14.413
 9722W        W82048  13.270  28.504   2.390
 9723W        W82049  18.692  19.614  12.088
 9724W        W82050  15.999   6.728   4.919
 9725W        W82051  20.670  25.622  11.089
 9726W        W82052  35.051  20.558  11.969
 9727W        W82053  10.924   4.528  13.373
 9728W        W82054  23.676  22.796   2.282
 9729W        W82055   4.788   2.841   3.078
 9730W        W82056  32.882  37.138  11.702
 9731W        W82057  35.366   2.990   0.872
 9732W        W82058  35.472  15.520  12.860
 9733W        W82059  28.141  31.920  13.821
 9734W        W82060   6.659  44.217   1.873
 9735W        W82061   4.267  24.694   4.742
 9736W        W82062  24.273   1.054   3.494
 9737W        W82063  41.412  38.636  14.439
 9738W        W82064   0.265  16.817   4.754
 9739W        W82065  35.318  36.436   0.853
 9740W        W82066  31.544  11.135  11.443
 9741W        W82067  28.196  21.477   3.225
 9742W        W82068   6.817  38.499  10.724
 9743W        W82069  17.302  15.294  10.198
 9744W        W82070  32.433  30.484  12.393
 9745W        W82071  27.850   3.937   4.585
 9746W        W82072   5.228  44.299  11.149
 9747W        W82073   6.742  42.877  13.051
 9748W        W82074  16.233  18.725   3.842
 9749W        W82075  34.596   2.050  11.679
 9750W        W82076  24.415  29.431   4.888
 9751W        W82077  33.129  11.674  13.501
 9752W        W82078  27.073  40.997   3.303
 9753W        W82079   3.794   4.569   4.287
 9754W        W82080  15.771  44.536  10.687
 9755W        W82081   5.443  42.284   3.221
 9756W        W82082  17.330  28.018  14.397
 9757W        W82083  25.738  34.572  14.765
 9758W        W82084  44.666  21.115  11.434
 9759W        W82085  18.566  23.969   1.926
 9760W        W82086   4.202   1.275   0.192
 9761W        W82087  36.425   6.669   0.505
 9762W        W82088  42.780  44.784  12.424
 9763W        W82089   7.247   6.678  14.026
 9764W        W82090  32.521  17.347  14.781
 9765W        W82091  40.350  15.736  11.379
 9766W        W82092  27.660  24.292   2.407
 9767W        W82093  27.713   4.388  13.877
 9768W        W82094  35.383  10.621  12.457
 9769W        W82095  29.653  11.665  10.961
 9770W        W82096  39.263  18.660  10.615
 9771W        W82097  13.057  23.234  14.850
 9772W        W82098  36.831   1.323  12.844
 9773W        W82099  21.798   4.330  13.803
 9774W        W82100  35.891  12.366  11.222
 9775W        W82101  25.645  40.070  12.334
 9776W        W82102  24.059  17.075  14.899
 9777W        W82103  23.273   3.975   2.319
 9778W        W82104   8.333  38.089   4.331
 9779W        W82105  39.166  26.146   2.405
 9780W        W82106  40.017  24.620  12.224
 9781W        W82107  36.558   7.955   2.489
 9782W        W82108   4.936  44.837  11.117
 9783W        W82109  27.168  25.673   0.013
 9784W        W82110  15.105  27.871   3.285
 9785W        W82111  18.544  33.412   2.197
 9786W        W82112  35.020   9.370   4.146
 9787W        W82113  38.172  33.012   4.192
 9788W        W82114  29.385   3.040  12.114
 9789W        W82115  13.706  21.570   4.285
 9790W        W82116   9.714  35.239   4.379
 9791W        W82117   2.722  21.464  13.376
 9792W        W82118  20.555  19.864   2.137
 9793W        W82119  38.985  28.286   1.495
 9794W        W82120  30.899  43.571  12.412
 9795W        W82121   1.339  11.734   3.062
 9796W        W82122   3.450  18.052  10.708
 9797W        W82123  10.319  36.948   1.761
 9798W        W82124  22.042  23.927   3.736
 9799W        W82125   5.970  12.390   2.358
 9800W        W82126  25.592  16.654   1.694
 9801W        W82127  43.132  24.813   1.336
 9802W        W82128  10.782  16.131  12.996
 9803W        W82129   8.425   8.649  12.051
 9804W        W82130  12.070  17.298  14.443
 9805W        W82131  35.181  17.371   5.133
 9806W        W82132  10.141  43.579  11.169
 9807W        W82133  25.886  22.687   4.202
 9808W        W82134  23.991  10.599   0.769
 9809W        W82135   4.044  22.793   9.830
 9810W        W82136  44.752  25.917  12.507
 9811W        W82137  37.693  10.673   5.070
 9812W        W82138  18.224  33.414   0.853
 9813W        W82139  15.614   5.234   3.605
 9814W        W82140  41.317  40.130   0.436
 9815W        W82141  26.612  13.006   4.612
 9816W        W82142  39.476  15.264   3.272
 9817W        W82143  20.079  39.409  12.963
 9818W        W82144  21.620  12.814   1.425
 9819W        W82145  44.119  20.273  11.895
 9820W        W82146  29.844  37.532   2.501
 9821W        W82147  35.809   1.909   3.891
 9822W        W82148   8.132  37.772  11.551
 9823W        W82149  34.168  41.412   4.897
 9824W        W82150  30.049  13.651  10.974
 9825W        W82151  11.108   1.393   4.818
 9826W        W82152  11.670  41.920   1.409
 9827W        W82153   6.774  42.874  12.185
 9828W        W82154  25.044  26.358  11.626
 9829W        W82155  38.915  20.296  14.291
 9830W        W82156  18.743  23.107  13.837
 9831W        W82157  12.555  29.126   2.729
 9832W        W82158  43.383  35.422  13.892
 9833W        W82159  40.858  41.017  12.488
 9834W        W82160  12.167  37.530  10.520
 9835W        W82161  12.987   6.195  13.350
 9836W        W82162  43.560  15.447  11.954
 9837W        W82163  18.370  31.517   1.945
 9838W        W82164  18.610  30.848   3.325
 9839W        W82165  11.293   2.069   0.487
 9840W        W82166  34.633  10.242  11.105
 9841W        W82167  17.268   5.702  12.964
 9842W        W82168  44.340  13.483   0.498
 9843W        W82169  43.997   3.514  12.556
 9844W        W82170  34.632  26.830   3.751
 9845W        W82171  37.121  34.572   1.742
 9846W        W82172   1.526   5.338  13.321
 9847W        W82173  14.067  20.172   1.436
 9848W        W82174  28.290   8.167  14.752
 9849W        W82175  17.394  42.722  14.828
 9850W        W82176   6.834   2.448   0.439
 9851W        W82177   8.320  14.148  12.315
 9852W        W82178  34.360  22.278   4.811
 9853W        W82179   9.665   5.348   2.569
 9854W        W82180   9.272  13.279   4.607
 9855W        W82181  31.715  23.182  11.494
 9856W        W82182   3.699  11.575   3.264
 9857W        W82183   9.804  15.847   1.019
 9858W        W82184  22.087   5.394  14.373
 9859W        W82185  15.106  25.949  12.122
 9860W        W82186  11.663  17.208   1.732
 9861W        W82187  43.748  26.213  10.951
 9862W        W82188  43.055  32.748   3.204
 9863W        W82189  40.527  18.298  12.528
 9864W        W82190  43.067  11.194  14.357
 9865W        W82191  28.022  41.306  10.672
 9866W        W82192  42.094  30.798  13.433
 9867W        W82193   6.047  16.851  14.972
 9868W        W82194  32.739  44.052  11.281
 9869W        W82195  14.150  21.956   0.480
 9870W        W82196  37.085  13.630   1.368
 9871W        W82197  18.661  10.420   0.525
 9872W        W82198  20.425  41.900   1.845
 9873W        W82199  34.562  13.850  14.175
 9874W        W82200  20.634  37.456   0.717
 9875W        W82201  36.537  30.136  12.524
 9876W        W82202  29.960  28.882   2.171
 9877W        W82203   6.437  28.455  13.939
 9878W        W82204  37.045  38.549   1.758
 9879W        W82205   5.465  30.932   1.333
 9880W        W82206  10.144  21.745  10.170
 9881W        W82207  27.161  17.070  10.284
 9882W        W82208  26.221  21.635   2.284
 9883W        W82209  18.274  16.447   2.377
 9884W        W82210  10.072  31.623  12.181
 9885W        W82211  34.636  42.346  11.235
 9886W        W82212  26.487   3.571  10.525
 9887W        W82213   4.148  19.693  12.641
 9888W        W82214  32.188  26.092   1.326
 9889W        W82215  26.069  29.262   3.416
 9890W        W82216  34.889  18.089   4.439
 9891W        W82217  15.159  28.413   3.638
 9892W        W82218  44.196  35.309   4.055
 9893W        W82219  43.788   0.519   2.112
 9894W        W82220   8.448  40.300  10.761
 9895W        W82221  15.642  24.944   1.957
 9896W        W82222  29.823  25.146  13.517
 9897W        W82223  31.596  39.896   4.947
 9898W        W82224  34.562   9.926   4.257
 9899W        W82225  20.513   7.638  12.528
 9900W        W82226  35.329  39.276  11.314
 9901W        W82227  42.325   8.213  11.521
 9902W        W82228   9.432  36.056   4.044
 9903W        W82229   2.215   1.974   4.073
 9904W        W82230  28.508  41.885   0.728
 9905W        W82231  38.255  44.655   2.352
 9906W        W82232  10.148  32.683  13.184
 9907W        W82233  37.530  24.533   1.861
 9908W        W82234  17.098  23.149  11.118
 9909W        W82235  41.049  36.090   2.703
 9910W        W82236   4.496  24.056  13.785
 9911W        W82237  33.397  27.118   3.826
 9912W        W82238  34.637  20.589  10.563
 9913W        W82239  42.986  39.991   1.235
 9914W        W82240  37.381   8.905   0.487
 9915W        W82241  12.187  26.594   5.077
 9916W        W82242  26.697  15.108   0.518
 9917W        W82243  39.844   8.241   3.392
 9918W        W82244  37.095  44.885   3.696
 9919W        W82245   1.447  36.107   4.211
 9920W        W82246  41.933  22.457  11.465
 9921W        W82247  44.988  25.122   2.582
 9922W        W82248  40.324  13.618  11.238
 9923W        W82249  38.379  32.827   1.847
 9924W        W82250  17.590  36.924  13.575
 9925W        W82251  20.700  21.040  13.448
 9926W        W82252  25.737   0.377   3.287
 9927W        W82253  42.183  18.740  14.522
 9928W        W82254  41.087  18.886   4.139
 9929W        W82255   7.131  29.342   3.827
 9930W        W82256  38.443  27.677   4.107
 9931W        W82257   5.720  10.206   4.423
 9932W        W82258  34.180  40.891  11.237
 9933W        W82259  30.728  35.277  11.120
 9934W        W82260  21.292  35.537   2.206
 9935W        W82261  16.501  32.643   0.024
 9936W        W82262   1.837  19.168   4.369
 9937W        W82263  22.237  28.166  13.362
 9938W        W82264  22.663  33.064  11.661
 9939W        W82265  34.003  34.423   2.813
 9940W        W82266  35.073  38.086   1.366
 9941W        W82267  16.212  15.356   2.249
 9942W        W82268  14.593  36.516  10.629
 9943W        W82269  18.128  44.298  12.056
 9944W        W82270  14.627  40.792  11.710
 9945W        W82271   1.726  30.470  13.763
 9946W        W82272  17.710  33.127  14.954
 9947W        W82273  12.775   3.842   2.786
 9948W        W82274  27.455  15.669   0.941
 9949W        W82275  40.768   2.788   3.886
 9950W        W82276  12.672   8.829   2.160
 9951W        W82277  39.276  23.066  14.495
 9952W        W82278  32.088  42.294  14.771
 9953W        W82279  18.780   7.134  12.556
 9954W        W82280  27.860   3.379   0.906
 9955W        W82281  39.125  30.630  10.754
 9956W        W82282  18.521  15.812  14.962
 9957W        W82283  20.290   8.112   1.405
 9958W        W82284  40.025  24.097   2.330
 9959W        W82285  39.478  40.918   0.886
 9960W        W82286  14.119   3.895   0.972
 9961W        W82287  10.197  38.283   1.467
 9962W        W82288  39.473  21.797   2.729
 9963W        W82289  19.200  34.617   2.673
 9964W        W82290   8.622  21.604   1.319
 9965W        W82291  34.903   6.402   1.393
 9966W        W82292  14.118  37.057  12.988
 9967W        W82293  25.505  24.785   3.344
 9968W        W82294   1.269  33.956  11.680
 9969W        W82295  37.092  34.435  13.006
 9970W        W82296  41.238  19.406  11.557
 9971W        W82297  36.449  29.262   4.228
 9972W        W82298  21.246   9.999  11.956
 9973W        W82299  37.492  40.233   4.907
 9974W        W82300  14.713   6.182  12.098
 9975W        W82301  40.568  20.785   2.055
 9976W        W82302  29.189  21.796   4.851
 9977W        W82303  35.236  15.245   1.333
 9978W        W82304  21.468  35.610  11.963
 9979W        W82305  17.010  39.505   3.360
 9980W        W82306  12.169  44.075  11.860
 9981W        W82307  41.017  43.417   1.388
 9982W        W82308   0.450  35.222  13.069
 9983W        W82309   7.242  27.160   4.280
 9984W        W82310   2.042   6.530  13.099
 9985W        W82311  14.854  33.670  14.894
 9986W        W82312   9.766  43.947  11.181
 9987W        W82313  28.990  27.680  10.497
 9988W        W82314   1.833  36.828   3.890
 9989W        W82315  29.888   3.721   3.262
 9990W        W82316   0.426  14.413   2.278
 9991W        W82317  31.114   4.127  11.214
 9992W        W82318  36.820  35.832  10.927
 9993W        W82319  13.226   4.149  13.447
 9994W        W82320  10.355  15.094   0.738
 9995W        W82321   9.225  16.251  13.021
 9996W        W82322  17.279  44.557   1.008
 9997W        W82323  17.835  35.362  14.851
 9998W        W82324  11.922  32.099   4.588
 9999W        W82325  23.013  30.993  14.704
10000W        W82326  10.748  43.859  13.919
10001W        W82327   9.761  29.895  11.168
10002W        W82328  40.002   9.736   3.498
10003W        W82329  30.671  35.314   0.151
10004W        W82330  36.029  31.060  12.897
10005W        W82331  13.257  14.776  12.496
10006W        W82332  12.644  26.572   3.256
10007W        W82333   3.179  30.090  13.541
10008W        W82334  22.103  30.391   2.879
10009W        W82335   1.343  23.974   3.497
10010W        W82336  21.791  37.138  14.926
10011W        W82337  41.793  14.150   3.289
10012W        W82338  13.219  17.522   2.189
10013W        W82339  38.348  22.293   2.803
10014W        W82340  34.004   5.267   2.306
10015W        W82341  25.612  13.931   3.106
10016W        W82342  42.847  23.832  11.593
10017W        W82343  11.150  36.488  11.566
10018W        W82344   7.867  15.036   4.655
10019W        W82345   9.842  13.926  12.254
10020W        W82346  39.854  23.612   2.606
10021W        W82347  28.351   2.435  10.791
10022W        W82348   3.351  31.595   4.266
10023W        W82349   8.709   3.217   4.646
10024W        W82350   4.441  11.639  12.472
10025W        W82351  43.287  29.122  10.459
10026W        W82352  36.358   4.587  14.013
10027W        W82353   6.637  40.477  11.924
10028W        W82354  18.465  23.025  12.338
10029W        W82355  44.369  22.537   4.988
10030W        W82356  22.502  22.587   3.646
10031W        W82357  13.332  32.350   3.547
10032W        W82358  38.273  19.587  14.991
10033W        W82359  12.751  32.953   3.645
10034W        W82360   4.199  17.386   3.485
10035W        W82361  42.933   4.469  12.033
10036W        W82362  35.954  29.757  14.874
10037W        W82363   5.465  38.869   1.919
10038W        W82364  37.335  33.281  10.601
10039W        W82365  27.895  13.789   4.112
10040W        W82366   4.231  35.017   3.209
10041W        W82367  13.556   4.703  12.612
10042W        W82368  37.425  34.956   0.444
10043W        W82369  36.982  14.833   4.186
10044W        W82370   3.294  13.196   2.900
10045W        W82371  37.888  19.649  11.585
10046W        W82372  33.737  32.521  11.368
10047W        W82373  35.606  14.538  12.368
10048W        W82374  21.186  27.219   0.057
10049W        W82375  39.743   9.304  11.362
10050W        W82376  26.503   0.754   1.085
10051W        W82377   4.892  40.524  10.892
10052W        W82378  21.706  42.486  12.525
10053W        W82379   2.779   7.206   0.407
10054W        W82380   9.740  40.027   1.821
10055W        W82381  22.926  31.989   4.946
10056W        W82382  32.247  43.952   2.239
10057W        W82383  25.692  19.361   1.217
10058W        W82384   6.789   8.273   0.384
10059W        W82385  16.166   1.191  13.853
10060W        W82386  24.187  40.433  14.353
10061W        W82387   0.523   6.986   4.174
10062W        W82388  17.122  20.615  14.230
10063W        W82389   3.792  27.229   0.441
10064W        W82390   9.425  15.670   4.044
10065W        W82391  38.935  33.949  13.042
10066W        W82392  42.945  12.946   4.244
10067W        W82393  10.246  18.173   4.041
10068W        W82394  30.558  37.575  11.609
10069W        W82395  18.742  39.431   4.682
10070W        W82396   9.924   9.440  12.345
10071W        W82397  17.938  36.307   5.083
10072W        W82398  43.330  13.100  11.717
10073W        W82399  32.888  23.751   1.798
10074W        W82400  44.729  26.607   3.704
10075W        W82401  17.253  29.350   3.153
10076W        W82402  18.637  38.858  11.903
10077W        W82403  38.155  32.351   4.092
10078W        W82404  24.298  30.571  14.500
10079W        W82405   6.009  12.248   3.818
10080W        W82406  12.724  19.538   2.605
10081W        W82407   6.386  19.315   2.582
10082W        W82408  18.568  44.853  13.460
10083W        W82409  20.144   7.643   1.615
10084W        W82410  41.973   1.527   2.762
10085W        W82411  38.784   3.406   0.937
10086W        W82412  11.184   4.876   0.847
10087W        W82413  43.812  23.260  14.813
10088W        W82414  18.582  14.366   3.715
10089W        W82415  25.933  44.384   1.279
10090W        W82416  25.168  41.769   1.488
10091W        W82417  39.469   0.916   0.932
10092W        W82418  44.384  27.489   2.379
10093W        W82419  27.971   7.693   2.682
10094W        W82420   9.705  12.282   2.693
10095W        W82421  28.678  23.715  13.450
10096W        W82422  42.556  44.376  13.513
10097W        W82423  27.873  37.603  11.137
10098W        W82424  37.752   8.195   1.675
10099W        W82425   3.949   6.108   4.342
10100W        W82426  42.937  24.623   4.882
10101W        W82427  25.239  42.366  11.499
10102W        W82428   2.044   3.248  12.464
10103W        W82429  35.628  21.973  12.455
10104W        W82430  37.571  21.287   3.202
10105W        W82431  12.329  24.652  11.104
10106W        W82432  37.427  30.952   1.677
10107W        W82433   6.382  42.361  13.319
10108W        W82434  43.410  19.772   3.777
10109W        W82435  32.331   0.864   1.700
10110W        W82436  20.035  34.617  14.291
10111W        W82437  40.845  39.903  13.360
10112W        W82438  12.102  11.887  14.917
10113W        W82439  19.001  13.805   1.218
10114W        W82440  21.755  33.276  10.216
10115W        W82441  23.092  11.812   4.050
10116W        W82442  39.549   0.480  14.432
10117W        W82443   1.175   9.461   4.399
10118W        W82444  34.607   3.144  11.209
10119W        W82445  10.841  31.615  13.786
10120W        W82446  34.460  30.068  13.494
10121W        W82447   0.241  32.560  10.793
10122W        W82448  31.125  36.338   5.002
10123W        W82449  41.336  16.822  10.962
10124W        W82450   8.679  28.054   2.786
10125W        W82451   1.995  37.404  12.961
10126W        W82452  14.914  17.597   3.845
10127W        W82453  28.567   2.962   1.780
10128W        W82454  43.530  32.108   4.787
10129W        W82455  21.261  23.061   3.579
10130W        W82456  37.662  25.243   4.073
10131W        W82457  28.125  34.566  13.848
10132W        W82458  25.441  24.368  12.793
10133W        W82459  32.505   2.308  10.740
10134W        W82460  20.834   6.347   0.496
10135W        W82461  12.087  32.350   0.825
10136W        W82462  30.516  32.674  13.270
10137W        W82463  41.049  37.609   4.760
10138W        W82464  18.117  34.132   1.733
10139W        W82465  39.568  25.181   0.317
10140W        W82466  44.657  22.006  14.836
10141W        W82467  33.531  10.921  11.023
10142W        W82468  19.608  36.832   4.058
10143W        W82469  37.465  38.586   1.456
10144W        W82470  21.588  36.041   1.300
10145W        W82471  24.686  21.628  14.870
10146W        W82472  31.126  37.273   1.866
10147W        W82473  26.779  18.708   5.069
10148W        W82474   5.630   4.468   3.964
10149W        W82475  13.217  41.475  14.353
10150W        W82476   7.712  21.007  11.009
10151W        W82477   0.107  25.694   1.352
10152W        W82478   4.887  40.955  12.571
10153W        W82479  15.256  32.923   1.352
10154W        W82480  30.368   4.742   0.688
10155W        W82481  25.688  43.318   4.052
10156W        W82482   6.974  35.877  12.113
10157W        W82483  37.502  40.321  11.761
10158W        W82484  14.326   2.830   3.352
10159W        W82485  31.685   6.208   3.470
10160W        W82486  20.547  14.133   3.310
10161W        W82487  38.301  42.451   0.813
10162W        W82488   5.742  12.713  13.870
10163W        W82489   0.366  43.843  11.082
10164W        W82490   1.530  38.799   4.705
10165W        W82491  30.706  41.550   4.142
10166W        W82492  28.996  36.978  10.446
10167W        W82493  34.791  12.779  12.539
10168W        W82494   9.669  12.070   3.226
10169W        W82495   1.649   7.350   2.291
10170W        W82496  36.364  37.422  12.855
10171W        W82497  13.577  15.258  11.993
10172W        W82498  14.949   2.728   2.315
10173W        W82499  14.284  39.843  11.839
10174W        W82500  23.172   4.890   3.669
10175W        W82501   4.691  24.169  10.699
10176W        W82502   3.035  23.222  13.031
10177W        W82503  14.660   9.206  14.585
10178W        W82504  29.394  20.678   0.936
10179W        W82505  35.336  42.768  10.657
10180W        W82506  29.145   0.616   3.812
10181W        W82507  25.479  24.806   1.522
10182W        W82508  43.421   4.306   1.299
10183W        W82509  34.968  31.496   0.967
10184W        W82510  18.277  29.132  11.614
10185W        W82511  14.745  33.431  13.897
10186W        W82512  24.680  36.963  13.289
10187W        W82513  40.273  13.819   2.828
10188W        W82514  39.165   9.844  13.093
10189W        W82515  21.433  43.542   3.255
10190W        W82516  21.500  37.679   9.884
10191W        W82517  20.672  41.943  11.569
10192W        W82518  15.736  25.517   4.689
10193W        W82519  22.968  31.851  12.024
10194W        W82520  26.125  33.206  11.971
10195W        W82521  22.146  23.484   4.844
10196W        W82522  43.793   0.875  10.478
10197W        W82523  32.834  29.832  11.619
10198W        W82524  32.375  25.176  14.360
10199W        W82525  23.145  11.945  12.883
10200W        W82526  36.905  39.542  13.346
10201W        W82527   6.274  17.116  10.764
10202W        W82528  27.579  14.563  14.068
10203W        W82529  30.389  13.334  12.516
10204W        W82530  22.473  13.521   0.767
10205W        W82531  36.269  11.302   2.165
10206W        W82532  28.104  38.007  11.479
10207W        W82533  28.989  13.069  12.476
10208W        W82534  24.903  40.303   3.752
10209W        W82535  26.670  19.554  12.012
10210W        W82536  28.993  19.068   1.390
10211W        W82537  41.614  30.450   3.215
10212W        W82538   4.556  34.669   1.762
10213W        W82539  22.566  28.993   0.254
10214W        W82540  24.007  25.130   2.717
10215W        W82541  35.565   0.968   1.003
10216W        W82542  22.037   2.658   4.556
10217W        W82543  43.988  10.222  14.911
10218W        W82544  44.835  10.140   3.199
10219W        W82545  31.813  16.789   2.659
10220W        W82546  11.056  20.782  11.134
10221W        W82547  26.618  32.853   3.199
10222W        W82548  33.035  12.166   0.937
10223W        W82549  23.577  20.494   2.293
10224W        W82550  15.138  23.449  14.845
10225W        W82551   1.237  14.419  12.585
10226W        W82552  31.646   1.689   3.228
10227W        W82553   4.115  30.538  14.737
10228W        W82554  11.807  22.596  13.079
10229W        W82555   7.024  29.073   4.456
10230W        W82556  43.370  11.334   0.854
10231W        W82557  25.481  16.636  12.167
10232W        W82558   3.191  32.867   1.303
10233W        W82559   7.177  44.360  12.867
10234W        W82560  19.994  10.135   4.293
10235W        W82561  24.229  23.238  13.029
10236W        W82562  31.478  37.862   3.107
10237W        W82563  11.702  18.297  14.657
10238W        W82564  40.267  29.985   3.849
10239W        W82565  12.141  23.518   0.284
10240W        W82566  34.373  43.287  12.121
10241W        W82567  39.880  12.005  14.523
10242W        W82568  39.997  41.541   2.720
10243W        W82569  21.348  43.478   4.156
10244W        W82570  40.785   1.115  11.115
10245W        W82571  31.771  37.336  14.963
10246W        W82572   5.999   4.145  10.615
10247W        W82573  33.281  34.138   3.593
10248W        W82574   9.815  44.006  13.602
10249W        W82575  23.533  19.581  12.885
10250W        W82576  31.598   0.684  11.898
10251W        W82577  33.151  18.254  10.964
10252W        W82578  18.324  29.002   3.148
10253W        W82579  12.392  14.493  13.005
10254W        W82580   7.960  27.807  13.395
10255W        W82581  42.871   4.242  11.559
10256W        W82582  19.233  35.440   3.787
10257W        W82583  32.988   4.366   4.691
10258W        W82584  27.790  32.013   1.022
10259W        W82585  25.709  11.039   1.475
10260W        W82586  14.759  18.032   1.863
10261W        W82587   9.176   8.272   3.869
10262W        W82588  38.955  44.459   3.526
10263W        W82589  37.747  38.564   0.672
10264W        W82590  15.882   6.399  14.917
10265W        W82591   3.166  25.976  12.145
10266W        W82592  41.260  40.775   1.888
10267W        W82593  43.161  41.942   4.886
10268W        W82594  25.907  43.344   3.250
10269W        W82595  22.760  23.948   4.150
10270W        W82596  30.979  41.072   3.164
10271W        W82597  29.735  11.946   1.852
10272W        W82598   8.009  38.963  14.256
10273W        W82599   8.127   6.256  13.904
10274W        W82600  21.635  15.041  12.540
10275W        W82601  16.687  20.965  11.189
10276W        W82602  22.076  38.510  11.509
10277W        W82603  22.027   4.661   4.823
10278W        W82604  28.514  27.745  13.322
10279W        W82605  28.447  24.928   0.632
10280W        W82606  36.621  39.843  14.102
10281W        W82607  22.511  21.733   4.116
10282W        W82608  35.962  11.851  10.507
10283W        W82609  32.552   3.926   1.066
10284W        W82610   7.369  12.090   2.697
10285W        W82611  27.955  31.183   3.306
10286W        W82612   8.643  16.135  11.215
10287W        W82613  12.309   6.905  14.806
10288W        W82614  28.651  26.621   4.501
10289W        W82615   2.945  42.067  14.945
10290W        W82616  36.587   0.649  12.876
10291W        W82617  35.493  37.909   4.454
10292W        W82618  20.812  41.590  10.645
10293W        W82619   3.312  34.897   0.578
10294W        W82620   5.758  27.950   0.475
10295W        W82621  28.972  23.264   1.023
10296W        W82622  11.440  15.131  14.866
10297W        W82623  19.978   9.509   3.542
10298W        W82624  34.919  38.603   3.328
10299W        W82625  40.289   7.715  14.340
10300W        W82626  19.151  12.469  13.908
10301W        W82627  24.973   3.396   1.445
10302W        W82628  30.217  27.975   0.782
10303W        W82629   2.847   2.995   2.085
10304W        W82630  14.396  13.121   0.963
10305W        W82631   8.397  21.799   0.861
10306W        W82632   9.351   7.468   0.280
10307W        W82633  37.549  42.870  13.575
10308W        W82634  42.137  15.055   1.914
10309W        W82635  24.523  11.390   1.830
10310W        W82636  42.038  10.980   3.116
10311W        W82637  33.828  35.637  11.200
10312W        W82638  44.295  29.958  14.482
10313W        W82639  38.971   4.938   0.804
10314W        W82640  30.084  10.740  10.954
10315W        W82641  29.444   4.473  13.368
10316W        W82642  30.488  26.525  12.443
10317W        W82643  37.358   1.240   0.211
10318W        W82644  27.427  41.389   0.131
10319W        W82645  10.781  43.391   2.470
10320W        W82646   8.339  39.311   2.677
10321W        W82647  17.782  38.923   3.215
10322W        W82648  32.517   2.570   0.885
10323W        W82649  19.299  43.349   0.525
10324W        W82650  23.125  16.400   4.638
10325W        W82651  11.314   6.601  14.899
10326W        W82652  13.546  11.899   3.685
10327W        W82653  37.798  44.317  12.491
10328W        W82654  27.172  25.544  11.610
10329W        W82655   6.126  11.865  11.122
10330W        W82656   6.335  27.491  12.091
10331W        W82657  31.753  28.210   0.972
10332W        W82658  30.012  38.393  10.703
10333W        W82659  29.997  32.737  12.777
10334W        W82660  18.783   2.933  10.605
10335W        W82661   6.702   6.804   0.302
10336W        W82662  30.080  33.611   3.260
10337W        W82663  26.059  32.856   3.219
10338W        W82664   6.364   1.980   2.880
10339W        W82665  17.040  23.280  12.918
10340W        W82666   2.969  10.749  10.935
10341W        W82667  36.607   4.062   1.933
10342W        W82668  36.873  16.700   4.234
10343W        W82669  42.058  18.596   2.231
10344W        W82670  19.470  23.715  12.959
10345W        W82671   0.745  30.973  10.687
10346W        W82672   3.356  37.862  11.411
10347W        W82673  23.543  10.715   3.267
10348W        W82674  13.133  18.290   1.743
10349W        W82675   9.172   7.811  11.448
10350W        W82676  13.815  36.147  10.978
10351W        W82677  29.951  26.174   3.003
10352W        W82678  29.887  29.959   3.914
10353W        W82679  35.157   0.486  11.105
10354W        W82680  31.291  37.971  13.976
10355W        W82681  18.046  18.705   0.957
10356W        W82682   3.641  30.069   1.339
10357W        W82683  15.775   8.072   4.299
10358W        W82684  42.495  22.636  10.366
10359W        W82685  16.204  22.607   2.347
10360W        W82686  27.506  11.252  10.790
10361W        W82687  25.306  30.568  14.232
10362W        W82688  32.002  20.531   1.144
10363W        W82689   2.524  21.993  10.116
10364W        W82690  40.995  19.262  13.896
10365W        W82691  12.962  32.989   0.502
10366W        W82692   5.835  43.834   0.387
10367W        W82693  40.809  41.269   4.722
10368W        W82694   0.993  24.106   0.410
10369W        W82695   7.783   4.465   2.702
10370W        W82696  42.904  39.633   2.401
10371W        W82697  14.156  18.958   4.099
10372W        W82698   7.182   9.729  11.477
10373W        W82699   1.230  26.528   4.113
10374W        W82700  31.625  19.573  12.434
10375W        W82701  21.227  17.124   0.739
10376W        W82702  27.122  27.063  13.914
10377W        W82703  39.278   0.505   1.625
10378W        W82704  17.732  12.675   0.099
10379W        W82705  26.512  42.236   1.340
10380W        W82706  28.267  43.925   0.312
10381W        W82707  43.296  10.652  14.404
10382W        W82708  40.110   5.269   0.937
10383W        W82709  37.701  24.682   2.352
10384W        W82710  24.484  33.497  12.703
10385W        W82711  30.650  26.076  14.021
10386W        W82712   4.335  38.823  12.497
10387W        W82713  13.796  41.939   1.944
10388W        W82714  19.797  41.834  12.455
10389W        W82715  17.790  15.603   2.075
10390W        W82716  36.152  18.631   2.462
10391W        W82717  41.907  38.157   4.525
10392W        W82718  12.115   1.852  12.848
10393W        W82719  22.574  24.707   2.823
10394W        W82720  11.303  14.932   0.354
10395W        W82721   5.994  25.581  11.678
10396W        W82722  43.430  41.771  11.693
10397W        W82723   6.034  11.891   4.497
10398W        W82724   9.588  44.999   2.909
10399W        W82725   1.748  27.391   0.397
10400W        W82726  43.524  41.312  13.435
10401W        W82727  22.487   8.350  11.693
10402W        W82728  12.678  15.132  14.393
10403W        W82729  33.242  43.959  14.736
10404W        W82730  24.061  41.492   1.273
10405W        W82731  37.902  30.461   4.959
10406W        W82732  25.868  42.895   2.589
10407W        W82733  44.514  22.793   4.105
10408W        W82734   7.834  29.170   1.378
10409W        W82735  42.222  28.054  13.605
10410W        W82736   6.420   4.782   3.710
10411W        W82737   1.921  32.672   4.180
10412W        W82738  23.979  26.477   0.062
10413W        W82739  41.076  40.080   3.920
10414W        W82740  16.418  32.911   0.506
10415W        W82741  24.913  43.801  12.646
10416W        W82742   0.699  36.014   3.751
10417W        W82743  32.546  27.138  14.421
10418W        W82744  29.610  28.228  14.476
10419W        W82745   3.457  33.905  12.957
10420W        W82746  11.015  21.345  11.704
10421W        W82747  29.857  16.602   4.900
10422W        W82748  40.378  16.760   4.775
10423W        W82749  34.392  42.287   2.714
10424W        W82750  26.087  36.340   3.832
10425W        W82751   3.366  22.536  11.529
10426W        W82752  31.550  22.974  13.606
10427W        W82753  22.492   4.420  13.008
10428W        W82754   7.181  30.398   4.508
10429W        W82755  10.106  13.649  13.765
10430W        W82756   2.925  13.938  13.559
10431W        W82757   7.707  35.331   1.831
10432W        W82758  22.216  43.627   4.140
10433W        W82759  18.594   1.994  10.713
10434W        W82760  32.587  19.524  10.790
10435W        W82761   7.369   0.786   0.465
10436W        W82762  33.893  38.753  14.291
10437W        W82763  35.656   1.742   1.438
10438W        W82764  26.411   8.122  14.993
10439W        W82765  24.752   8.728  12.484
10440W        W82766  35.945  16.554   2.404
10441W        W82767  16.177  12.713  14.355
10442W        W82768   2.838  33.190  13.065
10443W        W82769  39.827  35.262   1.373
10444W        W82770  25.856  30.450  11.182
10445W        W82771   3.255  27.939   0.988
10446W        W82772  44.723  40.387   2.336
10447W        W82773   4.192  18.472  11.047
10448W        W82774  23.182  14.231  12.614
10449W        W82775  11.808  18.029  12.475
10450W        W82776  26.864  10.065  13.082
10451W        W82777  43.017  41.396  10.488
10452W        W82778  17.283  13.542  14.780
10453W        W82779   8.326  14.848   1.720
10454W        W82780  42.593  14.371   3.100
10455W        W82781  32.377  31.837  13.870
10456W        W82782   9.841  10.923  10.990
10457W        W82783  32.696  26.031   1.189
10458W        W82784  41.802   7.139   1.324
10459W        W82785  32.091  38.494  11.611
10460W        W82786  23.435  23.204  11.514
10461W        W82787  16.247  39.489   1.397
10462W        W82788  41.442  23.772  14.929
10463W        W82789  14.091  13.939   4.184
10464W        W82790  18.635  22.342  10.692
10465W        W82791  29.386  23.736   4.176
10466W        W82792  26.487  35.497   2.783
10467W        W82793   0.353  31.066  12.516
10468W        W82794  16.566  38.083  11.661
10469W        W82795  42.931  27.574  13.652
10470W        W82796  10.385  21.670   3.745
10471W        W82797  39.826  29.710  11.736
10472W        W82798  23.131  40.899  12.470
10473W        W82799  12.313  36.403   1.664
10474W        W82800  13.835  44.132  10.739
10475W        W82801  36.341  25.100  12.379
10476W        W82802  16.843   9.427   3.020
10477W        W82803   2.447  21.133   9.887
10478W        W82804  16.032  31.107  13.553
10479W        W82805  38.807   5.361  10.712
10480W        W82806  37.912  37.300  13.118
10481W        W82807  42.403  33.231  12.436
10482W        W82808  39.556  17.666  14.555
10483W        W82809   9.356  32.094  13.867
10484W        W82810  22.021  32.874  13.042
10485W        W82811  19.362  18.140  12.948
10486W        W82812  33.863  40.863   0.347
10487W        W82813  39.409  37.120  11.368
10488W        W82814   4.385  36.222   4.663
10489W        W82815  26.543  18.290   1.183
10490W        W82816  12.313  34.863  14.099
10491W        W82817  41.365  26.865   3.655
10492W        W82818   7.733   8.771  14.415
10493W        W82819  36.336   3.562  14.277
10494W        W82820   5.363   2.760   2.380
10495W        W82821  39.189  12.427   0.388
10496W        W82822  39.952  42.433  13.888
10497W        W82823  38.533  44.057  10.085
10498W        W82824  35.471  38.843  14.453
10499W        W82825  29.794  39.499  12.187
10500W        W82826  36.047  32.538  14.334
10501W        W82827   7.296  42.706   4.882
10502W        W82828  27.884  22.817   2.842
10503W        W82829   3.724  33.555   2.651
10504W        W82830  17.010   4.968   0.462
10505W        W82831  21.953  32.695   4.126
10506W        W82832  31.555  44.372  10.555
10507W        W82833  36.091  40.507  13.030
10508W        W82834  32.595  28.467   2.657
10509W        W82835   0.246  18.145   2.376
10510W        W82836  41.021  10.781  12.563
10511W        W82837  10.059  15.134  13.373
10512W        W82838  17.169  17.211   3.494
10513W        W82839  15.679  32.502  13.523
10514W        W82840  29.357  27.716   3.637
10515W        W82841   8.655  16.393   3.648
10516W        W82842  13.179  18.793   1.723
10517W        W82843  29.956  22.825  13.710
10518W        W82844  31.126   9.439   1.003
10519W        W82845  20.586  13.730   3.901
10520W        W82846   5.863  38.595  14.270
10521W        W82847  31.601  15.254  14.074
10522W        W82848  14.808  29.570  12.422
10523W        W82849  33.546   9.936  11.251
10524W        W82850  36.921  19.282  14.359
10525W        W82851  30.238   8.626   2.369
10526W        W82852  18.049  13.690  14.414
10527W        W82853  29.621   7.178   4.963
10528W        W82854  42.959  38.634   2.251
10529W        W82855  22.611  36.818   2.727
10530W        W82856   6.836   8.169   4.389
10531W        W82857  10.867  40.827  14.060
10532W        W82858  29.902  38.581  12.927
10533W        W82859  37.008  25.964   0.386
10534W        W82860  29.058  32.972   3.806
10535W        W82861  44.402  36.612   1.311
10536W        W82862  34.456   1.006   4.502
10537W        W82863  27.024  16.098  10.408
10538W        W82864  18.367  35.593   2.840
10539W        W82865  17.513  40.637   0.265
10540W        W82866  12.766  30.638   1.818
10541W        W82867   2.399  38.517  10.665
10542W        W82868  27.940   4.381   3.726
10543W        W82869  35.647   6.326  14.873
10544W        W82870  41.861  41.612   4.382
10545W        W82871   6.740  30.565  12.094
10546W        W82872  24.961   2.456  11.205
10547W        W82873  41.547  41.156  11.865
10548W        W82874  15.227  41.120   1.885
10549W        W82875  28.568  24.058   2.167
10550W        W82876  41.982  13.417  10.670
10551W        W82877  18.626  33.442   4.109
10552W        W82878  10.804  37.602   1.321
10553W        W82879  44.829  35.992   0.238
10554W        W82880  33.935  24.095  12.714
10555W        W82881  36.349  42.504  13.002
10556W        W82882  21.154  27.640  14.302
10557W        W82883  33.140  38.135   0.852
10558W        W82884  13.577  32.033  13.325
10559W        W82885   3.522  37.371  11.175
10560W        W82886  31.666  33.917  12.907
10561W        W82887  39.817  33.158  13.296
10562W        W82888  37.469  21.205  12.111
10563W        W82889  15.775  39.698   2.729
10564W        W82890  38.422  30.927  12.836
10565W        W82891  10.101   6.970   3.218
10566W        W82892  22.491   9.251  11.190
10567W        W82893  20.988  35.538   2.686
10568W        W82894   1.913   3.979  13.706
10569W        W82895  24.177  18.105  13.916
10570W        W82896  15.344  34.663   0.395
10571W        W82897  15.155   9.384   0.776
10572W        W82898   0.719  22.024  10.124
10573W        W82899  36.931  15.034   3.721
10574W        W82900   7.368  20.692  10.534
10575W        W82901  23.210  36.824   3.738
10576W        W82902  30.983  23.037  13.849
10577W        W82903   6.259  29.077  12.625
10578W        W82904  37.109  26.185  14.143
10579W        W82905   8.447  23.584   3.371
10580W        W82906   4.470  17.518  11.975
10581W        W82907  18.196  15.672  14.601
10582W        W82908  15.836  43.933  11.027
10583W        W82909  41.442  13.061  13.408
10584W        W82910  43.384  41.073  13.868
10585W        W82911  19.722   4.683   2.770
10586W        W82912  18.573  40.349   2.197
10587W        W82913  25.587  10.137  10.875
10588W        W82914  18.408   4.927  12.552
10589W        W82915  37.360  27.438   1.543
10590W        W82916   9.417  37.315   0.390
10591W        W82917  27.342  38.993   0.411
10592W        W82918  40.366   6.388  12.784
10593W        W82919  23.724  25.179  13.475
10594W        W82920  33.714  17.477   5.096
10595W        W82921  14.093   6.858   1.200
10596W        W82922  27.431  26.061   5.021
10597W        W82923  20.044   7.857   4.252
10598W        W82924  18.790  43.974  13.957
10599W        W82925  39.303  26.533   4.706
10600W        W82926  14.671  28.468   2.309
10601W        W82927  21.489   7.129   0.368
10602W        W82928  31.038  35.396   0.482
10603W        W82929  23.331  24.476  13.021
10604W        W82930  34.420  35.046  12.841
10605W        W82931  39.338  24.219  13.102
10606W        W82932  35.605  20.822  10.753
10607W        W82933  36.856   8.293  11.177
10608W        W82934  35.887  17.702   0.457
10609W        W82935  42.103  12.170  10.520
10610W        W82936  39.295  19.457  13.456
10611W        W82937  40.624   9.434  10.835
10612W        W82938  25.480   2.650   1.870
10613W        W82939  41.872   1.818  13.617
10614W        W82940  38.468   5.913  12.005
10615W        W82941  36.426   0.393   0.679
10616W        W82942  25.511  38.752  12.417
10617W        W82943   2.577  15.741  14.497
10618W        W82944  30.052   5.162  14.601
10619W        W82945  10.613  13.364  12.146
10620W        W82946   8.887   4.009  10.882
10621W        W82947  24.565  39.425  14.232
10622W        W82948  27.752  13.423   0.040
10623W        W82949  33.397  30.353  13.588
10624W        W82950  20.555  14.596  11.859
10625W        W82951  21.754  40.530   1.312
10626W        W82952  28.924   9.432   0.296
10627W        W82953  12.539  10.204   4.652
10628W        W82954  26.412  12.709  10.603
10629W        W82955  36.285  12.137  12.628
10630W        W82956  37.029  22.828   1.415
10631W        W82957  10.252  13.224   1.728
10632W        W82958  22.075  30.197  13.385
10633W        W82959  44.814   6.366   1.748
10634W        W82960   5.264  34.506   2.345
10635W        W82961   5.414  15.741  12.204
10636W        W82962  23.947   3.382  10.724
10637W        W82963  34.496   5.155   2.352
10638W        W82964   1.924   1.248   3.652
10639W        W82965  30.117  24.490   3.574
10640W        W82966  42.761  38.857  11.652
10641W        W82967  33.045  39.696  13.926
10642W        W82968  16.073  40.889  11.126
10643W        W82969  40.108   5.378   2.282
10644W        W82970  20.923   8.725   0.457
10645W        W82971  42.042  11.747  12.731
10646W        W82972  32.802   0.319   3.123
10647W        W82973   7.173  25.706   4.505
10648W        W82974  28.076  27.665   2.400
10649W        W82975  30.396  38.833   3.863
10650W        W82976  18.669  22.251   1.408
10651W        W82977  42.012  40.536  13.116
10652W        W82978  42.561  34.462   2.443
10653W        W82979  21.763  43.563   0.906
10654W        W82980  24.001   9.835  14.296
10655W        W82981  32.135  36.976  12.166
10656W        W82982  28.404  33.479   0.328
10657W        W82983  34.879  10.154  14.103
10658W        W82984   8.124   9.754  14.795
10659W        W82985  10.520  36.479   4.660
10660W        W82986  18.928   3.500   4.180
10661W        W82987  21.107  40.710   0.854
10662W        W82988   1.853  15.879   1.896
10663W        W82989  11.770   7.257   4.749
10664W        W82990  27.689  39.177   1.356
10665W        W82991  21.937  22.200   3.389
10666W        W82992  28.531   5.281   4.594
10667W        W82993   6.290  41.106   2.890
10668W        W82994  44.301  16.642   1.707
10669W        W82995  30.554  33.589  14.019
10670W        W82996  24.732  12.628  13.159
10671W        W82997  25.515   5.874   4.645
10672W        W82998  44.260  26.152  12.044
10673W        W82999  16.365   0.404   1.138
10674W        W83000  15.388  30.477  13.405
10675W        W83001   9.743  12.867  13.961
10676W        W83002  30.329   5.997  12.758
10677W        W83003  35.012   4.977   2.511
10678W        W83004  39.861  24.160  13.908
10679W        W83005  30.603  42.308  13.486
10680W        W83006  19.269  22.291  11.340
10681W        W83007  39.578  34.877   1.024
10682W        W83008  20.285  24.443  14.589
10683W        W83009  34.111   9.084  11.479
10684W        W83010  38.538  25.272  12.068
10685W        W83011  18.753  33.954  13.329
10686W        W83012  44.052   3.380   3.183
10687W        W83013  18.067  28.094  12.902
10688W        W83014   0.661  10.059   5.457
10689W        W83015  37.033   0.660   4.041
10690W        W83016  34.454  13.322  10.616
10691W        W83017  36.439  18.773  11.959
10692W        W83018  32.637   1.346  14.627
10693W        W83019  38.611  23.213   1.392
10694W        W83020  20.352  42.511   0.744
10695W        W83021  34.322  10.328  10.717
10696W        W83022  19.580  36.497  13.152
10697W        W83023  20.098   3.465  12.685
10698W        W83024  40.369  30.106  14.007
10699W        W83025  23.646   1.904   0.799
10700W        W83026  35.065   1.010  14.800
10701W        W83027   3.383  10.448   0.987
10702W        W83028  19.677   3.198  13.857
10703W        W83029  12.092  34.212  12.344
10704W        W83030  27.665   8.170   0.959
10705W        W83031  37.106  16.084  10.621
10706W        W83032   9.867   4.864  10.531
10707W        W83033   6.772  22.657  12.932
10708W        W83034  18.759   2.936  11.478
10709W        W83035   6.340  15.870   0.175
10710W        W83036  26.519  35.919  13.584
10711W        W83037  42.036   1.046   0.901
10712W        W83038   8.299   5.535  13.132
10713W        W83039  39.482  21.515  14.552
10714W        W83040  36.415  21.178  11.648
10715W        W83041   2.429  25.534  10.616
10716W        W83042  25.997  29.862  10.528
10717W        W83043  31.052  11.699   2.351
10718W        W83044  22.108  26.358  11.929
10719W        W83045  18.301  34.277  12.415
10720W        W83046  27.571  27.393   5.012
10721W        W83047  24.627  29.645   0.997
10722W        W83048  18.110   7.789   4.627
10723W        W83049  11.582  42.934  13.994
10724W        W83050  38.468  27.088  11.954
10725W        W83051  16.396  40.874  10.719
10726W        W83052  13.448  25.945   2.890
10727W        W83053  36.878   3.014   0.004
10728W        W83054  32.082  26.949  10.432
10729W        W83055  35.427  42.522  13.438
10730W        W83056   5.178  21.073  12.905
10731W        W83057  14.877  44.338  10.209
10732W        W83058   7.151  31.895   2.271
10733W        W83059  34.395  17.602  13.447
10734W        W83060   7.279  23.488  13.779
10735W        W83061  19.601  24.555  11.584
10736W        W83062  17.821  43.467   1.882
10737W        W83063  22.509  40.502  13.580
10738W        W83064  39.576   4.322   4.185
10739W        W83065  23.078  35.763   0.202
10740W        W83066   0.062  16.862  12.110
10741W        W83067   9.753  14.064   3.124
10742W        W83068  13.327  23.552  14.012
10743W        W83069  10.313  19.636  11.436
10744W        W83070   7.011  22.026   4.414
10745W        W83071  14.744   7.482   0.085
10746W        W83072   3.209  14.103  14.917
10747W        W83073  13.367  13.072   4.337
10748W        W83074  18.691  19.663  12.601
10749W        W83075  29.095  33.841  11.588
10750W        W83076  35.567  11.136   3.642
10751W        W83077   2.811   9.204  11.870
10752W        W83078  12.869  22.160   0.286
10753W        W83079  10.919  11.847  12.538
10754W        W83080  14.219  30.111  12.902
10755W        W83081  32.725  34.441  12.387
10756W        W83082  23.076  25.677  14.804
10757W        W83083   6.855  11.351  14.805
10758W        W83084  19.089  28.149  12.149
10759W        W83085   7.973  13.782  12.462
10760W        W83086  27.601  15.373  13.344
10761W        W83087  44.201   9.577   1.742
10762W        W83088  42.966  38.176  10.836
10763W        W83089   4.133  42.665  13.855
10764W        W83090  36.623  13.224   2.759
10765W        W83091  24.975  32.976  11.606
10766W        W83092  29.094   6.903   2.802
10767W        W83093  25.994   8.752   3.108
10768W        W83094   0.958   3.626   4.988
10769W        W83095  22.462  12.185   1.835
10770W        W83096  33.831  31.087   1.260
10771W        W83097   4.730  16.686   4.534
10772W        W83098  38.302  41.993  14.252
10773W        W83099  34.806  21.642   0.324
10774W        W83100  32.553  18.478   2.341
10775W        W83101  12.400  42.933  10.711
10776W        W83102   1.951  42.188  14.805
10777W        W83103  41.483  43.314   2.192
10778W        W83104   2.930  43.926  13.477
10779W        W83105   4.909   8.883  12.004
10780W        W83106  26.244  36.630  14.189
10781W        W83107  30.871  33.987  13.940
10782W        W83108  22.796  10.663  12.018
10783W        W83109  27.041   3.129  11.111
10784W        W83110   3.828   9.482   4.624
10785W        W83111  19.523  20.470  11.244
10786W        W83112  40.726   0.702  10.287
10787W        W83113  29.691  40.643   1.437
10788W        W83114   6.915  21.362  11.519
10789W        W83115  34.159   3.776   0.199
10790W        W83116  12.720   6.026   2.350
10791W        W83117  12.274  42.432   0.215
10792W        W83118   2.555  33.354  10.146
10793W        W83119  40.041  37.504   1.973
10794W        W83120  32.371  23.255  12.357
10795W        W83121  44.766  42.382   0.360
10796W        W83122  29.968  30.480   3.183
10797W        W83123  42.639  36.701  12.630
10798W        W83124  11.873  44.248   0.404
10799W        W83125  15.659   7.672  10.733
10800W        W83126  26.015  13.858   3.640
10801W        W83127  40.058   2.364   3.255
10802W        W83128   3.082  15.811   3.306
10803W        W83129  10.321   8.337   1.430
10804W        W83130  41.115  19.307  10.714
10805W        W83131  28.641   7.838  14.916
10806W        W83132  41.944  26.744   5.091
10807W        W83133   3.929   1.104  13.980
10808W        W83134   3.378  14.144  11.169
10809W        W83135   5.429  35.230   1.524
10810W        W83136  14.187  28.479  11.988
10811W        W83137  11.936   3.999   4.138
10812W        W83138  26.956  33.985   2.877
10813W        W83139  19.575  25.466   1.806
10814W        W83140  17.095  44.453   1.906
10815W        W83141   5.122  30.930   1.721
10816W        W83142  34.945   0.889   4.680
10817W        W83143  28.024  23.594   3.258
10818W        W83144  27.367  19.303  12.521
10819W        W83145  21.344  27.627   9.953
10820W        W83146  42.787  40.599   4.532
10821W        W83147  28.138   9.689  13.919
10822W        W83148   8.290  44.372  12.171
10823W        W83149  23.225  16.838   0.520
10824W        W83150  12.393  25.375  11.440
10825W        W83151  34.086  31.574  12.885
10826W        W83152  23.608  26.208  13.421
10827W        W83153  14.178   1.659   4.503
10828W        W83154  32.091  22.130  12.948
10829W        W83155  12.870  32.219  10.112
10830W        W83156  28.172  34.675  12.936
10831W        W83157  14.162  14.263   1.860
10832W        W83158  11.146   4.018   4.744
10833W        W83159   1.666  18.261   0.420
10834W        W83160  36.725  43.557   3.118
10835W        W83161  41.355  37.952   2.655
10836W        W83162  15.553  19.539  10.102
10837W        W83163   8.246  43.280  12.970
10838W        W83164   2.783  33.879  12.435
10839W        W83165  34.615  24.310  14.322
10840W        W83166  11.731  44.813  12.388
10841W        W83167  38.051   3.649   4.467
10842W        W83168  22.526  19.156  14.435
10843W        W83169   9.191  13.596  11.936
10844W        W83170   6.311  25.213  12.383
10845W        W83171  13.543  17.870  12.730
10846W        W83172   6.887  25.258   1.677
10847W        W83173  21.262  35.633   4.617
10848W        W83174  37.292   0.978  13.318
10849W        W83175  30.628   4.619  13.889
10850W        W83176   2.697   5.077   0.844
10851W        W83177  20.040   7.289   0.836
10852W        W83178   2.232  36.282   2.358
10853W        W83179  10.914  24.051   1.334
10854W        W83180  20.639  15.252  14.966
10855W        W83181  21.794   3.050   4.223
10856W        W83182  20.097  21.777   3.846
10857W        W83183  40.286   0.897   0.522
10858W        W83184  14.669  34.572  13.879
10859W        W83185  25.571  25.470   0.985
10860W        W83186  11.826  19.050   1.841
10861W        W83187  23.142   1.651   3.406
10862W        W83188  21.686  36.497   2.442
10863W        W83189   4.002   6.286  14.374
10864W        W83190  39.375  17.090  10.911
10865W        W83191   6.422   7.462  10.498
10866W        W83192  32.520  27.237  12.271
10867W        W83193  18.304  17.468   0.447
10868W        W83194  32.615  37.854   2.303
10869W        W83195  34.345  10.296  11.543
10870W        W83196  30.976  16.608  11.299
10871W        W83197  11.275  17.017   4.720
10872W        W83198  30.442  14.313   1.909
10873W        W83199   5.404  44.755  10.919
10874W        W83200  18.128  40.519  12.381
10875W        W83201  37.013  41.859   3.363
10876W        W83202  19.260  40.980  13.759
10877W        W83203  36.939  16.841  14.110
10878W        W83204   6.700  41.800   1.332
10879W        W83205  24.012  40.279  11.926
10880W        W83206  27.207  42.799  12.604
10881W        W83207  41.779  39.922   3.242
10882W        W83208   3.747   2.018  10.351
10883W        W83209   7.322   7.853   3.118
10884W        W83210  24.966  10.688  13.478
10885W        W83211  36.234  18.941  11.523
10886W        W83212   4.148  44.476  13.347
10887W        W83213  40.973  37.009  11.623
10888W        W83214  39.580  15.704   4.825
10889W        W83215  29.681  21.098   0.968
10890W        W83216  25.788  17.643   9.788
10891W        W83217  29.063  14.229   2.602
10892W        W83218  40.824  40.393   0.388
10893W        W83219   0.876  20.058   4.867
10894W        W83220  36.478  19.181   1.235
10895W        W83221  30.564  38.984   1.881
10896W        W83222  44.984   8.185   0.685
10897W        W83223  18.156  21.504  14.794
10898W        W83224  21.495  27.646  13.879
10899W        W83225  42.453  22.726  10.880
10900W        W83226  41.929  25.615   2.227
10901W        W83227   4.920  13.925  12.487
10902W        W83228  17.845  39.485  12.401
10903W        W83229  22.495   3.662  13.388
10904W        W83230  43.901  21.620  13.590
10905W        W83231  36.834  37.088   2.841
10906W        W83232  36.385  41.951   3.605
10907W        W83233   6.970  42.792   3.195
10908W        W83234  24.538  17.897   5.454
10909W        W83235   2.929   7.951  11.710
10910W        W83236  14.323  39.727   3.689
10911W        W83237   3.944  16.824  11.750
10912W        W83238   7.192  22.451  13.926
10913W        W83239  30.131  20.153  11.961
10914W        W83240  35.605  35.401   0.269
10915W        W83241  44.731   3.692  14.181
10916W        W83242   6.721   7.738   4.115
10917W        W83243  37.013  41.789   1.918
10918W        W83244  18.709   2.325  14.142
10919W        W83245  30.477  18.543  13.035
10920W        W83246  35.535   7.935   2.630
10921W        W83247  24.208  11.568   4.003
10922W        W83248   1.299  36.264  14.533
10923W        W83249   4.460  17.464   2.251
10924W        W83250  12.415  33.340  10.559
10925W        W83251   7.847   7.098   3.197
10926W        W83252  16.187  11.375  10.729
10927W        W83253  35.036  33.937   2.409
10928W        W83254  26.256  40.296  14.077
10929W        W83255  15.721  34.425   1.838
10930W        W83256   1.685  24.007  12.718
10931W        W83257  44.933  23.468   1.169
10932W        W83258  19.329  23.503   0.165
10933W        W83259   2.039  29.209  10.719
10934W        W83260  43.039  44.262   3.637
10935W        W83261   7.905   4.988  12.293
10936W        W83262   2.708   3.844   3.110
10937W        W83263  13.252  29.423   4.641
10938W        W83264  18.134   7.656   1.060
10939W        W83265  18.755  10.989  13.965
10940W        W83266   2.816  30.782  12.277
10941W        W83267  13.075  11.337   3.167
10942W        W83268  15.279  26.998  14.406
10943W        W83269  13.172  25.703  14.467
10944W        W83270  13.261  43.805   2.638
10945W        W83271  39.811   1.917  14.015
10946W        W83272  29.717   0.358   3.116
10947W        W83273   7.673  32.222  11.115
10948W        W83274  20.552  16.160  12.790
10949W        W83275  39.126  16.654   1.236
10950W        W83276  23.587  23.648  13.035
10951W        W83277  37.842  42.961  14.408
10952W        W83278  28.216  12.617   9.911
10953W        W83279   3.994  41.229   3.416
10954W        W83280  21.636  41.591  13.581
10955W        W83281  27.096  31.630   3.995
10956W        W83282   5.872  33.367  12.387
10957W        W83283  29.682   9.245  14.476
10958W        W83284  11.768   6.834  11.644
10959W        W83285  14.144  14.140  11.952
10960W        W83286  16.768  26.020   3.951
10961W        W83287   0.700  41.269  11.149
10962W        W83288   2.672  34.735  13.396
10963W        W83289  31.195  34.204   4.866
10964W        W83290   2.264  33.941  13.428
10965W        W83291  31.163  42.784  13.077
10966W        W83292  41.359  11.736   3.644
10967W        W83293   6.648  43.693   1.821
10968W        W83294  44.503   1.993  13.734
10969W        W83295  27.512  28.464   5.031
10970W        W83296   0.473  31.309  14.613
10971W        W83297   4.443  24.555   4.267
10972W        W83298  44.576   7.464   4.140
10973W        W83299   1.981  18.236   2.883
10974W        W83300  17.316  29.891   3.091
10975W        W83301   1.965  12.619  10.459
10976W        W83302  10.874   8.264  11.638
10977W        W83303  40.388  40.809  12.416
10978W        W83304  33.262  34.490   1.648
10979W        W83305  28.680  43.734   0.032
10980W        W83306  15.366  20.531   2.322
10981W        W83307  14.795  17.666  11.717
10982W        W83308  41.380   6.721  13.331
10983W        W83309  27.704  32.076   0.024
10984W        W83310  24.073  11.499  11.677
10985W        W83311   6.183  42.962   2.340
10986W        W83312  41.731  24.129  12.007
10987W        W83313   0.315  27.505   4.267
10988W        W83314  37.494  10.131   3.808
10989W        W83315  18.435  20.269  12.019
10990W        W83316  12.864   1.906  11.227
10991W        W83317  24.181  18.163   9.950
10992W        W83318  27.690  27.466  13.785
10993W        W83319  42.968  10.390   1.839
10994W        W83320  20.646  31.860   2.118
10995W        W83321  43.719  42.385   0.282
10996W        W83322  19.094  18.949  14.007
10997W        W83323   1.686  42.725   1.527
10998W        W83324   0.425  31.870   0.260
10999W        W83325  38.770  23.639   5.259
11000W        W83326  34.369  34.479   1.137
11001W        W83327  37.989   1.398   4.601
11002W        W83328  22.580  35.039  12.598
11003W        W83329  27.176  26.946  13.379
11004W        W83330  44.800  14.775  13.988
11005W        W83331  34.019  15.292   2.212
11006W        W83332   6.015  33.630  14.948
11007W        W83333  14.082   6.716  11.583
11008W        W83334  44.919  42.935   0.496
11009W        W83335   5.074  13.445  12.487
11010W        W83336  35.002  39.337  14.140
11011W        W83337  38.879  40.938  14.326
11012W        W83338  14.114  30.843   2.723
11013W        W83339   0.176  11.784  13.050
11014W        W83340   6.131  20.298  14.424
11015W        W83341  32.442  21.220   1.153
11016W        W83342  29.962  18.598   0.311
11017W        W83343  18.746  11.417   1.783
11018W        W83344  27.515  13.024   3.758
11019W        W83345  27.738  25.997  10.900
11020W        W83346  37.878  38.819  10.510
11021W        W83347   3.018  43.871  12.133
11022W        W83348  40.324  42.208   0.945
11023W        W83349   4.690   6.517   3.666
11024W        W83350  16.854  44.373  13.466
11025W        W83351   6.982  12.376   0.812
11026W        W83352  12.853  44.006   1.907
11027W        W83353  13.397   6.875  11.995
11028W        W83354   5.723   3.934   1.937
11029W        W83355  36.504  25.696  12.003
11030W        W83356   6.227  14.638   3.555
11031W        W83357  12.599   3.433   3.504
11032W        W83358   9.632  14.245   1.418
11033W        W83359  31.549  17.787  13.606
11034W        W83360  41.467  16.305  13.860
11035W        W83361  19.707   1.351   0.334
11036W        W83362  13.150   0.475  14.537
11037W        W83363  34.548  19.059   4.152
11038W        W83364  21.153  34.588   4.557
11039W        W83365  14.093  35.489  12.449
11040W        W83366  21.696  20.303  14.521
11041W        W83367  35.450   6.324   4.493
11042W        W83368   2.971   6.933  12.447
11043W        W83369  11.553  41.103  12.593
11044W        W83370  16.213  30.140   4.631
11045W        W83371  13.822  35.544   4.551
11046W        W83372   0.489   8.122   2.280
11047W        W83373  29.169  22.562   0.370
11048W        W83374  29.423  31.149   2.860
11049W        W83375  12.171  36.678   0.391
11050W        W83376  34.263  29.843  14.407
11051W        W83377  13.924  22.955  10.493
11052W        W83378  15.372  36.701   1.027
11053W        W83379  35.087  15.449   2.886
11054W        W83380   9.867  34.395   1.856
11055W        W83381  26.040  11.345   0.902
11056W        W83382  24.200  29.918   2.738
11057W        W83383  16.210  42.054   4.592
11058W        W83384  32.496  21.632   0.358
11059W        W83385   3.872  31.955   0.194
11060W        W83386   8.636   2.461   3.146
11061W        W83387  22.764  27.098   2.381
11062W        W83388  16.343  30.430  11.999
11063W        W83389  12.066  23.428   1.767
11064W        W83390  39.302  17.157   3.094
11065W        W83391  30.948   6.525   4.169
11066W        W83392  18.447  12.119   4.173
11067W        W83393  23.270  36.906  14.411
11068W        W83394  14.201  37.878   3.137
11069W        W83395  18.730  20.602  14.226
11070W        W83396  22.226  14.854   0.293
11071W        W83397  31.365  26.191   3.296
11072W        W83398  19.054  25.863   3.456
11073W        W83399  41.864  39.329  11.701
11074W        W83400   1.032   0.025  12.035
11075W        W83401  38.911   4.665   2.129
11076W        W83402  14.811  28.795   3.694
11077W        W83403  19.284  36.624   1.010
11078W        W83404  36.063  40.422   1.724
11079W        W83405  18.865  33.568  13.831
11080W        W83406   7.199  41.200   1.446
11081W        W83407  27.155  19.784  12.453
11082W        W83408  42.851  12.833  13.537
11083W        W83409  32.025   6.403   0.008
11084W        W83410   3.997  11.237   2.328
11085W        W83411  21.236  27.149   2.288
11086W        W83412  39.918  30.109   0.181
11087W        W83413   6.386  40.270   9.987
11088W        W83414  30.163  27.697   4.078
11089W        W83415  42.320  14.257  10.848
11090W        W83416  23.227  13.209  11.753
11091W        W83417  23.922   1.486  14.987
11092W        W83418  12.397  12.841   2.449
11093W        W83419  42.424  21.747  13.567
11094W        W83420  33.914  26.314  12.397
11095W        W83421  19.548  29.663  12.407
11096W        W83422  41.504  18.514  14.837
11097W        W83423   2.204  31.921   0.337
11098W        W83424  19.475  36.033  11.461
11099W        W83425  33.034   4.838  13.579
11100W        W83426  31.977  15.816   0.754
11101W        W83427  39.505  14.460   5.232
11102W        W83428   8.916  44.892   2.074
11103W        W83429  31.865  25.245  14.542
11104W        W83430   1.507   2.825   4.656
11105W        W83431  36.178   1.164   1.694
11106W        W83432  16.414  10.234  10.985
11107W        W83433   3.340   3.606  11.240
11108W        W83434  36.188   3.728  11.975
11109W        W83435  32.572   6.449   0.223
11110W        W83436  41.555   7.801  13.216
11111W        W83437  34.854  38.008   0.873
11112W        W83438  34.342   3.366   0.704
11113W        W83439  26.349  28.191   1.372
11114W        W83440  33.430  44.794   3.834
11115W        W83441  12.076   7.900  14.978
11116W        W83442  43.934  27.141   1.798
11117W        W83443   1.930  25.074   0.120
11118W        W83444  37.146  21.073   1.695
11119W        W83445  34.803  29.153   2.371
11120W        W83446  43.028  40.000  11.373
11121W        W83447  28.790  11.588   1.790
11122W        W83448  28.406   8.339   0.610
11123W        W83449  18.635  19.463   3.088
11124W        W83450   8.327  32.497   0.365
11125W        W83451  27.156  16.352   2.885
11126W        W83452  16.668  12.464   4.237
11127W        W83453  31.636  28.161  12.072
11128W        W83454  14.555  26.338  14.441
11129W        W83455  14.357  29.574   3.173
11130W        W83456   7.293  21.165  10.753
11131W        W83457  32.493   4.772  12.878
11132W        W83458  30.912  28.488  12.513
11133W        W83459  23.022  29.957  10.952
11134W        W83460  34.854  16.484  13.694
11135W        W83461  29.462  26.309  12.670
11136W        W83462  26.319  15.372   3.020
11137W        W83463  34.227  37.285   1.915
11138W        W83464  22.702  40.286  10.234
11139W        W83465  22.183  29.991   2.570
11140W        W83466  25.176  11.827   4.660
11141W        W83467  41.186  36.475   5.060
11142W        W83468  33.661   3.620  11.134
11143W        W83469   3.981  37.001   2.215
11144W        W83470   4.185  34.850   0.030
11145W        W83471  16.781  12.699   3.793
11146W        W83472   7.560  42.330  11.553
11147W        W83473  32.101  19.674   0.028
11148W        W83474   0.988  32.169   3.665
11149W        W83475  38.956  14.365  10.701
11150W        W83476  30.172  17.082  10.697
11151W        W83477  36.617  32.928   0.743
11152W        W83478  15.229  22.688   2.688
11153W        W83479  28.725  20.217  11.046
11154W        W83480  40.063  34.747   2.680
11155W        W83481  21.960  16.304   1.560
11156W        W83482  21.275  40.973   1.823
11157W        W83483   2.929  35.447  11.479
11158W        W83484  40.109  20.538  14.028
11159W        W83485  23.297   4.972   2.324
11160W        W83486   7.285   8.647   5.060
11161W        W83487   8.166  44.317   0.295
11162W        W83488  21.174  18.188   0.479
11163W        W83489   8.952  40.337   1.768
11164W        W83490  31.650  38.076  12.388
11165W        W83491  21.751   4.361   4.341
11166W        W83492  33.952   3.023   0.857
11167W        W83493  32.017  21.564   2.928
11168W        W83494  32.972  29.362   0.077
11169W        W83495   2.813  19.578   2.348
11170W        W83496  15.663   9.625  11.634
11171W        W83497  27.044  44.124   1.212
11172W        W83498  17.082  17.650  10.501
11173W        W83499  41.235   2.028   3.756
11174W        W83500  24.248  20.068   2.406
11175W        W83501  14.915  23.779  12.862
11176W        W83502  36.480  24.881   1.850
11177W        W83503  37.149   6.414  11.543
11178W        W83504  37.502   1.759   1.182
11179W        W83505  18.111  37.174  10.664
11180W        W83506  29.512  21.653  10.585
11181W        W83507  18.727  26.032  12.836
11182W        W83508  31.557  20.778   4.618
11183W        W83509  15.612   2.357   0.438
11184W        W83510  38.567   4.297   1.190
11185W        W83511  26.363  31.884   3.272
11186W        W83512  27.493  39.140   3.095
11187W        W83513  29.070  20.206   4.693
11188W        W83514  14.674  16.115   2.312
11189W        W83515  41.016  36.052  11.658
11190W        W83516  18.557   9.876   3.351
11191W        W83517  10.782  31.615  11.239
11192W        W83518  23.604   3.314   3.599
11193W        W83519  42.261  33.663   2.311
11194W        W83520  32.590  13.640   3.804
11195W        W83521  26.500  17.972   0.354
11196W        W83522  34.756   6.764  10.738
11197W        W83523  20.571   7.438   1.859
11198W        W83524   3.223  26.438  12.399
11199W        W83525  13.276  14.906   3.786
11200W        W83526   5.650  40.344   1.800
11201W        W83527  30.891  22.526  11.138
11202W        W83528  32.080  44.843  13.957
11203W        W83529  12.230  10.195   0.438
11204W        W83530   2.858  15.780   1.631
11205W        W83531   7.499  12.724  13.572
11206W        W83532  44.803  10.155  14.491
11207W        W83533   7.425  25.954   3.251
11208W        W83534   8.364  23.821  10.722
11209W        W83535   3.429  44.757  12.022
11210W        W83536  14.713  24.276  12.008
11211W        W83537  17.981   9.530  11.913
11212W        W83538  31.945  40.933   3.152
11213W        W83539  13.088  20.523  11.562
11214W        W83540   1.660   0.799  14.044
11215W        W83541  31.612   7.432  13.416
11216W        W83542  40.457  21.113  12.665
11217W        W83543  31.611  27.522   2.786
11218W        W83544  29.598  35.752  11.660
11219W        W83545  20.530  17.101   1.209
11220W        W83546  42.432  19.857   4.904
11221W        W83547  20.385  12.123  11.591
11222W        W83548  21.997  23.914   4.464
11223W        W83549  16.376  38.360   2.263
11224W        W83550  32.503  42.950  11.126
11225W        W83551  21.333  42.261   4.731
11226W        W83552  29.126  30.701   2.833
11227W        W83553  17.250   7.776   2.332
11228W        W83554  13.224  44.709   3.296
11229W        W83555  39.520  12.177  12.069
11230W        W83556  36.466  22.998   2.495
11231W        W83557   0.021  42.839   2.353
11232W        W83558  27.910  12.775   4.083
11233W        W83559  29.442  29.861   4.691
11234W        W83560  25.597   1.285  13.543
11235W        W83561   2.979  44.510   0.131
11236W        W83562  25.351  18.333   1.443
11237W        W83563   9.637  43.360  13.429
11238W        W83564   8.354  31.518  12.927
11239W        W83565  24.615  34.435  12.036
11240W        W83566  28.021  28.194  12.564
11241W        W83567  12.327  14.096   2.799
11242W        W83568  28.211  13.195   3.260
11243W        W83569  14.402  36.467   2.703
11244W        W83570  41.438   9.306  10.705
11245W        W83571  27.557  27.959  12.416
11246W        W83572  21.559   2.854   0.543
11247W        W83573  17.275  40.848  10.477
11248W        W83574  35.526  34.433  12.126
11249W        W83575  43.041  25.070  13.992
11250W        W83576  38.850   2.271   3.573
11251W        W83577  36.342   3.646   3.609
11252W        W83578   2.400  29.796  13.121
11253W        W83579   1.156   9.743   0.815
11254W        W83580  41.055  41.071  11.653
11255W        W83581  36.454   2.506  11.510
11256W        W83582  24.200  33.515  14.814
11257W        W83583  33.205  30.628   3.772
11258W        W83584  30.676  18.096  11.014
11259W        W83585  17.119  30.614  12.138
11260W        W83586  21.472  22.130   3.159
11261W        W83587  24.411  34.804   1.292
11262W        W83588  33.565  37.002   1.490
11263W        W83589  38.354  19.152  13.835
11264W        W83590  10.060  30.095  13.915
11265W        W83591   8.610  40.307  11.655
11266W        W83592  31.584   5.760   3.205
11267W        W83593  12.422  14.345  10.563
11268W        W83594   5.243  35.612   2.938
11269W        W83595  12.779  42.044  11.235
11270W        W83596   9.357  19.641  11.124
11271W        W83597  19.138  11.289   3.267
11272W        W83598  41.980   4.830   0.419
11273W        W83599  14.772  33.006   4.462
11274W        W83600   6.564   1.428   1.339
11275W        W83601  13.647   0.473  14.331
11276W        W83602  30.528  17.696   3.693
11277W        W83603  22.104  41.112   2.016
11278W        W83604  28.144  27.182   2.206
11279W        W83605  16.610  10.905   0.997
11280W        W83606  25.288   2.841  12.507
11281W        W83607   1.924   9.146  11.144
11282W        W83608   9.592  17.691   1.051
11283W        W83609   7.830  16.731   0.343
11284W        W83610  34.527  40.338  11.681
11285W        W83611  12.864  14.283  11.999
11286W        W83612   3.823  10.430  12.502
11287W        W83613  11.424   5.225  14.603
11288W        W83614  21.143  13.356   2.705
11289W        W83615   8.724  21.789  14.324
11290W        W83616  29.093  27.459  14.960
11291W        W83617  25.485  37.536   1.401
11292W        W83618  27.650  42.268   0.946
11293W        W83619   2.301  20.495   3.785
11294W        W83620  19.914  39.712  14.869
11295W        W83621   2.168  43.990   2.274
11296W        W83622  42.294   1.694  11.615
11297W        W83623  21.623  24.952  13.557
11298W        W83624   4.935  11.517   2.130
11299W        W83625  19.313  10.657  11.550
11300W        W83626  28.983  14.687   3.316
11301W        W83627  28.651  42.514  12.961
11302W        W83628   3.960  44.707   2.776
11303W        W83629   2.473   4.691   2.322
11304W        W83630  18.225  44.511  14.587
11305W        W83631   3.446  17.240  10.990
11306W        W83632  11.399  26.736  12.116
11307W        W83633  14.159  27.800   3.707
11308W        W83634  43.684  25.598  13.103
11309W        W83635  22.983  20.075   0.386
11310W        W83636  30.065   8.850  12.528
11311W        W83637  15.847   8.812  10.243
11312W        W83638  18.485  29.598  11.422
11313W        W83639  41.937  15.176   4.767
11314W        W83640  31.522  23.967   4.548
11315W        W83641  17.120  39.515  12.909
11316W        W83642  38.740   1.129  11.236
11317W        W83643  12.775  15.813   1.818
11318W        W83644  14.860  33.556   0.838
11319W        W83645  38.356  27.017  10.570
11320W        W83646  29.642   4.319   4.545
11321W        W83647  33.862  17.623   0.845
11322W        W83648  43.819  21.198  14.839
11323W        W83649   4.803  40.053   0.814
11324W        W83650  34.974  15.225  14.150
11325W        W83651  25.997   8.688  12.232
11326W        W83652   0.467  31.141   4.299
11327W        W83653   9.134  27.695   0.955
11328W        W83654  28.998  44.093  14.840
11329W        W83655  10.889  13.130  10.825
11330W        W83656  11.340  22.457  12.383
11331W        W83657   6.467  29.169  13.535
11332W        W83658  41.549  24.523  13.368
11333W        W83659  15.861   3.199   1.456
11334W        W83660  15.774  31.226  11.160
11335W        W83661  24.504   9.970   3.661
11336W        W83662  32.595  32.254   1.781
11337W        W83663   4.131  39.916   1.712
11338W        W83664  11.276  28.934  11.002
11339W        W83665  25.158   4.161   3.442
11340W        W83666   4.348  26.171  11.691
11341W        W83667  21.557  12.582   0.469
11342W        W83668   1.513  16.188  10.997
11343W        W83669  37.787  13.304   5.056
11344W        W83670  25.475  18.740  11.484
11345W        W83671   0.805  20.820   3.715
11346W        W83672  13.711  35.917   3.899
11347W        W83673  19.435  36.579   4.983
11348W        W83674  28.654  22.784  11.582
11349W        W83675  12.273  41.049   1.748
11350W        W83676  40.989  33.869   4.625
11351W        W83677  40.112  41.353   2.224
11352W        W83678  30.047  44.032   3.424
11353W        W83679  22.673  27.699  12.051
11354W        W83680  18.146  16.290  11.436
11355W        W83681  12.809  41.359  12.526
11356W        W83682  40.012  18.478   0.915
11357W        W83683  39.411  36.047  14.863
11358W        W83684  27.151   5.713  13.750
11359W        W83685  19.744  41.717   3.310
11360W        W83686  32.415  10.810   3.816
11361W        W83687  35.114  28.967   3.211
11362W        W83688  20.596   4.002  12.388
11363W        W83689   2.265  19.971   3.762
11364W        W83690   7.756  21.502  12.277
11365W        W83691  24.311  35.693   1.273
11366W        W83692   5.722  12.281  11.653
11367W        W83693  21.714  32.998  12.641
11368W        W83694  11.667   3.133   1.858
11369W        W83695  13.169  34.909   0.724
11370W        W83696  40.971  25.534  10.580
11371W        W83697  26.402  36.672  11.389
11372W        W83698  39.030   3.804   4.569
11373W        W83699  22.737  28.656   4.261
11374W        W83700  11.245   6.010   4.556
11375W        W83701  31.034  29.016  10.708
11376W        W83702  44.223  18.269   2.433
11377W        W83703  27.156  12.762  13.991
11378W        W83704  18.999  26.340   0.364
11379W        W83705  10.025  25.521   4.322
11380W        W83706  27.227  20.268   2.304
11381W        W83707  14.249  16.984   2.228
11382W        W83708  18.220   7.348   0.026
11383W        W83709   9.607   7.318  11.576
11384W        W83710  31.055  24.261   4.672
11385W        W83711  29.354   2.692   4.135
11386W        W83712  27.021  39.120   1.793
11387W        W83713  27.114  33.855  10.710
11388W        W83714   0.817  17.304  10.826
11389W        W83715  30.942  12.220   0.749
11390W        W83716  11.930  17.220  12.855
11391W        W83717  38.256  37.098  11.915
11392W        W83718  34.083   0.555  14.704
11393W        W83719  22.690   1.309  10.922
11394W        W83720  21.276  26.089  11.473
11395W        W83721  24.545   0.839   2.612
11396W        W83722  31.028  37.445   1.370
11397W        W83723  11.361  27.545  10.246
11398W        W83724   8.517  34.207   1.817
11399W        W83725  38.286  36.985   3.734
11400W        W83726  13.049  41.508   5.098
11401W        W83727  35.546  27.004  12.881
11402W        W83728  17.832  19.191  14.002
11403W        W83729   8.023  43.668   3.475
11404W        W83730  44.871  39.854  12.611
11405W        W83731   6.939  10.227   0.830
11406W        W83732  25.417  29.314   5.189
11407W        W83733  12.049  37.074   4.335
11408W        W83734   8.615  36.921   0.682
11409W        W83735   2.919  27.554  14.967
11410W        W83736  34.114  30.002  14.867
11411W        W83737   3.392  13.610  11.242
11412W        W83738  39.740  32.056  13.788
11413W        W83739  32.602  29.883   0.326
11414W        W83740  40.989  15.543   2.613
11415W        W83741  13.179  42.027   0.252
11416W        W83742  11.488  34.694  13.797
11417W        W83743   2.799   1.541  10.314
11418W        W83744  24.122  22.631   4.721
11419W        W83745  32.417  15.495   2.915
11420W        W83746  34.516  40.972   2.220
11421W        W83747  33.403  19.532   3.288
11422W        W83748  36.378  34.287   3.320
11423W        W83749   2.650  38.582   1.932
11424W        W83750   9.273  39.462  14.341
11425W        W83751  39.024   7.866  12.176
11426W        W83752  34.452  18.748   0.296
11427W        W83753  15.703  17.619  14.331
11428W        W83754  23.148  20.625   2.048
11429W        W83755  36.880  13.926   0.926
11430W        W83756   2.352   5.133   5.258
11431W        W83757  37.972   3.630  13.954
11432W        W83758  10.595  13.483   3.821
11433W        W83759   8.629  44.962  11.035
11434W        W83760   0.742   7.642  12.973
11435W        W83761   7.811  11.424  14.233
11436W        W83762  26.039  16.872  13.405
11437W        W83763   0.948  40.386  14.536
11438W        W83764  10.358  22.281   0.884
11439W        W83765  40.942  43.973  12.457
11440W        W83766  17.326  28.405  12.418
11441W        W83767  12.382   5.948   1.944
11442W        W83768   4.486   6.174   1.265
11443W        W83769  13.475  10.534  11.516
11444W        W83770  23.734  19.663   4.740
11445W        W83771  37.541   2.386   4.612
11446W        W83772  23.973  23.998   3.676
11447W        W83773  11.245   1.652   2.802
11448W        W83774  28.724   7.765   0.862
11449W        W83775   3.495   2.500  12.533
11450W        W83776  35.926   0.069   3.181
11451W        W83777  20.512  26.129   0.393
11452W        W83778  27.674   5.285  11.910
11453W        W83779   3.940  38.974  13.447
11454W        W83780  19.892  33.313   4.613
11455W        W83781  39.597   7.417   1.853
11456W        W83782   1.939  29.781   0.952
11457W        W83783  23.516   6.206   2.564
11458W        W83784  20.333  29.340   0.409
11459W        W83785  44.872   2.843  11.123
11460W        W83786  36.455  34.205   4.090
11461W        W83787   0.396  14.129  14.601
11462W        W83788  30.958  39.708  10.907
11463W        W83789   0.709   4.009  11.616
11464W        W83790  15.622   1.762  10.139
11465W        W83791   6.116   8.305  12.075
11466W        W83792  40.085  21.006  13.786
11467W        W83793  31.653  42.834   2.369
11468W        W83794  18.052  15.703   2.810
11469W        W83795  21.284  36.903   4.643
11470W        W83796  30.585  22.576  10.736
11471W        W83797  17.742   9.405  11.146
11472W        W83798   6.260  32.818   1.926
11473W        W83799  11.832  33.007   1.547
11474W        W83800  13.671  10.632   0.081
11475W        W83801   1.413  44.127  10.842
11476W        W83802  38.492   4.793   2.898
11477W        W83803   8.225  42.017   0.458
11478W        W83804  15.049   3.441  11.735
11479W        W83805  32.355  33.198  12.808
11480W        W83806  32.029   7.502   9.904
11481W        W83807  31.735  23.385  10.503
11482W        W83808  22.723  12.772   2.613
11483W        W83809  19.323  10.316  14.951
11484W        W83810   4.222  19.189   3.373
11485W        W83811  28.528  31.602  14.993
11486W        W83812  41.429  20.570  11.103
11487W        W83813  24.032  12.366  13.383
11488W        W83814  15.222  19.523  13.534
11489W        W83815  35.092  33.191   9.753
11490W        W83816  38.425  36.319  14.909
11491W        W83817  31.666  22.779   2.189
11492W        W83818  44.041  31.458  10.556
11493W        W83819  11.621  16.022  13.956
11494W        W83820   3.897  32.912   0.650
11495W        W83821   8.027   8.764   4.520
11496W        W83822  15.113  17.271  11.645
11497W        W83823  17.756  19.581  12.973
11498W        W83824  36.881  28.096   0.144
11499W        W83825  38.376  26.431  14.382
11500W        W83826  17.826  19.872   1.863
11501W        W83827   1.246  39.318   3.262
11502W        W83828  11.350  17.596  11.285
11503W        W83829  36.827  33.880   3.696
11504W        W83830   8.955  26.083  12.406
11505W        W83831  22.652   2.826   3.255
11506W        W83832  11.780  14.831   3.240
11507W        W83833  23.078   7.611  12.504
11508W        W83834  25.888  16.723  13.914
11509W        W83835  19.730  40.980  13.455
11510W        W83836   2.952  29.628   4.036
11511W        W83837  18.711  33.555   0.148
11512W        W83838  29.099  14.354   4.636
11513W        W83839  39.846  44.469   1.831
11514W        W83840   2.394  22.569  10.280
11515W        W83841  24.250  41.469   0.385
11516W        W83842  40.991   0.890   4.720
11517W        W83843   5.808  13.406   2.404
11518W        W83844   2.833  23.990  13.873
11519W        W83845  36.344  10.455  12.277
11520W        W83846  22.495  17.340  13.400
11521W        W83847  38.656  23.013  14.444
11522W        W83848   5.354  41.450   2.349
11523W        W83849  23.028  20.725  12.496
11524W        W83850   0.166  41.517   2.259
11525W        W83851  36.590  14.627  14.265
11526W        W83852  39.077   6.708   2.904
11527W        W83853  40.175  37.360   1.459
11528W        W83854  39.245  40.872   3.349
11529W        W83855   9.417  38.596   4.098
11530W        W83856  35.030  43.260   1.350
11531W        W83857  31.045  18.698  14.904
11532W        W83858  40.103  19.841  12.934
11533W        W83859  40.953  20.718  14.813
11534W        W83860  26.724   9.205  12.619
11535W        W83861  21.049  43.565  13.395
11536W        W83862  15.301   6.531  13.314
11537W        W83863  41.857   4.687   3.712
11538W        W83864  39.929   0.482  11.212
11539W        W83865  13.306  40.603   0.910
11540W        W83866   4.627  32.104   0.900
11541W        W83867  25.960   3.220   2.328
11542W        W83868  39.883  10.826  13.898
11543W        W83869   0.751  26.748  14.102
11544W        W83870   0.084  35.292   0.910
11545W        W83871  38.470  23.063   2.315
11546W        W83872  37.060   8.676   1.366
11547W        W83873  13.332  26.042   2.377
11548W        W83874  19.505  27.093   0.675
11549W        W83875   6.858   3.034  10.478
11550W        W83876  12.413  32.538   3.166
11551W        W83877   6.165  30.187   3.347
11552W        W83878   8.836   5.413   0.938
11553W        W83879  30.884  16.155  11.954
11554W        W83880  27.647   1.430   0.756
11555W        W83881  11.907   5.476  12.974
11556W        W83882  39.406  21.106  10.681
11557W        W83883  13.115   3.811  10.686
11558W        W83884  28.096  28.460  11.119
11559W        W83885  43.569   3.433   1.216
11560W        W83886  10.114  15.962   0.490
11561W        W83887  44.896  16.163   1.294
11562W        W83888  18.533  37.081   0.961
11563W        W83889  11.626  44.206   1.791
11564W        W83890  17.297  42.153  10.183
11565W        W83891  21.757  44.880  11.627
11566W        W83892  43.546  43.962  12.583
11567W        W83893  44.188   8.155   1.293
11568W        W83894   7.647  12.636  11.578
11569W        W83895  14.824  30.918  10.802
11570W        W83896  13.910   6.294   2.804
11571W        W83897   8.672  10.585   4.191
11572W        W83898  39.328  25.368  10.699
11573W        W83899  27.606   9.580  13.019
11574W        W83900  43.385   9.924  10.704
11575W        W83901  38.875   6.642   0.830
11576W        W83902  34.372  33.613  11.516
11577W        W83903   9.730  32.430   4.196
11578W        W83904   9.541   0.330  11.556
11579W        W83905  32.347  17.670   1.827
11580W        W83906  43.289   8.301   4.357
11581W        W83907  31.553  30.974  12.018
11582W        W83908  43.859  25.966   0.888
11583W        W83909   9.156  27.693  11.891
11584W        W83910   5.591  16.241  14.279
11585W        W83911  38.371  43.819   2.788
11586W        W83912  36.523  22.168   1.174
11587W        W83913  31.226   6.255   5.044
11588W        W83914  29.379   3.998   2.557
11589W        W83915  41.080   6.152  12.467
11590W        W83916  22.261  23.460  14.015
11591W        W83917  17.222   9.918   4.611
11592W        W83918  23.560  24.119   2.415
11593W        W83919  20.739   5.003   3.688
11594W        W83920  15.222   3.363   2.268
11595W        W83921  30.039  20.677  10.707
11596W        W83922   7.882  43.328  11.515
11597W        W83923   6.661  24.063  14.296
11598W        W83924  33.629  23.493   1.411
11599W        W83925   8.338  11.838  13.741
11600W        W83926  41.010  21.586  14.214
11601W        W83927  34.096   3.214   3.319
11602W        W83928   3.834   7.071  12.559
11603W        W83929  28.672  25.935   5.738
11604W        W83930  18.192  43.448  14.318
11605W        W83931   1.622   9.665   4.494
11606W        W83932  22.022  33.461  11.468
11607W        W83933   2.017  37.971   1.480
11608W        W83934   4.715  39.976   2.579
11609W        W83935  33.035  24.746   2.316
11610W        W83936  38.348  16.050  14.812
11611W        W83937  19.003  12.648   4.558
11612W        W83938  39.711  41.369  10.741
11613W        W83939  12.126   2.724   3.627
11614W        W83940  28.019  23.011  12.572
11615W        W83941   1.690  38.105  11.904
11616W        W83942   5.508  31.979   3.330
11617W        W83943  14.839  28.463   0.896
11618W        W83944   2.367  21.554   2.115
11619W        W83945   7.438  40.347   1.430
11620W        W83946   7.802  18.696   3.649
11621W        W83947  29.008  40.361   4.355
11622W        W83948  37.224   7.359   3.197
11623W        W83949  21.761   0.087  14.865
11624W        W83950  17.283   6.427   1.931
11625W        W83951  43.761   8.919   4.993
11626W        W83952  10.195  30.378   1.342
11627W        W83953   5.323  36.377   0.176
11628W        W83954  38.327  27.024  12.434
11629W        W83955  24.733   1.770  12.501
11630W        W83956  27.040  35.605   1.443
11631W        W83957  22.404  10.557   2.022
11632W        W83958  40.061  31.999   1.639
11633W        W83959  40.282  17.846  12.556
11634W        W83960   4.168  30.234   2.185
11635W        W83961  19.604   7.791   3.328
11636W        W83962  38.024   7.725   3.062
11637W        W83963  17.210   2.871   1.251
11638W        W83964   1.211  26.328   2.208
11639W        W83965  10.785  33.682   4.260
11640W        W83966  10.390  36.130  11.223
11641W        W83967  34.008  12.949   0.385
11642W        W83968  27.726  34.408   3.639
11643W        W83969  13.085  23.595   1.764
11644W        W83970  22.217  44.191   3.246
11645W        W83971  24.168   7.410   2.742
11646W        W83972  35.955   8.666   1.340
11647W        W83973   6.835   9.612   2.760
11648W        W83974   3.362  38.404  11.658
11649W        W83975  31.432  13.660  11.963
11650W        W83976  32.267   5.521  12.441
11651W        W83977  26.163  43.481  14.954
11652W        W83978  13.818  23.194  11.961
11653W        W83979  11.797  23.316   0.933
11654W        W83980  22.012  27.102   1.687
11655W        W83981  31.012  37.830   2.886
11656W        W83982  42.754  33.575   0.361
11657W        W83983   0.756   1.693   4.053
11658W        W83984  13.364  36.582   0.152
11659W        W83985  11.721  29.197  11.069
11660W        W83986   0.385   5.832   0.305
11661W        W83987  31.621  36.499   3.815
11662W        W83988  19.753  37.855   3.176
11663W        W83989  38.976  30.537   1.906
11664W        W83990  15.704  29.268  12.413
11665W        W83991  16.699   2.143  12.587
11666W        W83992  20.787  38.642  12.942
11667W        W83993  32.138  13.384  12.903
11668W        W83994  43.069  24.783  14.989
11669W        W83995  40.125  28.135   3.603
11670W        W83996  20.674  14.163  11.547
11671W        W83997   3.458  44.318   2.781
11672W        W83998   4.660  13.011  14.798
11673W        W83999  24.653  41.587  14.485
11674W        W84000  16.245  34.030  13.936
11675W        W84001   8.111  21.514   1.222
11676W        W84002  41.028   9.587  10.547
11677W        W84003   8.948  33.864   4.826
11678W        W84004  42.645  29.961   2.810
11679W        W84005  27.026  39.805   0.902
11680W        W84006  30.967  38.189   5.123
11681W        W84007  11.351  41.421   3.798
11682W        W84008  34.069  12.093  13.562
11683W        W84009  41.320  15.853  14.004
11684W        W84010  18.441  34.705   0.426
11685W        W84011  22.743  39.690  10.637
11686W        W84012  39.061  31.296  11.427
11687W        W84013   8.797  26.246   2.462
11688W        W84014  43.085   0.507  12.063
11689W        W84015  44.760   8.413  11.844
11690W        W84016  42.535  17.616  10.563
11691W        W84017  14.913   3.370   2.714
11692W        W84018   9.675  42.184   1.380
11693W        W84019  35.589  39.458   1.941
11694W        W84020  38.636  17.787  13.454
11695W        W84021  19.737  26.182  14.241
11696W        W84022  27.747  19.787  14.288
11697W        W84023  44.374  20.537   4.597
11698W        W84024  38.896  41.112   4.424
11699W        W84025  17.753  27.992  14.711
11700W        W84026  31.517  11.127  10.513
11701W        W84027  34.437  33.128   4.326
11702W        W84028  10.703  43.545  13.443
11703W        W84029   8.825   4.919  14.758
11704W        W84030  44.261  16.228  10.530
11705W        W84031   4.792   6.981  13.510
11706W        W84032  34.304  34.944   3.684
11707W        W84033   9.152  16.203   2.214
11708W        W84034   2.764   2.408  11.941
11709W        W84035  29.048  33.519  10.612
11710W        W84036  15.850  14.151  14.400
11711W        W84037  32.097  31.113  12.093
11712W        W84038  34.405  36.482  11.037
11713W        W84039   5.946  23.748   0.951
11714W        W84040  39.367  43.243   1.070
11715W        W84041  35.481  43.025  12.017
11716W        W84042  26.223  24.574  11.167
11717W        W84043  20.283  39.936  13.844
11718W        W84044  24.349  10.896   2.799
11719W        W84045  11.128  20.542   4.135
11720W        W84046   5.656  25.595  13.428
11721W        W84047  30.560  34.404   4.714
11722W        W84048   3.052  14.227   5.128
11723W        W84049   3.828  16.433   0.311
11724W        W84050  30.176   2.006  13.443
11725W        W84051  33.628  10.274   1.004
11726W        W84052  21.761  36.478   3.438
11727W        W84053   6.074  18.064  14.461
11728W        W84054  10.256  41.906  13.051
11729W        W84055   6.909  23.040  12.080
11730W        W84056   0.398  28.000  12.718
11731W        W84057  27.581   2.971   3.682
11732W        W84058  31.092   1.322  13.539
11733W        W84059  26.455   0.888   0.207
11734W        W84060  39.977  18.000   4.595
11735W        W84061   5.327  10.274   1.623
11736W        W84062   9.356  19.108   1.676
11737W        W84063  42.942  42.913  12.835
11738W        W84064   8.501   7.850   2.208
11739W        W84065  27.187  20.707  14.417
11740W        W84066  16.505  21.592  12.993
11741W        W84067   7.152  10.233  10.492
11742W        W84068   5.034  38.341  13.001
11743W        W84069  44.750  34.022  12.463
11744W        W84070  43.897  35.358  13.347
11745W        W84071  16.782  39.029   3.224
11746W        W84072   3.718  12.821  12.337
11747W        W84073  43.805  30.554  10.701
11748W        W84074  11.280  17.220  12.093
11749W        W84075  19.423  33.861  13.079
11750W        W84076   8.863  41.941   4.475
11751W        W84077  28.578   6.555  12.598
11752W        W84078  23.496  12.795  12.025
11753W        W84079  19.582  21.893   0.140
11754W        W84080  19.852  28.382   0.034
11755W        W84081  10.709  19.958   4.639
11756W        W84082  16.069  17.382  14.647
11757W        W84083  31.187   1.293  11.129
11758W        W84084  11.225  36.073   4.264
11759W        W84085  37.520  36.916  10.735
11760W        W84086   7.315  42.340  14.745
11761W        W84087  16.836  18.736  12.863
11762W        W84088  18.528  43.923  11.947
11763W        W84089  28.640  14.602  13.390
11764W        W84090  26.970  22.512  14.502
11765W        W84091  13.584  38.418  14.270
11766W        W84092  22.972   2.225  11.585
11767W        W84093  14.262   9.581   3.662
11768W        W84094  39.346  18.599   4.515
11769W        W84095  43.968  33.140   1.138
11770W        W84096  19.421  29.448   2.361
11771W        W84097  34.180  12.909   3.862
11772W        W84098  32.535  21.203   2.186
11773W        W84099  21.799  43.286   3.934
11774W        W84100  14.579   9.763  12.952
11775W        W84101  26.311  16.311  10.010
11776W        W84102  38.837  16.550  10.652
11777W        W84103   5.534  11.611   4.564
11778W        W84104  29.086  25.938   3.488
11779W        W84105  30.721  39.478   0.344
11780W        W84106  31.136  29.575  13.726
11781W        W84107  39.354   7.168   2.874
11782W        W84108  27.462  37.481  13.494
11783W        W84109   3.802  24.888  10.648
11784W        W84110  32.472  22.472  14.247
11785W        W84111   7.793   5.623  11.054
11786W        W84112  15.352   1.992   0.784
11787W        W84113   0.966  25.171  10.918
11788W        W84114  27.126  33.435  11.028
11789W        W84115  30.574  26.217   2.811
11790W        W84116   7.648   3.194  12.010
11791W        W84117  12.323  27.905  14.444
11792W        W84118  28.257  36.345  12.407
11793W        W84119  15.005  24.361  11.553
11794W        W84120  20.701  34.495   3.283
11795W        W84121  11.341  21.666   3.435
11796W        W84122  37.378  41.588  10.907
11797W        W84123  14.588  43.174  14.350
11798W        W84124   0.441   4.359   2.887
11799W        W84125  25.689  17.188   2.762
11800W        W84126  16.547  21.713  11.565
11801W        W84127   2.987  35.567  12.858
11802W        W84128  11.160  43.887   4.553
11803W        W84129  34.850  20.810  12.384
11804W        W84130   6.249  11.176  10.701
11805W        W84131  27.207  30.064  13.385
11806W        W84132  38.702  41.916   4.036
11807W        W84133  29.101  25.287  13.992
11808W        W84134   3.584  41.555  13.038
11809W        W84135  38.116  32.149   1.260
11810W        W84136  30.992  44.030   4.520
11811W        W84137  32.053  12.602  10.670
11812W        W84138  42.472  10.824  11.163
11813W        W84139  10.295   3.788  13.283
11814W        W84140  44.410  17.626   0.490
11815W        W84141   4.735  37.764   5.129
11816W        W84142  13.474  30.505  11.008
11817W        W84143  34.065  13.610   4.891
11818W        W84144  28.355  38.430   2.342
11819W        W84145   3.362   0.140   3.275
11820W        W84146  19.731   2.672  10.733
11821W        W84147  31.689  40.763   4.478
11822W        W84148  40.180  42.466  11.034
11823W        W84149  24.980   0.772   1.264
11824W        W84150  23.446  42.076  12.063
11825W        W84151  40.895  38.846  14.405
11826W        W84152  10.307   2.185  10.831
11827W        W84153  24.257  43.962  13.436
11828W        W84154  44.727   4.735  13.606
11829W        W84155  36.123  27.021  13.567
11830W        W84156   0.822  33.188  11.034
11831W        W84157   8.826  17.757   3.391
11832W        W84158  41.559   7.643  11.708
11833W        W84159  11.704   9.227  10.899
11834W        W84160  39.684  37.358   1.612
11835W        W84161   8.927  44.431  14.823
11836W        W84162  22.589  26.590   2.288
11837W        W84163  43.072  10.996  12.543
11838W        W84164  34.997  30.584   2.466
11839W        W84165  17.533  32.355   3.683
11840W        W84166   5.757  29.626   2.653
11841W        W84167  13.613  22.032   1.319
11842W        W84168  43.651  16.353   2.034
11843W        W84169  29.422  21.010  13.556
11844W        W84170  17.122  28.503  14.447
11845W        W84171  27.066   9.365  10.516
11846W        W84172  25.693  31.398   0.493
11847W        W84173  42.020   6.117  11.169
11848W        W84174   2.667   9.501  11.450
11849W        W84175  14.343  30.694  11.628
11850W        W84176  43.958  27.722  10.618
11851W        W84177  16.299  31.152   1.278
11852W        W84178  19.142  42.292   2.265
11853W        W84179  18.346  20.097   3.626
11854W        W84180  41.084  30.061   2.179
11855W        W84181  19.548  31.531  14.090
11856W        W84182  13.770  29.906  14.100
11857W        W84183  41.377  35.025  10.421
11858W        W84184  13.115   4.782   1.788
11859W        W84185  35.949  41.013  13.013
11860W        W84186  34.976  33.734   0.155
11861W        W84187  40.979  21.452   1.204
11862W        W84188  12.407  30.336   3.507
11863W        W84189  20.149  15.034   1.277
11864W        W84190  20.586  25.468   4.252
11865W        W84191   4.540  24.287   5.042
11866W        W84192   1.851   5.419  14.330
11867W        W84193  43.034  11.942   3.166
11868W        W84194   2.489  43.856  14.421
11869W        W84195   1.444  12.249  11.081
11870W        W84196   8.744  25.770   2.096
11871W        W84197  38.383   3.306  14.351
11872W        W84198  28.961   8.228  14.773
11873W        W84199   4.836   9.830   0.436
11874W        W84200  23.095   5.836  11.992
11875W        W84201  20.609  19.048  14.491
11876W        W84202  31.541   8.239  10.744
11877W        W84203  12.100  38.521  12.845
11878W        W84204  39.260   1.212  11.153
11879W        W84205  12.922  30.500  14.380
11880W        W84206   0.651   2.923   0.893
11881W        W84207  43.522  39.127   3.618
11882W        W84208  25.086  35.455   2.483
11883W        W84209  34.130   9.514  14.281
11884W        W84210  31.239  24.167  14.466
11885W        W84211   7.628   6.829   2.812
11886W        W84212   6.308  38.706  10.772
11887W        W84213  31.916   3.967   1.759
11888W        W84214  42.893  32.498   4.167
11889W        W84215  19.221   3.229  12.262
11890W        W84216  14.193  32.305   3.670
11891W        W84217  23.473   2.974  12.901
11892W        W84218  25.950   2.219  10.944
11893W        W84219  19.962  19.291  12.615
11894W        W84220  11.791  40.406  12.469
11895W        W84221  41.411  25.205   3.651
11896W        W84222  15.919  25.236  11.481
11897W        W84223  12.330  44.130   2.193
11898W        W84224  29.095   5.210   1.819
11899W        W84225  35.700  37.932   3.147
11900W        W84226  11.209  36.758  11.106
11901W        W84227  12.153   6.331   4.632
11902W        W84228  18.306  35.578  11.570
11903W        W84229  36.494   5.327   1.372
11904W        W84230  30.579  25.392   4.137
11905W        W84231  23.296  15.642   0.952
11906W        W84232  30.509  14.137  12.102
11907W        W84233  40.777  41.903  11.159
11908W        W84234   2.253  28.268  10.680
11909W        W84235  33.072  35.944  14.235
11910W        W84236  18.037  24.495   4.205
11911W        W84237  39.651  42.729   2.199
11912W        W84238  30.966  33.893   3.837
11913W        W84239  22.750   8.086   3.329
11914W        W84240  39.794   2.687   0.279
11915W        W84241   2.337   6.144  14.517
11916W        W84242  24.379  23.916   2.556
11917W        W84243  39.589  14.731   3.304
11918W        W84244  15.282  42.496   2.860
11919W        W84245  43.845  16.320  13.935
11920W        W84246  11.042  24.620  10.626
11921W        W84247  31.914   1.663   1.692
11922W        W84248   1.028  32.460  13.722
11923W        W84249  42.121   7.783  11.713
11924W        W84250  19.513  43.765  13.508
11925W        W84251  41.388  14.243  12.285
11926W        W84252   1.869  25.361  13.894
11927W        W84253  34.507   9.435   0.453
11928W        W84254  14.062  16.734   1.299
11929W        W84255  39.460   3.968  13.432
11930W        W84256  22.026  18.606  12.081
11931W        W84257  33.308  32.041  13.799
11932W        W84258  19.962   2.925   3.880
11933W        W84259   5.213  37.845   4.863
11934W        W84260   0.441  30.234   1.399
11935W        W84261  27.125  32.764  14.966
11936W        W84262   1.410  43.859   2.751
11937W        W84263  12.766   6.408  14.281
11938W        W84264   3.560  12.856   2.295
11939W        W84265  16.998  32.910  11.155
11940W        W84266  34.609  41.016  14.888
11941W        W84267  36.366  34.720  11.584
11942W        W84268  43.911  42.438  14.807
11943W        W84269  10.220   9.516   5.045
11944W        W84270  23.076  16.144   5.072
11945W        W84271  30.115  14.786  11.049
11946W        W84272  33.391  37.005  11.676
11947W        W84273  32.154  14.825   1.344
11948W        W84274   0.371  44.935   1.161
11949W        W84275  35.238  27.511   0.365
11950W        W84276  12.692  11.505   4.750
11951W        W84277  12.060  30.678   1.672
11952W        W84278   6.733  36.524  10.511
11953W        W84279  43.494   5.330   3.116
11954W        W84280  31.603   3.247  11.468
11955W        W84281  28.898  11.880   3.636
11956W        W84282   0.189  28.415   4.878
11957W        W84283   3.717  29.618  13.016
11958W        W84284  23.755   9.771   4.218
11959W        W84285  13.964  12.874   1.496
11960W        W84286  11.658  24.329  12.787
11961W        W84287   5.697   8.909  11.251
11962W        W84288  19.009  41.069   1.236
11963W        W84289  19.355  34.854  12.328
11964W        W84290  28.944  35.727   0.420
11965W        W84291  16.532  32.860  12.475
11966W        W84292  27.016  40.156  12.948
11967W        W84293  39.438  44.168   1.435
11968W        W84294   4.778  34.511   4.311
11969W        W84295  21.821   6.661  11.709
11970W        W84296  10.583  35.463   1.947
11971W        W84297  12.834   1.558  13.365
11972W        W84298   8.298  42.918  11.181
11973W        W84299  15.478  35.839  14.887
11974W        W84300  38.797  36.939   1.240
11975W        W84301   1.284   6.571  11.587
11976W        W84302  21.032  18.048  12.108
11977W        W84303   3.957  40.313   1.404
11978W        W84304  25.617   2.946   1.134
11979W        W84305  25.140  26.745   2.991
11980W        W84306  41.351  22.961  13.017
11981W        W84307  29.870  35.885   3.986
11982W        W84308  20.208  16.701  12.056
11983W        W84309  14.627  41.818   4.822
11984W        W84310  16.843  37.586   4.225
11985W        W84311   0.407   0.194   2.899
11986W        W84312  42.921  16.823   2.699
11987W        W84313  20.240  34.060  11.949
11988W        W84314  32.829  21.161  11.268
11989W        W84315   0.502  28.487  11.182
11990W        W84316  28.710  13.864  12.907
11991W        W84317  10.205  33.546   2.287
11992W        W84318  21.704  37.279   1.778
11993W        W84319  23.295  14.682  12.905
11994W        W84320  32.658   8.201   0.434
11995W        W84321  28.673  36.831   2.351
11996W        W84322  11.751  19.539  13.049
11997W        W84323  31.628  26.258  13.499
11998W        W84324  23.376  16.691  11.982
11999W        W84325  35.798  16.733   3.795
12000W        W84326   5.855  20.799   4.147
12001W        W84327  20.070  34.423   3.824
12002W        W84328  16.647   3.704  13.476
12003W        W84329  34.636  20.685  13.597
12004W        W84330  15.335   6.292   3.602
12005W        W84331  15.123  33.375  14.528
12006W        W84332  15.563  30.025  13.643
12007W        W84333   4.933  42.284   3.367
12008W        W84334   7.336  35.448  13.375
12009W        W84335  42.082   2.306   3.330
12010W        W84336  27.480  40.702  12.277
12011W        W84337   4.723  33.179  10.067
12012W        W84338  21.143  23.159  13.371
12013W        W84339  23.553  15.094   4.654
12014W        W84340  11.291   2.922  13.805
12015W        W84341  43.054   4.002  13.823
12016W        W84342   0.231  12.806  12.805
12017W        W84343   7.938  31.346   1.030
12018W        W84344  19.736  12.386  12.546
12019W        W84345  13.441  40.413  12.072
12020W        W84346  13.089   5.480  12.683
12021W        W84347  17.058  21.259   4.710
12022W        W84348  25.407  36.535  13.038
12023W        W84349  32.591  16.732   3.694
12024W        W84350  37.600  25.000  10.930
12025W        W84351  43.874   8.902  10.624
12026W        W84352  35.511  13.882   2.384
12027W        W84353  42.768  33.105  14.022
12028W        W84354  39.565  28.064   2.144
12029W        W84355  41.521  28.601  11.139
12030W        W84356  12.116  27.717   3.810
12031W        W84357  43.956  11.759  14.951
12032W        W84358  27.014  19.383   4.625
12033W        W84359  44.495  18.085   4.924
12034W        W84360  11.725  17.277   4.595
12035W        W84361  24.548  10.819  14.569
12036W        W84362  11.672  35.676  14.603
12037W        W84363  40.394   4.215   0.742
12038W        W84364  16.458  42.920   0.983
12039W        W84365  42.794  33.881   1.675
12040W        W84366  27.585   2.993  14.207
12041W        W84367  44.027  17.818  11.385
12042W        W84368  28.146   6.120  12.833
12043W        W84369  41.869   2.951   4.560
12044W        W84370   5.503  42.375   0.775
12045W        W84371  43.927  27.147  10.605
12046W        W84372  43.463   9.636   1.328
12047W        W84373  10.113  13.693   3.824
12048W        W84374  42.233  29.214   5.065
12049W        W84375  20.462   6.526   4.426
12050W        W84376  39.263  11.282   4.378
12051W        W84377  19.215  23.059  12.933
12052W        W84378  17.300   2.218  14.303
12053W        W84379  15.150  11.700   4.590
12054W        W84380  36.041  31.495   4.369
12055W        W84381  17.796  18.045  12.008
12056W        W84382  32.818   3.475  11.154
12057W        W84383  32.985  13.286   3.685
12058W        W84384   9.407   9.307   1.275
12059W        W84385   8.345   2.288  11.294
12060W        W84386  43.834   5.190   0.399
12061W        W84387  28.372  30.287   1.320
12062W        W84388  25.444  43.131   3.651
12063W        W84389  26.340  17.215   1.872
12064W        W84390  29.874  43.462   4.255
12065W        W84391  10.608  28.663   4.709
12066W        W84392  33.534  33.695  10.987
12067W        W84393  41.359  39.872  14.051
12068W        W84394  19.643  41.570   4.651
12069W        W84395  15.776   4.619   4.629
12070W        W84396  27.587  27.879  11.554
12071W        W84397   4.598   1.614   2.310
12072W        W84398  37.407  37.548   1.303
12073W        W84399  19.097  24.500  13.098
12074W        W84400  17.368  34.334  14.336
12075W        W84401  15.314   7.905  12.565
12076W        W84402   9.317  34.844  14.301
12077W        W84403  44.542  10.396  14.085
12078W        W84404  15.971  35.965  14.802
12079W        W84405  16.399  39.415  11.111
12080W        W84406  31.477   0.373   2.085
12081W        W84407  25.483  15.566  11.687
12082W        W84408   1.988  16.984   2.418
12083W        W84409  42.790  37.060   0.358
12084W        W84410  35.511   9.477   4.211
12085W        W84411  13.305  35.298  12.932
12086W        W84412  10.046   5.971   2.360
12087W        W84413  44.430  10.599  11.116
12088W        W84414  25.107   5.877  11.436
12089W        W84415  37.565  44.361   2.896
12090W        W84416  11.869  14.354  12.422
12091W        W84417  36.087  44.823  12.001
12092W        W84418  40.785  38.789  10.930
12093W        W84419  17.350   1.689  12.976
12094W        W84420  13.237   8.973   4.695
12095W        W84421  28.164  16.790  10.727
12096W        W84422  37.459  11.589   0.793
12097W        W84423  38.919  32.584   1.213
12098W        W84424  26.019  43.687   4.199
12099W        W84425  31.877  34.426  12.116
12100W        W84426  17.161   3.361   1.416
12101W        W84427  34.525  25.920   1.206
12102W        W84428   8.112  17.202  12.645
12103W        W84429  28.410  39.841   3.197
12104W        W84430   4.449  26.625   4.614
12105W        W84431  13.062  14.148   3.596
12106W        W84432  34.747  26.986  12.403
12107W        W84433  27.650   3.089   2.829
12108W        W84434  26.320  18.692  10.495
12109W        W84435  30.578  21.648   3.757
12110W        W84436  14.920  12.872   2.229
12111W        W84437  36.959   5.923  11.654
12112W        W84438  41.145  11.224   4.719
12113W        W84439  36.504   4.207  14.960
12114W        W84440  14.358  10.375  14.094
12115W        W84441  22.695  22.819   4.845
12116W        W84442  37.117  33.062   1.445
12117W        W84443  12.719  34.382   3.185
12118W        W84444  10.687  37.862  13.980
12119W        W84445  21.760   8.856   1.350
12120W        W84446   8.144  42.270  12.849
12121W        W84447  40.986  10.694  13.939
12122W        W84448  15.135  40.860   0.983
12123W        W84449   2.988  21.152  13.061
12124W        W84450  12.277  13.597  12.545
12125W        W84451  28.503  44.942  13.358
12126W        W84452  39.313  43.655   1.478
12127W        W84453  30.025  40.906  12.579
12128W        W84454  30.789  37.931  14.070
12129W        W84455  33.563  14.988   3.116
12130W        W84456   9.781  18.174   1.271
12131W        W84457   1.955  36.542   1.649
12132W        W84458   0.362  34.657  13.809
12133W        W84459  43.386  19.543   2.828
12134W        W84460  41.523   4.310   3.854
12135W        W84461  27.428  38.740  11.523
12136W        W84462  27.990  15.866   3.814
12137W        W84463   8.788  11.658   0.394
12138W        W84464  15.770  13.563   4.597
12139W        W84465  28.654  32.039   0.918
12140W        W84466  23.699  39.852  14.903
12141W        W84467  24.331  40.962   1.966
12142W        W84468   2.931  38.162  11.538
12143W        W84469  31.153  23.219  10.642
12144W        W84470  42.321  28.636  12.366
12145W        W84471  23.708  25.634   0.463
12146W        W84472  36.626  32.438   4.118
12147W        W84473  30.526  21.526   2.776
12148W        W84474  29.314  14.281   2.157
12149W        W84475   0.975  28.690  12.560
12150W        W84476  19.543  37.526   1.877
12151W        W84477  35.354  33.928   2.838
12152W        W84478   6.748  14.208   0.212
12153W        W84479  20.787  36.058  14.348
12154W        W84480  34.179  11.266  13.408
12155W        W84481  36.085   3.765  10.611
12156W        W84482  18.111  38.121  13.536
12157W        W84483  36.008  13.134  11.546
12158W        W84484  20.916  18.114   3.001
12159W        W84485  12.503  21.782   1.481
12160W        W84486   8.412   0.209   3.351
12161W        W84487  27.617   1.069  12.579
12162W        W84488  29.204  20.632  13.294
12163W        W84489  16.536  42.393   4.224
12164W        W84490  18.196  19.988  13.844
12165W        W84491  35.279  30.382  11.027
12166W        W84492  18.737   5.273   1.149
12167W        W84493  33.205   8.631  12.366
12168W        W84494  39.215  16.353  14.870
12169W        W84495  23.194  28.552   1.329
12170W        W84496  22.993   0.856   3.083
12171W        W84497   5.918  38.689  10.191
12172W        W84498  23.801   7.177  12.058
12173W        W84499  44.019  21.662   0.477
12174W        W84500   1.913   5.183   0.207
12175W        W84501   6.778   4.005   2.428
12176W        W84502   1.082  28.969   0.882
12177W        W84503  21.350  40.916  12.572
12178W        W84504  17.149   7.748   3.334
12179W        W84505  38.438  44.966  11.094
12180W        W84506   9.612  37.275   4.367
12181W        W84507  29.571  27.990  11.223
12182W        W84508  13.065  19.796   1.683
12183W        W84509   2.197  34.799  11.695
12184W        W84510   9.330  43.872  13.410
12185W        W84511   3.754  43.414   3.694
12186W        W84512  13.716  40.992   0.010
12187W        W84513  24.383  20.236   0.424
12188W        W84514  17.354   5.944   2.188
12189W        W84515  10.074  23.233   0.031
12190W        W84516  44.249  35.488   2.739
12191W        W84517  30.111   7.431   3.645
12192W        W84518  44.252  14.773  11.374
12193W        W84519  18.152  25.234  14.976
12194W        W84520  34.650  13.052  11.004
12195W        W84521  31.119  15.188   3.267
12196W        W84522  24.282  39.631   4.631
12197W        W84523  35.382  36.010  10.246
12198W        W84524   6.219  31.660  10.973
12199W        W84525  18.984  36.072   3.278
12200W        W84526  40.874  27.895   4.154
12201W        W84527  36.950  19.485   3.713
12202W        W84528   0.286  39.514  13.054
12203W        W84529  24.449  17.541  11.058
12204W        W84530  33.870  38.207   1.904
12205W        W84531  28.654  41.990  12.067
12206W        W84532  31.100  22.814  12.444
12207W        W84533  42.833  28.521   3.545
12208W        W84534  28.528  29.126  11.864
12209W        W84535   7.721  36.770   0.172
12210W        W84536   9.863   1.230   2.267
12211W        W84537  15.537  22.078  11.033
12212W        W84538  25.589  17.104   1.427
12213W        W84539  15.629  25.592   0.297
12214W        W84540  27.024   5.240   3.137
12215W        W84541   8.217  42.476   4.705
12216W        W84542  31.089   4.388   1.967
12217W        W84543  14.079  31.609  13.001
12218W        W84544   0.011  33.112   1.158
12219W        W84545  23.732   2.500  12.904
12220W        W84546  33.581   2.725  13.477
12221W        W84547  44.762   1.020  14.507
12222W        W84548   0.093  37.809   2.191
12223W        W84549  41.976   4.374  10.905
12224W        W84550  28.935  43.470  12.575
12225W        W84551  42.017  16.593  12.053
12226W        W84552   4.790  35.310  11.063
12227W        W84553  16.323  16.343   1.290
12228W        W84554  24.053  14.346   0.509
12229W        W84555  42.925  24.863  11.730
12230W        W84556   2.894  17.266   2.880
12231W        W84557  12.902  12.632  11.029
12232W        W84558   2.651  35.529  10.398
12233W        W84559  11.758  25.347  11.921
12234W        W84560  23.422  43.704   1.711
12235W        W84561  12.932  29.634   3.203
12236W        W84562  22.038  32.024  10.560
12237W        W84563  28.092   7.207   2.632
12238W        W84564  14.819  29.086  13.722
12239W        W84565   3.850  15.069  14.871
12240W        W84566   0.675  20.108  14.963
12241W        W84567  38.385   6.200  12.451
12242W        W84568  10.384  35.915   1.712
12243W        W84569  37.379  16.258   0.711
12244W        W84570  15.385   7.217  11.564
12245W        W84571   5.539  24.958   1.875
12246W        W84572  26.968  31.503   3.520
12247W        W84573  33.607  18.388  11.760
12248W        W84574  28.813  30.002   1.440
12249W        W84575  34.764  27.539   0.527
12250W        W84576  18.374   1.007  11.993
12251W        W84577  24.010  35.812   2.710
12252W        W84578  18.961  37.457  10.679
12253W        W84579  10.474  29.175  11.279
12254W        W84580  34.047   2.115  11.140
12255W        W84581   3.472  32.112   2.776
12256W        W84582  25.195   3.814  10.700
12257W        W84583  38.802  11.314  12.799
12258W        W84584  19.627  10.901  11.008
12259W        W84585  18.126  26.079  14.380
12260W        W84586  12.251  26.905  13.241
12261W        W84587  33.490  37.819   1.953
12262W        W84588  21.085   1.861  10.920
12263W        W84589   9.195  24.222   3.427
12264W        W84590  23.960  32.929   1.312
12265W        W84591   8.214  18.701   1.498
12266W        W84592  33.993  22.194  10.648
12267W        W84593  37.202   6.760  14.000
12268W        W84594   1.409   3.822   3.673
12269W        W84595   0.660  38.331  14.339
12270W        W84596  23.733  32.574  14.614
12271W        W84597  13.860  26.173  11.026
12272W        W84598  33.951  32.125   3.175
12273W        W84599  20.310  27.853  14.505
12274W        W84600  23.175  41.254  14.171
12275W        W84601  41.876   3.437  12.302
12276W        W84602  31.675  16.251  10.663
12277W        W84603  28.053  28.706  12.498
12278W        W84604  15.329   4.987  12.058
12279W        W84605  19.288  12.126  12.497
12280W        W84606  27.961  29.054  13.934
12281W        W84607  19.749  25.114   3.199
12282W        W84608   2.309  32.724   0.708
12283W        W84609  11.250   2.258  11.101
12284W        W84610  22.508   4.464  11.656
12285W        W84611  17.148  13.736   2.919
12286W        W84612  14.581  10.621   2.122
12287W        W84613   9.124  30.746  12.085
12288W        W84614  25.442   5.068   5.082
12289W        W84615  12.655  39.079   2.161
12290W        W84616  29.854   8.356   1.463
12291W        W84617   1.877   8.684   0.459
12292W        W84618  15.537  14.097   0.282
12293W        W84619   3.331  16.154  10.296
12294W        W84620  18.632  39.766   0.331
12295W        W84621  18.661  40.520  11.703
12296W        W84622  32.422  27.008   4.994
12297W        W84623  16.966   7.738  14.977
12298W        W84624   0.960  25.885  13.073
12299W        W84625  35.271   6.817  10.713
12300W        W84626   9.333  27.455   2.211
12301W        W84627  18.124   5.747  12.628
12302W        W84628  15.547  22.824   1.937
12303W        W84629  22.962   3.036   0.391
12304W        W84630   8.880   2.235  13.430
12305W        W84631  31.388  12.078  10.868
12306W        W84632  25.572  36.480   2.210
12307W        W84633  37.608  10.858  10.614
12308W        W84634   4.142  17.641  13.366
12309W        W84635  21.943  37.774   0.908
12310W        W84636  25.283   3.826  12.905
12311W        W84637   0.112   7.186  13.471
12312W        W84638   7.500  12.233  12.895
12313W        W84639  21.731  33.404  14.500
12314W        W84640  44.088  24.435   3.303
12315W        W84641  33.820   5.046  11.926
12316W        W84642  29.374  28.992   4.838
12317W        W84643  19.278  31.537   1.791
12318W        W84644  37.254   8.300   1.718
12319W        W84645   2.677  30.884  14.278
12320W        W84646  44.409  38.857   2.660
12321W        W84647  27.667  32.017   0.530
12322W        W84648  12.803  22.021   2.718
12323W        W84649  13.132   9.667   4.022
12324W        W84650  11.089   9.691  10.578
12325W        W84651  41.399  35.722  11.566
12326W        W84652  19.883   9.011   1.410
12327W        W84653   9.252   9.900   3.824
12328W        W84654   1.721   2.396  13.248
12329W        W84655  17.821  25.153  13.998
12330W        W84656   1.024  25.978   0.129
12331W        W84657  35.473  35.976  10.812
12332W        W84658  40.038  13.896   0.818
12333W        W84659  32.570  31.523   3.206
12334W        W84660  35.373  34.828   2.835
12335W        W84661  19.515  38.984  11.385
12336W        W84662  29.933   9.197  13.885
12337W        W84663   8.022  33.263  10.338
12338W        W84664  23.222  35.308   3.959
12339W        W84665  38.417  32.601  12.595
12340W        W84666  19.588   5.670   1.055
12341W        W84667  38.356  37.509   1.176
12342W        W84668  26.507   4.379   3.480
12343W        W84669   1.217  20.152  14.853
12344W        W84670   4.280  17.136  13.571
12345W        W84671  22.564  29.096  12.016
12346W        W84672  29.666  30.387  12.032
12347W        W84673   3.477  30.529   1.761
12348W        W84674  34.489  23.195   4.312
12349W        W84675  41.307  30.090   1.708
12350W        W84676  17.796   9.206   3.488
12351W        W84677  18.328  23.486  14.791
12352W        W84678  21.210  40.892   0.373
12353W        W84679  40.808  35.369  11.469
12354W        W84680   4.510  30.601  13.446
12355W        W84681  31.975  12.462   1.596
12356W        W84682  19.065  37.841   4.175
12357W        W84683  30.910  40.721  14.942
12358W        W84684  43.433  10.350   1.022
12359W        W84685  40.469  15.083  11.018
12360W        W84686   6.384  14.207   1.882
12361W        W84687  32.340  26.953  14.867
12362W        W84688  23.518  19.531   2.138
12363W        W84689   7.998   6.840  12.107
12364W        W84690  12.244  31.557   4.337
12365W        W84691  44.036   8.013  10.817
12366W        W84692  11.353  25.458   0.382
12367W        W84693  22.068  20.502  11.944
12368W        W84694  19.640  18.589  10.733
12369W        W84695  36.778  12.039   0.302
12370W        W84696  40.253   9.269  12.617
12371W        W84697  23.031   5.200   0.876
12372W        W84698  26.126   3.560  11.890
12373W        W84699  27.653  35.656   1.573
12374W        W84700  26.973  31.350   0.919
12375W        W84701  19.718   6.569  13.313
12376W        W84702   8.826  19.799   3.665
12377W        W84703   6.653  25.555   3.224
12378W        W84704  37.844  30.781   0.413
12379W        W84705   1.893  17.826   4.575
12380W        W84706   5.774  30.932  13.121
12381W        W84707  27.578   7.486   0.076
12382W        W84708  41.210  36.516  13.603
12383W        W84709   2.756   5.939  10.597
12384W        W84710  23.691  33.706   2.386
12385W        W84711  29.221   3.390  11.196
12386W        W84712  38.724  42.750  14.181
12387W        W84713  35.434   2.925  13.633
12388W        W84714  28.171  14.826  12.502
12389W        W84715  37.659  43.135   3.240
12390W        W84716  38.903  16.640   0.209
12391W        W84717  33.780   6.623  12.997
12392W        W84718  11.346  21.079  12.485
12393W        W84719  23.617  13.032   1.256
12394W        W84720  28.085  43.435   4.670
12395W        W84721  33.418  40.932  10.773
12396W        W84722  32.818  17.753   2.517
12397W        W84723   6.197   7.230  10.074
12398W        W84724  27.644  35.965  12.127
12399W        W84725  39.798   2.827   4.391
12400W        W84726  22.954  34.866   1.988
12401W        W84727  38.603  26.588  13.564
12402W        W84728  37.344  18.784  13.136
12403W        W84729  31.279  18.523  12.533
12404W        W84730  35.123  36.503  14.414
12405W        W84731  24.516  38.890  12.606
12406W        W84732  19.176  25.759   4.206
12407W        W84733  12.155   2.116  13.297
12408W        W84734   5.662  11.685   1.682
12409W        W84735  42.358   9.806   4.584
12410W        W84736  42.872  29.876  14.404
12411W        W84737   6.905  11.131  14.179
12412W        W84738   2.678  32.081  11.601
12413W        W84739  26.599  10.658   4.911
12414W        W84740  34.923  26.443  13.369
12415W        W84741  42.816   4.429   0.745
12416W        W84742   5.735  12.301  12.565
12417W        W84743  17.179  13.854  11.939
12418W        W84744  16.237  32.544   3.089
12419W        W84745  16.204  10.677  14.328
12420W        W84746   4.877  31.620  14.340
12421W        W84747  21.141   1.933  10.420
12422W        W84748  38.316   4.854   2.382
12423W        W84749  19.858  37.435  11.066
12424W        W84750   3.275   1.144   3.279
12425W        W84751  34.553  19.876  11.161
12426W        W84752  15.565  11.392  11.426
12427W        W84753  14.091  10.976  14.859
12428W        W84754  32.217   0.886  13.980
12429W        W84755  34.310  29.692  13.863
12430W        W84756  23.690  31.249  11.626
12431W        W84757  33.609  38.276  10.658
12432W        W84758  35.258  35.963   4.562
12433W        W84759  20.159  42.966  10.065
12434W        W84760  35.137   8.180   0.447
12435W        W84761  22.290  41.357  14.685
12436W        W84762  18.991  16.943   3.757
12437W        W84763  10.307  16.065   4.425
12438W        W84764  42.981   7.151  13.947
12439W        W84765   6.451  21.006  10.376
12440W        W84766  44.432  21.187  10.963
12441W        W84767  36.385  17.707   1.436
12442W        W84768   0.157  38.292   0.482
12443W        W84769  25.995  31.572  14.589
12444W        W84770   1.919  36.972   2.458
12445W        W84771  11.384  40.976   2.756
12446W        W84772   3.953  17.176  11.096
12447W        W84773  28.110  41.082  11.492
12448W        W84774  28.662  18.657   2.354
12449W        W84775  17.827  32.899   1.921
12450W        W84776   3.783  39.389   3.806
12451W        W84777  35.340  15.828  11.607
12452W        W84778  10.053  16.016   1.471
12453W        W84779  25.527  10.181   2.511
12454W        W84780   5.145  33.086   3.693
12455W        W84781  33.484   6.932  11.881
12456W        W84782  27.226  19.551   1.356
12457W        W84783  13.828  11.672   1.005
12458W        W84784  19.380  23.996  14.343
12459W        W84785  41.700  42.820  14.423
12460W        W84786   0.820   3.283   3.301
12461W        W84787  28.951  34.221   2.783
12462W        W84788   9.295   9.151   4.786
12463W        W84789  22.982  26.172  14.940
12464W        W84790  29.492   5.890  11.959
12465W        W84791  22.709   9.988  10.928
12466W        W84792  15.016   6.757  10.703
12467W        W84793  44.782  31.288  13.384
12468W        W84794  20.339  11.899  12.057
12469W        W84795  43.830  34.676   5.092
12470W        W84796  17.426  38.938  10.630
12471W        W84797   2.465  22.245  10.680
12472W        W84798  36.464  20.800   2.183
12473W        W84799   2.544   3.541  14.898
12474W        W84800   2.792  17.022  12.058
12475W        W84801  24.589  39.948   2.860
12476W        W84802  10.470  33.287   2.670
12477W        W84803  38.053  27.639  14.548
12478W        W84804  14.900   3.073   4.075
12479W        W84805   2.736  37.961  12.827
12480W        W84806  24.474  36.588  14.064
12481W        W84807   4.890  42.605  14.499
12482W        W84808   8.907   2.837  13.439
12483W        W84809   5.345  36.460   2.116
12484W        W84810  23.788   9.297  12.446
12485W        W84811  26.715   4.902   0.930
12486W        W84812  36.496  35.992   1.352
12487W        W84813  29.761  31.986  11.842
12488W        W84814  11.145  43.251  14.870
12489W        W84815  32.920  29.562   1.001
12490W        W84816  27.015  29.459   0.854
12491W        W84817   8.381  14.798   3.098
12492W        W84818  13.758  13.498   0.482
12493W        W84819  33.283   8.549   3.395
12494W        W84820  29.330  32.337   2.171
12495W        W84821  25.232   2.777   2.382
12496W        W84822  23.521  44.719  11.568
12497W        W84823  28.219  44.314   0.817
12498W        W84824  15.089  39.331   3.128
12499W        W84825   7.390  19.967   3.784
12500W        W84826  20.006  33.847   4.666
12501W        W84827  34.585  21.924  13.971
12502W        W84828  26.687   1.026   1.468
12503W        W84829  24.756  15.371   5.363
12504W        W84830  15.654  16.830  12.177
12505W        W84831  39.777  44.693  12.448
12506W        W84832  33.067  14.601   1.407
12507W        W84833  22.083   8.366  12.876
12508W        W84834   0.029  36.765  13.404
12509W        W84835  31.191   6.729  10.715
12510W        W84836  35.159  41.405   4.971
12511W        W84837  43.181   0.600  12.581
12512W        W84838  33.504   8.671  14.525
12513W        W84839  34.065  29.731   3.762
12514W        W84840  19.295  25.251   1.351
12515W        W84841  40.037  19.348  10.748
12516W        W84842  14.934  17.757   0.222
12517W        W84843  33.227  38.984  13.019
12518W        W84844  42.769   8.351   4.395
12519W        W84845  22.058  20.492   2.690
12520W        W84846  36.513  31.633  11.157
12521W        W84847  34.093  35.423   2.845
12522W        W84848  37.148   4.657   3.267
12523W        W84849  29.660  29.417  13.827
12524W        W84850   1.293  37.453  12.484
12525W        W84851  10.986  42.042   1.902
12526W        W84852  10.542  34.469   9.765
12527W        W84853  19.105  24.198   1.520
12528W        W84854  16.445  27.100   0.439
12529W        W84855  16.607  35.855  10.771
12530W        W84856   7.025  25.971  12.421
12531W        W84857  38.890   6.164  12.332
12532W        W84858  30.891   8.821   0.472
12533W        W84859   5.370  40.290  13.589
12534W        W84860  34.411  43.310  14.710
12535W        W84861  18.489  21.100   3.633
12536W        W84862  13.054  41.406  13.873
12537W        W84863  12.949  14.297  10.620
12538W        W84864  26.255  38.616   4.197
12539W        W84865   8.650   4.407  14.865
12540W        W84866  34.869  33.806  14.621
12541W        W84867  14.406  13.878   3.315
12542W        W84868  20.318  29.180   1.292
12543W        W84869  35.948  33.009   2.682
12544W        W84870  16.593   2.675  12.527
12545W        W84871  41.388   8.492   4.595
12546W        W84872  36.078  13.778  14.443
12547W        W84873  17.473  38.816  13.132
12548W        W84874  29.363   2.526  12.025
12549W        W84875   7.827  43.046   2.688
12550W        W84876   8.871  30.800   4.280
12551W        W84877   7.238  24.888  13.354
12552W        W84878   5.699  13.885   2.294
12553W        W84879  36.774  44.200   1.781
12554W        W84880  28.082  10.376  11.720
12555W        W84881  26.956  11.777   0.556
12556W        W84882  35.587  12.268   3.185
12557W        W84883  27.438  37.458   1.728
12558W        W84884  19.243   2.555   4.737
12559W        W84885  43.519  12.217  13.352
12560W        W84886  12.158  36.569  12.599
12561W        W84887   9.476   6.431   4.810
12562W        W84888  28.658  35.303   4.114
12563W        W84889  13.625  36.443   3.744
12564W        W84890  28.935   1.522  13.103
12565W        W84891  23.877  40.043   5.221
12566W        W84892  25.532  40.413   2.442
12567W        W84893  39.315   1.002   1.432
12568W        W84894  21.181  34.607   3.099
12569W        W84895   1.198  40.545   1.239
12570W        W84896  44.899  19.276  13.231
12571W        W84897  43.570  29.529  10.645
12572W        W84898   3.440   7.311   4.840
12573W        W84899  18.965  26.603   5.129
12574W        W84900   8.856  12.069  11.494
12575W        W84901  23.937  21.173   2.806
12576W        W84902  26.281  19.924  12.075
12577W        W84903  42.811  23.151   0.578
12578W        W84904  37.638   7.450  12.257
12579W        W84905  39.964  19.818  12.121
12580W        W84906   0.906  23.831  14.952
12581W        W84907  41.096  12.383   4.174
12582W        W84908   9.586  36.415  10.735
12583W        W84909  30.157   0.814  10.521
12584W        W84910  24.275  38.404   3.719
12585W        W84911   6.212  40.833   0.823
12586W        W84912  32.078  28.288   2.452
12587W        W84913  42.969   3.488  13.748
12588W        W84914   8.875  32.916   4.450
12589W        W84915  39.146   3.575  12.459
12590W        W84916  35.405  17.746  10.621
12591W        W84917  32.886  20.140   1.825
12592W        W84918  40.406  35.003  10.843
12593W        W84919  27.508  39.244  11.535
12594W        W84920   2.778  25.177  10.303
12595W        W84921  18.557  26.985   1.689
12596W        W84922  36.322  14.954  11.036
12597W        W84923  11.380   0.738   4.061
12598W        W84924  44.178  12.769  14.434
12599W        W84925  40.255  34.135   2.213
12600W        W84926  16.862  16.895   3.182
12601W        W84927  36.590  43.763   3.765
12602W        W84928  20.532  17.275   1.886
12603W        W84929  31.030  13.209   0.250
12604W        W84930   7.897  44.202  14.806
12605W        W84931  10.722  24.526   1.389
12606W        W84932   1.840  12.853  13.814
12607W        W84933   6.096   6.933  13.190
12608W        W84934  23.701   1.197  13.330
12609W        W84935  34.119  36.662  10.634
12610W        W84936  27.934  40.510   0.920
12611W        W84937  29.230  11.189   3.721
12612W        W84938  35.014  22.210   2.374
12613W        W84939  29.051   1.455   0.930
12614W        W84940   0.274  36.551  10.735
12615W        W84941  12.288  19.883   0.306
12616W        W84942  23.347  39.247   0.442
12617W        W84943   5.791  19.166  13.969
12618W        W84944   8.553  44.210   0.776
12619W        W84945  18.790   2.803   4.610
12620W        W84946   3.037  39.307  10.654
12621W        W84947  34.805  30.478  14.242
12622W        W84948  13.813  40.762   2.774
12623W        W84949   5.776  14.254   4.667
12624W        W84950   6.888  19.063   3.585
12625W        W84951  17.111   9.397   0.405
12626W        W84952  36.873   0.337  14.916
12627W        W84953   1.268  28.206   2.414
12628W        W84954  13.733  12.595  11.576
12629W        W84955  19.657   0.455  10.920
12630W        W84956  17.134   2.422  12.458
12631W        W84957   6.901   5.631  14.520
12632W        W84958  37.143  25.164  11.066
12633W        W84959  38.094  22.693   2.177
12634W        W84960   6.516  18.499  11.860
12635W        W84961   1.801  25.881   3.696
12636W        W84962  18.552  36.083  12.447
12637W        W84963  42.338  20.961   1.694
12638W        W84964   3.253   1.756  10.973
12639W        W84965  25.062   7.211  13.392
12640W        W84966  43.334   4.897  11.803
12641W        W84967  28.197   0.257   2.249
12642W        W84968  40.813   7.283   0.576
12643W        W84969  25.153   4.215   2.925
12644W        W84970   5.232  33.739  13.094
12645W        W84971  33.183  20.728  10.559
12646W        W84972  16.026  30.859   1.610
12647W        W84973  16.758  21.135  10.721
12648W        W84974  12.746  27.085  14.553
12649W        W84975  17.965  20.478  12.095
12650W        W84976  42.798  27.609  12.525
12651W        W84977  33.436  23.615  11.194
12652W        W84978  37.833  13.177   9.832
12653W        W84979  10.582  25.978   3.780
12654W        W84980  29.020  26.242   1.301
12655W        W84981  25.607   5.167   2.316
12656W        W84982   6.201  10.416  12.612
12657W        W84983  40.744  30.403  12.600
12658W        W84984  29.000  12.181   4.607
12659W        W84985  12.068  31.959   1.351
12660W        W84986  44.312  27.374   0.070
12661W        W84987  31.690  24.669   1.939
12662W        W84988  12.856  24.679   1.793
12663W        W84989  38.391  10.200  10.270
12664W        W84990  25.102   3.544   3.742
12665W        W84991   6.935   1.844  11.792
12666W        W84992  30.546  22.807   0.419
12667W        W84993   6.794   5.892  12.149
12668W        W84994  35.823  35.921  12.379
12669W        W84995   1.021   3.778   2.191
12670W        W84996  37.974  13.265   3.184
12671W        W84997  10.163  26.406  11.535
12672W        W84998  23.600  18.733  11.946
12673W        W84999  29.377  40.520   2.682
12674W        W85000  29.537  10.647  11.042
12675W        W85001  43.410  35.454  13.022
12676W        W85002  23.050  40.487  12.149
12677W        W85003   9.201  36.634  10.431
12678W        W85004   5.180   3.823   1.131
12679W        W85005  30.657   3.963   1.068
12680W        W85006  38.715   5.827  13.832
12681W        W85007  43.273  42.860  14.305
12682W        W85008  38.830  16.356   3.759
12683W        W85009  44.081  44.512  10.785
12684W        W85010  38.444  29.810   1.882
12685W        W85011   4.421  12.662  14.453
12686W        W85012  43.803  13.311  13.368
12687W        W85013  32.426  15.204   0.271
12688W        W85014  15.215  20.710  10.608
12689W        W85015   9.019  29.548   2.594
12690W        W85016   5.063  37.779  12.809
12691W        W85017  33.259  29.196  13.299
12692W        W85018  26.154   9.245  11.408
12693W        W85019  17.146  14.792  11.452
12694W        W85020  27.224  29.023  13.396
12695W        W85021  22.731  41.562  14.885
12696W        W85022  41.445  31.917  10.541
12697W        W85023  27.282   9.176   2.687
12698W        W85024  34.482  24.953  10.755
12699W        W85025  29.526  33.407  13.047
12700W        W85026  10.882  37.419  14.177
12701W        W85027  14.417  37.849   3.662
12702W        W85028   0.366  30.083  10.325
12703W        W85029  43.812  21.081  11.921
12704W        W85030   8.299  42.906   2.841
12705W        W85031   9.956  18.919  13.934
12706W        W85032  41.892   1.714   4.348
12707W        W85033  43.717  39.944   4.684
12708W        W85034  20.177  32.852  10.795
12709W        W85035  22.553   5.635  10.742
12710W        W85036  11.846   3.476   4.603
12711W        W85037  42.860  37.815  11.686
12712W        W85038  25.643  41.024   3.100
12713W        W85039  36.811  18.815  14.170
12714W        W85040   2.207  29.180   3.274
12715W        W85041  13.166   8.156  14.072
12716W        W85042  41.375  38.829   4.601
12717W        W85043  44.342   3.912   1.259
12718W        W85044   6.403  25.545  10.628
12719W        W85045  27.649  15.809  14.906
12720W        W85046   5.774  15.611  12.581
12721W        W85047  23.191  37.850  14.335
12722W        W85048   5.034  38.911  14.176
12723W        W85049   4.276  14.521   3.207
12724W        W85050  12.317  11.926  11.395
12725W        W85051  20.466  42.893  13.528
12726W        W85052  34.349  13.137   4.353
12727W        W85053   9.451  34.535  11.943
12728W        W85054  15.598  37.810   1.415
12729W        W85055  38.048   2.306   4.669
12730W        W85056  12.947  16.655   0.414
12731W        W85057   8.859  28.839  13.455
12732W        W85058  32.040  31.601   1.156
12733W        W85059  23.017   7.289   0.200
12734W        W85060  18.181   0.848   0.778
12735W        W85061  12.649   7.407  10.973
12736W        W85062  24.712  24.004   0.396
12737W        W85063   5.561  19.861  14.739
12738W        W85064  41.374  13.628   2.464
12739W        W85065  32.044  36.983   3.888
12740W        W85066  44.303  28.755  11.075
12741W        W85067   0.909  13.315   3.133
12742W        W85068  14.652   5.283   0.688
12743W        W85069  20.715  11.694  12.342
12744W        W85070  32.444  15.187  11.130
12745W        W85071  17.603   2.194  14.997
12746W        W85072   3.752   9.295   0.045
12747W        W85073  32.652  42.791   0.748
12748W        W85074  29.932  43.201  11.159
12749W        W85075  34.346   9.247  10.522
12750W        W85076   7.849   8.923   0.804
12751W        W85077  31.839  30.696  11.344
12752W        W85078  35.021  42.384   3.973
12753W        W85079  31.847   1.837  14.794
12754W        W85080   6.400   0.222   4.406
12755W        W85081  42.856  42.716   2.510
12756W        W85082  42.810  30.586  10.586
12757W        W85083   9.087  39.200  11.064
12758W        W85084  22.365  25.137   4.995
12759W        W85085  44.071  42.948  11.198
12760W        W85086  25.088  13.368   4.691
12761W        W85087   4.915  30.258  12.378
12762W        W85088  24.440  26.175  12.372
12763W        W85089  13.113   7.153   4.133
12764W        W85090  21.437  20.550  11.674
12765W        W85091  17.805  35.727   0.916
12766W        W85092   1.983  43.092  12.649
12767W        W85093  27.108   3.481   4.172
12768W        W85094  40.915   8.981  13.451
12769W        W85095  15.817  26.909  14.940
12770W        W85096  24.693  30.405  12.796
12771W        W85097  34.782   7.253   2.718
12772W        W85098  41.848  17.786   2.743
12773W        W85099  29.952  17.249   4.225
12774W        W85100  19.821  25.254  13.107
12775W        W85101  32.447  22.973  13.310
12776W        W85102  25.545   2.682  13.895
12777W        W85103  29.583   2.885  14.217
12778W        W85104  38.109  33.587   2.379
12779W        W85105  33.448  29.902  13.346
12780W        W85106   5.333  39.826  13.343
12781W        W85107   6.215   9.605   3.106
12782W        W85108  22.876  41.888   0.280
12783W        W85109  21.728  36.977  10.998
12784W        W85110  33.575  14.095  12.095
12785W        W85111  38.781  36.473  14.523
12786W        W85112   4.019   9.928  11.145
12787W        W85113  10.817  12.390   1.765
12788W        W85114  19.456   6.378  11.578
12789W        W85115   8.197   6.349  11.959
12790W        W85116  17.210  25.943   0.925
12791W        W85117  24.699   6.342  14.896
12792W        W85118  11.854   0.265  13.323
12793W        W85119  37.003  22.065   0.922
12794W        W85120  39.836  14.580  12.968
12795W        W85121   7.123  22.039  10.965
12796W        W85122   9.687  28.556   5.030
12797W        W85123  27.552   4.986   1.339
12798W        W85124  19.160  28.088   3.834
12799W        W85125  27.015  40.332  10.211
12800W        W85126   1.279  12.139   2.765
12801W        W85127  14.679  38.801   3.736
12802W        W85128  21.562   3.596   1.311
12803W        W85129  42.907  39.402   0.444
12804W        W85130   0.400  24.486  12.430
12805W        W85131  44.824  39.081  10.741
12806W        W85132  34.669  39.257  10.450
12807W        W85133   7.547  19.933  14.793
12808W        W85134   5.412  33.373   4.361
12809W        W85135  17.172  36.137   3.657
12810W        W85136   6.331  20.749  12.743
12811W        W85137  20.290  27.554  12.896
12812W        W85138   6.487  26.936   3.178
12813W        W85139   9.013  22.038   2.602
12814W        W85140  33.143   8.317   5.208
12815W        W85141  26.919  21.306  10.636
12816W        W85142  18.692  20.823  10.624
12817W        W85143  16.214   5.442   0.059
12818W        W85144  33.842  32.840   1.895
12819W        W85145  10.922  42.290  11.137
12820W        W85146  23.861  29.912  10.646
12821W        W85147  38.751  12.110  13.462
12822W        W85148  22.983   6.225   1.800
12823W        W85149  14.187  19.106   0.678
12824W        W85150   6.128  40.392   3.253
12825W        W85151  39.403  23.101   3.844
12826W        W85152  23.042   0.175  14.402
12827W        W85153   3.032  15.754   0.278
12828W        W85154   6.756  34.323   4.858
12829W        W85155  19.706   8.926  10.427
12830W        W85156  42.786  18.043   0.738
12831W        W85157  24.746  31.601   2.896
12832W        W85158   2.372  37.363  13.889
12833W        W85159  14.614  18.941   0.974
12834W        W85160  21.482  39.332  11.957
12835W        W85161  18.705  18.016   2.913
12836W        W85162  21.697   7.534  14.696
12837W        W85163   4.960  16.688  13.078
12838W        W85164   6.415   1.169   4.369
12839W        W85165  22.425   6.893   4.229
12840W        W85166  41.095  40.550  11.596
12841W        W85167  44.718  33.051   0.712
12842W        W85168  14.398  12.644   4.533
12843W        W85169  27.483   1.716  13.920
12844W        W85170  25.414  27.802   1.029
12845W        W85171   8.995  10.181   2.680
12846W        W85172  23.121  19.471  11.117
12847W        W85173   6.242  26.738   4.990
12848W        W85174   0.094  33.378  11.323
12849W        W85175  16.125  33.293  13.110
12850W        W85176  26.655  27.876   4.940
12851W        W85177  39.146   2.540   3.240
12852W        W85178  10.195   5.967   4.485
12853W        W85179  22.913  32.987  10.696
12854W        W85180   8.357  29.303  14.334
12855W        W85181   1.843  43.950  11.166
12856W        W85182  33.883  18.160  12.177
12857W        W85183  44.311  22.082  12.431
12858W        W85184  31.640   5.347   3.644
12859W        W85185  41.067  42.871   0.606
12860W        W85186  38.233   1.294   0.903
12861W        W85187  15.895  34.644  14.627
12862W        W85188  32.974  44.416   1.185
12863W        W85189  33.603   0.950   0.434
12864W        W85190  11.862  41.224  10.694
12865W        W85191  12.293  36.021  10.693
12866W        W85192  10.095  25.080   0.337
12867W        W85193  20.618  10.262  11.499
12868W        W85194  33.346  11.766   1.254
12869W        W85195  17.641  42.970   1.938
12870W        W85196  29.185  25.765   2.997
12871W        W85197   5.136  42.058  14.464
12872W        W85198  26.568   4.285  11.171
12873W        W85199  23.169  17.838  12.597
12874W        W85200  36.749  27.206   3.431
12875W        W85201   0.838  18.842  11.828
12876W        W85202   5.799  41.839   1.198
12877W        W85203   7.394  19.982  11.626
12878W        W85204  22.254  38.681  11.969
12879W        W85205  36.008  17.096  11.118
12880W        W85206   1.752  34.319   3.137
12881W        W85207  32.073  41.287   3.855
12882W        W85208  38.354  17.112   4.187
12883W        W85209   4.812  33.304   1.694
12884W        W85210  17.799  28.289   4.186
12885W        W85211  22.640   8.977  13.985
12886W        W85212  42.939  15.345   1.272
12887W        W85213  42.943   7.985   0.767
12888W        W85214  29.958  23.522  14.483
12889W        W85215  13.333   9.795  10.727
12890W        W85216  36.037   4.886  11.582
12891W        W85217  28.655  17.758  12.040
12892W        W85218  10.664  27.014   1.628
12893W        W85219   9.171  42.221  14.781
12894W        W85220   2.385  27.029  12.398
12895W        W85221  35.358  44.714  12.624
12896W        W85222  18.261  26.729   2.750
12897W        W85223  28.536  26.722   0.874
12898W        W85224  15.303  29.146   0.238
12899W        W85225  31.524  30.836   0.180
12900W        W85226  24.168  38.161  10.096
12901W        W85227  11.601  38.966  13.511
12902W        W85228   5.802  32.585   2.147
12903W        W85229  28.091   0.421  11.246
12904W        W85230   2.995   8.727  11.914
12905W        W85231   5.941  43.871  13.928
12906W        W85232  11.149   6.145  11.187
12907W        W85233  25.478  28.046   1.493
12908W        W85234  24.281   8.739   0.925
12909W        W85235  14.617  34.346   3.320
12910W        W85236  43.793  29.916   0.854
12911W        W85237   0.123   5.519   1.490
12912W        W85238  10.671  31.717   0.271
12913W        W85239  26.982  26.205   1.874
12914W        W85240   0.966   6.718   0.727
12915W        W85241  23.463  30.470  14.966
12916W        W85242  41.065  14.136   1.247
12917W        W85243  35.805   4.951  14.789
12918W        W85244  19.978   9.734  11.487
12919W        W85245  35.915  20.492  13.255
12920W        W85246   6.290   6.245   2.459
12921W        W85247   7.764   7.191  14.299
12922W        W85248   9.105  38.931  11.499
12923W        W85249  23.197  38.369   0.796
12924W        W85250   3.786  23.613  10.232
12925W        W85251   6.682  25.132   2.604
12926W        W85252  43.484   9.289  14.865
12927W        W85253  10.899  15.590   1.377
12928W        W85254  26.506  35.828  14.474
12929W        W85255   1.339  19.607  13.370
12930W        W85256  28.423   9.803  14.344
12931W        W85257  44.050  35.628   3.216
12932W        W85258  37.794  27.063  12.519
12933W        W85259  30.999   5.382  14.919
12934W        W85260  11.697  38.715  14.260
12935W        W85261  23.744  23.925   2.865
12936W        W85262  26.082  26.360   1.817
12937W        W85263  28.098  31.886  14.764
12938W        W85264  29.685  18.796   2.340
12939W        W85265   2.779  26.923  14.228
12940W        W85266  43.788  21.627   1.851
12941W        W85267  42.422   4.495   0.432
12942W        W85268  24.661   0.149   2.161
12943W        W85269  20.818  25.912   3.317
12944W        W85270  12.268  11.703   1.509
12945W        W85271  36.420  33.424   0.839
12946W        W85272  29.013  43.326   1.755
12947W        W85273   8.326  42.715  13.395
12948W        W85274  38.430   6.403   3.299
12949W        W85275  26.072   1.170  13.321
12950W        W85276   5.192  14.618   3.333
12951W        W85277  36.447  36.714  10.390
12952W        W85278   7.449  12.314   4.026
12953W        W85279  17.858   0.260   3.007
12954W        W85280  38.809  27.812   1.451
12955W        W85281  24.444  17.287  11.517
12956W        W85282  40.523  42.697   0.945
12957W        W85283  16.215  39.838  10.253
12958W        W85284  42.555  20.941  14.272
12959W        W85285  13.380   6.211  12.089
12960W        W85286   8.198  20.640  10.928
12961W        W85287  24.775   6.425   4.675
12962W        W85288   5.779  36.968   4.869
12963W        W85289   1.824  31.129  12.766
12964W        W85290  21.025  34.162  10.999
12965W        W85291  19.638  31.229  14.523
12966W        W85292  32.157  35.473  13.688
12967W        W85293  11.716   4.706  13.135
12968W        W85294   3.305  23.630   2.778
12969W        W85295  19.003  37.572  13.259
12970W        W85296  13.597  14.138  14.707
12971W        W85297  28.401  41.439   2.051
12972W        W85298  24.734  30.886   1.411
12973W        W85299  21.621  36.527   1.419
12974W        W85300  10.336  38.762  11.242
12975W        W85301  29.803  11.089   0.335
12976W        W85302  28.644   5.630   3.818
12977W        W85303   4.941  29.541  12.113
12978W        W85304  32.822   6.908  12.858
12979W        W85305   0.890  43.817   2.774
12980W        W85306  18.212  36.887  13.994
12981W        W85307   8.113   3.921  13.536
12982W        W85308  10.621   7.569  12.467
12983W        W85309  41.970  11.102  14.414
12984W        W85310  30.966  37.307   0.361
12985W        W85311   7.751   5.823   3.258
12986W        W85312   3.094   8.463  13.033
12987W        W85313  25.445  29.042   4.253
12988W        W85314   0.939   4.355  10.674
12989W        W85315   3.252  10.017  10.272
12990W        W85316  29.496  17.274  14.378
12991W        W85317  28.256  31.785   1.085
12992W        W85318  17.590  43.510  10.607
12993W        W85319   3.390  15.160   1.665
12994W        W85320   2.708  28.065  13.503
12995W        W85321  22.380  40.721   2.248
12996W        W85322  26.658  10.658  11.496
12997W        W85323  35.483   0.263  10.779
12998W        W85324  22.403   3.287  12.488
12999W        W85325  44.457  24.021  11.065
13000W        W85326  32.404  19.732   0.886
13001W        W85327  42.614  36.814  11.254
13002W        W85328   5.787  37.777   3.245
13003W        W85329   8.121  12.428  11.648
13004W        W85330   2.032  22.398   4.628
13005W        W85331  21.137  30.212  14.252
13006W        W85332  22.045  23.661  12.829
13007W        W85333  40.307   4.624   4.588
13008W        W85334  12.671  29.213   1.259
13009W        W85335  25.384  13.161   1.730
13010W        W85336  20.125  19.107   0.869
13011W        W85337  20.649   2.230   3.185
13012W        W85338   9.110  35.986  12.501
13013W        W85339  22.264   1.029  10.737
13014W        W85340  40.937  15.207   4.919
13015W        W85341  44.021  18.764   2.315
13016W        W85342  38.845  38.092  14.773
13017W        W85343   6.621  35.181   3.899
13018W        W85344   0.288  42.431   1.300
13019W        W85345  18.734   2.245   3.733
13020W        W85346  22.947  16.182   1.391
13021W        W85347  31.089  23.923  14.939
13022W        W85348  28.854  36.935   3.205
13023W        W85349   1.465  40.593   2.651
13024W        W85350   4.038  43.028  12.379
13025W        W85351   6.764  17.703  11.461
13026W        W85352  38.592  27.565   3.184
13027W        W85353  41.386  24.498  12.104
13028W        W85354   4.926  13.007   3.840
13029W        W85355  27.007  20.211  14.515
13030W        W85356  22.809  15.450  11.990
13031W        W85357  44.046  32.123  12.384
13032W        W85358  29.224  17.469   3.756
13033W        W85359   0.030  41.907   4.185
13034W        W85360  10.170  22.726   4.587
13035W        W85361  36.167  31.108  14.806
13036W        W85362  26.617  38.449  13.451
13037W        W85363  35.386  26.572  11.688
13038W        W85364  37.934  31.024  12.961
13039W        W85365  22.080  42.962  14.171
13040W        W85366  12.929   4.730   0.473
13041W        W85367  14.553  29.100  11.132
13042W        W85368  19.158   6.771  12.579
13043W        W85369   5.441   7.949   0.026
13044W        W85370  44.026  42.885   3.161
13045W        W85371  37.399  12.588   0.843
13046W        W85372  43.675  44.366  10.441
13047W        W85373  18.329  40.115   3.620
13048W        W85374   2.423  11.450   4.539
13049W        W85375   7.045  43.413   3.709
13050W        W85376  22.410  26.220   2.852
13051W        W85377  32.554  39.277  12.117
13052W        W85378  41.823  25.078   1.289
13053W        W85379  42.484  14.723  11.052
13054W        W85380   2.317   7.808   1.915
13055W        W85381  17.190  41.313   3.405
13056W        W85382  36.907  43.267  14.265
13057W        W85383  43.548  36.982   4.950
13058W        W85384  11.410  13.466  12.443
13059W        W85385  24.536   4.443  14.244
13060W        W85386  14.230  10.879   4.125
13061W        W85387   5.917   0.054  13.437
13062W        W85388   8.608   9.465   3.435
13063W        W85389  22.493  35.078  13.412
13064W        W85390   3.239  40.118  12.044
13065W        W85391  28.764  21.967   2.636
13066W        W85392  22.034  31.267  10.438
13067W        W85393  16.891   0.944   1.874
13068W        W85394  29.600  40.829  12.874
13069W        W85395  23.674  27.726  12.042
13070W        W85396  14.678  30.661   1.482
13071W        W85397  42.912  15.527   4.928
13072W        W85398   8.860  15.262  12.746
13073W        W85399  28.039  30.383  13.435
13074W        W85400  36.000   5.616  10.783
13075W        W85401   7.747  35.441   2.793
13076W        W85402  28.109  39.357  14.244
13077W        W85403   0.753  24.302   0.002
13078W        W85404  15.031  31.109   0.745
13079W        W85405  43.095   5.849  13.684
13080W        W85406   6.066  33.086   3.610
13081W        W85407  37.942   2.947  13.778
13082W        W85408  34.981  33.562   5.645
13083W        W85409   6.666  39.824  11.151
13084W        W85410  17.640  41.492   3.226
13085W        W85411  37.962  21.479  10.682
13086W        W85412  34.408  17.354   1.487
13087W        W85413   4.348  43.836  10.725
13088W        W85414  36.621  13.920   0.337
13089W        W85415  14.594   0.412  14.330
13090W        W85416  43.290  12.185   4.852
13091W        W85417  12.732  13.139   1.805
13092W        W85418  42.722  29.826   4.539
13093W        W85419  11.197  15.559   3.301
13094W        W85420  20.295  38.499  12.945
13095W        W85421  34.830  28.423  14.431
13096W        W85422   7.382  29.024  14.595
13097W        W85423  13.279  19.378   4.964
13098W        W85424  12.190   6.726  13.476
13099W        W85425   3.260  28.934   4.593
13100W        W85426  39.714   6.263  14.983
13101W        W85427   0.896  16.106  10.752
13102W        W85428   3.585   4.784  12.365
13103W        W85429   3.820  23.623   2.741
13104W        W85430  22.122  15.482   3.736
13105W        W85431  15.842  33.128  14.422
13106W        W85432  29.390  23.874   0.528
13107W        W85433  11.160   8.703   4.920
13108W        W85434   7.141  25.742   2.772
13109W        W85435   1.851  14.216   1.421
13110W        W85436  20.902  20.812   1.963
13111W        W85437   6.931  18.541   3.620
13112W        W85438  44.807   7.225  12.965
13113W        W85439  41.996  27.065   4.148
13114W        W85440  41.584  44.871  10.384
13115W        W85441  22.110   5.356   4.638
13116W        W85442  25.584   5.361  12.428
13117W        W85443  43.318  42.482  13.923
13118W        W85444   6.234  20.335   0.766
13119W        W85445  22.555  20.978  12.485
13120W        W85446  14.582   9.889  11.030
13121W        W85447  16.859  15.743   4.457
13122W        W85448  43.627  12.727  10.958
13123W        W85449  22.851   2.197   0.111
13124W        W85450  27.668  15.257  14.717
13125W        W85451  42.388  23.644  10.466
13126W        W85452  10.400  44.159  11.926
13127W        W85453  29.335  15.339   1.345
13128W        W85454  25.458   8.781   4.439
13129W        W85455  14.178  22.191   4.624
13130W        W85456  30.947  11.826  14.033
13131W        W85457  25.083  44.078  13.956
13132W        W85458  26.426   7.820   1.371
13133W        W85459  25.574  28.693   0.718
13134W        W85460  17.105  32.645  10.527
13135W        W85461  22.168   5.955  10.546
13136W        W85462   2.547  13.923   2.781
13137W        W85463  39.912  27.265  11.934
13138W        W85464  27.421   4.298   3.786
13139W        W85465  11.239  31.066   2.652
13140W        W85466  41.428  15.417  14.937
13141W        W85467   4.954  13.574  13.386
13142W        W85468   4.169  23.138  11.846
13143W        W85469  14.168  16.787  10.725
13144W        W85470  22.241  33.807   1.384
13145W        W85471  40.602  40.765  11.608
13146W        W85472  28.095  16.719   2.391
13147W        W85473  13.387  43.080  10.662
13148W        W85474   9.209  21.692   4.687
13149W        W85475  40.754  32.787   0.475
13150W        W85476  10.360  19.377  10.474
13151W        W85477  34.156  44.246  14.520
13152W        W85478  25.697  26.373   0.628
13153W        W85479  26.604  15.811   1.355
13154W        W85480  19.712  31.326   2.409
13155W        W85481  37.345  10.799  11.998
13156W        W85482  39.322  34.732   3.186
13157W        W85483  37.295  29.502   0.821
13158W        W85484   7.156  30.868  11.062
13159W        W85485   2.507   8.325  12.460
13160W        W85486   7.659  39.392  12.362
13161W        W85487   7.402  21.289   3.402
13162W        W85488  32.981  22.120  11.522
13163W        W85489  11.809  26.575   0.495
13164W        W85490  16.543  17.328  12.583
13165W        W85491  29.965  18.236  11.585
13166W        W85492   7.790  12.043  13.351
13167W        W85493  18.972  28.547   3.786
13168W        W85494  12.404   0.578  12.489
13169W        W85495   7.462  20.553   4.633
13170W        W85496  20.056  44.027  14.337
13171W        W85497  16.229  28.915  12.535
13172W        W85498  20.259  33.063  13.795
13173W        W85499  37.536  32.754   2.138
13174W        W85500  38.443  12.419   9.827
13175W        W85501  37.939   2.298   2.711
13176W        W85502  26.032  12.884   3.473
13177W        W85503  10.373  38.193  14.249
13178W        W85504  38.457  34.088   1.370
13179W        W85505  24.489   0.344   2.779
13180W        W85506  18.551  31.377  12.394
13181W        W85507  25.052  10.172  14.469
13182W        W85508   0.355   5.802  12.338
13183W        W85509  26.022  33.874   2.452
13184W        W85510  44.041  13.209  14.724
13185W        W85511   6.875  10.156  11.388
13186W        W85512  25.515  23.233   2.437
13187W        W85513   8.843   7.719  14.765
13188W        W85514   6.644  16.567   2.681
13189W        W85515   3.472  17.678  11.923
13190W        W85516  10.859  24.190   3.171
13191W        W85517  24.768  25.633  11.391
13192W        W85518  29.534  17.243  13.544
13193W        W85519  43.961  31.615  12.365
13194W        W85520  39.554  37.239   3.865
13195W        W85521  35.653   9.831  10.705
13196W        W85522  28.080  22.649  12.111
13197W        W85523  27.496  31.117  13.944
13198W        W85524  23.205  14.581  11.971
13199W        W85525  39.955   6.732  14.934
13200W        W85526  25.947  39.415  12.854
13201W        W85527   5.016   4.411  10.597
13202W        W85528  33.073  33.995  14.533
13203W        W85529  32.919  21.277  11.786
13204W        W85530  39.080   7.981   0.421
13205W        W85531  33.957   8.055  13.044
13206W        W85532  14.273  31.682  10.707
13207W        W85533  31.209  12.953  13.286
13208W        W85534  13.560  19.485   1.397
13209W        W85535  26.050  18.975   1.363
13210W        W85536   2.319  23.308  10.882
13211W        W85537  11.196  15.286  14.449
13212W        W85538   0.463  42.909   0.489
13213W        W85539  44.279  23.717  10.654
13214W        W85540  33.143  13.580  11.567
13215W        W85541  33.847  26.636   9.941
13216W        W85542  12.801   6.763  14.818
13217W        W85543  44.878  38.830  11.180
13218W        W85544  18.561  17.507   4.182
13219W        W85545   2.101  41.948   0.244
13220W        W85546  43.880  32.701   4.091
13221W        W85547  13.057  27.076   1.813
13222W        W85548   5.482  33.047  10.976
13223W        W85549  11.682  23.527  10.592
13224W        W85550  29.104  26.620  12.316
13225W        W85551   3.474  44.310  14.411
13226W        W85552   1.195  31.647  14.712
13227W        W85553  29.872  20.554   1.717
13228W        W85554  26.925  12.061  12.833
13229W        W85555  16.298  31.574  12.415
13230W        W85556  27.406  33.062   0.970
13231W        W85557  12.622  37.823  10.490
13232W        W85558  25.448  13.218   0.315
13233W        W85559   4.472   9.860  11.633
13234W        W85560  11.345  32.697   3.732
13235W        W85561  20.129  29.052   3.659
13236W        W85562  35.120  38.785  14.873
13237W        W85563  34.342   1.768   3.747
13238W        W85564  17.109  41.662  10.284
13239W        W85565   6.188  41.392  14.850
13240W        W85566  42.840  23.675  14.244
13241W        W85567  35.088  37.647   4.183
13242W        W85568  35.254  37.646  12.699
13243W        W85569  26.541  32.009   2.803
13244W        W85570  35.121  14.219  13.371
13245W        W85571  28.957  16.382   1.378
13246W        W85572  34.456  41.549   0.771
13247W        W85573  44.847  28.204   0.846
13248W        W85574   5.799   8.160   1.695
13249W        W85575  35.273  30.555  14.045
13250W        W85576   8.323  41.974   1.842
13251W        W85577  22.216   4.582  13.998
13252W        W85578  22.119  15.298  12.604
13253W        W85579  35.480   9.707   4.676
13254W        W85580  42.484  28.969   2.773
13255W        W85581  18.088  31.521  12.565
13256W        W85582  41.243  17.006   3.636
13257W        W85583  43.378  34.070  10.939
13258W        W85584  38.391   2.894  12.355
13259W        W85585  14.043  28.956  11.146
13260W        W85586  41.433  22.276   4.129
13261W        W85587  14.163  37.395   1.824
13262W        W85588  43.384  26.669  13.904
13263W        W85589  28.542  22.429   4.144
13264W        W85590  14.206  39.430   2.606
13265W        W85591  18.103   1.228  10.372
13266W        W85592  33.450   3.109  10.271
13267W        W85593  20.084  42.909   0.958
13268W        W85594  39.858  29.745   3.198
13269W        W85595   0.084  28.865  14.798
13270W        W85596  29.872  14.109  13.617
13271W        W85597  33.646  24.043  11.936
13272W        W85598  30.149   2.800   2.771
13273W        W85599  20.768   0.069  11.540
13274W        W85600  30.964  39.523   1.303
13275W        W85601   2.667  22.626   0.909
13276W        W85602   2.961  37.654  14.420
13277W        W85603  10.875   3.048  13.483
13278W        W85604  17.824  41.872   2.898
13279W        W85605  43.902  24.623  10.812
13280W        W85606  12.609  21.119  10.666
13281W        W85607  27.110  27.000   0.835
13282W        W85608   2.512  15.132  13.036
13283W        W85609  41.252  14.109  13.587
13284W        W85610   4.966  23.727  14.412
13285W        W85611  24.887  26.529   4.999
13286W        W85612  36.479  41.295  12.087
13287W        W85613  38.864  29.568   5.012
13288W        W85614  27.146   7.340   2.197
13289W        W85615  24.598  35.510  11.925
13290W        W85616  12.841  31.524   1.326
13291W        W85617   5.410  25.568   0.646
13292W        W85618   8.264  14.389   0.385
13293W        W85619  35.120  29.248  14.286
13294W        W85620  39.635  25.690   0.259
13295W        W85621   7.415  26.181   2.781
13296W        W85622  26.145  23.471   4.442
13297W        W85623  37.866  19.149   4.776
13298W        W85624  17.660   8.332   0.956
13299W        W85625   4.341  20.462   2.673
13300W        W85626   8.453  40.543  11.214
13301W        W85627  14.645  43.388   1.344
13302W        W85628  10.217  41.573  13.574
13303W        W85629   7.262  38.438  11.038
13304W        W85630  23.197  41.901   0.802
13305W        W85631  14.572   0.927  10.325
13306W        W85632  30.652  44.292   4.210
13307W        W85633   2.755   8.207  13.972
13308W        W85634  32.596   6.754   3.274
13309W        W85635  15.276  41.051   2.866
13310W        W85636  27.761  26.492   4.925
13311W        W85637  30.023  20.989   3.266
13312W        W85638   7.378  34.320  11.087
13313W        W85639  38.462   0.685   0.385
13314W        W85640  14.273  23.163  11.657
13315W        W85641  36.539  38.418   1.792
13316W        W85642  27.252  16.333   0.895
13317W        W85643  12.345  10.812   3.902
13318W        W85644  13.626  34.069  11.929
13319W        W85645  27.949  41.613   3.278
13320W        W85646  16.339   7.356  13.900
13321W        W85647  39.688  18.972  11.965
13322W        W85648  13.666   7.132   1.308
13323W        W85649  42.071  37.066  14.810
13324W        W85650  11.347   3.754  11.310
13325W        W85651  28.110  26.408   0.923
13326W        W85652  16.223  10.666  12.917
13327W        W85653  38.239  21.609   2.237
13328W        W85654  38.617   9.859  13.959
13329W        W85655  19.043  33.405   2.105
13330W        W85656  26.621   5.630   4.672
13331W        W85657  13.266  20.777   3.044
13332W        W85658  40.817  28.922   1.136
13333W        W85659  36.123  18.134   2.331
13334W        W85660  26.189  44.403  13.745
13335W        W85661  12.632   1.900  12.998
13336W        W85662  22.700  25.543   0.931
13337W        W85663   2.825  28.053   1.301
13338W        W85664  17.664  32.412   2.186
13339W        W85665  22.483  29.656  12.758
13340W        W85666  44.751  39.956  12.112
13341W        W85667  17.641   3.395  14.295
13342W        W85668  30.000  11.135   4.807
13343W        W85669  23.514  22.943   1.439
13344W        W85670  40.816  34.933  11.151
13345W        W85671   8.554  39.566   2.269
13346W        W85672  22.406  16.367   3.680
13347W        W85673  11.766  13.628   0.924
13348W        W85674  34.902  18.572   1.799
13349W        W85675  23.205  31.238  10.594
13350W        W85676  25.972  19.568  12.772
13351W        W85677  20.958  41.675  13.027
13352W        W85678  25.904  23.253  12.346
13353W        W85679  14.917   4.300   4.645
13354W        W85680  41.099  38.857   1.768
13355W        W85681  32.980   0.007   0.406
13356W        W85682  17.516   3.961  12.381
13357W        W85683  18.663   0.365  13.839
13358W        W85684  19.166  31.464  11.108
13359W        W85685  33.055  33.831  11.090
13360W        W85686   4.399   4.990   4.566
13361W        W85687  38.605   2.179   3.149
13362W        W85688  43.191  38.210   2.790
13363W        W85689  23.960   6.583   0.883
13364W        W85690  28.164   9.321  14.320
13365W        W85691  17.593   3.311  10.524
13366W        W85692  33.616   3.676  11.985
13367W        W85693  44.489  34.214  10.296
13368W        W85694  42.452  17.684   2.422
13369W        W85695  15.126  35.972   4.698
13370W        W85696  15.207   2.479  14.785
13371W        W85697   2.358  10.198   4.100
13372W        W85698  29.956  15.404  13.445
13373W        W85699   2.711   5.454  14.681
13374W        W85700  23.533  15.678   2.807
13375W        W85701  25.202  12.103   2.267
13376W        W85702   3.781  43.063  13.892
13377W        W85703  20.048  33.878   0.336
13378W        W85704  25.151  20.543   0.513
13379W        W85705  13.417  18.709  11.532
13380W        W85706  18.810  29.135  11.496
13381W        W85707  39.154  13.027   2.749
13382W        W85708   2.740   3.885   1.250
13383W        W85709  23.018   1.990  12.048
13384W        W85710  27.215  36.225  11.987
13385W        W85711  15.385  29.205   1.433
13386W        W85712  21.331   5.767  13.843
13387W        W85713   3.770  32.115   3.652
13388W        W85714   8.895   1.311   1.839
13389W        W85715  35.657  21.696  14.934
13390W        W85716   6.980  26.606   4.132
13391W        W85717   4.215   6.733  11.355
13392W        W85718  19.722  27.700   2.365
13393W        W85719   5.372  37.940   3.540
13394W        W85720  38.824   0.184  11.348
13395W        W85721  14.371   4.891  10.657
13396W        W85722   7.140   2.813   1.823
13397W        W85723  24.421  14.232  14.252
13398W        W85724  22.737  36.374  12.077
13399W        W85725  17.131   4.786   1.840
13400W        W85726  29.582   8.851  13.052
13401W        W85727   7.292  32.570   1.832
13402W        W85728  41.906  31.048  11.546
13403W        W85729   8.904  35.097   0.309
13404W        W85730  15.827  10.716  12.570
13405W        W85731  31.999  44.332   5.179
13406W        W85732   5.307  26.159   1.258
13407W        W85733  30.841  21.239  10.343
13408W        W85734   4.807  27.126   2.791
13409W        W85735   5.494   4.424  12.879
13410W        W85736   9.278  39.058   2.110
13411W        W85737  26.220  21.457  14.807
13412W        W85738   0.237   6.305  12.457
13413W        W85739  22.929  39.301  12.025
13414W        W85740   1.807   2.536   0.279
13415W        W85741  33.378  24.198   1.925
13416W        W85742  12.651  13.138   1.272
13417W        W85743  42.778  14.868   2.178
13418W        W85744   8.243  34.794  12.860
13419W        W85745   9.753  18.790  10.734
13420W        W85746  14.020  32.689  14.400
13421W        W85747   2.438  14.302   4.039
13422W        W85748  10.342   3.402   3.365
13423W        W85749  17.202  27.650  11.695
13424W        W85750   1.405  37.959   2.461
13425W        W85751  40.525  43.629   3.225
13426W        W85752  18.254   0.270  12.437
13427W        W85753   3.093  29.315  11.771
13428W        W85754   7.367  33.183   4.099
13429W        W85755  43.052   3.505   0.401
13430W        W85756  27.417  12.186  14.874
13431W        W85757  22.524  36.622   0.384
13432W        W85758  28.082  38.304   2.778
13433W        W85759   2.983  19.648  11.187
13434W        W85760  21.808  23.569  14.222
13435W        W85761  44.481   0.486   1.768
13436W        W85762   5.289  30.013   0.231
13437W        W85763  29.209   9.007   0.328
13438W        W85764  41.384   8.639   1.243
13439W        W85765   1.404  17.137  12.669
13440W        W85766  32.105  44.984  14.479
13441W        W85767  34.703  10.667  14.999
13442W        W85768  17.642  39.707  13.709
13443W        W85769   9.570  24.092   4.183
13444W        W85770  12.610  35.227  13.426
13445W        W85771  16.664  26.352  11.765
13446W        W85772  28.157  39.934  10.648
13447W        W85773   5.360   0.664  11.060
13448W        W85774  27.114   1.801  12.567
13449W        W85775  11.574  35.843  13.335
13450W        W85776  18.844   3.967   4.967
13451W        W85777   1.303  29.466   1.847
13452W        W85778   7.708  11.745  12.878
13453W        W85779  19.338  23.796   2.295
13454W        W85780  38.798  35.906  14.020
13455W        W85781  31.093  36.153  13.590
13456W        W85782  40.512  36.519   1.098
13457W        W85783  25.944  15.717  11.863
13458W        W85784  44.253  16.625   2.748
13459W        W85785   8.990  28.683   1.671
13460W        W85786  33.984  43.456  14.978
13461W        W85787  26.884  35.467  11.183
13462W        W85788   0.773  29.174   3.340
13463W        W85789  38.422  41.390   3.295
13464W        W85790  20.539  17.714   2.798
13465W        W85791  42.302  15.759   4.155
13466W        W85792  18.746  43.230   0.430
13467W        W85793   3.786  39.556  14.959
13468W        W85794  19.022  22.236   2.259
13469W        W85795   5.448  31.450   3.302
13470W        W85796  22.795  30.967  12.375
13471W        W85797  27.081  23.035  10.772
13472W        W85798  36.596  35.817  13.974
13473W        W85799  34.152  39.923  13.393
13474W        W85800  14.540  15.498  11.648
13475W        W85801  31.803   0.232   1.141
13476W        W85802  23.324  44.972   4.573
13477W        W85803  34.871  36.579  13.951
13478W        W85804   6.137  14.806   1.211
13479W        W85805   2.370  36.069   3.210
13480W        W85806  25.502  26.159  11.548
13481W        W85807  11.697  36.254  10.801
13482W        W85808  34.614   8.349   3.202
13483W        W85809  42.089  44.302   2.787
13484W        W85810   0.453  36.312  11.680
13485W        W85811  25.193  17.833   0.885
13486W        W85812  43.389  13.958  10.234
13487W        W85813  35.038  38.635  12.913
13488W        W85814  30.117  44.184   1.872
13489W        W85815  28.662   6.176  14.397
13490W        W85816  35.491  32.321   1.751
13491W        W85817  19.064  22.996   1.171
13492W        W85818  27.470   2.882   1.839
13493W        W85819  20.952  34.876   0.773
13494W        W85820  33.114  28.466   4.346
13495W        W85821   6.806  21.404   2.684
13496W        W85822  19.820   9.216  14.861
13497W        W85823   7.812  28.026   3.583
13498W        W85824  24.103  39.254   2.264
13499W        W85825  14.353   7.795   2.305
13500W        W85826  24.543   6.887   4.777
13501W        W85827  12.610   1.344  12.930
13502W        W85828   3.408  21.733  14.052
13503W        W85829  25.946  34.839  13.844
13504W        W85830   9.352  29.831   2.261
13505W        W85831  25.810   6.597  11.159
13506W        W85832   0.742  14.353  10.641
13507W        W85833  38.831  23.668   3.643
13508W        W85834  17.541  15.960   4.053
13509W        W85835   3.850  42.821  11.948
13510W        W85836  12.618  38.435   2.921
13511W        W85837  15.314  34.276   0.727
13512W        W85838  19.356  16.168  13.539
13513W        W85839  14.839   7.626   2.386
13514W        W85840  16.179   2.381  10.521
13515W        W85841   1.392  23.765   0.046
13516W        W85842  35.864  41.146  11.499
13517W        W85843  39.922  23.289  11.894
13518W        W85844  25.725  17.295   4.547
13519W        W85845  24.468  22.434   0.277
13520W        W85846  32.704  44.670   0.073
13521W        W85847   9.207   7.348  10.741
13522W        W85848  44.051  14.763  13.479
13523W        W85849  44.834  13.122   3.239
13524W        W85850  30.514  24.627  11.617
13525W        W85851   1.316  19.317  12.795
13526W        W85852   2.905  33.881   2.852
13527W        W85853  24.482  32.003   2.676
13528W        W85854  13.817   8.973   0.253
13529W        W85855  15.672  36.467  10.849
13530W        W85856  32.716  27.536  12.632
13531W        W85857  25.706  16.867   2.280
13532W        W85858   2.244  28.639   3.851
13533W        W85859   8.238   7.691   1.784
13534W        W85860  33.384   0.331  10.741
13535W        W85861  13.241  10.627   2.899
13536W        W85862  13.201  22.742  14.767
13537W        W85863  32.223  35.375  14.179
13538W        W85864  23.028  36.180  11.657
13539W        W85865  24.064  34.769   4.014
13540W        W85866  11.669  19.327   3.138
13541W        W85867  32.610  15.780   4.890
13542W        W85868  38.935  22.996  11.920
13543W        W85869  32.973  22.245   4.536
13544W        W85870  23.178  12.570   2.426
13545W        W85871   9.383  20.667   0.419
13546W        W85872  22.509  22.479  13.408
13547W        W85873  18.739   7.288  14.805
13548W        W85874  12.165  42.534   1.209
13549W        W85875  38.571  10.372  13.783
13550W        W85876  27.953   0.774   2.315
13551W        W85877  27.488  28.704   0.758
13552W        W85878  36.401  15.309  11.376
13553W        W85879   6.948  24.399   0.027
13554W        W85880  28.847  25.155  12.118
13555W        W85881  17.344   4.444  12.508
13556W        W85882  35.652  27.417  14.548
13557W        W85883  17.674  31.153  12.846
13558W        W85884  44.401  23.317   1.838
13559W        W85885  26.953  11.763   3.869
13560W        W85886   6.881   5.249  11.422
13561W        W85887   0.859  20.233  10.969
13562W        W85888  23.539   3.670   4.131
13563W        W85889  43.412  34.050  10.427
13564W        W85890   0.881  28.652   2.216
13565W        W85891   4.654   9.012   0.467
13566W        W85892  41.387  16.868  10.453
13567W        W85893  12.916  21.079  14.945
13568W        W85894  29.974  24.551   4.095
13569W        W85895  27.987  26.343  13.249
13570W        W85896   2.379  35.726   0.914
13571W        W85897   9.768  37.510   1.512
13572W        W85898  37.825  30.752   1.401
13573W        W85899  16.572  18.661   0.944
13574W        W85900   3.321   3.344   2.664
13575W        W85901  43.843  25.494   1.766
13576W        W85902  10.353  22.680   1.848
13577W        W85903  34.352  35.574   3.266
13578W        W85904  12.242   0.670   2.683
13579W        W85905  12.776  35.446  14.467
13580W        W85906  22.215  37.806  10.972
13581W        W85907  25.803  20.761  13.310
13582W        W85908   5.221   9.426   2.680
13583W        W85909   4.798  23.186   3.112
13584W        W85910   4.937   7.247  14.349
13585W        W85911  36.118  13.796   0.336
13586W        W85912  15.625  30.510  12.426
13587W        W85913  29.542   2.058   0.784
13588W        W85914  42.276  43.486   4.052
13589W        W85915  27.410  20.616  13.894
13590W        W85916  28.096  40.019  14.906
13591W        W85917  32.034  39.163  12.211
13592W        W85918   2.805  10.784  13.961
13593W        W85919   1.715  39.880  10.705
13594W        W85920  37.419  36.602  11.198
13595W        W85921  10.467  20.003   3.253
13596W        W85922  33.990  29.158  11.669
13597W        W85923  33.531  41.074  14.981
13598W        W85924  16.638  29.060  13.432
13599W        W85925  22.668  18.089   4.930
13600W        W85926  33.917   9.188  12.469
13601W        W85927  10.737   9.456  14.549
13602W        W85928  38.029  23.199  12.413
13603W        W85929  33.121  33.724   3.849
13604W        W85930   4.834  17.068   2.912
13605W        W85931  37.876  28.102   1.209
13606W        W85932  11.312  24.166  13.805
13607W        W85933  21.277  13.068  13.668
13608W        W85934  41.096   5.971  11.174
13609W        W85935   1.795  27.479   2.702
13610W        W85936  33.435  34.659  13.582
13611W        W85937  13.852  16.287  12.535
13612W        W85938  39.908  44.091  12.923
13613W        W85939  40.021  43.493   0.501
13614W        W85940  24.491  31.093  13.276
13615W        W85941   0.628  41.600  10.327
13616W        W85942  40.463  25.254  14.231
13617W        W85943  33.967  42.437  12.641
13618W        W85944  32.066  12.131   0.767
13619W        W85945  29.448  41.545   0.950
13620W        W85946  33.783  32.111   2.673
13621W        W85947  12.129  12.535   4.212
13622W        W85948   7.693  27.064   4.577
13623W        W85949   6.797  30.950   1.466
13624W        W85950  12.305   9.411  14.992
13625W        W85951  43.771  19.781  14.698
13626W        W85952  17.756  38.728   2.369
13627W        W85953   5.483  17.217   4.615
13628W        W85954  25.510   3.535   4.629
13629W        W85955  39.538  20.570   2.608
13630W        W85956  32.170   0.234   1.780
13631W        W85957   2.431  23.941  12.941
13632W        W85958  12.885  14.000   1.411
13633W        W85959  10.483   6.428  13.030
13634W        W85960  18.046   5.682  10.693
13635W        W85961  17.133   5.232  12.860
13636W        W85962  37.694  20.759   1.885
13637W        W85963  21.704  31.615   0.316
13638W        W85964  37.544  20.235  11.923
13639W        W85965  19.677  37.986   0.287
13640W        W85966   2.325   9.629  10.068
13641W        W85967  35.612   5.958  12.933
13642W        W85968  41.841  22.154  14.309
13643W        W85969   6.265  12.222  14.827
13644W        W85970   5.314  40.484   4.357
13645W        W85971   8.232  18.309  11.979
13646W        W85972  24.958  37.948   2.069
13647W        W85973  36.505  11.295   2.748
13648W        W85974   3.502  25.387   3.433
13649W        W85975   0.000  44.337   1.367
13650W        W85976  32.422  22.928   0.963
13651W        W85977  11.739  35.020   9.883
13652W        W85978  26.042   5.087  11.229
13653W        W85979  32.925   7.279  13.588
13654W        W85980  28.986  10.361  13.358
13655W        W85981  12.404  26.616   9.733
13656W        W85982   5.895   5.455  11.115
13657W        W85983  30.047  30.679   2.169
13658W        W85984  30.607  35.774  12.490
13659W        W85985  28.172   1.344   3.742
13660W        W85986  25.495  26.112   2.326
13661W        W85987  32.368   8.824   0.331
13662W        W85988  23.995  25.912  11.513
13663W        W85989   1.266   7.863  11.488
13664W        W85990   9.520  35.690   3.598
13665W        W85991   7.716  36.079   1.364
13666W        W85992  10.828  23.623   3.887
13667W        W85993  26.017  44.878  14.431
13668W        W85994  43.798  22.131  14.317
13669W        W85995  28.143  22.060  11.387
13670W        W85996  30.439  38.265   1.727
13671W        W85997  14.287   9.357  10.112
13672W        W85998  11.762   8.764   2.145
13673W        W85999   0.053  27.969   1.922
13674W        W86000  17.305   4.001  14.268
13675W        W86001  12.438  10.217  12.570
13676W        W86002  11.819  15.184  12.814
13677W        W86003  42.691  32.980   4.374
13678W        W86004  21.646  15.222  14.517
13679W        W86005   6.369  38.482   4.304
13680W        W86006  35.061   6.340  14.050
13681W        W86007  36.416   5.389  10.986
13682W        W86008  28.530  27.538  10.252
13683W        W86009   8.797  31.896  11.160
13684W        W86010  31.007  11.822   1.423
13685W        W86011  39.957  24.437   0.296
13686W        W86012  23.951   6.406   2.775
13687W        W86013  24.661   4.864  13.310
13688W        W86014  28.592  32.045  12.767
13689W        W86015  35.510  26.516   2.311
13690W        W86016  21.888  36.302  11.601
13691W        W86017  22.135  12.179  14.504
13692W        W86018  43.466  18.833   3.073
13693W        W86019   5.680  26.449   3.576
13694W        W86020   3.479  26.090  12.676
13695W        W86021  11.095  15.790  11.593
13696W        W86022  31.694  25.638  11.100
13697W        W86023  18.184  31.318  12.056
13698W        W86024  12.349  21.245   2.660
13699W        W86025  27.074   4.121   2.370
13700W        W86026  34.989  38.846   0.818
13701W        W86027  39.984  20.094   1.445
13702W        W86028   0.405  11.863   3.581
13703W        W86029   2.345  14.923   1.835
13704W        W86030  16.344  29.950  11.281
13705W        W86031  24.668  33.562  10.698
13706W        W86032  10.830  41.228  10.933
13707W        W86033  27.744  36.330  12.555
13708W        W86034  41.748   9.258   0.821
13709W        W86035  27.666  16.801  11.421
13710W        W86036  24.688  29.963   0.060
13711W        W86037  28.575   9.868   4.285
13712W        W86038  32.908  14.052   1.478
13713W        W86039  22.657  21.087   0.471
13714W        W86040  14.824  18.646   1.374
13715W        W86041  35.948  34.636  11.900
13716W        W86042  27.486  21.730  14.039
13717W        W86043  17.820  29.165  14.369
13718W        W86044  43.464  25.946   2.825
13719W        W86045  42.052  25.593  10.761
13720W        W86046  19.689   7.843   1.451
13721W        W86047  28.528  32.897  10.956
13722W        W86048  33.045  13.313  14.796
13723W        W86049  40.887   9.891   3.661
13724W        W86050  29.612  11.619  13.407
13725W        W86051  24.633  22.173  12.487
13726W        W86052  11.308  26.778  13.390
13727W        W86053  24.766  43.694   2.319
13728W        W86054  10.113  32.940   2.602
13729W        W86055  11.867  15.699  11.923
13730W        W86056  18.639  16.540   3.859
13731W        W86057  14.273  23.543   3.173
13732W        W86058   8.923   2.815  14.413
13733W        W86059  37.395  11.589   2.618
13734W        W86060  15.574   1.468   4.066
13735W        W86061  44.387   1.745   1.971
13736W        W86062   3.729  38.890  13.914
13737W        W86063  30.208  40.781   3.807
13738W        W86064   0.986  16.738  13.450
13739W        W86065  38.097  15.374   1.759
13740W        W86066  11.792  32.365  12.463
13741W        W86067  18.839  25.280   4.985
13742W        W86068  17.632  41.404   4.850
13743W        W86069  15.592  24.725   4.282
13744W        W86070  33.543  19.659  12.186
13745W        W86071  43.553  30.476  11.558
13746W        W86072  35.828  40.284  12.508
13747W        W86073  28.626  22.079  14.444
13748W        W86074   6.457  20.151   2.999
13749W        W86075   6.131  37.184  13.796
13750W        W86076  18.670  14.349  14.877
13751W        W86077  11.417  39.430  12.140
13752W        W86078  12.271  12.180   3.790
13753W        W86079  41.332  32.986  12.487
13754W        W86080  20.758  43.840   3.382
13755W        W86081  12.660  33.384   3.344
13756W        W86082  29.071  25.563  11.912
13757W        W86083  44.826  14.392   1.820
13758W        W86084  22.175  10.710   0.042
13759W        W86085  26.732   8.706   2.367
13760W        W86086  37.479   7.706   1.460
13761W        W86087  21.955  29.929   1.171
13762W        W86088  24.102  34.987  10.876
13763W        W86089  12.789  17.289   0.908
13764W        W86090  27.520  21.585   1.485
13765W        W86091   1.288  18.160  13.534
13766W        W86092  37.852  13.898   5.084
13767W        W86093  31.029  43.747  13.988
13768W        W86094  34.008  19.760  12.913
13769W        W86095  35.106  31.856   9.928
13770W        W86096  23.607  44.555   1.067
13771W        W86097   0.647  34.308  14.640
13772W        W86098  25.899   0.878  14.063
13773W        W86099  24.751   3.750  13.001
13774W        W86100  27.660  28.740  13.365
13775W        W86101  42.318   6.156   0.852
13776W        W86102  14.713  43.437   3.356
13777W        W86103  24.186  22.241   1.523
13778W        W86104   1.649  13.865  12.115
13779W        W86105  42.317  37.653  12.479
13780W        W86106  37.859  14.901   1.766
13781W        W86107  34.831  17.252   2.801
13782W        W86108  43.305  37.692  14.418
13783W        W86109  20.194  10.028   4.769
13784W        W86110   1.327  40.030  14.596
13785W        W86111  44.766  38.344   4.646
13786W        W86112   6.629  16.136   2.352
13787W        W86113  26.261  16.356  13.131
13788W        W86114   1.843   0.786   0.975
13789W        W86115  11.576  13.732  13.928
13790W        W86116   8.499  17.529  12.896
13791W        W86117  35.327  14.667  11.099
13792W        W86118   3.797   4.712   3.239
13793W        W86119   7.632  22.622   1.194
13794W        W86120   5.674   2.378  11.531
13795W        W86121  21.968  41.628   3.107
13796W        W86122  42.238  34.776   3.716
13797W        W86123  14.880  10.321  13.977
13798W        W86124   9.364  37.370  12.501
13799W        W86125  10.212   2.627   3.908
13800W        W86126  18.219  40.786   0.967
13801W        W86127  32.242  19.283   3.226
13802W        W86128   7.388  29.097   1.099
13803W        W86129  28.130  20.624  11.159
13804W        W86130  42.684  13.572  12.876
13805W        W86131   1.824   2.835   4.226
13806W        W86132  28.688   5.312  11.958
13807W        W86133  44.390  30.554  13.620
13808W        W86134  37.712   7.351  12.826
13809W        W86135  13.559  21.252   0.757
13810W        W86136  13.105  13.164  14.251
13811W        W86137  22.718   6.118  12.174
13812W        W86138  35.472  12.834  10.743
13813W        W86139   1.922  27.721  10.655
13814W        W86140   8.281  25.979   4.665
13815W        W86141   6.188  26.671  14.009
13816W        W86142   4.375  11.578  10.741
13817W        W86143   1.457   9.672   3.998
13818W        W86144   7.098  24.505   2.291
13819W        W86145  36.881   7.702  14.869
13820W        W86146   2.828  24.695  10.128
13821W        W86147  38.989  38.927  12.773
13822W        W86148   6.922  31.785   4.135
13823W        W86149  43.212  24.188   3.155
13824W        W86150  16.037  37.463  10.577
13825W        W86151   9.425  14.827   2.121
13826W        W86152   2.308  43.132   5.040
13827W        W86153  11.868  23.639   1.350
13828W        W86154   9.981   8.469  11.149
13829W        W86155  18.102  42.536   4.029
13830W        W86156  37.981  15.607  10.844
13831W        W86157   9.340  43.094   3.680
13832W        W86158  22.176  19.194   1.813
13833W        W86159  10.290  36.948  12.491
13834W        W86160  11.273  36.937  14.695
13835W        W86161  22.773  27.224  11.893
13836W        W86162  24.478  26.712   3.748
13837W        W86163   8.850   2.958   4.242
13838W        W86164  37.126  34.394  11.599
13839W        W86165  24.646   9.278   0.388
13840W        W86166   3.419  16.862  14.073
13841W        W86167  42.895   6.841   4.713
13842W        W86168  40.833  13.467   1.806
13843W        W86169  14.734   1.639  14.888
13844W        W86170  29.091  25.067  11.662
13845W        W86171  39.271   8.790  14.468
13846W        W86172  37.668   9.617  11.086
13847W        W86173  39.750   3.931   3.826
13848W        W86174  16.389  21.093  13.435
13849W        W86175  23.740  26.737   3.216
13850W        W86176  43.415   7.931  12.553
13851W        W86177   2.415   5.840  14.931
13852W        W86178  10.348  31.182   2.437
13853W        W86179  17.262  16.963  14.419
13854W        W86180  32.484  14.720  13.073
13855W        W86181  27.301  32.062  10.545
13856W        W86182  43.603  20.797   0.857
13857W        W86183   7.865  30.355   2.799
13858W        W86184  10.205  19.646   2.243
13859W        W86185   3.261  17.281   1.177
13860W        W86186  29.779  12.677   0.373
13861W        W86187  33.517  43.030  10.974
13862W        W86188  10.299  15.878  11.966
13863W        W86189  23.591   7.897   4.128
13864W        W86190   7.226   0.374  14.716
13865W        W86191   1.848  41.947   2.757
13866W        W86192  19.754  36.986   4.615
13867W        W86193   7.873  44.260   1.305
13868W        W86194  25.603  29.500   3.054
13869W        W86195   6.030  28.690   1.350
13870W        W86196  41.357  35.900   1.858
13871W        W86197  36.316  13.155  10.607
13872W        W86198   2.709   0.133  14.339
13873W        W86199   1.321  13.615  10.408
13874W        W86200  22.403  41.459   3.358
13875W        W86201  13.968  25.761  12.929
13876W        W86202  36.864  25.612   3.316
13877W        W86203  23.061  31.482  12.460
13878W        W86204  36.939  28.262   1.397
13879W        W86205   2.508  42.634  11.948
13880W        W86206   7.211  17.450  11.500
13881W        W86207  30.965  29.790   3.378
13882W        W86208  10.327   8.132   1.903
13883W        W86209  32.664   5.391  10.686
13884W        W86210  18.151  22.903  11.703
13885W        W86211   7.037  37.899   3.204
13886W        W86212   3.819  38.541   3.566
13887W        W86213   1.810  22.971  10.977
13888W        W86214  34.008  16.287  14.754
13889W        W86215  34.287  18.183   2.767
13890W        W86216  39.455  29.018   1.022
13891W        W86217  19.689  19.435  11.108
13892W        W86218  41.964  42.010   4.077
13893W        W86219  17.244  19.205   0.945
13894W        W86220  39.465   6.180   2.862
13895W        W86221  30.502  13.794   1.236
13896W        W86222  41.598  27.505   3.077
13897W        W86223  28.439  32.147   3.227
13898W        W86224  37.836   5.371   2.773
13899W        W86225  14.628  41.473   4.127
13900W        W86226  30.410  39.557  12.439
13901W        W86227  25.492  31.677  11.715
13902W        W86228  31.408  13.167  12.096
13903W        W86229  20.521  24.633   1.433
13904W        W86230  32.535  38.857   2.137
13905W        W86231  19.136  30.883   0.352
13906W        W86232  44.768  19.388  12.720
13907W        W86233  18.704   8.712  14.440
13908W        W86234  13.606  36.974  14.837
13909W        W86235  29.681  22.635   3.286
13910W        W86236  13.266  33.592   4.164
13911W        W86237  12.716  10.178   2.707
13912W        W86238  27.693  14.931   3.310
13913W        W86239  19.233  30.807   3.539
13914W        W86240  44.254  16.231  13.604
13915W        W86241  40.354  20.976   4.102
13916W        W86242   3.963  12.124  13.934
13917W        W86243  44.259  33.212  11.108
13918W        W86244  18.565  24.259  13.016
13919W        W86245  42.329  32.402  14.110
13920W        W86246  28.452  19.189  13.567
13921W        W86247  10.263  28.100   2.060
13922W        W86248  32.296  25.068   0.764
13923W        W86249  20.335  22.561  14.761
13924W        W86250  22.719  13.789  10.081
13925W        W86251   2.456  13.563   1.920
13926W        W86252  30.385  17.791  14.798
13927W        W86253  12.252  14.841   0.589
13928W        W86254  14.605  35.710  10.733
13929W        W86255  38.103  37.779  13.883
13930W        W86256  20.179  34.089  14.335
13931W        W86257   4.534  14.323   0.426
13932W        W86258   0.905  36.313   0.545
13933W        W86259  22.082  20.155   0.216
13934W        W86260  43.528  24.994   1.762
13935W        W86261  41.828  44.295   0.320
13936W        W86262  31.422   4.220   3.133
13937W        W86263  32.142   7.397  12.506
13938W        W86264   0.315  21.537  12.562
13939W        W86265   4.260  15.026   4.130
13940W        W86266   2.263  39.799  12.439
13941W        W86267  22.024  42.020  11.071
13942W        W86268   6.400  27.061  11.745
13943W        W86269  43.031  29.751  12.127
13944W        W86270  19.741   8.610   0.042
13945W        W86271  35.937  44.871  14.309
13946W        W86272  35.545  29.645   2.318
13947W        W86273  31.715  32.027  13.100
13948W        W86274   3.842  35.595  14.927
13949W        W86275  22.603  22.933   3.266
13950W        W86276  11.294  20.642  12.124
13951W        W86277  43.076   5.213  12.481
13952W        W86278  37.637   2.698   0.503
13953W        W86279  32.600  40.098   2.375
13954W        W86280   4.856  27.239   3.873
13955W        W86281  31.631  36.052   0.431
13956W        W86282  22.261  10.222  10.891
13957W        W86283  18.520  11.589   4.207
13958W        W86284  27.064   4.320  13.641
13959W        W86285  13.597  32.125   2.290
13960W        W86286   9.651  10.198   3.430
13961W        W86287  25.088  36.431   3.416
13962W        W86288   4.345  44.921  10.751
13963W        W86289  13.248  20.579   4.473
13964W        W86290  17.847  39.369  14.043
13965W        W86291  32.457  15.597   0.759
13966W        W86292  41.226  12.264  10.878
13967W        W86293  11.749  29.723   3.129
13968W        W86294   5.587   5.422   0.809
13969W        W86295   9.805  25.018  12.564
13970W        W86296  34.622  12.294  12.448
13971W        W86297  23.987  22.724  14.409
13972W        W86298  20.612  12.393   2.207
13973W        W86299  13.884  10.387  11.200
13974W        W86300  30.220  10.492   1.704
13975W        W86301  16.030  17.259  12.607
13976W        W86302  15.021  40.140   1.846
13977W        W86303  32.044  36.525   4.134
13978W        W86304   2.977  27.004   2.097
13979W        W86305  33.516   4.407   1.759
13980W        W86306  37.612  34.692   1.788
13981W        W86307   9.980  20.011  12.131
13982W        W86308  23.673  10.074  13.948
13983W        W86309  18.380  44.269   3.204
13984W        W86310  32.881  23.760  12.944
13985W        W86311  43.561   1.381   1.062
13986W        W86312  17.307  28.951  12.167
13987W        W86313  38.152  36.469   3.691
13988W        W86314  34.613   3.851   0.546
13989W        W86315  11.309  25.741   4.700
13990W        W86316  18.180  22.286  10.949
13991W        W86317   3.463  32.040   4.605
13992W        W86318  12.273  14.103   4.102
13993W        W86319  11.306  39.919   4.611
13994W        W86320  19.263  43.830  13.060
13995W        W86321  31.290  11.327  12.384
13996W        W86322  30.986  26.556  14.756
13997W        W86323  41.463  37.895   3.178
13998W        W86324  13.619   9.189  10.610
13999W        W86325  23.588  20.183   2.710
14000W        W86326   0.277  33.549   1.249
14001W        W86327   3.106   0.922  14.620
14002W        W86328   0.352  23.209   0.974
14003W        W86329  20.229  26.011  11.469
14004W        W86330  25.952  17.197  10.717
14005W        W86331  11.098  38.668   4.549
14006W        W86332   8.972  39.135   0.242
14007W        W86333  21.498  25.055   2.322
14008W        W86334  29.380  34.985  13.990
14009W        W86335  30.101   9.249   0.751
14010W        W86336  26.983  13.040   4.170
14011W        W86337  16.709  17.244   0.953
14012W        W86338   1.563  21.191  10.667
14013W        W86339  30.664  11.647  11.607
14014W        W86340  32.169  22.452   4.058
14015W        W86341   3.920   4.254   4.662
14016W        W86342   0.407   7.389   3.834
14017W        W86343  36.407   7.924  11.955
14018W        W86344   1.790  27.941  13.844
14019W        W86345  39.846  40.409  12.176
14020W        W86346  35.936  27.721  14.854
14021W        W86347   3.132  39.883   1.479
14022W        W86348   0.225  15.229   4.462
14023W        W86349  37.005   5.005  13.885
14024W        W86350  25.556   2.225   2.170
14025W        W86351  17.125   6.377   2.411
14026W        W86352  26.467  24.525   1.463
14027W        W86353   3.879  30.849   3.752
14028W        W86354   0.429  15.079  13.086
14029W        W86355  27.155  26.124   4.588
14030W        W86356   7.430   6.845  13.551
14031W        W86357  36.080   3.267  13.934
14032W        W86358   3.238  20.986  14.502
14033W        W86359  35.178  11.390   1.287
14034W        W86360  25.987  14.634  11.521
14035W        W86361  34.145  23.960  13.581
14036W        W86362  31.627  39.944  13.997
14037W        W86363   6.232  26.154   4.628
14038W        W86364  23.963  17.795   3.890
14039W        W86365  30.514  20.983  13.170
14040W        W86366  22.784  35.293   1.321
14041W        W86367  30.922  14.807  11.565
14042W        W86368  43.891  10.401   1.928
14043W        W86369   9.743  25.010  13.993
14044W        W86370  29.948  13.717  10.465
14045W        W86371  19.993  10.576   0.304
14046W        W86372  34.112  16.162   4.969
14047W        W86373  24.524  15.060   4.260
14048W        W86374  34.328   0.003  14.149
14049W        W86375  12.795   4.952  11.104
14050W        W86376  25.449  33.139  13.984
14051W        W86377  12.602  28.674   0.496
14052W        W86378  33.926  15.770   0.870
14053W        W86379  17.630  36.430   0.362
14054W        W86380   0.213  39.955  13.578
14055W        W86381  24.458  42.057  13.374
14056W        W86382  18.675  41.091  12.548
14057W        W86383  42.143   9.491   1.265
14058W        W86384  16.048  14.759  13.322
14059W        W86385   4.040   5.973   0.263
14060W        W86386  27.068   5.251  11.125
14061W        W86387  28.989  18.838   3.625
14062W        W86388   5.849  32.634  12.972
14063W        W86389  26.086  20.656  10.222
14064W        W86390  39.588  27.859  11.108
14065W        W86391  40.496   7.479  10.933
14066W        W86392  43.406  17.267  14.540
14067W        W86393  15.601  21.806   0.864
14068W        W86394   8.328  32.527  14.813
14069W        W86395  42.974  34.022  13.665
14070W        W86396  22.424  37.534   3.290
14071W        W86397  19.436  39.186  13.851
14072W        W86398  43.476  18.376   3.644
14073W        W86399  18.805  20.262  14.992
14074W        W86400  17.880  41.402  14.331
14075W        W86401  31.703  37.312   4.111
14076W        W86402   5.636  14.343  10.632
14077W        W86403  27.376  33.630  13.188
14078W        W86404  28.633  13.274   1.808
14079W        W86405  27.727   1.764  14.735
14080W        W86406  17.609  11.081   2.415
14081W        W86407  20.739  26.150  11.505
14082W        W86408  41.552  40.865   1.126
14083W        W86409  31.044  26.441   5.061
14084W        W86410  24.169  42.348   4.160
14085W        W86411  30.506  40.999  14.025
14086W        W86412  42.359  38.155  14.336
14087W        W86413  28.701   9.175   0.776
14088W        W86414   0.417  37.888  14.533
14089W        W86415  10.041  40.335  13.831
14090W        W86416  29.749   3.392  14.746
14091W        W86417  42.388  35.460  14.817
14092W        W86418  34.254  10.523   3.586
14093W        W86419  13.582   5.156  14.767
14094W        W86420  11.663  16.689   1.835
14095W        W86421  32.131  42.918  10.777
14096W        W86422  31.544  36.071   2.575
14097W        W86423   2.544  40.629  12.991
14098W        W86424   9.779  38.742   4.564
14099W        W86425  42.472  25.110  11.618
14100W        W86426   2.209   1.294   2.619
14101W        W86427  12.336  13.695  14.241
14102W        W86428  21.009  37.508  14.503
14103W        W86429  41.944  42.999  11.701
14104W        W86430  16.049  32.880   0.945
14105W        W86431  15.150   9.777  12.911
14106W        W86432  30.557  11.406   1.627
14107W        W86433  38.469  26.080   4.384
14108W        W86434   9.789  10.145   4.491
14109W        W86435  11.252  35.976  10.663
14110W        W86436  16.529   1.926  14.270
14111W        W86437  32.644  20.957   4.004
14112W        W86438   1.393  27.387   3.021
14113W        W86439  33.883  44.364   4.863
14114W        W86440   8.174  12.814  14.742
14115W        W86441  17.997  27.112  10.741
14116W        W86442  18.668   7.269   0.858
14117W        W86443  24.602   1.214  13.323
14118W        W86444  41.004  43.988   0.695
14119W        W86445  14.317  36.387  11.112
14120W        W86446  12.596  26.484   2.269
14121W        W86447  20.080  11.905  13.713
14122W        W86448  40.312  36.321  10.103
14123W        W86449   5.328   0.542   3.648
14124W        W86450   8.741  10.331   3.750
14125W        W86451  27.995  20.667  14.750
14126W        W86452   3.784  20.162   3.665
14127W        W86453  18.419  28.499  14.755
14128W        W86454  37.551  34.907   4.053
14129W        W86455  25.614  37.805   0.705
14130W        W86456  37.165  17.536   2.750
14131W        W86457   7.832  14.845  14.016
14132W        W86458   6.421  14.071   3.564
14133W        W86459  36.562   8.327   0.395
14134W        W86460  10.737  21.498  12.111
14135W        W86461  32.397  26.061   3.171
14136W        W86462  38.525  15.669   1.918
14137W        W86463  17.344  16.338   1.431
14138W        W86464   5.131  10.156   0.725
14139W        W86465  11.288  21.525   1.378
14140W        W86466  44.618  16.948   4.999
14141W        W86467  23.999  17.257  12.459
14142W        W86468  11.423   2.449  11.929
14143W        W86469  32.575  21.159  10.010
14144W        W86470  35.928  38.016   1.673
14145W        W86471  38.430  10.154   2.775
14146W        W86472  39.090  40.808  13.817
14147W        W86473  42.994  36.965  10.605
14148W        W86474  23.410  22.989  14.853
14149W        W86475   7.642   7.317  13.409
14150W        W86476  28.976  29.045  14.049
14151W        W86477  33.806  35.572  12.032
14152W        W86478  31.888  34.419   2.783
14153W        W86479   5.920  17.776   3.206
14154W        W86480  14.125  10.688   2.804
14155W        W86481  18.612   1.254  11.136
14156W        W86482  17.482  30.233  12.374
14157W        W86483  11.738  37.602   2.723
14158W        W86484  42.049  17.887   3.838
14159W        W86485  23.096   8.950   3.711
14160W        W86486   3.610  44.679   3.283
14161W        W86487  31.435  24.227   4.110
14162W        W86488  41.059   9.368   0.160
14163W        W86489  21.248  43.519   0.819
14164W        W86490  10.290  22.130   3.989
14165W        W86491  41.837  10.853  12.818
14166W        W86492  14.912  21.769  11.968
14167W        W86493  18.526   9.558   2.643
14168W        W86494   2.012  36.356  12.431
14169W        W86495  40.979  34.846   2.202
14170W        W86496  25.555   6.826  11.585
14171W        W86497   4.754  27.370  11.282
14172W        W86498  25.541  25.730   4.352
14173W        W86499  38.030  32.556  14.958
14174W        W86500  29.472  40.371   4.108
14175W        W86501  31.883  17.623  13.992
14176W        W86502  37.425  33.552   2.418
14177W        W86503   2.966  40.453   4.384
14178W        W86504  23.562  12.131  14.123
14179W        W86505  17.181   0.547   4.397
14180W        W86506  17.140  39.046  12.563
14181W        W86507   5.918  15.235  13.907
14182W        W86508  34.584   1.253  12.170
14183W        W86509  19.466  22.213  13.342
14184W        W86510  43.016  30.398  13.493
14185W        W86511  11.485   7.433   2.367
14186W        W86512  30.868   4.522   0.221
14187W        W86513   2.666  29.541  14.416
14188W        W86514  15.847  11.292  10.350
14189W        W86515   7.670  31.072  14.022
14190W        W86516  12.867  19.314   0.002
14191W        W86517   1.716  18.043   3.301
14192W        W86518  40.595   4.150   2.811
14193W        W86519   2.617  36.876  11.105
14194W        W86520  42.814  17.228   3.677
14195W        W86521  35.077  21.975  14.475
14196W        W86522  31.634  21.978   3.789
14197W        W86523  16.269  26.579  12.154
14198W        W86524   5.720   5.310   0.312
14199W        W86525   2.996  10.297   0.177
14200W        W86526   9.135   2.221  14.803
14201W        W86527  39.754  23.434  11.162
14202W        W86528  21.563  43.953   1.581
14203W        W86529  39.823  16.119  13.083
14204W        W86530  23.456  37.119  10.684
14205W        W86531  29.122  29.948   2.970
14206W        W86532   7.943  17.199  13.878
14207W        W86533   2.949  42.722  11.189
14208W        W86534  28.939  18.588   0.050
14209W        W86535   1.159  13.419  14.889
14210W        W86536  17.351  26.195  13.958
14211W        W86537  33.635   5.303  12.349
14212W        W86538  25.292  42.790  11.213
14213W        W86539  39.015   4.927   1.678
14214W        W86540  19.829  41.326  10.896
14215W        W86541   4.682  40.817   3.684
14216W        W86542   1.513  24.784  14.878
14217W        W86543  20.070   1.475   1.261
14218W        W86544   0.300  34.646  14.378
14219W        W86545  27.182   9.425   4.443
14220W        W86546  44.269  42.330  10.606
14221W        W86547  40.288  36.533  13.342
14222W        W86548  13.762  42.867   2.372
14223W        W86549  23.125  12.148   4.705
14224W        W86550  21.576  20.218  14.028
14225W        W86551  27.734  44.774  12.944
14226W        W86552  27.270  17.331   2.838
14227W        W86553  15.380  16.677  13.120
14228W        W86554  10.168   2.486   1.238
14229W        W86555  28.544  14.668  14.648
14230W        W86556  37.993  13.105   4.594
14231W        W86557  37.283  27.194  12.569
14232W        W86558  24.561   3.777  12.181
14233W        W86559   2.789   5.302   2.286
14234W        W86560  10.407   0.884   4.274
14235W        W86561   2.742   6.342   3.035
14236W        W86562  33.456   8.714   0.923
14237W        W86563  35.407  26.045  12.531
14238W        W86564  20.778  36.957   4.885
14239W        W86565   4.966  37.006  11.567
14240W        W86566   6.826   4.712   4.636
14241W        W86567   2.685  41.902  11.405
14242W        W86568   2.686  17.336  13.493
14243W        W86569  20.642   5.401   1.123
14244W        W86570   2.269   1.368  12.615
14245W        W86571   9.630  40.335  14.859
14246W        W86572  23.976  31.961  11.374
14247W        W86573   9.170   5.500   2.278
14248W        W86574  14.759  18.533  11.289
14249W        W86575  36.330  36.863   3.777
14250W        W86576  18.304  21.106  11.602
14251W        W86577  36.472  32.672  13.511
14252W        W86578   7.228  11.505   1.997
14253W        W86579  37.335  28.933   0.442
14254W        W86580  33.402  40.411   4.153
14255W        W86581  31.699  31.517  10.841
14256W        W86582  44.356  29.934  12.006
14257W        W86583  33.911  23.572   2.279
14258W        W86584  15.530  11.647   4.096
14259W        W86585   1.833  20.182   4.645
14260W        W86586   7.188  21.921  13.939
14261W        W86587   9.153  36.851   0.425
14262W        W86588   0.681  27.020  12.392
14263W        W86589  20.898  30.951  11.110
14264W        W86590  40.992  18.772  14.895
14265W        W86591  14.604  34.527  14.753
14266W        W86592  39.029  39.072   0.817
14267W        W86593   6.955  23.668  14.412
14268W        W86594  37.555  36.916   4.592
14269W        W86595  24.453  14.158   2.689
14270W        W86596  16.736  24.618   3.252
14271W        W86597   6.421  10.159  11.649
14272W        W86598  28.731  12.681   2.760
14273W        W86599  16.730  33.011  10.731
14274W        W86600  26.554   4.402   4.043
14275W        W86601   7.682  42.299   2.405
14276W        W86602  33.000  40.049  10.658
14277W        W86603  41.274  38.361  12.577
14278W        W86604  22.192  25.538   3.751
14279W        W86605   0.369  26.540  14.397
14280W        W86606  22.727  36.533  13.677
14281W        W86607  13.785  33.387   1.475
14282W        W86608   0.726   6.336   3.796
14283W        W86609  16.837  32.574  11.519
14284W        W86610  24.039  43.375   2.291
14285W        W86611   6.169  37.077  12.564
14286W        W86612  32.074  33.575   0.881
14287W        W86613  25.714  18.971   3.965
14288W        W86614   1.571   1.358   1.253
14289W        W86615  39.508   3.101  10.732
14290W        W86616   2.156   9.258   5.033
14291W        W86617  26.158  44.945  13.887
14292W        W86618  34.318   5.188   3.682
14293W        W86619   7.682   9.128  12.201
14294W        W86620  35.086  34.394   2.871
14295W        W86621  21.639  22.693   3.577
14296W        W86622  44.793  26.696  13.552
14297W        W86623  33.311  12.346  12.478
14298W        W86624   5.675  10.599  12.501
14299W        W86625  36.927  27.705  13.763
14300W        W86626   7.392   9.898   4.397
14301W        W86627  16.990  37.752   0.258
14302W        W86628  13.415   8.195   0.053
14303W        W86629  43.840  15.269   4.667
14304W        W86630  44.525  42.438   2.654
14305W        W86631  44.254  16.062  12.039
14306W        W86632   2.418  32.362   1.644
14307W        W86633  30.428  28.499  11.095
14308W        W86634  31.156  38.781  11.066
14309W        W86635   7.579  40.378   0.319
14310W        W86636  18.301  28.476   4.231
14311W        W86637  16.040  25.633  12.963
14312W        W86638   5.176   0.979   4.683
14313W        W86639  34.552   6.294  10.677
14314W        W86640  25.472   2.416  11.106
14315W        W86641  15.941  12.148  13.539
14316W        W86642  28.118   9.590  12.993
14317W        W86643   1.711  36.816   3.049
14318W        W86644  40.971  17.670   0.888
14319W        W86645  25.255   0.756  12.487
14320W        W86646  35.414  11.516   5.044
14321W        W86647  17.635  19.205   2.461
14322W        W86648  24.417  38.939  14.026
14323W        W86649  32.501   7.045  13.410
14324W        W86650   6.360   4.501  14.928
14325W        W86651  40.790  25.524  11.566
14326W        W86652  37.775  21.009   3.831
14327W        W86653  16.816  27.580   1.878
14328W        W86654  44.760  40.577   0.352
14329W        W86655  40.868  32.641  13.312
14330W        W86656  35.625   1.873  14.416
14331W        W86657   0.412  16.463  13.059
14332W        W86658  22.486  17.235  12.874
14333W        W86659  12.591   9.349  14.551
14334W        W86660  42.218  33.523   3.954
14335W        W86661  42.102  35.944  14.818
14336W        W86662  41.945  17.994  11.088
14337W        W86663  35.533  13.036   0.459
14338W        W86664  42.332  31.563   4.515
14339W        W86665   8.372  10.299  11.503
14340W        W86666  10.398   0.850  14.519
14341W        W86667  31.992   3.920  13.442
14342W        W86668  28.192  28.483   4.632
14343W        W86669  20.953  35.876   3.969
14344W        W86670  18.146  14.411   3.423
14345W        W86671  20.285  15.839  14.536
14346W        W86672  12.320  19.475  11.153
14347W        W86673   0.892  33.460  14.128
14348W        W86674  10.538  30.927   0.043
14349W        W86675  19.514   6.403   1.729
14350W        W86676   3.693  28.657   1.398
14351W        W86677  14.534  35.864  13.413
14352W        W86678  39.555  44.662  13.041
14353W        W86679  25.428  34.931  12.054
14354W        W86680  38.088  20.212   3.936
14355W        W86681   7.374  11.611   0.679
14356W        W86682  11.884  39.399  13.511
14357W        W86683  34.496  44.363  13.524
14358W        W86684   8.886  23.842   4.971
14359W        W86685   3.643  28.129   0.267
14360W        W86686  11.113  29.421   2.255
14361W        W86687  36.380  29.912   1.999
14362W        W86688  36.055   4.525  13.373
14363W        W86689  21.208  16.024   4.072
14364W        W86690  33.344  21.732  12.908
14365W        W86691   3.922  43.334  11.964
14366W        W86692   9.104  35.747  13.463
14367W        W86693   3.240  27.045   4.150
14368W        W86694  14.768  30.154   3.654
14369W        W86695   0.853  31.587  14.327
14370W        W86696  35.859  27.966  11.146
14371W        W86697   5.787  43.718  14.878
14372W        W86698  13.796   6.950   0.350
14373W        W86699   6.244  18.536  10.993
14374W        W86700  26.961  24.506   2.924
14375W        W86701  25.520   5.997   2.638
14376W        W86702  19.779  17.015  10.669
14377W        W86703  21.038  16.327  12.678
14378W        W86704  42.590  14.577  10.557
14379W        W86705   7.592   8.155  13.729
14380W        W86706  33.059   9.708  11.470
14381W        W86707  30.915  21.566   1.878
14382W        W86708  32.304  17.144   1.944
14383W        W86709  38.163  17.030  13.014
14384W        W86710  44.115  27.193   4.167
14385W        W86711  12.089  31.052  14.394
14386W        W86712  41.497  20.065   0.232
14387W        W86713   7.195  31.484  13.529
14388W        W86714  18.288   0.311  14.188
14389W        W86715   2.075  22.332   1.667
14390W        W86716  12.297  21.233   3.635
14391W        W86717  33.807  40.243   4.444
14392W        W86718  22.254  37.029  13.080
14393W        W86719   0.570  11.102  13.700
14394W        W86720  20.577  41.129  10.575
14395W        W86721  18.411  16.146   4.123
14396W        W86722  26.363  42.650  14.817
14397W        W86723  40.509  28.236  12.573
14398W        W86724  41.957  18.658  10.462
14399W        W86725  23.704  16.496   1.298
14400W        W86726  28.168  32.693  14.312
14401W        W86727  22.716  21.720   3.610
14402W        W86728  36.320  39.016  14.990
14403W        W86729  18.448  29.686  13.309
14404W        W86730   6.441  19.470   0.988
14405W        W86731   2.551  36.468  14.721
14406W        W86732  26.948  20.550  14.932
14407W        W86733  32.445  17.996   2.211
14408W        W86734   4.834   8.796   0.893
14409W        W86735  37.025  38.840   1.311
14410W        W86736   3.432  41.968  12.041
14411W        W86737  17.690  13.283   0.307
14412W        W86738  17.181  23.989   3.830
14413W        W86739   4.305  15.312   4.562
14414W        W86740  37.794  18.668   3.241
14415W        W86741   4.713  31.941   3.798
14416W        W86742  40.321  31.538   3.464
14417W        W86743  43.011  22.524  13.926
14418W        W86744  39.637  13.917   3.762
14419W        W86745  20.808  17.811   3.427
14420W        W86746   7.773  38.048   0.244
14421W        W86747  13.305  22.466   1.255
14422W        W86748  23.944  17.110   5.366
14423W        W86749  30.703  36.096  10.652
14424W        W86750  15.750  22.998  11.644
14425W        W86751   5.441   0.604   4.155
14426W        W86752  15.228  40.430   3.285
14427W        W86753  25.706  16.681  13.043
14428W        W86754  29.502   2.794   0.426
14429W        W86755   2.375  15.286  14.690
14430W        W86756   4.862  18.661  14.777
14431W        W86757  19.799  31.947   2.197
14432W        W86758  15.161  43.299   4.181
14433W        W86759  42.466  21.200   2.714
14434W        W86760  44.984   4.226  12.040
14435W        W86761   5.075   5.422  12.143
14436W        W86762  19.272  12.199   2.892
14437W        W86763  43.070  12.808  12.172
14438W        W86764  12.803  17.078  11.746
14439W        W86765  12.163  22.424   1.922
14440W        W86766  15.330  18.559   1.384
14441W        W86767  16.086  29.167   4.660
14442W        W86768  10.900  10.395  11.629
14443W        W86769  15.342  40.622  11.570
14444W        W86770  35.950  33.395   4.930
14445W        W86771  26.029   0.326   1.831
14446W        W86772  22.443  11.337   3.813
14447W        W86773  30.977  24.479   2.259
14448W        W86774  44.076  31.884   0.439
14449W        W86775  42.958  15.951   4.006
14450W        W86776   6.852  35.156  14.405
14451W        W86777  32.236  39.271  14.506
14452W        W86778  18.293  44.984   2.856
14453W        W86779  41.507   9.701  11.183
14454W        W86780  35.441  11.480   4.244
14455W        W86781  42.068  16.836  14.809
14456W        W86782  24.298  36.566  14.963
14457W        W86783   4.725  24.808   2.259
14458W        W86784   6.428  42.457  14.296
14459W        W86785  33.521  17.248  10.881
14460W        W86786   5.505  35.367   3.336
14461W        W86787  40.801  33.064   1.304
14462W        W86788  31.663  27.199  11.924
14463W        W86789  21.245  34.658   2.607
14464W        W86790  10.027  25.668  14.361
14465W        W86791  24.343  39.967   5.459
14466W        W86792  30.552  22.784  14.410
14467W        W86793  44.966  33.905   0.077
14468W        W86794  18.080   3.417   2.751
14469W        W86795  43.976  13.064   0.677
14470W        W86796  32.529  13.054   5.232
14471W        W86797  12.316   5.987  11.633
14472W        W86798  38.392  29.564   2.324
14473W        W86799  19.774   4.707   4.346
14474W        W86800  37.289  12.090   4.131
14475W        W86801  15.680  31.162  13.163
14476W        W86802  25.268  39.818   0.398
14477W        W86803  17.023  43.352   2.768
14478W        W86804  15.409  35.908   9.807
14479W        W86805  43.045  42.430  11.187
14480W        W86806  23.131   0.988   0.827
14481W        W86807  10.608  41.398   1.316
14482W        W86808  43.733  35.018   0.797
14483W        W86809   2.773  37.499   2.392
14484W        W86810  20.211  22.526   2.265
14485W        W86811  33.926   4.528  11.889
14486W        W86812  15.500  24.244  14.872
14487W        W86813  38.281   1.315  14.281
14488W        W86814  10.629  42.254  13.180
14489W        W86815  27.471  17.750   3.959
14490W        W86816   9.243  16.319  12.031
14491W        W86817   9.482   8.644  13.994
14492W        W86818   9.595  23.556  13.859
14493W        W86819  20.245  32.824   1.342
14494W        W86820  14.877   6.233   1.805
14495W        W86821  41.104  12.009  13.392
14496W        W86822  41.413  35.496   0.247
14497W        W86823   9.930  16.335   4.082
14498W        W86824  36.380  37.517   4.629
14499W        W86825  32.918  28.019   4.494
14500W        W86826  14.142  18.581   1.824
14501W        W86827  27.006  20.610   1.963
14502W        W86828  19.045   6.328   4.096
14503W        W86829  19.033  31.212   3.745
14504W        W86830  22.689   7.081  14.732
14505W        W86831  43.168  19.820  13.482
14506W        W86832  17.933  37.405   4.678
14507W        W86833  31.103   4.859  10.664
14508W        W86834   1.366   3.305   1.715
14509W        W86835  44.093  15.072   5.101
14510W        W86836  32.180   6.292   4.565
14511W        W86837  39.896  31.668   3.181
14512W        W86838   5.951   4.363  12.662
14513W        W86839  35.795  15.117  13.100
14514W        W86840  34.434  13.167   2.404
14515W        W86841  13.552  23.071  13.961
14516W        W86842  25.909  28.648  11.078
14517W        W86843  26.674  32.432   3.775
14518W        W86844  31.164  31.435   1.161
14519W        W86845  25.982   0.235   2.828
14520W        W86846  42.342  31.401  10.821
14521W        W86847   6.232  31.680   0.411
14522W        W86848   4.195  17.214  13.083
14523W        W86849   7.973  18.722  10.988
14524W        W86850  16.302   2.132  11.989
14525W        W86851  36.934  21.006  13.409
14526W        W86852  43.457   4.423  11.931
14527W        W86853  23.168   6.904   4.638
14528W        W86854  14.843  42.281   0.889
14529W        W86855  23.411   8.628  12.915
14530W        W86856  11.515  11.163   1.542
14531W        W86857  36.841  26.524  13.518
14532W        W86858  26.406  32.528   1.761
14533W        W86859   5.970  40.983   4.009
14534W        W86860   5.409  26.333   2.785
14535W        W86861  39.306  11.358  13.559
14536W        W86862   3.306   5.651  11.426
14537W        W86863  43.776  27.360   0.701
14538W        W86864  36.091  19.248  14.911
14539W        W86865  13.763   8.145  11.291
14540W        W86866   6.385   0.907   0.252
14541W        W86867  39.269  43.868  10.724
14542W        W86868  31.054  40.905  10.344
14543W        W86869  16.390   4.947   3.970
14544W        W86870  40.050  28.380  14.821
14545W        W86871   5.186  23.166  11.949
14546W        W86872  31.135   1.212   2.272
14547W        W86873  18.409   6.386   2.772
14548W        W86874  14.321  24.749   1.936
14549W        W86875   8.390   4.713  10.621
14550W        W86876  11.189   7.885  14.621
14551W        W86877   9.792   7.695   0.835
14552W        W86878   0.517  30.135  14.452
14553W        W86879  26.496   3.909   3.213
14554W        W86880  11.564  26.896   9.705
14555W        W86881  23.081  14.827  11.528
14556W        W86882   3.337  35.990   4.066
14557W        W86883  14.360   4.652   2.292
14558W        W86884  23.108   1.934   0.474
14559W        W86885  43.818  23.224   0.732
14560W        W86886   1.868  39.989  13.845
14561W        W86887   4.019  31.577  10.657
14562W        W86888   3.500  33.068  10.809
14563W        W86889  12.195   8.425   1.844
14564W        W86890  10.188  40.538   5.001
14565W        W86891   4.498  38.428   4.977
14566W        W86892  37.071  13.684   0.470
14567W        W86893  43.528  28.900   3.777
14568W        W86894  30.683  32.125  13.925
14569W        W86895  13.035  34.378  10.167
14570W        W86896  11.804  17.269  11.979
14571W        W86897  32.907   0.933   2.963
14572W        W86898  11.266   0.671  12.680
14573W        W86899  29.121  11.045  14.624
14574W        W86900  18.803   0.757   1.607
14575W        W86901  16.569   7.304   3.832
14576W        W86902  20.780   1.873  12.713
14577W        W86903  24.311  26.897   3.283
14578W        W86904  26.493  24.556   0.499
14579W        W86905  36.884  41.028  11.460
14580W        W86906  23.791  11.179  13.105
14581W        W86907  30.178  19.038  11.601
14582W        W86908   4.015   8.676   5.021
14583W        W86909  26.222  44.399   1.728
14584W        W86910  33.825  15.419   4.822
14585W        W86911  41.973  42.301   2.936
14586W        W86912   1.435  27.295   0.838
14587W        W86913  37.474  27.026  13.489
14588W        W86914  10.366  35.408  10.682
14589W        W86915  13.370  40.511  11.565
14590W        W86916  38.484  42.623  12.648
14591W        W86917  42.841  18.559   3.862
14592W        W86918  44.608  38.593   2.225
14593W        W86919  43.074  29.242  12.199
14594W        W86920  25.868  41.319  14.056
14595W        W86921  43.046  14.377  11.650
14596W        W86922  27.378  26.449  12.508
14597W        W86923  16.188   4.171   1.147
14598W        W86924  26.507  38.836   0.836
14599W        W86925  28.161  25.727  13.982
14600W        W86926  29.016  21.539  11.461
14601W        W86927  29.660  39.085   3.570
14602W        W86928  44.776  40.461  12.021
14603W        W86929   9.399  23.777  14.529
14604W        W86930   3.544  37.997  13.343
14605W        W86931  31.765  20.238  11.277
14606W        W86932  16.531  38.710  13.996
14607W        W86933  41.109  20.286   0.552
14608W        W86934  29.527  15.320  11.560
14609W        W86935  38.827  43.240  14.335
14610W        W86936  18.160  38.588  10.725
14611W        W86937  40.678  12.345  14.278
14612W        W86938  40.874   6.822  14.771
14613W        W86939  30.262  33.988  11.160
14614W        W86940  39.605  12.106   4.042
14615W        W86941  12.487  39.464   0.924
14616W        W86942   4.209   3.248  14.379
14617W        W86943  39.454  40.998  10.406
14618W        W86944  20.067  12.635  10.735
14619W        W86945   5.452  17.111  11.104
14620W        W86946   3.230  33.661  12.546
14621W        W86947  16.726  25.698  14.344
14622W        W86948  28.122  32.154  11.705
14623W        W86949  39.726  29.553  14.089
14624W        W86950  41.774   1.864  14.604
14625W        W86951  18.982  15.815   1.414
14626W        W86952  13.733  27.264   1.298
14627W        W86953   7.943  25.167   3.715
14628W        W86954   4.702   3.730   3.063
14629W        W86955   2.977  25.710   2.439
14630W        W86956  24.516  14.402  13.480
14631W        W86957  37.940   6.776   3.289
14632W        W86958  32.180  29.753  14.942
14633W        W86959  30.141  24.896  14.797
14634W        W86960  29.524  27.707   5.438
14635W        W86961   2.756  24.990  13.838
14636W        W86962  12.517   3.651   1.237
14637W        W86963   8.796  10.876  10.085
14638W        W86964   2.130   1.973   2.280
14639W        W86965  30.883  20.511   1.766
14640W        W86966   4.339  19.258   1.197
14641W        W86967  22.151  35.092   0.947
14642W        W86968   2.370  17.201  11.167
14643W        W86969  40.983  29.813  12.912
14644W        W86970  30.911   6.864  14.686
14645W        W86971   0.986   3.890  13.801
14646W        W86972   2.331   4.812   4.858
14647W        W86973   8.961  14.394  12.013
14648W        W86974  28.707  28.716   2.087
14649W        W86975  23.094  35.581  11.494
14650W        W86976  12.042  37.520   0.765
14651W        W86977  36.831  43.790  14.255
14652W        W86978   3.104  24.214   4.657
14653W        W86979  36.494  42.749  11.060
14654W        W86980  15.491  26.932   0.338
14655W        W86981  33.865  12.794  12.920
14656W        W86982   4.323   7.217  13.328
14657W        W86983  36.592  14.817   2.493
14658W        W86984  28.512  17.169  14.308
14659W        W86985  43.303  35.556  14.378
14660W        W86986  21.273   7.361   2.547
14661W        W86987   6.652  44.272  12.854
14662W        W86988  24.091  26.405  11.540
14663W        W86989  34.788  34.115  11.027
14664W        W86990   7.455  42.032   2.829
14665W        W86991  25.419  39.451   2.936
14666W        W86992  19.988  35.622   2.701
14667W        W86993  26.112  33.008  13.012
14668W        W86994   0.240  20.379  14.819
14669W        W86995   3.386  18.057   0.502
14670W        W86996  40.965   0.971  13.722
14671W        W86997  36.315  15.151  12.972
14672W        W86998  40.040  25.175  13.932
14673W        W86999   1.496  18.003  11.036
14674W        W87000  38.537  15.798  12.379
14675W        W87001  18.544  25.582  12.894
14676W        W87002  20.131  17.230  12.104
14677W        W87003  17.697  35.485   1.390
14678W        W87004  10.266  30.334   4.116
14679W        W87005   6.479  31.828  14.531
14680W        W87006  37.279  44.321   5.039
14681W        W87007   0.168  33.089  14.469
14682W        W87008   3.245   7.570  11.156
14683W        W87009   8.434  38.032   1.140
14684W        W87010  40.177  32.168  10.211
14685W        W87011   9.862  17.157  11.157
14686W        W87012  37.099  35.426   5.117
14687W        W87013  39.228  17.619  11.684
14688W        W87014  33.593  18.105  10.788
14689W        W87015  19.812   6.468  10.635
14690W        W87016  12.325  17.156  11.524
14691W        W87017  41.454  29.829  11.637
14692W        W87018  32.940  35.874  12.932
14693W        W87019  43.352  18.322  13.439
14694W        W87020   2.370   1.945   3.575
14695W        W87021  25.472  13.750   0.391
14696W        W87022  30.657  34.871   4.924
14697W        W87023  29.973  44.849  10.300
14698W        W87024  17.196  43.202  14.908
14699W        W87025  29.034   3.722   2.834
14700W        W87026  18.017  15.209  14.759
14701W        W87027  38.030  33.062   0.732
14702W        W87028  39.280  22.040   3.181
14703W        W87029  19.115  43.001   1.388
14704W        W87030  22.450  23.098  11.621
14705W        W87031   8.310  26.000   1.906
14706W        W87032  36.330   7.286   1.330
14707W        W87033  15.251  34.647  11.129
14708W        W87034  36.566  14.360   0.035
14709W        W87035  18.724  14.387   4.649
14710W        W87036  33.552   6.144  12.411
14711W        W87037   7.234  28.208  12.334
14712W        W87038  22.099  41.013  10.460
14713W        W87039  20.052  25.458  12.307
14714W        W87040  33.576  13.670   0.158
14715W        W87041  43.248  14.794   2.668
14716W        W87042  39.872  25.467   2.383
14717W        W87043  36.943  37.936  13.987
14718W        W87044  35.957  26.988  14.449
14719W        W87045   6.254   7.952   4.254
14720W        W87046  34.123  43.522  11.718
14721W        W87047  21.727  32.158   0.232
14722W        W87048   8.809  25.221   0.544
14723W        W87049  37.931  33.751  13.013
14724W        W87050  14.171  38.415  13.695
14725W        W87051   4.282  41.926   4.553
14726W        W87052  43.808  24.120  10.775
14727W        W87053  15.017  43.708   0.552
14728W        W87054   3.288  34.062  11.635
14729W        W87055  22.132  43.368   2.226
14730W        W87056  34.176  20.603   1.715
14731W        W87057  39.473   4.043  10.489
14732W        W87058   7.120  19.145  13.295
14733W        W87059   8.773  20.059  14.300
14734W        W87060  15.298  36.301   2.757
14735W        W87061   9.451  28.488   3.275
14736W        W87062  39.338  32.858  11.106
14737W        W87063  23.456  28.609  11.970
14738W        W87064  10.291  12.718   3.372
14739W        W87065  26.649  24.811  11.347
14740W        W87066  13.825  18.162  13.729
14741W        W87067  44.574  13.093  11.047
14742W        W87068  42.439   4.459  11.663
14743W        W87069  34.860  44.015  12.176
14744W        W87070  18.523  11.873  11.152
14745W        W87071  13.107   4.769   2.753
14746W        W87072  27.646   4.586  14.917
14747W        W87073   7.241   7.182   4.530
14748W        W87074  39.931  36.611  14.345
14749W        W87075  44.317  24.072   2.990
14750W        W87076  25.557  29.741  12.234
14751W        W87077  44.409  23.620   1.398
14752W        W87078  35.614  27.701   3.551
14753W        W87079  24.365  20.350  12.452
14754W        W87080  22.039  28.391  10.763
14755W        W87081  11.858   0.916   4.638
14756W        W87082   9.375  44.620   2.157
14757W        W87083  40.350  38.378   1.871
14758W        W87084   9.572  28.701   4.549
14759W        W87085   7.871   5.786   0.429
14760W        W87086  22.214  39.541   0.867
14761W        W87087  34.010  17.642  12.007
14762W        W87088  28.659  12.354  10.647
14763W        W87089   7.758  33.996  13.889
14764W        W87090  15.711  24.676   3.385
14765W        W87091  17.101  20.322  11.679
14766W        W87092   4.863  33.121   3.254
14767W        W87093  32.624  41.426   0.508
14768W        W87094   9.672  43.017  10.742
14769W        W87095   4.467   5.488   3.652
14770W        W87096  29.635   8.072  11.560
14771W        W87097  19.987  43.062  11.966
14772W        W87098  24.718  17.434   0.409
14773W        W87099   5.385  13.241   3.964
14774W        W87100  41.402  44.577   0.275
14775W        W87101  37.056  22.441  12.008
14776W        W87102  10.301   8.715   4.488
14777W        W87103  16.358  35.851   3.531
14778W        W87104   1.592  35.954   4.698
14779W        W87105  32.021  18.586   4.562
14780W        W87106   2.946   1.568   1.171
14781W        W87107  40.006  28.021   1.846
14782W        W87108  26.037  36.162  14.305
14783W        W87109  41.557  14.073   1.196
14784W        W87110  43.482  40.263   2.681
14785W        W87111  44.322   3.212   0.854
14786W        W87112  43.264  22.579  11.145
14787W        W87113  27.561  10.702   3.974
14788W        W87114  27.114  14.300   3.148
14789W        W87115  20.373  31.863   0.435
14790W        W87116  38.376  38.826   4.334
14791W        W87117   1.943  15.957   2.406
14792W        W87118   0.772   6.460  11.564
14793W        W87119   3.273  12.387   5.490
14794W        W87120   6.783  37.389  14.924
14795W        W87121  41.494   7.408  11.251
14796W        W87122  43.449  40.458   2.116
14797W        W87123  38.982  18.719  14.425
14798W        W87124  22.485  37.362   2.377
14799W        W87125   5.296   2.903   1.253
14800W        W87126  24.292  24.007  13.390
14801W        W87127   2.726  21.697   1.451
14802W        W87128  28.599   7.155   2.737
14803W        W87129  33.359   1.224   2.846
14804W        W87130  36.556  21.668   3.599
14805W        W87131  43.567  40.351  11.519
14806W        W87132  31.627  44.679  12.118
14807W        W87133  31.650  39.582  13.050
14808W        W87134  35.955   7.668   3.172
14809W        W87135  11.659  29.053   0.958
14810W        W87136   9.209  42.837   3.205
14811W        W87137  18.034  24.418   2.321
14812W        W87138  23.102  34.164  11.233
14813W        W87139   2.415   2.109  10.619
14814W        W87140  10.529   4.725  12.168
14815W        W87141  22.714   7.628   3.589
14816W        W87142  15.296  28.979  11.423
14817W        W87143  42.927  30.859  14.420
14818W        W87144  22.627  30.297   4.955
14819W        W87145  20.580  27.996   3.739
14820W        W87146  13.083  35.893  12.405
14821W        W87147  24.547  26.509  14.850
14822W        W87148  33.506  15.773  12.002
14823W        W87149  33.563  43.522  11.126
14824W        W87150   0.692   5.705  14.354
14825W        W87151  13.265  17.077  12.022
14826W        W87152  11.781  32.572  11.964
14827W        W87153  40.762  27.941  13.233
14828W        W87154  11.892  25.193  13.481
14829W        W87155  13.328   6.165   1.955
14830W        W87156   0.180  17.295  14.900
14831W        W87157  23.767   2.236   1.175
14832W        W87158  27.234  43.033   0.561
14833W        W87159   0.085  38.355   2.138
14834W        W87160  20.516  18.390   4.226
14835W        W87161  31.409  34.577  12.949
14836W        W87162  30.132  19.681   0.279
14837W        W87163  11.043  20.093   3.849
14838W        W87164  34.680  13.180  13.390
14839W        W87165  13.737  39.580  14.971
14840W        W87166  21.913  15.469   5.062
14841W        W87167  27.516  31.920   4.120
14842W        W87168   9.297  41.307   3.287
14843W        W87169  42.446  38.919   0.451
14844W        W87170   4.349  32.934  12.594
14845W        W87171  16.736   1.505   0.524
14846W        W87172  43.438  16.327  13.028
14847W        W87173  20.040  33.503  10.226
14848W        W87174  10.402  35.024   3.138
14849W        W87175   4.421  36.336  11.966
14850W        W87176  38.836  33.477   0.442
14851W        W87177   1.353  31.062   1.278
14852W        W87178   6.315   4.190  14.467
14853W        W87179  35.779  31.369   1.419
14854W        W87180   9.665  32.470  14.029
14855W        W87181  27.314  38.438  11.927
14856W        W87182  22.698   1.445   4.296
14857W        W87183  25.794   2.872   0.174
14858W        W87184  35.892  37.942  11.610
14859W        W87185  32.970  28.832   4.674
14860W        W87186  34.003  19.077   1.337
14861W        W87187  27.014  15.061   1.319
14862W        W87188   4.414   3.715  11.752
14863W        W87189  17.825  28.134   3.268
14864W        W87190  25.541  41.270   2.153
14865W        W87191  31.112   8.489   0.166
14866W        W87192   5.992  18.050   0.331
14867W        W87193  42.858   5.359   1.809
14868W        W87194   8.927  35.803  12.021
14869W        W87195  33.614  25.771  14.863
14870W        W87196  30.325  30.401  14.313
14871W        W87197   2.758   8.716  13.359
14872W        W87198  44.838  33.941  13.576
14873W        W87199  34.061   0.516  11.879
14874W        W87200  42.935  20.237  14.307
14875W        W87201  25.645  13.322   0.780
14876W        W87202   2.461  26.327   0.007
14877W        W87203  35.647  20.625  13.665
14878W        W87204  20.436  23.520  12.926
14879W        W87205  22.761  37.858  11.162
14880W        W87206  44.992  26.973   0.181
14881W        W87207   0.171  33.970   2.125
14882W        W87208  13.537   6.438  14.720
14883W        W87209  28.643   4.671  13.988
14884W        W87210  41.009  12.697   1.466
14885W        W87211  42.266  20.536  14.397
14886W        W87212   0.467  43.360  11.206
14887W        W87213  40.262  38.869  10.239
14888W        W87214  28.510  44.413   0.391
14889W        W87215  30.628   3.405  12.050
14890W        W87216  28.959  13.407   3.653
14891W        W87217  15.845  37.892   1.898
14892W        W87218  37.527   6.754  10.722
14893W        W87219  25.784  33.566   3.622
14894W        W87220   4.928   0.224   1.378
14895W        W87221  43.859   6.370   2.745
14896W        W87222  24.206  22.055  14.991
14897W        W87223  12.757  32.630   2.220
14898W        W87224   5.580  24.208  11.676
14899W        W87225  21.188  13.020  14.905
14900W        W87226  38.346   1.459   1.860
14901W        W87227  20.242  29.982   1.766
14902W        W87228  22.054   7.822  14.459
14903W        W87229  31.511  40.567  13.315
14904W        W87230  44.866  31.877  12.788
14905W        W87231  43.554  43.439   4.500
14906W        W87232   1.827  29.150  13.572
14907W        W87233   8.781  25.795  11.525
14908W        W87234  43.977   3.356  14.980
14909W        W87235   4.817  10.834  10.671
14910W        W87236  24.106  28.259  11.132
14911W        W87237   1.879   8.328   4.332
14912W        W87238   0.419  10.449  12.122
14913W        W87239  40.282   8.303  11.125
14914W        W87240   6.298   5.388   0.041
14915W        W87241  32.341  13.228   2.250
14916W        W87242  33.377   4.302   1.274
14917W        W87243   0.905  30.104  12.566
14918W        W87244  39.044  10.806   4.209
14919W        W87245  28.971   7.409   3.695
14920W        W87246  17.066  19.581  13.743
14921W        W87247  17.101  10.143   1.274
14922W        W87248  34.030  22.031   0.002
14923W        W87249  12.356  37.516   4.128
14924W        W87250  43.681  37.590   0.631
14925W        W87251  12.412  16.931  11.060
14926W        W87252  30.944  35.362   2.869
14927W        W87253   0.549  42.819   3.340
14928W        W87254  28.993  28.438   5.501
14929W        W87255  24.127  27.242  11.214
14930W        W87256   7.630  39.633  11.550
14931W        W87257  36.968  20.189  12.451
14932W        W87258  20.278  39.394  11.697
14933W        W87259  17.359  19.841   3.602
14934W        W87260  37.143  23.225   1.878
14935W        W87261  44.510  30.917  12.867
14936W        W87262   6.373  15.389   4.728
14937W        W87263  24.292  18.172  14.866
14938W        W87264  25.678  42.943  13.415
14939W        W87265  43.379  28.931  10.946
14940W        W87266  39.318  12.121  14.972
14941W        W87267  42.449  40.978  14.289
14942W        W87268  37.326  24.486  10.426
14943W        W87269  32.681   0.759  13.059
14944W        W87270   2.543  21.494   5.461
14945W        W87271  30.377  30.869  13.383
14946W        W87272  39.741   5.793  13.807
14947W        W87273  36.994  10.141   5.413
14948W        W87274  10.877  20.093   0.849
14949W        W87275  34.631   0.366   4.694
14950W        W87276  36.393  23.664   0.872
14951W        W87277   0.376   4.072   1.193
14952W        W87278  24.086  20.564   2.414
14953W        W87279   3.882  43.779   2.862
14954W        W87280  44.509  42.888   2.377
14955W        W87281   6.409  39.506   1.386
14956W        W87282  17.189   7.631   0.849
14957W        W87283   6.977  43.675   1.027
14958W        W87284  10.814  19.288  13.479
14959W        W87285  17.824  24.403  14.957
14960W        W87286  34.376   2.240  14.579
14961W        W87287  32.147  40.719  13.852
14962W        W87288  12.532  33.824  13.064
14963W        W87289   5.876  33.970   0.337
14964W        W87290   0.680   3.378   4.615
14965W        W87291  10.937  40.819   1.444
14966W        W87292  17.340  22.789  10.670
14967W        W87293  30.084   4.362   3.669
14968W        W87294  44.366  11.915  13.848
14969W        W87295  38.810   0.775   1.644
14970W        W87296  11.757  14.284  11.585
14971W        W87297   1.758  24.472   1.844
14972W        W87298  20.752   0.208   2.144
14973W        W87299   3.012   7.660  12.762
14974W        W87300   1.458  31.846   3.619
14975W        W87301   3.754  14.737  13.498
14976W        W87302  35.912  39.046   3.751
14977W        W87303   6.398   5.871   1.254
14978W        W87304  19.748  38.341   3.340
14979W        W87305  21.770  15.785  14.321
14980W        W87306   7.945  32.206  14.953
14981W        W87307  31.476  24.249  14.930
14982W        W87308  27.244   8.782   2.332
14983W        W87309  36.827  11.106  12.798
14984W        W87310  21.418  31.278   2.307
14985W        W87311   7.389  31.554   2.597
14986W        W87312  18.729  36.784  12.952
14987W        W87313  43.474  36.425   2.076
14988W        W87314  17.060  31.966   2.871
14989W        W87315  30.195   7.439   0.475
14990W        W87316  21.930  10.561   0.486
14991W        W87317   3.221  20.994  10.755
14992W        W87318  16.530  11.336  14.769
14993W        W87319   7.306  12.849   1.324
14994W        W87320  11.867  44.359   1.341
14995W        W87321  13.865  33.618  13.344
14996W        W87322  39.305   3.853  12.026
14997W        W87323  16.305  34.549   2.772
14998W        W87324  24.914  24.471  12.811
14999W        W87325  17.799  21.188  11.538
15000W        W87326  32.848  11.151   3.755
15001W        W87327  13.779  34.093  14.106
15002W        W87328  33.347  12.637   3.688
15003W        W87329  33.974  12.565  10.736
15004W        W87330  33.061  21.079  12.223
15005W        W87331  32.145  14.113  11.471
15006W        W87332  41.776   5.494   4.456
15007W        W87333   9.443  12.221   3.692
15008W        W87334  39.719   4.824  11.539
15009W        W87335  27.165  18.771   0.667
15010W        W87336  36.501  19.539   4.069
15011W        W87337  36.165   8.141   3.193
15012W        W87338  12.731  10.845   1.589
15013W        W87339  15.087  15.846  10.964
15014W        W87340  20.162  17.521   2.158
15015W        W87341  19.156  29.673  14.001
15016W        W87342  33.354  26.014  10.687
15017W        W87343  35.745  39.072  11.080
15018W        W87344  25.967  32.499  13.722
15019W        W87345  25.963  25.513  14.563
15020W        W87346   8.357  21.923  11.628
15021W        W87347   4.749  13.124   0.738
15022W        W87348  22.757  26.703   5.035
15023W        W87349  41.366  30.411  11.646
15024W        W87350  26.326   8.217   0.920
15025W        W87351  17.368   0.626  13.332
15026W        W87352  20.450  43.004  12.262
15027W        W87353  11.839  39.060  11.166
15028W        W87354  36.009  32.130   1.707
15029W        W87355   6.223   7.426  13.297
15030W        W87356  30.816  24.935   1.874
15031W        W87357   6.509  18.935   0.369
15032W        W87358  28.468  10.511   0.211
15033W        W87359  36.323  11.868  11.286
15034W        W87360  30.219   2.392   2.428
15035W        W87361  38.453   2.789  10.847
15036W        W87362  44.078   8.514   0.426
15037W        W87363  23.841  17.313  10.016
15038W        W87364   1.131  35.087  13.590
15039W        W87365  32.844  19.515  14.230
15040W        W87366  39.350  39.064  12.177
15041W        W87367   5.993  41.361   1.645
15042W        W87368  33.116  34.137   3.093
15043W        W87369   0.181   4.893  13.434
15044W        W87370  24.791  21.132   0.873
15045W        W87371  21.957   7.399  11.579
15046W        W87372  34.538  10.193   1.775
15047W        W87373  35.548  31.212  11.186
15048W        W87374  31.593  42.375  14.294
15049W        W87375  15.710  15.704  14.781
15050W        W87376  15.117   1.660   0.452
15051W        W87377   7.946  44.311   4.484
15052W        W87378   2.889  43.199  11.013
15053W        W87379  39.054  13.055   1.746
15054W        W87380  13.305   0.880  12.085
15055W        W87381   5.225  18.004  12.073
15056W        W87382   1.855  28.626  10.779
15057W        W87383   9.896  28.453  13.075
15058W        W87384  38.576  29.961   4.195
15059W        W87385  40.974  21.689   2.664
15060W        W87386  42.795  44.423   4.507
15061W        W87387  27.545  19.524  11.154
15062W        W87388   2.889  30.133   2.587
15063W        W87389  25.870   4.349  10.785
15064W        W87390  27.505  31.118   1.470
15065W        W87391  14.682  34.415   3.822
15066W        W87392   3.750   4.222  10.655
15067W        W87393  24.935  17.027   0.143
15068W        W87394  18.874  10.768  12.504
15069W        W87395  25.165  27.483  10.664
15070W        W87396  13.031  26.062  11.191
15071W        W87397  24.011  16.609   3.539
15072W        W87398  39.281   6.959   3.339
15073W        W87399  32.138  26.174   4.555
15074W        W87400  43.002   7.482   0.865
15075W        W87401  44.297  43.938   4.156
15076W        W87402  34.003  31.555   0.038
15077W        W87403  40.779  22.382  12.918
15078W        W87404   6.746  23.077   2.350
15079W        W87405  27.747  14.324   4.214
15080W        W87406  33.530  17.575  14.758
15081W        W87407  30.463  32.483  11.898
15082W        W87408  39.410  38.161   3.139
15083W        W87409  13.703   4.813   5.056
15084W        W87410  11.212  39.321   0.822
15085W        W87411  32.239   8.284  12.434
15086W        W87412  35.473  20.941   2.638
15087W        W87413  28.605   0.076   1.168
15088W        W87414  19.751  11.737  13.350
15089W        W87415  40.187  27.633  13.837
15090W        W87416  19.181  17.124  12.922
15091W        W87417  10.004  22.767   3.219
15092W        W87418  25.628  33.431  11.932
15093W        W87419  42.747  29.421  12.546
15094W        W87420  30.190  30.078   1.547
15095W        W87421  35.283   0.471  14.409
15096W        W87422  30.197  28.628  10.633
15097W        W87423  39.862  35.073   4.589
15098W        W87424  20.769  25.226  14.431
15099W        W87425  26.647  41.047   3.623
15100W        W87426   3.654   7.768   4.138
15101W        W87427  16.634   4.646   2.600
15102W        W87428  13.829   4.897  10.596
15103W        W87429  22.552  32.178   2.799
15104W        W87430  33.343  34.135   2.631
15105W        W87431  38.301  33.870  11.201
15106W        W87432  42.294  35.837  10.904
15107W        W87433  34.381  34.848  13.321
15108W        W87434   2.819  19.981  13.662
15109W        W87435  38.010  29.313  10.558
15110W        W87436   3.400  15.742   2.894
15111W        W87437  35.374  32.973  12.896
15112W        W87438  31.375  25.234  11.029
15113W        W87439  41.393  25.940   4.108
15114W        W87440   2.798  25.602   1.954
15115W        W87441   0.800  32.120  13.048
15116W        W87442  40.437  28.515   3.787
15117W        W87443  31.157  24.448  10.911
15118W        W87444  37.569   3.293  13.902
15119W        W87445  30.010  13.781  11.479
15120W        W87446  26.382  13.493  13.433
15121W        W87447  39.520  18.991   0.910
15122W        W87448   1.555  25.152   4.192
15123W        W87449  14.018  44.530  11.030
15124W        W87450  39.116  20.480   2.318
15125W        W87451  33.969  23.597  11.335
15126W        W87452  41.727  29.907  14.354
15127W        W87453  25.804  13.845   1.859
15128W        W87454  18.202   0.446  11.441
15129W        W87455   3.314   4.586   3.749
15130W        W87456   5.348  39.690  12.844
15131W        W87457   4.188  29.193   4.112
15132W        W87458  14.175  21.501  11.348
15133W        W87459  38.938  15.208   3.260
15134W        W87460   4.812  17.257   1.384
15135W        W87461  40.561  25.645  12.439
15136W        W87462   0.305  36.322   2.745
15137W        W87463   4.808   9.720  13.386
15138W        W87464  30.441  11.783  13.751
15139W        W87465  24.675  30.131   4.354
15140W        W87466  32.398   3.427   0.623
15141W        W87467  23.337  16.700  11.328
15142W        W87468  31.340   0.015  14.867
15143W        W87469  17.529  31.067   4.073
15144W        W87470   9.755  42.002   4.135
15145W        W87471   7.349  32.003  14.289
15146W        W87472   1.990  39.388  14.529
15147W        W87473  32.122  29.562  12.439
15148W        W87474  33.046  30.651  12.033
15149W        W87475  36.901   8.177   1.319
15150W        W87476  14.377  22.301   1.430
15151W        W87477   8.432  16.989  12.299
15152W        W87478  30.627  42.424   4.805
15153W        W87479  39.062  37.607  13.024
15154W        W87480  21.646   7.512   0.736
15155W        W87481  23.890  16.615  13.495
15156W        W87482   4.189  44.110  11.152
15157W        W87483  40.434  20.785   3.084
15158W        W87484  37.465  19.991  10.555
15159W        W87485  13.046  12.781   3.598
15160W        W87486  15.589  27.476  13.346
15161W        W87487  32.816  23.441  14.374
15162W        W87488   6.601   1.408   0.456
15163W        W87489  38.416  31.597   4.701
15164W        W87490   8.355  28.528  10.563
15165W        W87491   5.083  27.916  12.512
15166W        W87492  14.261  22.484  13.028
15167W        W87493  44.513   2.350   2.208
15168W        W87494   2.234   0.594   1.233
15169W        W87495  17.515  26.178  12.068
15170W        W87496  40.186  20.693   0.389
15171W        W87497   4.918  34.971   4.105
15172W        W87498  10.769   0.764   1.283
15173W        W87499  14.783  18.070  10.954
15174W        W87500  37.557  23.307   0.834
15175W        W87501  15.423  38.592  11.167
15176W        W87502  40.503  35.432   3.250
15177W        W87503   2.848  23.151   0.936
15178W        W87504  14.134  26.996   4.120
15179W        W87505  12.163  10.580  10.709
15180W        W87506   2.880   5.544   0.975
15181W        W87507  23.721  14.532   3.781
15182W        W87508  35.042   9.779   3.069
15183W        W87509  15.844  20.569  11.955
15184W        W87510  17.629   9.881  14.869
15185W        W87511  21.638  10.670  14.303
15186W        W87512  38.461   7.285   2.301
15187W        W87513   9.614  24.137   2.702
15188W        W87514  37.542  18.724   3.691
15189W        W87515  30.614  40.465   3.947
15190W        W87516  30.681  15.159  14.508
15191W        W87517  40.887  27.225  10.605
15192W        W87518  29.432  16.825  13.276
15193W        W87519   1.637   1.535  10.775
15194W        W87520  30.593  43.052   0.287
15195W        W87521  22.085  36.393   2.147
15196W        W87522  41.755  30.547  12.997
15197W        W87523  17.169  18.501  12.542
15198W        W87524  24.762  33.456  11.760
15199W        W87525   0.977   1.472   3.365
15200W        W87526  37.505  41.699   2.154
15201W        W87527  28.478  16.300   2.229
15202W        W87528  36.842  27.756  14.719
15203W        W87529  21.984  17.078  11.469
15204W        W87530  21.774  21.755   4.346
15205W        W87531  33.443   4.997   0.820
15206W        W87532  16.630  29.654   1.826
15207W        W87533  18.112  12.832   2.392
15208W        W87534  22.273  35.816  12.015
15209W        W87535  44.366  37.949  11.423
15210W        W87536  29.835  30.061  10.700
15211W        W87537  38.560  30.057   2.325
15212W        W87538  39.926  24.267  12.637
15213W        W87539  35.177  31.528   0.486
15214W        W87540   1.133   9.069   3.571
15215W        W87541  10.016  17.613  13.573
15216W        W87542   6.435  26.193   0.245
15217W        W87543  13.999  24.567  11.526
15218W        W87544  31.921  19.010   1.857
15219W        W87545   9.799  40.221  14.296
15220W        W87546  25.429  42.119   1.762
15221W        W87547   6.658   4.607  14.442
15222W        W87548  20.492  19.882   4.158
15223W        W87549  35.384  25.589   2.230
15224W        W87550   6.128  25.099  10.723
15225W        W87551  35.009  16.124   3.282
15226W        W87552   5.291  19.449  13.266
15227W        W87553   7.310  39.487   1.043
15228W        W87554   5.654   7.651   1.739
15229W        W87555  34.029  37.761   2.106
15230W        W87556   6.126  31.547   1.341
15231W        W87557  24.727  40.248   1.390
15232W        W87558  15.150  43.215  12.952
15233W        W87559   1.087   8.099   4.266
15234W        W87560  16.980  26.668   2.674
15235W        W87561  27.879  37.084   4.308
15236W        W87562   1.834  28.914  14.047
15237W        W87563  41.960   5.304  10.514
15238W        W87564  23.015  25.502  12.155
15239W        W87565  17.348  35.486   1.776
15240W        W87566   4.243  12.813  12.149
15241W        W87567  29.707  19.634   5.001
15242W        W87568   9.305   9.707   2.392
15243W        W87569  22.286  25.635  14.492
15244W        W87570  17.743  29.617   4.588
15245W        W87571  34.636   8.188  11.525
15246W        W87572  23.594  31.609   3.906
15247W        W87573  44.069   8.804   4.528
15248W        W87574  36.517  21.572   1.830
15249W        W87575  25.705  44.355   1.772
15250W        W87576  39.580   1.433   0.149
15251W        W87577  40.415  38.528  10.624
15252W        W87578  27.103   1.363   3.956
15253W        W87579  42.897  27.774   0.405
15254W        W87580   9.159  19.280   4.031
15255W        W87581  13.011  35.216  11.595
15256W        W87582  17.221  42.856   1.170
15257W        W87583   9.221  30.425   0.968
15258W        W87584  37.110  14.093   4.522
15259W        W87585   2.097  19.126   1.195
15260W        W87586   2.989  18.509   4.122
15261W        W87587  18.427  27.466  11.176
15262W        W87588  32.533  40.741  11.495
15263W        W87589  17.069   6.749  11.503
15264W        W87590  21.580  38.506   2.143
15265W        W87591  38.028  37.913  10.653
15266W        W87592  23.714   5.720   3.276
15267W        W87593  17.899  39.950   1.906
15268W        W87594  32.599  29.137  14.769
15269W        W87595  34.851   9.976  13.312
15270W        W87596  29.105  20.538   4.284
15271W        W87597   3.962  10.907   2.875
15272W        W87598  22.302   5.485   2.718
15273W        W87599  12.594  42.241   1.306
15274W        W87600  43.115  36.219   2.410
15275W        W87601  22.690   1.201   1.127
15276W        W87602  24.621  22.197   0.770
15277W        W87603  28.718  20.334  13.812
15278W        W87604  16.517  43.866  14.827
15279W        W87605  23.303   9.234  13.277
15280W        W87606  40.863  18.244   1.929
15281W        W87607  19.552   4.890   0.486
15282W        W87608  26.976  28.152   3.222
15283W        W87609   5.841  25.658   4.882
15284W        W87610  41.272  23.841  13.979
15285W        W87611  25.916  27.998   1.740
15286W        W87612   8.734  24.949   1.483
15287W        W87613  24.229  30.662   0.322
15288W        W87614  31.750  43.504   2.910
15289W        W87615  14.262  27.157  10.207
15290W        W87616  40.861  13.793  13.404
15291W        W87617  27.215  15.674  10.668
15292W        W87618  32.603  19.102  14.472
15293W        W87619  39.910  40.489   4.092
15294W        W87620  34.136  38.852  10.221
15295W        W87621   2.381   6.899  14.874
15296W        W87622   9.915  16.647  11.009
15297W        W87623   2.382  32.508  12.020
15298W        W87624   7.906  12.424   0.785
15299W        W87625   4.316  40.521   3.917
15300W        W87626  20.666   5.126  14.340
15301W        W87627   9.733  16.139  11.879
15302W        W87628  29.598   3.282  12.890
15303W        W87629  32.598  24.555   3.798
15304W        W87630   6.212  13.707   2.584
15305W        W87631  13.311  26.056  13.057
15306W        W87632  35.611  42.040  13.330
15307W        W87633   6.609  19.971  11.109
15308W        W87634  23.980  33.422  12.806
15309W        W87635  42.859  31.489  10.720
15310W        W87636   9.334  18.740  11.019
15311W        W87637  40.315   2.707   4.618
15312W        W87638  24.514  20.716  13.787
15313W        W87639  11.568  15.851  13.406
15314W        W87640  32.869  10.232   4.767
15315W        W87641  19.883  34.803  12.938
15316W        W87642  23.030  35.273  14.301
15317W        W87643  41.372  43.283   3.214
15318W        W87644   8.116   6.450   1.185
15319W        W87645  35.787   9.823   2.069
15320W        W87646  21.507  43.136   1.079
15321W        W87647  36.768  15.738   2.081
15322W        W87648  15.680  37.094  14.606
15323W        W87649  44.434  19.322   1.043
15324W        W87650  22.706  40.904  12.809
15325W        W87651  16.443  23.734   1.856
15326W        W87652  28.645  35.123  13.459
15327W        W87653  11.544  30.176   1.388
15328W        W87654  21.676  32.005  11.028
15329W        W87655   8.489   0.719   2.152
15330W        W87656  39.128  37.965   2.733
15331W        W87657  31.496  35.101   4.369
15332W        W87658   2.514  24.221   1.838
15333W        W87659  41.844  21.226  12.346
15334W        W87660  21.512  10.296   4.571
15335W        W87661   9.650  27.608   0.904
15336W        W87662  28.287  15.550  10.040
15337W        W87663  31.359  10.250  10.714
15338W        W87664   9.159  23.560  10.690
15339W        W87665  36.995  28.104  14.170
15340W        W87666  22.708  29.043   4.617
15341W        W87667  40.435  29.070   3.134
15342W        W87668  44.465  23.116   0.542
15343W        W87669   4.730   6.329  10.634
15344W        W87670  41.731   1.862   3.867
15345W        W87671  24.758  34.524   2.248
15346W        W87672  23.701  41.792  14.004
15347W        W87673  18.107  32.388   0.832
15348W        W87674  15.749  35.647   1.909
15349W        W87675  14.107  24.743  10.680
15350W        W87676  40.029  13.872   4.699
15351W        W87677  17.088   2.142   3.686
15352W        W87678  30.525  24.799  13.686
15353W        W87679  11.200  23.910   4.139
15354W        W87680   4.066  25.182  11.032
15355W        W87681   5.271  19.100   4.339
15356W        W87682   1.324   7.699  10.475
15357W        W87683   4.479  39.673  11.961
15358W        W87684  25.114  22.120   4.377
15359W        W87685  23.477   4.850  10.187
15360W        W87686  29.782  10.389  10.357
15361W        W87687  18.352  32.173  14.653
15362W        W87688   3.056  23.697  11.979
15363W        W87689  24.573  39.353  13.734
15364W        W87690  30.887  19.573   1.262
15365W        W87691  31.375  24.474  14.066
15366W        W87692   7.825  18.643   2.595
15367W        W87693  10.485  24.487  12.206
15368W        W87694  14.853  34.084   0.946
15369W        W87695  22.021  25.978   2.590
15370W        W87696  42.274  27.508  11.969
15371W        W87697  24.410  14.741   4.638
15372W        W87698  28.637  13.211   1.246
15373W        W87699   2.953  41.328  11.852
15374W        W87700  27.105  10.957   2.238
15375W        W87701   8.967  13.091  12.596
15376W        W87702  18.561  44.056  11.431
15377W        W87703  39.452  35.043  11.952
15378W        W87704   3.037   3.166   0.675
15379W        W87705  17.404  13.207  12.436
15380W        W87706  27.160  38.343  10.626
15381W        W87707  29.968  15.556  14.862
15382W        W87708  44.475  43.575   3.563
15383W        W87709   8.669  24.510  14.318
15384W        W87710   2.495   7.254  11.497
15385W        W87711  25.026  43.003  10.850
15386W        W87712   1.376  24.549  13.785
15387W        W87713  22.040   9.753  12.572
15388W        W87714  27.219  36.081  10.968
15389W        W87715  33.313   8.677  11.518
15390W        W87716  29.147   8.356  14.309
15391W        W87717  36.640   7.870  14.402
15392W        W87718  31.628  24.188   3.169
15393W        W87719  38.107  12.888  13.771
15394W        W87720  27.183  24.756  11.980
15395W        W87721  20.310  43.884  13.854
15396W        W87722  17.720  41.586   0.327
15397W        W87723   9.338   3.759  14.460
15398W        W87724  38.166  14.710   2.153
15399W        W87725  15.066   4.438   3.294
15400W        W87726  30.041   8.918  11.643
15401W        W87727  40.103  26.127  14.704
15402W        W87728   9.504   8.632  11.153
15403W        W87729  44.539  11.774  14.959
15404W        W87730  15.131  42.346  11.799
15405W        W87731  26.956  30.807  11.652
15406W        W87732  44.438  36.974  13.814
15407W        W87733  14.560   4.838   4.028
15408W        W87734  28.968  31.925  13.476
15409W        W87735  25.934  30.807   1.782
15410W        W87736  22.980  32.889  12.045
15411W        W87737  23.226  35.133   3.340
15412W        W87738   9.204  43.574  12.536
15413W        W87739  17.635  40.416  14.294
15414W        W87740  19.061   7.632   0.776
15415W        W87741  34.588  24.039   3.726
15416W        W87742  42.750  13.804  14.790
15417W        W87743  16.232  21.052   3.441
15418W        W87744  24.906  44.331  12.572
15419W        W87745   3.566   1.242  10.496
15420W        W87746  24.525   4.145  11.220
15421W        W87747  15.910  13.889  10.213
15422W        W87748  41.298   6.339   0.804
15423W        W87749  20.537  27.922  13.164
15424W        W87750   7.193  24.962  13.883
15425W        W87751  18.947  19.155  11.582
15426W        W87752  32.508   6.456  10.449
15427W        W87753  12.745  33.151   0.077
15428W        W87754   3.391  37.688  14.068
15429W        W87755  42.977  11.765   2.385
15430W        W87756  14.201  27.347  11.558
15431W        W87757  34.612  36.406  14.457
15432W        W87758  19.740   7.372   2.836
15433W        W87759  20.409  28.075   3.236
15434W        W87760  37.909   9.119  14.305
15435W        W87761  28.445  19.632   1.964
15436W        W87762   1.946  44.268  13.553
15437W        W87763  15.372  15.229  13.882
15438W        W87764  42.323   0.489  12.948
15439W        W87765  42.413  43.901   2.302
15440W        W87766  26.143  24.459   4.142
15441W        W87767  36.984   8.837   3.684
15442W        W87768  24.127  32.853  11.597
15443W        W87769  20.407  20.552   3.692
15444W        W87770  11.734  26.396   4.160
15445W        W87771  25.611  39.610  10.128
15446W        W87772  34.586  11.156   3.310
15447W        W87773  34.770   1.276   4.987
15448W        W87774  36.272  29.441   0.989
15449W        W87775  21.486  38.278   1.662
15450W        W87776  16.898  14.940  10.939
15451W        W87777  33.324   0.814  14.629
15452W        W87778  43.336   9.070  14.405
15453W        W87779   2.033  12.585  11.346
15454W        W87780  23.635  32.592  14.113
15455W        W87781   6.701   7.626  14.529
15456W        W87782  15.225  29.643   2.257
15457W        W87783  26.012  23.420   2.347
15458W        W87784  33.981   6.485   3.584
15459W        W87785   3.477  19.485  13.469
15460W        W87786  35.444  24.081  14.470
15461W        W87787  23.733  22.579  14.837
15462W        W87788  12.225  30.006   1.374
15463W        W87789  24.780  27.571  11.591
15464W        W87790  35.911   3.985   3.526
15465W        W87791  39.366   6.255  12.576
15466W        W87792   4.607   2.310   1.144
15467W        W87793  15.092   7.415  12.502
15468W        W87794  42.468  34.797  12.887
15469W        W87795  43.752  21.230  13.938
15470W        W87796  40.492  28.272  11.181
15471W        W87797  31.027  43.568   4.756
15472W        W87798  16.783   1.993   0.732
15473W        W87799  24.145   2.430   4.677
15474W        W87800  19.836   8.266  14.524
15475W        W87801  28.993  41.018   2.091
15476W        W87802   8.199   9.128  12.045
15477W        W87803  25.196  16.831   2.323
15478W        W87804   3.471  18.951  11.569
15479W        W87805  20.934  35.533   0.901
15480W        W87806  32.695  34.084   4.583
15481W        W87807  25.028  43.908   0.427
15482W        W87808  40.911   8.759  14.915
15483W        W87809   3.407   8.319  13.428
15484W        W87810  29.553   0.863  13.559
15485W        W87811  12.387   5.924   3.260
15486W        W87812   1.187  37.461  13.352
15487W        W87813   9.688   1.910  11.627
15488W        W87814   3.694  28.424   0.917
15489W        W87815   4.368  17.844  14.871
15490W        W87816  33.842  24.933  11.668
15491W        W87817  35.267  16.248  11.922
15492W        W87818  21.268  17.630  10.279
15493W        W87819  16.181  43.586   4.260
15494W        W87820   2.267  25.398   3.213
15495W        W87821  10.853   7.416  12.015
15496W        W87822  18.316  27.417   3.987
15497W        W87823   2.304  26.644   0.833
15498W        W87824  36.385  42.268  14.987
15499W        W87825   0.827  12.573  14.735
15500W        W87826   8.780  37.139   0.238
15501W        W87827  42.429  21.780  11.429
15502W        W87828  12.582   7.821  13.923
15503W        W87829  34.583  18.620   2.794
15504W        W87830  25.178  32.902   1.906
15505W        W87831  24.633   4.276  12.072
15506W        W87832  20.298   4.654   1.763
15507W        W87833  38.987  16.763   0.724
15508W        W87834  36.078  37.300  10.359
15509W        W87835   9.257  23.740   2.686
15510W        W87836  28.556  41.366   5.007
15511W        W87837  36.968  40.101  13.416
15512W        W87838   6.234  24.259  13.303
15513W        W87839   7.342  13.204   4.921
15514W        W87840   8.110  33.128   1.009
15515W        W87841  20.176  28.644  12.887
15516W        W87842  28.877  41.301  12.407
15517W        W87843  26.172  26.509  10.614
15518W        W87844  34.460  37.397   3.761
15519W        W87845  18.610   3.877   3.474
15520W        W87846  41.618  35.577  12.001
15521W        W87847  35.582  28.698  14.913
15522W        W87848  27.365   2.282   0.286
15523W        W87849  11.453   5.278   1.039
15524W        W87850  10.174   7.845  10.603
15525W        W87851  11.005  10.394   1.028
15526W        W87852  37.127  11.967  10.358
15527W        W87853   9.098  37.405  11.013
15528W        W87854   3.245  35.078   1.491
15529W        W87855  24.216  11.488  13.283
15530W        W87856  42.087  32.996   0.848
15531W        W87857  10.788  37.139  12.429
15532W        W87858  19.612  10.832   2.100
15533W        W87859   7.842  37.198  12.069
15534W        W87860  11.235  44.404  11.622
15535W        W87861  15.346  42.503   3.709
15536W        W87862  26.867  10.289   4.591
15537W        W87863  32.472  36.591  14.819
15538W        W87864  19.024   0.716  13.737
15539W        W87865  21.210  16.884  14.096
15540W        W87866  23.723  24.126  10.523
15541W        W87867  37.844   9.292  14.783
15542W        W87868  24.524  42.101  12.671
15543W        W87869  14.644  22.963   4.611
15544W        W87870  38.874  26.755   0.044
15545W        W87871   3.383  43.800  14.359
15546W        W87872   9.946  18.160   5.200
15547W        W87873  27.939  44.445  10.906
15548W        W87874  10.854  15.510   2.885
15549W        W87875  36.604  20.295  12.092
15550W        W87876  10.288  37.019   3.602
15551W        W87877  36.780  24.158  14.718
15552W        W87878   2.728  38.119  14.512
15553W        W87879  33.099   6.080  11.502
15554W        W87880   3.382  12.643  11.935
15555W        W87881  27.587   2.463   0.908
15556W        W87882  36.843  23.008   3.240
15557W        W87883  20.282  41.475   1.241
15558W        W87884   6.950  15.752   3.529
15559W        W87885  42.319  13.219  12.007
15560W        W87886   5.290  15.057   0.421
15561W        W87887  44.296  27.924  12.070
15562W        W87888  21.505   4.637   2.231
15563W        W87889  26.413  27.175  12.985
15564W        W87890  44.493   7.716  13.154
15565W        W87891   5.169  16.903  14.979
15566W        W87892  12.702  37.144  11.583
15567W        W87893  33.506  25.716   4.337
15568W        W87894  26.454  11.848   3.726
15569W        W87895  16.544   5.822  14.879
15570W        W87896  21.896  37.503   3.634
15571W        W87897  21.729   9.465  14.776
15572W        W87898  16.108  28.395   5.164
15573W        W87899   5.369   4.614  13.324
15574W        W87900  35.412  20.084  12.506
15575W        W87901  29.432  27.764   1.928
15576W        W87902  14.289  40.604  12.064
15577W        W87903  20.639   7.745   1.457
15578W        W87904  24.636  21.712  12.952
15579W        W87905  36.365  19.068  11.042
15580W        W87906  27.472  34.482   3.204
15581W        W87907  36.790   6.833  13.665
15582W        W87908  36.360   8.192   4.833
15583W        W87909  38.806   6.727  14.803
15584W        W87910   1.226  14.886   3.655
15585W        W87911  35.153  44.247   0.244
15586W        W87912  36.110  20.239  11.213
15587W        W87913  17.732   1.297   2.400
15588W        W87914   0.770  24.999   1.264
15589W        W87915  29.674  14.898  12.520
15590W        W87916   5.837  39.690   4.605
15591W        W87917  43.431  26.751   3.279
15592W        W87918  32.819  12.341   2.699
15593W        W87919  38.369  20.347  11.661
15594W        W87920  27.467  39.332   0.049
15595W        W87921  19.182   4.831  13.755
15596W        W87922   7.713  19.149   3.387
15597W        W87923  12.788  40.072   2.144
15598W        W87924   3.342   3.894  12.601
15599W        W87925  36.816   9.250  14.748
15600W        W87926   9.113   6.523   1.373
15601W        W87927  32.724  15.404   1.171
15602W        W87928  20.136  20.580   0.405
15603W        W87929   5.764  25.112   4.179
15604W        W87930  19.188   4.328  13.549
15605W        W87931  15.511  30.342   4.147
15606W        W87932  31.882  29.636   3.146
15607W        W87933  23.098  20.298   4.837
15608W        W87934  33.067  35.220  11.751
15609W        W87935  22.603  28.126   0.358
15610W        W87936  13.247  21.176   3.990
15611W        W87937  12.123  16.154   0.678
15612W        W87938  23.729   3.216  11.183
15613W        W87939  23.556   9.386   2.447
15614W        W87940  42.742  33.410   2.409
15615W        W87941   1.373  35.252   1.632
15616W        W87942  31.161  33.007  14.797
15617W        W87943  21.507  17.038  14.515
15618W        W87944  25.409  25.239   4.270
15619W        W87945  20.022  39.390   2.318
15620W        W87946  29.226  22.633  10.561
15621W        W87947  41.752  19.204  12.435
15622W        W87948  15.356  13.862   0.702
15623W        W87949   3.046   9.817   0.431
15624W        W87950  29.235  27.194  12.398
15625W        W87951  18.917  20.081  14.326
15626W        W87952   4.161  38.584   1.851
15627W        W87953   9.621  44.943   3.476
15628W        W87954  14.155   8.715   3.781
15629W        W87955  16.588   4.481   3.809
15630W        W87956   1.443  43.171   1.696
15631W        W87957  16.608  39.573  13.803
15632W        W87958   0.309   0.862  13.881
15633W        W87959  34.153  20.421   4.086
15634W        W87960  35.287   5.219   2.898
15635W        W87961   3.229   3.943   5.106
15636W        W87962   1.685  14.229  12.465
15637W        W87963   9.264  18.320  12.529
15638W        W87964   5.291  33.631   0.919
15639W        W87965   7.143  18.673  10.584
15640W        W87966  34.943  21.305   3.884
15641W        W87967  29.600  36.096  14.997
15642W        W87968  23.518  21.897   1.868
15643W        W87969  44.082  13.297   4.016
15644W        W87970  31.646   6.713   2.163
15645W        W87971  32.184  28.002  11.182
15646W        W87972   1.419  23.068  10.590
15647W        W87973  37.535  23.709  12.872
15648W        W87974  17.653  29.652  14.520
15649W        W87975  22.632  12.055  14.414
15650W        W87976  33.995  27.609   0.252
15651W        W87977  25.035  43.520  13.489
15652W        W87978  34.432   9.122  12.461
15653W        W87979  16.268  42.761  10.629
15654W        W87980  14.178  29.341  11.548
15655W        W87981   6.823  14.152  14.241
15656W        W87982  26.691  15.663  10.528
15657W        W87983  31.007  43.098  12.671
15658W        W87984   3.113  19.190  12.113
15659W        W87985  43.029  40.798   4.108
15660W        W87986   7.795  33.979   0.454
15661W        W87987   8.459  44.942  12.293
15662W        W87988  29.397  14.280  13.764
15663W        W87989   4.490  41.381   3.364
15664W        W87990   3.815   3.022   1.645
15665W        W87991  38.912  41.277  13.941
15666W        W87992  19.723  20.108   3.032
15667W        W87993  21.045  21.085   5.418
15668W        W87994  20.043  35.282  13.002
15669W        W87995  20.583  38.414   4.545
15670W        W87996  29.010  28.507   3.624
15671W        W87997  29.113  30.516  11.538
15672W        W87998  17.675  11.703   3.222
15673W        W87999  39.291  21.639  10.465
15674W        W88000  15.512  11.746   5.075
15675W        W88001  44.627  40.283   4.528
15676W        W88002  34.564  24.620   4.620
15677W        W88003  36.905  34.977   0.379
15678W        W88004  10.983   6.622   1.498
15679W        W88005   2.429  18.494   2.783
15680W        W88006  32.808  38.381  13.434
15681W        W88007  18.550  15.351  13.861
15682W        W88008  17.298  26.915   3.208
15683W        W88009  29.677  29.568  10.619
15684W        W88010  29.993   2.474  11.617
15685W        W88011   8.967   7.889  13.807
15686W        W88012   5.573   7.341   3.688
15687W        W88013   2.577   6.605   4.027
15688W        W88014  24.357  14.129   1.249
15689W        W88015  18.199  32.410   2.208
15690W        W88016  35.557  14.114   3.715
15691W        W88017  10.537   1.769  14.064
15692W        W88018  20.838   5.408  13.086
15693W        W88019  41.038  43.574  13.680
15694W        W88020  14.078  24.521   2.328
15695W        W88021  10.293   0.002   2.332
15696W        W88022   3.181  42.292  13.783
15697W        W88023  41.899  42.106   4.578
15698W        W88024  17.289  11.648  11.486
15699W        W88025   2.010  25.551   4.128
15700W        W88026   8.770   0.833   3.643
15701W        W88027  42.087   3.244   2.420
15702W        W88028  10.868  20.269   2.347
15703W        W88029  23.308  28.638  11.144
15704W        W88030  21.321  14.612   4.241
15705W        W88031  36.397  34.964   0.322
15706W        W88032  28.121   2.411  12.542
15707W        W88033  38.557  25.675  12.400
15708W        W88034  39.639  17.246   2.688
15709W        W88035   2.405  11.044  12.957
15710W        W88036  12.159  35.536  11.425
15711W        W88037   1.928  14.872   0.520
15712W        W88038  19.602  13.299   2.348
15713W        W88039  15.763  11.489   1.282
15714W        W88040  26.121  36.123  13.341
15715W        W88041  33.739  20.723   2.667
15716W        W88042  35.496   8.374  14.904
15717W        W88043  26.029  43.350  13.451
15718W        W88044  12.684  34.967   1.065
15719W        W88045  39.966  11.368  12.088
15720W        W88046   8.714  12.924   4.718
15721W        W88047  15.873  21.552  10.380
15722W        W88048  17.326   9.318   3.687
15723W        W88049  32.992   3.505  15.000
15724W        W88050   9.467  40.328   3.904
15725W        W88051  20.184  29.353   4.492
15726W        W88052   2.686  29.234   4.832
15727W        W88053  35.186  43.246   2.332
15728W        W88054  31.491  16.049   2.177
15729W        W88055   0.187  35.574   4.254
15730W        W88056  16.645  32.040   3.801
15731W        W88057  27.966  35.557   3.390
15732W        W88058  36.869  43.881   5.024
15733W        W88059  38.065  43.386   2.887
15734W        W88060  30.887  11.114   0.378
15735W        W88061   8.602   3.414   4.156
15736W        W88062  30.477  30.901  12.420
15737W        W88063   0.341  38.720  13.430
15738W        W88064  29.321   4.903   2.661
15739W        W88065   7.660   9.533  14.067
15740W        W88066  38.524   6.830   4.595
15741W        W88067  39.850  40.772   4.539
15742W        W88068  30.102  15.886  11.631
15743W        W88069  20.626  38.973   9.818
15744W        W88070  35.031  28.332   4.708
15745W        W88071  12.293  12.172   1.216
15746W        W88072   0.017  33.942   1.589
15747W        W88073  14.665  38.462  12.986
15748W        W88074   4.892  12.317   0.434
15749W        W88075  37.780  34.452   4.084
15750W        W88076   3.705  14.059   3.761
15751W        W88077  26.117  12.618  13.522
15752W        W88078  32.518  11.084  14.955
15753W        W88079  31.120  21.802   3.806
15754W        W88080   1.289  26.575   2.644
15755W        W88081   5.979  26.192  14.263
15756W        W88082  26.855  16.933  11.103
15757W        W88083   9.801  44.838  10.447
15758W        W88084  22.530   7.488   1.963
15759W        W88085  24.086  23.955  12.532
15760W        W88086  34.404  17.301  12.036
15761W        W88087  44.642  24.400  11.966
15762W        W88088  30.460  29.631   3.298
15763W        W88089  34.122   9.295  14.753
15764W        W88090  35.984   0.985   3.489
15765W        W88091  39.325  41.399   1.809
15766W        W88092  17.353  16.669  11.576
15767W        W88093  39.456  22.743   4.770
15768W        W88094  30.478   5.692   1.699
15769W        W88095   8.402  44.892   2.226
15770W        W88096   8.158  18.420  13.611
15771W        W88097  36.989  40.425  12.996
15772W        W88098  39.514  11.879   3.452
15773W        W88099  38.307  30.364   4.035
15774W        W88100  15.680  20.432  10.668
15775W        W88101  37.795  43.851   2.801
15776W        W88102  38.313  31.905  13.957
15777W        W88103  39.565  21.506  13.000
15778W        W88104  23.520  11.329   2.809
15779W        W88105  26.689   7.772   0.911
15780W        W88106  14.608  22.235   0.457
15781W        W88107  37.507  41.543  14.415
15782W        W88108   3.949   7.892  11.592
15783W        W88109   6.248  39.446   0.887
15784W        W88110   4.855  19.526  10.411
15785W        W88111  21.776  22.181   1.830
15786W        W88112  30.451  14.274   2.822
15787W        W88113   4.796  37.445   4.130
15788W        W88114  36.005  17.450  11.513
15789W        W88115  17.267  17.725   2.234
15790W        W88116  43.521  42.734   3.251
15791W        W88117   5.422   9.882   2.545
15792W        W88118   1.405  22.854   3.179
15793W        W88119  41.888  43.809  14.421
15794W        W88120  42.508  24.196  10.682
15795W        W88121  42.521  36.911   2.175
15796W        W88122  22.985  31.041   2.591
15797W        W88123  43.433  14.198   4.231
15798W        W88124   8.815  40.011   0.180
15799W        W88125  20.112   3.514  13.767
15800W        W88126  21.320   5.871  12.460
15801W        W88127  20.516   5.953  12.058
15802W        W88128  31.346  33.341   2.638
15803W        W88129  24.413  27.045  10.802
15804W        W88130   1.331  34.361   1.650
15805W        W88131  42.413  16.277   3.314
15806W        W88132  43.783   3.450  14.426
15807W        W88133  30.552  17.079  11.930
15808W        W88134  15.126  13.038  12.084
15809W        W88135  19.712  38.093  14.360
15810W        W88136  25.678  43.936   2.730
15811W        W88137  37.265  23.219  13.900
15812W        W88138   2.520   0.220  14.835
15813W        W88139  37.489  25.206  13.014
15814W        W88140  13.683   2.762   2.798
15815W        W88141   8.330  14.609  13.936
15816W        W88142  39.490  41.636   2.867
15817W        W88143  15.229  39.061   0.946
15818W        W88144  38.320  40.032  13.451
15819W        W88145  26.939  28.968  13.838
15820W        W88146  20.543   9.450   1.795
15821W        W88147  22.961  28.171  11.089
15822W        W88148  29.490   8.759  10.887
15823W        W88149  22.587   5.255  12.558
15824W        W88150  12.907  18.000  10.613
15825W        W88151  20.123   7.369   4.461
15826W        W88152  10.655   3.525  13.551
15827W        W88153   0.185  34.825  13.330
15828W        W88154  37.916  17.677   3.246
15829W        W88155  10.363   7.883   1.182
15830W        W88156  11.272  15.822   2.845
15831W        W88157  34.755   4.604  13.368
15832W        W88158  25.413  34.339  14.389
15833W        W88159  30.453  32.523  12.778
15834W        W88160  15.727  40.516   2.212
15835W        W88161  28.727  44.200   0.965
15836W        W88162   1.512  26.586   4.546
15837W        W88163  18.506   7.734  11.633
15838W        W88164   2.964  29.078  12.589
15839W        W88165  36.492  37.522  10.001
15840W        W88166   9.222  22.972   1.120
15841W        W88167  44.721   0.028   4.488
15842W        W88168  14.684  10.031  14.382
15843W        W88169  39.842   0.191  14.033
15844W        W88170   7.466   6.828   3.409
15845W        W88171  25.508  18.361  12.443
15846W        W88172  18.562  13.421   4.542
15847W        W88173  28.208   3.902  12.810
15848W        W88174  15.363  40.572  12.066
15849W        W88175  22.610  20.435  12.506
15850W        W88176  17.926  28.437  14.959
15851W        W88177  10.274  28.196  12.876
15852W        W88178  19.294   1.376   3.276
15853W        W88179  39.905  25.120   1.430
15854W        W88180   9.738   0.759   2.124
15855W        W88181  20.235  22.229  14.400
15856W        W88182  32.100   2.995  12.872
15857W        W88183  44.811  26.160  12.060
15858W        W88184  15.158  44.462   5.014
15859W        W88185  33.557   8.539  11.103
15860W        W88186  12.137  20.487  12.045
15861W        W88187  22.100  34.333  14.211
15862W        W88188  33.399  22.626   2.732
15863W        W88189   5.506  13.566   0.259
15864W        W88190  26.508   9.329   3.784
15865W        W88191  38.076  31.039  11.260
15866W        W88192  42.349  19.400   2.219
15867W        W88193  28.130  35.981   0.071
15868W        W88194  32.838  12.281  11.714
15869W        W88195   3.913  14.743   0.709
15870W        W88196  24.487   0.805  13.033
15871W        W88197  39.082  15.622   0.253
15872W        W88198  41.900  38.908  10.284
15873W        W88199  14.787  25.421  14.147
15874W        W88200   2.825  23.697   0.826
15875W        W88201  37.002   8.853  12.595
15876W        W88202  13.884  42.040  14.889
15877W        W88203  37.954  40.656  11.929
15878W        W88204  34.574   5.946  13.109
15879W        W88205  13.325  23.238  12.145
15880W        W88206  32.190  41.948   0.898
15881W        W88207  36.498  27.096  14.322
15882W        W88208  26.016   2.962  12.071
15883W        W88209   2.296  20.136   0.951
15884W        W88210  20.222  21.231   4.086
15885W        W88211  43.997  36.068   4.513
15886W        W88212  25.727  19.513   3.179
15887W        W88213   3.463  42.522  11.158
15888W        W88214  30.028  39.783   2.729
15889W        W88215  25.548   0.968  10.494
15890W        W88216  28.180   0.534   4.048
15891W        W88217  27.242   0.805  13.380
15892W        W88218  31.392   6.745   4.713
15893W        W88219  36.374  40.543   0.282
15894W        W88220   9.171  30.596  13.925
15895W        W88221  12.606  23.074   4.862
15896W        W88222  27.361  29.257   4.558
15897W        W88223  43.308  22.955  13.871
15898W        W88224  11.906   4.823   0.387
15899W        W88225  34.659  43.434  12.970
15900W        W88226   2.439  24.708   4.067
15901W        W88227   4.353   7.106   1.700
15902W        W88228  25.637  29.875   4.728
15903W        W88229  36.249  15.331  14.809
15904W        W88230  44.509  13.661   4.896
15905W        W88231   8.809  23.955   1.654
15906W        W88232  25.062  17.741   5.585
15907W        W88233  16.647  22.957  10.647
15908W        W88234  17.806  42.793  11.891
15909W        W88235  37.373   6.299   1.497
15910W        W88236  43.051  15.501  11.962
15911W        W88237  37.280   7.320  13.921
15912W        W88238   3.265   7.862   1.796
15913W        W88239  22.458  29.944   9.954
15914W        W88240  20.056  21.172   3.599
15915W        W88241  21.257  27.187   1.413
15916W        W88242  37.059  31.328   3.608
15917W        W88243  24.818   7.899   4.676
15918W        W88244  31.196  11.743   3.695
15919W        W88245  34.883  44.608  11.496
15920W        W88246  18.893  15.219   0.376
15921W        W88247   8.064  29.438   2.232
15922W        W88248  31.547   8.235  13.927
15923W        W88249   3.756  23.244  14.460
15924W        W88250  16.687  22.423  14.601
15925W        W88251  36.546  23.166   0.847
15926W        W88252   9.873   4.770   3.277
15927W        W88253  12.533   2.575   3.331
15928W        W88254   2.875  33.549   0.518
15929W        W88255   5.298   3.893   3.809
15930W        W88256  25.187  20.172   0.859
15931W        W88257  19.747   0.492   3.376
15932W        W88258  28.236  23.734   3.713
15933W        W88259  41.803  23.686  14.008
15934W        W88260  42.288  34.936  14.774
15935W        W88261  36.142  25.035   4.201
15936W        W88262  13.416  18.382  10.238
15937W        W88263  29.418  34.443  11.022
15938W        W88264  26.116  27.592   9.686
15939W        W88265   9.813  10.518  12.973
15940W        W88266  31.396  43.684   0.882
15941W        W88267  27.690  23.691   4.606
15942W        W88268  26.641  10.768   2.257
15943W        W88269   9.846  26.671  13.418
15944W        W88270  40.324  15.191   4.611
15945W        W88271  23.329  25.585  11.150
15946W        W88272  32.745  44.006   0.785
15947W        W88273  42.666  15.844  14.439
15948W        W88274  18.843  27.555  14.460
15949W        W88275  41.926  43.323   1.337
15950W        W88276  17.100  41.644  14.991
15951W        W88277  43.963  14.226   4.240
15952W        W88278  38.113   6.834   1.234
15953W        W88279  34.522  39.403  11.850
15954W        W88280  39.241   3.902   3.165
15955W        W88281  37.565  44.463  10.636
15956W        W88282   0.936  39.266   0.845
15957W        W88283   3.916  32.921  13.414
15958W        W88284  10.502  42.928   0.416
15959W        W88285  14.452   2.407   4.135
15960W        W88286  17.670  24.106  10.997
15961W        W88287  10.190  34.795   2.701
15962W        W88288  42.099  42.251   3.434
15963W        W88289  37.881  24.462   3.679
15964W        W88290  18.709  39.161   1.303
15965W        W88291  29.423  25.099   3.615
15966W        W88292  36.323   9.855   0.916
15967W        W88293  16.796   9.160  11.094
15968W        W88294   1.091   2.955  14.008
15969W        W88295  44.792  21.267  10.424
15970W        W88296  16.823   5.148   2.573
15971W        W88297   1.258  11.326   3.364
15972W        W88298   3.086  26.999  13.116
15973W        W88299  34.324  39.552   0.889
15974W        W88300  41.587  26.662  12.102
15975W        W88301  25.085  22.140   1.661
15976W        W88302   4.864  23.323  10.998
15977W        W88303  39.982  35.509  14.554
15978W        W88304  32.453   1.260   4.172
15979W        W88305  21.698  37.014   1.333
15980W        W88306   3.182  33.418  13.760
15981W        W88307  16.604  32.597   2.722
15982W        W88308  38.548  33.399  11.241
15983W        W88309  29.452   3.234  13.775
15984W        W88310  27.821   4.745  12.658
15985W        W88311  11.598  15.784  10.624
15986W        W88312   9.354   8.927   3.588
15987W        W88313  20.557  37.930   0.495
15988W        W88314  41.754  31.887   0.162
15989W        W88315  38.030  27.769   0.049
15990W        W88316  19.505   8.432  13.045
15991W        W88317  44.977  30.849  14.913
15992W        W88318  12.266  32.492  14.714
15993W        W88319  43.500  11.590   0.225
15994W        W88320  39.288  36.869   0.417
15995W        W88321  21.054  33.313  10.676
15996W        W88322  22.133  42.565  13.840
15997W        W88323  15.775   9.351  14.008
15998W        W88324   6.085  14.314   3.184
15999W        W88325   4.216  22.674   4.112
16000W        W88326  10.509  28.498   1.825
16001W        W88327  16.997  33.542   0.301
16002W        W88328  44.288  32.622  13.027
16003W        W88329   5.257  40.020  11.914
16004W        W88330  30.053  28.168   3.893
16005W        W88331   4.801  20.624   0.012
16006W        W88332  40.918   9.021  10.733
16007W        W88333  26.099   3.050   0.937
16008W        W88334  37.420  11.769   4.545
16009W        W88335  24.513  32.442  13.416
16010W        W88336  21.136   2.969  10.693
16011W        W88337  15.786  35.480  10.621
16012W        W88338  20.307   3.898   0.809
16013W        W88339  18.803  31.477   1.500
16014W        W88340  34.798  22.914   1.825
16015W        W88341  10.163  41.594  12.655
16016W        W88342  38.765  31.842  14.990
16017W        W88343   6.431   0.297   2.352
16018W        W88344  25.613  39.949   2.897
16019W        W88345   1.922  40.534  13.613
16020W        W88346  26.929  33.058   2.259
16021W        W88347  26.670  12.613  11.950
16022W        W88348  13.289  15.581  11.094
16023W        W88349  12.307  35.518   4.639
16024W        W88350  24.235  14.257   4.732
16025W        W88351  37.654  44.232   4.700
16026W        W88352   9.205  44.831  13.604
16027W        W88353  13.704  28.089  13.873
16028W        W88354  32.583  10.896   0.465
16029W        W88355   4.169  34.108  11.165
16030W        W88356  41.900   7.144  11.036
16031W        W88357  22.125   1.005  13.824
16032W        W88358  24.140  37.481  13.930
16033W        W88359  13.874  35.030  10.568
16034W        W88360   5.748  43.749   2.810
16035W        W88361   7.781  44.682  13.011
16036W        W88362  12.837  24.336  10.761
16037W        W88363  37.267  40.440   0.191
16038W        W88364  14.394  30.683   2.319
16039W        W88365   3.079   1.302  10.683
16040W        W88366  38.114  35.053   0.891
16041W        W88367  41.019   1.055   1.007
16042W        W88368  41.905  22.963  11.484
16043W        W88369  23.983  20.662  14.790
16044W        W88370  10.085  14.526  12.366
16045W        W88371  21.762  31.922  13.396
16046W        W88372  16.189   9.748  11.133
16047W        W88373  28.487   2.060  14.299
16048W        W88374  17.094  28.082  12.070
16049W        W88375  36.057  26.731  13.992
16050W        W88376  11.773  26.609  14.475
16051W        W88377   4.287  29.168  14.939
16052W        W88378  12.132  40.557   1.706
16053W        W88379  20.410  36.492   4.419
16054W        W88380  33.861  27.114   1.363
16055W        W88381  27.582  14.124   4.661
16056W        W88382  26.619   7.981   4.106
16057W        W88383  22.475  35.952   4.040
16058W        W88384   2.602  15.896   3.182
16059W        W88385  17.520  42.356   1.169
16060W        W88386  39.374  10.981  13.965
16061W        W88387  26.788  31.575   2.673
16062W        W88388   9.832  14.250   4.473
16063W        W88389   4.770  31.592  11.758
16064W        W88390   0.259  22.270   1.171
16065W        W88391  21.454  36.872  12.342
16066W        W88392   4.916   4.845  13.389
16067W        W88393   4.255  44.174  13.990
16068W        W88394  35.854  25.415  14.781
16069W        W88395  19.286   6.120   2.515
16070W        W88396   0.208  36.870   2.002
16071W        W88397  30.256   4.114   3.246
16072W        W88398  13.326  23.227   2.545
16073W        W88399   0.325  29.871  14.035
16074W        W88400  37.187   5.249   2.389
16075W        W88401  33.216   8.223  14.464
16076W        W88402  17.169   5.815   4.814
16077W        W88403  23.110  10.456  13.139
16078W        W88404  37.013  24.793   4.264
16079W        W88405  11.049  31.028  11.460
16080W        W88406  33.267  32.016  11.171
16081W        W88407   5.628   6.629   3.289
16082W        W88408  36.831   6.033  13.013
16083W        W88409  44.332  29.484   0.331
16084W        W88410  33.168   7.279  14.458
16085W        W88411  36.026  23.185  10.647
16086W        W88412  11.117   2.361   1.296
16087W        W88413  14.328  28.541   0.889
16088W        W88414  31.133  39.449  13.761
16089W        W88415  29.643  38.152   4.617
16090W        W88416  35.058   4.441  12.942
16091W        W88417  12.226   4.432  10.582
16092W        W88418  17.791  34.580  14.976
16093W        W88419  42.622  31.442   2.660
16094W        W88420  14.160   8.776   4.330
16095W        W88421  28.084   3.703   1.847
16096W        W88422   6.752  13.071   2.226
16097W        W88423  13.330  12.766   3.168
16098W        W88424  37.607  41.052  12.075
16099W        W88425  18.917   2.760   0.296
16100W        W88426  26.042  27.179   0.810
16101W        W88427   8.686  37.232   2.166
16102W        W88428  44.887   8.776  13.430
16103W        W88429  14.131  37.471   3.435
16104W        W88430  27.404  44.984  11.573
16105W        W88431   9.691   3.336   0.250
16106W        W88432  38.866  36.085  11.681
16107W        W88433  26.382  20.550   4.157
16108W        W88434  19.110  25.924  11.279
16109W        W88435  37.047  15.908  13.254
16110W        W88436  36.492  21.722  10.780
16111W        W88437  39.936  38.326   2.288
16112W        W88438  14.312  15.457  13.129
16113W        W88439  20.022  36.820   1.708
16114W        W88440  44.954   5.431  10.943
16115W        W88441  28.875  34.412  12.460
16116W        W88442  42.161  14.098  12.634
16117W        W88443  32.144  28.522   2.896
16118W        W88444  43.405  43.522   2.853
16119W        W88445  22.569  13.683   2.745
16120W        W88446  23.551  19.778  11.129
16121W        W88447   3.762  28.400  12.600
16122W        W88448  20.990   2.326  14.547
16123W        W88449  33.494  12.605   3.175
16124W        W88450   1.451  10.049   5.076
16125W        W88451  34.962   3.433  11.992
16126W        W88452  38.813  24.949  13.968
16127W        W88453   7.244  27.287  10.643
16128W        W88454  14.560  39.085   2.362
16129W        W88455  19.619   8.523   2.155
16130W        W88456  28.630   8.874   3.769
16131W        W88457  42.236   9.670   1.760
16132W        W88458  20.383  44.745   1.292
16133W        W88459   2.506  14.972   4.702
16134W        W88460   7.234   1.430  13.421
16135W        W88461   2.881  42.035  13.064
16136W        W88462  34.938  19.012   4.858
16137W        W88463  23.164  41.619  11.304
16138W        W88464   4.499  22.706  14.149
16139W        W88465  16.170  34.894   0.960
16140W        W88466   5.551   8.417   1.275
16141W        W88467  13.787  25.834   4.772
16142W        W88468  19.213  12.699   3.068
16143W        W88469  20.217   9.566   3.088
16144W        W88470   8.896  29.006   2.829
16145W        W88471  25.732   3.578   2.986
16146W        W88472  37.454  44.883   2.767
16147W        W88473  20.092  11.275  14.236
16148W        W88474  19.106  17.671   2.874
16149W        W88475  28.515  21.753  12.148
16150W        W88476  21.171   0.504   4.946
16151W        W88477   8.955  27.688   2.498
16152W        W88478   0.256  41.989   2.832
16153W        W88479   2.684  44.524  11.073
16154W        W88480  14.126  31.124   2.208
16155W        W88481  20.735  34.073  11.752
16156W        W88482  35.746   9.780   1.576
16157W        W88483   1.808   1.793  14.342
16158W        W88484  18.981  38.075  11.637
16159W        W88485  20.267  26.567  12.170
16160W        W88486  23.419  31.437  12.072
16161W        W88487   8.470  12.111  11.873
16162W        W88488  19.280  23.159  11.069
16163W        W88489  13.735   0.283   2.728
16164W        W88490   2.276   0.764   1.727
16165W        W88491  16.135   4.595  14.723
16166W        W88492  43.309  37.061   2.840
16167W        W88493   3.464  17.759  14.389
16168W        W88494  44.992  41.557   2.752
16169W        W88495  13.256  42.850   2.250
16170W        W88496  15.079  16.792   1.515
16171W        W88497  38.872  18.475   2.209
16172W        W88498  16.029  38.984   4.455
16173W        W88499   3.486  26.182   2.389
16174W        W88500  24.147  22.096   4.777
16175W        W88501  43.595  37.975  13.002
16176W        W88502  17.807   8.693  10.830
16177W        W88503  39.994  41.822   0.795
16178W        W88504  31.941  29.500   5.121
16179W        W88505  29.080  40.903   0.172
16180W        W88506  42.166  31.918   3.592
16181W        W88507   5.436  24.979   2.746
16182W        W88508  10.290  44.544   0.076
16183W        W88509  17.998  21.029  12.047
16184W        W88510  26.896   4.301  12.145
16185W        W88511  41.599  22.579  12.166
16186W        W88512   1.697  24.074  10.707
16187W        W88513  26.373  33.453  12.888
16188W        W88514  37.118  32.962  11.315
16189W        W88515  12.177   4.037  12.032
16190W        W88516   3.703  14.317  13.825
16191W        W88517  30.013  16.301  12.937
16192W        W88518  27.379  38.360  12.823
16193W        W88519  32.147  28.106   1.309
16194W        W88520  12.806  34.540  10.992
16195W        W88521  33.922  20.118  14.113
16196W        W88522  25.545  23.440  11.146
16197W        W88523   6.163  34.214  12.947
16198W        W88524  41.977  12.957   5.313
16199W        W88525  40.308  29.568  10.888
16200W        W88526  37.364  28.520  14.338
16201W        W88527   9.822  16.496   1.730
16202W        W88528  28.762  37.077   1.472
16203W        W88529   0.302  13.929   4.243
16204W        W88530  38.013  42.775  11.477
16205W        W88531  24.749   1.900   0.787
16206W        W88532   2.116   3.862  13.245
16207W        W88533  25.260  40.410  13.436
16208W        W88534  13.207  18.706  14.790
16209W        W88535   6.398   2.488   3.599
16210W        W88536  31.074   7.548  14.108
16211W        W88537  17.235  13.315  11.397
16212W        W88538  23.820  10.874   2.846
16213W        W88539  14.896  13.073  11.598
16214W        W88540  39.855  18.609  13.407
16215W        W88541  33.609  26.134   1.172
16216W        W88542  38.516  14.692   4.374
16217W        W88543   4.488   0.031  12.059
16218W        W88544  19.652  34.510  11.965
16219W        W88545  20.170  35.907   2.195
16220W        W88546  37.913  30.216  13.906
16221W        W88547  30.173  36.023   0.451
16222W        W88548   0.090   0.946   0.514
16223W        W88549   3.609  34.969  12.427
16224W        W88550   1.680  19.686   4.489
16225W        W88551  14.608   4.164   2.259
16226W        W88552  41.282  15.217  14.460
16227W        W88553  12.294  10.583   2.770
16228W        W88554  21.191  20.827   2.845
16229W        W88555  44.988  36.417   1.833
16230W        W88556   8.830  38.273  13.411
16231W        W88557  15.141  23.889  13.359
16232W        W88558  24.439  35.990  10.592
16233W        W88559   7.954   5.005   1.230
16234W        W88560   8.900  29.959   4.314
16235W        W88561  19.609  31.426   0.882
16236W        W88562  19.524  32.560  10.834
16237W        W88563  36.889  33.045  11.820
16238W        W88564  43.308   7.206  14.354
16239W        W88565  17.563  35.927   2.879
16240W        W88566  43.091  38.731   2.763
16241W        W88567  29.171   1.543  11.184
16242W        W88568  16.342  27.901  13.616
16243W        W88569  32.902   3.920  12.473
16244W        W88570   5.680  28.220   4.177
16245W        W88571  43.031   5.239  14.906
16246W        W88572  26.869   3.126   3.249
16247W        W88573  17.070  10.244   2.160
16248W        W88574  28.874   9.319   3.858
16249W        W88575  13.693  28.450   3.252
16250W        W88576  41.279  19.931  14.784
16251W        W88577   3.272   8.013   0.462
16252W        W88578  33.703  41.054  11.209
16253W        W88579  36.876   7.897   4.132
16254W        W88580  23.765  29.716  14.360
16255W        W88581  35.472  35.182   0.744
16256W        W88582  10.973  24.311  13.458
16257W        W88583  11.715   6.236  10.439
16258W        W88584  18.718  42.786   1.063
16259W        W88585  12.303  43.968   1.142
16260W        W88586  25.206  15.551  14.371
16261W        W88587  37.092  20.454  12.009
16262W        W88588   0.699  42.568  10.704
16263W        W88589  31.500   3.024   2.442
16264W        W88590  37.338   5.425   2.868
16265W        W88591  14.251   2.631  11.985
16266W        W88592  33.635  31.927   5.142
16267W        W88593  25.317   2.669  11.574
16268W        W88594   6.375  20.734   4.676
16269W        W88595  21.692  26.936   1.278
16270W        W88596  38.039  21.149   3.384
16271W        W88597  34.528  20.931  14.960
16272W        W88598  44.517  22.710  12.234
16273W        W88599  10.155  41.006   1.816
16274W        W88600  21.559  43.030   1.598
16275W        W88601  39.749  10.856   3.640
16276W        W88602  28.303   8.441  12.958
16277W        W88603  35.349   4.804   4.530
16278W        W88604  13.880   8.209   3.117
16279W        W88605   9.656   3.822  12.056
16280W        W88606  25.771  19.908   2.370
16281W        W88607  18.078  25.587  13.832
16282W        W88608  22.708  30.625  14.474
16283W        W88609  27.993  33.464   5.171
16284W        W88610  12.467  44.833   4.709
16285W        W88611  21.444  28.437  10.837
16286W        W88612  14.902  21.090  13.473
16287W        W88613   3.247  23.979   2.376
16288W        W88614  30.708  41.906  12.128
16289W        W88615  15.778  40.795   4.624
16290W        W88616   5.915  22.347  13.333
16291W        W88617  11.853  40.482   0.443
16292W        W88618  16.649  22.739   2.762
16293W        W88619  31.202  22.536   4.317
16294W        W88620  30.025  38.817  14.302
16295W        W88621  37.684   2.902  14.350
16296W        W88622   7.723  27.905   4.105
16297W        W88623  42.619  34.694  12.354
16298W        W88624  26.191  31.469  12.067
16299W        W88625  13.083  19.732  14.767
16300W        W88626  31.191  16.244  12.371
16301W        W88627  27.665  42.061   2.791
16302W        W88628  40.829  25.563  13.351
16303W        W88629  27.824   9.361  14.773
16304W        W88630  32.768  23.647  10.719
16305W        W88631  38.015  41.446   1.987
16306W        W88632   7.420  23.088   1.363
16307W        W88633  27.083  12.889   2.382
16308W        W88634  18.667  41.825   0.683
16309W        W88635  42.206   2.967  14.917
16310W        W88636   8.218  15.121  13.008
16311W        W88637  16.803  40.548  13.666
16312W        W88638  44.280  30.532  13.095
16313W        W88639   4.777  33.124   0.265
16314W        W88640  29.076  22.734  11.959
16315W        W88641  32.551   9.940  13.513
16316W        W88642  39.597   1.905   1.893
16317W        W88643   9.807  41.694   1.306
16318W        W88644   6.680  44.267  14.065
16319W        W88645   7.870   4.762   3.160
16320W        W88646   1.943  15.154   2.712
16321W        W88647  15.703   9.361   3.603
16322W        W88648   9.527  19.366   5.000
16323W        W88649   4.480  32.032  10.605
16324W        W88650  30.381  36.964   3.059
16325W        W88651  23.578  14.343   0.780
16326W        W88652   6.261   3.791   1.224
16327W        W88653  23.565  19.601   1.375
16328W        W88654  32.122   0.442  11.954
16329W        W88655  15.387   4.451   0.732
16330W        W88656  19.036  34.957  11.496
16331W        W88657  38.495  12.338   0.301
16332W        W88658  25.052  23.349   2.272
16333W        W88659   9.038  43.855  10.650
16334W        W88660  16.602   2.531  10.771
16335W        W88661  36.666  14.130  12.224
16336W        W88662  42.246  10.649  14.351
16337W        W88663  39.365  14.404  10.405
16338W        W88664  37.841  15.934  11.631
16339W        W88665  15.079  26.098  13.449
16340W        W88666  10.892  43.063  13.549
16341W        W88667  36.050  40.907   2.949
16342W        W88668  42.459  18.667  13.086
16343W        W88669  15.572  34.363  11.425
16344W        W88670  19.591  36.470  14.817
16345W        W88671  31.174  16.558  14.039
16346W        W88672  10.281  16.475   1.448
16347W        W88673  20.805  15.826   3.107
16348W        W88674   9.120  11.598  13.390
16349W        W88675  43.919  23.242   2.068
16350W        W88676  19.110   9.650   4.293
16351W        W88677  36.142   9.173   1.366
16352W        W88678  40.810  19.718   0.006
16353W        W88679  27.905   9.230  13.867
16354W        W88680  35.495  25.008  12.319
16355W        W88681  16.427   6.381   1.834
16356W        W88682  24.395  34.083   4.526
16357W        W88683  30.025  25.206   4.735
16358W        W88684  39.022  17.482  11.065
16359W        W88685  23.691  44.006   3.168
16360W        W88686  32.165   3.193   1.412
16361W        W88687  29.244   7.669  12.512
16362W        W88688  17.893  17.254   1.367
16363W        W88689   0.294  33.502   4.298
16364W        W88690   2.365  38.884   4.071
16365W        W88691  19.078  39.268   2.800
16366W        W88692  42.816  16.345   3.657
16367W        W88693  13.310  23.608   4.873
16368W        W88694   9.109  32.902  14.972
16369W        W88695  43.409  24.977  11.970
16370W        W88696  40.023   8.918  13.578
16371W        W88697  29.577  39.136   5.114
16372W        W88698  41.538   4.297  11.183
16373W        W88699  15.070  22.695   0.767
16374W        W88700  11.686  13.662  12.964
16375W        W88701  12.267   3.033   3.212
16376W        W88702   9.263  14.571  13.433
16377W        W88703  38.809  42.829   1.663
16378W        W88704  14.696  33.021  11.489
16379W        W88705  15.031  18.443  12.140
16380W        W88706  44.448   3.802  12.412
16381W        W88707  15.745  22.218  12.089
16382W        W88708   9.096   7.376  11.710
16383W        W88709  37.735  25.564   0.249
16384W        W88710  41.775  27.153   3.703
16385W        W88711  44.728  14.560   4.475
16386W        W88712  17.779  12.749   4.803
16387W        W88713  39.377  22.203  13.873
16388W        W88714  11.731   5.309  11.938
16389W        W88715  12.875  15.933   4.156
16390W        W88716  39.348  21.016   3.188
16391W        W88717  13.258  26.416   2.848
16392W        W88718  30.049  13.879  11.984
16393W        W88719  26.131  26.711   0.559
16394W        W88720  16.113  27.433  11.002
16395W        W88721  36.990  28.705  11.121
16396W        W88722  37.836  14.464   4.069
16397W        W88723   1.431  41.431   2.817
16398W        W88724  41.686  22.627  12.669
16399W        W88725  13.524   6.553   5.224
16400W        W88726  18.095  22.056  13.854
16401W        W88727  43.453   4.234   2.997
16402W        W88728   2.554  20.300   2.878
16403W        W88729   0.570  33.355   0.806
16404W        W88730   6.210  20.158   0.245
16405W        W88731  29.907  14.818   2.395
16406W        W88732  11.927  32.994   4.696
16407W        W88733  35.430  12.004  13.389
16408W        W88734  39.329   4.118   0.913
16409W        W88735   7.967  10.203   2.776
16410W        W88736  32.692  29.999   2.711
16411W        W88737   5.426  34.639  11.847
16412W        W88738   6.354  20.631  13.398
16413W        W88739  25.938  43.328  10.513
16414W        W88740  28.453  41.777   3.225
16415W        W88741  41.893  26.510  11.611
16416W        W88742   6.951  22.272   1.856
16417W        W88743  33.133  31.583  10.909
16418W        W88744  39.557  21.007  12.188
16419W        W88745  10.724  40.385   1.327
16420W        W88746  40.980  13.815   2.166
16421W        W88747  16.001   9.321  11.406
16422W        W88748   7.827  39.277   3.814
16423W        W88749  37.425  16.136   1.705
16424W        W88750  32.095  22.140   4.720
16425W        W88751  26.571   0.988   2.696
16426W        W88752  35.812  20.083   3.569
16427W        W88753  31.137  34.679  10.617
16428W        W88754  35.981  12.065   0.244
16429W        W88755  20.699  29.458  13.126
16430W        W88756  30.802  10.913   0.875
16431W        W88757  29.689  35.680  14.702
16432W        W88758   5.519   6.261   4.647
16433W        W88759   7.104  14.496   3.267
16434W        W88760  31.434  41.862  10.672
16435W        W88761   1.464  11.608  11.966
16436W        W88762  41.826   8.338  14.479
16437W        W88763   2.409  25.506   4.523
16438W        W88764  10.619   3.293  10.459
16439W        W88765  13.278  27.981   2.711
16440W        W88766  28.985  42.696   3.675
16441W        W88767  28.274  21.267  12.706
16442W        W88768  28.102  19.130   4.507
16443W        W88769  11.683  13.791  10.675
16444W        W88770  32.810  35.443   0.250
16445W        W88771  21.290  11.241   0.727
16446W        W88772  19.796  34.530  10.529
16447W        W88773   0.392  41.736  11.216
16448W        W88774  16.681  26.504  14.882
16449W        W88775  15.664  22.403   2.854
16450W        W88776  40.992  15.344   4.419
16451W        W88777  43.644  36.247  10.864
16452W        W88778  24.601  38.658   0.408
16453W        W88779   7.334  23.971   0.983
16454W        W88780  38.243  39.241   4.004
16455W        W88781  20.940  11.907  13.192
16456W        W88782  28.107  13.984  10.986
16457W        W88783  31.092   7.452   0.966
16458W        W88784  19.167  43.300   3.731
16459W        W88785  34.970  33.813  12.619
16460W        W88786  35.612   4.956   3.242
16461W        W88787   5.256  34.668   4.616
16462W        W88788  24.333  21.515   2.012
16463W        W88789  32.486  29.990  13.942
16464W        W88790  23.907  28.250   2.275
16465W        W88791  17.637   3.473  12.353
16466W        W88792  27.732  30.632   2.242
16467W        W88793  21.261  23.472   3.884
16468W        W88794  39.824  31.385   3.630
16469W        W88795   4.826  44.149  12.587
16470W        W88796  26.450  34.561  13.446
16471W        W88797  26.525  14.885   3.331
16472W        W88798  35.413  39.035   3.647
16473W        W88799  11.273  10.612  14.065
16474W        W88800  37.472  22.743   3.552
16475W        W88801   9.007  11.888   3.692
16476W        W88802  13.234  20.681  14.843
16477W        W88803   5.396  26.546  13.523
16478W        W88804  10.779  18.727  11.987
16479W        W88805  33.861   4.407   3.605
16480W        W88806  13.264  22.504   0.309
16481W        W88807  11.837  31.657  11.696
16482W        W88808   1.747  41.803  10.403
16483W        W88809  35.975  37.521  14.795
16484W        W88810  18.693  40.577   1.173
16485W        W88811  41.219  30.944   0.799
16486W        W88812  10.879  42.500   3.254
16487W        W88813  37.401  36.402   2.365
16488W        W88814  15.870   3.123   2.372
16489W        W88815  37.015  32.964   2.921
16490W        W88816  44.837   3.220  13.986
16491W        W88817  23.719   4.879  11.861
16492W        W88818  19.118   3.350   0.833
16493W        W88819  41.723  28.716   0.730
16494W        W88820  36.344   0.529   4.832
16495W        W88821   7.175  31.567   1.722
16496W        W88822   8.997  26.483   0.952
16497W        W88823  34.898  16.259   1.966
16498W        W88824  42.084   4.528  13.305
16499W        W88825  21.765  23.676  12.398
16500W        W88826  12.348   2.765  14.304
16501W        W88827  21.111  15.681  11.509
16502W        W88828  20.073  18.289  13.445
16503W        W88829  36.434  17.564  13.311
16504W        W88830  34.997   7.240  10.780
16505W        W88831  41.430  24.156   0.288
16506W        W88832  22.597   4.153  10.709
16507W        W88833  35.163  43.333  14.287
16508W        W88834   4.897  10.723   0.275
16509W        W88835  24.728  40.839  12.822
16510W        W88836  32.596   2.768  12.990
16511W        W88837   4.073  31.399   2.622
16512W        W88838  29.775   4.277   3.255
16513W        W88839  38.456  17.756   2.037
16514W        W88840  22.597  12.928  13.541
16515W        W88841  35.316  44.977   4.253
16516W        W88842  17.054  11.273  10.631
16517W        W88843  39.410  36.443   0.750
16518W        W88844  41.821  36.810   0.430
16519W        W88845  24.239   6.390  13.538
16520W        W88846  41.181   0.922   0.515
16521W        W88847  16.598  29.657  12.952
16522W        W88848  10.809  32.920   2.879
16523W        W88849  21.066  25.466   1.597
16524W        W88850  39.334  19.308  11.092
16525W        W88851  15.790  34.520   4.340
16526W        W88852  29.129  25.088   0.361
16527W        W88853  20.874   3.524  13.919
16528W        W88854   6.410  34.966   4.324
16529W        W88855  21.657  41.382   0.934
16530W        W88856  11.073  30.888   3.658
16531W        W88857  41.855   1.563  10.691
16532W        W88858  11.495  37.445   3.166
16533W        W88859  31.152  31.523   3.728
16534W        W88860  12.532  27.957   4.277
16535W        W88861   4.417  28.021   4.607
16536W        W88862  30.596  28.667   1.439
16537W        W88863  32.554   1.639   2.325
16538W        W88864  18.232  21.638  10.749
16539W        W88865  36.640  43.946  12.520
16540W        W88866  44.443  28.662  13.946
16541W        W88867   0.291  12.822   3.530
16542W        W88868   5.799  34.110   0.852
16543W        W88869  42.759   6.134  14.842
16544W        W88870  17.735  25.282   0.318
16545W        W88871  39.724  26.706   1.149
16546W        W88872  39.584  44.655  14.011
16547W        W88873  22.776   6.025   4.233
16548W        W88874  31.198  28.918  12.512
16549W        W88875  11.790   8.397  14.085
16550W        W88876  28.755   9.441  12.366
16551W        W88877   6.211  13.406  11.993
16552W        W88878  12.135  35.991  14.591
16553W        W88879  42.981  28.474   1.602
16554W        W88880  19.741   2.141  12.060
16555W        W88881  44.035  17.633   3.818
16556W        W88882  38.975  23.024  14.052
16557W        W88883  33.975  17.166  11.712
16558W        W88884  21.172  39.073  10.470
16559W        W88885   7.569  44.512  13.853
16560W        W88886  43.135  32.986  14.348
16561W        W88887  14.718  19.066   3.224
16562W        W88888   6.382   9.700   3.581
16563W        W88889   2.654  23.499  14.995
16564W        W88890  14.682  21.803  10.720
16565W        W88891   5.220  42.265  12.492
16566W        W88892  12.717  30.954  14.242
16567W        W88893  18.986  22.950   2.757
16568W        W88894   0.971  20.436   1.710
16569W        W88895  29.583  11.431  10.510
16570W        W88896  27.682  42.274  14.624
16571W        W88897  44.006   1.907   4.339
16572W        W88898  16.797  26.873   1.401
16573W        W88899  30.531  23.768  12.074
16574W        W88900   5.463  19.798   0.883
16575W        W88901  22.120  34.837   0.495
16576W        W88902  33.033   6.188   0.317
16577W        W88903  23.099  42.346   1.032
16578W        W88904  39.132  34.479   4.511
16579W        W88905  25.409  28.693  14.378
16580W        W88906  21.554   3.225   3.733
16581W        W88907  25.223  31.849  13.510
16582W        W88908  10.268  36.845  13.897
16583W        W88909  37.896  36.921   0.036
16584W        W88910   0.882  13.634  11.135
16585W        W88911  10.164  23.574   2.114
16586W        W88912  25.995  16.271   0.958
16587W        W88913   4.907  29.885   1.802
16588W        W88914  42.671  16.885   4.502
16589W        W88915  21.050  20.345   2.976
16590W        W88916  23.561  15.880  10.271
16591W        W88917  41.913  35.823  11.626
16592W        W88918  41.283   3.883   4.016
16593W        W88919  28.222  36.647  11.947
16594W        W88920  15.329  26.665  14.817
16595W        W88921  32.857   1.410   0.291
16596W        W88922  43.971  39.020   1.775
16597W        W88923  40.406  32.681  11.071
16598W        W88924  15.482  27.135  12.520
16599W        W88925   2.569   5.833  13.235
16600W        W88926  27.005  16.104  12.002
16601W        W88927  26.112  18.584  12.359
16602W        W88928   7.325  22.778   3.627
16603W        W88929  43.926  23.555   4.052
16604W        W88930  27.604  39.042  13.341
16605W        W88931  40.898  26.484   0.487
16606W        W88932  28.321  26.155  13.728
16607W        W88933  27.063  13.796  12.385
16608W        W88934   2.436  30.076   3.393
16609W        W88935   7.015   0.838   4.915
16610W        W88936  27.236  44.813  13.099
16611W        W88937  31.324   5.342   2.636
16612W        W88938  14.549  19.671   4.675
16613W        W88939  36.123  21.754   4.503
16614W        W88940  27.679   9.947  13.931
16615W        W88941  15.998  15.060   1.899
16616W        W88942   7.437  26.411  11.810
16617W        W88943  23.611  23.623   3.744
16618W        W88944  15.850  28.484   1.837
16619W        W88945  17.069   4.439   3.598
16620W        W88946  39.825  43.922   2.724
16621W        W88947   9.327   3.920  11.131
16622W        W88948  33.418   3.077   0.816
16623W        W88949  13.299   5.035  13.794
16624W        W88950  17.174  14.849   3.142
16625W        W88951   2.915  13.578   4.509
16626W        W88952  42.812   0.538  11.041
16627W        W88953   9.410   8.324  12.534
16628W        W88954  26.678  18.152   4.310
16629W        W88955  10.871  34.004   2.957
16630W        W88956  17.001  22.150   4.046
16631W        W88957  28.980  10.425  10.900
16632W        W88958  19.777  32.901  13.555
16633W        W88959  23.484  42.791   2.824
16634W        W88960  16.311  39.536  12.515
16635W        W88961  38.921   6.936   3.863
16636W        W88962  34.918  31.478  12.066
16637W        W88963  15.461  10.707  12.193
16638W        W88964   5.457  43.386   3.568
16639W        W88965  20.036  22.020  12.031
16640W        W88966  27.265  31.932  12.330
16641W        W88967  43.138  39.034  11.973
16642W        W88968   0.877  40.381   5.026
16643W        W88969   8.658  17.346  11.487
16644W        W88970   5.156  15.066  12.061
16645W        W88971   0.499  28.984  11.452
16646W        W88972  41.497  29.156   0.306
16647W        W88973   3.152  40.760  12.556
16648W        W88974   4.787  20.808  13.638
16649W        W88975  44.863  33.945   3.802
16650W        W88976  32.647  17.319   2.762
16651W        W88977  10.179  26.231   1.864
16652W        W88978   9.713   9.791   1.214
16653W        W88979  37.078  19.046  11.470
16654W        W88980  44.433  29.208  13.881
16655W        W88981  24.720  21.143  10.390
16656W        W88982   6.742  31.397   4.438
16657W        W88983  20.027  26.507  11.320
16658W        W88984  35.431   3.181   3.689
16659W        W88985  15.735  22.501  10.731
16660W        W88986  17.240   8.089   2.722
16661W        W88987  25.606  30.730   2.520
16662W        W88988   8.321   9.910  14.245
16663W        W88989  11.882  12.709   0.371
16664W        W88990   2.882  19.116   4.729
16665W        W88991  13.912   0.135  11.570
16666W        W88992  44.410  23.304  13.024
16667W        W88993  12.319  15.573  12.194
16668W        W88994  11.623  33.567  10.968
16669W        W88995  31.590  13.214  13.562
16670W        W88996  33.761  43.341   1.305
16671W        W88997  11.232  35.940  14.389
16672W        W88998   2.381   9.374   0.827
16673W        W88999  38.988  36.527   4.510
16674W        W89000  30.797  10.570  14.796
16675W        W89001  17.727  27.145   0.631
16676W        W89002  29.838   8.182  12.009
16677W        W89003  29.393   5.758   5.003
16678W        W89004  14.716  18.078   3.228
16679W        W89005   1.896  42.925   3.659
16680W        W89006  43.742  28.115   3.255
16681W        W89007  36.991  30.031  10.694
16682W        W89008  18.984   2.207   1.400
16683W        W89009   9.173  16.742  12.879
16684W        W89010  35.757  37.963   3.650
16685W        W89011  39.504  38.109  11.528
16686W        W89012  33.885   0.640  10.907
16687W        W89013  40.007  25.427   0.509
16688W        W89014  15.231   5.226  12.952
16689W        W89015  32.897  13.256   4.198
16690W        W89016  19.593  40.873  10.838
16691W        W89017  14.522  12.642   3.727
16692W        W89018  11.694  44.241  11.751
16693W        W89019   8.981  20.099   0.753
16694W        W89020  25.198   9.402  10.584
16695W        W89021  26.514   1.839   4.487
16696W        W89022  24.948  38.433  10.480
16697W        W89023  29.074  14.703  14.840
16698W        W89024  37.741  13.871   0.015
16699W        W89025  29.702  35.857   3.431
16700W        W89026  24.542  17.151  10.702
16701W        W89027  12.930  33.491  11.964
16702W        W89028   9.056   8.364  12.100
16703W        W89029   5.455  27.420  14.486
16704W        W89030  36.113  10.203  13.487
16705W        W89031   4.421  20.190   2.232
16706W        W89032  17.899  27.049   2.422
16707W        W89033  37.733  24.478  14.460
16708W        W89034  42.945  22.140  10.640
16709W        W89035  34.686   8.985   4.105
16710W        W89036  13.630  36.966   3.692
16711W        W89037  25.394  15.769  13.944
16712W        W89038  31.392   8.923   1.872
16713W        W89039  23.115  11.638   4.537
16714W        W89040  37.350  37.955   3.866
16715W        W89041  14.255  43.903  11.780
16716W        W89042  39.404  27.403  11.967
16717W        W89043  27.005  35.422   2.849
16718W        W89044  25.414   3.265   3.444
16719W        W89045  38.121   2.495  12.153
16720W        W89046  17.267  40.431  12.328
16721W        W89047  15.248  34.424   5.153
16722W        W89048  15.959   1.334  11.981
16723W        W89049  11.745  33.997  11.544
16724W        W89050   5.440  14.127   3.834
16725W        W89051  41.568  26.087  11.620
16726W        W89052  14.152   3.911   0.461
16727W        W89053  11.867   8.832   4.533
16728W        W89054  36.048  23.210   2.237
16729W        W89055  13.315  19.039   1.255
16730W        W89056  18.204   9.741   0.852
16731W        W89057   4.890  27.615   3.262
16732W        W89058  30.615   6.454  14.392
16733W        W89059  28.593  34.543   2.156
16734W        W89060  27.007   3.137   0.758
16735W        W89061  24.193   7.202  14.948
16736W        W89062   0.325  18.303  14.942
16737W        W89063  19.622  34.067  10.730
16738W        W89064   4.153   6.135   3.126
16739W        W89065  28.701  32.192  12.297
16740W        W89066  14.950  20.195  10.995
16741W        W89067   7.391  11.840  13.638
16742W        W89068   8.215   7.673   0.979
16743W        W89069   3.658   3.490   1.394
16744W        W89070   4.473  36.455   0.532
16745W        W89071   9.933  12.727   1.456
16746W        W89072  37.255  40.166   2.239
16747W        W89073  32.178  24.163   0.798
16748W        W89074  31.933  17.733  11.386
16749W        W89075  15.467  34.926   5.104
16750W        W89076  13.856  19.625  13.450
16751W        W89077  24.468  42.269  13.857
16752W        W89078  12.259  28.885   2.311
16753W        W89079  19.773  26.700   4.301
16754W        W89080  19.532  31.246   0.389
16755W        W89081  44.913   3.578  11.522
16756W        W89082  12.815   0.763   1.157
16757W        W89083   1.923  35.161  11.932
16758W        W89084   4.655  38.630   1.993
16759W        W89085  44.260  41.819   2.769
16760W        W89086  23.769   6.296   4.611
16761W        W89087  29.176  16.446  14.521
16762W        W89088  42.030  18.144  14.292
16763W        W89089  42.831  35.661  12.563
16764W        W89090   9.430  40.432  11.176
16765W        W89091  43.082  40.883  12.071
16766W        W89092   5.949  38.016   0.993
16767W        W89093  36.298   7.431  11.893
16768W        W89094  20.174  32.405  13.061
16769W        W89095  22.448  28.258  11.200
16770W        W89096  35.085  40.360   3.182
16771W        W89097  11.879  26.666   2.795
16772W        W89098  35.278  26.532  14.466
16773W        W89099  21.895  39.269   0.535
16774W        W89100  37.276   8.115   0.711
16775W        W89101  27.207  28.577  14.133
16776W        W89102  20.486   2.261  12.514
16777W        W89103   8.876  41.072  10.645
16778W        W89104   1.895  44.027   2.712
16779W        W89105  44.427  23.523   2.295
16780W        W89106  39.921  33.009  10.337
16781W        W89107  24.535   7.822   0.669
16782W        W89108  38.400  35.618   0.481
16783W        W89109  42.645   1.164   4.975
16784W        W89110  11.027  42.152  12.545
16785W        W89111  22.276   2.789   2.448
16786W        W89112   1.363  21.789   4.172
16787W        W89113  40.437  14.356   0.807
16788W        W89114  44.671  10.039   2.315
16789W        W89115  41.446   5.909   4.522
16790W        W89116  17.267  43.099  11.260
16791W        W89117  44.958  14.783  14.499
16792W        W89118  23.152  43.331  14.558
16793W        W89119  25.087  26.145   4.206
16794W        W89120  43.411  32.518   0.468
16795W        W89121  14.120   8.647   3.253
16796W        W89122  16.918   9.698  14.104
16797W        W89123  28.105  38.347   4.010
16798W        W89124   6.933   9.084   0.777
16799W        W89125  20.406  17.201   2.798
16800W        W89126   0.449  26.512   4.670
16801W        W89127  43.241  15.268  14.094
16802W        W89128  32.484  40.828  12.402
16803W        W89129  33.837  23.541  12.689
16804W        W89130  19.086  42.356   3.746
16805W        W89131  22.756  14.104   0.242
16806W        W89132   3.835  35.464   4.319
16807W        W89133  38.060   7.938   4.082
16808W        W89134  15.185  21.038   0.745
16809W        W89135  38.007  27.444   3.991
16810W        W89136  11.263   8.213  10.462
16811W        W89137  20.795  29.881   0.419
16812W        W89138   3.045  11.781  13.736
16813W        W89139   6.449   5.406   1.882
16814W        W89140  10.458  32.860  10.377
16815W        W89141  27.150  35.704  14.932
16816W        W89142  10.475  23.669   4.270
16817W        W89143   7.560  20.545  14.111
16818W        W89144  41.035  30.569  13.987
16819W        W89145  18.994  14.660   2.841
16820W        W89146  30.376  44.442  14.756
16821W        W89147  23.037   7.783  14.282
16822W        W89148  16.601  16.555  11.891
16823W        W89149   8.139  42.857   4.355
16824W        W89150   7.753  43.976   2.171
16825W        W89151  29.399   2.667   2.237
16826W        W89152  40.080  32.069  12.477
16827W        W89153  30.432  35.583  13.843
16828W        W89154  21.129  25.923  13.832
16829W        W89155  44.403  22.634   0.764
16830W        W89156  11.410  20.092   2.280
16831W        W89157  18.700  22.828  10.626
16832W        W89158  28.501   2.506   3.641
16833W        W89159  37.105  21.097  12.542
16834W        W89160   0.813  30.039  12.061
16835W        W89161   0.280   5.247   4.099
16836W        W89162  36.544   7.272  13.215
16837W        W89163   8.231  29.829  11.125
16838W        W89164  20.163  24.990  11.218
16839W        W89165  20.974  36.537   1.755
16840W        W89166   7.654   3.167  12.541
16841W        W89167   8.860  15.086  12.274
16842W        W89168  24.150  22.014   0.514
16843W        W89169  27.517  40.045  13.409
16844W        W89170   1.892  20.245   1.698
16845W        W89171  15.097  19.032   0.746
16846W        W89172  36.909   8.118  12.167
16847W        W89173  20.663   1.341  10.527
16848W        W89174  29.903  36.455  13.434
16849W        W89175  34.277  15.995  14.415
16850W        W89176   9.905  10.611   3.660
16851W        W89177  15.492  15.656  11.224
16852W        W89178  44.451  29.382   1.326
16853W        W89179  14.433   5.127  12.039
16854W        W89180  23.481   6.550   1.287
16855W        W89181  14.227   2.279   4.573
16856W        W89182  13.765  35.774  11.610
16857W        W89183   9.476  18.093  14.727
16858W        W89184  35.909   7.851   0.894
16859W        W89185  40.312  31.026  11.169
16860W        W89186  11.360  31.162   1.001
16861W        W89187  38.894  39.449  13.984
16862W        W89188  36.997  38.796   4.358
16863W        W89189  22.172   0.646   2.203
16864W        W89190  44.084  33.039   3.124
16865W        W89191   3.446  27.526   0.124
16866W        W89192  10.642  29.067  12.581
16867W        W89193   9.570  14.368   3.490
16868W        W89194   2.414   4.353   4.632
16869W        W89195  22.974  15.536  10.829
16870W        W89196   1.765  11.232   2.607
16871W        W89197  23.388  21.094   2.720
16872W        W89198   8.268   4.948   2.378
16873W        W89199  36.975  44.312  11.848
16874W        W89200  12.811  35.528   3.192
16875W        W89201   9.081  24.285   4.223
16876W        W89202   4.730  39.296   4.084
16877W        W89203   8.356  35.588   2.101
16878W        W89204  20.289  41.377   4.990
16879W        W89205  39.914  39.340  14.308
16880W        W89206  22.011  23.228  12.555
16881W        W89207  34.209  20.218   0.562
16882W        W89208   7.090  10.620  11.493
16883W        W89209   1.293   7.717   1.839
16884W        W89210  33.875  10.107   2.388
16885W        W89211   9.301   3.952  11.626
16886W        W89212   4.854   9.753  14.373
16887W        W89213   9.299  30.432   1.470
16888W        W89214  24.457   2.292   0.561
16889W        W89215  23.039  30.389  10.694
16890W        W89216  40.258  33.449  14.932
16891W        W89217  13.052  40.950  14.720
16892W        W89218   7.434  12.237  14.273
16893W        W89219  25.233  38.711  13.382
16894W        W89220  29.517  25.500  13.776
16895W        W89221  26.676  23.206   1.875
16896W        W89222   1.233  12.703  12.993
16897W        W89223  21.258  12.523  13.687
16898W        W89224  30.241  34.385   1.684
16899W        W89225  22.459  30.833  11.166
16900W        W89226  27.243   3.270   1.201
16901W        W89227   2.412   7.172   1.223
16902W        W89228   5.013  26.394  12.132
16903W        W89229  35.814  17.439  10.779
16904W        W89230   3.006  11.269  10.705
16905W        W89231  21.798  38.574  14.944
16906W        W89232  36.071  28.887   4.358
16907W        W89233  33.377  41.323  14.361
16908W        W89234  28.400  43.904  13.152
16909W        W89235  37.729   1.256   0.752
16910W        W89236  12.897  41.180  10.823
16911W        W89237  11.135  16.302  11.519
16912W        W89238  22.561   3.362   3.342
16913W        W89239  30.972  21.831  14.500
16914W        W89240  13.082  25.643   3.096
16915W        W89241  31.921  31.097  13.400
16916W        W89242  39.566  39.521  14.695
16917W        W89243   9.260  37.694  12.920
16918W        W89244  43.546  15.271   1.886
16919W        W89245  17.919  33.457  13.441
16920W        W89246  20.129  11.070  11.237
16921W        W89247  15.649  42.314  12.507
16922W        W89248  35.946  27.201  14.920
16923W        W89249  42.604  33.483  12.856
16924W        W89250  12.726  29.625   4.628
16925W        W89251   2.769   0.816   1.846
16926W        W89252  21.349  15.207   3.156
16927W        W89253  32.432  28.234  14.948
16928W        W89254   3.721  21.223   2.239
16929W        W89255  44.355  29.638   4.442
16930W        W89256  35.111  24.672  12.100
16931W        W89257   6.733  19.541   3.742
16932W        W89258  26.058  44.970   4.784
16933W        W89259  34.228  10.017  14.356
16934W        W89260   8.484  33.389  11.136
16935W        W89261  38.567  20.744  11.056
16936W        W89262   4.786  22.103   2.358
16937W        W89263   1.978  43.506  13.977
16938W        W89264  36.475  26.521   2.403
16939W        W89265   2.696  19.822   2.791
16940W        W89266  26.619   2.279  13.088
16941W        W89267  22.372  44.676   3.342
16942W        W89268   1.858  36.479   4.295
16943W        W89269  34.449  38.377   0.301
16944W        W89270   1.410  11.771  11.472
16945W        W89271  29.941  31.775   0.004
16946W        W89272  26.486  15.332  10.168
16947W        W89273  15.632  15.144  11.167
16948W        W89274  10.425   6.320   3.698
16949W        W89275  13.212  18.815  14.262
16950W        W89276  27.225  17.042   1.907
16951W        W89277   2.139  29.696   1.792
16952W        W89278  29.519  42.669  11.549
16953W        W89279  18.885  42.072  14.718
16954W        W89280  19.302  18.957   1.216
16955W        W89281  28.872  29.020   4.674
16956W        W89282  20.657   5.153  12.062
16957W        W89283   0.349   9.745   2.788
16958W        W89284  17.756  10.845  12.536
16959W        W89285  42.686  40.616   5.035
16960W        W89286  36.521  18.557   2.084
16961W        W89287  28.132  18.136  11.109
16962W        W89288  14.335   2.451  12.444
16963W        W89289   9.275   4.911  12.556
16964W        W89290   6.199  22.999  12.142
16965W        W89291  29.658  33.041   2.926
16966W        W89292  31.088  29.631   2.321
16967W        W89293  16.571  44.570   0.434
16968W        W89294  26.497  11.184   4.704
16969W        W89295  13.235  36.414   9.803
16970W        W89296  34.963  28.283  12.896
16971W        W89297  18.243  39.571  10.681
16972W        W89298  29.003   3.890  14.637
16973W        W89299  39.774   8.305   1.868
16974W        W89300  21.786   0.880   0.883
16975W        W89301   5.717  12.803  13.006
16976W        W89302  10.889  21.995   3.198
16977W        W89303  29.650  39.854  11.525
16978W        W89304   7.458  10.291   2.703
16979W        W89305  33.781   6.102  10.256
16980W        W89306  22.514  41.010   3.737
16981W        W89307  13.686   0.545   2.220
16982W        W89308  15.665  38.467  13.795
16983W        W89309  36.900  20.710   1.406
16984W        W89310  27.828   0.678  11.973
16985W        W89311  38.887  37.778  10.112
16986W        W89312  41.857  16.248   3.725
16987W        W89313  38.570  25.245   3.757
16988W        W89314   3.241  38.300  12.150
16989W        W89315  36.183   3.139  12.512
16990W        W89316   4.101  33.458   4.137
16991W        W89317  16.348  39.573  13.349
16992W        W89318  12.119  21.274  10.709
16993W        W89319   8.081  38.097   0.685
16994W        W89320  15.174  26.258   3.739
16995W        W89321  20.119   8.546  12.309
16996W        W89322  11.220  32.460  10.712
16997W        W89323  34.270  37.464   3.298
16998W        W89324  39.251  33.842   2.377
16999W        W89325  35.377  19.077  14.343
17000W        W89326  36.752  38.550   2.685
17001W        W89327  24.241   7.258  14.016
17002W        W89328   5.279  43.325  13.537
17003W        W89329  27.072  39.417   3.281
17004W        W89330  30.201   0.421  13.013
17005W        W89331  31.884  35.560  10.816
17006W        W89332   3.261   9.498  10.275
17007W        W89333   0.802  24.169   1.920
17008W        W89334   1.444  40.432  13.780
17009W        W89335  29.160   3.932  12.092
17010W        W89336  36.524  28.028   2.847
17011W        W89337  14.740  13.058   3.523
17012W        W89338  19.914  11.364   3.763
17013W        W89339   5.951   8.398  13.470
17014W        W89340  10.281  36.598   4.218
17015W        W89341  22.477  10.521   1.505
17016W        W89342  29.414  24.376   1.950
17017W        W89343  24.604  12.316  10.588
17018W        W89344  41.065  42.529  14.242
17019W        W89345  16.051  14.253  13.394
17020W        W89346   0.296  26.654  11.535
17021W        W89347  35.977  36.932  14.352
17022W        W89348  10.609   5.988   2.829
17023W        W89349  29.183  23.509   4.612
17024W        W89350  11.865  25.761   1.706
17025W        W89351   3.122  15.745   9.985
17026W        W89352   2.879  19.692  13.065
17027W        W89353  17.184   3.193  12.944
17028W        W89354  17.078  15.614   0.422
17029W        W89355  12.194  13.110   0.425
17030W        W89356   7.358  24.943  11.140
17031W        W89357   5.209  38.929  11.214
17032W        W89358  41.882  20.275   2.298
17033W        W89359  27.998  33.853   1.138
17034W        W89360   6.924  23.914   0.282
17035W        W89361  36.614  18.584   3.607
17036W        W89362  38.776  33.985   3.672
17037W        W89363  23.788  11.905  11.559
17038W        W89364   1.705  40.520  10.980
17039W        W89365  31.605  23.839   0.227
17040W        W89366  39.912  18.210  11.463
17041W        W89367  42.790  15.141  11.093
17042W        W89368  37.768  42.328  13.473
17043W        W89369  42.103  31.508   2.722
17044W        W89370   4.424  21.319   1.800
17045W        W89371  37.291  28.193   4.205
17046W        W89372  34.030  39.034   1.263
17047W        W89373  40.420  18.739  14.331
17048W        W89374  19.696  26.512  10.612
17049W        W89375  16.570  30.053  14.329
17050W        W89376  30.343  32.471   2.286
17051W        W89377  29.598  16.055   0.763
17052W        W89378  39.544  33.612  14.169
17053W        W89379   9.667   5.671  13.476
17054W        W89380  23.489  11.970   4.397
17055W        W89381  40.731   6.317  10.983
17056W        W89382  20.550  44.020  10.565
17057W        W89383  41.603  32.035   4.597
17058W        W89384   4.628  13.919   9.953
17059W        W89385   6.353  41.805   0.759
17060W        W89386   0.916   7.723  12.088
17061W        W89387  42.810  27.466  14.984
17062W        W89388  44.241  33.534   1.378
17063W        W89389  20.045  29.420   3.998
17064W        W89390  36.379  39.292   2.500
17065W        W89391  21.476  35.442   1.726
17066W        W89392  39.525  44.897   0.878
17067W        W89393  14.336  28.390   1.869
17068W        W89394  14.258  14.225   2.861
17069W        W89395   1.001   9.842  13.387
17070W        W89396  37.477  25.817   5.062
17071W        W89397  29.184   6.654  11.227
17072W        W89398   1.857  10.109   3.190
17073W        W89399  12.823   3.872   3.722
17074W        W89400   2.014   4.745   5.251
17075W        W89401   7.820  11.209   1.669
17076W        W89402  18.627  26.648   0.893
17077W        W89403  37.051  11.624   3.849
17078W        W89404  26.259  15.252   5.518
17079W        W89405  11.613  24.023   4.824
17080W        W89406  15.101  37.402   3.881
17081W        W89407  35.467   4.272  11.214
17082W        W89408  16.799  18.503  11.101
17083W        W89409  12.664   6.345   4.141
17084W        W89410  13.102  34.132   1.252
17085W        W89411  32.299  43.713  14.861
17086W        W89412  16.715  21.646   1.661
17087W        W89413  19.117  40.671  12.799
17088W        W89414  13.493   4.249  11.906
17089W        W89415  38.815  25.243  14.828
17090W        W89416  29.082  37.323   2.943
17091W        W89417  26.677  21.706   4.819
17092W        W89418  27.950  35.132  12.959
17093W        W89419  37.391  30.334  11.983
17094W        W89420  21.598  38.511   5.385
17095W        W89421   2.472  43.254  11.751
17096W        W89422  44.461  31.938  11.619
17097W        W89423  15.339  37.311  11.545
17098W        W89424  36.990  13.317  12.566
17099W        W89425   5.164   1.951   3.180
17100W        W89426   3.769  36.621  11.542
17101W        W89427  36.849  34.938  12.480
17102W        W89428  19.070  11.702   2.829
17103W        W89429  11.720   2.966   3.831
17104W        W89430  17.430  26.596  13.616
17105W        W89431  39.005  36.584  10.469
17106W        W89432  11.581  34.331  12.362
17107W        W89433  41.450  35.055   4.756
17108W        W89434  43.521  25.385  11.075
17109W        W89435  28.551   8.297   2.545
17110W        W89436  28.114  12.964  12.292
17111W        W89437  38.370   4.099  13.975
17112W        W89438  31.092   8.794  10.060
17113W        W89439  21.001  21.134   3.264
17114W        W89440  36.606  36.908  13.499
17115W        W89441   6.651  25.642   1.928
17116W        W89442  39.118  21.758  13.781
17117W        W89443  37.291  24.189  14.868
17118W        W89444  25.186  31.623  14.336
17119W        W89445  14.673  13.284  12.011
17120W        W89446   8.418  12.946   4.216
17121W        W89447  26.675  14.562   3.747
17122W        W89448  22.649  34.121   1.977
17123W        W89449  26.588  10.119  12.370
17124W        W89450  21.123  25.537   3.132
17125W        W89451  17.525  10.403  11.099
17126W        W89452  15.128   9.017  12.622
17127W        W89453  15.562  27.490   0.244
17128W        W89454   8.669  35.094   3.651
17129W        W89455  30.211  29.164   3.276
17130W        W89456   3.910  35.387  13.044
17131W        W89457  12.827  34.078   2.208
17132W        W89458  41.359   1.779   4.205
17133W        W89459   8.274  10.559   4.535
17134W        W89460  19.945  27.118   4.050
17135W        W89461  38.673  27.536   2.268
17136W        W89462   8.466   9.327   2.956
17137W        W89463  17.305  24.702   1.278
17138W        W89464  32.567   6.144  13.370
17139W        W89465  42.295  12.670   3.736
17140W        W89466   3.330  36.028   3.122
17141W        W89467   3.663  26.758   4.207
17142W        W89468  41.609   9.549  12.100
17143W        W89469  29.692  28.489   1.858
17144W        W89470   8.338  17.077   3.686
17145W        W89471  17.793  26.031  11.327
17146W        W89472  14.275  27.572  11.092
17147W        W89473  22.244  23.237  13.045
17148W        W89474   1.495  16.786  13.463
17149W        W89475  27.682   2.564   4.128
17150W        W89476  30.587  41.256   0.727
17151W        W89477  19.677  38.446   1.945
17152W        W89478  38.518  26.680  11.137
17153W        W89479  32.085  44.718   1.677
17154W        W89480  18.380  29.493   4.239
17155W        W89481  11.805  44.732  13.480
17156W        W89482  18.264  28.565  12.946
17157W        W89483  17.032  27.520  11.218
17158W        W89484  43.522  40.840   1.254
17159W        W89485  13.103  32.849  12.546
17160W        W89486  11.243  27.724   0.411
17161W        W89487  37.997  22.551   0.737
17162W        W89488  28.954  10.786   0.824
17163W        W89489   2.313  26.669  14.091
17164W        W89490  40.450  36.912  11.566
17165W        W89491  16.973  37.014  11.322
17166W        W89492   4.853  33.143  14.355
17167W        W89493  22.157  30.077  12.030
17168W        W89494   1.203  38.097   2.923
17169W        W89495   5.871  27.410  12.289
17170W        W89496  43.030  43.761   3.714
17171W        W89497  30.370  32.100  14.948
17172W        W89498  36.568  35.747  11.561
17173W        W89499   1.232  13.565   2.121
17174W        W89500  27.220  24.177  13.077
17175W        W89501  39.032  35.324   2.281
17176W        W89502  36.301  28.557   0.772
17177W        W89503  27.636  30.908   1.006
17178W        W89504  26.193  41.886  11.022
17179W        W89505  39.817  26.570  14.806
17180W        W89506   0.794  25.140  14.230
17181W        W89507  44.903   7.917   2.838
17182W        W89508  42.025  43.757   3.662
17183W        W89509   9.309  33.244  11.097
17184W        W89510  30.709   2.914   2.799
17185W        W89511  34.561  35.884  10.580
17186W        W89512   0.259  23.045  13.290
17187W        W89513  17.133  32.175   4.699
17188W        W89514  20.873  43.877   2.166
17189W        W89515  33.638   7.726   3.005
17190W        W89516  29.678   0.278   2.593
17191W        W89517  30.138  34.556  10.668
17192W        W89518  23.322  17.368  10.044
17193W        W89519   9.873   1.666   4.811
17194W        W89520  32.460  20.022  13.587
17195W        W89521  10.824  40.555   0.271
17196W        W89522  18.732  34.399   0.763
17197W        W89523  22.191  22.965   4.068
17198W        W89524  15.166   8.403  12.462
17199W        W89525   4.223   8.436  12.471
17200W        W89526  40.744  29.690   2.294
17201W        W89527  30.747  29.175   1.187
17202W        W89528  32.111  14.292  12.340
17203W        W89529  17.356   7.072  11.135
17204W        W89530  41.573   7.348   0.891
17205W        W89531  39.062  10.400  10.722
17206W        W89532  41.556  10.127   0.964
17207W        W89533  41.000  22.123   4.374
17208W        W89534  11.782  42.222   0.263
17209W        W89535  13.046  11.231   1.818
17210W        W89536  34.105   5.739  10.666
17211W        W89537  38.843  23.566  10.699
17212W        W89538   6.203  39.855   2.632
17213W        W89539  13.884   6.133  14.921
17214W        W89540   0.836  22.378   1.830
17215W        W89541  30.677  16.293  12.410
17216W        W89542  32.575   2.486  12.557
17217W        W89543   4.953  34.360   3.455
17218W        W89544   3.735   3.705  10.721
17219W        W89545  16.295   3.093   3.302
17220W        W89546   1.929  11.083   3.655
17221W        W89547  36.661  32.261  13.785
17222W        W89548  43.967  17.161  13.301
17223W        W89549  25.107  30.422   0.844
17224W        W89550   1.714  36.101   0.447
17225W        W89551   5.424   7.064  14.370
17226W        W89552   8.201  19.930   2.838
17227W        W89553  23.383  32.328   3.283
17228W        W89554   7.408  37.862   2.837
17229W        W89555  31.822   6.411   4.214
17230W        W89556   4.024  18.080  12.686
17231W        W89557  38.104  15.761   3.524
17232W        W89558  13.208  27.104   1.280
17233W        W89559   4.405  34.686   2.790
17234W        W89560   7.160  27.160   0.845
17235W        W89561  10.707  24.539  14.411
17236W        W89562  21.202  31.981  11.268
17237W        W89563  23.995  37.940   3.738
17238W        W89564   5.095  25.201   1.731
17239W        W89565  38.821  40.991   2.311
17240W        W89566  27.154  30.239   3.483
17241W        W89567  35.315  36.159  11.681
17242W        W89568  21.279   6.488   5.016
17243W        W89569  13.012  17.763  12.575
17244W        W89570  20.789  14.133   0.451
17245W        W89571  25.897  20.491  14.870
17246W        W89572  20.549  25.538  12.117
17247W        W89573  21.645  17.285  10.860
17248W        W89574  33.509  38.854  13.447
17249W        W89575   4.516   4.278  13.186
17250W        W89576  38.023  42.452  11.962
17251W        W89577  42.804   5.949   0.945
17252W        W89578  28.668  22.971   4.106
17253W        W89579  32.619  10.442   1.238
17254W        W89580  38.903  20.210   4.112
17255W        W89581  39.893  31.617  12.293
17256W        W89582  41.718  30.227   2.784
17257W        W89583   5.178  12.278  11.653
17258W        W89584  42.826  20.501  13.831
17259W        W89585   2.754   9.881  14.993
17260W        W89586  16.206   4.754  12.966
17261W        W89587   6.179  35.444   2.657
17262W        W89588  10.884   9.710   2.186
17263W        W89589  31.344  21.051  10.435
17264W        W89590  33.451  24.103  12.930
17265W        W89591  24.583  21.617  10.618
17266W        W89592  25.076  10.231   2.288
17267W        W89593  11.530  43.273  11.882
17268W        W89594   1.337  38.388   1.916
17269W        W89595  19.621  39.811   2.852
17270W        W89596  38.476   7.408  11.647
17271W        W89597  15.569   9.171  11.935
17272W        W89598   8.249   0.797  11.445
17273W        W89599  44.707  44.900  10.676
17274W        W89600  26.592  23.724  12.001
17275W        W89601  21.036   8.659   3.890
17276W        W89602  26.950   6.729  14.053
17277W        W89603  13.322  33.354   3.283
17278W        W89604  28.500   7.680  11.855
17279W        W89605  18.999  21.995   4.275
17280W        W89606   5.447  25.300  13.050
17281W        W89607   7.712  30.413  10.608
17282W        W89608  19.009  20.201   2.234
17283W        W89609  25.701  36.042  11.195
17284W        W89610  37.903  32.118   0.246
17285W        W89611  19.002  38.429   4.617
17286W        W89612  37.029  41.813   2.845
17287W        W89613   2.909  29.572  13.758
17288W        W89614  14.236  32.381   2.718
17289W        W89615  30.736  43.987   0.374
17290W        W89616  44.120  41.684   0.457
17291W        W89617  35.376  12.663  12.055
17292W        W89618  34.137  28.713  13.136
17293W        W89619  22.734  41.062   1.185
17294W        W89620  30.227  11.187  12.438
17295W        W89621  41.193   0.771  14.980
17296W        W89622   2.227  13.741  12.976
17297W        W89623  21.294   4.953  13.953
17298W        W89624  32.053  42.910  13.007
17299W        W89625  39.975  28.411  13.439
17300W        W89626  36.532  29.494  14.655
17301W        W89627  28.397   3.320   4.113
17302W        W89628  43.219  19.111   1.819
17303W        W89629   6.878  14.255   3.737
17304W        W89630  22.233  23.739  13.284
17305W        W89631  22.827  43.928  11.252
17306W        W89632  33.062  10.140  12.313
17307W        W89633  42.834   7.426  14.485
17308W        W89634  26.105  13.787  14.076
17309W        W89635  37.993  19.656   2.335
17310W        W89636  32.479  44.815  11.644
17311W        W89637  29.643   5.639  11.457
17312W        W89638  41.252  17.325   1.162
17313W        W89639   0.201  28.611  11.615
17314W        W89640   5.841   8.049   3.559
17315W        W89641  32.675  34.242   1.002
17316W        W89642  32.594  42.076  11.047
17317W        W89643  27.516  13.660   2.214
17318W        W89644  37.905  27.119  14.425
17319W        W89645  36.778  25.267  12.574
17320W        W89646  31.353  40.136  13.592
17321W        W89647   5.904  36.328  13.405
17322W        W89648  19.069  41.508   0.095
17323W        W89649  18.340  10.802  12.558
17324W        W89650  15.490  20.149   1.981
17325W        W89651  24.455  22.570   3.850
17326W        W89652  11.498  12.528   2.507
17327W        W89653  39.140   9.656  14.007
17328W        W89654   6.871   8.711   4.214
17329W        W89655   7.358   1.716  13.003
17330W        W89656  25.148  31.817   4.374
17331W        W89657  38.599  25.669  12.906
17332W        W89658  29.058   0.667  13.368
17333W        W89659   5.811   1.802  14.781
17334W        W89660  27.098  19.892   4.620
17335W        W89661  39.844  32.002   0.458
17336W        W89662  19.262  22.153   4.709
17337W        W89663  17.239  16.367   2.326
17338W        W89664   5.693   6.975  13.921
17339W        W89665  18.614   1.443   2.373
17340W        W89666  25.002   8.833  14.777
17341W        W89667  12.872  38.034  13.016
17342W        W89668  22.453  39.704  11.921
17343W        W89669  31.073  30.679  12.252
17344W        W89670  43.184  41.564   4.514
17345W        W89671  18.085  15.587  10.955
17346W        W89672  19.030   4.320   4.596
17347W        W89673  37.507  43.574   4.034
17348W        W89674  38.341  40.341  13.890
17349W        W89675  19.775   6.665   1.333
17350W        W89676  19.825   1.695  14.931
17351W        W89677  32.259  40.745  12.886
17352W        W89678  20.264  13.681   4.370
17353W        W89679  38.953  35.109   3.176
17354W        W89680   0.534  39.557  12.617
17355W        W89681  18.243   6.940   3.791
17356W        W89682  22.219  23.164  11.153
17357W        W89683   5.686  15.568   2.684
17358W        W89684  34.811   1.542  10.006
17359W        W89685  38.801  11.776   2.817
17360W        W89686  17.142  25.636  11.990
17361W        W89687   5.887   2.072   2.703
17362W        W89688  31.195  37.480  12.993
17363W        W89689  39.372   9.935   2.192
17364W        W89690   6.949   7.209   1.653
17365W        W89691  15.688  36.460   3.083
17366W        W89692   2.730  22.889  14.012
17367W        W89693  14.859  16.136   0.962
17368W        W89694  15.430  26.071  11.184
17369W        W89695  38.054  16.633   3.335
17370W        W89696  35.066  38.431  14.048
17371W        W89697   0.662  15.244   4.738
17372W        W89698   6.733  11.073  10.916
17373W        W89699  14.556  39.961   0.998
17374W        W89700  16.685   8.239  11.493
17375W        W89701  41.090   7.488   3.685
17376W        W89702  21.282  17.773  13.393
17377W        W89703  40.815  42.450  12.905
17378W        W89704  29.501  22.645  14.496
17379W        W89705   9.411  36.435  12.634
17380W        W89706  41.749  13.718   1.501
17381W        W89707  42.889   5.154  14.405
17382W        W89708   8.382  43.297   3.676
17383W        W89709  17.638  24.075   2.266
17384W        W89710  38.894   7.912   1.753
17385W        W89711  12.775  24.620  12.377
17386W        W89712  33.642  32.548  13.998
17387W        W89713   8.986  40.492  11.984
17388W        W89714   8.181  33.552   1.316
17389W        W89715  18.130   2.369  13.376
17390W        W89716  24.256  38.012  12.079
17391W        W89717  12.954  10.161  10.883
17392W        W89718  12.348   5.228   4.292
17393W        W89719   9.828  15.865   2.779
17394W        W89720   4.923  40.775   4.588
17395W        W89721  37.326  38.584   3.189
17396W        W89722  43.794  24.022   3.229
17397W        W89723  42.253  26.484   2.671
17398W        W89724  35.167   6.780  14.723
17399W        W89725  16.327  17.290  10.763
17400W        W89726   9.376  24.744   1.805
17401W        W89727  38.072  34.569   3.620
17402W        W89728  38.161  35.487  11.663
17403W        W89729  13.573   6.378   4.145
17404W        W89730   1.878  34.161  11.027
17405W        W89731  27.857  10.559   2.839
17406W        W89732   3.303  38.322  11.168
17407W        W89733  23.672  32.118   0.612
17408W        W89734  32.195  25.644  14.471
17409W        W89735  44.455  28.467  10.671
17410W        W89736  38.676  28.165   9.905
17411W        W89737  12.047  17.568   1.749
17412W        W89738   1.419  27.833  10.510
17413W        W89739   9.936  36.034   2.634
17414W        W89740  16.263  13.730   4.604
17415W        W89741  21.616  17.396  13.552
17416W        W89742  31.125  18.780   0.771
17417W        W89743  36.860  24.573   0.727
17418W        W89744  32.805  25.193  13.382
17419W        W89745   4.343  31.331  14.955
17420W        W89746   5.721   0.788  12.182
17421W        W89747  28.443  35.461  12.293
17422W        W89748   8.824  32.202  11.560
17423W        W89749  44.538  24.622  14.577
17424W        W89750  38.978  21.658   2.736
17425W        W89751  37.762  36.602   2.854
17426W        W89752   1.733  28.533  14.392
17427W        W89753  40.974   8.601   4.194
17428W        W89754  38.883  21.329   4.142
17429W        W89755  21.234   4.002  10.570
17430W        W89756  12.910  16.678  14.241
17431W        W89757  20.966  44.919   2.549
17432W        W89758   9.815  25.668  13.508
17433W        W89759  34.634  43.978  11.659
17434W        W89760  36.378  41.403   3.322
17435W        W89761   4.933  42.337   2.402
17436W        W89762  20.277  17.497   1.404
17437W        W89763   2.807  21.162   1.414
17438W        W89764  13.882  27.207   3.694
17439W        W89765  37.613  17.499   5.027
17440W        W89766  27.429   3.891   4.137
17441W        W89767  12.328  27.745   3.328
17442W        W89768  10.090  13.862  12.883
17443W        W89769  11.173  11.159   0.351
17444W        W89770   3.622  12.316  12.501
17445W        W89771  11.642  22.249   4.893
17446W        W89772   7.275   3.998   4.145
17447W        W89773   4.398  16.059   3.243
17448W        W89774  28.870  40.597   1.807
17449W        W89775  24.001   2.343  12.475
17450W        W89776   6.767  18.392  13.530
17451W        W89777  38.659  35.626  11.548
17452W        W89778  17.313  43.410   1.848
17453W        W89779   5.658  38.027   1.419
17454W        W89780  43.924  29.438  13.111
17455W        W89781  20.253  12.348   4.639
17456W        W89782  28.494  43.274  14.925
17457W        W89783  42.878  35.020   1.916
17458W        W89784  43.981  43.561   1.669
17459W        W89785   8.985   6.307  14.479
17460W        W89786  36.504  26.988  12.774
17461W        W89787  32.579  14.165   2.907
17462W        W89788  25.109   2.450  13.656
17463W        W89789  35.534  43.804  10.729
17464W        W89790  30.081   6.923   0.449
17465W        W89791   5.778  26.552   3.061
17466W        W89792   6.321   8.815   0.809
17467W        W89793  20.840  10.807  11.638
17468W        W89794  20.899   2.784   2.692
17469W        W89795   5.618  36.517  14.726
17470W        W89796  15.341   3.882  11.860
17471W        W89797   2.039  11.111  10.759
17472W        W89798   9.451  41.824   1.690
17473W        W89799  39.408   7.830  12.969
17474W        W89800  28.927  31.927   4.927
17475W        W89801  24.122   5.797   0.956
17476W        W89802  32.359  18.660  10.929
17477W        W89803  19.043  36.170  13.626
17478W        W89804  40.279  16.372   3.666
17479W        W89805  41.849  15.686  10.515
17480W        W89806  15.210  27.778   2.794
17481W        W89807  28.596  17.646  14.104
17482W        W89808  12.080  38.354   1.774
17483W        W89809  38.317  37.292  14.590
17484W        W89810  11.236  41.967  13.010
17485W        W89811  16.030  29.045  12.034
17486W        W89812  34.479  44.742  14.565
17487W        W89813  24.999  40.032   0.774
17488W        W89814  44.750   9.890  12.561
17489W        W89815  44.471  13.844  12.595
17490W        W89816  36.810  30.671   1.334
17491W        W89817  26.888  15.297  12.571
17492W        W89818  37.429   7.736  12.628
17493W        W89819  37.615  16.231   4.058
17494W        W89820   3.914   9.414   5.607
17495W        W89821  28.561  13.873  14.007
17496W        W89822  17.199  38.746  11.110
17497W        W89823  37.082   1.192  10.712
17498W        W89824  27.393  40.413   0.823
17499W        W89825  44.822  14.937   3.549
17500W        W89826  18.753   8.146  14.775
17501W        W89827  24.052  41.408  10.291
17502W        W89828  12.705  27.655   9.830
17503W        W89829  13.338  39.920  11.982
17504W        W89830  19.152  18.664  10.472
17505W        W89831   6.884  31.555  13.127
17506W        W89832   2.145  38.024   3.518
17507W        W89833  22.285  23.708  12.391
17508W        W89834   0.337  44.740   3.172
17509W        W89835   5.853  22.343   4.267
17510W        W89836  18.549   5.150   1.612
17511W        W89837  11.912  33.155  13.131
17512W        W89838  24.687  12.723   4.530
17513W        W89839   7.448  15.151   2.547
17514W        W89840  39.769  13.819   2.885
17515W        W89841  26.780  22.459  12.417
17516W        W89842  24.079  41.496  11.150
17517W        W89843  31.877  15.699  14.161
17518W        W89844  22.705   9.823   0.843
17519W        W89845   2.789  27.582   1.867
17520W        W89846  43.741  30.644   5.025
17521W        W89847  11.744   5.796   0.745
17522W        W89848  13.729  19.172   3.894
17523W        W89849  13.612   7.341   3.428
17524W        W89850  11.359  30.580  14.976
17525W        W89851   0.491  20.622  13.864
17526W        W89852   1.474  15.020  13.229
17527W        W89853  13.014  20.230   4.147
17528W        W89854   4.687  44.887   2.368
17529W        W89855  42.911  30.486   1.881
17530W        W89856  18.169  25.633   1.808
17531W        W89857  13.256  26.544  11.323
17532W        W89858  33.588  35.029  13.957
17533W        W89859  30.404   6.307   0.763
17534W        W89860  28.744  24.587   4.894
17535W        W89861  23.192  27.934   2.745
17536W        W89862  16.767  40.865   4.648
17537W        W89863  16.187  28.920  13.182
17538W        W89864  36.379  35.679   4.101
17539W        W89865  24.985  34.927  12.812
17540W        W89866  29.150   9.009   4.524
17541W        W89867  36.069  12.102   3.911
17542W        W89868  43.380  34.591  14.306
17543W        W89869   5.729  16.202  14.775
17544W        W89870  24.557   1.520  11.261
17545W        W89871  28.952   6.256  11.459
17546W        W89872  44.419  19.136   2.357
17547W        W89873   4.836  41.322   2.406
17548W        W89874  27.262  42.863  13.470
17549W        W89875  37.757  44.942   3.192
17550W        W89876  10.454  42.429   0.323
17551W        W89877  31.403   8.883  14.587
17552W        W89878  38.082  24.994  10.740
17553W        W89879  42.914   8.303   3.892
17554W        W89880  37.812  43.104   3.768
17555W        W89881  30.064   7.886   4.813
17556W        W89882  29.876  44.362   4.650
17557W        W89883  40.369  17.114   0.547
17558W        W89884  24.517  38.839  11.176
17559W        W89885   0.215  43.872   1.361
17560W        W89886   2.545  33.247   4.206
17561W        W89887  23.198  17.749  10.658
17562W        W89888  41.869  12.337   2.946
17563W        W89889  39.576  41.482  11.943
17564W        W89890  14.294   7.655   0.339
17565W        W89891  37.394   7.820  14.038
17566W        W89892  14.042   5.195   0.003
17567W        W89893  16.625  35.870   2.409
17568W        W89894  35.045   5.715  10.278
17569W        W89895  39.257   3.215   1.732
17570W        W89896  19.127  27.438   3.101
17571W        W89897  25.723  20.729   1.427
17572W        W89898  40.988  31.508   4.203
17573W        W89899  32.839   3.854  10.783
17574W        W89900  16.582  36.420   0.429
17575W        W89901  20.649  29.217  11.239
17576W        W89902   0.333  31.892   0.788
17577W        W89903   5.818  14.895   2.223
17578W        W89904   4.194  42.793  14.986
17579W        W89905  13.106  21.458  12.738
17580W        W89906   0.934  36.148   4.180
17581W        W89907  21.205  18.532  10.699
17582W        W89908  36.025   9.372  13.108
17583W        W89909  23.969  19.211   4.525
17584W        W89910  12.578  37.618  11.407
17585W        W89911  39.064  21.481  12.966
17586W        W89912  39.406  19.478  14.388
17587W        W89913  31.908  39.934  11.663
17588W        W89914  44.208  15.815  14.729
17589W        W89915  34.387  29.401   0.484
17590W        W89916   1.004   2.804   3.412
17591W        W89917  14.974  24.248  14.570
17592W        W89918   2.050  18.663   0.438
17593W        W89919  19.325  20.475   3.728
17594W        W89920  15.301  32.455   1.058
17595W        W89921  39.152  22.963   2.830
17596W        W89922  44.785  25.383  14.792
17597W        W89923  33.085  42.023   3.727
17598W        W89924  42.050  10.874  10.851
17599W        W89925   0.446  34.509  12.476
17600W        W89926  30.982  19.282   4.252
17601W        W89927  37.906   7.886  13.946
17602W        W89928  20.965   2.356  12.666
17603W        W89929  32.200   0.941   0.403
17604W        W89930  28.737  43.657   3.732
17605W        W89931  26.861   5.756  11.125
17606W        W89932   2.667  16.674   4.195
17607W        W89933  11.205  23.947   1.807
17608W        W89934  10.314  12.770   3.878
17609W        W89935  15.731  22.734  13.022
17610W        W89936   0.371  11.607  14.514
17611W        W89937  36.551   3.795  10.915
17612W        W89938  22.504  25.456   3.303
17613W        W89939   9.509  26.000  13.790
17614W        W89940  39.256  28.882   4.107
17615W        W89941  15.296  27.922   3.753
17616W        W89942  11.277   2.692  13.335
17617W        W89943   1.046  24.848  12.814
17618W        W89944   6.330  22.223   0.334
17619W        W89945  41.856  31.111  13.852
17620W        W89946  39.915  38.446  12.350
17621W        W89947  32.894  12.390   1.852
17622W        W89948  32.634   6.865   1.841
17623W        W89949  30.815  10.960  10.993
17624W        W89950  20.318   7.343  14.883
17625W        W89951  41.917  34.573  14.953
17626W        W89952  44.299   3.124   3.731
17627W        W89953  26.425   0.545   3.021
17628W        W89954  29.492  14.804   2.075
17629W        W89955  13.585  40.745   0.476
17630W        W89956  24.454  37.679   3.802
17631W        W89957  33.820  44.058  13.407
17632W        W89958  14.098  18.880  11.998
17633W        W89959  41.495  42.184  14.849
17634W        W89960  28.458  24.485  12.928
17635W        W89961  27.128  39.927   3.304
17636W        W89962  39.935  27.499   1.895
17637W        W89963  31.387  27.664   2.330
17638W        W89964   4.131  23.632  11.569
17639W        W89965  40.156  36.806  14.799
17640W        W89966  44.879  18.268   4.613
17641W        W89967  42.475   4.176  11.200
17642W        W89968   5.952  29.648   3.125
17643W        W89969  32.171  33.838  10.926
17644W        W89970  28.507   5.823   1.426
17645W        W89971  42.339  31.081  11.821
17646W        W89972  18.726  27.412   2.797
17647W        W89973   9.212   9.091  13.971
17648W        W89974  26.123  21.462   2.766
17649W        W89975  19.261  31.930  13.355
17650W        W89976   8.801  22.028  11.191
17651W        W89977  15.768  43.854  13.918
17652W        W89978  11.088  33.640   3.780
17653W        W89979   0.660  26.023   4.608
17654W        W89980  33.610  27.733   2.761
17655W        W89981  37.142  27.295  11.140
17656W        W89982  38.897   1.324  10.787
17657W        W89983  44.888  30.008  11.663
17658W        W89984  36.785  25.617   2.425
17659W        W89985   4.946  23.366   2.644
17660W        W89986   2.266  44.840   2.899
17661W        W89987  25.278  13.571  11.208
17662W        W89988  27.567  13.571  12.365
17663W        W89989  17.593  28.023   1.172
17664W        W89990   7.796  36.352   4.626
17665W        W89991  19.754  15.743  12.026
17666W        W89992  32.491  41.468   3.592
17667W        W89993  14.515  18.605  12.133
17668W        W89994   2.746   5.733   1.463
17669W        W89995  32.195  14.167   2.211
17670W        W89996  18.281  16.046   0.383
17671W        W89997  21.202  37.493  11.025
17672W        W89998  32.217  22.577  10.642
17673W        W89999   3.540  23.494   4.125
17674W        W90000  15.421  19.802  11.962
17675W        W90001  16.555  35.670   0.425
17676W        W90002  19.114  14.657   1.898
17677W        W90003  29.146  39.766  13.912
17678W        W90004   2.321  42.344   0.953
17679W        W90005   7.426  44.994   2.807
17680W        W90006  28.029   6.119   3.121
17681W        W90007   8.898  34.934  10.761
17682W        W90008  10.310   0.979   1.350
17683W        W90009  33.546  36.339  14.321
17684W        W90010  36.948  44.329  12.355
17685W        W90011  39.835  43.523  11.073
17686W        W90012  30.374   3.357   0.327
17687W        W90013  26.507  21.135  10.368
17688W        W90014  38.525  37.887  11.817
17689W        W90015   1.393  18.199  11.513
17690W        W90016  32.342  38.106  13.887
17691W        W90017   0.422  33.177  11.698
17692W        W90018  29.939  31.057   4.364
17693W        W90019  44.498  28.123  13.888
17694W        W90020  20.672  43.983   4.907
17695W        W90021  32.544  14.535  10.191
17696W        W90022   4.044  30.546   1.314
17697W        W90023  28.669  25.914  12.899
17698W        W90024  20.638   8.497  11.964
17699W        W90025   9.260  10.593  14.830
17700W        W90026  22.689  21.191   0.998
17701W        W90027  23.615  31.063  11.160
17702W        W90028  30.597  36.331  14.270
17703W        W90029  44.396   3.414  10.137
17704W        W90030  20.856  33.836  12.684
17705W        W90031  41.092  18.109  13.517
17706W        W90032  11.870  31.677   3.012
17707W        W90033  36.108  21.709  12.400
17708W        W90034  17.326  11.753   2.220
17709W        W90035   1.042   9.149  12.150
17710W        W90036  25.268  36.894  11.510
17711W        W90037  44.367  17.063   1.374
17712W        W90038  42.074  21.303   2.386
17713W        W90039  16.189  40.539   2.900
17714W        W90040  17.187  26.939  13.309
17715W        W90041  40.946   2.809   3.414
17716W        W90042  19.697   5.750   2.850
17717W        W90043  17.123  44.579  11.622
17718W        W90044   0.147   1.723   2.305
17719W        W90045  10.652  31.159  13.031
17720W        W90046  37.523   3.752   1.514
17721W        W90047  43.481  28.126   0.797
17722W        W90048  28.179  37.013   3.862
17723W        W90049  37.238  34.327   4.185
17724W        W90050  13.804  17.385  14.750
17725W        W90051  15.117   6.765  11.544
17726W        W90052  42.085   1.274   4.137
17727W        W90053  28.037  12.484   2.146
17728W        W90054  35.661  11.696   4.634
17729W        W90055  28.642  10.627   3.222
17730W        W90056  19.083  21.587   1.641
17731W        W90057  14.014  30.346  13.912
17732W        W90058  42.222  11.206  12.807
17733W        W90059  34.569   1.543   2.248
17734W        W90060  21.294  20.994  12.314
17735W        W90061  20.788  12.293  11.108
17736W        W90062  12.329  37.317   1.200
17737W        W90063  43.481  24.049   2.303
17738W        W90064  19.726  29.394  10.686
17739W        W90065  24.704   2.009  11.210
17740W        W90066  23.015   7.947  10.523
17741W        W90067  30.695  39.343   3.674
17742W        W90068  22.813  18.923  13.365
17743W        W90069  33.084  19.006   3.786
17744W        W90070  14.692   5.636   3.242
17745W        W90071   1.342  27.705   2.615
17746W        W90072  34.139   8.311   1.395
17747W        W90073   9.700  35.070   4.896
17748W        W90074  36.381  20.759   3.424
17749W        W90075  18.647  44.103  10.469
17750W        W90076  23.201  25.541   0.649
17751W        W90077  18.713   2.004   4.202
17752W        W90078  28.451  17.703   0.086
17753W        W90079  39.326  23.673  10.958
17754W        W90080  11.595  42.851   2.837
17755W        W90081  40.585  20.623  13.877
17756W        W90082   5.254   4.389   3.608
17757W        W90083  44.655   1.866   2.391
17758W        W90084  16.807   7.717   1.632
17759W        W90085  23.229  21.549  14.295
17760W        W90086  25.110   1.720  10.684
17761W        W90087  30.546  27.728   0.399
17762W        W90088  15.737  14.568   0.270
17763W        W90089  36.635   0.962   2.731
17764W        W90090  39.499  17.699  14.057
17765W        W90091  26.692  34.386   0.777
17766W        W90092   0.281  41.530   3.183
17767W        W90093  35.077   9.672   3.587
17768W        W90094   7.829  30.590  14.219
17769W        W90095   5.802  39.348   3.332
17770W        W90096   2.513  18.944  11.586
17771W        W90097  12.023  23.840  10.775
17772W        W90098  31.465  30.600   4.377
17773W        W90099  17.653  22.649  11.667
17774W        W90100  39.976  10.593  11.585
17775W        W90101   2.043   8.946   0.024
17776W        W90102   2.430  32.456   1.147
17777W        W90103  12.295  33.502  11.606
17778W        W90104   6.010  15.062  11.561
17779W        W90105  28.374  36.316  14.497
17780W        W90106  38.606  26.182  11.947
17781W        W90107  27.902  15.542   2.301
17782W        W90108  27.128  16.640   2.227
17783W        W90109  18.492  41.692   3.541
17784W        W90110  16.805  22.718   4.642
17785W        W90111  16.048  23.588  13.907
17786W        W90112  32.753  10.894   4.197
17787W        W90113  39.831   5.718  11.427
17788W        W90114   3.664  37.019   1.311
17789W        W90115  19.089   4.735  11.892
17790W        W90116   6.946   4.451   3.254
17791W        W90117  27.128  33.915  12.800
17792W        W90118  22.472  36.317   4.848
17793W        W90119   8.671  26.018  11.980
17794W        W90120  42.767   9.674  12.613
17795W        W90121  25.719  36.865  14.978
17796W        W90122  20.684   7.112  13.890
17797W        W90123  30.184  37.440   2.901
17798W        W90124  10.140  13.192   1.225
17799W        W90125  41.461  23.210   3.192
17800W        W90126  27.076   7.826  12.785
17801W        W90127  24.625  29.641   3.405
17802W        W90128  15.239  14.171  10.799
17803W        W90129  15.505  35.625  11.046
17804W        W90130  11.357   3.461  10.433
17805W        W90131  22.265  38.417  12.885
17806W        W90132  38.993   1.793   0.709
17807W        W90133   8.487   7.237  13.839
17808W        W90134  23.835  26.200  11.956
17809W        W90135  19.826  21.270  13.298
17810W        W90136   1.761  31.990  10.593
17811W        W90137  30.618  38.695   1.448
17812W        W90138  26.538   1.877   0.455
17813W        W90139   9.094  11.098  10.592
17814W        W90140  12.458   5.463  13.094
17815W        W90141  37.491   8.621  10.870
17816W        W90142   8.106  33.503  13.418
17817W        W90143  23.622  41.151  14.833
17818W        W90144  34.120  16.163  12.671
17819W        W90145  30.161   9.584   3.755
17820W        W90146  14.742  35.917   3.218
17821W        W90147  31.020  27.033  10.805
17822W        W90148  19.796   2.191  11.520
17823W        W90149   9.614  21.711  14.236
17824W        W90150  14.307  33.347   2.866
17825W        W90151  10.374  29.491  12.448
17826W        W90152  33.304  40.305  11.922
17827W        W90153   7.767  11.877   4.648
17828W        W90154  38.562  21.617   0.448
17829W        W90155  18.785   0.532   3.395
17830W        W90156   5.458  12.341  13.014
17831W        W90157  15.754  35.797   4.241
17832W        W90158  11.015  42.981   0.305
17833W        W90159   7.640   5.167   3.377
17834W        W90160  22.661   2.333  11.106
17835W        W90161  26.023  14.101  11.587
17836W        W90162  30.945   1.977  10.635
17837W        W90163  32.190  44.522   3.341
17838W        W90164   4.216   3.914  10.729
17839W        W90165  19.287  38.887   2.331
17840W        W90166   0.585  39.540  12.105
17841W        W90167  33.843   9.218   4.325
17842W        W90168  32.140  43.758   1.314
17843W        W90169  40.176  37.717  11.183
17844W        W90170  20.932  14.837   4.606
17845W        W90171  14.019  13.109  14.680
17846W        W90172  21.942  37.977  12.905
17847W        W90173  42.275  15.979   1.860
17848W        W90174  34.253  27.304   3.230
17849W        W90175   0.831  14.122  12.433
17850W        W90176  25.583   6.709   0.948
17851W        W90177  27.121  21.225   4.285
17852W        W90178  23.238   2.265   1.322
17853W        W90179  17.149   3.983   1.025
17854W        W90180   5.942  34.573   1.084
17855W        W90181  24.508   2.850   3.724
17856W        W90182  29.999  29.551  13.356
17857W        W90183  38.755  12.776  10.017
17858W        W90184  30.734  29.058  14.398
17859W        W90185  12.203  41.578   2.691
17860W        W90186  40.159  22.254   2.204
17861W        W90187   1.488  29.288  14.810
17862W        W90188  24.408  25.227   2.396
17863W        W90189  22.607  18.022  12.321
17864W        W90190  18.213  31.365   0.900
17865W        W90191   2.489  40.469   1.794
17866W        W90192  34.024  41.740   0.988
17867W        W90193  10.222   4.460  13.900
17868W        W90194  29.368  40.193  14.134
17869W        W90195  43.485   8.286   2.826
17870W        W90196  18.853  13.391  14.015
17871W        W90197  21.277  11.568  13.352
17872W        W90198   9.707  32.428  11.743
17873W        W90199   2.460  30.123   1.806
17874W        W90200  44.306  11.134  13.273
17875W        W90201  21.252  31.824   3.716
17876W        W90202  28.407  25.584   5.434
17877W        W90203  43.718   8.657   2.444
17878W        W90204  14.071  17.832   2.214
17879W        W90205  38.543  12.231   2.864
17880W        W90206  22.039  24.194  13.395
17881W        W90207  43.545  25.220   4.556
17882W        W90208  31.427  15.350   4.344
17883W        W90209  37.766  13.682   9.672
17884W        W90210  38.273   0.125   1.510
17885W        W90211  13.125   2.019   3.952
17886W        W90212  34.415   4.430   0.521
17887W        W90213   3.925  34.754  11.971
17888W        W90214  36.082   7.334  13.437
17889W        W90215  23.937  14.305   1.451
17890W        W90216  14.257   3.314   2.106
17891W        W90217  19.403  28.473   1.986
17892W        W90218  37.385  13.718  13.524
17893W        W90219  27.123  37.867   3.593
17894W        W90220  35.320   8.421   1.800
17895W        W90221  24.939  19.716   2.359
17896W        W90222  35.826   1.465  13.025
17897W        W90223   5.751  10.960  14.254
17898W        W90224  37.364  18.415  13.539
17899W        W90225   8.707   4.872   1.825
17900W        W90226  19.097  39.255   3.346
17901W        W90227  12.030  41.452  13.842
17902W        W90228  10.352   5.930  13.792
17903W        W90229  36.168  21.204   1.337
17904W        W90230  11.197  33.448   1.568
17905W        W90231  10.685  26.267   4.211
17906W        W90232   0.456  32.108   3.575
17907W        W90233  25.142   0.290  14.482
17908W        W90234  35.430  36.997   0.226
17909W        W90235  34.955   3.309   5.258
17910W        W90236  24.070  42.023  11.053
17911W        W90237  25.072  28.648  12.716
17912W        W90238   4.061  21.898  11.821
17913W        W90239  43.278  40.422  12.032
17914W        W90240  15.788  16.234  14.852
17915W        W90241  40.242  30.429   0.818
17916W        W90242  37.511  32.111   3.694
17917W        W90243  30.659  33.195  11.551
17918W        W90244  23.389  38.389   2.410
17919W        W90245  21.550  35.064   2.173
17920W        W90246  11.711  19.506  10.742
17921W        W90247  13.763  16.235  13.906
17922W        W90248  29.007  36.575   0.774
17923W        W90249  33.602   3.314   2.583
17924W        W90250  21.367  36.752   3.687
17925W        W90251  14.629  13.322   2.199
17926W        W90252  27.335   5.778  11.965
17927W        W90253  29.184  31.480  14.273
17928W        W90254  44.870  39.105   2.718
17929W        W90255  23.757   4.709   4.266
17930W        W90256  25.508   0.815   1.294
17931W        W90257  22.505  42.192  13.007
17932W        W90258  11.305  32.022   2.815
17933W        W90259  20.177  13.199  13.395
17934W        W90260  23.100  29.541   3.855
17935W        W90261   3.261  27.770  13.789
17936W        W90262   0.438  35.279  11.146
17937W        W90263   8.863  43.242   2.220
17938W        W90264  19.910  20.238  12.626
17939W        W90265  36.463  16.742  13.285
17940W        W90266  24.754  43.635  13.957
17941W        W90267   1.515  44.283   4.542
17942W        W90268  17.994   9.272  14.400
17943W        W90269  37.478  44.957  14.305
17944W        W90270  33.857  42.129  13.037
17945W        W90271   0.956  13.336   1.724
17946W        W90272  30.792  29.714   2.884
17947W        W90273  40.748  27.032   4.934
17948W        W90274  40.553  24.757  12.184
17949W        W90275   8.731   2.393   1.210
17950W        W90276   1.194  22.610   0.710
17951W        W90277  28.235   9.580   4.619
17952W        W90278  13.649   6.610   1.379
17953W        W90279  23.126  39.886  11.506
17954W        W90280   4.167  16.184  10.695
17955W        W90281  42.749   3.283  12.840
17956W        W90282   4.592   6.382   3.197
17957W        W90283   9.970   3.943   4.177
17958W        W90284  35.949  30.895  13.408
17959W        W90285  44.332  28.191   0.875
17960W        W90286  42.812  22.094   0.676
17961W        W90287  26.382  32.521   2.853
17962W        W90288  36.625  34.610  12.872
17963W        W90289  19.831  13.398   0.890
17964W        W90290  15.326  32.624   2.033
17965W        W90291  12.854  44.804   4.177
17966W        W90292  33.389  13.362  13.123
17967W        W90293  24.759   8.433   0.933
17968W        W90294  41.300   6.807   3.252
17969W        W90295  44.776  27.511  13.951
17970W        W90296  33.527  20.337  11.713
17971W        W90297  20.040  32.531   0.953
17972W        W90298  16.808  24.649  12.594
17973W        W90299  12.211  34.247   3.020
17974W        W90300  33.119  33.552   0.312
17975W        W90301  28.445  33.610  12.580
17976W        W90302  33.488  33.023   2.252
17977W        W90303  31.161   9.214   3.085
17978W        W90304  21.135  12.717  11.609
17979W        W90305  16.148  38.110  13.346
17980W        W90306  41.086  17.664  10.632
17981W        W90307  32.229  22.453   0.936
17982W        W90308  17.879   0.796   1.761
17983W        W90309  10.339  30.434  10.741
17984W        W90310  44.216  33.188  14.147
17985W        W90311  30.619   5.823  12.374
17986W        W90312  24.470   1.324  12.438
17987W        W90313   8.732  42.688   0.856
17988W        W90314  28.362  12.825   0.565
17989W        W90315  18.155   8.858   3.304
17990W        W90316  22.961  22.799   3.618
17991W        W90317  12.715   7.393   4.361
17992W        W90318  16.880  17.010   2.666
17993W        W90319  22.066  24.046  14.194
17994W        W90320  13.958  21.067   4.995
17995W        W90321   7.341  37.099   0.091
17996W        W90322  29.725   2.531   0.026
17997W        W90323   2.965  16.801  14.389
17998W        W90324  41.451  27.489  13.780
17999W        W90325   9.174  43.364   1.596
18000W        W90326  17.570   1.683   1.415
18001W        W90327  27.638  14.626   3.770
18002W        W90328  39.383  25.701   1.299
18003W        W90329  19.205  40.208  11.089
18004W        W90330   5.205  25.952   3.753
18005W        W90331  14.150  12.227  12.128
18006W        W90332  23.648  30.983  14.902
18007W        W90333   5.167  34.071   0.093
18008W        W90334  36.146  38.864  12.463
18009W        W90335  26.766  18.913   4.585
18010W        W90336  27.707   4.315   4.216
18011W        W90337  31.852  17.565  10.441
18012W        W90338  12.906   9.642   0.455
18013W        W90339  36.552  28.785   4.126
18014W        W90340  27.506  22.057   3.535
18015W        W90341  23.467   7.946  12.404
18016W        W90342  24.650  35.582  14.035
18017W        W90343   0.039  26.987   3.877
18018W        W90344  32.786  35.339  14.728
18019W        W90345  31.471   7.927   0.996
18020W        W90346  24.600   6.649  13.783
18021W        W90347   8.662  12.803   2.141
18022W        W90348   3.454  25.502  14.373
18023W        W90349   8.949  13.594  12.409
18024W        W90350  26.495  12.100   2.829
18025W        W90351   6.245  43.876   3.571
18026W        W90352  40.490  41.433  14.955
18027W        W90353  35.631  38.430   4.524
18028W        W90354  37.145  10.769  13.027
18029W        W90355   8.167  28.750   3.182
18030W        W90356  22.596  15.237   1.930
18031W        W90357  29.434  18.619  14.834
18032W        W90358   7.821  22.398   0.223
18033W        W90359  15.576  21.550   0.422
18034W        W90360  34.213  19.851   2.893
18035W        W90361  14.176  38.830   3.841
18036W        W90362   7.833  21.501   2.973
18037W        W90363  22.827   3.947   3.659
18038W        W90364  31.945  24.544  11.516
18039W        W90365   2.037  13.693  13.519
18040W        W90366   9.336   5.727  13.900
18041W        W90367  40.107  25.787   0.082
18042W        W90368  23.998  17.064   3.198
18043W        W90369   1.756  11.286   2.053
18044W        W90370  19.684  31.607  11.902
18045W        W90371  37.906  19.924  14.984
18046W        W90372  28.541  22.242  11.983
18047W        W90373  22.771  32.518  14.260
18048W        W90374   5.861  39.825  14.962
18049W        W90375  16.405  29.169   1.187
18050W        W90376  39.770  38.634  12.838
18051W        W90377  41.516   0.956   0.936
18052W        W90378  29.710  13.227   4.111
18053W        W90379  26.882  31.921   3.178
18054W        W90380  13.131  21.652  11.746
18055W        W90381  44.938  33.929   1.071
18056W        W90382   2.358  18.873  12.507
18057W        W90383  38.805  12.304   3.345
18058W        W90384  13.255  19.367  10.683
18059W        W90385  14.367  28.525  11.104
18060W        W90386  43.650  11.304   4.483
18061W        W90387  17.614  11.556  13.848
18062W        W90388  32.711  12.742  11.092
18063W        W90389  37.996  26.883  12.055
18064W        W90390  41.893   9.926  12.957
18065W        W90391  17.965   8.374   3.185
18066W        W90392   8.390  28.002  10.434
18067W        W90393  36.400  10.048  13.957
18068W        W90394   4.709  12.102  12.544
18069W        W90395  10.017  13.614   3.149
18070W        W90396  24.754   3.636   2.318
18071W        W90397  18.169  34.048   1.215
18072W        W90398   5.625   7.156  10.827
18073W        W90399  34.052   8.793   2.760
18074W        W90400  15.537  33.924   2.714
18075W        W90401  40.395  40.494  14.982
18076W        W90402  26.785  16.552  10.485
18077W        W90403   1.756  34.671  11.084
18078W        W90404  27.272   3.949   2.816
18079W        W90405  14.131  24.425  14.236
18080W        W90406  38.672  36.144   2.281
18081W        W90407  33.206   7.897  14.890
18082W        W90408  37.578  43.885  10.982
18083W        W90409  22.255   5.154   2.318
18084W        W90410   5.166  32.151  10.618
18085W        W90411  20.558  11.863   2.273
18086W        W90412  41.260  17.319   1.686
18087W        W90413  16.048  24.778  14.264
18088W        W90414  13.702  44.744   2.801
18089W        W90415  17.747  11.439   0.853
18090W        W90416  36.585  24.075   3.911
18091W        W90417  37.742  41.828  12.486
18092W        W90418   4.407  23.781   3.263
18093W        W90419  32.120   9.571   4.943
18094W        W90420  41.827  33.357  14.876
18095W        W90421   0.959   9.754   5.135
18096W        W90422  42.202  26.095  10.802
18097W        W90423   7.384  23.993   0.020
18098W        W90424   1.358  18.805  12.787
18099W        W90425  31.215  13.705  14.817
18100W        W90426  23.991  43.002  13.714
18101W        W90427   6.465   7.671  12.865
18102W        W90428   5.651  43.293   4.579
18103W        W90429   1.194  19.189  11.067
18104W        W90430   7.431  32.024   3.299
18105W        W90431   0.725  17.390  12.370
18106W        W90432  21.781   7.288   4.591
18107W        W90433  30.449   2.741   3.227
18108W        W90434   9.580  43.881  12.071
18109W        W90435  44.361  27.086  12.988
18110W        W90436   1.779   7.586  10.729
18111W        W90437   2.740  39.620  12.534
18112W        W90438   8.182   8.484   4.929
18113W        W90439  29.374  25.722   4.221
18114W        W90440  35.429  34.752  10.646
18115W        W90441  39.098   6.110   4.577
18116W        W90442  14.398  40.286   0.567
18117W        W90443  12.280  38.816  11.008
18118W        W90444  22.519   0.671   0.190
18119W        W90445   1.810  39.167   1.674
18120W        W90446  27.104  11.326  10.461
18121W        W90447  15.210  17.801   1.774
18122W        W90448  41.974  13.827  11.044
18123W        W90449   2.910  21.751  13.008
18124W        W90450   8.976  23.748  11.323
18125W        W90451  23.320  11.681  12.484
18126W        W90452  37.988  19.174   4.273
18127W        W90453  40.344  37.470   0.981
18128W        W90454  16.447   0.946   4.073
18129W        W90455  34.156  36.173  10.696
18130W        W90456  32.375  38.459   1.267
18131W        W90457  43.379  22.566  13.512
18132W        W90458  43.065  10.712  10.643
18133W        W90459   3.310   1.055  13.299
18134W        W90460   7.125  37.549   3.649
18135W        W90461  10.578  10.234   4.903
18136W        W90462   4.711  14.792   2.616
18137W        W90463  37.984   9.330  13.304
18138W        W90464  11.525   4.858   3.704
18139W        W90465  38.907  24.704   4.643
18140W        W90466  21.977  12.066   1.518
18141W        W90467   5.331  44.399  10.013
18142W        W90468  24.521  12.108  12.039
18143W        W90469  19.758  33.316   3.718
18144W        W90470  38.421  33.865  13.071
18145W        W90471  33.893  15.111   2.689
18146W        W90472  26.511   9.127   2.183
18147W        W90473  44.033  21.930   3.691
18148W        W90474  26.695  39.052  12.456
18149W        W90475  26.631   1.821  12.843
18150W        W90476  42.156  12.598  11.247
18151W        W90477  38.372  19.569  11.384
18152W        W90478   3.716   7.937  13.565
18153W        W90479   2.664   9.358  12.734
18154W        W90480   4.831  24.051   1.387
18155W        W90481   1.361  32.422   1.069
18156W        W90482  39.277   8.793   3.101
18157W        W90483  32.126  36.371  13.863
18158W        W90484   5.249  18.474  14.469
18159W        W90485  24.669  14.375   3.626
18160W        W90486  16.348  12.785   1.943
18161W        W90487  37.358  24.104   2.648
18162W        W90488  42.820  21.533  14.858
18163W        W90489  33.842   1.537   4.006
18164W        W90490  38.104  14.452   1.684
18165W        W90491  23.870  43.585  14.874
18166W        W90492  12.414   0.061  12.553
18167W        W90493  17.439   0.596   2.695
18168W        W90494  40.495  19.064  13.874
18169W        W90495   1.917  32.895  12.782
18170W        W90496   8.795  14.648   1.669
18171W        W90497  22.509   6.180  13.533
18172W        W90498  38.953  41.847  12.629
18173W        W90499  13.891   3.828  13.003
18174W        W90500  18.972   0.692   4.281
18175W        W90501  33.254   7.231  11.503
18176W        W90502  38.844  32.508  12.331
18177W        W90503  31.397  20.774  14.849
18178W        W90504  10.819  28.605  14.883
18179W        W90505  26.545  23.463   1.401
18180W        W90506  15.567  20.558  11.523
18181W        W90507  17.575   4.925  12.750
18182W        W90508  18.193  42.984   3.769
18183W        W90509  26.147  28.977  14.293
18184W        W90510  38.842  35.389   3.854
18185W        W90511  35.212   5.167  12.630
18186W        W90512  27.009  21.106  11.109
18187W        W90513  10.340  18.002   1.321
18188W        W90514  14.657  21.523  14.374
18189W        W90515  23.726  15.366   0.814
18190W        W90516  23.162  41.876  14.813
18191W        W90517   0.268  42.285  10.550
18192W        W90518   0.905   6.922  14.839
18193W        W90519   8.779   2.324   2.124
18194W        W90520  16.708  21.899  14.394
18195W        W90521  14.647  41.934  11.536
18196W        W90522  11.880  26.455   1.510
18197W        W90523   2.162  11.574  13.873
18198W        W90524  13.261  17.327  12.476
18199W        W90525  35.493  38.945  12.949
18200W        W90526   0.737  19.404   3.675
18201W        W90527   6.456  21.305   0.979
18202W        W90528  31.475  40.912  11.625
18203W        W90529   7.734  29.093  13.916
18204W        W90530  20.113  29.774  11.966
18205W        W90531  16.181  31.441   2.884
18206W        W90532  19.800  41.274   5.040
18207W        W90533  24.134  20.310   1.434
18208W        W90534   9.295   2.776   4.534
18209W        W90535   3.367  39.389   0.200
18210W        W90536  37.409  21.723  12.069
18211W        W90537  27.331  37.531  10.902
18212W        W90538  14.608  43.711   3.794
18213W        W90539  16.056   2.742   1.350
18214W        W90540  24.793  39.855   3.996
18215W        W90541  28.576   4.490  12.512
18216W        W90542  38.912   4.149  11.146
18217W        W90543  18.791  20.643   0.881
18218W        W90544  41.576  21.796  11.131
18219W        W90545   2.812  18.178   2.627
18220W        W90546  39.088  23.098   1.582
18221W        W90547  11.845  21.760   4.808
18222W        W90548  18.762  31.510  14.542
18223W        W90549   1.017  14.845   0.764
18224W        W90550  33.131   9.744  10.461
18225W        W90551  18.514  35.188   5.192
18226W        W90552  12.556  16.101   3.801
18227W        W90553  28.621  18.293  11.110
18228W        W90554   7.576  17.181   3.175
18229W        W90555  34.635   5.295   1.854
18230W        W90556  29.536   1.739  10.729
18231W        W90557   8.117  17.588   0.067
18232W        W90558  16.099  27.661   0.333
18233W        W90559  33.487  34.992  14.915
18234W        W90560  39.921  16.107  12.550
18235W        W90561  31.934  17.742   0.917
18236W        W90562  31.852  10.684   0.933
18237W        W90563  30.427  15.807   2.889
18238W        W90564  44.375  12.307  14.216
18239W        W90565  22.305   5.050   5.009
18240W        W90566   1.833   7.137  10.964
18241W        W90567   5.034  17.981  14.305
18242W        W90568  36.096  16.093   4.196
18243W        W90569   6.779  41.037  13.397
18244W        W90570  26.888  23.483  13.180
18245W        W90571  33.667  43.002   0.649
18246W        W90572  19.634  42.535  10.695
18247W        W90573  25.454  23.259   0.375
18248W        W90574  17.739  28.661  14.526
18249W        W90575   9.357   5.276  14.275
18250W        W90576  32.510  39.888   0.851
18251W        W90577  28.002   1.759   4.624
18252W        W90578  17.142  22.755  11.996
18253W        W90579  40.281  36.342  14.627
18254W        W90580  15.012  14.185  13.968
18255W        W90581  40.313  12.248   1.917
18256W        W90582  38.854  32.989  11.227
18257W        W90583   4.011  22.653   4.960
18258W        W90584  35.729  17.177   4.050
18259W        W90585   8.836  30.739  14.303
18260W        W90586  20.746  31.451   0.237
18261W        W90587  31.344  28.902   2.782
18262W        W90588   9.773  13.372  14.017
18263W        W90589  16.366  19.753  12.432
18264W        W90590  16.514  43.232   3.631
18265W        W90591  40.534  41.069  14.212
18266W        W90592  11.382  10.394  12.698
18267W        W90593   5.385  24.597  11.421
18268W        W90594  19.890  10.232  14.919
18269W        W90595  22.662  12.124   3.252
18270W        W90596  44.675  43.374  12.679
18271W        W90597  17.652   1.992   0.498
18272W        W90598  14.858   2.428  12.494
18273W        W90599  17.390   1.106   2.754
18274W        W90600  26.749  42.759  13.487
18275W        W90601  14.409  42.746  14.566
18276W        W90602   4.056  25.086   1.740
18277W        W90603   4.247  31.473   1.253
18278W        W90604  33.460   9.305   4.690
18279W        W90605  18.308  32.018   1.781
18280W        W90606  36.009  15.336  12.127
18281W        W90607  16.235  19.173  11.096
18282W        W90608  18.198  26.330   3.121
18283W        W90609  15.782   9.113  10.995
18284W        W90610   0.824   7.937   1.847
18285W        W90611  38.934  30.617  12.966
18286W        W90612   8.071  27.931  14.462
18287W        W90613   4.446   9.313   3.561
18288W        W90614  25.457  25.230  13.943
18289W        W90615  27.333  36.329   3.265
18290W        W90616  21.258  19.722  11.502
18291W        W90617   0.358  29.122  11.915
18292W        W90618   9.980  12.172  14.393
18293W        W90619  20.714  42.431   4.821
18294W        W90620  34.657   3.656  11.146
18295W        W90621  20.007  19.981   4.361
18296W        W90622   7.616  28.933  12.601
18297W        W90623  32.046  43.573  14.421
18298W        W90624  31.035  19.166   0.113
18299W        W90625  14.630  17.760   1.427
18300W        W90626  29.468  41.488   4.530
18301W        W90627  17.583   2.478  11.754
18302W        W90628  41.041  42.511  12.427
18303W        W90629   9.930  20.179  10.936
18304W        W90630  43.740  34.016   1.905
18305W        W90631  34.733  38.723   4.068
18306W        W90632  44.783   7.388  13.831
18307W        W90633  29.102  13.427   1.294
18308W        W90634  37.897   7.248   3.611
18309W        W90635  16.877  41.927   1.340
18310W        W90636  34.440  14.342   0.858
18311W        W90637   0.425   6.590  13.907
18312W        W90638  35.040  41.454  13.931
18313W        W90639   6.417  25.560   0.915
18314W        W90640  42.969  30.725  10.118
18315W        W90641  31.031  30.075   0.445
18316W        W90642  40.523  26.128   0.033
18317W        W90643   1.495  44.238   2.400
18318W        W90644  18.867   6.302  14.862
18319W        W90645   3.425  13.060  11.138
18320W        W90646  31.694   6.008  13.387
18321W        W90647  33.601  34.930  10.699
18322W        W90648  20.362  23.576  14.295
18323W        W90649  33.700  23.527  12.193
18324W        W90650  22.011  17.348   0.339
18325W        W90651  31.810  20.783  12.748
18326W        W90652  36.780  11.156   2.109
18327W        W90653  23.871  24.042  14.208
18328W        W90654  40.479  10.208  11.638
18329W        W90655  35.997  32.400   0.377
18330W        W90656  36.123  38.464   4.331
18331W        W90657  42.370   5.470  11.645
18332W        W90658   3.433  28.273  13.945
18333W        W90659  12.075  40.892   4.121
18334W        W90660  11.426  24.253  11.422
18335W        W90661  31.021  36.411  12.716
18336W        W90662   7.314  27.974   3.354
18337W        W90663  17.771   0.744  11.155
18338W        W90664   3.889   0.913  11.340
18339W        W90665   4.388  32.797  14.759
18340W        W90666  33.481   2.511  12.999
18341W        W90667  15.390  22.182   2.465
18342W        W90668  42.421  37.415   2.338
18343W        W90669  40.692  12.210  11.007
18344W        W90670  33.253  38.018   2.831
18345W        W90671  13.156  30.025  12.902
18346W        W90672  40.956  20.196  11.870
18347W        W90673  38.402  37.496   2.761
18348W        W90674  28.700  43.708   1.145
18349W        W90675  15.338  42.977   2.390
18350W        W90676  23.254   2.891   0.820
18351W        W90677  16.114   8.799   2.780
18352W        W90678  32.923   4.942   0.817
18353W        W90679  19.633  42.932  13.886
18354W        W90680   9.408  26.415  12.513
18355W        W90681  37.456  35.914   1.444
18356W        W90682   8.780  36.976   2.834
18357W        W90683   1.679   1.992   0.911
18358W        W90684  44.442  31.578   0.231
18359W        W90685  16.388  33.985  10.715
18360W        W90686  42.906  24.478   1.811
18361W        W90687   1.680  15.245  11.631
18362W        W90688  16.792  33.581   2.443
18363W        W90689  37.876  13.338  13.876
18364W        W90690  29.530  31.397   3.897
18365W        W90691  15.243   3.178  11.303
18366W        W90692  17.200  31.331  14.797
18367W        W90693  14.044  43.059   0.500
18368W        W90694  34.851  17.603   1.430
18369W        W90695  23.254  16.332  13.798
18370W        W90696  15.787  34.523  13.262
18371W        W90697  16.504  24.739   2.338
18372W        W90698  44.263  31.495  11.050
18373W        W90699  13.149   7.213  14.575
18374W        W90700  32.420  31.206  10.742
18375W        W90701  11.906  29.521  14.831
18376W        W90702  25.506  20.554   0.982
18377W        W90703  22.895  14.521  14.329
18378W        W90704  40.976   4.393  14.997
18379W        W90705  30.712  17.532   3.222
18380W        W90706  35.514  44.234   3.166
18381W        W90707  44.934  15.719   2.493
18382W        W90708  17.688  17.085   2.667
18383W        W90709  13.169   1.785   3.132
18384W        W90710  12.719  27.877  11.518
18385W        W90711  21.134  32.126   4.588
18386W        W90712  20.173  10.367  13.937
18387W        W90713  14.132  18.229   2.569
18388W        W90714   2.955  28.252   2.687
18389W        W90715  23.033   5.902   3.290
18390W        W90716   1.799  44.550  11.988
18391W        W90717  30.382  35.482   3.805
18392W        W90718  35.898  32.611   3.711
18393W        W90719  14.415  14.677   2.177
18394W        W90720   9.322  28.459  13.564
18395W        W90721  17.634  26.446   3.330
18396W        W90722  44.297  10.050   1.923
18397W        W90723  18.075   5.266  10.977
18398W        W90724  44.490   6.044  10.098
18399W        W90725  29.180  28.107   3.937
18400W        W90726  34.413   4.856   4.532
18401W        W90727  24.468  38.900   3.821
18402W        W90728  38.954  17.770  13.052
18403W        W90729   2.049  41.761  12.651
18404W        W90730   6.872  42.581  13.495
18405W        W90731  38.043  29.957   2.356
18406W        W90732  29.179  35.235  12.162
18407W        W90733  41.974  33.670   0.321
18408W        W90734  14.735  44.895   1.469
18409W        W90735   6.605  23.891   4.192
18410W        W90736  12.590   9.231   4.605
18411W        W90737  26.093  32.683  11.952
18412W        W90738  14.942  15.201   0.799
18413W        W90739   7.184  33.470  11.708
18414W        W90740   9.295  17.644  13.815
18415W        W90741  42.447  39.361  13.740
18416W        W90742   1.869   2.471   4.613
18417W        W90743  19.852   3.824   4.444
18418W        W90744   7.548  34.427  13.319
18419W        W90745  10.162   1.739   3.872
18420W        W90746  16.328  11.360   1.853
18421W        W90747  15.515  38.519  14.284
18422W        W90748  23.991  32.086   1.797
18423W        W90749  18.545  36.869   2.656
18424W        W90750  42.034  11.739   0.280
18425W        W90751  38.552  40.597   3.937
18426W        W90752  27.471  44.001   3.812
18427W        W90753  21.047  19.725  14.929
18428W        W90754  16.883  28.588  12.195
18429W        W90755  15.656  12.504   3.849
18430W        W90756   0.455   0.067  13.000
18431W        W90757   0.355  11.611   3.141
18432W        W90758  14.057  34.949  14.442
18433W        W90759  43.135  21.441  12.361
18434W        W90760  37.832   5.747  12.163
18435W        W90761   2.385  21.587  13.000
18436W        W90762  27.512  12.116   2.435
18437W        W90763  12.300  27.425   2.918
18438W        W90764  28.479  27.874  12.447
18439W        W90765  30.134  38.391  11.547
18440W        W90766  20.128   0.364   4.725
18441W        W90767  44.586  37.133   2.685
18442W        W90768   8.143  30.144   4.130
18443W        W90769  15.755  35.572  12.759
18444W        W90770  36.394   4.078  14.164
18445W        W90771   1.012  12.724   0.799
18446W        W90772  20.986  20.759  11.469
18447W        W90773  39.481   2.963   3.541
18448W        W90774  31.500  16.272   0.786
18449W        W90775  17.059  35.910   1.170
18450W        W90776   9.042  18.082  12.105
18451W        W90777  34.946  42.890   0.971
18452W        W90778  43.340   7.736  14.216
18453W        W90779  22.813  33.215  13.384
18454W        W90780   3.194  31.495  11.240
18455W        W90781  39.919  25.117  12.279
18456W        W90782  12.923  36.140  11.188
18457W        W90783  32.324  31.983   1.413
18458W        W90784  26.232  12.851   2.779
18459W        W90785  10.144   1.266  11.127
18460W        W90786  22.485  29.880   1.790
18461W        W90787   0.685  35.987   1.433
18462W        W90788   0.831  20.622   2.845
18463W        W90789   2.861   3.463   1.860
18464W        W90790  35.061  40.952   2.322
18465W        W90791   2.030  17.307   0.373
18466W        W90792  15.729  31.825   3.130
18467W        W90793   7.341  14.553   1.710
18468W        W90794  11.625   1.386   4.709
18469W        W90795  22.279  12.532   2.202
18470W        W90796  39.328  26.728   1.470
18471W        W90797  36.915  35.149   3.764
18472W        W90798  38.108  41.282   4.217
18473W        W90799  22.213  21.019  12.023
18474W        W90800  36.116  35.163  11.085
18475W        W90801  26.243  43.731   0.414
18476W        W90802  17.132   5.518   1.336
18477W        W90803   0.411  35.202   4.577
18478W        W90804  44.785  37.214  11.021
18479W        W90805   6.427  42.480  12.356
18480W        W90806  29.953  19.512  10.684
18481W        W90807  29.887  29.008  14.059
18482W        W90808  43.842  20.548  10.761
18483W        W90809  13.273   5.816  13.551
18484W        W90810  18.778  16.234   0.409
18485W        W90811  33.684  27.770  11.206
18486W        W90812  10.843  16.165   1.994
18487W        W90813  21.292  13.772   4.469
18488W        W90814  16.489  20.655  12.845
18489W        W90815  34.540  26.146  12.794
18490W        W90816   4.213  26.650  12.510
18491W        W90817  40.966   5.534  14.906
18492W        W90818  37.536  33.038   2.935
18493W        W90819  11.893  13.572   0.414
18494W        W90820  41.218  13.010   0.334
18495W        W90821  25.083  17.680   1.465
18496W        W90822  32.976  34.838   1.899
18497W        W90823  31.425  11.327   4.739
18498W        W90824  28.121  35.960   0.591
18499W        W90825  41.047  24.891  12.034
18500W        W90826  41.681   8.933  14.974
18501W        W90827  33.998   9.658  13.805
18502W        W90828  24.491  13.838   2.210
18503W        W90829  16.636   1.669   1.386
18504W        W90830   3.356  43.335   2.370
18505W        W90831   4.773  41.982  13.406
18506W        W90832  34.011  40.518   1.054
18507W        W90833  13.579  16.023  12.923
18508W        W90834   2.892  26.133   4.249
18509W        W90835  23.455  13.280  11.027
18510W        W90836   3.707  10.145   0.103
18511W        W90837  42.494  23.941   4.955
18512W        W90838  19.849  30.421  11.628
18513W        W90839  14.102   5.335  10.712
18514W        W90840   6.108   1.385   0.352
18515W        W90841  34.861  32.821  14.349
18516W        W90842  30.664  23.773   0.189
18517W        W90843   0.007  12.932  14.079
18518W        W90844  17.481   0.898   4.183
18519W        W90845   2.545   2.961   3.289
18520W        W90846   0.794   8.145   1.291
18521W        W90847   5.813  31.258  14.063
18522W        W90848  25.442   5.271   3.192
18523W        W90849  11.069  33.080  13.391
18524W        W90850  18.805  25.179  11.648
18525W        W90851  20.909  33.502   4.571
18526W        W90852  36.224  23.536   1.407
18527W        W90853  17.963  22.015   2.914
18528W        W90854  16.324  20.213   2.824
18529W        W90855  25.498  21.394  12.462
18530W        W90856  20.620   9.852   0.518
18531W        W90857  33.614  36.938  11.188
18532W        W90858  24.914  39.430  10.609
18533W        W90859   4.105  40.428  11.580
18534W        W90860  33.397   6.323   4.197
18535W        W90861  27.923  10.353   5.133
18536W        W90862  24.213  32.370   3.728
18537W        W90863   5.670  10.941  13.746
18538W        W90864   8.685  15.100   1.409
18539W        W90865  14.686  12.620   1.006
18540W        W90866  21.186  33.197  14.358
18541W        W90867  23.932  30.622   3.915
18542W        W90868  42.697   3.008   4.166
18543W        W90869   6.680  18.206   2.274
18544W        W90870  27.096  21.619  10.992
18545W        W90871  25.443   2.912   3.881
18546W        W90872  25.728   0.040  11.163
18547W        W90873  27.258  19.093  11.212
18548W        W90874  38.538  41.004  11.179
18549W        W90875  23.166  15.813  11.219
18550W        W90876  19.320  42.257   0.868
18551W        W90877  10.857  34.866  13.868
18552W        W90878   6.709  33.647   3.338
18553W        W90879  44.071  22.720  11.215
18554W        W90880  39.472  24.214   2.108
18555W        W90881  31.382  42.824  11.451
18556W        W90882  26.694   4.956   2.814
18557W        W90883   7.749  23.905   2.243
18558W        W90884  25.681   3.308  11.165
18559W        W90885  18.561  43.774  14.381
18560W        W90886  40.269  12.798   3.656
18561W        W90887  43.564  36.541   3.850
18562W        W90888  12.742   8.387   4.211
18563W        W90889  39.499  32.699   0.719
18564W        W90890  40.736   4.400   1.800
18565W        W90891  19.953  25.091   0.905
18566W        W90892  28.914  15.273  13.882
18567W        W90893  13.051  34.987  10.616
18568W        W90894  37.577  31.428  13.428
18569W        W90895  36.987   8.791   2.606
18570W        W90896  15.110  35.108   0.274
18571W        W90897  36.469   8.269  14.024
18572W        W90898  19.671   6.915   0.877
18573W        W90899  44.180  28.659  11.564
18574W        W90900   8.159  20.219  12.556
18575W        W90901  16.385  26.566   0.870
18576W        W90902  15.158  39.433   1.691
18577W        W90903  11.852   4.431  11.400
18578W        W90904  17.112  24.584  13.037
18579W        W90905  16.486  31.421   3.323
18580W        W90906  19.524  38.530  12.191
18581W        W90907  27.399   0.921  12.127
18582W        W90908  37.095  28.760   1.372
18583W        W90909  19.288  12.652  12.641
18584W        W90910   8.785  19.680   1.667
18585W        W90911   0.829  12.736   4.259
18586W        W90912  44.479  20.055  11.608
18587W        W90913  23.009  41.303  12.127
18588W        W90914  25.046  19.730   3.808
18589W        W90915   5.574   0.965   3.333
18590W        W90916   5.298  26.402   0.371
18591W        W90917   4.519  14.523  14.912
18592W        W90918  15.700  26.477   2.158
18593W        W90919  19.233  16.869   2.414
18594W        W90920  41.834  18.044  13.344
18595W        W90921  22.449  19.951  12.614
18596W        W90922  29.954   2.557  12.951
18597W        W90923  43.535   6.090   3.555
18598W        W90924  13.941  16.575  14.400
18599W        W90925  13.685  38.659   4.616
18600W        W90926  37.535  32.956  13.490
18601W        W90927  28.609  15.932  11.617
18602W        W90928   7.446  23.603  10.792
18603W        W90929   9.101  16.306   1.353
18604W        W90930  43.966  44.046   1.908
18605W        W90931  34.877   3.213   0.885
18606W        W90932  39.765  26.493   4.489
18607W        W90933   4.461   2.934  13.423
18608W        W90934  20.739  11.615   4.078
18609W        W90935  30.571  10.354   4.573
18610W        W90936  12.944  21.293  11.061
18611W        W90937   7.761  34.532  14.222
18612W        W90938  37.113  44.385  10.870
18613W        W90939  16.940  11.714  11.055
18614W        W90940  13.598  13.244   2.393
18615W        W90941   9.534  31.546  12.170
18616W        W90942  32.088  29.408  11.952
18617W        W90943  36.898  40.053   0.869
18618W        W90944  24.515  16.058  14.049
18619W        W90945  32.146  16.284  13.378
18620W        W90946  18.645  15.405   4.629
18621W        W90947  29.025   1.104   3.772
18622W        W90948  10.586  23.206  13.854
18623W        W90949  11.342  27.670  13.747
18624W        W90950  13.192   4.309   1.977
18625W        W90951  19.855   6.407   0.874
18626W        W90952  29.012  24.975  11.137
18627W        W90953   0.817  22.823   2.074
18628W        W90954  18.651  39.306   3.615
18629W        W90955   8.205  26.903  11.969
18630W        W90956  20.766  30.159  12.639
18631W        W90957  31.635  23.981   0.719
18632W        W90958  10.181   0.780   0.802
18633W        W90959   2.579  27.265  11.976
18634W        W90960  10.119  42.299  14.001
18635W        W90961   5.639  37.970  10.937
18636W        W90962   3.082  38.020  14.994
18637W        W90963  17.549  11.362  10.688
18638W        W90964  13.589  15.183   1.259
18639W        W90965   6.344  22.731  14.341
18640W        W90966  44.141   6.649   4.147
18641W        W90967  17.610  35.551   0.404
18642W        W90968  26.439   6.307  11.810
18643W        W90969  41.934  21.933  11.468
18644W        W90970  15.165   3.469   3.872
18645W        W90971   8.786  16.617   1.655
18646W        W90972  25.571  19.392  10.766
18647W        W90973  23.343  20.557  13.412
18648W        W90974   6.181   9.245  11.980
18649W        W90975  33.426  27.470  12.156
18650W        W90976  17.742  30.636   2.675
18651W        W90977  10.239  27.730   3.209
18652W        W90978  26.953  22.265   4.176
18653W        W90979  14.862  13.506  10.739
18654W        W90980   5.705   9.184  10.422
18655W        W90981  12.519  22.213  14.411
18656W        W90982  16.859  16.803  11.504
18657W        W90983  33.684   4.842   1.265
18658W        W90984  28.598  13.321   2.327
18659W        W90985  21.950   4.338   0.313
18660W        W90986   5.160  20.436  14.269
18661W        W90987   3.224  41.704  10.591
18662W        W90988   8.658  39.520   0.364
18663W        W90989  31.887   9.478   3.230
18664W        W90990  30.614  18.634  12.199
18665W        W90991  30.956  34.416  11.041
18666W        W90992  27.175  29.430  13.992
18667W        W90993  25.072  41.465  14.935
18668W        W90994  12.003  33.861   3.356
18669W        W90995  31.612   9.700   3.628
18670W        W90996   0.840   3.851  12.565
18671W        W90997  13.319  44.085  10.771
18672W        W90998   9.965  29.845   5.137
18673W        W90999  39.089  13.482  11.072
18674W        W91000  34.408  29.860   4.215
18675W        W91001  14.516  32.033  10.414
18676W        W91002  37.336  17.632  13.902
18677W        W91003   5.583  21.612  12.455
18678W        W91004   8.956  22.211   4.068
18679W        W91005  20.726  24.039  12.068
18680W        W91006  15.061   8.954  11.202
18681W        W91007  31.056  36.015   3.302
18682W        W91008   0.001   4.782   4.053
18683W        W91009  40.147  26.148  13.144
18684W        W91010  17.734  19.253   0.456
18685W        W91011  31.684  39.954  12.667
18686W        W91012  30.030  22.570  14.333
18687W        W91013  17.338  35.292  11.701
18688W        W91014  41.580  12.584   4.172
18689W        W91015  38.219  10.105   4.311
18690W        W91016   9.232  16.627   2.479
18691W        W91017  29.952  34.635   0.289
18692W        W91018  21.809  11.313   0.618
18693W        W91019  18.577  31.097   2.372
18694W        W91020  38.047  15.565  12.484
18695W        W91021  33.957  31.592   4.906
18696W        W91022  42.331   3.623   1.711
18697W        W91023  40.557  28.581  13.932
18698W        W91024  15.040  29.030  14.766
18699W        W91025  25.122  29.884   4.537
18700W        W91026  40.463  17.680  13.473
18701W        W91027  32.557  21.751  11.504
18702W        W91028   0.669  18.055   1.236
18703W        W91029  35.538  43.282  10.643
18704W        W91030   9.267  26.511   3.606
18705W        W91031  16.955  25.163  14.291
18706W        W91032  15.017   7.297   3.569
18707W        W91033  24.217  28.643   0.220
18708W        W91034  22.541   8.415  13.129
18709W        W91035  37.460  40.998   3.160
18710W        W91036   6.701  40.843   2.149
18711W        W91037  12.575  15.499  11.714
18712W        W91038  20.986  33.324  11.404
18713W        W91039  18.687  11.935   1.725
18714W        W91040  18.536  21.588   3.863
18715W        W91041  23.170   2.767  10.628
18716W        W91042  28.108  25.619  14.883
18717W        W91043  26.394  26.174  12.498
18718W        W91044   0.700  39.426  14.936
18719W        W91045  26.146  34.800   4.532
18720W        W91046   0.600  12.603   2.770
18721W        W91047   7.087  30.021  14.847
18722W        W91048  35.108  32.559   4.187
18723W        W91049  27.129  34.897  10.556
18724W        W91050  19.179  10.254  14.026
18725W        W91051  30.942  20.998  11.188
18726W        W91052  10.705  39.655   1.838
18727W        W91053  10.846  28.892  13.977
18728W        W91054   8.399  25.415   3.748
18729W        W91055  20.532  23.582   3.125
18730W        W91056  25.901  39.543   2.738
18731W        W91057   1.815  12.523  12.326
18732W        W91058  30.367  37.829   2.035
18733W        W91059  22.542  33.978  14.442
18734W        W91060  25.802  17.657   2.574
18735W        W91061  19.508  30.814   2.371
18736W        W91062  41.260  17.698   4.151
18737W        W91063  17.632  37.857  12.161
18738W        W91064  26.021   3.429   4.735
18739W        W91065   3.313  21.522  11.508
18740W        W91066  11.889  38.149  11.711
18741W        W91067  26.883   0.385   2.916
18742W        W91068  43.522  34.905  12.970
18743W        W91069   5.014  28.953   1.387
18744W        W91070   0.392  12.196   0.158
18745W        W91071  38.256  34.670  12.445
18746W        W91072  33.942  43.964   1.376
18747W        W91073  32.386  42.739   1.882
18748W        W91074  42.959  25.268  14.843
18749W        W91075  32.116  10.220   1.954
18750W        W91076  24.184  31.594   5.023
18751W        W91077  33.913  44.246  14.050
18752W        W91078  23.901  26.978   1.556
18753W        W91079  28.564   2.941   0.227
18754W        W91080  28.273   5.132  10.512
18755W        W91081  26.234  39.774  14.120
18756W        W91082  23.915  13.331   3.021
18757W        W91083  19.985  36.159   2.638
18758W        W91084  12.769  41.008  12.081
18759W        W91085   6.477  20.150  13.510
18760W        W91086  32.412  24.546  12.879
18761W        W91087  27.917  16.288  11.208
18762W        W91088   6.768  43.478   0.541
18763W        W91089  25.536  24.290   1.470
18764W        W91090  30.394  40.823   0.942
18765W        W91091  15.095  23.235   4.588
18766W        W91092  28.337  35.506   1.307
18767W        W91093   5.618  20.256  13.926
18768W        W91094   4.453  25.594   2.397
18769W        W91095   9.678  36.809  12.983
18770W        W91096  18.253  36.572  12.677
18771W        W91097  13.759  22.600  13.910
18772W        W91098   3.455   5.954   4.160
18773W        W91099  20.202  17.373  13.130
18774W        W91100  37.554  23.578   4.672
18775W        W91101   5.689  40.777   0.201
18776W        W91102  26.775  22.909  14.860
18777W        W91103  38.801  22.921   0.770
18778W        W91104  11.798  43.490  14.825
18779W        W91105  20.271  33.669  11.037
18780W        W91106  26.581  20.170  10.587
18781W        W91107  18.698   0.741   2.913
18782W        W91108  28.405   3.998   1.448
18783W        W91109  31.601  39.904   1.406
18784W        W91110   2.272  18.061  11.734
18785W        W91111  13.577   7.681  13.978
18786W        W91112  35.897   3.868  11.576
18787W        W91113  20.200   0.852  14.517
18788W        W91114  17.670  32.614  13.116
18789W        W91115   3.779   8.689  11.216
18790W        W91116  19.190   9.154  11.633
18791W        W91117  24.312  21.542  11.077
18792W        W91118  16.145  15.132   4.147
18793W        W91119  28.256   5.346  14.389
18794W        W91120  20.811   5.791  13.856
18795W        W91121  31.495  27.364  12.605
18796W        W91122   3.286  15.844   3.772
18797W        W91123   1.030  35.451  14.776
18798W        W91124  43.568  27.176  12.553
18799W        W91125  37.087  30.234   0.390
18800W        W91126  42.090  28.692  13.045
18801W        W91127  32.108  33.318   4.951
18802W        W91128  31.413  14.568  12.915
18803W        W91129  33.682  34.685   1.863
18804W        W91130   8.817   9.900  11.982
18805W        W91131  10.780  21.483  12.988
18806W        W91132  39.978  21.769  13.167
18807W        W91133  19.577  26.392   3.932
18808W        W91134  38.065   6.994  12.985
18809W        W91135  29.591  18.783  11.081
18810W        W91136  10.043  38.597  13.833
18811W        W91137  15.131   1.209   4.119
18812W        W91138  21.162  27.999   0.322
18813W        W91139  26.806  27.695  13.706
18814W        W91140  30.679  40.928   1.415
18815W        W91141  35.637  29.032   3.106
18816W        W91142   8.742  10.841   4.647
18817W        W91143   1.472  11.655   2.550
18818W        W91144  12.889  12.577   0.209
18819W        W91145  22.301  33.389  11.896
18820W        W91146  19.349   1.068  13.497
18821W        W91147  14.646  35.212  10.156
18822W        W91148  17.447   7.099   3.319
18823W        W91149   4.631  14.319  10.545
18824W        W91150  16.048   3.823   0.784
18825W        W91151  36.890   9.894   2.722
18826W        W91152  12.844  16.197  10.737
18827W        W91153  14.093  16.578   4.618
18828W        W91154  15.751   3.796  13.905
18829W        W91155  15.356  19.744   0.241
18830W        W91156   6.519   3.720  14.827
18831W        W91157  21.799  11.702   0.959
18832W        W91158  20.947   8.246   0.740
18833W        W91159   5.712   5.135   3.258
18834W        W91160   0.371  35.519  11.614
18835W        W91161  23.238   5.729  11.115
18836W        W91162  24.673  35.685   3.784
18837W        W91163  21.162  40.890  11.630
18838W        W91164  26.722  37.790  11.910
18839W        W91165  29.514  27.222  14.271
18840W        W91166  16.129  27.663   3.922
18841W        W91167   7.431  30.284  11.835
18842W        W91168  18.090  20.140  11.657
18843W        W91169  26.422   6.857  14.166
18844W        W91170  12.822  20.789   4.211
18845W        W91171   5.663  19.586   2.873
18846W        W91172  38.773  31.501  10.181
18847W        W91173  31.592  16.708   3.554
18848W        W91174  23.563   8.170  13.138
18849W        W91175  25.709  17.949  14.701
18850W        W91176  32.418   8.191   1.963
18851W        W91177  42.453  44.506  12.072
18852W        W91178  32.191  39.850  14.437
18853W        W91179  26.243  44.167  12.356
18854W        W91180  24.550  33.514   2.234
18855W        W91181  19.333  37.875  12.992
18856W        W91182   2.609  30.756   1.686
18857W        W91183  40.970  23.876   0.270
18858W        W91184   7.783   5.874   2.712
18859W        W91185  34.645  17.196   1.050
18860W        W91186  20.682  32.441  13.342
18861W        W91187   8.817  24.945  13.538
18862W        W91188  14.969  34.846   4.940
18863W        W91189  17.582  36.016   1.328
18864W        W91190  10.259  43.447   2.403
18865W        W91191   5.423   8.604   1.743
18866W        W91192  37.614  10.291   0.831
18867W        W91193   6.985  38.152   4.109
18868W        W91194  12.581  18.517  13.543
18869W        W91195   2.687  25.637   0.486
18870W        W91196  12.233   6.233   2.338
18871W        W91197  12.885  13.805   2.381
18872W        W91198  25.015  23.305  11.003
18873W        W91199  17.780  23.108  13.109
18874W        W91200  38.670  33.008   1.393
18875W        W91201  26.969  36.109  14.390
18876W        W91202  24.684  29.704   2.885
18877W        W91203  43.817  28.474   4.513
18878W        W91204  23.242  39.190   5.043
18879W        W91205  40.373  30.825   1.138
18880W        W91206  27.053   2.672  10.894
18881W        W91207  17.822  28.457   4.696
18882W        W91208  23.653  28.735   3.248
18883W        W91209   2.702  43.406   0.668
18884W        W91210  41.378   0.226   2.647
18885W        W91211  33.631  13.371  11.708
18886W        W91212  13.765  26.694  11.997
18887W        W91213  33.926  31.348  12.411
18888W        W91214   5.858  44.609  13.651
18889W        W91215   0.794  26.204  12.682
18890W        W91216   6.827  28.321   2.111
18891W        W91217  33.108  15.043  10.979
18892W        W91218  44.643  15.292  13.900
18893W        W91219  27.802  31.132   2.409
18894W        W91220  14.864   3.525  11.177
18895W        W91221   0.840  11.194   0.657
18896W        W91222  41.562   0.845   3.120
18897W        W91223  24.562  13.952  10.967
18898W        W91224  31.995  40.996  12.529
18899W        W91225  23.689  13.501  12.410
18900W        W91226  43.770  32.558  12.855
18901W        W91227  39.063  36.075   2.746
18902W        W91228  11.256  30.896  11.023
18903W        W91229  42.523  11.318   0.944
18904W        W91230  20.184  20.201   2.376
18905W        W91231   6.735  36.152   3.793
18906W        W91232  28.905   2.292  11.993
18907W        W91233  40.040   7.757  13.410
18908W        W91234  26.034  36.562  14.655
18909W        W91235  42.377   9.369  11.485
18910W        W91236  43.496  14.604   3.061
18911W        W91237  14.241   1.364   2.335
18912W        W91238  33.005  30.628  12.950
18913W        W91239  32.337  25.037  13.080
18914W        W91240  35.497  23.230   4.721
18915W        W91241  14.785  17.513   1.932
18916W        W91242  43.408   5.371  11.637
18917W        W91243  44.197   8.627   1.537
18918W        W91244   3.270  29.520  14.798
18919W        W91245  16.800  19.057   1.679
18920W        W91246   6.289  34.514   2.387
18921W        W91247  21.432  19.930   2.784
18922W        W91248   6.209  30.313   3.904
18923W        W91249   9.977  10.673   4.693
18924W        W91250   9.845  31.012   1.615
18925W        W91251  31.336   9.849   4.599
18926W        W91252  44.331  30.718   1.775
18927W        W91253  24.089  28.428   1.522
18928W        W91254  33.940  33.010  10.673
18929W        W91255  14.921   1.711   0.928
18930W        W91256  36.464  18.521  13.457
18931W        W91257  36.015  36.667   3.131
18932W        W91258  40.228   1.728  14.921
18933W        W91259  26.145  16.186  10.950
18934W        W91260   6.097  28.419   0.898
18935W        W91261   4.937   7.189   1.755
18936W        W91262  24.562  25.278  13.926
18937W        W91263  14.526   2.330   3.256
18938W        W91264  17.787  12.839   0.578
18939W        W91265  13.909  41.910   3.925
18940W        W91266  32.687  15.098   3.177
18941W        W91267  24.891  36.491   0.860
18942W        W91268   4.460  23.245  10.693
18943W        W91269  35.805   0.723  11.646
18944W        W91270   5.692  14.120  11.501
18945W        W91271  14.866  41.006   3.323
18946W        W91272   2.682  37.400   1.016
18947W        W91273  31.142  33.800   2.496
18948W        W91274   0.876  24.993  12.360
18949W        W91275  36.952   0.412  13.967
18950W        W91276  42.720   1.970   1.154
18951W        W91277  35.616  26.782  14.804
18952W        W91278  33.850  35.505  12.824
18953W        W91279  36.506  35.742  12.453
18954W        W91280  20.485  27.451   3.671
18955W        W91281  38.409  17.307  13.557
18956W        W91282  36.987   4.808  10.695
18957W        W91283  34.128  23.317  14.484
18958W        W91284  31.569   1.480  13.089
18959W        W91285  27.226  14.368   4.396
18960W        W91286  23.688  19.848   0.806
18961W        W91287  18.561  16.266  11.742
18962W        W91288  37.822  37.386  11.781
18963W        W91289   0.226   5.921  14.502
18964W        W91290  27.932   2.855  13.843
18965W        W91291  34.469  25.446   3.341
18966W        W91292  31.990  11.220   4.309
18967W        W91293  32.597  11.328  12.437
18968W        W91294  17.092  11.231  12.620
18969W        W91295  24.524  24.910   2.784
18970W        W91296  32.114  32.971   2.454
18971W        W91297  26.556  37.573  11.471
18972W        W91298  27.083  10.613  13.916
18973W        W91299   1.194  14.582  10.752
18974W        W91300  39.517  13.758   1.530
18975W        W91301  33.057   6.046   1.180
18976W        W91302  31.577  38.758  14.255
18977W        W91303  13.818  41.839  12.898
18978W        W91304  18.074  33.935   2.311
18979W        W91305  23.339   1.275   3.109
18980W        W91306  26.692  24.708  11.854
18981W        W91307  12.256  10.601  14.504
18982W        W91308  33.743  28.944  13.393
18983W        W91309  26.557  12.164   3.338
18984W        W91310  33.099  38.467   3.773
18985W        W91311  37.530  25.119   0.075
18986W        W91312  16.564   5.874   0.899
18987W        W91313  21.166   8.223   1.648
18988W        W91314  18.745   1.651   1.930
18989W        W91315  20.526   5.823   0.667
18990W        W91316   2.384  23.031   0.750
18991W        W91317  44.219  37.049  11.815
18992W        W91318  39.002  36.836  13.521
18993W        W91319  23.464  42.932  14.421
18994W        W91320  30.669  30.629   4.651
18995W        W91321  41.869  37.965   4.043
18996W        W91322   4.720  25.247   3.178
18997W        W91323  20.173  28.622  14.220
18998W        W91324   6.599  17.942  13.377
18999W        W91325   5.775  37.530  14.074
19000W        W91326  41.524  38.483   3.381
19001W        W91327  31.341  25.949  13.219
19002W        W91328  29.856  28.083  10.274
19003W        W91329  24.699  39.440   4.414
19004W        W91330  41.915  17.191  10.537
19005W        W91331  13.374   2.067  11.870
19006W        W91332  27.604  41.276  11.517
19007W        W91333  13.040  38.441  14.267
19008W        W91334  15.980  16.776   1.275
19009W        W91335  26.729  15.325  13.570
19010W        W91336  17.786   3.025  11.380
19011W        W91337  37.237   1.747  12.921
19012W        W91338  16.984  35.657  11.618
19013W        W91339  34.520  44.309   4.116
19014W        W91340  14.611  11.213  12.215
19015W        W91341  17.327  34.670   0.196
19016W        W91342   5.643  19.136  13.004
19017W        W91343  15.572  38.014  11.917
19018W        W91344  12.853  11.348   1.344
19019W        W91345   0.228  36.981   1.499
19020W        W91346   6.368  35.661   1.674
19021W        W91347  16.758  35.186  11.503
19022W        W91348   2.840   4.254   2.337
19023W        W91349  40.324  10.247   0.474
19024W        W91350  38.330   0.757   3.293
19025W        W91351  17.284   2.017  10.222
19026W        W91352  23.682  25.446   3.789
19027W        W91353  36.326   1.383   4.807
19028W        W91354  43.037  26.965   0.009
19029W        W91355  41.863  22.954  10.547
19030W        W91356   7.547  41.591  12.837
19031W        W91357   7.774  15.747   0.327
19032W        W91358   4.857   7.609   2.381
19033W        W91359  40.925  14.296  13.237
19034W        W91360  26.081  10.776   3.594
19035W        W91361  17.039   2.395   1.219
19036W        W91362  12.764   7.475  14.284
19037W        W91363  18.826  16.303  12.198
19038W        W91364  18.250  12.543   0.299
19039W        W91365  40.983  24.974   1.943
19040W        W91366  39.543   6.694   2.672
19041W        W91367  40.745  33.989   1.696
19042W        W91368   4.488  39.360   0.443
19043W        W91369  14.322  43.734  13.313
19044W        W91370   0.827  18.500   3.918
19045W        W91371  19.585   8.288  11.051
19046W        W91372  37.877  19.984   4.919
19047W        W91373  42.551  36.318   1.344
19048W        W91374   6.889  39.743   3.152
19049W        W91375   0.693  29.982   2.844
19050W        W91376  32.527  18.755  11.811
19051W        W91377  25.258   8.172  10.757
19052W        W91378   8.866   7.515  12.909
19053W        W91379  38.428  11.845  14.971
19054W        W91380   5.017  29.047  11.040
19055W        W91381   2.325   1.468   3.383
19056W        W91382  14.749   8.141   2.363
19057W        W91383  14.858   1.742  12.045
19058W        W91384  41.374  15.892  10.526
19059W        W91385  41.739  23.207   3.693
19060W        W91386   7.650  32.864   3.808
19061W        W91387  41.589  15.980   4.546
19062W        W91388  23.048  22.185  12.152
19063W        W91389  17.061  34.507  10.722
19064W        W91390  22.307  34.420  10.650
19065W        W91391  19.146  29.983   3.162
19066W        W91392  21.181   0.878   3.634
19067W        W91393  19.391  31.375  12.820
19068W        W91394  11.793  25.119   5.483
19069W        W91395  23.016  24.404  13.422
19070W        W91396  14.954  35.617  10.309
19071W        W91397  22.088  41.770  11.930
19072W        W91398  25.745  32.558  12.759
19073W        W91399  27.951   4.333   0.821
19074W        W91400  18.331  44.498  11.205
19075W        W91401  25.971   4.831  10.048
19076W        W91402  28.512   5.723  12.845
19077W        W91403  10.338  23.581  12.419
19078W        W91404  35.139  20.551  14.411
19079W        W91405   8.213  42.805  12.181
19080W        W91406  34.459   0.411   1.154
19081W        W91407  17.692  22.765   3.591
19082W        W91408  16.109  13.712  14.294
19083W        W91409  26.418  19.061   2.866
19084W        W91410  32.570  17.841  14.882
19085W        W91411  29.557   7.218   2.919
19086W        W91412   2.082   8.955  12.044
19087W        W91413   1.063  43.007  11.650
19088W        W91414  44.736   9.881  11.614
19089W        W91415  24.722   6.423   3.241
19090W        W91416   8.789  42.750   2.071
19091W        W91417  43.187  19.063   2.692
19092W        W91418  34.334  20.250  13.425
19093W        W91419   3.273  26.920  11.544
19094W        W91420  17.052  41.492  11.782
19095W        W91421  11.464  32.024  10.482
19096W        W91422  28.650   8.914  12.599
19097W        W91423  43.894  40.347  14.003
19098W        W91424  10.233  14.190   0.207
19099W        W91425  37.356  24.566  11.869
19100W        W91426  15.373  28.674  14.999
19101W        W91427  18.007  43.515  11.344
19102W        W91428  28.849  20.059   4.229
19103W        W91429  12.103  17.146   0.332
19104W        W91430   7.187  38.621  13.301
19105W        W91431   8.628  27.584  13.833
19106W        W91432  44.221  27.458  14.147
19107W        W91433  38.723  16.370   0.986
19108W        W91434  13.145   4.354   1.458
19109W        W91435  21.197  19.572  12.020
19110W        W91436   4.177   5.783  13.549
19111W        W91437  16.723   8.464   0.454
19112W        W91438   2.309   0.313  10.658
19113W        W91439   2.397  44.299   1.907
19114W        W91440  28.877  13.882   1.349
19115W        W91441  38.614  14.591   2.414
19116W        W91442   8.553  21.809   0.255
19117W        W91443  37.888  10.361  13.314
19118W        W91444  32.502   8.879   4.111
19119W        W91445  29.108  10.825  14.115
19120W        W91446  28.504  11.648   2.211
19121W        W91447  25.399  23.084   1.927
19122W        W91448  34.432  15.829  12.993
19123W        W91449  15.176   5.921  11.012
19124W        W91450  15.823  10.274  12.842
19125W        W91451  10.072  29.974  14.851
19126W        W91452  17.964  21.198  14.364
19127W        W91453  15.700  15.175  10.637
19128W        W91454   6.935  42.307   0.651
19129W        W91455  13.628  43.051  13.872
19130W        W91456  35.004   8.276  12.216
19131W        W91457  13.284  32.824  14.276
19132W        W91458  32.885  44.400  12.476
19133W        W91459  10.345  26.622  12.044
19134W        W91460   8.146   4.755  11.069
19135W        W91461  28.652  12.292  14.244
19136W        W91462  29.870  29.093  13.111
19137W        W91463  26.067  17.610   5.330
19138W        W91464   7.696  31.694  11.083
19139W        W91465  42.558  27.757  11.611
19140W        W91466  18.843  41.626   4.963
19141W        W91467   9.206  38.274   0.279
19142W        W91468  33.220  38.906   4.160
19143W        W91469  31.627  25.291   4.180
19144W        W91470  11.161   6.918  10.651
19145W        W91471   8.387  33.714   1.771
19146W        W91472  28.934  19.100   0.837
19147W        W91473  13.612   0.893   5.102
19148W        W91474  13.682  23.212  13.021
19149W        W91475  42.051  29.066   4.595
19150W        W91476   9.999  42.863   0.521
19151W        W91477   0.847  41.711   0.962
19152W        W91478  30.023  11.838  10.630
19153W        W91479   3.443   0.985  11.587
19154W        W91480   8.371  37.321  11.511
19155W        W91481  35.619   8.395  11.573
19156W        W91482  27.642  13.625   2.715
19157W        W91483  15.532  35.890  12.442
19158W        W91484  16.755   5.247  12.514
19159W        W91485  23.107   8.132  14.948
19160W        W91486  19.023  20.132  12.595
19161W        W91487  18.706  34.369   1.930
19162W        W91488  19.643  10.197   0.373
19163W        W91489   1.688   0.814  13.106
19164W        W91490  36.888  37.527   3.666
19165W        W91491  32.499  38.168   1.901
19166W        W91492  18.070  21.430   3.691
19167W        W91493   2.454  32.403   0.288
19168W        W91494  37.534  25.811   3.210
19169W        W91495   1.965   9.941   9.874
19170W        W91496  19.339   1.738   3.626
19171W        W91497  27.244   3.382   2.903
19172W        W91498  24.991  14.240  14.334
19173W        W91499   8.012  43.762  10.747
19174W        W91500   7.726   2.477   3.626
19175W        W91501  26.720  32.375  12.923
19176W        W91502   1.180  24.273   3.112
19177W        W91503  12.081  20.806  14.342
19178W        W91504  14.666   3.516   4.087
19179W        W91505  14.201  13.140   4.588
19180W        W91506  21.404  28.712   1.665
19181W        W91507  43.894  14.346  10.941
19182W        W91508  19.285  27.504  12.881
19183W        W91509  33.050  30.376  10.842
19184W        W91510  24.201  42.939   3.514
19185W        W91511   9.791  40.257   4.836
19186W        W91512   3.227  20.464  11.976
19187W        W91513  13.249  43.298   3.466
19188W        W91514  11.164  35.911   2.220
19189W        W91515  35.132  44.572  13.075
19190W        W91516   1.433  40.013  11.129
19191W        W91517  30.161  20.122  13.920
19192W        W91518  15.074  11.086  12.009
19193W        W91519  16.851  44.693   3.642
19194W        W91520  13.115   3.428  14.530
19195W        W91521  38.524   8.406  12.964
19196W        W91522   8.933  24.721   0.987
19197W        W91523  13.276  37.652   4.307
19198W        W91524  40.546  19.225  14.960
19199W        W91525  38.843  20.581   1.402
19200W        W91526  12.171  26.937  10.187
19201W        W91527  22.046  14.358  12.965
19202W        W91528   2.667  21.315  12.679
19203W        W91529   0.299  36.511  14.704
19204W        W91530  12.190  18.412   1.368
19205W        W91531   1.366  11.845  14.053
19206W        W91532  13.593  28.894  12.960
19207W        W91533   6.461  35.324  12.943
19208W        W91534   8.637  11.914   3.302
19209W        W91535  18.626  12.443  10.585
19210W        W91536  22.643  38.031  10.216
19211W        W91537  12.198  19.620  14.062
19212W        W91538  42.337  12.085   4.275
19213W        W91539  30.013   9.994  11.663
19214W        W91540   1.966  34.429   2.693
19215W        W91541  42.035   8.223  11.961
19216W        W91542   8.801  27.146   1.815
19217W        W91543  34.326  37.651  12.419
19218W        W91544  35.852  21.987  13.470
19219W        W91545   8.767  42.184   0.918
19220W        W91546   2.324  11.638   1.910
19221W        W91547  43.546  23.098   2.693
19222W        W91548  12.176  29.457   2.921
19223W        W91549  25.807  34.698  10.215
19224W        W91550  25.991  29.653   1.391
19225W        W91551  41.048  37.932  12.141
19226W        W91552  43.345   2.675  12.728
19227W        W91553  19.111  15.582   0.742
19228W        W91554  10.542  41.357  12.908
19229W        W91555  38.889  35.908   3.778
19230W        W91556  10.892  20.678   2.808
19231W        W91557  30.049  34.054   4.219
19232W        W91558  18.533  28.162   5.073
19233W        W91559  32.631  31.654   3.706
19234W        W91560   9.845  38.709  14.301
19235W        W91561  12.068   3.295   0.170
19236W        W91562   6.309   0.293   3.868
19237W        W91563   3.837  14.238   0.994
19238W        W91564   7.123  16.081  13.299
19239W        W91565  24.984  10.584  14.771
19240W        W91566  38.335  13.180  11.440
19241W        W91567   8.678  29.501  13.991
19242W        W91568  13.296  33.566  12.919
19243W        W91569  43.946  30.466   0.158
19244W        W91570  21.364  17.061   5.123
19245W        W91571  12.738  27.331   0.586
19246W        W91572  22.343  31.622  10.700
19247W        W91573  34.531  36.242   4.218
19248W        W91574  12.726  23.717   4.569
19249W        W91575   8.767   7.282  14.473
19250W        W91576  16.829  42.902  14.284
19251W        W91577  31.598  21.242  12.842
19252W        W91578  37.285  33.381  12.502
19253W        W91579  44.669  26.465  14.487
19254W        W91580  36.680  31.742  13.828
19255W        W91581  31.383   1.742   1.891
19256W        W91582  32.518  42.377   1.529
19257W        W91583  29.596  38.586  14.512
19258W        W91584   5.031  34.104  12.308
19259W        W91585  38.458  44.577   3.683
19260W        W91586   4.666  10.165   0.073
19261W        W91587  44.915  16.251   3.771
19262W        W91588   6.932  26.910  12.407
19263W        W91589   4.420  15.205  10.977
19264W        W91590  42.243   8.215  13.301
19265W        W91591   6.449   8.955  14.898
19266W        W91592   8.215  15.388  14.402
19267W        W91593  34.605  14.802  13.821
19268W        W91594  14.354  27.075  13.346
19269W        W91595  13.308  35.828  12.975
19270W        W91596  20.545  15.077   0.470
19271W        W91597  18.543  29.002   0.763
19272W        W91598  32.952  35.167   4.342
19273W        W91599  16.732   6.938  11.842
19274W        W91600  37.000  37.798  14.975
19275W        W91601  24.997  36.521  11.150
19276W        W91602   9.671   1.386  10.894
19277W        W91603   5.850   5.652   3.192
19278W        W91604  15.730  44.049  10.526
19279W        W91605  43.477  28.490   2.440
19280W        W91606  35.848  23.561  12.933
19281W        W91607  18.105   8.897   0.738
19282W        W91608  38.377  26.735   2.777
19283W        W91609  43.512  10.889   3.284
19284W        W91610   4.621  18.005   2.626
19285W        W91611  31.605  27.527   1.700
19286W        W91612   7.424  36.537  12.454
19287W        W91613  42.244  10.234  10.923
19288W        W91614  19.009  27.125   1.473
19289W        W91615   7.115  19.788  11.999
19290W        W91616  16.045  26.417  12.585
19291W        W91617  20.918   1.020  11.379
19292W        W91618   4.897   1.827   0.560
19293W        W91619   3.856  18.777   2.312
19294W        W91620  24.550   0.406  11.845
19295W        W91621  27.444  31.153   3.266
19296W        W91622  14.288   9.392   1.166
19297W        W91623  18.566  33.528  13.002
19298W        W91624  42.420  33.653  14.566
19299W        W91625  34.430  26.222   2.825
19300W        W91626  42.551  25.697  13.443
19301W        W91627   9.757   8.147   2.725
19302W        W91628  41.937  36.313   0.516
19303W        W91629   4.415  26.200  14.810
19304W        W91630  44.896   0.538   3.695
19305W        W91631  22.170   2.408   3.706
19306W        W91632  10.799  34.215   3.437
19307W        W91633  27.114   2.314  12.647
19308W        W91634  12.217  30.679  11.613
19309W        W91635  12.505  14.704  13.467
19310W        W91636  14.365  27.071   5.554
19311W        W91637  31.096  11.902  11.746
19312W        W91638  24.056   4.925  11.008
19313W        W91639   5.369   0.909   2.838
19314W        W91640  26.321  17.064  11.051
19315W        W91641  39.808   7.372  11.491
19316W        W91642   0.537  44.417  14.974
19317W        W91643  35.751  42.468  11.488
19318W        W91644  28.439  31.828   5.054
19319W        W91645  43.766   7.709   1.708
19320W        W91646  16.121   7.374  13.415
19321W        W91647  18.080  38.849  11.193
19322W        W91648  20.967   7.260   2.123
19323W        W91649  20.249  40.671  11.691
19324W        W91650   8.746  43.966   3.141
19325W        W91651  13.096   4.938  14.702
19326W        W91652  21.555   9.534  11.948
19327W        W91653  20.499   7.320  12.988
19328W        W91654  38.868  21.840   4.150
19329W        W91655  38.529  24.054  11.600
19330W        W91656   8.632  17.638  14.849
19331W        W91657  25.504   1.425  14.499
19332W        W91658  27.397   7.971   1.376
19333W        W91659   2.099  28.501   4.850
19334W        W91660  39.263  13.829   1.072
19335W        W91661   4.010  32.462   1.365
19336W        W91662   7.963  34.599  11.889
19337W        W91663   3.356  16.127   4.222
19338W        W91664  36.037  23.256   2.755
19339W        W91665  39.974   6.023  11.003
19340W        W91666   9.641   4.864  12.169
19341W        W91667  38.820  13.227   3.158
19342W        W91668  15.311  38.908  14.785
19343W        W91669  29.070   0.041   1.432
19344W        W91670   3.024  24.247   2.764
19345W        W91671  33.551  40.415  10.705
19346W        W91672  25.063   5.804  10.409
19347W        W91673  27.624  35.979   3.665
19348W        W91674  31.529  31.115   1.722
19349W        W91675  14.796  39.824   2.803
19350W        W91676  26.027  35.638  14.375
19351W        W91677   5.025  44.074  12.115
19352W        W91678  26.197  31.313  11.135
19353W        W91679  20.026   2.506  13.070
19354W        W91680   5.912  34.130  14.829
19355W        W91681  32.633   5.906  10.605
19356W        W91682   1.002   7.458  12.539
19357W        W91683   7.658   4.123  11.164
19358W        W91684  12.093  15.255  11.844
19359W        W91685  34.123  30.684   4.075
19360W        W91686   9.000   2.639   5.093
19361W        W91687  14.255  29.320   2.186
19362W        W91688  13.956  37.647   2.250
19363W        W91689  38.415  41.530  14.482
19364W        W91690  15.579  14.535  13.456
19365W        W91691  44.461  20.615   9.677
19366W        W91692  43.895  26.433  13.948
19367W        W91693  42.512   3.406   2.164
19368W        W91694  18.047  11.247  12.439
19369W        W91695  10.664  29.917   0.934
19370W        W91696  12.247  33.344   2.582
19371W        W91697  23.882  25.313  11.057
19372W        W91698  30.836  32.143  11.067
19373W        W91699   0.603  37.285  11.028
19374W        W91700  43.057  16.200   4.516
19375W        W91701  26.009  35.379   3.678
19376W        W91702  14.079  42.683   1.346
19377W        W91703  42.242  15.643  14.760
19378W        W91704  33.483  30.446  11.132
19379W        W91705   2.163  32.156  11.645
19380W        W91706  30.154  36.785   4.753
19381W        W91707  29.398   8.905   3.217
19382W        W91708  18.963  39.823  14.941
19383W        W91709  17.637  44.286  14.405
19384W        W91710   8.387   5.260   4.674
19385W        W91711  32.656  33.309   1.743
19386W        W91712  24.972  18.942   2.855
19387W        W91713  35.157   4.370   1.851
19388W        W91714  43.896  40.571  14.474
19389W        W91715   1.114  44.686  11.635
19390W        W91716  35.344   0.770   3.923
19391W        W91717  39.783  19.080  12.648
19392W        W91718  25.858  31.885   3.366
19393W        W91719  17.646  30.905   1.331
19394W        W91720  40.461  27.227   0.243
19395W        W91721  30.653   0.485  13.954
19396W        W91722  34.079   4.249  12.838
19397W        W91723  27.931  19.188   1.117
19398W        W91724  32.174  32.984  12.037
19399W        W91725  21.075  14.895  13.870
19400W        W91726  32.147  23.220  11.226
19401W        W91727  36.808  19.473   3.198
19402W        W91728  14.178  17.385  12.592
19403W        W91729  20.501  36.101  12.991
19404W        W91730  26.348  24.700  13.110
19405W        W91731  26.512  25.240  10.408
19406W        W91732  10.780   3.780  12.016
19407W        W91733   8.272  18.407   4.801
19408W        W91734  37.916  11.444  13.340
19409W        W91735  10.248   2.447  11.643
19410W        W91736  23.628  40.901   1.755
19411W        W91737  27.266  22.111  14.344
19412W        W91738  31.309  27.695  11.063
19413W        W91739  17.131  11.741  12.461
19414W        W91740  34.291  24.738  14.300
19415W        W91741  27.182  30.176  12.339
19416W        W91742  28.422  25.634   4.158
19417W        W91743  42.468   1.341   2.832
19418W        W91744  38.310   8.814   3.209
19419W        W91745   4.004  38.796   4.319
19420W        W91746  16.354  42.289   2.806
19421W        W91747  12.531  19.212  12.075
19422W        W91748  26.950  33.986   0.434
19423W        W91749  32.894   5.400  11.954
19424W        W91750  20.973   5.879  11.146
19425W        W91751   1.295  23.087  12.319
19426W        W91752   4.202   7.413  12.378
19427W        W91753   9.776  30.210  14.377
19428W        W91754  18.535  41.421   1.817
19429W        W91755  29.336  25.061  10.750
19430W        W91756   3.884  31.684   3.976
19431W        W91757  41.802  13.496  14.822
19432W        W91758  29.889  24.198  11.065
19433W        W91759  12.716  41.901   4.592
19434W        W91760   1.857  19.547   4.005
19435W        W91761  41.746   7.891   1.893
19436W        W91762  28.080  11.134   1.793
19437W        W91763  41.513   3.247   4.855
19438W        W91764  24.492  15.319  12.521
19439W        W91765  40.974  18.638  12.571
19440W        W91766  28.156  10.914   1.323
19441W        W91767  31.971  22.289  14.457
19442W        W91768  31.712  42.876   4.030
19443W        W91769   8.760   2.361  11.031
19444W        W91770  34.436  15.417  10.833
19445W        W91771  13.869  10.844  13.373
19446W        W91772   8.612  28.073  12.501
19447W        W91773  39.172  26.718  10.268
19448W        W91774   7.619  25.044   0.222
19449W        W91775  15.127  23.041   1.316
19450W        W91776  27.611   7.137   2.018
19451W        W91777  23.039  14.573   2.320
19452W        W91778   7.653  34.412   2.677
19453W        W91779  23.661   3.344   1.812
19454W        W91780  15.602  30.196   1.241
19455W        W91781  15.395  13.105  11.661
19456W        W91782  13.832  29.094  14.536
19457W        W91783  11.415   6.900   3.163
19458W        W91784  15.072  17.164  14.861
19459W        W91785  40.120  28.558   1.810
19460W        W91786  40.539  33.696  13.474
19461W        W91787  41.764  18.666   0.417
19462W        W91788  34.498  21.419  14.028
19463W        W91789  37.036   9.955   9.768
19464W        W91790  40.134  41.559  11.957
19465W        W91791  43.286  23.826  13.555
19466W        W91792  38.897   8.185   4.564
19467W        W91793  34.417   7.514   0.533
19468W        W91794   2.761  39.787  10.685
19469W        W91795  25.034  39.973  11.309
19470W        W91796  24.898  12.260  11.072
19471W        W91797  24.672  21.191  10.892
19472W        W91798  28.347  17.161   0.222
19473W        W91799   3.987  42.355  13.325
19474W        W91800  40.531   7.570   3.332
19475W        W91801  23.484  27.201  12.548
19476W        W91802  16.830  40.018  13.688
19477W        W91803  39.838  41.374   3.208
19478W        W91804  25.010   1.724   1.224
19479W        W91805  12.290  26.421  10.194
19480W        W91806   2.458  43.098  14.472
19481W        W91807  19.736  28.564   1.006
19482W        W91808  30.179   7.866  12.650
19483W        W91809  19.538  30.904   0.813
19484W        W91810  28.551  29.656  13.081
19485W        W91811   1.987  13.202   4.792
19486W        W91812  12.353  27.597   1.829
19487W        W91813  42.773  30.625  12.895
19488W        W91814  43.047   4.708   3.893
19489W        W91815  35.004   1.752  11.563
19490W        W91816  35.993  26.035  12.966
19491W        W91817  36.433  15.516  12.390
19492W        W91818  33.981  39.280   4.881
19493W        W91819   0.781   6.379   1.683
19494W        W91820  42.357  33.979  11.137
19495W        W91821  37.456   8.578   0.901
19496W        W91822  12.855  15.269   0.783
19497W        W91823  24.395   6.290  11.182
19498W        W91824  18.700  13.433   2.033
19499W        W91825   7.397   9.310   1.454
19500W        W91826  20.003   8.418  12.805
19501W        W91827  21.998  30.011   1.662
19502W        W91828  34.543  37.969   1.282
19503W        W91829  36.004  20.578   2.265
19504W        W91830  21.985  20.643  14.982
19505W        W91831  41.135   1.342   3.278
19506W        W91832  10.409  14.518   3.414
19507W        W91833  32.269   8.801   9.828
19508W        W91834   7.381  13.440   2.139
19509W        W91835  29.577  10.578  14.000
19510W        W91836   1.891  40.297   1.423
19511W        W91837   5.749  15.602  13.582
19512W        W91838  13.394  26.625  14.025
19513W        W91839  32.014  13.875   0.929
19514W        W91840  41.435  28.196   3.917
19515W        W91841  44.976  41.989   2.373
19516W        W91842   3.770   5.861  12.373
19517W        W91843  24.436  14.350   2.201
19518W        W91844  40.921   1.822  13.284
19519W        W91845  16.358  32.641   2.289
19520W        W91846  21.134  19.599   5.229
19521W        W91847  33.144  25.794  12.206
19522W        W91848  43.466   9.668  11.132
19523W        W91849  34.659  19.215  14.011
19524W        W91850   2.605  19.100  13.385
19525W        W91851  30.680   1.714  13.495
19526W        W91852  39.998  16.861   3.675
19527W        W91853  11.351  13.387  10.810
19528W        W91854  21.230  31.006   0.445
19529W        W91855  40.999  19.834  13.813
19530W        W91856   9.163  22.788  13.974
19531W        W91857   8.394   0.493  11.057
19532W        W91858  35.130  25.644  10.677
19533W        W91859  41.974  41.786   3.618
19534W        W91860  10.534  11.142   2.323
19535W        W91861  25.153  33.418  10.788
19536W        W91862  20.338   2.810  13.364
19537W        W91863  42.827  34.062   2.673
19538W        W91864  21.170  12.221   0.435
19539W        W91865  25.982  32.874   4.142
19540W        W91866  30.682   7.395  11.080
19541W        W91867   2.725  39.818   0.013
19542W        W91868  28.634   8.245  11.216
19543W        W91869  32.978  39.369   4.133
19544W        W91870   4.908  23.080  10.524
19545W        W91871  27.412  28.080   1.884
19546W        W91872  40.416  33.779  14.354
19547W        W91873  36.721  26.739  10.267
19548W        W91874  40.343   0.626   3.353
19549W        W91875  23.572  30.361  10.643
19550W        W91876  20.643  12.830   3.088
19551W        W91877   9.078  25.689   4.192
19552W        W91878  13.359   5.296   2.521
19553W        W91879   3.982   1.359  11.086
19554W        W91880   4.701  30.098  10.686
19555W        W91881   0.795   6.419  10.703
19556W        W91882  21.596  35.930  12.509
19557W        W91883  29.162  43.526   4.866
19558W        W91884  35.943  21.981  12.008
19559W        W91885  30.999   3.626  12.929
19560W        W91886  17.266   1.192   2.207
19561W        W91887  31.262  35.559   3.248
19562W        W91888  28.880   1.187  11.422
19563W        W91889  41.692  39.784  11.328
19564W        W91890   3.446   9.304   1.717
19565W        W91891  40.262  42.855  12.408
19566W        W91892  39.778  32.254   9.835
19567W        W91893  21.617  30.269  11.133
19568W        W91894   6.284  15.549  14.179
19569W        W91895  25.929  17.718  13.464
19570W        W91896   5.957  23.708   0.440
19571W        W91897  23.593  40.440   2.536
19572W        W91898  39.508  24.722   1.417
19573W        W91899  35.695  16.317  13.399
19574W        W91900  14.756   8.431   2.887
19575W        W91901   5.930  34.895   2.845
19576W        W91902  32.258  40.277   3.569
19577W        W91903   2.054  18.165   1.374
19578W        W91904   1.315  16.579  13.910
19579W        W91905  37.873  17.372   2.836
19580W        W91906  35.079  38.572  11.486
19581W        W91907  44.376  29.568  12.829
19582W        W91908  41.199  15.727  11.355
19583W        W91909  44.847  17.088  14.318
19584W        W91910   8.938  24.680   0.101
19585W        W91911  23.792  35.581  14.371
19586W        W91912  19.663   3.640  13.408
19587W        W91913  29.377  25.185   0.806
19588W        W91914  43.397  43.163  11.914
19589W        W91915  13.842   8.572   2.084
19590W        W91916  37.079  16.587   1.488
19591W        W91917   3.311  24.677   0.321
19592W        W91918  13.903  25.110  13.570
19593W        W91919  26.640   3.870   1.754
19594W        W91920  26.231   4.304  14.529
19595W        W91921  35.064  14.540  13.860
19596W        W91922  12.766   0.973  14.659
19597W        W91923   7.714  11.069   1.177
19598W        W91924  44.949  30.134   1.352
19599W        W91925  28.516  14.957   2.630
19600W        W91926  37.414   0.099   4.763
19601W        W91927  19.491  11.696   0.670
19602W        W91928  16.076  15.288  13.367
19603W        W91929  17.187  20.722   1.225
19604W        W91930  19.279  41.526   1.337
19605W        W91931  14.690   8.818   1.497
19606W        W91932  29.231  13.299   3.133
19607W        W91933   3.906  20.733   2.658
19608W        W91934  30.377  19.104  10.796
19609W        W91935   4.987  11.314   5.094
19610W        W91936   9.730  40.770   3.893
19611W        W91937  24.506  23.815   3.544
19612W        W91938  15.538  25.993  12.454
19613W        W91939  34.161  30.974  12.116
19614W        W91940   9.793   3.808   0.912
19615W        W91941  34.587  26.888   4.578
19616W        W91942  30.946  42.432  11.610
19617W        W91943  16.736  18.589   1.431
19618W        W91944  24.983  11.271  11.896
19619W        W91945   2.800  42.775   1.910
19620W        W91946  36.352  33.621  14.907
19621W        W91947   9.702  24.009   1.874
19622W        W91948  10.269  35.561  12.091
19623W        W91949  36.572   1.930   2.732
19624W        W91950   4.540  23.032  11.278
19625W        W91951  15.280  38.980  12.105
19626W        W91952  27.077  25.211  14.768
19627W        W91953  10.758  36.625  12.437
19628W        W91954  29.161  41.949   1.278
19629W        W91955  36.029  22.115   1.381
19630W        W91956   7.547  30.688   3.143
19631W        W91957   4.772  17.126   1.903
19632W        W91958  15.849  38.253   1.397
19633W        W91959  20.913  24.604   4.561
19634W        W91960   6.230  17.493   1.005
19635W        W91961  31.882   2.526   1.865
19636W        W91962  44.247  33.934  12.279
19637W        W91963  31.673   1.911  13.357
19638W        W91964   2.909   4.354   1.461
19639W        W91965   9.458  19.040  13.888
19640W        W91966  43.551  20.140   4.184
19641W        W91967  33.494  16.762  12.233
19642W        W91968  10.660  33.178   4.225
19643W        W91969  44.458  21.449  12.407
19644W        W91970  21.616  25.930  14.751
19645W        W91971  21.115  12.758  10.238
19646W        W91972  15.082  31.095  11.804
19647W        W91973  39.969  15.733  10.722
19648W        W91974   5.870   5.821   4.632
19649W        W91975  33.966  26.089  11.921
19650W        W91976  43.077  40.495  11.575
19651W        W91977  15.608   0.692  10.035
19652W        W91978  40.555  42.000  12.930
19653W        W91979  40.924  25.895  14.282
19654W        W91980  13.272  35.803  13.806
19655W        W91981  27.732  19.205  11.559
19656W        W91982  17.288  22.046   3.168
19657W        W91983   2.223   4.166  11.497
19658W        W91984  26.236  22.194  14.035
19659W        W91985  31.821  41.329   2.389
19660W        W91986  44.003  14.927  14.328
19661W        W91987  40.922  35.826  14.024
19662W        W91988  38.350  18.282  14.406
19663W        W91989   9.490   2.279   4.301
19664W        W91990   3.048  17.518   0.694
19665W        W91991  21.786  32.576   2.243
19666W        W91992  32.919  29.170   0.652
19667W        W91993  42.772  27.997   3.391
19668W        W91994  22.967  29.661   2.722
19669W        W91995  13.604   7.207   2.941
19670W        W91996  14.709  15.282  12.822
19671W        W91997   0.186   2.946  14.743
19672W        W91998  30.123   7.681   0.912
19673W        W91999  43.857  22.549   0.245
19674W        W92000  13.952   6.327   4.991
19675W        W92001  42.868  17.670  13.507
19676W        W92002  32.025  35.380  13.015
19677W        W92003  23.849  34.517   2.845
19678W        W92004  29.118  16.184  10.731
19679W        W92005  27.525   0.279  10.600
19680W        W92006  43.733  15.079  13.875
19681W        W92007   2.054  22.152  14.856
19682W        W92008   0.873  36.326  13.568
19683W        W92009   4.322  33.824   1.298
19684W        W92010   7.457  44.328  12.439
19685W        W92011   2.297  33.570   2.593
19686W        W92012  35.416  34.820  13.018
19687W        W92013  39.033  39.166   4.610
19688W        W92014  22.024  28.357  13.808
19689W        W92015  17.342  29.381  12.469
19690W        W92016  41.382  37.481   2.870
19691W        W92017  15.229  27.221  11.215
19692W        W92018  40.001  31.415   2.214
19693W        W92019  43.758  18.664   1.401
19694W        W92020  12.787   5.215   3.896
19695W        W92021   8.733  38.797  11.827
19696W        W92022  36.875  41.362   4.944
19697W        W92023  29.681  11.386   0.738
19698W        W92024  39.190   1.676  14.920
19699W        W92025  30.559   8.002   4.222
19700W        W92026  31.924  16.189  12.869
19701W        W92027  42.624   8.037   2.844
19702W        W92028  40.038  18.224  14.915
19703W        W92029   0.179  16.716   2.297
19704W        W92030  23.657   4.315   2.190
19705W        W92031  41.823  32.543   1.902
19706W        W92032   0.333  12.756   4.044
19707W        W92033  33.116   4.951   2.622
19708W        W92034  35.090   5.780  14.226
19709W        W92035  20.592   8.679  12.450
19710W        W92036  36.942  31.146  14.264
19711W        W92037  23.288  37.958  11.663
19712W        W92038  40.593  35.130   4.161
19713W        W92039   7.967  31.994   4.941
19714W        W92040  22.673  19.329   0.920
19715W        W92041  29.156  27.655   4.168
19716W        W92042  15.566  33.622   2.267
19717W        W92043   6.473  44.718   1.810
19718W        W92044  35.930  19.540  12.998
19719W        W92045   7.824  14.176   0.165
19720W        W92046   9.928  10.278  12.540
19721W        W92047  19.811  37.462   0.261
19722W        W92048  10.634  12.249   1.288
19723W        W92049  32.559  37.960   1.444
19724W        W92050  42.839  30.150  11.196
19725W        W92051   1.061  32.126  10.112
19726W        W92052  10.273  14.234   1.210
19727W        W92053  30.960  40.909   0.427
19728W        W92054  36.222  35.653  11.941
19729W        W92055  24.878  42.776   2.864
19730W        W92056  36.590  37.397  13.319
19731W        W92057  26.987   1.821  12.008
19732W        W92058  24.984  30.175  14.094
19733W        W92059  32.440  32.786   1.826
19734W        W92060   4.640  37.219   2.723
19735W        W92061  30.894  35.855  12.050
19736W        W92062  18.641  26.474  10.536
19737W        W92063   0.328  41.815   0.044
19738W        W92064  42.879   8.787  11.793
19739W        W92065  43.816  37.064   4.157
19740W        W92066  41.051  10.714   4.067
19741W        W92067  24.026   4.256  14.374
19742W        W92068   6.617  34.661   1.659
19743W        W92069  25.008  40.376   2.263
19744W        W92070   0.301  27.033  14.241
19745W        W92071  28.523  19.186   3.736
19746W        W92072  34.824  14.547   3.935
19747W        W92073  23.289  25.894  14.303
19748W        W92074   7.202  16.783   3.925
19749W        W92075  14.357  42.019  11.956
19750W        W92076  41.549  32.883  11.170
19751W        W92077  34.974  44.311   2.232
19752W        W92078  27.051   9.084   3.601
19753W        W92079  23.820  37.906  10.836
19754W        W92080  18.133  12.556   4.408
19755W        W92081  44.898  36.890   4.552
19756W        W92082   1.458   3.520   4.072
19757W        W92083  29.478   1.837   5.209
19758W        W92084  40.559  43.754  13.008
19759W        W92085  28.715   3.301   2.438
19760W        W92086  10.567  33.961  12.305
19761W        W92087  31.897   1.352   3.871
19762W        W92088  16.883  26.590   1.000
19763W        W92089  37.025  43.317   2.752
19764W        W92090  33.148  36.578   5.008
19765W        W92091  28.550   9.234   2.230
19766W        W92092  29.568  40.687  11.359
19767W        W92093  29.017   0.772   2.676
19768W        W92094  39.285  36.551  14.771
19769W        W92095  22.327  23.606  11.531
19770W        W92096  10.351   9.944  14.600
19771W        W92097  19.873  10.386   0.799
19772W        W92098   2.266  24.151  14.486
19773W        W92099  21.383  29.905  12.677
19774W        W92100  26.745  44.955  13.082
19775W        W92101  27.705  17.088   2.716
19776W        W92102  11.636  38.539  11.926
19777W        W92103   1.479  14.552  13.560
19778W        W92104   4.215  10.760  12.711
19779W        W92105  24.803  33.539   1.292
19780W        W92106  22.362  24.480   1.631
19781W        W92107  19.525  17.108  11.094
19782W        W92108  18.569  41.640  14.886
19783W        W92109  27.288  30.057   1.421
19784W        W92110   9.721   6.562   1.640
19785W        W92111  42.803  10.656   0.440
19786W        W92112  27.446  20.596  10.701
19787W        W92113   3.444  38.347  14.752
19788W        W92114  17.141   9.101   1.280
19789W        W92115  11.680  14.220   1.938
19790W        W92116  32.232  29.451  13.102
19791W        W92117  44.175  24.249  13.326
19792W        W92118  18.451  44.276   2.181
19793W        W92119   3.009  33.246   0.911
19794W        W92120  29.735  17.387  10.610
19795W        W92121  30.929   6.963   0.998
19796W        W92122  14.212  27.502   2.098
19797W        W92123  10.095   6.918  10.883
19798W        W92124  31.785  14.754  14.172
19799W        W92125   8.915  44.428   2.293
19800W        W92126  17.973   7.844  13.392
19801W        W92127  29.586   6.766   2.623
19802W        W92128  34.950   6.478   2.274
19803W        W92129  35.602   3.375   1.784
19804W        W92130  26.085  10.597   0.302
19805W        W92131   9.487  44.173   0.286
19806W        W92132  41.376  19.809  13.439
19807W        W92133  43.511  10.194   2.870
19808W        W92134   9.647   9.189   4.396
19809W        W92135  24.183   4.265  13.856
19810W        W92136  40.331   2.372  11.623
19811W        W92137   6.412   1.312   3.055
19812W        W92138  27.099  26.433  10.173
19813W        W92139   8.141  25.160  10.497
19814W        W92140  26.375  40.955  11.080
19815W        W92141  12.871  28.153  12.825
19816W        W92142  34.527  15.812   1.483
19817W        W92143  42.572  21.143   4.175
19818W        W92144  25.205   9.223  13.998
19819W        W92145   1.498   8.231  11.207
19820W        W92146  27.560  30.955   0.497
19821W        W92147   3.002  11.134   1.499
19822W        W92148  13.309   6.213   0.469
19823W        W92149  34.999  40.467  14.984
19824W        W92150   0.325  12.368  11.077
19825W        W92151  33.386   7.799   4.180
19826W        W92152  33.452  15.593  13.038
19827W        W92153   8.655  42.514  14.865
19828W        W92154  18.459  36.051   3.090
19829W        W92155   6.325  34.303   1.379
19830W        W92156  38.053  11.619   0.227
19831W        W92157  21.214  19.268  14.704
19832W        W92158  41.102  24.680   2.798
19833W        W92159  26.186   4.717  12.729
19834W        W92160   3.176  43.809   1.345
19835W        W92161  32.575  37.160  12.944
19836W        W92162   2.366   1.422  13.134
19837W        W92163  18.579  38.185   3.184
19838W        W92164  42.690  20.586  13.012
19839W        W92165  13.826  30.844  11.775
19840W        W92166   5.830  27.508   0.197
19841W        W92167  41.386  32.866  14.784
19842W        W92168  32.886  41.766  13.064
19843W        W92169   9.879  22.972  10.828
19844W        W92170  17.713  29.161   3.689
19845W        W92171   6.939  24.700   1.390
19846W        W92172  22.189   8.857  12.796
19847W        W92173  25.165  42.908   3.275
19848W        W92174  36.673   5.695  11.297
19849W        W92175   4.558   1.826  13.813
19850W        W92176  16.078  25.634  13.887
19851W        W92177  29.177  38.772  10.054
19852W        W92178  33.977  19.090   2.380
19853W        W92179  16.492  32.765  11.127
19854W        W92180  22.116  32.335   1.327
19855W        W92181  33.021  39.795   2.192
19856W        W92182  12.729   3.722  14.743
19857W        W92183  40.664  25.082   2.359
19858W        W92184  20.243  14.130  13.484
19859W        W92185  24.194  17.345  13.905
19860W        W92186   5.060  44.408   1.185
19861W        W92187  28.156   5.189  11.031
19862W        W92188   6.876  10.439  14.873
19863W        W92189  12.182  42.513  10.487
19864W        W92190   1.946   4.793   2.275
19865W        W92191  34.572  37.363  10.442
19866W        W92192  16.431   2.846   4.192
19867W        W92193  41.444  19.148   4.420
19868W        W92194  29.118   5.035   0.661
19869W        W92195  37.902  41.287   3.348
19870W        W92196  35.734  19.715  13.441
19871W        W92197  17.474  30.512  11.432
19872W        W92198  11.001  20.077   3.332
19873W        W92199  25.008  38.226   1.201
19874W        W92200  24.007  16.837  10.565
19875W        W92201   6.646  10.183  10.390
19876W        W92202   3.831   8.130  12.642
19877W        W92203   8.487  12.180  13.071
19878W        W92204   2.671  39.915   0.521
19879W        W92205  26.718  27.089  14.898
19880W        W92206   7.832   5.596   0.913
19881W        W92207  16.528  31.082   2.245
19882W        W92208  18.749   4.488   0.388
19883W        W92209  22.316  21.963   4.758
19884W        W92210  13.043  27.975  11.128
19885W        W92211  25.945  35.811   4.822
19886W        W92212  13.365   3.565  12.254
19887W        W92213  28.641  33.387  10.898
19888W        W92214  36.105   9.136  13.570
19889W        W92215  18.157   6.613  12.973
19890W        W92216   9.558  17.356   4.167
19891W        W92217  27.712  32.167  12.264
19892W        W92218  23.772   4.451   0.029
19893W        W92219  43.316  37.571  11.662
19894W        W92220  26.027  31.829   1.530
19895W        W92221   6.858  27.957   4.625
19896W        W92222  22.107  27.731   0.656
19897W        W92223  14.154   1.213  12.969
19898W        W92224   3.918  14.382  10.949
19899W        W92225  17.724   6.403  11.497
19900W        W92226   7.110  25.483  14.018
19901W        W92227   6.231  42.921  12.160
19902W        W92228  35.210  15.357  11.503
19903W        W92229  29.301  30.260   1.513
19904W        W92230  10.200  19.892  10.598
19905W        W92231  41.246  33.125  10.817
19906W        W92232  29.082   6.909   3.720
19907W        W92233  29.592  22.889  14.933
19908W        W92234  16.067   5.588  11.481
19909W        W92235  15.757  10.746   2.388
19910W        W92236  37.020  26.554   0.362
19911W        W92237  38.762  18.043  11.597
19912W        W92238  10.420  25.972  11.472
19913W        W92239  37.424  11.871   5.053
19914W        W92240   9.264  25.153  11.815
19915W        W92241   6.886  20.034   3.850
19916W        W92242  28.409  29.516  12.197
19917W        W92243   9.687  30.470  13.908
19918W        W92244  36.439  39.048   3.469
19919W        W92245  39.449  44.437  12.073
19920W        W92246  29.101  33.943   4.445
19921W        W92247  17.157  12.247   2.353
19922W        W92248   0.177  16.358  12.135
19923W        W92249  43.478  28.644  10.507
19924W        W92250  38.035  34.842  12.972
19925W        W92251   1.837  12.278   3.728
19926W        W92252  29.196  28.541   4.653
19927W        W92253  10.403  39.708   4.560
19928W        W92254  21.607  39.323  14.494
19929W        W92255  18.617  36.501  14.870
19930W        W92256  38.741  10.617   1.298
19931W        W92257   2.909  12.345   5.124
19932W        W92258  27.822  40.861  10.132
19933W        W92259  23.815  41.915   0.960
19934W        W92260  18.513  27.175  12.953
19935W        W92261  32.769  16.675   0.239
19936W        W92262  42.357  24.656  10.396
19937W        W92263   7.647   7.268   3.665
19938W        W92264  36.403  34.993   1.285
19939W        W92265  18.190  17.171  14.039
19940W        W92266   5.703  14.975  12.929
19941W        W92267   1.544  42.271   1.780
19942W        W92268  10.700  40.085   4.775
19943W        W92269  15.840  44.492  13.400
19944W        W92270   5.392  14.680   1.815
19945W        W92271  23.816   1.137   3.275
19946W        W92272   2.222  23.304   5.301
19947W        W92273  25.868  24.140  14.400
19948W        W92274  16.625  22.140  12.825
19949W        W92275  38.330  24.518  10.836
19950W        W92276   4.182  12.934  12.633
19951W        W92277  39.479  23.156  13.164
19952W        W92278  25.909  32.353   1.631
19953W        W92279   5.313  11.756   5.052
19954W        W92280  26.200  37.778  12.081
19955W        W92281   3.678  38.042  12.088
19956W        W92282  14.356  16.727   0.349
19957W        W92283  25.961  20.141  14.505
19958W        W92284  34.939  39.642  13.096
19959W        W92285  41.184   0.242  12.151
19960W        W92286  11.370  26.673   2.859
19961W        W92287   0.431  13.142  14.373
19962W        W92288  13.865   5.344   2.682
19963W        W92289  33.418  32.927  11.437
19964W        W92290  11.517  23.222  11.551
19965W        W92291   4.704  21.261  14.366
19966W        W92292  10.856   5.837   0.073
19967W        W92293  16.869  17.343  13.570
19968W        W92294  22.339  34.480  11.529
19969W        W92295  35.467   7.867   4.054
19970W        W92296  41.589   4.501  13.108
19971W        W92297   2.521  10.908  11.544
19972W        W92298  41.662   9.160   2.888
19973W        W92299  12.204  29.920   3.270
19974W        W92300  13.232   5.885   3.681
19975W        W92301   4.363  12.218   4.168
19976W        W92302  34.717   9.246   4.558
19977W        W92303  28.000   9.659   4.173
19978W        W92304  19.538  21.949  11.008
19979W        W92305  29.731  25.454  12.429
19980W        W92306  33.473  22.619  12.619
19981W        W92307  40.371  15.856   4.311
19982W        W92308   3.566  39.277  10.634
19983W        W92309  28.243  12.620   2.889
19984W        W92310  22.667  43.757   0.397
19985W        W92311   6.925   8.846  10.600
19986W        W92312   8.188   1.367   2.648
19987W        W92313   1.829   9.071  12.492
19988W        W92314  34.031  32.970  11.193
19989W        W92315  23.554  16.101   4.626
19990W        W92316  32.857  33.934  12.555
19991W        W92317  16.201  24.438   0.806
19992W        W92318  10.769  38.900  11.992
19993W        W92319  43.255   3.821   4.423
19994W        W92320  38.609  11.609   1.513
19995W        W92321  44.294  10.717  14.452
19996W        W92322  24.610  27.495   2.897
19997W        W92323  34.459  16.847   1.435
19998W        W92324  12.806  30.817   4.016
19999W        W92325  42.955  35.469   1.042
20000W        W92326  26.481  43.947   0.843
20001W        W92327   5.126   4.005  12.180
20002W        W92328  31.305  39.302   2.919
20003W        W92329  18.958  42.397   4.450
20004W        W92330   6.765  36.811   4.409
20005W        W92331  32.470  29.403   0.225
20006W        W92332  30.871   4.745   0.722
20007W        W92333  11.317  29.170  12.953
20008W        W92334  38.917  29.474  14.863
20009W        W92335  37.340   5.504   4.830
20010W        W92336  14.298  15.385  10.463
20011W        W92337  20.891   0.405  13.418
20012W        W92338  23.190  24.169   3.254
20013W        W92339  11.179  40.690  13.437
20014W        W92340  21.286   9.125   4.618
20015W        W92341  14.366   2.907   4.246
20016W        W92342  33.735   0.064  11.007
20017W        W92343  16.194  40.555   3.414
20018W        W92344  27.510  22.317  12.942
20019W        W92345  14.644  15.586  14.765
20020W        W92346  39.754  12.848   2.838
20021W        W92347  34.820  41.746  12.176
20022W        W92348  37.121  35.905  13.091
20023W        W92349  13.085  31.516   1.792
20024W        W92350  34.604   9.405  12.044
20025W        W92351  44.593   9.728   1.326
20026W        W92352  12.206  33.155  14.996
20027W        W92353  29.013   6.728   0.611
20028W        W92354  40.621  12.727  12.398
20029W        W92355  34.123  24.946   0.009
20030W        W92356  42.523  42.302   3.157
20031W        W92357  14.160  26.280  12.394
20032W        W92358  41.398  44.441  10.639
20033W        W92359  14.790  13.568   3.533
20034W        W92360  17.144  33.172   2.275
20035W        W92361   8.340   3.871  11.570
20036W        W92362  36.196  16.706   3.412
20037W        W92363  12.598  10.058  13.455
20038W        W92364  10.847  10.669   2.273
20039W        W92365  27.663   1.513  13.475
20040W        W92366   7.312  15.579   1.846
20041W        W92367  41.934  42.763   0.471
20042W        W92368  28.137  11.587  14.707
20043W        W92369  43.294   0.896  13.550
20044W        W92370   4.997   5.634   4.624
20045W        W92371  43.744  21.223   0.362
20046W        W92372  18.073  16.107  14.911
20047W        W92373  32.458  42.059  13.066
20048W        W92374  29.555  43.167   2.015
20049W        W92375  20.192  20.788   3.254
20050W        W92376  26.141   9.772   4.121
20051W        W92377  44.973  38.963   2.235
20052W        W92378  14.762  29.466  13.353
20053W        W92379  20.729  31.044  12.323
20054W        W92380  19.038  32.962   4.761
20055W        W92381  34.624  39.928  11.066
20056W        W92382  23.897  21.023  13.588
20057W        W92383  36.162  39.305   2.010
20058W        W92384  13.735  13.343  13.415
20059W        W92385  13.400   3.955   1.646
20060W        W92386  38.883  20.966  10.682
20061W        W92387  29.972  31.202  11.215
20062W        W92388  43.690  23.014   1.173
20063W        W92389  13.399  22.313  12.270
20064W        W92390  44.647  21.764  10.300
20065W        W92391  24.219  25.671   0.316
20066W        W92392  32.613  12.429   4.407
20067W        W92393   1.460  36.559   1.467
20068W        W92394  18.739  41.798  12.078
20069W        W92395  43.189  33.580   0.707
20070W        W92396  13.945   1.277   2.944
20071W        W92397   8.474  42.360  12.368
20072W        W92398  27.938  17.049   4.191
20073W        W92399   3.486  13.237  13.043
20074W        W92400  38.433  16.808   0.367
20075W        W92401  30.516  39.440  12.939
20076W        W92402  19.598  38.002  12.440
20077W        W92403  28.051   9.363   1.432
20078W        W92404  38.940  32.158  10.931
20079W        W92405  18.234  44.239  10.765
20080W        W92406  34.527  43.776   3.584
20081W        W92407  27.164  35.938  10.430
20082W        W92408  17.246  12.738   4.051
20083W        W92409   5.690  11.907  12.919
20084W        W92410   2.460  27.985  14.001
20085W        W92411  36.464  27.487  13.781
20086W        W92412  40.001  44.870  14.815
20087W        W92413  34.439  40.393  13.668
20088W        W92414   7.879  16.267   4.157
20089W        W92415  44.611  21.265   4.092
20090W        W92416  21.991  42.034  13.029
20091W        W92417  24.050  16.721  14.500
20092W        W92418   4.179   6.404   2.248
20093W        W92419   2.795  36.663  13.258
20094W        W92420   6.272  18.323  14.898
20095W        W92421  41.748  41.721  13.521
20096W        W92422  17.103   9.311   2.224
20097W        W92423   0.821  21.968   3.219
20098W        W92424   2.444  19.642   0.835
20099W        W92425  29.471  24.525   2.797
20100W        W92426   0.869  35.979   1.929
20101W        W92427  34.153  36.031  11.180
20102W        W92428  34.880  12.225  14.238
20103W        W92429  15.225   8.853   4.548
20104W        W92430  41.497   8.063  12.765
20105W        W92431  43.501  36.771  14.663
20106W        W92432  40.067  42.910  13.984
20107W        W92433  39.090  36.317   4.044
20108W        W92434  39.540  20.444   3.561
20109W        W92435  38.139  34.454  11.652
20110W        W92436  20.673  25.475   1.240
20111W        W92437   4.944  11.137  11.125
20112W        W92438  21.830  34.376   4.226
20113W        W92439  30.975  38.103   3.336
20114W        W92440  41.520  41.671  14.979
20115W        W92441   3.505  29.099  13.381
20116W        W92442  39.076  20.810  11.121
20117W        W92443  38.571  31.057  11.408
20118W        W92444  43.465   6.607   3.641
20119W        W92445  21.577  23.082  10.538
20120W        W92446   5.217   6.771  12.571
20121W        W92447   6.859  28.524  13.004
20122W        W92448  33.814  12.025  14.019
20123W        W92449  34.192  31.959  14.429
20124W        W92450  22.511  34.575   1.767
20125W        W92451   3.190  12.226  13.521
20126W        W92452  21.800  13.839   4.535
20127W        W92453   8.579  24.072  11.140
20128W        W92454   2.425   9.050  11.274
20129W        W92455  20.361   1.847  14.947
20130W        W92456  34.418  34.834   1.519
20131W        W92457  28.668  13.342  12.940
20132W        W92458   9.253  36.558   0.819
20133W        W92459  17.586  17.535  11.924
20134W        W92460  22.630  20.179  14.545
20135W        W92461   2.169  13.813  11.375
20136W        W92462   0.037  39.450  11.073
20137W        W92463  35.577  38.433  14.112
20138W        W92464  22.329  20.497  13.312
20139W        W92465  43.935  30.107  11.710
20140W        W92466  19.347  27.620  14.345
20141W        W92467  35.020  17.267   2.303
20142W        W92468  24.538  31.654  13.924
20143W        W92469  31.454   7.185  13.950
20144W        W92470  41.911  16.731   1.152
20145W        W92471  27.015  38.286   2.951
20146W        W92472   3.378  44.736   0.372
20147W        W92473  28.701  29.617   1.870
20148W        W92474  11.084  36.029  13.297
20149W        W92475  18.031  14.235  14.328
20150W        W92476  25.266   3.300   2.937
20151W        W92477  36.529  12.839  11.529
20152W        W92478  16.220  30.977  13.100
20153W        W92479  13.386   3.911  13.016
20154W        W92480   2.371  34.701   0.996
20155W        W92481  10.845  41.401  14.760
20156W        W92482  43.269  24.088   1.822
20157W        W92483  12.591  10.163   2.193
20158W        W92484  12.544  35.389  11.759
20159W        W92485  28.865  28.162  11.782
20160W        W92486  11.352  22.149  11.975
20161W        W92487  30.674   1.322   3.148
20162W        W92488   7.467  22.748  12.060
20163W        W92489  26.891  36.952   3.249
20164W        W92490   6.339   9.761   0.312
20165W        W92491   8.702  21.756  13.493
20166W        W92492   5.243  16.245  10.641
20167W        W92493  30.627  41.906  14.541
20168W        W92494  24.966  22.102  12.867
20169W        W92495  10.899  32.438   3.751
20170W        W92496   2.468  38.001  13.265
20171W        W92497   9.418   1.924   4.654
20172W        W92498  23.733  21.004  11.801
20173W        W92499  27.037   0.881  10.826
20174W        W92500  41.297  39.142  14.464
20175W        W92501  18.751   7.628   3.588
20176W        W92502  41.045  26.802  13.992
20177W        W92503  29.442  19.050   3.612
20178W        W92504  16.225   7.824  13.019
20179W        W92505  29.519  31.868   2.269
20180W        W92506  39.355  20.663  14.916
20181W        W92507  29.011  32.887  14.978
20182W        W92508  40.612  18.066  13.799
20183W        W92509  30.399  21.518   1.906
20184W        W92510   7.150   9.079  12.173
20185W        W92511  16.796  19.072   0.646
20186W        W92512  31.826  38.696  12.066
20187W        W92513   8.673  16.762  13.753
20188W        W92514   0.235  30.975   0.436
20189W        W92515  29.868   0.660  12.347
20190W        W92516  15.635  10.675  13.584
20191W        W92517  13.175   5.242   2.023
20192W        W92518  28.289  21.263   1.799
20193W        W92519   4.373   3.929   3.767
20194W        W92520  19.550  43.740   1.445
20195W        W92521   9.850  13.984   1.867
20196W        W92522  40.639  29.939  11.638
20197W        W92523  27.272  40.071  11.567
20198W        W92524  41.097  34.424  13.964
20199W        W92525   8.303  39.419   1.747
20200W        W92526   0.384  18.750   4.128
20201W        W92527   0.082  44.266   3.184
20202W        W92528   4.584  37.499  14.934
20203W        W92529   5.413  41.852  12.111
20204W        W92530  22.327  17.603   0.657
20205W        W92531  36.821  32.891  10.933
20206W        W92532   6.631  44.468   1.380
20207W        W92533   3.445  25.187   0.354
20208W        W92534  35.140  19.637   1.383
20209W        W92535  27.185  20.403   4.566
20210W        W92536   9.326  21.675  11.857
20211W        W92537  10.567   4.874   1.865
20212W        W92538  41.832  22.081   1.766
20213W        W92539  15.233  25.152   2.687
20214W        W92540   6.825  14.050  11.128
20215W        W92541  25.036  42.301   3.703
20216W        W92542   0.685  41.521   2.242
20217W        W92543  17.532  16.201  12.527
20218W        W92544   7.349  24.222   0.477
20219W        W92545  38.848  11.751   2.161
20220W        W92546  32.931  39.581   0.801
20221W        W92547  23.592  27.263   4.529
20222W        W92548  17.574  35.935   3.386
20223W        W92549  33.579  15.148  11.152
20224W        W92550  35.532  36.901   3.236
20225W        W92551  32.291  10.659   4.973
20226W        W92552   3.968   6.644   4.229
20227W        W92553  44.923  37.765   4.097
20228W        W92554  27.992  26.097   2.857
20229W        W92555  35.673  40.228  13.129
20230W        W92556  25.909  20.224   0.384
20231W        W92557  13.338  16.859  13.364
20232W        W92558  24.002   2.690   0.295
20233W        W92559  42.760  12.773  12.613
20234W        W92560  19.382  38.472  14.421
20235W        W92561  39.573  14.634  11.220
20236W        W92562   0.953  16.706  12.028
20237W        W92563   6.779   0.518  14.530
20238W        W92564  27.696   1.230  14.754
20239W        W92565   5.737  31.383   3.732
20240W        W92566   7.934  23.002   1.359
20241W        W92567  29.459  24.883   1.817
20242W        W92568  36.469  32.691  14.028
20243W        W92569  28.545  32.213   4.711
20244W        W92570   9.114   8.841  11.393
20245W        W92571  43.759   2.005   3.833
20246W        W92572  19.332  37.764  14.950
20247W        W92573  15.217  12.276   4.070
20248W        W92574  13.841  19.627  14.466
20249W        W92575  34.382  32.298  11.895
20250W        W92576  17.608  34.254   1.802
20251W        W92577   3.544   6.876   4.084
20252W        W92578  21.982  14.401   4.176
20253W        W92579  28.924  21.199  11.054
20254W        W92580  12.138  35.495  13.472
20255W        W92581  11.825  29.681   2.630
20256W        W92582   6.406  16.156   4.239
20257W        W92583  44.585  27.674   2.845
20258W        W92584  22.952  11.849   1.365
20259W        W92585  44.357  26.231  12.541
20260W        W92586  14.890  41.933  11.987
20261W        W92587  30.222  26.449   0.862
20262W        W92588  11.056   6.258   2.847
20263W        W92589  41.992  16.110   0.476
20264W        W92590  31.456  31.648   2.448
20265W        W92591  28.420  14.231  13.107
20266W        W92592  11.413  34.765   5.362
20267W        W92593  25.076  29.902   0.788
20268W        W92594  36.882   6.833  10.740
20269W        W92595  22.768  39.480  11.555
20270W        W92596  32.386  32.517  11.917
20271W        W92597  44.087  23.483  10.215
20272W        W92598   7.440  43.823  12.614
20273W        W92599  14.116  18.713  14.263
20274W        W92600  15.798  28.733  12.842
20275W        W92601  39.914  23.953   4.869
20276W        W92602   0.419  10.262  10.119
20277W        W92603  14.628  40.837   1.069
20278W        W92604  35.036  19.508   4.739
20279W        W92605  25.803  44.715  14.964
20280W        W92606  17.857  34.420  14.469
20281W        W92607  29.471   6.684   1.623
20282W        W92608  21.041  15.618  14.993
20283W        W92609  24.208   1.857  12.443
20284W        W92610  14.006   4.309  11.722
20285W        W92611  42.787  42.732   1.998
20286W        W92612  43.416   7.431   4.098
20287W        W92613   8.057  29.735   3.772
20288W        W92614  12.913   2.241  11.638
20289W        W92615  35.260  30.823   4.597
20290W        W92616  29.960  38.307  14.264
20291W        W92617  13.744  36.048  14.648
20292W        W92618  23.755  43.054   0.338
20293W        W92619  15.823   6.372  10.631
20294W        W92620  15.258   3.502  14.874
20295W        W92621  40.597  25.854  10.902
20296W        W92622  24.167  33.525   3.238
20297W        W92623   5.357  12.832   1.165
20298W        W92624   6.364  32.184   0.410
20299W        W92625  38.910   5.806   0.124
20300W        W92626  14.824  36.657  13.881
20301W        W92627  25.455  27.384   0.401
20302W        W92628  24.147  35.501  11.117
20303W        W92629  21.592  44.033  14.787
20304W        W92630  44.590  35.117   0.234
20305W        W92631  16.069  21.230   4.891
20306W        W92632  35.042   0.511   5.013
20307W        W92633   2.291  26.139   3.678
20308W        W92634   5.727   2.771   3.195
20309W        W92635  43.908  41.630  12.426
20310W        W92636  33.916   5.990   1.485
20311W        W92637  34.015  11.010   2.167
20312W        W92638  32.349   6.576  13.548
20313W        W92639   1.948  34.773   0.271
20314W        W92640  25.903  24.545  12.100
20315W        W92641  34.520  30.067   2.671
20316W        W92642  17.941  36.655   4.348
20317W        W92643  13.111  41.787  13.472
20318W        W92644   7.609  35.423  10.731
20319W        W92645  14.525   2.848  12.731
20320W        W92646  15.316  14.155  14.395
20321W        W92647  10.167  37.914   3.196
20322W        W92648  11.701  11.523  10.639
20323W        W92649  16.627  19.569  11.596
20324W        W92650   0.720  25.636  11.145
20325W        W92651  19.728   0.556  12.469
20326W        W92652  20.708   9.294  11.634
20327W        W92653  21.150  25.194  12.621
20328W        W92654   6.470  25.678  11.520
20329W        W92655  41.440  28.612   3.593
20330W        W92656  38.540  44.291   3.262
20331W        W92657  19.004  15.375   4.148
20332W        W92658  14.117  15.716   4.176
20333W        W92659   6.297  43.993  10.783
20334W        W92660  18.849   0.171   5.160
20335W        W92661  34.486  40.992   1.656
20336W        W92662   4.983  34.942   1.600
20337W        W92663  44.335  32.317  14.505
20338W        W92664   3.997  26.563  12.986
20339W        W92665  11.324  13.526   3.178
20340W        W92666  35.545  26.263  14.833
20341W        W92667  16.826  26.492   3.730
20342W        W92668  15.449  37.586   4.795
20343W        W92669   3.428   0.035  14.764
20344W        W92670  31.716  25.655  14.226
20345W        W92671  35.105  43.319   4.765
20346W        W92672  42.821  21.069  12.899
20347W        W92673  10.842   8.883   3.640
20348W        W92674  37.573  30.615  11.549
20349W        W92675  41.315  11.382  10.953
20350W        W92676  14.349  43.350  12.441
20351W        W92677  23.503  24.259   0.756
20352W        W92678  42.893  41.716  12.010
20353W        W92679   0.789  17.983   3.183
20354W        W92680  16.086  34.831  12.955
20355W        W92681  10.344  29.390   1.687
20356W        W92682  18.668  25.467   2.856
20357W        W92683  31.378  26.266   4.281
20358W        W92684   9.761  44.467  14.444
20359W        W92685  39.352  31.972  10.683
20360W        W92686  19.013   0.191  13.502
20361W        W92687  33.978   0.065  11.488
20362W        W92688  44.007   9.838   0.448
20363W        W92689   3.862  21.715   0.317
20364W        W92690  26.747   1.060   3.690
20365W        W92691  13.675  30.555   2.701
20366W        W92692   5.196  39.610   3.995
20367W        W92693  42.947   8.304  11.969
20368W        W92694  11.222  31.044  13.649
20369W        W92695  34.123  22.088  12.095
20370W        W92696  43.205   6.598   1.252
20371W        W92697  28.400  10.189  14.798
20372W        W92698  29.089   8.670  10.584
20373W        W92699  20.582   3.994   3.769
20374W        W92700  38.918  12.461  14.949
20375W        W92701   9.866   7.796  13.928
20376W        W92702  21.558   7.081  11.549
20377W        W92703  44.845  22.748   0.504
20378W        W92704  41.847   8.428   2.909
20379W        W92705  15.408   7.158  14.371
20380W        W92706  11.724  19.440  12.540
20381W        W92707  41.015  12.805  13.600
20382W        W92708  23.313  35.564  12.888
20383W        W92709  32.673  18.317  11.601
20384W        W92710  15.138   9.713   1.729
20385W        W92711  40.870  35.077   3.148
20386W        W92712  39.232  10.827   2.726
20387W        W92713  20.663   6.909  14.867
20388W        W92714   5.647  23.143   3.405
20389W        W92715  17.481  14.167   0.768
20390W        W92716   2.959  42.525  13.365
20391W        W92717  39.336   4.417  11.255
20392W        W92718  21.162  29.670   3.360
20393W        W92719   4.875  28.453  13.015
20394W        W92720  28.228  12.499  14.669
20395W        W92721   4.830  30.610   0.728
20396W        W92722  35.302  37.273   2.346
20397W        W92723  10.826  18.193   4.357
20398W        W92724  30.713  17.490   0.763
20399W        W92725   5.864  13.084  12.188
20400W        W92726  35.269   5.793   2.229
20401W        W92727   1.707  23.635   5.165
20402W        W92728  29.862  39.539   1.690
20403W        W92729   5.818  31.816  13.318
20404W        W92730  26.172  22.518  11.877
20405W        W92731  33.510  35.818  14.488
20406W        W92732  31.390   6.290   2.359
20407W        W92733  42.002   3.275   0.444
20408W        W92734  27.575  19.323  13.299
20409W        W92735  32.469   1.318  13.658
20410W        W92736  22.709  10.428  13.455
20411W        W92737  31.600  33.249   4.740
20412W        W92738  11.318   3.573   4.539
20413W        W92739   5.699   4.637  14.137
20414W        W92740  10.165  39.888   3.639
20415W        W92741  22.983  32.298  11.189
20416W        W92742   4.770  11.280   0.296
20417W        W92743  34.390  37.952   3.229
20418W        W92744  43.451  32.741  10.400
20419W        W92745  14.731  14.705  13.880
20420W        W92746  12.552  21.470  13.309
20421W        W92747  11.454  36.511   1.271
20422W        W92748  23.638  36.652  13.579
20423W        W92749   9.983  30.377  11.146
20424W        W92750   1.380  26.835   2.198
20425W        W92751   1.116  22.138   5.446
20426W        W92752   2.743  33.952  11.485
20427W        W92753  43.493   3.631  14.848
20428W        W92754  20.346  43.330   1.947
20429W        W92755   9.799   3.874   1.434
20430W        W92756  15.114  19.091  11.289
20431W        W92757  34.574   6.231  14.045
20432W        W92758   9.154   3.179   1.728
20433W        W92759  16.243   6.397  13.268
20434W        W92760  41.436  44.338  12.013
20435W        W92761   7.919  22.210  11.582
20436W        W92762  15.721  11.478   0.382
20437W        W92763  29.656   5.838   2.903
20438W        W92764  38.254   2.794   4.778
20439W        W92765  34.675  38.271   3.628
20440W        W92766  34.030  18.815  14.394
20441W        W92767  18.196  27.123  14.827
20442W        W92768  29.032  26.240   9.642
20443W        W92769  39.465  23.539  12.396
20444W        W92770   6.165  26.682   1.351
20445W        W92771   5.489   5.468  13.057
20446W        W92772   7.188   7.276   1.188
20447W        W92773  13.364  37.519  13.472
20448W        W92774   6.787  24.278   1.054
20449W        W92775  15.837   4.897  12.098
20450W        W92776   1.447  13.849  14.962
20451W        W92777  31.086  36.435   1.391
20452W        W92778  43.329  31.862   3.256
20453W        W92779   3.810  16.820  10.760
20454W        W92780  34.574  40.535   0.702
20455W        W92781  40.750   5.679   3.801
20456W        W92782  35.220   1.394   1.936
20457W        W92783  30.489   9.150  12.537
20458W        W92784  11.364  22.677  13.803
20459W        W92785   5.927  29.524   0.786
20460W        W92786  43.956  33.774   4.289
20461W        W92787  42.603  32.205   4.829
20462W        W92788  40.746  26.667  12.450
20463W        W92789  40.729  16.591  12.164
20464W        W92790  35.850  10.245  14.447
20465W        W92791  15.892  18.134  10.096
20466W        W92792   7.164   7.238  12.375
20467W        W92793  20.024  39.588   0.390
20468W        W92794  14.068  10.157   0.941
20469W        W92795  10.289  30.136  14.398
20470W        W92796  28.357  37.883   1.114
20471W        W92797  26.601  21.262  11.857
20472W        W92798  24.901  19.156  11.499
20473W        W92799  13.326  41.925   3.114
20474W        W92800  35.598  44.776  12.169
20475W        W92801  19.310  39.345   1.137
20476W        W92802  14.114  34.896   1.902
20477W        W92803  12.355   8.283   3.325
20478W        W92804  13.841   0.465  12.363
20479W        W92805  20.287  38.914   1.393
20480W        W92806  13.162  13.235   3.367
20481W        W92807  16.793  12.674   4.697
20482W        W92808  33.822  38.594  11.056
20483W        W92809  28.197  23.646  13.283
20484W        W92810  35.582  16.629  14.043
20485W        W92811  13.880   9.872   0.450
20486W        W92812  12.750  27.203   0.078
20487W        W92813  30.619  25.621   0.439
20488W        W92814  31.041  15.268  13.323
20489W        W92815  13.638  25.393  12.801
20490W        W92816  37.138  40.950   1.219
20491W        W92817  43.369   8.676   3.241
20492W        W92818  39.830  38.454  14.859
20493W        W92819   4.150  37.104   4.146
20494W        W92820  10.831  33.472  10.712
20495W        W92821  17.268  22.506   4.969
20496W        W92822   1.094  43.963   4.420
20497W        W92823  18.669  34.902   2.853
20498W        W92824  18.241  22.510   0.334
20499W        W92825  37.331  44.190  12.689
20500W        W92826   7.122  27.453  11.151
20501W        W92827   5.888  27.995  14.974
20502W        W92828  18.598  24.531   0.289
20503W        W92829  14.858   6.311  14.790
20504W        W92830  15.170   4.293   3.783
20505W        W92831  41.439  15.363  11.622
20506W        W92832  41.153  22.942   0.445
20507W        W92833   0.829   9.283  10.364
20508W        W92834  20.034  41.435   0.759
20509W        W92835   6.620  42.102   0.306
20510W        W92836  29.870  44.965  13.464
20511W        W92837  22.545  28.561   2.473
20512W        W92838  31.705   9.379   1.875
20513W        W92839  32.900  12.147  14.696
20514W        W92840  29.518  12.079   1.343
20515W        W92841  38.117   2.248   3.262
20516W        W92842  20.972  41.335   0.300
20517W        W92843   5.884  15.710  11.999
20518W        W92844  30.096   8.646  13.013
20519W        W92845  30.612  39.938   3.691
20520W        W92846  32.968  18.505   0.977
20521W        W92847  21.576  12.296   1.246
20522W        W92848  20.547  24.172   4.633
20523W        W92849  15.825  40.761  10.680
20524W        W92850  44.313  36.380  10.943
20525W        W92851  31.638   5.628  10.693
20526W        W92852  40.994  27.488   1.026
20527W        W92853  18.786  18.774  12.526
20528W        W92854  24.241   9.634   3.279
20529W        W92855  23.727  30.030   0.738
20530W        W92856  41.509  24.177   3.833
20531W        W92857  11.034  15.196  12.087
20532W        W92858  21.454  40.290  13.409
20533W        W92859   4.659  11.428   1.369
20534W        W92860  29.577  22.074   4.654
20535W        W92861  44.689  18.787  12.138
20536W        W92862  25.144   0.099  13.981
20537W        W92863   1.506   5.756   3.663
20538W        W92864  44.915  41.562   0.250
20539W        W92865   1.789  18.244  11.901
20540W        W92866  10.111  11.618  12.293
20541W        W92867  23.762   8.805   0.902
20542W        W92868  17.308   4.706  12.031
20543W        W92869  35.510   2.781   0.405
20544W        W92870  40.911  33.162  14.039
20545W        W92871  36.918   0.171   4.094
20546W        W92872  20.972  39.500   5.096
20547W        W92873   6.879  19.522   2.385
20548W        W92874   3.263  26.898  12.636
20549W        W92875  38.567  12.906  13.523
20550W        W92876  33.910  34.278   4.119
20551W        W92877   1.274   9.010  13.816
20552W        W92878  41.013  41.540  14.981
20553W        W92879  27.146  35.310   3.318
20554W        W92880  27.702  30.163  11.101
20555W        W92881  10.395  14.707   1.345
20556W        W92882  32.194  28.544   5.003
20557W        W92883  37.396  44.853  10.932
20558W        W92884   6.651  15.094  14.805
20559W        W92885  31.049   9.416   3.587
20560W        W92886   0.115   5.223   1.962
20561W        W92887  30.480  23.552  14.764
20562W        W92888  28.595  21.926   4.322
20563W        W92889  43.388   9.874   3.261
20564W        W92890  10.301  12.363   1.685
20565W        W92891  19.034  10.127   4.119
20566W        W92892  19.521  20.041   5.080
20567W        W92893  18.176   5.271   2.260
20568W        W92894  36.618  18.376  13.960
20569W        W92895  21.675  33.000   3.324
20570W        W92896  35.879  36.547  13.018
20571W        W92897  41.811   6.158   4.220
20572W        W92898  43.635  20.170   1.463
20573W        W92899  18.313  13.331  14.037
20574W        W92900   5.395  28.499   1.817
20575W        W92901  16.817   4.183  14.371
20576W        W92902  28.671   9.279  14.304
20577W        W92903  38.052  31.493   4.269
20578W        W92904   3.247  23.686  13.865
20579W        W92905  19.687  42.979   4.602
20580W        W92906  25.429  22.932  11.106
20581W        W92907  31.880   3.254  11.043
20582W        W92908   3.563   5.200   4.722
20583W        W92909  44.960  30.016  12.171
20584W        W92910  24.751  28.782   3.226
20585W        W92911   2.677  31.685   2.177
20586W        W92912  21.657  13.338   1.425
20587W        W92913  38.769  39.803   2.266
20588W        W92914   2.217  13.204  13.546
20589W        W92915  27.939  36.393   0.370
20590W        W92916   0.663   5.445   3.788
20591W        W92917  44.943  39.590   0.381
20592W        W92918  37.036  10.072  11.458
20593W        W92919  29.432  42.714  14.763
20594W        W92920  26.492   9.076   1.217
20595W        W92921  28.705   5.320   0.753
20596W        W92922  37.802  14.359  13.015
20597W        W92923   9.285  24.680  13.015
20598W        W92924  28.566  40.050   1.762
20599W        W92925  28.612   3.672  13.056
20600W        W92926  34.047  37.498   0.189
20601W        W92927   3.703  34.798   0.259
20602W        W92928   5.633  40.217   0.295
20603W        W92929   8.906  41.576  10.790
20604W        W92930  43.963   7.888   4.723
20605W        W92931   3.340  12.527   3.228
20606W        W92932  39.635  27.456   3.250
20607W        W92933   0.045  27.282   0.639
20608W        W92934  30.890   6.388   2.146
20609W        W92935  42.236  37.967  14.824
20610W        W92936   9.636  43.123  13.978
20611W        W92937   8.096  21.091   2.755
20612W        W92938  33.171  23.642  14.047
20613W        W92939  12.316   6.661  14.356
20614W        W92940  39.780  36.873  11.122
20615W        W92941  35.044  20.855   4.119
20616W        W92942  19.181  27.169  14.159
20617W        W92943  40.747  14.839   1.273
20618W        W92944  20.087   8.801   0.911
20619W        W92945   9.340  14.057  12.075
20620W        W92946  19.731  44.524   0.731
20621W        W92947  11.113  10.220  13.718
20622W        W92948   3.785  19.093  13.890
20623W        W92949  23.145  27.579   0.460
20624W        W92950  14.456  28.881   2.596
20625W        W92951  24.128  24.604   1.385
20626W        W92952   8.376  26.131  10.746
20627W        W92953   5.903  22.805  14.015
20628W        W92954   9.864   3.148   4.559
20629W        W92955  40.500  33.972   4.445
20630W        W92956  36.632  18.085  10.628
20631W        W92957   8.890  36.466  12.579
20632W        W92958  16.715  37.622  11.868
20633W        W92959  17.205  17.705   3.298
20634W        W92960  30.190   8.754  13.919
20635W        W92961  14.081  22.452   4.197
20636W        W92962   8.789   0.789  13.995
20637W        W92963  41.402   7.287   3.075
20638W        W92964  33.976  23.577  14.918
20639W        W92965  17.217   2.680  12.912
20640W        W92966  24.751   7.374   3.855
20641W        W92967   2.231   7.720   0.485
20642W        W92968  18.681  35.979   0.783
20643W        W92969  41.808  36.624   2.644
20644W        W92970  10.653  11.607   3.868
20645W        W92971   3.328  10.683   0.288
20646W        W92972  11.157  26.957   1.416
20647W        W92973  27.034  30.011  10.586
20648W        W92974  27.014  36.578   1.923
20649W        W92975   6.890  34.562   3.673
20650W        W92976   6.005  23.452   1.788
20651W        W92977   9.684  25.202   0.645
20652W        W92978   2.981  41.365   3.655
20653W        W92979  23.698   8.479   3.075
20654W        W92980   5.551   1.467   1.420
20655W        W92981   8.782  31.365  14.951
20656W        W92982   1.217  16.208   1.834
20657W        W92983  28.190  12.822   0.086
20658W        W92984  44.869  12.822   1.665
20659W        W92985  21.190  41.453   2.713
20660W        W92986   5.062  28.093  10.290
20661W        W92987   7.765  40.116  11.614
20662W        W92988  20.510  29.177   4.117
20663W        W92989  10.411  27.117   0.661
20664W        W92990  14.423  24.372   4.496
20665W        W92991  20.725  25.423  14.942
20666W        W92992  24.866  10.954   2.733
20667W        W92993  11.112  12.865  14.934
20668W        W92994  21.829  40.697  10.078
20669W        W92995  22.722   3.841  13.843
20670W        W92996  31.697  17.965   4.144
20671W        W92997  34.115  31.995   4.564
20672W        W92998  39.871  33.957  12.600
20673W        W92999  12.699  36.345   2.610
20674W        W93000  27.136  11.807   1.473
20675W        W93001  22.062  28.542   3.505
20676W        W93002  28.438  18.181  12.418
20677W        W93003   2.763  18.045  12.016
20678W        W93004  14.733  44.320   2.223
20679W        W93005   5.723  42.853  14.897
20680W        W93006  33.964  33.839   4.960
20681W        W93007  31.680  40.074   0.308
20682W        W93008  30.735   3.318  14.936
20683W        W93009   3.894  33.612   0.831
20684W        W93010  32.324  17.403  11.580
20685W        W93011  14.291  30.832   4.724
20686W        W93012  40.022   8.891   1.501
20687W        W93013   8.510  28.593   1.511
20688W        W93014  15.064   5.842   1.492
20689W        W93015  30.405  16.745  13.438
20690W        W93016  29.145  42.205   3.587
20691W        W93017  31.903   7.335  14.868
20692W        W93018  27.953  17.724   1.697
20693W        W93019  35.312  37.318   1.020
20694W        W93020  35.978  17.718  13.471
20695W        W93021  30.155   1.032  14.316
20696W        W93022  17.720  27.379   4.733
20697W        W93023  10.335  21.751  12.912
20698W        W93024   6.922  14.905  12.954
20699W        W93025  38.092   0.258  14.513
20700W        W93026   0.745  43.557  10.834
20701W        W93027  24.564  20.412   2.648
20702W        W93028   9.228   2.035   2.117
20703W        W93029  23.246  38.639  12.792
20704W        W93030   7.760  10.329   4.570
20705W        W93031  39.441  20.008  14.377
20706W        W93032   5.629   4.633   3.372
20707W        W93033  10.004  22.364  11.824
20708W        W93034  15.226  14.190   1.065
20709W        W93035  13.199   5.632  11.618
20710W        W93036   8.822  11.630  11.190
20711W        W93037   5.621  38.428  13.826
20712W        W93038  28.032  21.767  11.954
20713W        W93039  10.423   1.764  11.243
20714W        W93040  19.154  18.385  12.238
20715W        W93041  15.808   6.831   1.786
20716W        W93042   3.235  32.675  11.487
20717W        W93043  22.674  22.471   1.552
20718W        W93044  12.955  35.896  14.304
20719W        W93045   0.440  33.195  14.015
20720W        W93046   7.710   1.085  11.689
20721W        W93047  23.030  14.829   4.677
20722W        W93048   9.176  12.692  13.249
20723W        W93049  21.566  44.521   0.711
20724W        W93050  36.516  28.988   0.930
20725W        W93051  33.865  35.524   4.174
20726W        W93052  21.947  11.603  12.448
20727W        W93053  39.920  25.299  11.553
20728W        W93054  34.434  36.611  12.441
20729W        W93055   7.615  36.023  13.832
20730W        W93056   3.908  37.887   2.914
20731W        W93057  23.976   5.719   2.439
20732W        W93058  20.550  43.471   2.389
20733W        W93059   1.694  17.516   3.303
20734W        W93060  41.358  27.075  13.355
20735W        W93061  33.524  33.129   0.252
20736W        W93062  30.678  16.708   1.195
20737W        W93063   7.128  30.129  12.695
20738W        W93064  41.606  22.143  12.456
20739W        W93065  25.710   1.675  12.346
20740W        W93066   3.979   3.886   0.516
20741W        W93067  21.593  41.254  10.801
20742W        W93068  38.525  32.853   0.903
20743W        W93069  17.213  21.808  14.924
20744W        W93070   9.918  11.507  13.153
20745W        W93071  28.094  32.152   1.435
20746W        W93072  41.210  19.241   0.389
20747W        W93073  17.326  26.048   1.850
20748W        W93074  21.155   2.474  13.130
20749W        W93075   8.913  28.206   5.136
20750W        W93076  14.555  39.326  10.609
20751W        W93077   2.516  15.282   3.795
20752W        W93078  25.986  28.286  11.967
20753W        W93079  15.205  25.199  14.652
20754W        W93080  33.163  20.816   2.355
20755W        W93081  33.444  23.985   1.467
20756W        W93082  40.518  35.445   4.946
20757W        W93083  10.732  37.070   1.415
20758W        W93084  18.513  20.040   4.696
20759W        W93085  15.527  14.357   4.188
20760W        W93086   0.716  38.171  11.461
20761W        W93087   5.808  38.570  13.361
20762W        W93088   5.929  29.069  11.328
20763W        W93089  38.481  22.015   1.826
20764W        W93090  21.667  22.376  11.579
20765W        W93091  23.724  17.676  12.590
20766W        W93092  21.163   4.982  14.464
20767W        W93093  29.056  38.627  12.303
20768W        W93094  10.247  25.103  12.843
20769W        W93095   7.805   2.806  10.732
20770W        W93096  22.323  42.860  13.467
20771W        W93097   4.523   5.340  11.287
20772W        W93098   3.503  28.309   3.289
20773W        W93099  32.938  21.250   2.512
20774W        W93100  38.126  24.000   3.770
20775W        W93101   5.284  35.881   4.235
20776W        W93102  38.230  33.334  13.048
20777W        W93103  23.179   5.824  12.878
20778W        W93104  20.191  27.019   2.819
20779W        W93105  44.201  19.953  12.639
20780W        W93106  30.739  24.890   4.059
20781W        W93107  31.582   7.620   3.781
20782W        W93108   1.976  19.074  10.696
20783W        W93109  10.294  29.873   4.346
20784W        W93110   8.214  31.911   2.263
20785W        W93111  19.438   5.361  12.479
20786W        W93112  30.107   1.999   2.064
20787W        W93113  41.910  18.690  11.786
20788W        W93114  18.063   7.949   2.296
20789W        W93115  17.079  15.364   3.201
20790W        W93116  25.650  41.003   0.236
20791W        W93117  27.237  26.619   1.200
20792W        W93118   0.959  27.163   4.626
20793W        W93119  37.427   6.667   4.165
20794W        W93120   9.709   1.908   2.767
20795W        W93121  34.096  35.045  14.080
20796W        W93122  13.702  33.998   3.593
20797W        W93123   9.560  15.808   2.327
20798W        W93124  43.450  25.148  14.965
20799W        W93125  21.539  34.421   1.825
20800W        W93126   8.776   0.860   4.971
20801W        W93127  25.119  36.072  11.418
20802W        W93128  39.465   1.280  12.890
20803W        W93129  19.918  29.713   2.127
20804W        W93130  27.361  11.369  12.618
20805W        W93131   4.162  16.338   0.915
20806W        W93132  19.680  42.651  12.094
20807W        W93133   9.997  38.310  14.589
20808W        W93134  10.144  38.073   0.344
20809W        W93135  34.412  24.291  12.684
20810W        W93136  28.846  22.664   4.676
20811W        W93137  36.678  11.428  11.989
20812W        W93138  20.555  34.146   3.865
20813W        W93139  28.237  13.901  11.922
20814W        W93140  36.563  20.002   1.883
20815W        W93141  31.630  33.022   2.278
20816W        W93142  28.045  18.188   1.512
20817W        W93143  31.514  19.520   4.234
20818W        W93144  13.701  44.908  11.171
20819W        W93145  29.636  20.610   3.377
20820W        W93146   0.100  30.032  12.989
20821W        W93147   1.287   0.443  13.903
20822W        W93148  21.041  21.987  14.920
20823W        W93149  32.695  35.651  10.838
20824W        W93150  44.512  21.771   0.382
20825W        W93151   0.259  36.812  12.501
20826W        W93152  10.781  29.073   4.996
20827W        W93153  20.813   6.481   4.022
20828W        W93154  20.646  25.578  12.632
20829W        W93155   4.189   6.726   0.439
20830W        W93156   9.610  11.648   0.873
20831W        W93157  22.250  39.354   5.470
20832W        W93158  21.037  31.828   4.181
20833W        W93159   5.251  35.356  14.491
20834W        W93160  15.271  44.845   0.743
20835W        W93161   1.488  14.080   4.182
20836W        W93162  30.838   3.010   2.006
20837W        W93163  43.683  15.030   2.794
20838W        W93164  22.207   5.017   2.879
20839W        W93165   4.380  22.815  14.657
20840W        W93166  12.211  37.041   0.761
20841W        W93167  26.107  42.329  12.362
20842W        W93168  12.593  24.243  13.993
20843W        W93169  22.055  40.947   0.949
20844W        W93170  40.396  44.981   2.477
20845W        W93171  14.244  36.075  14.398
20846W        W93172  31.484  38.605   0.281
20847W        W93173  38.329  11.350   3.289
20848W        W93174  23.950  32.149  12.122
20849W        W93175  18.553  43.547   0.818
20850W        W93176   8.457  26.981   2.685
20851W        W93177   6.853   7.144   4.866
20852W        W93178  41.979   7.497  13.134
20853W        W93179  23.242  25.429  13.498
20854W        W93180  31.134  37.613   0.811
20855W        W93181   4.224   2.742  12.139
20856W        W93182   6.348  36.877  12.131
20857W        W93183   7.432  29.172  10.992
20858W        W93184  24.214  22.724  11.757
20859W        W93185  35.556   8.313   1.353
20860W        W93186  38.996   0.796  10.730
20861W        W93187  35.429  38.928   4.511
20862W        W93188  14.383  18.230   2.133
20863W        W93189  38.918  10.148   2.310
20864W        W93190  38.519  14.632  10.588
20865W        W93191   7.617  10.395  14.434
20866W        W93192   5.653   7.698   2.689
20867W        W93193  42.735  43.431   3.138
20868W        W93194  39.726  39.518   2.369
20869W        W93195  23.444  26.044   1.393
20870W        W93196  29.176   9.972  11.076
20871W        W93197  41.364  18.001  13.091
20872W        W93198  37.863  10.210  10.301
20873W        W93199  42.450   5.894   2.192
20874W        W93200   1.909   1.313   3.121
20875W        W93201  24.548  18.473   0.339
20876W        W93202  40.285  39.819  10.732
20877W        W93203  44.284  35.815   4.087
20878W        W93204   8.372  39.348  14.227
20879W        W93205  26.037  44.189   4.304
20880W        W93206   0.229  19.490  11.973
20881W        W93207  38.904  22.270   0.000
20882W        W93208   2.974  38.016   0.789
20883W        W93209  25.116  18.480  13.833
20884W        W93210   4.912  15.910  10.423
20885W        W93211  36.505  37.926  12.905
20886W        W93212  34.517  42.998   0.673
20887W        W93213   5.404  35.861  10.698
20888W        W93214   7.416  23.525   3.134
20889W        W93215  38.348  20.724   0.244
20890W        W93216  16.518  17.197   2.347
20891W        W93217   8.342  14.871  13.493
20892W        W93218  37.647   8.421  14.997
20893W        W93219   2.830  12.305  13.006
20894W        W93220  20.134   2.484  13.887
20895W        W93221  23.599  31.755  11.688
20896W        W93222  21.785  33.693  13.046
20897W        W93223  11.038  34.655  11.512
20898W        W93224  42.537  15.085  10.646
20899W        W93225  26.304  41.034   2.343
20900W        W93226  40.670  11.794  12.549
20901W        W93227  41.722  34.856  12.523
20902W        W93228  31.856   0.652   1.781
20903W        W93229   0.559  36.480   0.168
20904W        W93230  22.891  44.818   4.831
20905W        W93231  39.527   8.362   4.367
20906W        W93232  13.323  11.257  10.525
20907W        W93233  23.509  28.568   4.583
20908W        W93234  38.453  17.601   3.993
20909W        W93235  18.781  28.110   1.410
20910W        W93236   5.330  26.049  10.726
20911W        W93237  16.116  29.615  14.410
20912W        W93238  17.386  17.705   3.779
20913W        W93239  20.278  23.723  11.608
20914W        W93240   1.031  12.378   5.121
20915W        W93241   8.432  30.017  10.671
20916W        W93242  14.277  31.878   4.625
20917W        W93243  38.342   1.046   3.711
20918W        W93244  23.226  28.510  14.799
20919W        W93245  11.846  42.389  12.465
20920W        W93246   1.528   4.235   5.151
20921W        W93247  23.212  18.734   1.458
20922W        W93248  22.739   3.860  11.256
20923W        W93249  18.307   0.733   3.425
20924W        W93250  41.259  43.803   1.611
20925W        W93251  33.300  26.721  12.433
20926W        W93252  34.456  42.939   2.063
20927W        W93253  14.561  39.485  11.507
20928W        W93254   5.123  33.831  11.068
20929W        W93255  15.234   3.869  13.927
20930W        W93256   4.669  13.184   4.676
20931W        W93257  34.991  43.987  13.086
20932W        W93258   1.712  37.835   3.787
20933W        W93259  12.187  13.019  11.438
20934W        W93260  39.920   5.306  13.654
20935W        W93261  44.396   4.939  11.499
20936W        W93262   6.084   8.827  10.286
20937W        W93263  24.666  35.051  14.020
20938W        W93264  12.278  10.509  12.993
20939W        W93265  16.413  37.540   1.133
20940W        W93266  37.601  35.156   0.934
20941W        W93267  34.195   8.590   0.270
20942W        W93268  17.572  12.165  14.981
20943W        W93269  20.524  42.449  11.605
20944W        W93270   6.450  43.089  10.784
20945W        W93271  39.719  11.364  12.563
20946W        W93272  26.653  38.446   0.504
20947W        W93273  18.054  39.713  11.500
20948W        W93274  30.556   1.395  14.383
20949W        W93275  15.441  32.397  10.369
20950W        W93276  43.263   5.545   2.663
20951W        W93277   5.185  14.373  12.477
20952W        W93278  19.526  28.955   1.713
20953W        W93279  23.916   2.336   0.658
20954W        W93280  27.226  41.709  14.605
20955W        W93281  19.976  19.200   3.792
20956W        W93282  41.182  44.640  11.134
20957W        W93283  17.297   1.230   1.298
20958W        W93284  11.378  30.002   4.523
20959W        W93285  41.252  28.533   0.379
20960W        W93286  19.325   6.614  10.639
20961W        W93287  44.519  11.072  12.069
20962W        W93288  17.561   8.094   3.333
20963W        W93289  36.642  13.765   3.375
20964W        W93290  18.277  19.327  14.338
20965W        W93291  12.628  10.222  11.814
20966W        W93292  43.738  29.671  12.646
20967W        W93293   9.665  28.924   3.058
20968W        W93294  11.541  24.666  10.726
20969W        W93295  19.184  36.546  11.333
20970W        W93296  24.605  39.026   1.387
20971W        W93297  19.117  43.811   1.756
20972W        W93298  19.453  17.163   4.884
20973W        W93299  22.797   4.018   4.538
20974W        W93300   0.476  36.025   3.289
20975W        W93301  42.831  21.609   1.809
20976W        W93302   5.234  33.341  11.779
20977W        W93303  39.489   9.785   1.298
20978W        W93304  22.584  16.772   5.512
20979W        W93305   7.798  20.635  12.369
20980W        W93306  21.359  19.880  10.753
20981W        W93307   0.328  41.785  10.718
20982W        W93308  12.637  44.445   3.858
20983W        W93309  18.305  16.870   2.083
20984W        W93310  30.440   6.006  11.171
20985W        W93311  37.553  16.694   0.518
20986W        W93312  30.010  32.043   1.382
20987W        W93313  18.667  43.396   2.144
20988W        W93314  15.107  42.764   0.407
20989W        W93315  11.608  41.376   1.381
20990W        W93316  23.057   0.485   2.729
20991W        W93317  25.539  17.203  13.019
20992W        W93318  11.275  31.503  11.549
20993W        W93319   5.833  27.027  13.152
20994W        W93320  40.814  41.820  13.789
20995W        W93321  15.691  40.531   4.180
20996W        W93322  25.082   5.789  14.738
20997W        W93323   8.299  26.941   2.208
20998W        W93324  26.721  41.273  11.883
20999W        W93325  40.867   0.706   3.640
21000W        W93326  24.400   2.324  14.268
21001W        W93327  44.678  24.899  12.070
21002W        W93328  28.843  42.374   1.357
21003W        W93329  11.821  31.494   2.196
21004W        W93330   6.549  12.682   0.796
21005W        W93331  38.390  38.131  10.964
21006W        W93332  27.159  38.045  14.604
21007W        W93333  23.050  15.278   1.181
21008W        W93334  26.813  10.595   0.796
21009W        W93335  30.605  21.917   0.968
21010W        W93336   9.681   6.636  10.773
21011W        W93337   1.244  44.813   0.450
21012W        W93338  11.266  28.736   4.066
21013W        W93339  39.309   4.781   1.211
21014W        W93340   2.180  14.843   5.123
21015W        W93341  24.221  36.870   4.718
21016W        W93342  26.642  11.222   2.708
21017W        W93343   5.317  15.855  12.700
21018W        W93344  39.842  32.103  14.948
21019W        W93345  26.463  18.761  14.918
21020W        W93346  44.397  43.089   2.835
21021W        W93347  31.699  27.574  14.942
21022W        W93348  28.506  34.170  13.997
21023W        W93349  34.942  22.786   3.659
21024W        W93350   9.324  33.637   3.302
21025W        W93351  42.513  22.089   4.652
21026W        W93352   3.452  42.319  13.330
21027W        W93353  42.318   8.893   2.390
21028W        W93354  31.029  12.723  14.508
21029W        W93355  39.996  36.559  12.034
21030W        W93356  44.302   8.147   4.447
21031W        W93357  22.506   1.780   3.132
21032W        W93358  10.625  24.185  11.052
21033W        W93359  37.806  10.778   0.800
21034W        W93360   6.749  28.293  14.324
21035W        W93361   7.837   2.211   3.156
21036W        W93362  15.308  18.615  11.257
21037W        W93363  36.524  27.793   0.385
21038W        W93364  37.032  17.579   4.140
21039W        W93365   7.629  34.961   4.884
21040W        W93366  36.067  34.099  14.288
21041W        W93367  42.689   3.910  10.433
21042W        W93368  16.079  18.703   4.855
21043W        W93369  20.794   5.830   1.417
21044W        W93370  37.135  24.047  13.383
21045W        W93371  40.331   7.435  13.825
21046W        W93372   3.459  32.536   3.761
21047W        W93373  27.364  10.213  10.999
21048W        W93374  39.976  15.709   2.606
21049W        W93375  34.111  23.276   3.537
21050W        W93376   8.965   8.830   5.040
21051W        W93377  12.293  30.866  12.498
21052W        W93378  40.471  31.155   2.279
21053W        W93379  22.325  23.496  10.741
21054W        W93380  18.648  20.045  11.157
21055W        W93381  22.191  33.168   5.066
21056W        W93382  34.583   1.208  13.584
21057W        W93383  41.819  10.410  14.136
21058W        W93384  35.569   4.923  10.693
21059W        W93385  18.588  25.565  13.833
21060W        W93386  29.402   7.853  11.107
21061W        W93387  18.741  21.107  13.377
21062W        W93388  19.781  35.142   1.347
21063W        W93389   2.599  23.708   1.808
21064W        W93390  32.802   5.652  12.413
21065W        W93391  31.796  44.740  14.855
21066W        W93392  30.968   5.960   4.681
21067W        W93393  12.320   0.817  14.932
21068W        W93394   0.783   1.744  11.074
21069W        W93395  27.052   9.194  14.050
21070W        W93396   4.445  23.316   1.838
21071W        W93397  26.233   7.723   3.208
21072W        W93398  40.457  39.567  12.131
21073W        W93399  13.750  18.464  11.881
21074W        W93400  17.782  29.060  13.444
21075W        W93401   6.019  11.764  13.800
21076W        W93402  13.863  24.717  10.226
21077W        W93403  33.443  20.181  13.888
21078W        W93404  27.692  34.553   0.911
21079W        W93405   7.532  36.160  10.658
21080W        W93406  34.949   1.972  14.871
21081W        W93407  27.046  42.770  13.947
21082W        W93408   1.465  34.611  14.437
21083W        W93409  36.090   5.324   1.738
21084W        W93410  24.635  26.743   4.600
21085W        W93411  10.615  23.713  14.085
21086W        W93412  16.309   8.933  13.926
21087W        W93413   3.231   6.280  13.855
21088W        W93414  35.017  43.501   2.782
21089W        W93415  43.319   6.908   0.228
21090W        W93416   7.954  22.191   4.133
21091W        W93417  24.021   0.750   0.376
21092W        W93418  16.786  25.391  14.740
21093W        W93419  15.665  29.910   0.761
21094W        W93420  36.354  12.128   0.657
21095W        W93421  34.564  23.363  13.907
21096W        W93422  29.674  44.580  13.863
21097W        W93423   2.252  28.938  11.934
21098W        W93424  14.032  19.514   0.031
21099W        W93425  25.131  16.685   4.042
21100W        W93426  25.070  32.495   0.622
21101W        W93427  23.008   7.649   0.807
21102W        W93428  44.388   0.840  12.192
21103W        W93429  40.327   4.702  11.942
21104W        W93430   8.793  17.117   1.849
21105W        W93431  14.049  38.546   4.260
21106W        W93432  21.228  11.834  11.452
21107W        W93433   1.657  24.824  14.370
21108W        W93434   3.846  43.318  13.122
21109W        W93435  23.304   6.022  11.543
21110W        W93436  25.585  17.586   0.654
21111W        W93437  28.417  17.097   3.250
21112W        W93438   2.932  31.705   2.623
21113W        W93439  28.440  37.020   0.616
21114W        W93440  14.543  20.560  11.403
21115W        W93441   9.808  17.750   3.919
21116W        W93442  33.425   9.308   2.302
21117W        W93443  22.076   6.951   2.669
21118W        W93444  26.123  26.097   3.684
21119W        W93445  39.014   6.175   0.961
21120W        W93446   5.990  31.985  14.416
21121W        W93447   9.683  33.782  12.453
21122W        W93448  18.536   4.251  11.091
21123W        W93449  22.596  28.526   3.392
21124W        W93450  11.089   5.105   0.001
21125W        W93451  12.568   0.207   4.347
21126W        W93452   5.772  10.818   2.111
21127W        W93453  39.077  28.002   1.916
21128W        W93454  20.123  15.597  13.311
21129W        W93455  21.034  14.176   4.249
21130W        W93456  30.417   7.791  11.315
21131W        W93457  21.076  27.999  13.027
21132W        W93458  42.003  17.131  14.375
21133W        W93459  25.525  41.096  12.477
21134W        W93460  30.911  40.312   1.903
21135W        W93461  44.224  36.076  12.995
21136W        W93462  14.074  38.381   0.962
21137W        W93463  41.334   0.671   1.869
21138W        W93464  43.040   2.909  10.694
21139W        W93465  22.415   6.390   4.123
21140W        W93466  24.261  43.469   1.799
21141W        W93467  36.865   3.518   2.286
21142W        W93468   7.258   4.188  13.807
21143W        W93469  32.074   0.644  14.544
21144W        W93470  16.685   4.989  13.004
21145W        W93471  20.092  27.952  11.236
21146W        W93472  32.085  42.412  12.115
21147W        W93473  41.896  11.706   1.153
21148W        W93474  28.893  37.399  13.030
21149W        W93475  19.102   5.286   3.363
21150W        W93476   2.962   8.735   2.697
21151W        W93477  10.322  18.984   3.433
21152W        W93478   0.113  42.793  13.261
21153W        W93479   6.233  25.095   0.698
21154W        W93480  13.808   2.002   4.523
21155W        W93481  16.385   7.135   5.018
21156W        W93482  10.358   4.956   3.214
21157W        W93483  10.632  43.383  11.149
21158W        W93484  15.715  12.123   4.204
21159W        W93485   4.596  16.425  12.854
21160W        W93486  44.818  18.458   1.164
21161W        W93487  29.971  26.890  10.654
21162W        W93488   4.848  38.259   2.742
21163W        W93489  13.016   3.276   2.162
21164W        W93490  22.593   6.970   0.243
21165W        W93491  44.887  25.734  13.884
21166W        W93492  44.180   1.767   0.921
21167W        W93493  35.766  32.672   0.802
21168W        W93494  40.474  17.737   4.669
21169W        W93495  43.472  29.226   1.949
21170W        W93496  28.201  17.056   4.637
21171W        W93497   5.025   3.321   3.152
21172W        W93498   1.272  21.608   1.081
21173W        W93499  34.090  43.997  12.518
21174W        W93500   3.393   2.697   3.286
21175W        W93501  33.979  38.968   2.177
21176W        W93502  10.291  12.239  12.049
21177W        W93503  27.404  37.803   3.122
21178W        W93504  19.733  14.259  12.105
21179W        W93505  14.298  36.382  14.813
21180W        W93506  27.310  42.191   1.900
21181W        W93507  22.565  38.653  10.716
21182W        W93508   3.028  36.999  11.841
21183W        W93509  19.355  19.871  11.940
21184W        W93510  13.532  43.260   2.089
21185W        W93511  33.128  10.448   1.852
21186W        W93512  28.067  30.272   3.218
21187W        W93513  12.608  27.270  13.100
21188W        W93514  21.701  30.322   0.935
21189W        W93515  43.365   5.136   1.753
21190W        W93516  18.567  38.486  12.821
21191W        W93517  30.065  24.919  12.476
21192W        W93518   7.795  20.124   3.132
21193W        W93519  41.263   3.351  14.903
21194W        W93520  34.371   3.774   4.516
21195W        W93521  10.351  33.027   0.338
21196W        W93522  24.705  14.123  12.104
21197W        W93523  12.913  11.400  11.952
21198W        W93524   1.470  40.922  13.559
21199W        W93525  13.245  29.220   1.013
21200W        W93526  17.649  39.847  14.223
21201W        W93527  21.257  21.665  11.200
21202W        W93528  44.803   6.765  11.647
21203W        W93529  17.087  14.296   3.788
21204W        W93530  14.291  36.569   5.435
21205W        W93531  37.540  39.550   1.258
21206W        W93532  17.344  15.622   4.447
21207W        W93533  37.996  36.075   2.756
21208W        W93534  40.051  15.444  14.678
21209W        W93535  18.862  28.672  13.862
21210W        W93536  36.481   5.768  10.643
21211W        W93537  35.499   2.423   3.186
21212W        W93538  33.499  14.473   3.126
21213W        W93539  19.827   3.861  12.901
21214W        W93540  33.966  17.438  12.592
21215W        W93541  40.493  10.775   2.266
21216W        W93542  20.320  20.685   2.272
21217W        W93543  32.026  41.491  14.289
21218W        W93544   6.854  33.467   4.268
21219W        W93545  36.997  14.041  13.541
21220W        W93546  14.114   2.454  13.797
21221W        W93547  37.732  12.191   0.787
21222W        W93548   3.703  35.491  13.508
21223W        W93549  27.260   1.371   0.443
21224W        W93550  34.497   6.528   3.429
21225W        W93551  11.150  43.353  11.086
21226W        W93552   3.513  41.442  11.362
21227W        W93553  12.741  24.240   4.115
21228W        W93554  14.063  33.944  10.558
21229W        W93555  14.843  38.949  12.387
21230W        W93556   4.741  17.144  14.836
21231W        W93557  38.304   3.048   1.664
21232W        W93558  30.892   3.949  10.706
21233W        W93559  35.582   0.443   4.266
21234W        W93560  27.983   1.828   1.219
21235W        W93561   5.641  27.625  11.331
21236W        W93562   9.709  41.360  13.546
21237W        W93563  27.124  24.085  13.960
21238W        W93564   0.441  25.222   2.826
21239W        W93565  25.516  26.714   4.526
21240W        W93566   3.058  21.343   2.767
21241W        W93567  21.654  18.169  10.332
21242W        W93568  42.038  13.789  14.461
21243W        W93569  11.612   2.506  13.754
21244W        W93570  11.293  14.042   1.026
21245W        W93571  19.336  32.463   2.294
21246W        W93572  25.211  17.214   5.229
21247W        W93573  44.729  14.516  12.086
21248W        W93574  29.260   0.803   4.691
21249W        W93575   2.267  21.634   0.657
21250W        W93576  24.720   1.364   2.270
21251W        W93577  32.031  17.706  10.897
21252W        W93578  24.171  13.247  12.415
21253W        W93579   9.977  34.909  10.695
21254W        W93580  42.290   6.184  14.017
21255W        W93581  38.520  19.903  11.934
21256W        W93582  10.764  28.268  11.114
21257W        W93583  19.228  32.349   4.162
21258W        W93584   8.682  36.327  14.844
21259W        W93585  38.421  28.938   2.800
21260W        W93586   3.905  12.239  13.017
21261W        W93587   8.314  32.962   3.386
21262W        W93588   0.825  10.808  12.403
21263W        W93589  25.188  24.053   3.193
21264W        W93590  26.981  21.686  10.304
21265W        W93591  20.451  36.399  10.954
21266W        W93592   9.345  39.299   1.169
21267W        W93593  12.178  12.328  12.965
21268W        W93594  28.091  15.411  10.771
21269W        W93595   0.086  12.251   4.721
21270W        W93596  43.692  22.552   2.782
21271W        W93597   9.449  33.141  13.592
21272W        W93598  12.356  20.702  13.829
21273W        W93599  35.584  44.945   0.275
21274W        W93600  17.567   3.494  11.494
21275W        W93601  18.591  32.958  14.578
21276W        W93602  28.561  29.276  13.424
21277W        W93603   9.743  24.667  14.456
21278W        W93604  13.236  29.972   3.917
21279W        W93605  30.965  26.978   0.946
21280W        W93606   9.792   8.204   4.677
21281W        W93607  30.083  28.545   1.237
21282W        W93608  38.458  35.996   4.983
21283W        W93609  29.089  23.069  11.528
21284W        W93610  33.614   0.062   1.050
21285W        W93611   3.537   9.700   0.376
21286W        W93612  11.831   6.844   3.962
21287W        W93613   1.044  21.079   2.679
21288W        W93614  42.137  14.183   2.908
21289W        W93615  38.084  15.966   0.238
21290W        W93616   8.252   4.226  11.940
21291W        W93617  44.430  15.341   0.345
21292W        W93618  39.541  12.126   2.619
21293W        W93619   6.947  11.667   1.592
21294W        W93620  24.578  32.648  11.566
21295W        W93621   1.975  33.547   0.696
21296W        W93622   9.644  31.222  13.483
21297W        W93623   5.298  17.738  12.512
21298W        W93624  30.637  34.948   1.045
21299W        W93625  16.216   6.984   3.631
21300W        W93626  23.614  33.746   1.469
21301W        W93627  36.609  31.941   2.252
21302W        W93628  16.055  30.121  14.500
21303W        W93629  35.813  24.090  12.891
21304W        W93630  12.861  27.009   3.061
21305W        W93631  41.135  17.197   0.014
21306W        W93632  43.518  40.930   2.695
21307W        W93633  22.561   5.724   0.449
21308W        W93634  19.631  22.464   2.298
21309W        W93635  25.474  41.902  13.336
21310W        W93636  42.069  28.940   3.596
21311W        W93637   7.951  35.871   0.551
21312W        W93638  11.944  42.803   3.724
21313W        W93639  12.809   0.800  10.672
21314W        W93640  38.057  40.598   2.734
21315W        W93641   2.508  24.503   2.283
21316W        W93642  30.470   9.196  11.634
21317W        W93643  27.995  21.956   2.429
21318W        W93644  22.245   9.343  13.003
21319W        W93645  24.914   5.505   1.706
21320W        W93646   7.997  17.633  12.961
21321W        W93647   2.709  21.548   0.923
21322W        W93648  36.637  12.262  11.017
21323W        W93649  19.252  40.876   2.738
21324W        W93650  33.565  31.007  13.528
21325W        W93651  26.981  30.224   0.287
21326W        W93652  34.936  16.808  12.481
21327W        W93653   6.621  42.194   1.644
21328W        W93654  33.272  16.148   2.680
21329W        W93655  39.452  37.662   3.044
21330W        W93656  31.090  26.930  13.641
21331W        W93657  35.947  21.478  13.403
21332W        W93658  17.876  14.625  11.075
21333W        W93659  42.452   3.456   4.103
21334W        W93660  11.619  16.557  14.762
21335W        W93661  39.121  43.348   0.248
21336W        W93662  43.554  17.278  13.000
21337W        W93663  31.639   9.718  12.370
21338W        W93664  39.472  13.398   2.904
21339W        W93665   4.949  32.430   1.160
21340W        W93666  35.562  10.300   2.731
21341W        W93667  18.015  37.683  11.875
21342W        W93668  16.702  22.879   1.785
21343W        W93669  17.205  15.352   2.308
21344W        W93670  15.322  44.429  14.824
21345W        W93671   2.200   3.263  11.515
21346W        W93672   6.354  11.123  11.996
21347W        W93673  34.852   5.872  11.107
21348W        W93674  28.578  35.842   3.488
21349W        W93675  19.053  25.064   2.426
21350W        W93676  14.616  30.320  14.687
21351W        W93677   3.966  18.032  11.254
21352W        W93678   9.729  18.880  11.736
21353W        W93679   1.247  20.168   3.634
21354W        W93680  43.210  13.116  10.723
21355W        W93681  44.913  26.694  14.102
21356W        W93682  10.896  37.091  13.307
21357W        W93683  36.561  16.759  10.722
21358W        W93684  37.396  34.958  10.732
21359W        W93685  36.560  28.955   3.219
21360W        W93686  18.682  43.524   3.709
21361W        W93687   5.400  16.623  12.822
21362W        W93688  30.572   4.179   4.975
21363W        W93689  32.073  10.534   2.384
21364W        W93690   0.326  38.945   1.864
21365W        W93691  38.579  25.038  14.425
21366W        W93692  42.819  43.587   2.191
21367W        W93693  43.922  30.490   3.653
21368W        W93694  19.218  32.823   0.335
21369W        W93695  27.412  15.631   5.111
21370W        W93696  38.511   6.134   0.175
21371W        W93697  24.550  16.136   0.019
21372W        W93698  14.780  33.366   0.324
21373W        W93699  29.021  33.442   4.366
21374W        W93700  31.309  18.146  10.136
21375W        W93701  36.599  17.042   0.472
21376W        W93702  33.153  40.739  14.898
21377W        W93703  35.961  31.623  11.142
21378W        W93704  11.853  30.032  14.805
21379W        W93705  17.163  25.181   3.757
21380W        W93706   6.278  28.275  11.465
21381W        W93707  20.605   0.490  12.562
21382W        W93708  29.536  34.799  14.445
21383W        W93709   7.917   1.695  13.383
21384W        W93710  12.089   0.452  11.470
21385W        W93711  36.382  39.903  12.024
21386W        W93712   6.776  24.602  12.853
21387W        W93713  29.543  36.654  11.959
21388W        W93714  20.469  34.172  13.916
21389W        W93715  30.987   2.924   3.329
21390W        W93716  27.449  14.706   0.438
21391W        W93717  14.842  10.301   4.764
21392W        W93718  35.918  40.291   0.049
21393W        W93719  41.399  27.969   2.930
21394W        W93720  43.996   4.209  10.607
21395W        W93721   1.958  17.170   1.306
21396W        W93722   9.160  36.893  12.493
21397W        W93723  41.535  16.071   2.256
21398W        W93724  37.347   1.916  11.915
21399W        W93725  35.670   7.439  12.888
21400W        W93726   6.910  33.391   3.757
21401W        W93727   5.152   1.299  13.312
21402W        W93728  33.143  25.595   1.724
21403W        W93729  12.772   6.940  11.197
21404W        W93730  29.174  39.039   2.170
21405W        W93731  31.556  26.444   3.733
21406W        W93732   2.349  20.108   1.867
21407W        W93733   1.360  20.280  11.715
21408W        W93734   8.725  13.391  11.993
21409W        W93735  29.224  41.344  10.572
21410W        W93736  43.975  19.600  14.259
21411W        W93737  16.059  32.661   3.748
21412W        W93738  30.864  31.094  13.564
21413W        W93739  20.792  28.473   3.745
21414W        W93740  16.967  44.746  10.470
21415W        W93741  12.167  30.367  12.665
21416W        W93742  44.175  34.264  14.842
21417W        W93743  26.083   8.033  10.942
21418W        W93744  42.668  29.578   3.196
21419W        W93745  29.573  35.225  10.567
21420W        W93746  23.034  17.214   9.625
21421W        W93747  12.743   9.914   4.251
21422W        W93748   4.886  36.167   0.474
21423W        W93749   7.837  39.465  14.372
21424W        W93750  14.365  34.677   0.545
21425W        W93751  33.127  19.513   3.744
21426W        W93752  12.378   3.686   0.346
21427W        W93753  16.130  28.172   1.210
21428W        W93754  34.069  29.898   2.928
21429W        W93755  41.058  31.413   0.288
21430W        W93756   6.052   1.669  12.055
21431W        W93757  18.771  43.351  13.390
21432W        W93758  44.551   8.348   3.702
21433W        W93759  21.290  11.184   1.230
21434W        W93760  24.781  41.806  13.042
21435W        W93761  35.976  18.579  12.110
21436W        W93762   2.842  13.343  13.782
21437W        W93763  16.269  30.619   1.202
21438W        W93764   1.377   8.301   2.094
21439W        W93765  10.414  20.574   1.625
21440W        W93766  40.956  15.510  13.726
21441W        W93767  37.326   1.860   2.249
21442W        W93768  37.000   2.841   3.710
21443W        W93769  36.897  44.821  11.155
21444W        W93770  19.207  38.963  13.453
21445W        W93771  30.193  34.061  11.637
21446W        W93772  36.069  35.669  14.033
21447W        W93773  42.336  35.107   2.805
21448W        W93774   0.063  17.727  11.650
21449W        W93775  16.343  18.174  11.112
21450W        W93776  22.748  18.396   4.084
21451W        W93777   7.281  37.632  10.458
21452W        W93778  22.266  38.362  13.866
21453W        W93779  25.409  24.783  13.081
21454W        W93780  10.364  26.170   0.398
21455W        W93781  36.700  15.808  12.053
21456W        W93782   9.156  33.816  10.231
21457W        W93783   5.063  36.747  13.357
21458W        W93784  32.977  34.329  11.230
21459W        W93785  24.900  16.320  10.670
21460W        W93786  18.846  24.572   2.529
21461W        W93787  19.264  16.577   4.197
21462W        W93788  14.374   0.352  11.555
21463W        W93789  30.003   9.171  12.954
21464W        W93790  32.388  26.644   0.487
21465W        W93791  16.065  27.916  12.219
21466W        W93792  16.219  18.670  14.465
21467W        W93793  16.828  17.041   0.260
21468W        W93794  33.525  26.813  14.420
21469W        W93795  34.135  33.889   1.837
21470W        W93796  31.519  38.173  14.820
21471W        W93797   8.673   4.641   2.333
21472W        W93798  29.899  11.526  11.971
21473W        W93799   1.817  20.696   3.749
21474W        W93800  41.842   6.860   4.694
21475W        W93801   6.267  13.402  10.383
21476W        W93802  20.608  31.671  12.048
21477W        W93803  22.198   4.861   1.454
21478W        W93804  12.324  11.252  10.753
21479W        W93805   4.876  10.538   1.575
21480W        W93806   3.789  30.586  12.155
21481W        W93807   7.737  21.589   4.343
21482W        W93808   8.414  24.921   3.937
21483W        W93809  10.922  36.568  13.334
21484W        W93810  14.666   1.112   2.127
21485W        W93811  24.915  24.213   3.626
21486W        W93812   0.737  39.724   1.746
21487W        W93813  10.166  17.481  10.665
21488W        W93814   7.336   8.759   0.723
21489W        W93815  39.065   0.535  11.630
21490W        W93816  12.590  18.059   0.526
21491W        W93817   4.255  29.624  11.543
21492W        W93818  44.167  20.171   1.477
21493W        W93819  41.734  26.954   4.590
21494W        W93820  34.463  13.973   1.221
21495W        W93821  24.808  18.271   0.733
21496W        W93822  38.564  13.212   0.217
21497W        W93823   8.886  16.165  10.710
21498W        W93824  19.555  40.420  12.562
21499W        W93825   5.522   5.381   2.836
21500W        W93826  17.095   4.815   0.946
21501W        W93827  43.483  37.576   3.296
21502W        W93828  37.959  24.436   2.734
21503W        W93829  35.310  34.052   4.607
21504W        W93830  19.120   3.307  11.283
21505W        W93831  26.863   7.825   3.663
21506W        W93832  33.835  36.088   9.876
21507W        W93833  29.567   1.027  14.898
21508W        W93834   5.939  12.174   1.025
21509W        W93835  18.512  16.467  12.870
21510W        W93836  30.811  44.617   3.829
21511W        W93837  21.543  37.511   2.222
21512W        W93838  41.364  16.742  12.365
21513W        W93839  31.014  29.655  11.202
21514W        W93840  37.033  35.543   4.612
21515W        W93841  29.008  17.197   4.178
21516W        W93842   4.890  39.825  11.637
21517W        W93843  11.334  32.217  13.141
21518W        W93844  13.283  37.126   2.112
21519W        W93845  10.631  32.490   1.915
21520W        W93846  21.528  36.891   2.722
21521W        W93847   5.411  33.985  12.621
21522W        W93848  10.709  27.573   4.614
21523W        W93849  31.951  13.167  14.857
21524W        W93850  44.237  37.432   2.419
21525W        W93851  31.239  25.549  12.843
21526W        W93852  33.610   7.158  12.879
21527W        W93853  34.969  28.769   1.395
21528W        W93854  40.453  12.996  11.905
21529W        W93855   1.977  22.198   2.164
21530W        W93856  31.804  33.505  11.964
21531W        W93857  32.138  25.752   2.507
21532W        W93858  38.355  43.493   2.074
21533W        W93859   4.440  29.620   0.180
21534W        W93860  20.312  43.342   1.443
21535W        W93861  20.120   5.397  13.501
21536W        W93862  29.877   1.765   1.141
21537W        W93863  38.535  17.439  13.079
21538W        W93864  19.031  12.933   2.256
21539W        W93865  27.591  34.007  13.500
21540W        W93866  28.789  28.756   0.513
21541W        W93867  39.597  44.430   2.794
21542W        W93868   3.444  11.882  10.700
21543W        W93869   1.294  38.462   2.439
21544W        W93870   9.135  12.395   4.210
21545W        W93871  39.502  10.833   2.214
21546W        W93872  39.014  19.242   0.954
21547W        W93873  14.241  31.379   4.034
21548W        W93874  25.515  33.354   1.852
21549W        W93875  28.972   1.886  14.070
21550W        W93876   8.883   8.667   3.698
21551W        W93877   2.512  14.230  12.804
21552W        W93878  25.376   5.437  13.436
21553W        W93879  23.694  35.402  10.893
21554W        W93880  33.967   1.012  10.572
21555W        W93881  10.889  19.085   4.568
21556W        W93882  20.265  27.608   1.420
21557W        W93883  14.773  44.041  10.697
21558W        W93884  15.748  25.093  11.947
21559W        W93885   7.661  13.416  11.131
21560W        W93886   7.879  20.619   2.944
21561W        W93887  24.711  35.629   2.833
21562W        W93888  43.469  14.270  14.099
21563W        W93889   1.005  27.711  13.939
21564W        W93890  42.219  25.152   2.207
21565W        W93891  40.925  34.379   0.872
21566W        W93892   2.398   2.427   2.304
21567W        W93893  28.428   3.505  12.390
21568W        W93894  22.611  29.934   3.910
21569W        W93895   2.413  18.639   0.839
21570W        W93896  23.637  26.682   0.999
21571W        W93897  33.877  18.515  10.703
21572W        W93898   3.186  32.103   3.729
21573W        W93899   0.855   1.362  12.456
21574W        W93900  36.770  42.805   2.735
21575W        W93901   4.443   3.676   2.219
21576W        W93902  13.677  15.237   3.651
21577W        W93903  30.730  18.090  14.519
21578W        W93904  43.941  41.935   0.008
21579W        W93905   0.270  44.895  13.487
21580W        W93906  43.843  28.695  11.961
21581W        W93907   4.853  31.348  14.973
21582W        W93908  17.512   8.178   4.941
21583W        W93909  12.693  21.652   0.270
21584W        W93910   8.600  24.164  12.558
21585W        W93911  30.593   0.316   0.335
21586W        W93912  39.877  14.573   4.153
21587W        W93913  33.941  22.662  11.293
21588W        W93914   9.620  34.375  11.484
21589W        W93915   8.463  38.860  14.458
21590W        W93916  34.186  33.368   1.838
21591W        W93917   8.324   6.703  14.961
21592W        W93918   1.210  19.262   3.755
21593W        W93919   9.828  27.166   1.592
21594W        W93920  17.742  15.045   3.768
21595W        W93921   4.373  34.922  13.844
21596W        W93922  40.395  38.774   2.816
21597W        W93923   6.420  41.095   0.240
21598W        W93924  21.177  44.892   0.745
21599W        W93925  13.349  41.334  14.839
21600W        W93926  22.541  10.214  11.919
21601W        W93927  18.268   5.971  12.173
21602W        W93928   5.661   2.534   2.752
21603W        W93929  15.653   5.493  12.868
21604W        W93930  24.483  36.905   1.857
21605W        W93931  10.755  30.608  13.778
21606W        W93932  23.268  35.007  12.968
21607W        W93933   9.735  10.669   3.135
21608W        W93934   3.427  23.746   1.932
21609W        W93935  16.198  24.295  13.360
21610W        W93936  24.203  11.295   4.767
21611W        W93937  30.085  44.865  14.816
21612W        W93938  33.397  32.663  10.994
21613W        W93939   9.426  22.807  11.090
21614W        W93940  17.871  22.001   0.844
21615W        W93941  26.102  12.051   2.245
21616W        W93942  29.628   7.654  14.895
21617W        W93943  42.249   8.532   4.698
21618W        W93944  14.218  16.539   1.970
21619W        W93945  21.554   1.880  11.189
21620W        W93946  19.040  12.644  10.806
21621W        W93947  27.024  32.016   2.217
21622W        W93948  42.878  44.462   0.781
21623W        W93949  29.083  13.041   1.658
21624W        W93950  33.490  32.670  13.505
21625W        W93951  43.438  44.553   3.779
21626W        W93952  12.951  23.281  13.775
21627W        W93953  40.241  18.165  12.950
21628W        W93954  16.813  26.098  12.744
21629W        W93955  23.632   7.161   1.981
21630W        W93956   0.929  23.022  11.205
21631W        W93957  21.710  41.957  12.570
21632W        W93958  21.967  16.550  10.677
21633W        W93959  30.943   3.784   3.856
21634W        W93960  14.829  22.837  10.811
21635W        W93961  20.540  26.192  14.381
21636W        W93962  15.811   9.337  12.888
21637W        W93963  33.071   1.995  10.891
21638W        W93964  10.894   8.738  14.127
21639W        W93965   1.381  11.191   9.772
21640W        W93966   3.244  44.776   2.908
21641W        W93967  19.266   2.444  10.802
21642W        W93968  26.089  33.835   2.957
21643W        W93969  14.736   7.951   1.864
21644W        W93970  43.877   4.427  12.885
21645W        W93971  29.444   3.489  13.334
21646W        W93972  11.319  23.156  10.564
21647W        W93973   6.642   4.367  11.238
21648W        W93974  24.809  36.486  14.890
21649W        W93975   5.762  39.490  13.585
21650W        W93976  23.403  34.269   2.807
21651W        W93977   3.737   9.320  13.506
21652W        W93978  11.196  27.664   4.513
21653W        W93979   5.482   9.762  10.682
21654W        W93980  32.108  20.515   3.125
21655W        W93981  22.068  18.704  13.017
21656W        W93982   9.236  15.590  10.809
21657W        W93983   8.356  31.202   3.690
21658W        W93984  28.969  27.731   1.721
21659W        W93985  28.695  43.137  10.845
21660W        W93986  39.753  20.018   4.837
21661W        W93987  35.047  23.707   0.866
21662W        W93988  29.643  41.548  14.017
21663W        W93989  11.418  26.616   1.726
21664W        W93990  25.986  24.328   2.274
21665W        W93991  43.193   5.774   4.467
21666W        W93992  32.319  39.499  14.055
21667W        W93993  14.791  39.995  10.189
21668W        W93994  30.148   5.199  11.970
21669W        W93995  12.741  14.269  11.512
21670W        W93996  21.480   2.209  13.432
21671W        W93997  36.579  15.159   4.139
21672W        W93998  37.486  35.403   1.413
21673W        W93999  36.970  39.882   2.781
21674W        W94000   8.884  20.489  12.995
21675W        W94001  22.101   5.722  14.772
21676W        W94002  30.642   3.971   2.458
21677W        W94003  24.019  27.964   0.744
21678W        W94004   4.071   3.790  14.998
21679W        W94005  28.555  33.559  10.362
21680W        W94006  32.959   8.907   0.779
21681W        W94007  12.930  26.146  10.699
21682W        W94008  23.897  11.631   4.424
21683W        W94009  11.955  30.123   3.736
21684W        W94010  12.307  22.666   4.417
21685W        W94011  18.183  33.157  12.896
21686W        W94012  24.998  21.656   3.609
21687W        W94013  20.707   7.891  12.945
21688W        W94014  26.138   4.015  13.983
21689W        W94015  22.555  33.133   4.574
21690W        W94016   1.711  43.966  13.907
21691W        W94017  23.931  18.529  12.385
21692W        W94018  18.306   6.871  13.404
21693W        W94019  23.668  16.288  11.168
21694W        W94020  40.532   8.826   5.009
21695W        W94021  24.503  18.807  11.511
21696W        W94022   8.901  36.326  12.074
21697W        W94023  33.030  43.492  11.645
21698W        W94024  11.331   2.789  12.812
21699W        W94025  20.672  27.889   2.307
21700W        W94026  44.831  17.885  11.213
21701W        W94027  12.070  37.244  12.740
21702W        W94028  11.748  16.755   4.595
21703W        W94029  38.965  21.954   0.977
21704W        W94030  36.888  33.748  14.843
21705W        W94031  26.098  22.274  11.443
21706W        W94032  14.560  39.902  11.189
21707W        W94033  29.511  38.338   1.890
21708W        W94034  34.189  44.373  11.951
21709W        W94035  30.220  11.377  11.560
21710W        W94036  30.068  15.636   1.924
21711W        W94037  24.051  10.672  11.148
21712W        W94038  26.491  23.728  13.381
21713W        W94039   7.480  26.712   0.995
21714W        W94040  42.567   7.497  14.971
21715W        W94041  31.153   6.788   2.333
21716W        W94042  16.702  14.974   3.320
21717W        W94043  11.269  23.174  12.009
21718W        W94044   7.674  26.467  13.940
21719W        W94045  42.229   2.035   1.379
21720W        W94046  24.250  43.761  13.896
21721W        W94047  33.550  15.736   2.824
21722W        W94048  24.581  37.196   3.617
21723W        W94049  39.307  11.231   1.960
21724W        W94050  38.557  27.471  14.483
21725W        W94051  13.289  25.481  12.143
21726W        W94052  30.585  12.826   0.904
21727W        W94053  17.338  23.677   2.399
21728W        W94054  37.311  33.420  11.988
21729W        W94055   2.403  26.313  12.188
21730W        W94056  12.178  34.434  14.336
21731W        W94057  31.629  24.498   3.730
21732W        W94058  18.622  36.864   1.771
21733W        W94059  38.861   0.970   4.127
21734W        W94060  27.118   7.439  14.814
21735W        W94061  11.176  26.848   4.031
21736W        W94062  15.522  43.980   2.062
21737W        W94063  43.044  36.753  11.510
21738W        W94064  20.536  27.674   4.133
21739W        W94065  16.589   7.667   0.365
21740W        W94066  24.691  33.974   4.075
21741W        W94067  19.180   9.463   4.759
21742W        W94068  35.794  38.734  13.369
21743W        W94069  36.753  37.981  11.013
21744W        W94070  34.382  37.928  12.981
21745W        W94071  41.737  41.696   4.880
21746W        W94072  20.714  31.831  11.186
21747W        W94073  31.571  43.234  14.700
21748W        W94074  21.151  36.347   1.294
21749W        W94075   2.258  12.488   9.770
21750W        W94076  26.196  42.471   0.753
21751W        W94077  26.290  27.594  14.312
21752W        W94078  32.967  42.783  13.969
21753W        W94079  22.748  10.172   1.868
21754W        W94080  11.745   3.223   3.316
21755W        W94081  35.537  21.278  11.708
21756W        W94082  26.161  15.303  11.629
21757W        W94083   8.705  23.526  10.954
21758W        W94084  31.939  17.076  12.781
21759W        W94085  15.011  43.401  14.146
21760W        W94086  39.555  13.155  11.899
21761W        W94087  19.350   5.653  10.427
21762W        W94088  21.463  37.902   5.410
21763W        W94089  21.708  24.148   2.849
21764W        W94090  41.097  29.455   2.846
21765W        W94091  11.203  36.632  13.786
21766W        W94092   4.952  16.388   9.998
21767W        W94093  38.031  33.973  10.757
21768W        W94094  19.817  32.576   0.479
21769W        W94095  19.599  22.681  11.609
21770W        W94096   4.875  37.332   3.184
21771W        W94097  17.220  18.828  11.134
21772W        W94098  19.885  39.857  11.777
21773W        W94099  30.121  27.690  13.045
21774W        W94100  25.206  32.384  14.855
21775W        W94101   5.473  28.712  14.668
21776W        W94102  12.300  12.296   4.655
21777W        W94103   2.246  10.426   1.238
21778W        W94104   5.164  27.152   3.155
21779W        W94105  28.500  34.837   4.301
21780W        W94106  43.749  37.654   1.935
21781W        W94107  22.901  26.460  13.581
21782W        W94108   4.281  41.008  13.960
21783W        W94109  43.309  30.321  10.609
21784W        W94110  33.645   8.914  10.206
21785W        W94111  39.458  22.045  10.763
21786W        W94112   2.454  19.176  14.285
21787W        W94113  38.076   4.084  11.690
21788W        W94114  37.969  44.712   2.784
21789W        W94115  19.036  28.096  10.782
21790W        W94116  35.980  14.090  14.902
21791W        W94117   9.145  34.606   3.203
21792W        W94118   5.714  13.685  14.545
21793W        W94119  39.922  20.535  14.981
21794W        W94120  11.997  43.879  12.367
21795W        W94121  23.217  23.591   4.080
21796W        W94122  26.641  12.403  12.577
21797W        W94123  38.936   0.273   1.993
21798W        W94124  22.056   7.717   4.434
21799W        W94125  23.744  33.609   4.072
21800W        W94126  13.196   1.814   1.573
21801W        W94127   4.824   4.868   0.378
21802W        W94128  33.100  28.981   3.244
21803W        W94129  22.638  40.350   2.522
21804W        W94130  24.631  15.251  14.757
21805W        W94131  23.055   6.441  11.963
21806W        W94132  13.569  42.778   1.415
21807W        W94133  16.085  36.048  10.696
21808W        W94134  38.598  34.897  11.068
21809W        W94135  14.073   2.647  12.856
21810W        W94136  37.477   9.965   5.537
21811W        W94137  42.778  28.679  14.219
21812W        W94138  18.865  24.687  11.812
21813W        W94139  19.535  26.309   1.256
21814W        W94140  39.745  23.467   4.048
21815W        W94141  39.151  27.766   2.375
21816W        W94142  13.931  25.693   3.885
21817W        W94143   9.988  17.279  14.742
21818W        W94144  34.194  34.121  10.637
21819W        W94145  37.987   5.630   0.666
21820W        W94146  33.707  33.975  10.595
21821W        W94147   7.809  42.339   0.490
21822W        W94148   9.312  35.430  10.769
21823W        W94149  13.808  37.114   3.227
21824W        W94150  38.405  11.885   1.924
21825W        W94151  39.466  40.024   1.452
21826W        W94152  41.112  41.335  12.139
21827W        W94153   7.916   2.323   1.694
21828W        W94154   7.694  10.971  12.714
21829W        W94155  24.692   2.456  12.920
21830W        W94156  10.367  40.034  14.141
21831W        W94157   4.143   9.744   4.262
21832W        W94158  30.547   9.684  11.019
21833W        W94159  10.194   5.838   0.771
21834W        W94160  28.042   1.025   4.111
21835W        W94161  14.031   6.120   4.100
21836W        W94162  37.656  32.991   1.112
21837W        W94163   3.861  42.528   1.670
21838W        W94164  42.391  22.716  11.412
21839W        W94165  19.786  43.886   3.742
21840W        W94166  38.400  38.074  12.277
21841W        W94167   5.729  18.113  11.293
21842W        W94168  12.756  28.351  10.962
21843W        W94169  25.989  11.644   3.509
21844W        W94170  28.507  37.436  14.856
21845W        W94171   5.734   0.842   2.444
21846W        W94172  20.198   9.288  11.676
21847W        W94173   7.253  14.865   3.647
21848W        W94174  34.311  12.257   4.712
21849W        W94175  21.932  19.264   1.259
21850W        W94176  26.577  10.363   0.330
21851W        W94177  43.307  12.739  14.957
21852W        W94178  41.282  44.023   1.145
21853W        W94179  13.200   3.946   4.577
21854W        W94180  41.031   2.972  11.870
21855W        W94181   0.985  35.835  13.726
21856W        W94182  11.970  32.108  14.503
21857W        W94183  17.671  23.802   2.784
21858W        W94184  24.588  39.448   2.167
21859W        W94185   3.757  21.987   0.764
21860W        W94186  39.179  24.519  12.025
21861W        W94187  41.193  20.002  11.432
21862W        W94188   6.838  29.073  13.862
21863W        W94189  42.427  11.830   0.965
21864W        W94190  29.320  10.208  14.274
21865W        W94191   0.252   9.530  13.831
21866W        W94192   5.352  13.165  12.139
21867W        W94193  43.724  33.380   3.357
21868W        W94194  42.289   1.412   4.607
21869W        W94195  26.149  10.555  11.294
21870W        W94196  13.046   8.317  12.616
21871W        W94197  26.855   4.244  11.627
21872W        W94198  24.040   7.436  10.790
21873W        W94199  13.203  33.998  13.542
21874W        W94200   0.763  37.800   3.818
21875W        W94201  26.714  11.820  13.284
21876W        W94202  40.150  14.072  14.992
21877W        W94203   3.785  44.433  13.959
21878W        W94204  38.110  40.358   0.312
21879W        W94205  38.587  34.622   0.488
21880W        W94206  43.750  32.052  10.763
21881W        W94207  12.890  12.890   2.295
21882W        W94208  43.311  16.101   3.292
21883W        W94209  34.029  11.761  10.954
21884W        W94210  16.250  18.069   3.235
21885W        W94211  40.993  21.639   1.680
21886W        W94212  18.097  20.737   2.362
21887W        W94213  11.651  38.590   0.276
21888W        W94214   0.212  43.784  13.825
21889W        W94215  21.786  22.438   0.522
21890W        W94216  23.701  42.763   1.909
21891W        W94217  28.582  14.262   3.379
21892W        W94218  19.188  38.532   0.678
21893W        W94219  43.358   5.026   0.251
21894W        W94220  35.130  21.506   4.771
21895W        W94221  30.903  31.130   2.998
21896W        W94222   7.282  25.181  14.841
21897W        W94223  44.831  18.452  11.130
21898W        W94224  23.630  27.446   1.640
21899W        W94225  21.777   6.679   2.214
21900W        W94226   8.244  24.932   4.673
21901W        W94227  22.602  22.576   9.989
21902W        W94228  30.391  42.841  12.053
21903W        W94229   7.872  28.592  13.810
21904W        W94230   2.900  31.861  13.377
21905W        W94231  12.145   7.203   1.251
21906W        W94232  10.654  27.085   0.181
21907W        W94233  32.502  18.354  14.949
21908W        W94234  19.365  11.922   4.510
21909W        W94235  35.432  21.708   3.074
21910W        W94236   9.402  42.316   0.236
21911W        W94237   0.478  13.707  10.788
21912W        W94238  33.745  26.030   3.234
21913W        W94239  36.792   2.465   1.007
21914W        W94240   2.381  35.501  12.771
21915W        W94241   6.129  44.075  12.904
21916W        W94242  21.516  14.637  11.520
21917W        W94243  40.972  27.578  14.498
21918W        W94244  34.727  34.997   0.546
21919W        W94245  40.380   6.706  14.609
21920W        W94246  11.883  19.606   4.080
21921W        W94247  12.077  19.629  14.594
21922W        W94248  14.336   3.736   3.373
21923W        W94249  19.310  15.443  11.947
21924W        W94250  25.578  15.462   5.097
21925W        W94251  29.142   8.242  12.547
21926W        W94252  44.388  12.077  11.052
21927W        W94253   0.607   0.809   2.460
21928W        W94254  20.218  23.679  12.482
21929W        W94255  36.084  40.745  12.540
21930W        W94256  44.350  26.910   3.242
21931W        W94257   9.659  39.360  11.652
21932W        W94258  41.758  39.047  12.107
21933W        W94259  27.931   7.847   4.646
21934W        W94260  13.463  38.798  12.979
21935W        W94261  20.731  20.351   2.128
21936W        W94262  31.323   6.868  14.371
21937W        W94263   9.700  43.500  11.439
21938W        W94264  28.872  41.464   3.380
21939W        W94265  33.429   8.015   3.661
21940W        W94266  17.034  18.261   2.573
21941W        W94267  22.235  14.200  11.649
21942W        W94268  42.378  15.805   0.273
21943W        W94269  16.199  22.120   2.191
21944W        W94270  10.993  37.322   3.155
21945W        W94271   8.339  26.418   2.224
21946W        W94272   4.371  31.264  12.933
21947W        W94273  33.244  44.897  10.970
21948W        W94274  31.347  31.217   2.737
21949W        W94275  28.668  27.077  11.503
21950W        W94276  25.784  23.774  12.279
21951W        W94277  35.153  19.142  13.864
21952W        W94278  11.148  41.215   1.958
21953W        W94279  28.735  39.626  13.065
21954W        W94280  40.470  25.550  12.954
21955W        W94281  43.029  28.473  12.607
21956W        W94282  22.716   8.882   4.958
21957W        W94283  25.092  37.217   1.243
21958W        W94284   5.684  44.892   2.271
21959W        W94285  12.611  23.079   4.333
21960W        W94286  37.512  11.640   4.045
21961W        W94287  43.795  12.027   4.809
21962W        W94288  36.380   9.566   3.378
21963W        W94289  41.345  42.223   0.677
21964W        W94290  28.107  34.576   3.347
21965W        W94291   6.862  22.784   1.932
21966W        W94292  31.530  16.310  13.772
21967W        W94293  25.672   6.673  12.060
21968W        W94294  16.806  37.682  13.932
21969W        W94295  20.293  12.745  13.827
21970W        W94296  36.187  12.270  10.793
21971W        W94297  41.406  40.277   1.867
21972W        W94298  25.628  41.790   2.099
21973W        W94299  31.254   6.684   1.321
21974W        W94300  11.719   1.463   2.858
21975W        W94301   5.780   3.748  11.500
21976W        W94302   7.640  24.663  13.970
21977W        W94303  39.403  26.719  14.501
21978W        W94304  34.681  26.693   2.838
21979W        W94305  13.027  38.372   1.700
21980W        W94306  29.953  26.163   0.509
21981W        W94307  27.874   7.776   1.324
21982W        W94308  23.138  32.087   1.881
21983W        W94309  35.105  22.623   1.279
21984W        W94310  44.044  39.134   0.922
21985W        W94311  22.127  40.117   4.676
21986W        W94312  38.779  10.446  11.161
21987W        W94313  20.381   2.848   2.596
21988W        W94314   4.967  33.207   4.163
21989W        W94315  25.101   1.295   1.913
21990W        W94316  19.131  34.113   1.739
21991W        W94317  37.340   2.911  11.485
21992W        W94318  19.285  14.721  12.862
21993W        W94319   3.255   5.843  12.367
21994W        W94320   8.735  12.299   2.285
21995W        W94321  37.496  11.242   4.343
21996W        W94322  44.348   6.156  10.609
21997W        W94323  35.107  41.045  13.600
21998W        W94324  18.568  31.141   2.890
21999W        W94325  29.960   0.043  14.351
22000W        W94326  11.682  13.155   3.118
22001W        W94327  24.782   3.284  12.794
22002W        W94328  30.615   7.396  14.304
22003W        W94329  22.240  10.261  13.337
22004W        W94330  31.594  19.165   1.430
22005W        W94331  11.084  26.989   9.579
22006W        W94332  43.326  40.297   4.038
22007W        W94333  21.801   4.316   1.627
22008W        W94334  12.206   7.638  11.598
22009W        W94335  28.268  14.466  10.575
22010W        W94336  39.013  12.479  12.168
22011W        W94337  39.526  30.672  14.688
22012W        W94338  16.176  33.628  13.607
22013W        W94339  29.406   9.607   0.379
22014W        W94340  10.834  37.323   4.023
22015W        W94341  25.181   2.325   0.872
22016W        W94342  12.064  43.804   0.235
22017W        W94343  22.064  33.830  12.015
22018W        W94344   7.437   0.422   1.244
22019W        W94345  11.381   0.657   0.890
22020W        W94346  19.358  17.302  11.551
22021W        W94347  13.582  40.498   1.828
22022W        W94348   2.429  18.032   3.016
22023W        W94349   8.777  43.512  13.797
22024W        W94350  20.278  41.011  13.483
22025W        W94351  33.860   7.436   1.331
22026W        W94352  16.538  33.981  13.481
22027W        W94353  30.638   1.219   1.311
22028W        W94354  13.416  31.315  12.459
22029W        W94355  20.981   0.737  14.963
22030W        W94356  28.932  19.640  10.519
22031W        W94357   4.866  26.473  14.776
22032W        W94358   3.507   2.297  11.090
22033W        W94359  36.706  41.788   1.095
22034W        W94360  31.200   2.400   4.132
22035W        W94361  43.131   6.656  13.971
22036W        W94362  10.289  25.709   4.747
22037W        W94363   1.548  39.233   4.417
22038W        W94364  30.812  14.221  11.397
22039W        W94365  33.658  36.295   3.175
22040W        W94366  28.925  14.816  12.978
22041W        W94367  35.734   9.397   5.031
22042W        W94368  23.598  14.177   9.897
22043W        W94369  26.265  13.497   1.909
22044W        W94370  10.783   2.962  12.574
22045W        W94371  27.381  31.852   3.614
22046W        W94372  22.558   6.297   3.257
22047W        W94373  31.755  44.562   4.805
22048W        W94374  12.320  38.945  10.498
22049W        W94375  30.008  24.435  11.515
22050W        W94376  27.848  12.112  11.234
22051W        W94377  32.038  25.517   2.019
22052W        W94378  30.269  29.053   1.330
22053W        W94379  19.164  27.632   2.108
22054W        W94380  37.964  25.202  11.691
22055W        W94381  37.379  39.369   3.736
22056W        W94382  32.387  44.273  12.498
22057W        W94383   7.301  27.626   2.958
22058W        W94384  24.956  42.273   1.415
22059W        W94385  27.056  11.829  11.900
22060W        W94386   9.654  22.680   1.344
22061W        W94387  31.639  10.128  12.041
22062W        W94388  10.635  25.653  11.132
22063W        W94389  13.995  18.370   1.346
22064W        W94390  41.883  34.578   4.680
22065W        W94391  27.048  29.978  11.886
22066W        W94392  22.211  36.807  14.395
22067W        W94393  20.469  27.536  12.392
22068W        W94394  16.705  37.412   3.291
22069W        W94395  25.552  36.596   3.209
22070W        W94396  25.603  43.635  11.449
22071W        W94397   4.825  39.602  11.152
22072W        W94398  18.545  44.765   1.127
22073W        W94399  27.963  19.079   0.610
22074W        W94400  25.016  15.388   0.804
22075W        W94401  18.651  14.690   0.294
22076W        W94402  23.131  22.768   0.278
22077W        W94403  27.612  33.543   2.901
22078W        W94404  38.075  34.540   0.923
22079W        W94405  16.568  10.268   2.249
22080W        W94406  32.553  36.252   3.414
22081W        W94407  38.840  44.843   0.253
22082W        W94408  29.240  13.609   0.173
22083W        W94409  44.288  19.586  11.879
22084W        W94410  32.897  15.474  11.215
22085W        W94411   8.082   6.913   2.535
22086W        W94412  19.925  24.503  11.177
22087W        W94413  11.327  34.627  12.012
22088W        W94414  10.120  41.295   1.396
22089W        W94415  35.073   9.891   4.073
22090W        W94416   1.686  27.649  11.106
22091W        W94417   2.282   3.909   3.926
22092W        W94418  15.396  21.719  10.536
22093W        W94419  44.744  37.419  10.100
22094W        W94420  23.262  43.830  12.467
22095W        W94421  21.856  43.915   2.007
22096W        W94422  12.019   6.260  12.424
22097W        W94423  28.629  19.328   2.349
22098W        W94424  29.960   5.396   3.661
22099W        W94425  40.646  20.000   9.887
22100W        W94426   0.379  37.081  10.617
22101W        W94427  30.135  11.637  11.127
22102W        W94428  44.213   3.654   4.470
22103W        W94429  37.891  31.880  12.929
22104W        W94430   2.012  11.774   4.563
22105W        W94431  41.789  13.221  12.111
22106W        W94432   8.204  24.037   3.193
22107W        W94433  21.688   0.943  14.241
22108W        W94434  10.454  23.709  11.032
22109W        W94435   6.244   6.517   2.903
22110W        W94436  16.213  30.052  10.761
22111W        W94437  42.092  11.034   1.743
22112W        W94438  36.450  27.463   4.083
22113W        W94439  40.219  25.868   3.136
22114W        W94440  37.366   1.817   9.832
22115W        W94441  41.995  10.547   1.816
22116W        W94442  42.168  41.190   5.214
22117W        W94443  31.535   7.601  11.406
22118W        W94444  11.077   4.232   2.717
22119W        W94445  27.020  31.602   5.082
22120W        W94446  25.458   4.100   1.722
22121W        W94447  29.730  41.366  14.986
22122W        W94448   1.431  18.203   2.875
22123W        W94449   9.359  17.788  10.984
22124W        W94450  19.202  21.071  11.833
22125W        W94451  24.065   8.723   3.331
22126W        W94452   1.331  18.846   4.322
22127W        W94453  15.300   0.143  13.419
22128W        W94454  28.552  29.276   3.770
22129W        W94455   3.961  19.228   0.285
22130W        W94456  23.462  11.239  12.206
22131W        W94457  13.395  37.427  11.135
22132W        W94458  11.912  39.834  10.723
22133W        W94459  34.920   5.609  13.337
22134W        W94460  37.485  20.269  10.988
22135W        W94461   2.848   9.225  11.056
22136W        W94462  39.489   8.606  12.549
22137W        W94463  34.819  28.546  10.721
22138W        W94464  16.358  20.122   3.738
22139W        W94465  31.453  24.797   4.128
22140W        W94466  19.330   4.824   3.072
22141W        W94467   9.202  19.661  12.942
22142W        W94468   0.963  15.103   4.317
22143W        W94469  40.432  15.332  13.858
22144W        W94470   2.688   5.707   4.805
22145W        W94471  33.478  31.344   3.100
22146W        W94472  16.302  41.583   0.399
22147W        W94473   0.753  34.458   2.915
22148W        W94474  15.181  11.745  11.474
22149W        W94475  22.455  33.772   2.813
22150W        W94476  32.210   3.712   1.423
22151W        W94477  13.640  31.771  12.321
22152W        W94478   1.295  43.840  14.534
22153W        W94479  12.519  15.400   3.234
22154W        W94480  15.195  33.877   4.888
22155W        W94481   5.469  17.833   1.464
22156W        W94482  35.101   1.340   3.376
22157W        W94483   2.414  41.048  11.900
22158W        W94484  24.776  21.056  14.888
22159W        W94485  44.331   6.462   0.375
22160W        W94486  18.269   3.870  13.481
22161W        W94487  23.974  25.279  13.039
22162W        W94488  34.358  33.590   0.303
22163W        W94489  16.828  24.647  11.947
22164W        W94490  13.309  20.165  14.552
22165W        W94491  33.504  28.076  14.777
22166W        W94492  36.970  40.746   4.600
22167W        W94493  42.161  12.213  12.467
22168W        W94494   0.331  18.070  12.889
22169W        W94495  17.378  19.509  14.234
22170W        W94496  23.736  17.360   1.832
22171W        W94497   6.110  38.419  12.430
22172W        W94498  22.075  22.048   2.259
22173W        W94499  43.485  21.070   2.753
22174W        W94500  32.072  18.494  12.915
22175W        W94501  17.318  16.057  11.286
22176W        W94502  20.633  39.614   4.271
22177W        W94503  16.214  31.166  10.610
22178W        W94504  23.692  27.111   0.629
22179W        W94505  40.886  16.184  14.894
22180W        W94506  18.740  28.734  12.950
22181W        W94507   4.403  43.282  12.909
22182W        W94508  22.041  32.757   0.065
22183W        W94509   0.389   8.293  14.454
22184W        W94510  16.741  40.735  12.027
22185W        W94511   7.420   7.779   0.015
22186W        W94512  30.105   1.485  13.395
22187W        W94513  18.739  12.617  14.512
22188W        W94514  28.452  22.925  13.841
22189W        W94515  21.029   5.865  12.026
22190W        W94516   3.398  16.879   3.716
22191W        W94517  10.326  35.678   2.447
22192W        W94518  23.135  26.410  10.745
22193W        W94519  41.535  43.548   4.549
22194W        W94520   6.079  39.924  10.235
22195W        W94521  20.052  26.936  11.618
22196W        W94522  44.259  40.254   4.169
22197W        W94523   0.112  29.090   1.265
22198W        W94524  42.970  32.138  12.872
22199W        W94525   2.294  21.147   1.722
22200W        W94526   2.392  22.003   2.435
22201W        W94527  28.273  26.098   5.434
22202W        W94528   9.633  16.134   0.400
22203W        W94529  25.565  19.551  13.143
22204W        W94530   2.756  27.107  13.739
22205W        W94531   5.694  14.566   3.702
22206W        W94532  11.111  40.783   3.578
22207W        W94533  35.277  15.655  14.214
22208W        W94534  28.981   4.145  11.663
22209W        W94535  39.872  38.463   4.225
22210W        W94536   7.244  34.078   2.838
22211W        W94537   3.845   3.307   2.887
22212W        W94538   6.832  25.073   3.128
22213W        W94539  38.297  29.109   3.282
22214W        W94540  43.585   7.243  14.914
22215W        W94541  15.137  39.361  13.828
22216W        W94542  28.146  26.025   2.216
22217W        W94543  22.610  15.174   1.414
22218W        W94544  20.194  20.839   1.394
22219W        W94545  43.346   0.783   4.185
22220W        W94546  27.308  36.742   4.128
22221W        W94547  41.282   2.372   0.830
22222W        W94548  36.094  15.530   3.795
22223W        W94549  32.039  15.249  10.790
22224W        W94550   6.838   4.028  10.389
22225W        W94551  20.591   8.917   0.817
22226W        W94552   8.382  13.639   0.614
22227W        W94553  27.076   2.887   2.825
22228W        W94554   8.724  37.258   1.657
22229W        W94555   9.628  44.364  11.718
22230W        W94556  36.848  18.606  11.649
22231W        W94557  18.590   6.320  12.999
22232W        W94558   9.637  18.579   3.802
22233W        W94559   6.278  43.445   3.225
22234W        W94560  25.205  28.487  11.587
22235W        W94561  27.421  15.293   2.303
22236W        W94562  34.995  25.781  11.967
22237W        W94563  40.397  17.190   4.343
22238W        W94564  16.746  37.746   2.325
22239W        W94565   6.306  18.255   3.234
22240W        W94566  35.033  12.048  10.063
22241W        W94567  14.876   7.746  14.400
22242W        W94568  25.106  39.539  14.279
22243W        W94569   9.592   7.424  12.421
22244W        W94570  26.120  33.392   3.225
22245W        W94571  17.577   9.357   1.314
22246W        W94572  34.838   6.706  12.513
22247W        W94573   1.297  10.453   3.499
22248W        W94574   9.817  41.306   2.299
22249W        W94575  41.020  32.887  11.212
22250W        W94576  43.666  34.619   4.581
22251W        W94577   8.765  37.003  12.834
22252W        W94578  40.470  44.956  11.576
22253W        W94579  26.208   6.970   2.154
22254W        W94580  35.813  34.846   5.081
22255W        W94581   6.868  19.158  10.709
22256W        W94582  35.808  21.465   4.188
22257W        W94583  17.588  14.044  12.449
22258W        W94584   5.781  25.420  11.253
22259W        W94585   0.837  29.601  12.365
22260W        W94586  22.694  19.189  14.931
22261W        W94587   4.816  18.839  12.470
22262W        W94588   1.732  12.393   0.443
22263W        W94589  23.767   1.197   1.888
22264W        W94590  24.506  20.848  12.850
22265W        W94591  17.807   7.214   3.699
22266W        W94592   8.732   0.845   1.172
22267W        W94593  21.957  39.853   4.261
22268W        W94594  16.156  38.530  10.669
22269W        W94595  28.982   6.248   0.366
22270W        W94596  14.723   8.949  12.914
22271W        W94597   8.492  27.527   3.793
22272W        W94598   7.757  17.578  12.494
22273W        W94599  16.546  20.019   0.812
22274W        W94600  23.754  35.588   3.683
22275W        W94601   6.865  11.020  12.100
22276W        W94602  44.360   9.150  14.506
22277W        W94603  11.882  30.531  14.682
22278W        W94604   6.792  12.275  12.513
22279W        W94605  36.245  13.245  14.834
22280W        W94606  11.735  34.813   1.713
22281W        W94607  20.482  21.769  11.830
22282W        W94608  38.838  34.890   1.423
22283W        W94609  23.080  15.892  14.742
22284W        W94610   3.846   9.141  10.996
22285W        W94611  21.896   3.209  12.496
22286W        W94612  22.210  29.652   2.164
22287W        W94613  23.445  12.124   1.242
22288W        W94614  38.829  27.613   3.689
22289W        W94615  32.582  19.238  11.607
22290W        W94616  26.986  39.629  13.149
22291W        W94617  29.519  26.756  13.534
22292W        W94618  23.609  20.178   4.653
22293W        W94619  24.886  39.494   3.028
22294W        W94620   6.040  10.437   4.105
22295W        W94621  36.027  36.134   3.076
22296W        W94622  27.476  16.040  11.172
22297W        W94623  14.886  41.855  11.069
22298W        W94624   0.450  13.147  13.142
22299W        W94625   0.038  30.889  12.939
22300W        W94626  30.929  25.229   3.733
22301W        W94627  14.686   6.640   3.079
22302W        W94628  40.518  20.516  10.844
22303W        W94629  30.414  21.266   1.191
22304W        W94630   7.579  35.104   3.572
22305W        W94631  30.324   6.278  13.454
22306W        W94632  33.942  22.607   4.545
22307W        W94633   5.337  27.680  12.888
22308W        W94634  29.742  32.977   0.428
22309W        W94635  28.391  19.139  12.241
22310W        W94636   1.465  20.696   4.275
22311W        W94637  15.754  20.550   1.804
22312W        W94638  14.354   7.377   4.135
22313W        W94639  25.628  30.595   4.402
22314W        W94640  27.654  33.970  14.537
22315W        W94641   2.701  39.598   1.359
22316W        W94642  17.033  34.758   5.336
22317W        W94643  29.726  16.383   0.359
22318W        W94644   3.639  31.928  11.532
22319W        W94645   3.994   2.359  12.492
22320W        W94646  14.231   8.691   4.871
22321W        W94647  28.975  26.936  13.423
22322W        W94648  20.998  24.002   2.200
22323W        W94649  21.014  24.573   2.738
22324W        W94650   4.964  20.798   4.961
22325W        W94651  21.085  31.932  10.262
22326W        W94652  43.408  26.649  11.613
22327W        W94653  32.637  25.595   4.735
22328W        W94654  38.607  26.115   1.521
22329W        W94655  42.810  12.789  10.639
22330W        W94656  31.944   2.043   2.028
22331W        W94657  30.073   3.139   1.285
22332W        W94658  22.609  12.311  10.938
22333W        W94659  43.511  13.969   0.128
22334W        W94660  22.217   3.308   4.110
22335W        W94661  38.080  10.867   3.311
22336W        W94662  14.321  15.069  11.437
22337W        W94663  26.666  23.035  14.122
22338W        W94664  22.212  24.101   3.173
22339W        W94665   9.778  29.146   1.507
22340W        W94666  31.157   2.939   0.453
22341W        W94667  14.678  36.304   0.381
22342W        W94668  42.526  42.824  13.423
22343W        W94669  19.147  25.287   4.432
22344W        W94670  28.253   3.144  11.142
22345W        W94671  26.591  27.605   3.281
22346W        W94672   8.910   4.253   3.281
22347W        W94673  33.274  41.758   4.137
22348W        W94674  35.446  16.769   2.270
22349W        W94675  19.096   5.251   2.335
22350W        W94676  44.969  27.583   4.672
22351W        W94677   6.275  39.495  14.196
22352W        W94678  25.106  12.420   0.348
22353W        W94679   2.204  23.720   4.997
22354W        W94680  35.820  10.292   2.269
22355W        W94681  23.607  11.737   3.972
22356W        W94682   5.946  18.742  14.894
22357W        W94683  32.480   2.993  12.528
22358W        W94684  26.207   6.724   0.713
22359W        W94685  21.654  30.195  14.044
22360W        W94686  22.492   0.045  14.917
22361W        W94687  22.740  28.314  10.307
22362W        W94688  29.024  41.149   1.593
22363W        W94689  11.651  17.234  10.139
22364W        W94690  38.352  37.650  13.441
22365W        W94691  21.053   5.952   2.746
22366W        W94692  18.653   7.778   4.601
22367W        W94693   8.167  12.756   3.798
22368W        W94694   0.059  27.548   2.727
22369W        W94695  13.144  19.078  12.897
22370W        W94696  17.797  26.556   2.839
22371W        W94697   2.976  35.495   1.347
22372W        W94698  27.696  30.686   3.273
22373W        W94699  21.566  24.146   3.806
22374W        W94700  24.939  31.669  11.129
22375W        W94701  17.104  36.159   2.199
22376W        W94702  36.951  12.885  10.117
22377W        W94703  28.165  34.075  10.634
22378W        W94704   3.234  28.181  13.463
22379W        W94705   0.510  30.349  11.610
22380W        W94706  22.114  38.135   4.779
22381W        W94707   6.733  18.752  12.559
22382W        W94708  26.489  29.540   0.946
22383W        W94709  28.697  22.504  12.930
22384W        W94710   6.273  30.078  12.745
22385W        W94711  22.426  42.260  12.072
22386W        W94712   9.046   2.333   4.628
22387W        W94713  34.420  35.297  14.434
22388W        W94714  27.243  31.420  13.546
22389W        W94715   5.827  37.047   0.198
22390W        W94716  11.159  40.330   4.348
22391W        W94717   9.685  25.991   1.874
22392W        W94718   0.447  38.544  11.154
22393W        W94719   0.574  25.697   2.371
22394W        W94720   6.338  38.370  14.232
22395W        W94721  26.501  31.588  11.457
22396W        W94722  17.964  20.696  11.646
22397W        W94723  35.251   5.193  13.420
22398W        W94724   2.193  29.031   4.181
22399W        W94725  26.676  22.567  10.608
22400W        W94726   1.063   4.321   4.421
22401W        W94727  22.260  18.352   0.274
22402W        W94728  20.901  17.040   2.811
22403W        W94729   0.171  35.114  10.725
22404W        W94730   6.860   1.871   1.339
22405W        W94731  43.982  29.433  13.812
22406W        W94732  28.075  41.243  11.974
22407W        W94733  16.039   7.497   3.616
22408W        W94734  32.104  38.941  14.928
22409W        W94735  30.229  44.952  12.239
22410W        W94736  41.919  23.068   1.011
22411W        W94737   1.637  30.656  10.566
22412W        W94738  16.278  10.245   0.796
22413W        W94739  33.925   2.947   4.267
22414W        W94740  32.180  17.114   5.298
22415W        W94741  10.893   8.834  10.741
22416W        W94742  13.587  40.479  13.042
22417W        W94743  10.932  15.046  11.048
22418W        W94744   2.672  38.969  13.118
22419W        W94745  30.024   2.947   0.347
22420W        W94746  23.310  44.391   3.313
22421W        W94747  32.216  11.480  10.945
22422W        W94748  44.428  29.224   4.766
22423W        W94749  13.215  40.341   2.351
22424W        W94750  42.976  21.711   4.606
22425W        W94751  24.129   9.185  12.850
22426W        W94752  42.943  16.055  13.137
22427W        W94753  24.032  33.438   1.445
22428W        W94754  30.403   6.324  11.568
22429W        W94755  18.495  11.874   0.409
22430W        W94756  12.129  13.738   1.293
22431W        W94757  12.064  30.388  11.142
22432W        W94758   3.182  39.905   2.852
22433W        W94759  17.734   9.059   1.701
22434W        W94760  19.789  33.072  14.789
22435W        W94761   9.335  18.584  12.063
22436W        W94762   2.771  22.489   4.666
22437W        W94763  29.955  34.495   2.846
22438W        W94764  42.826  35.905  11.073
22439W        W94765  16.615  23.255   2.901
22440W        W94766  34.195  38.874  12.756
22441W        W94767  38.982  36.056   4.743
22442W        W94768  10.889   2.454  12.650
22443W        W94769  28.254  18.642   1.425
22444W        W94770  44.963  10.377  12.845
22445W        W94771  25.942   8.265   2.277
22446W        W94772  44.310  24.084   4.770
22447W        W94773   8.064  16.621   4.538
22448W        W94774  25.160   6.516  12.078
22449W        W94775   0.907  31.932   4.143
22450W        W94776  40.047  20.312  10.716
22451W        W94777   8.619  29.468   2.237
22452W        W94778   1.652  36.562  14.307
22453W        W94779  25.266  23.051  13.113
22454W        W94780  18.385  41.763   4.166
22455W        W94781  13.306  40.307   0.468
22456W        W94782  37.246  39.379  12.995
22457W        W94783   2.613  38.506   2.893
22458W        W94784  32.830  15.465  11.897
22459W        W94785   8.805  25.732   3.734
22460W        W94786  44.994  15.180   3.982
22461W        W94787  41.934   7.368  11.515
22462W        W94788  43.536   3.249   5.018
22463W        W94789  36.046   1.828   4.755
22464W        W94790  13.762  43.067  14.895
22465W        W94791   7.838  18.690  14.340
22466W        W94792  17.519   8.920   4.602
22467W        W94793  40.931  24.061   1.161
22468W        W94794  33.556  16.542  13.637
22469W        W94795  18.507  36.083  11.043
22470W        W94796  34.343  39.396   2.361
22471W        W94797  33.817  31.068   1.783
22472W        W94798  25.246   2.597   2.908
22473W        W94799  34.134  37.995  12.051
22474W        W94800  15.234   9.200   3.769
22475W        W94801  30.865  17.951  11.460
22476W        W94802   6.659  27.308  13.488
22477W        W94803  15.650  42.851   2.810
22478W        W94804  34.216   1.233   4.945
22479W        W94805  13.757  29.490   2.671
22480W        W94806  18.284  22.486   4.022
22481W        W94807   5.166  26.922   3.631
22482W        W94808   4.619  34.003   3.632
22483W        W94809  25.978  31.002  12.037
22484W        W94810  14.125  24.408   0.953
22485W        W94811  18.263  32.628  14.323
22486W        W94812  18.785   7.807   2.684
22487W        W94813  40.098  34.444  14.900
22488W        W94814  26.713   5.089  12.048
22489W        W94815  25.127  13.664  12.539
22490W        W94816  39.061  30.858   3.325
22491W        W94817  32.999  26.542  12.796
22492W        W94818   1.515   0.731  12.637
22493W        W94819  37.623  30.948   3.017
22494W        W94820  10.230  35.628  11.164
22495W        W94821  35.568   3.515  14.691
22496W        W94822  15.221  18.534  12.634
22497W        W94823  36.398  13.764  14.857
22498W        W94824  44.781  35.312  13.279
22499W        W94825  38.353  36.397   4.660
22500W        W94826  35.550  34.518   4.643
22501W        W94827  29.622   1.310  14.443
22502W        W94828  28.490  10.699  13.460
22503W        W94829  32.556  16.622  13.376
22504W        W94830  14.095  18.725   2.742
22505W        W94831  34.148   1.894   1.190
22506W        W94832  29.653  42.309   3.608
22507W        W94833   1.877   8.727   4.690
22508W        W94834  37.308   3.376   3.706
22509W        W94835  19.104  42.872  12.347
22510W        W94836  21.101   1.821  13.406
22511W        W94837  12.353  17.336   2.108
22512W        W94838   2.899  10.326  13.733
22513W        W94839  22.283  38.957   5.064
22514W        W94840   7.773  36.334   0.413
22515W        W94841  33.192  11.307  12.385
22516W        W94842  16.270  12.680  14.991
22517W        W94843  36.618  32.976  12.281
22518W        W94844  26.096   4.595   2.724
22519W        W94845  32.834  35.809   3.339
22520W        W94846  20.474  39.073  12.995
22521W        W94847   6.306  37.538  11.422
22522W        W94848  25.525  11.433   3.623
22523W        W94849  11.377  29.675   0.698
22524W        W94850  22.178  11.058  11.489
22525W        W94851  39.867   3.159   0.480
22526W        W94852  26.095  27.227   4.567
22527W        W94853  21.770  24.515   3.284
22528W        W94854   9.940  13.584   1.562
22529W        W94855  39.578  13.711   0.686
22530W        W94856  12.693  13.777  14.872
22531W        W94857  38.420   4.889   4.355
22532W        W94858  27.822  25.461  11.029
22533W        W94859  17.333   4.350   0.680
22534W        W94860  36.481   8.676   3.784
22535W        W94861  26.491  17.069   3.228
22536W        W94862  30.323  21.617  12.088
22537W        W94863  44.326   4.217  13.109
22538W        W94864  13.356  37.345   1.361
22539W        W94865  31.648  39.576   0.408
22540W        W94866  15.285  30.147   2.060
22541W        W94867  44.826   9.800   2.763
22542W        W94868  30.952  15.304  12.811
22543W        W94869  33.573  40.850   4.396
22544W        W94870  13.391   2.768  11.108
22545W        W94871  23.238   4.925  12.966
22546W        W94872  39.454   7.739  11.902
22547W        W94873   3.536  13.193   3.845
22548W        W94874  25.472  11.005   2.846
22549W        W94875  15.304   6.337  10.714
22550W        W94876  17.926   5.664  14.482
22551W        W94877   9.548  10.917  14.595
22552W        W94878   2.677  41.968  10.877
22553W        W94879  21.064  30.541  12.424
22554W        W94880  12.401  41.080  10.705
22555W        W94881  20.572  43.990  11.416
22556W        W94882  41.467   0.972  14.041
22557W        W94883  14.286  17.764   3.267
22558W        W94884   6.901  37.476  12.528
22559W        W94885  43.510  33.122   3.807
22560W        W94886  38.493  19.811   2.351
22561W        W94887  14.629   4.899   2.649
22562W        W94888  30.062  27.764   3.572
22563W        W94889  44.012  20.233   2.411
22564W        W94890   8.871  20.626   4.768
22565W        W94891   3.175   7.394  14.864
22566W        W94892  41.952  39.538  12.233
22567W        W94893  19.309  39.820   4.179
22568W        W94894  42.996  23.794   1.381
22569W        W94895  27.941  33.905  11.090
22570W        W94896  14.595  38.757   1.397
22571W        W94897  41.758  33.502   4.281
22572W        W94898  31.063  23.164  12.829
22573W        W94899  39.855   4.114  10.846
22574W        W94900  11.947  41.073   9.865
22575W        W94901  28.062  37.725  12.745
22576W        W94902  13.757  37.106  10.969
22577W        W94903   1.657  39.118  13.873
22578W        W94904  39.067  35.235  14.837
22579W        W94905  29.365  16.352   3.539
22580W        W94906  37.647  14.339   4.560
22581W        W94907  21.087  44.009  14.610
22582W        W94908   1.672  32.542   2.686
22583W        W94909   5.950   6.174   0.239
22584W        W94910  12.524  30.062  13.768
22585W        W94911  35.889  34.850   2.881
22586W        W94912  21.291   7.771  12.041
22587W        W94913  41.940  38.086   3.134
22588W        W94914  22.236   6.854  10.516
22589W        W94915  40.334  37.321   2.849
22590W        W94916  14.761  23.783  11.902
22591W        W94917   3.208  25.482  11.152
22592W        W94918   5.889  34.564  13.999
22593W        W94919  20.804   4.542   1.742
22594W        W94920  24.277   3.931   2.317
22595W        W94921   2.006   1.285   0.966
22596W        W94922  15.869  40.470  11.968
22597W        W94923  44.836  27.412   3.231
22598W        W94924  32.439  20.730  12.900
22599W        W94925  31.950  11.052   3.815
22600W        W94926  29.657  15.074  13.187
22601W        W94927  21.989  21.312   3.023
22602W        W94928  10.274   6.442   2.379
22603W        W94929  19.156  36.405   2.452
22604W        W94930  26.495  16.584  10.951
22605W        W94931  35.798   6.806  10.668
22606W        W94932  17.690  26.664   0.875
22607W        W94933  34.624  27.874   0.885
22608W        W94934  29.836  19.379   2.742
22609W        W94935  40.841   3.516  14.540
22610W        W94936  40.727   6.362  14.031
22611W        W94937   2.945  32.149  10.812
22612W        W94938  26.499  23.047   2.783
22613W        W94939  35.611   7.172  14.264
22614W        W94940  18.500  15.176  11.552
22615W        W94941  14.806  22.278  14.957
22616W        W94942  20.591  11.355  10.615
22617W        W94943  20.728  44.331   1.843
22618W        W94944  38.541  15.671   2.449
22619W        W94945  38.789   4.873  14.897
22620W        W94946  42.551  22.557   3.536
22621W        W94947  44.760  44.286   0.159
22622W        W94948  43.855  39.195  14.731
22623W        W94949  40.414  25.015   2.811
22624W        W94950  23.794  40.563   5.135
22625W        W94951  31.813  12.864  13.874
22626W        W94952  31.094  22.024   0.878
22627W        W94953  24.456  33.127   1.329
22628W        W94954  29.348   3.620  14.994
22629W        W94955  35.424  30.105   1.326
22630W        W94956  41.457  37.289  13.954
22631W        W94957  16.765  43.402  11.166
22632W        W94958  25.582   1.166  12.377
22633W        W94959   6.754  43.215   0.979
22634W        W94960   9.778  18.270  12.554
22635W        W94961   8.319  26.666   1.343
22636W        W94962   7.959   6.251   3.029
22637W        W94963  18.502   3.976   1.960
22638W        W94964  27.497  32.187   1.392
22639W        W94965  29.336  30.648  13.317
22640W        W94966  22.616  21.308  10.438
22641W        W94967  11.288   9.915  12.875
22642W        W94968  12.147  31.604  12.099
22643W        W94969  25.648  20.098  14.065
22644W        W94970  11.876  26.965  11.032
22645W        W94971   1.079  19.808   2.881
22646W        W94972  37.017  39.892  12.929
22647W        W94973  11.028   7.099  11.100
22648W        W94974   7.691   0.332   1.872
22649W        W94975  19.523  34.042  14.993
22650W        W94976  33.051  32.027  11.685
22651W        W94977  19.098  20.501  10.500
22652W        W94978   2.242  13.480   4.003
22653W        W94979   4.641  27.179   3.390
22654W        W94980   2.868   7.307   1.442
22655W        W94981   4.157   4.950   2.832
22656W        W94982  16.890   8.718  11.332
22657W        W94983  43.393  16.493  11.706
22658W        W94984  12.292  36.766   3.449
22659W        W94985  21.857  28.153  12.039
22660W        W94986   2.773  22.185  12.244
22661W        W94987   6.386  26.786  11.120
22662W        W94988   3.934  17.451   2.197
22663W        W94989   0.664  35.844  11.885
22664W        W94990  27.933  18.560  12.940
22665W        W94991  18.267  14.738   4.297
22666W        W94992  27.680  39.709  10.647
22667W        W94993  13.671  18.329   1.855
22668W        W94994  41.037  41.750   4.779
22669W        W94995  31.443  21.583   1.789
22670W        W94996  39.265  16.877  13.594
22671W        W94997  24.316  12.627  14.050
22672W        W94998  21.726   9.409  12.941
22673W        W94999   6.209   4.785   0.625
22674W        W95000  17.269  41.904   0.416
22675W        W95001   9.597  39.545   4.312
22676W        W95002  44.880  32.320   4.252
22677W        W95003  22.909   3.510   4.637
22678W        W95004  23.560  38.933   0.092
22679W        W95005   1.048  19.290  11.643
22680W        W95006  28.154  23.722   0.076
22681W        W95007   3.172  22.734   0.888
22682W        W95008  44.845  13.098   2.345
22683W        W95009   9.085  10.704  13.737
22684W        W95010   6.367   7.727  14.923
22685W        W95011  22.305  33.680   4.192
22686W        W95012  37.052  31.850   3.681
22687W        W95013  18.275  43.546   1.626
22688W        W95014  17.925   5.799   2.244
22689W        W95015   7.198  39.044  14.030
22690W        W95016   1.655  26.286   2.851
22691W        W95017   2.318  11.537  14.871
22692W        W95018  32.465  24.932   2.378
22693W        W95019   7.602  41.499  10.982
22694W        W95020  23.543  13.388   1.836
22695W        W95021   9.169  42.584   3.680
22696W        W95022  30.193  10.097   3.757
22697W        W95023  17.731  21.109  13.852
22698W        W95024  29.605  38.112  11.550
22699W        W95025  36.783   2.772  13.647
22700W        W95026  36.579  23.277   9.949
22701W        W95027  44.765  40.953   0.772
22702W        W95028  28.077   6.071  10.712
22703W        W95029  29.900   6.822  13.149
22704W        W95030  34.097  12.641  13.409
22705W        W95031  26.656  14.712   5.206
22706W        W95032  27.406  25.745   0.461
22707W        W95033  28.164  22.967   2.403
22708W        W95034  16.478  34.914  12.479
22709W        W95035  23.250  19.208  13.349
22710W        W95036  30.621  38.392  10.572
22711W        W95037  42.117  36.937  11.117
22712W        W95038  16.187   4.728   4.926
22713W        W95039  31.443  11.722   1.706
22714W        W95040   3.327  11.790   0.899
22715W        W95041   9.542  39.807   1.309
22716W        W95042  16.467  16.013   2.797
22717W        W95043  22.004  13.118   3.258
22718W        W95044   6.645   9.280   2.427
22719W        W95045  29.916  38.791   2.688
22720W        W95046  34.940  29.152  12.151
22721W        W95047   1.900  26.578  13.407
22722W        W95048  18.007  27.463   1.021
22723W        W95049  15.899  21.017  13.529
22724W        W95050  31.377  16.281  11.084
22725W        W95051   2.332  30.845  13.003
22726W        W95052  18.508  38.717   0.394
22727W        W95053  22.634  33.640   4.607
22728W        W95054  27.221  18.132  11.194
22729W        W95055  44.895   9.400  11.403
22730W        W95056   9.128   5.780  14.404
22731W        W95057   7.869  15.161  12.632
22732W        W95058   2.235  27.014  10.754
22733W        W95059  28.900  17.750  11.541
22734W        W95060  35.120  31.406  12.938
22735W        W95061  37.593  40.545   1.290
22736W        W95062  35.088  33.488  13.906
22737W        W95063   5.969  37.950  12.275
22738W        W95064  33.747  32.814  14.872
22739W        W95065  40.779  37.066  12.101
22740W        W95066   7.931   0.375   1.419
22741W        W95067  42.715  27.405  12.989
22742W        W95068  41.307   4.043   0.594
22743W        W95069   7.519  17.506   4.582
22744W        W95070   5.392  16.638  14.581
22745W        W95071  25.649  21.016  11.469
22746W        W95072  15.562   9.677  12.121
22747W        W95073  29.548  10.883  12.853
22748W        W95074  21.582  20.307  13.484
22749W        W95075  18.740  32.013   0.670
22750W        W95076  17.509  16.046  10.799
22751W        W95077   0.456   7.181  14.850
22752W        W95078  25.166  28.879   1.054
22753W        W95079  29.090  38.472  10.479
22754W        W95080  30.965  11.347  13.305
22755W        W95081  36.535  12.891   5.564
22756W        W95082  35.992   3.750   3.978
22757W        W95083  10.851  17.066  13.097
22758W        W95084  41.479  11.785  12.132
22759W        W95085  27.959   7.257  12.534
22760W        W95086  29.920  31.850   0.869
22761W        W95087  17.402  41.853   1.274
22762W        W95088  27.704   8.895   4.580
22763W        W95089  21.174  15.595  10.673
22764W        W95090  20.813  22.098   0.927
22765W        W95091  34.967   3.256   2.728
22766W        W95092  44.061  40.735   4.137
22767W        W95093  33.487  28.634   3.161
22768W        W95094  37.636  21.263   1.812
22769W        W95095  41.997  22.838   2.344
22770W        W95096  22.667   1.445  14.585
22771W        W95097  21.240   1.598   0.148
22772W        W95098  32.841  30.608   3.394
22773W        W95099  30.433  13.153  13.353
22774W        W95100  27.032   1.401   3.439
22775W        W95101  34.912  19.266   2.167
22776W        W95102  14.570  11.724   4.313
22777W        W95103  32.563  37.461  11.082
22778W        W95104  25.196  31.202   0.421
22779W        W95105  35.888  17.322   2.665
22780W        W95106  42.879  18.643   1.348
22781W        W95107  15.921   4.171   4.886
22782W        W95108  10.296  20.626  11.878
22783W        W95109   9.426  44.249   4.074
22784W        W95110   9.767  18.277  10.838
22785W        W95111  19.682  38.437   4.628
22786W        W95112  24.371  18.074  11.948
22787W        W95113  29.133  38.103   4.606
22788W        W95114  16.774  12.183   1.479
22789W        W95115  37.537  31.719  13.846
22790W        W95116  11.132   1.664  11.623
22791W        W95117   6.965  40.033   0.692
22792W        W95118  35.420  10.224  12.160
22793W        W95119  36.894  42.521   2.165
22794W        W95120  28.404  27.747   3.659
22795W        W95121  15.237  11.646  12.415
22796W        W95122  42.331  30.666  14.372
22797W        W95123  11.318   0.976   4.541
22798W        W95124   6.670   8.123  14.695
22799W        W95125  28.478  36.994   0.103
22800W        W95126   5.139  13.143  11.217
22801W        W95127   9.068  41.729  14.957
22802W        W95128  31.015   8.423  12.515
22803W        W95129  32.301  15.803   1.221
22804W        W95130  10.742   6.533  12.601
22805W        W95131   3.402  21.673  12.359
22806W        W95132  33.582  26.647   0.964
22807W        W95133  29.451  10.492   4.483
22808W        W95134   2.656   5.756   4.283
22809W        W95135  44.421  34.650   2.433
22810W        W95136  13.148  39.828   2.460
22811W        W95137  16.304  44.342   0.895
22812W        W95138  13.693  24.529   3.278
22813W        W95139  39.864  15.459   1.241
22814W        W95140  25.780  40.040  14.075
22815W        W95141   0.324  17.729   4.731
22816W        W95142  17.561   4.482  13.014
22817W        W95143   7.289   5.498   3.164
22818W        W95144  30.692   8.791  13.835
22819W        W95145  16.530  24.931  12.251
22820W        W95146  29.429  23.215  12.956
22821W        W95147  40.344  29.590  13.108
22822W        W95148   9.627   9.767  12.646
22823W        W95149  26.470   9.083  14.768
22824W        W95150  28.074  40.347  10.987
22825W        W95151   3.062  36.071  14.464
22826W        W95152   0.220  19.642  11.504
22827W        W95153  21.105   0.545  12.966
22828W        W95154  43.531   6.161   4.551
22829W        W95155  34.457  37.533   2.318
22830W        W95156  25.140  36.885  12.462
22831W        W95157  19.625  22.194  11.781
22832W        W95158  30.870  16.255  13.017
22833W        W95159   5.362  20.891   3.454
22834W        W95160  11.731   1.883   1.441
22835W        W95161  28.119  28.059   5.483
22836W        W95162  10.639   4.941  14.543
22837W        W95163   9.268  20.275   4.550
22838W        W95164  32.246  36.429  10.450
22839W        W95165  44.866  29.199   0.366
22840W        W95166  44.952  11.408   1.207
22841W        W95167   6.520  37.754   3.225
22842W        W95168  37.884  34.453   2.243
22843W        W95169  43.243  27.106  11.754
22844W        W95170  43.178  28.558  13.455
22845W        W95171  23.831   0.068   4.520
22846W        W95172  12.167  25.548  13.762
22847W        W95173  12.074   0.289   0.857
22848W        W95174  23.150  30.967   3.575
22849W        W95175  23.552  44.912   1.440
22850W        W95176  33.616  13.497   2.089
22851W        W95177  27.691  32.127  13.965
22852W        W95178  21.966   2.519   1.775
22853W        W95179  29.942  41.964   0.717
22854W        W95180  26.727  26.823   4.114
22855W        W95181   2.315  31.949   1.221
22856W        W95182  11.125  31.860   3.309
22857W        W95183  13.315  38.509   2.277
22858W        W95184  10.856   0.310  11.048
22859W        W95185  24.500   7.285   1.957
22860W        W95186  26.109  20.655  11.019
22861W        W95187  43.957  41.555  13.290
22862W        W95188   6.476  34.769  10.687
22863W        W95189  26.060  29.780  11.687
22864W        W95190  32.919  35.868   2.846
22865W        W95191   7.893  26.033  10.967
22866W        W95192   7.819  14.710  14.577
22867W        W95193  31.896   4.346   1.394
22868W        W95194   2.050  23.715  10.648
22869W        W95195  15.702   4.587   5.122
22870W        W95196   5.394  33.303   1.476
22871W        W95197  28.879   5.029  13.714
22872W        W95198  11.695  35.149  12.242
22873W        W95199   2.960  12.231  13.978
22874W        W95200  43.875  25.731   2.655
22875W        W95201  27.612  28.245   3.226
22876W        W95202  40.092   4.328   4.074
22877W        W95203  29.490   5.970  10.474
22878W        W95204   1.526  10.925  11.196
22879W        W95205  11.574  28.385   4.969
22880W        W95206  11.830  11.896   1.292
22881W        W95207  31.923  24.770  12.883
22882W        W95208  35.493   4.224  11.745
22883W        W95209  42.814  44.884  10.646
22884W        W95210   7.516  18.213   2.533
22885W        W95211  34.479   0.238  12.015
22886W        W95212  40.323  37.514  10.221
22887W        W95213  15.847  44.437  14.946
22888W        W95214  11.149  36.044   1.257
22889W        W95215  11.082  27.785  12.047
22890W        W95216  17.367  36.860   0.426
22891W        W95217  41.416  44.345   4.179
22892W        W95218  35.885  22.166   3.610
22893W        W95219   1.731  24.854   4.578
22894W        W95220  11.810  19.966  13.971
22895W        W95221  41.818  36.806   1.817
22896W        W95222  44.448  11.127   3.057
22897W        W95223   7.218   9.376  10.730
22898W        W95224  21.305  31.012   4.115
22899W        W95225  21.141  32.860  11.271
22900W        W95226   4.036  38.438   4.686
22901W        W95227  30.102  40.792  10.665
22902W        W95228  15.797  30.933   3.195
22903W        W95229  31.369  25.767   1.411
22904W        W95230  35.681   1.747  10.579
22905W        W95231  21.731  38.914   0.896
22906W        W95232  26.178  19.185   4.225
22907W        W95233  38.278  34.067   3.560
22908W        W95234  10.865  18.076  11.488
22909W        W95235   8.981  29.054   4.670
22910W        W95236  37.070  12.771  13.960
22911W        W95237  29.438  17.807  10.441
22912W        W95238  21.665  13.264   3.636
22913W        W95239  40.790  15.246  12.069
22914W        W95240  10.355  12.056   3.825
22915W        W95241  21.752  34.203  12.897
22916W        W95242  36.357   6.775   3.106
22917W        W95243  10.630   4.877   0.039
22918W        W95244  11.950  27.322   5.575
22919W        W95245  24.111  33.617   0.589
22920W        W95246  23.040  44.361  11.506
22921W        W95247  32.103  21.572  14.758
22922W        W95248   9.390  13.579  13.760
22923W        W95249  36.534  31.482  14.887
22924W        W95250  26.359  23.610   0.398
22925W        W95251  29.572  16.081  12.857
22926W        W95252  27.976  21.604  12.954
22927W        W95253  15.746  25.516  12.517
22928W        W95254  36.489  33.383   1.978
22929W        W95255  21.756   0.555  14.582
22930W        W95256  21.277  34.522  10.693
22931W        W95257  31.723   8.713   2.309
22932W        W95258  11.799   7.325  12.919
22933W        W95259  27.695   7.124  11.177
22934W        W95260  28.764  37.497  14.417
22935W        W95261  25.562  39.592  13.124
22936W        W95262  19.535  26.905  13.882
22937W        W95263   0.900  22.481  14.390
22938W        W95264  27.760  20.712  11.574
22939W        W95265  24.259  13.125   3.789
22940W        W95266  19.788  18.228  11.601
22941W        W95267  38.338  42.473   4.247
22942W        W95268  37.294  43.863  14.901
22943W        W95269  33.427  37.398  10.517
22944W        W95270  24.501  26.293   2.218
22945W        W95271  15.077  21.790   2.667
22946W        W95272  18.679  11.996   0.881
22947W        W95273  30.999  11.138   4.984
22948W        W95274  17.398   9.474   1.791
22949W        W95275  23.513  29.740   4.121
22950W        W95276   7.550  31.505   3.795
22951W        W95277  24.556  44.653  11.880
22952W        W95278  33.483  43.842   0.192
22953W        W95279   5.666  25.923  11.516
22954W        W95280  13.931   9.150  14.785
22955W        W95281  26.062  39.264   3.162
22956W        W95282  12.632  41.442   2.418
22957W        W95283  35.388  30.895   1.852
22958W        W95284  41.197  29.651  11.192
22959W        W95285  29.970  42.983  13.408
22960W        W95286  26.188  28.222  11.046
22961W        W95287  22.150  18.798   1.309
22962W        W95288  32.996  41.470   3.789
22963W        W95289  23.778  22.163   4.327
22964W        W95290  16.518  14.735  14.096
22965W        W95291   1.610   4.338  10.213
22966W        W95292  26.475  27.030   3.725
22967W        W95293  29.433   1.899   2.365
22968W        W95294  39.031  43.294  13.494
22969W        W95295  15.321   9.367   3.239
22970W        W95296   0.853  26.510  12.266
22971W        W95297  40.387   1.408  11.892
22972W        W95298  33.077   3.403   3.217
22973W        W95299  32.269  22.972   4.160
22974W        W95300  19.194  44.036  11.255
22975W        W95301  36.027   8.734  12.131
22976W        W95302  35.636   8.656  10.710
22977W        W95303  22.747  44.304   3.238
22978W        W95304  28.014   0.267   4.851
22979W        W95305  34.950  35.822  12.415
22980W        W95306  10.787  38.536   1.029
22981W        W95307  27.875   7.280   0.479
22982W        W95308   9.751  35.297   3.862
22983W        W95309  18.657   5.706   1.487
22984W        W95310  13.688  31.132   2.680
22985W        W95311  30.418  24.222  11.014
22986W        W95312  23.870  24.159  13.700
22987W        W95313  18.677  30.553   2.903
22988W        W95314  13.131  28.673   0.518
22989W        W95315  14.092  23.727  11.128
22990W        W95316  21.933  37.395  14.481
22991W        W95317   8.100  41.022  12.485
22992W        W95318  35.407   3.026  12.846
22993W        W95319   0.483  42.213  11.010
22994W        W95320   1.774  37.316   3.708
22995W        W95321  15.166  14.494   3.844
22996W        W95322  20.541   9.185  12.545
22997W        W95323  41.880   8.349  13.949
22998W        W95324  14.169   2.379  13.284
22999W        W95325  15.221  34.543  10.228
23000W        W95326  17.545  22.205   0.493
23001W        W95327  20.830  18.196  10.888
23002W        W95328   0.901  20.663   1.227
23003W        W95329   7.658  19.426  14.840
23004W        W95330  30.587  28.850  13.497
23005W        W95331  43.016  36.528  14.767
23006W        W95332  25.056   6.745  10.713
23007W        W95333  11.760   0.845  12.520
23008W        W95334  25.446  35.115   2.173
23009W        W95335  13.779   1.210  14.809
23010W        W95336  34.686  44.597   3.231
23011W        W95337  20.585  20.806  13.923
23012W        W95338  44.694  13.295  13.864
23013W        W95339   4.403  12.034  10.973
23014W        W95340  44.022  26.036  11.614
23015W        W95341  10.924  11.345  11.780
23016W        W95342  39.609  35.268  14.267
23017W        W95343   0.599  42.570  13.325
23018W        W95344  29.212  12.611  13.509
23019W        W95345  11.803  38.576  13.749
23020W        W95346  44.017  28.934  14.062
23021W        W95347   8.879   5.431   4.061
23022W        W95348  12.620  28.161   0.396
23023W        W95349  11.149   1.327  12.910
23024W        W95350  36.138  22.206  13.081
23025W        W95351   3.725   1.890   3.356
23026W        W95352   8.135  42.502   2.568
23027W        W95353  12.363  16.721   3.735
23028W        W95354  14.672  22.960   1.865
23029W        W95355  23.659  15.142   0.319
23030W        W95356  33.514   5.758  13.089
23031W        W95357  38.893   4.199   2.372
23032W        W95358  18.597   2.203  11.974
23033W        W95359  31.643  21.286   4.578
23034W        W95360   5.947  16.388   3.217
23035W        W95361  17.699   3.819  14.705
23036W        W95362   1.416   0.884   1.348
23037W        W95363  13.614  12.076  11.550
23038W        W95364  20.866  16.285  11.121
23039W        W95365   2.909  28.448  13.156
23040W        W95366  17.738  36.297   1.792
23041W        W95367   8.292  24.445   0.242
23042W        W95368  29.287  41.359   0.285
23043W        W95369  13.591  13.886   0.924
23044W        W95370  42.819  10.234  11.947
23045W        W95371  26.380  42.946   0.839
23046W        W95372   4.066   4.041   2.928
23047W        W95373  14.181  42.338   4.408
23048W        W95374  36.937  24.527   3.828
23049W        W95375  43.719  32.693  13.400
23050W        W95376  33.170  26.018   0.911
23051W        W95377  34.435  39.902  13.823
23052W        W95378  18.797  35.716   3.844
23053W        W95379  21.627  42.682   4.621
23054W        W95380  39.254  41.458   4.600
23055W        W95381  40.784  31.634   3.195
23056W        W95382  32.887  17.366  12.446
23057W        W95383  35.341  18.740   4.207
23058W        W95384  11.642  42.270  11.629
23059W        W95385  35.888  39.834  11.860
23060W        W95386  20.676   5.921   3.820
23061W        W95387  25.511   4.554   9.966
23062W        W95388  23.217  21.587   2.433
23063W        W95389   2.970  35.892   2.735
23064W        W95390  28.193  39.285   1.292
23065W        W95391  12.198  13.963   0.223
23066W        W95392  30.644  10.174   0.539
23067W        W95393  41.012  28.168   3.268
23068W        W95394  43.946  23.507   1.151
23069W        W95395  27.432  28.210  11.929
23070W        W95396  40.063  44.867   2.859
23071W        W95397  18.805  21.023  11.486
23072W        W95398   1.884  30.453   2.266
23073W        W95399  15.070   5.808  11.993
23074W        W95400  12.438  19.711  13.237
23075W        W95401  27.570  31.607   1.639
23076W        W95402   2.227  22.717  10.763
23077W        W95403   6.971   0.749  14.988
23078W        W95404  29.492   8.767  14.962
23079W        W95405  36.796  40.907  14.418
23080W        W95406  12.579  32.490   3.797
23081W        W95407  19.146  14.347  11.000
23082W        W95408  27.696   2.036   3.990
23083W        W95409   7.318  33.215  13.838
23084W        W95410  12.810  35.278   1.463
23085W        W95411  16.088  43.020  12.338
23086W        W95412  43.982  42.995  14.125
23087W        W95413  20.017  17.283  14.488
23088W        W95414  20.203  31.607  14.236
23089W        W95415  19.799  26.952  11.145
23090W        W95416  19.924  14.905  14.657
23091W        W95417  23.498  37.261   1.578
23092W        W95418  31.510  36.590  12.065
23093W        W95419  40.971   4.422  14.455
23094W        W95420  24.767  23.181  14.515
23095W        W95421   4.112  12.270   2.616
23096W        W95422  33.674  31.937  10.269
23097W        W95423   1.880  10.247  10.611
23098W        W95424  15.751  18.077  10.661
23099W        W95425   6.213  19.624   1.423
23100W        W95426  12.827  21.073  12.411
23101W        W95427  17.075  31.158   4.710
23102W        W95428  16.141  33.575  10.483
23103W        W95429  23.154  26.098   3.843
23104W        W95430  10.155   0.886  13.547
23105W        W95431  18.622   6.938   1.645
23106W        W95432  21.206  23.617   4.381
23107W        W95433   6.422  37.929   1.229
23108W        W95434  29.087  29.097  12.563
23109W        W95435  26.195   7.946  13.345
23110W        W95436  35.605  19.478   2.711
23111W        W95437  15.583  34.960  14.379
23112W        W95438  30.105  42.872   0.310
23113W        W95439  21.733  13.284  13.523
23114W        W95440  32.601   2.231  12.997
23115W        W95441  43.000  29.015   1.353
23116W        W95442   0.524  21.119  13.304
23117W        W95443  26.001   2.291  14.907
23118W        W95444  25.571  21.585  10.685
23119W        W95445  28.580  21.811   1.766
23120W        W95446  29.569  15.792  10.917
23121W        W95447  25.797  12.256  12.318
23122W        W95448  39.892  35.857   4.200
23123W        W95449   9.702   7.407   2.350
23124W        W95450   1.475  27.914   3.778
23125W        W95451  37.434   5.861  10.965
23126W        W95452  34.524  28.057  14.864
23127W        W95453  44.983   6.290  12.918
23128W        W95454  38.751  36.036  11.167
23129W        W95455  25.965  10.284   2.287
23130W        W95456   8.708  26.807  14.276
23131W        W95457  25.263  24.961   4.700
23132W        W95458  21.185  16.364   0.443
23133W        W95459  33.963  38.487   4.110
23134W        W95460  35.602  39.262   4.121
23135W        W95461  14.910  11.212  13.902
23136W        W95462  12.210  13.901  14.709
23137W        W95463  28.650   6.713   1.963
23138W        W95464  35.065  22.542   0.392
23139W        W95465  44.781  24.279  10.736
23140W        W95466  42.321  40.329   2.901
23141W        W95467  10.759   0.247   1.459
23142W        W95468  10.600   9.390  13.438
23143W        W95469  31.544  17.901   0.622
23144W        W95470   5.195  43.213   1.827
23145W        W95471  10.326  27.316   2.900
23146W        W95472  36.763  19.541  13.139
23147W        W95473  16.696   0.284   0.758
23148W        W95474  44.609  42.983   0.071
23149W        W95475  19.722   5.795  12.510
23150W        W95476  26.007  38.586  12.454
23151W        W95477  42.090  32.838   2.695
23152W        W95478  11.222  34.034   0.865
23153W        W95479  14.310   0.280  10.583
23154W        W95480  35.917   6.942  13.127
23155W        W95481   2.097   0.150   1.481
23156W        W95482  15.762  42.568   5.069
23157W        W95483  14.721  25.212   4.198
23158W        W95484  39.590   1.173   2.235
23159W        W95485  38.575   7.679  14.456
23160W        W95486   9.637  24.205  11.125
23161W        W95487  40.979   1.783  11.442
23162W        W95488   4.847  24.652   1.744
23163W        W95489   4.774   5.813  12.493
23164W        W95490  36.707  21.919  14.662
23165W        W95491  26.396  31.166   5.070
23166W        W95492  42.311  34.319   4.613
23167W        W95493  42.723  17.807  14.538
23168W        W95494   3.757  27.183   4.557
23169W        W95495   8.658  33.627  10.683
23170W        W95496  32.894  19.839  13.799
23171W        W95497   0.917  10.373  10.243
23172W        W95498   8.965  39.830  13.377
23173W        W95499  10.868  41.762   2.871
23174W        W95500   0.267  24.410   3.152
23175W        W95501  26.900   4.430  10.835
23176W        W95502   7.863  20.258  11.653
23177W        W95503  14.595   6.814  12.890
23178W        W95504  19.324  23.390   0.964
23179W        W95505  10.886  35.977   0.758
23180W        W95506  12.714   1.149   0.154
23181W        W95507  20.281  23.830   3.488
23182W        W95508  33.673  15.206  13.317
23183W        W95509   0.746  11.870  14.286
23184W        W95510  10.237  22.101   1.644
23185W        W95511  37.267  24.943   3.811
23186W        W95512  34.846  22.543  14.539
23187W        W95513   3.937  27.985  14.855
23188W        W95514   1.452  35.169  11.145
23189W        W95515  38.352  36.910  10.955
23190W        W95516  16.312   2.923   1.764
23191W        W95517  16.073   7.120  12.586
23192W        W95518  15.275   0.552   1.780
23193W        W95519   9.866  36.036   4.946
23194W        W95520  24.512  28.132   1.061
23195W        W95521  38.272  41.968   4.324
23196W        W95522  42.504  44.421  11.182
23197W        W95523  13.346  12.290   3.345
23198W        W95524  31.387  32.572   0.430
23199W        W95525   5.319   6.183  12.077
23200W        W95526  27.722   2.491  14.175
23201W        W95527  25.495  18.159  12.930
23202W        W95528  10.753  35.645  13.350
23203W        W95529  23.553  13.842  14.869
23204W        W95530   7.170   6.122   0.844
23205W        W95531   6.356  17.053   4.596
23206W        W95532   6.147   6.820   1.853
23207W        W95533  31.461   2.336   3.699
23208W        W95534  25.978  44.369   2.203
23209W        W95535  29.087  35.124  14.440
23210W        W95536   4.901  24.479  11.570
23211W        W95537   4.769  38.391  13.482
23212W        W95538  33.591   5.845  11.613
23213W        W95539  28.428  28.519   5.514
23214W        W95540   8.358  23.206   2.578
23215W        W95541   6.733  22.716  13.970
23216W        W95542  40.645   7.238   3.723
23217W        W95543  17.346  29.139   1.276
23218W        W95544   1.414   0.552  10.632
23219W        W95545   2.773   6.443  10.735
23220W        W95546  30.572  10.973  12.077
23221W        W95547  12.727  26.447   0.787
23222W        W95548  11.770   8.634  10.187
23223W        W95549  30.211  20.842  14.442
23224W        W95550  24.185  17.253  12.961
23225W        W95551  40.417   1.195   3.589
23226W        W95552   7.970   6.982  14.723
23227W        W95553  28.945  17.187   3.182
23228W        W95554   2.424  27.343   0.058
23229W        W95555  37.220  24.501   2.295
23230W        W95556  43.995  23.821  12.235
23231W        W95557  37.551  43.403   0.420
23232W        W95558  12.853  42.256  12.482
23233W        W95559  17.462  24.564   4.381
23234W        W95560  11.267  13.360   1.919
23235W        W95561  23.469  14.840  13.395
23236W        W95562  37.100  18.470   3.711
23237W        W95563   7.410  34.899  13.140
23238W        W95564  23.606  31.246   4.263
23239W        W95565  35.365  31.063   0.312
23240W        W95566   8.302  29.365   0.205
23241W        W95567  11.144  39.402  11.130
23242W        W95568  42.434  19.990   0.931
23243W        W95569   3.863   9.187  12.073
23244W        W95570  21.833  34.581  14.934
23245W        W95571  19.145   0.335  10.833
23246W        W95572  20.972  25.035   2.448
23247W        W95573  13.817   6.810  12.468
23248W        W95574  32.289  35.427  14.715
23249W        W95575  37.461  26.159  11.208
23250W        W95576  22.746  44.390   1.471
23251W        W95577  43.587  24.576   3.185
23252W        W95578  16.749  32.063  13.805
23253W        W95579  42.955  16.569   0.315
23254W        W95580  12.784   9.763   4.755
23255W        W95581  36.722   2.517   0.106
23256W        W95582   7.657  12.756   3.825
23257W        W95583  35.574   9.314   1.755
23258W        W95584  17.652   6.935  12.987
23259W        W95585   8.981  14.244   2.817
23260W        W95586  24.782  21.135   4.549
23261W        W95587   9.558  17.803  13.382
23262W        W95588  33.613  26.341  14.226
23263W        W95589  37.985   1.585  10.752
23264W        W95590   6.949  17.852   3.111
23265W        W95591  21.035  26.986  10.682
23266W        W95592  32.962  15.363   4.979
23267W        W95593  43.959  30.443  13.885
23268W        W95594   0.359  37.578  14.962
23269W        W95595  39.902  32.501  11.694
23270W        W95596  18.073  40.538   3.467
23271W        W95597  40.544  16.740  12.614
23272W        W95598   1.278  18.858  11.435
23273W        W95599  20.079  37.425   4.611
23274W        W95600  41.478  26.621   2.332
23275W        W95601  34.477  35.390   5.360
23276W        W95602  33.543  43.550  14.738
23277W        W95603  34.486  39.738   4.082
23278W        W95604   2.557  42.115  11.906
23279W        W95605  34.363  16.247   2.782
23280W        W95606  32.584  40.692   1.910
23281W        W95607  28.869   3.989  13.386
23282W        W95608  39.199  22.391  12.783
23283W        W95609  26.070   5.706  12.489
23284W        W95610  27.231   5.278  14.472
23285W        W95611  25.952  27.250   3.762
23286W        W95612  29.908  37.998  14.721
23287W        W95613  31.580  32.403  10.605
23288W        W95614   4.786  30.743  11.349
23289W        W95615  40.403   0.713  11.170
23290W        W95616  15.846  12.785  13.815
23291W        W95617   8.725  26.180   0.561
23292W        W95618  44.708  18.915  13.753
23293W        W95619  37.999  11.636   3.953
23294W        W95620   7.591   3.226   3.216
23295W        W95621  38.184  39.779  12.082
23296W        W95622   8.739  29.389  10.452
23297W        W95623   0.247   2.629   0.261
23298W        W95624  10.177  13.880  10.588
23299W        W95625  28.747   4.335   3.300
23300W        W95626  27.556   9.257   3.167
23301W        W95627  15.095  19.964   0.643
23302W        W95628  19.037  15.593   3.677
23303W        W95629  10.350  10.763   3.904
23304W        W95630  27.559  27.443  12.386
23305W        W95631  33.506   3.216  13.442
23306W        W95632   2.775  35.871  11.172
23307W        W95633  13.003  10.143   3.810
23308W        W95634  37.865  16.319   2.686
23309W        W95635  24.074  41.300  13.103
23310W        W95636  16.360  36.444  11.528
23311W        W95637   3.887  40.435  12.256
23312W        W95638  36.131   4.804   1.764
23313W        W95639  36.077   2.240   4.212
23314W        W95640   6.393  32.338  14.442
23315W        W95641   5.668  18.506   0.263
23316W        W95642  31.437   1.240   0.443
23317W        W95643  17.337  41.234   0.237
23318W        W95644  41.945  24.945  12.519
23319W        W95645  17.785  17.787   2.124
23320W        W95646  13.426   1.695   2.033
23321W        W95647   1.954  44.317  11.538
23322W        W95648  16.014  35.868   4.989
23323W        W95649  41.483   2.977  11.121
23324W        W95650  15.269  36.091  12.059
23325W        W95651   0.465   7.653  14.677
23326W        W95652   0.021  27.091  13.796
23327W        W95653  25.930   9.590   2.852
23328W        W95654  30.044  42.995   4.510
23329W        W95655  13.666  28.191   2.246
23330W        W95656  28.266   6.572  13.019
23331W        W95657  32.046  29.329   4.449
23332W        W95658  38.069  40.391   3.732
23333W        W95659  31.771  11.735  11.005
23334W        W95660  41.762  10.800   0.356
23335W        W95661  10.243  26.499  14.004
23336W        W95662  41.751  30.102   4.658
23337W        W95663  15.555   9.161  10.540
23338W        W95664   3.591  18.795  13.318
23339W        W95665  33.219  35.618   1.365
23340W        W95666  21.074  28.925  13.873
23341W        W95667  19.687  42.304   1.504
23342W        W95668  15.570  41.014   2.260
23343W        W95669  19.504  22.085   4.242
23344W        W95670  30.263  29.587   2.829
23345W        W95671  39.293  14.188   4.079
23346W        W95672  41.229  29.960  13.938
23347W        W95673  24.628  24.401  12.387
23348W        W95674  42.122  41.279   2.286
23349W        W95675   9.393   4.911  11.518
23350W        W95676  32.376  13.306   1.252
23351W        W95677  32.554  14.605  10.719
23352W        W95678  14.266  15.652   0.503
23353W        W95679  11.850  22.981   3.206
23354W        W95680  12.173  27.868  12.797
23355W        W95681   9.674   4.356  12.104
23356W        W95682  44.336  19.139  14.028
23357W        W95683  23.088   1.260  12.745
23358W        W95684  13.183   2.432  12.868
23359W        W95685  24.925  43.045   1.778
23360W        W95686  16.190   4.467  13.415
23361W        W95687  35.007  35.642  10.675
23362W        W95688   7.613  31.655  13.256
23363W        W95689  20.262  40.020   4.254
23364W        W95690  31.875  10.230  10.636
23365W        W95691  37.783  41.822  13.587
23366W        W95692  33.362   5.673   5.039
23367W        W95693  15.180   7.705   1.695
23368W        W95694   0.225  39.152   4.221
23369W        W95695  15.359   2.294  12.557
23370W        W95696   1.108   2.306   0.342
23371W        W95697  16.528  21.974   3.948
23372W        W95698  33.469  31.874   3.194
23373W        W95699  25.639  17.834  12.304
23374W        W95700   2.028   0.023  12.049
23375W        W95701  13.378  20.703  10.652
23376W        W95702  38.722  24.690   2.246
23377W        W95703  13.713  14.516   1.764
23378W        W95704  38.296  28.340   1.017
23379W        W95705  29.657   4.459  10.780
23380W        W95706  13.368  39.423   4.728
23381W        W95707  30.072  13.362  12.043
23382W        W95708  25.509  29.599   3.542
23383W        W95709  18.641  44.264   1.168
23384W        W95710  42.940  14.368  13.944
23385W        W95711  35.456  30.707  11.352
23386W        W95712   5.572  20.753  14.165
23387W        W95713  23.066   1.721  11.610
23388W        W95714   9.415  16.150   2.658
23389W        W95715   2.045  19.102   2.194
23390W        W95716  10.652  11.913   4.289
23391W        W95717  10.874  21.298   1.214
23392W        W95718   8.738  14.894  10.790
23393W        W95719   5.478  28.648  12.056
23394W        W95720   6.878  15.011   1.207
23395W        W95721  32.709   3.228   4.144
23396W        W95722  10.732   2.923   2.617
23397W        W95723  11.862  32.989   4.188
23398W        W95724  25.243   9.917  10.585
23399W        W95725  21.351  43.042  14.747
23400W        W95726   3.422  20.238  12.931
23401W        W95727  27.914  30.448   0.949
23402W        W95728   9.237  31.849   3.652
23403W        W95729  19.049   3.633  12.526
23404W        W95730  40.902  30.178  10.401
23405W        W95731  10.942  15.059  13.703
23406W        W95732   0.222   0.278   4.514
23407W        W95733  35.408  42.363   2.508
23408W        W95734  26.565  31.108   2.812
23409W        W95735  13.172  32.526  10.430
23410W        W95736  22.642   2.062   2.631
23411W        W95737  32.482  18.066  10.714
23412W        W95738   8.769  40.538   0.044
23413W        W95739   9.841  16.004   1.943
23414W        W95740  32.172   9.997   2.408
23415W        W95741   0.673   4.787  12.056
23416W        W95742  33.159  42.835   0.719
23417W        W95743  22.963  18.604   1.897
23418W        W95744  32.021  16.360   0.827
23419W        W95745  26.739   8.317   2.708
23420W        W95746   5.271  37.947  10.328
23421W        W95747  14.869  21.466   4.794
23422W        W95748  29.610  43.308   1.485
23423W        W95749  12.071   3.403   0.678
23424W        W95750  11.137   2.431  13.942
23425W        W95751  27.338   6.684   3.479
23426W        W95752  39.281  23.225  11.184
23427W        W95753   5.375   4.988  13.935
23428W        W95754  15.517  19.746  13.132
23429W        W95755  36.447  23.763  12.039
23430W        W95756   2.001  41.356  11.588
23431W        W95757   3.900  35.788   9.800
23432W        W95758  26.532   9.309   0.276
23433W        W95759   8.742  20.805  11.688
23434W        W95760   1.152  31.324  12.006
23435W        W95761  35.346  27.942   2.481
23436W        W95762  23.203  21.328   0.879
23437W        W95763  41.247  26.165   4.564
23438W        W95764  25.812  36.287  12.526
23439W        W95765  19.479  29.655   3.383
23440W        W95766  30.444  13.758   2.697
23441W        W95767   2.790  24.942   2.213
23442W        W95768  31.886   3.699  12.487
23443W        W95769  39.515  36.476   4.342
23444W        W95770  27.714   1.003  13.442
23445W        W95771  20.563  12.377  12.004
23446W        W95772  42.064  13.587  11.502
23447W        W95773  42.164  41.909   1.718
23448W        W95774  38.985  37.861   3.221
23449W        W95775   4.841  43.990  10.810
23450W        W95776  19.026  10.943   3.696
23451W        W95777  18.720  15.842   4.397
23452W        W95778  44.796  26.057   1.909
23453W        W95779  44.889  15.636  13.599
23454W        W95780  37.040   6.830   3.739
23455W        W95781  35.120  38.946   5.008
23456W        W95782  23.727  39.503  13.431
23457W        W95783  19.146  13.509   2.997
23458W        W95784   5.165  16.704  10.359
23459W        W95785  38.943  14.765  11.819
23460W        W95786  36.400   8.345   4.191
23461W        W95787   4.729  16.162   3.638
23462W        W95788  41.206  37.081  10.674
23463W        W95789  30.605   9.277   3.081
23464W        W95790  38.481  38.494   3.750
23465W        W95791   9.810   8.838   1.793
23466W        W95792   8.890  29.629  14.465
23467W        W95793  42.123  12.798   0.378
23468W        W95794  23.095  36.072   2.602
23469W        W95795  22.592  26.770   3.644
23470W        W95796  20.831  11.467   0.944
23471W        W95797   4.847  16.613   2.671
23472W        W95798  32.205  34.618  12.485
23473W        W95799  11.628  38.031   2.114
23474W        W95800  35.379  16.553   1.288
23475W        W95801  44.439  10.304   1.265
23476W        W95802  29.129   1.263   2.479
23477W        W95803  40.114  38.367   4.687
23478W        W95804  42.365  20.904  11.613
23479W        W95805   9.307   3.037   1.248
23480W        W95806  36.896  42.729   1.365
23481W        W95807   4.886  28.495   1.864
23482W        W95808  36.824  11.804  11.172
23483W        W95809  19.092  40.178   4.515
23484W        W95810  15.337  32.980  10.497
23485W        W95811  40.406  27.634   4.858
23486W        W95812  43.951  27.421  11.453
23487W        W95813  24.889  16.838   0.970
23488W        W95814   9.243  24.941   1.357
23489W        W95815  17.216   5.519   2.477
23490W        W95816  17.856   7.243  11.283
23491W        W95817  29.865  32.216  11.368
23492W        W95818  22.287  30.113  12.531
23493W        W95819  13.726  22.486   2.697
23494W        W95820  10.236  25.735  11.878
23495W        W95821  35.858  25.799  12.519
23496W        W95822   3.651  30.098  12.040
23497W        W95823  35.121  42.823  14.408
23498W        W95824  27.471  28.406   0.198
23499W        W95825  22.467  38.497   3.194
23500W        W95826  15.135  19.340  13.050
23501W        W95827  14.879  10.369   3.840
23502W        W95828   6.168   9.809   1.616
23503W        W95829   8.733  37.474   3.834
23504W        W95830  33.463  33.432  11.439
23505W        W95831  25.751  21.743  12.180
23506W        W95832  18.140  43.037   2.782
23507W        W95833  33.019  38.082   4.273
23508W        W95834   3.281  36.540  11.415
23509W        W95835  26.910  25.021   0.678
23510W        W95836  29.680  35.782   2.926
23511W        W95837   8.270   4.628   1.953
23512W        W95838  35.494  21.318  14.060
23513W        W95839   9.879  31.513  11.266
23514W        W95840  28.443   2.107   2.402
23515W        W95841  44.171  17.774   3.289
23516W        W95842  33.831  38.356  10.178
23517W        W95843   4.765   3.184   4.232
23518W        W95844  20.165  18.750  10.714
23519W        W95845   7.921  32.101  13.139
23520W        W95846  26.232  29.235   3.913
23521W        W95847  21.587  33.496  13.555
23522W        W95848  39.494   3.710  12.961
23523W        W95849   0.818  21.022  13.717
23524W        W95850  19.428  25.015   0.825
23525W        W95851  11.445  10.786   2.339
23526W        W95852  17.815  42.440   0.746
23527W        W95853  30.646   4.089  13.919
23528W        W95854  30.676  20.747   3.284
23529W        W95855   5.373  13.873  13.826
23530W        W95856   2.481  10.895   4.989
23531W        W95857  16.008  43.212  10.688
23532W        W95858  12.830  44.725  11.595
23533W        W95859  35.144  36.101   3.195
23534W        W95860  30.598  23.291  11.934
23535W        W95861  22.552  13.851  14.854
23536W        W95862  37.025   4.365  13.557
23537W        W95863   1.818   0.528   0.530
23538W        W95864  29.150  23.012   4.410
23539W        W95865  20.761  25.426   4.939
23540W        W95866  39.218  11.651  12.838
23541W        W95867   0.932  12.688  10.541
23542W        W95868  36.510  37.511  14.750
23543W        W95869  19.075  11.920   1.370
23544W        W95870  16.071  22.281   4.223
23545W        W95871  18.528  18.165  14.927
23546W        W95872  39.142  40.501  14.382
23547W        W95873  29.906  40.348   0.936
23548W        W95874  21.632  44.802  12.542
23549W        W95875  36.330  27.951   4.223
23550W        W95876  25.524  31.207  12.551
23551W        W95877  38.090  20.333  13.044
23552W        W95878  11.320  23.665   4.596
23553W        W95879   7.334   1.650  13.918
23554W        W95880  15.610  16.758  14.885
23555W        W95881  22.125  33.361  12.823
23556W        W95882  29.745  34.473   1.721
23557W        W95883  20.922   4.257  14.972
23558W        W95884  28.945   9.888   1.827
23559W        W95885  15.717   3.645   1.659
23560W        W95886   9.212  32.536  11.591
23561W        W95887  31.159  38.134   0.755
23562W        W95888  18.892  12.292  13.471
23563W        W95889   7.057  35.714  13.756
23564W        W95890  38.320   0.213   4.170
23565W        W95891  38.985  31.718  12.789
23566W        W95892  33.343  15.277  12.065
23567W        W95893  11.225   6.291  14.508
23568W        W95894  21.020  37.622  12.539
23569W        W95895   2.492  32.935   2.893
23570W        W95896  38.778   4.428  10.725
23571W        W95897  44.680  23.723   3.261
23572W        W95898  31.085   5.937  13.766
23573W        W95899  12.676   8.543  10.107
23574W        W95900  19.690  13.278   1.820
23575W        W95901  16.839   4.483   2.148
23576W        W95902   9.253  11.739   2.173
23577W        W95903   9.395  38.427  14.248
23578W        W95904  36.086  35.490  10.668
23579W        W95905  20.319  16.144  13.281
23580W        W95906  36.872   6.941   0.443
23581W        W95907  23.122   6.326  14.751
23582W        W95908   7.183  36.078  12.537
23583W        W95909  36.954  27.989  11.864
23584W        W95910   7.621  40.351  12.040
23585W        W95911  28.542  17.522   4.151
23586W        W95912  44.499  26.613   0.850
23587W        W95913  32.045   2.383   5.101
23588W        W95914  23.091  41.895   3.720
23589W        W95915  32.082  43.945  13.075
23590W        W95916   1.066  20.514  14.458
23591W        W95917  15.164   0.854  11.601
23592W        W95918  29.408  38.442   0.989
23593W        W95919  35.877  14.069  13.846
23594W        W95920  38.978  10.647  13.965
23595W        W95921  26.120  20.674   0.290
23596W        W95922  18.426  33.148   2.991
23597W        W95923  27.339  14.437  11.625
23598W        W95924   6.239  31.850   1.774
23599W        W95925  26.644  40.822  11.627
23600W        W95926  23.403  44.402   0.212
23601W        W95927   4.764   9.328   0.876
23602W        W95928  36.000  44.382  12.275
23603W        W95929  31.693  36.802  13.627
23604W        W95930  23.797  26.164   3.281
23605W        W95931  41.923  21.108   1.932
23606W        W95932  14.738  23.600  14.182
23607W        W95933   5.830  33.194  13.809
23608W        W95934   1.716  10.640   3.799
23609W        W95935  17.116   2.668   3.679
23610W        W95936  40.979  10.628   3.189
23611W        W95937   9.530   3.442  12.857
23612W        W95938   5.935  44.783  10.995
23613W        W95939  19.772  37.193  11.970
23614W        W95940   3.698  40.900  12.432
23615W        W95941  26.182   4.470   4.871
23616W        W95942  21.224  12.023  10.920
23617W        W95943  44.716   9.646  14.451
23618W        W95944  10.542  15.718  13.199
23619W        W95945   9.192  32.965   0.784
23620W        W95946  23.166  39.404   5.503
23621W        W95947   8.182  16.612  12.033
23622W        W95948   4.560  38.400  13.978
23623W        W95949  32.674  13.305   0.524
23624W        W95950  15.139  13.221  11.137
23625W        W95951   8.518  41.409   2.846
23626W        W95952   3.992  25.943  14.946
23627W        W95953  14.776  22.084  11.544
23628W        W95954   0.454  39.437   0.403
23629W        W95955  23.121  10.526   0.980
23630W        W95956  37.762  13.126  12.063
23631W        W95957  18.006  16.254  10.765
23632W        W95958   0.023  12.215  12.494
23633W        W95959  20.054  42.869   1.476
23634W        W95960  15.151  15.363   4.152
23635W        W95961  17.720  13.235  10.938
23636W        W95962  34.486  36.090  14.868
23637W        W95963  15.833  22.596  13.948
23638W        W95964   6.830  16.109  11.229
23639W        W95965  16.518   5.770  13.360
23640W        W95966   4.584   3.874   9.751
23641W        W95967  22.703  34.501   4.309
23642W        W95968   8.793  36.953   3.866
23643W        W95969  35.645  44.304  11.440
23644W        W95970  17.165  36.469  14.045
23645W        W95971  41.616  27.512   1.722
23646W        W95972   7.153   2.720  13.877
23647W        W95973  35.109   0.369  12.745
23648W        W95974   2.418  33.089  12.768
23649W        W95975  21.099  33.221  13.446
23650W        W95976  36.490   3.661  13.313
23651W        W95977   8.180  27.712  12.929
23652W        W95978  37.467  15.784   1.005
23653W        W95979   9.172   9.780  12.383
23654W        W95980  39.316  44.502  12.579
23655W        W95981  19.837  23.478   0.183
23656W        W95982  42.315  34.159   2.112
23657W        W95983   4.424  12.767  10.614
23658W        W95984   2.019  30.115   4.650
23659W        W95985  31.623  24.258   1.636
23660W        W95986  34.989  11.897  10.559
23661W        W95987  32.955   3.917   3.103
23662W        W95988  22.706  37.443  14.959
23663W        W95989  40.530  16.480   2.380
23664W        W95990  15.747  44.410  12.501
23665W        W95991   0.727  32.701  10.921
23666W        W95992   7.186  31.963  13.298
23667W        W95993   0.583  36.803   2.794
23668W        W95994  41.125   1.558  11.990
23669W        W95995   5.628  40.555   3.129
23670W        W95996   1.273   4.853   4.594
23671W        W95997  35.104   3.417  14.983
23672W        W95998  33.070  21.641   2.193
23673W        W95999  23.036  43.404  13.070
23674W        W96000  32.642  40.946   4.836
23675W        W96001  30.926  25.902   1.925
23676W        W96002  13.969  27.492   4.123
23677W        W96003  10.678   1.213   4.553
23678W        W96004   2.274  10.212  10.940
23679W        W96005  14.345  22.140   0.920
23680W        W96006   3.361   1.778  11.968
23681W        W96007   7.693  20.334   0.616
23682W        W96008  13.761  10.227  12.667
23683W        W96009  16.083   7.047  11.305
23684W        W96010   6.317  10.952  12.738
23685W        W96011  38.146   7.283   1.895
23686W        W96012  42.052  12.773  12.169
23687W        W96013  42.500  24.523  14.527
23688W        W96014  25.714  29.683   2.558
23689W        W96015  21.807  27.251  11.945
23690W        W96016  36.997  22.281   1.406
23691W        W96017   8.651   9.718   1.269
23692W        W96018  33.517  31.535  13.998
23693W        W96019  18.697  34.477  12.169
23694W        W96020  39.849  31.730  11.781
23695W        W96021  26.835  13.213  13.412
23696W        W96022  31.409  39.257  13.362
23697W        W96023  40.850  31.819   0.533
23698W        W96024  41.885  37.305   0.264
23699W        W96025  44.476  17.616   2.301
23700W        W96026   8.103  15.871  14.252
23701W        W96027   8.896  37.827   4.597
23702W        W96028  37.137  35.488  13.401
23703W        W96029   6.278  12.378  13.468
23704W        W96030  20.482  20.553   1.737
23705W        W96031  23.035   5.137  11.567
23706W        W96032  42.330  43.003  12.041
23707W        W96033  43.502   7.164  10.688
23708W        W96034  35.299  31.038   4.125
23709W        W96035   1.331  12.332   0.768
23710W        W96036  29.125   1.544   2.945
23711W        W96037  21.162   5.015   4.876
23712W        W96038  21.521  22.644  14.097
23713W        W96039   5.550  23.023  11.537
23714W        W96040  26.763  14.342  10.154
23715W        W96041   3.514  11.753   2.259
23716W        W96042   9.105  22.960   4.070
23717W        W96043  20.218  42.305   4.743
23718W        W96044  41.519  12.118   4.397
23719W        W96045  39.932  22.477   1.752
23720W        W96046   8.635  34.610  12.566
23721W        W96047  32.828  16.070   3.974
23722W        W96048  28.210  32.803   1.414
23723W        W96049  33.862  24.584  12.887
23724W        W96050  17.681  40.908   4.684
23725W        W96051  23.016  20.319  10.695
23726W        W96052  34.145  15.590   1.752
23727W        W96053  41.984   1.359  14.601
23728W        W96054  32.732  26.973   2.361
23729W        W96055  24.886  28.905  11.559
23730W        W96056  23.509  42.271  11.104
23731W        W96057  37.037   7.467  10.666
23732W        W96058   7.988   3.479  12.291
23733W        W96059   7.872  12.249   2.649
23734W        W96060  19.495  34.536  14.035
23735W        W96061  17.146   3.317  10.804
23736W        W96062  40.554  21.440  10.614
23737W        W96063  22.146  26.703   1.999
23738W        W96064  20.792  27.303  12.013
23739W        W96065   7.910  23.124  14.809
23740W        W96066  23.508  13.563  11.508
23741W        W96067  32.845  27.118  11.121
23742W        W96068  14.256   7.108  10.400
23743W        W96069  14.178  10.065  12.364
23744W        W96070  41.277   9.927  11.569
23745W        W96071  29.737   1.260   0.332
23746W        W96072   2.911  38.911  13.566
23747W        W96073  23.095  14.699  14.790
23748W        W96074  25.467  19.597   2.683
23749W        W96075  40.356   4.682   3.644
23750W        W96076  38.229  14.672   3.326
23751W        W96077  26.315  17.153  12.519
23752W        W96078  20.664  38.825   2.620
23753W        W96079   4.364  37.525  14.091
23754W        W96080  32.199  17.530  14.403
23755W        W96081   2.010   1.234   1.897
23756W        W96082  35.602   8.793   2.896
23757W        W96083  13.344   7.647   4.128
23758W        W96084  43.296  24.483  11.986
23759W        W96085  40.745  10.818   2.738
23760W        W96086  30.052  19.816  11.094
23761W        W96087  36.044  20.449   1.017
23762W        W96088  39.994  18.456   4.884
23763W        W96089  13.136  13.541   4.220
23764W        W96090  15.002  44.836   2.447
23765W        W96091  20.575   3.248  13.571
23766W        W96092   1.380   8.059  13.384
23767W        W96093  36.516  19.004   2.840
23768W        W96094  40.991  41.057   1.554
23769W        W96095  16.803  16.041   3.626
23770W        W96096  13.869  29.508  12.293
23771W        W96097   8.462  42.486  11.877
23772W        W96098  34.059  15.344   4.362
23773W        W96099  33.532  41.742  13.395
23774W        W96100  44.659  40.604   4.097
23775W        W96101  26.827  13.566   1.679
23776W        W96102  40.026  19.638   4.059
23777W        W96103   9.326  38.473  10.674
23778W        W96104  25.622  34.060  14.774
23779W        W96105  34.051  28.934  10.726
23780W        W96106  13.817  33.615  10.225
23781W        W96107  11.315  18.848   2.882
23782W        W96108   6.243   4.726  13.511
23783W        W96109  33.405   3.918  11.594
23784W        W96110  34.977  28.037  10.694
23785W        W96111  11.763  36.136   5.018
23786W        W96112  18.594  14.889   4.688
23787W        W96113   8.603  31.971  13.657
23788W        W96114  44.799  42.511  12.945
23789W        W96115  21.983  31.185   2.343
23790W        W96116  31.352  27.902  13.310
23791W        W96117  16.208  21.326   3.878
23792W        W96118  24.737  20.113   3.643
23793W        W96119   4.519   0.010  13.447
23794W        W96120   8.722  29.063   4.248
23795W        W96121   5.182  33.424  10.221
23796W        W96122  35.159  35.353   3.657
23797W        W96123  23.826  43.809  13.158
23798W        W96124   2.897  24.117   4.059
23799W        W96125   0.638   7.598   0.176
23800W        W96126  12.314  38.050  13.952
23801W        W96127   4.172  25.980  12.123
23802W        W96128  27.116  13.743   4.570
23803W        W96129   1.442   3.448  14.877
23804W        W96130  21.608  21.034   1.351
23805W        W96131  27.597  20.648   3.201
23806W        W96132  32.888   4.286  14.347
23807W        W96133   0.308  16.388  13.855
23808W        W96134   8.678  13.343  14.402
23809W        W96135  23.175  30.237  13.013
23810W        W96136  21.137  12.584   2.352
23811W        W96137  38.037   9.320  12.791
23812W        W96138  41.071  42.396   2.512
23813W        W96139  32.877  17.717   3.013
23814W        W96140  24.001  44.507  10.568
23815W        W96141  18.493  19.248  10.764
23816W        W96142  30.112  21.654  14.270
23817W        W96143  10.835  19.607   3.165
23818W        W96144   0.915  31.056   4.557
23819W        W96145  18.974  37.281   3.817
23820W        W96146   0.743  38.425   1.255
23821W        W96147  43.222  10.373  11.033
23822W        W96148   8.925  11.583  10.679
23823W        W96149  34.715  14.069   3.253
23824W        W96150   6.915  15.598  13.382
23825W        W96151  43.113   2.924  14.512
23826W        W96152  13.196  38.437  10.813
23827W        W96153  31.340   4.694  13.434
23828W        W96154  15.405  19.206   2.933
23829W        W96155  35.599  29.635  12.085
23830W        W96156   4.928  17.853  10.630
23831W        W96157  30.359   3.652   4.084
23832W        W96158  22.610   1.197   0.138
23833W        W96159  34.296   4.646  11.118
23834W        W96160   2.787  11.024  13.504
23835W        W96161  13.152  20.997  12.968
23836W        W96162  16.557   2.302   4.268
23837W        W96163  11.402  34.406   0.019
23838W        W96164  10.913   8.525  12.077
23839W        W96165  33.549  19.335   1.276
23840W        W96166  12.988   0.695   0.044
23841W        W96167  23.985  14.279   2.899
23842W        W96168  44.296  21.490  11.519
23843W        W96169  19.562  21.043  14.801
23844W        W96170  20.071  32.828  12.744
23845W        W96171  44.832  17.506   2.678
23846W        W96172  10.337   6.842   3.702
23847W        W96173  29.533  14.388   1.717
23848W        W96174  34.434  31.393   4.537
23849W        W96175   8.343  23.194   1.128
23850W        W96176  20.202   5.419   0.717
23851W        W96177   8.776   0.148   0.831
23852W        W96178  10.821   0.908   0.475
23853W        W96179   7.744  34.114  12.869
23854W        W96180  26.655  33.195  11.626
23855W        W96181  31.195  29.325   1.750
23856W        W96182  20.715   2.130   4.593
23857W        W96183  22.766  31.663  11.563
23858W        W96184  25.469   9.333  12.556
23859W        W96185  21.889  23.293   0.226
23860W        W96186  14.077   0.024   3.697
23861W        W96187  21.267   9.274   2.307
23862W        W96188  39.374   7.679  14.355
23863W        W96189   0.785  17.897   2.647
23864W        W96190   4.576  21.619   2.434
23865W        W96191  37.559   3.321  14.844
23866W        W96192  35.050   4.406   4.060
23867W        W96193  27.092   2.043  13.063
23868W        W96194  15.221  43.591   1.917
23869W        W96195  10.249  34.546  14.008
23870W        W96196   3.262   4.407  13.973
23871W        W96197   4.645  40.947  11.188
23872W        W96198   2.638   1.777   9.884
23873W        W96199   4.799   5.011  12.893
23874W        W96200  31.158   9.724   1.434
23875W        W96201  26.487  20.351  12.805
23876W        W96202  41.419  39.459  10.967
23877W        W96203  37.563   6.327   1.019
23878W        W96204  18.609  11.622  11.897
23879W        W96205   6.976  40.304   2.844
23880W        W96206  15.139   9.935   4.064
23881W        W96207  35.196  24.047   2.314
23882W        W96208  31.281   7.724   1.431
23883W        W96209  11.809  36.838   1.007
23884W        W96210  18.279  10.594  14.282
23885W        W96211   6.556  33.660   1.966
23886W        W96212  32.142  38.327   3.669
23887W        W96213  34.923  26.769  12.838
23888W        W96214  32.821  43.008  11.520
23889W        W96215  23.912  44.302  11.421
23890W        W96216   4.771  24.749  10.702
23891W        W96217  20.238  29.423   3.006
23892W        W96218  42.872  36.072   0.537
23893W        W96219  26.556  35.710  12.583
23894W        W96220   9.632  14.460  14.789
23895W        W96221  40.399   1.954   3.347
23896W        W96222   6.207   8.302   3.282
23897W        W96223   4.461  23.285  13.668
23898W        W96224  35.582  25.804  13.428
23899W        W96225  10.923  27.696   4.077
23900W        W96226  31.048  28.704  14.106
23901W        W96227  12.226  11.101   2.903
23902W        W96228  21.470  21.625  14.403
23903W        W96229   3.207  35.618  12.354
23904W        W96230   0.969   9.204   1.718
23905W        W96231  20.621  37.565   1.788
23906W        W96232  19.729   6.046   4.696
23907W        W96233  10.168  37.789  13.920
23908W        W96234  32.962  36.589  13.454
23909W        W96235  14.648   2.855  12.241
23910W        W96236  28.699   9.885  11.962
23911W        W96237   4.307  19.076   0.642
23912W        W96238  27.582   7.319   2.498
23913W        W96239  17.306  40.283  14.915
23914W        W96240   4.006  25.191   0.305
23915W        W96241   3.391  37.537   3.199
23916W        W96242  42.061  40.880  10.516
23917W        W96243  20.361  10.717  14.285
23918W        W96244   7.740  14.383   2.344
23919W        W96245   0.285  23.021  10.630
23920W        W96246  41.849   6.597  12.454
23921W        W96247  34.718  15.677  14.235
23922W        W96248   1.184  30.883  11.224
23923W        W96249  12.838  31.677   2.225
23924W        W96250   8.364  34.342  12.104
23925W        W96251  24.465  17.864   3.715
23926W        W96252   8.598  26.089   2.910
23927W        W96253  19.545  25.683   3.630
23928W        W96254  16.490  41.139   4.190
23929W        W96255   5.203  18.047  12.948
23930W        W96256  24.730  20.080  11.790
23931W        W96257  39.894  23.048   4.749
23932W        W96258  26.439  16.087  12.719
23933W        W96259  38.337  13.870  10.889
23934W        W96260  24.210  24.185   5.098
23935W        W96261  15.327  24.211  13.724
23936W        W96262  22.593  14.672  11.427
23937W        W96263  11.355  21.340   0.883
23938W        W96264  20.108   8.177   3.788
23939W        W96265  10.605  29.555   4.649
23940W        W96266  37.307   4.333   4.192
23941W        W96267  16.726  33.637   2.958
23942W        W96268  35.960  26.196   5.135
23943W        W96269  29.372  30.647  14.264
23944W        W96270  41.719  11.223  13.974
23945W        W96271  35.838  31.988  14.080
23946W        W96272   9.454   0.364   3.244
23947W        W96273  12.356  43.434   0.034
23948W        W96274  15.502  35.626  11.964
23949W        W96275  36.421  30.376   2.280
23950W        W96276  29.912  36.147  14.569
23951W        W96277  16.288  28.079  11.771
23952W        W96278  37.249  12.735   0.360
23953W        W96279  39.907   4.990  11.973
23954W        W96280  31.379  11.354   2.056
23955W        W96281   2.590   7.583  11.883
23956W        W96282  42.931   4.892   0.951
23957W        W96283  19.799  43.881  13.922
23958W        W96284   6.820   5.788  13.098
23959W        W96285  40.690  31.897  10.753
23960W        W96286  13.590  20.772   0.960
23961W        W96287  26.503   8.581  13.000
23962W        W96288  17.022  31.074   0.578
23963W        W96289  24.564  31.707  12.516
23964W        W96290   6.727  21.004  13.275
23965W        W96291  16.262  35.064  13.455
23966W        W96292  21.690  19.468  14.724
23967W        W96293  20.674  41.424  11.502
23968W        W96294  21.724  15.149   1.704
23969W        W96295  32.970   2.386   2.358
23970W        W96296  15.753  38.290   2.209
23971W        W96297  25.371  25.761  14.006
23972W        W96298  24.158  31.946   0.799
23973W        W96299   7.840  26.149  11.990
23974W        W96300   7.366  28.208  14.835
23975W        W96301  35.311  40.535  11.192
23976W        W96302  34.339  38.884   2.543
23977W        W96303  32.788  25.111   0.994
23978W        W96304  28.060  44.612   3.636
23979W        W96305  23.002  40.636   0.826
23980W        W96306   1.782  15.475   2.313
23981W        W96307  30.109  13.145  11.079
23982W        W96308  14.585   3.660   2.337
23983W        W96309   8.234  34.036  10.719
23984W        W96310  36.622  28.969   2.710
23985W        W96311  36.934  40.812  13.932
23986W        W96312  24.303   0.880  14.359
23987W        W96313  18.078  14.795   1.084
23988W        W96314  18.287  27.753   1.897
23989W        W96315  16.637  30.880   3.909
23990W        W96316  42.536  12.194   2.273
23991W        W96317  23.452  31.735  13.489
23992W        W96318  21.906   7.889   2.953
23993W        W96319  14.848   3.280   0.893
23994W        W96320   3.989  32.116  12.887
23995W        W96321  16.342  13.240  12.547
23996W        W96322   5.432  31.714  10.665
23997W        W96323  13.044  28.956   2.837
23998W        W96324  14.674   9.634   3.348
23999W        W96325  18.617  30.210   3.844
24000W        W96326  19.546  25.792   1.396
24001W        W96327  28.337  29.327   4.270
24002W        W96328  20.173   5.960   2.766
24003W        W96329  32.127   6.070  13.644
24004W        W96330  37.500  41.923   2.633
24005W        W96331   6.971   0.597  12.570
24006W        W96332  42.902  34.477  13.399
24007W        W96333  37.548  30.400   0.251
24008W        W96334  32.953  23.971   3.875
24009W        W96335  12.101  28.431   2.639
24010W        W96336   3.477  16.077  11.454
24011W        W96337  30.872  30.563  11.065
24012W        W96338  41.351  25.225  11.792
24013W        W96339  25.148  15.108   1.651
24014W        W96340  21.545  17.692   4.258
24015W        W96341  31.089  17.811   4.550
24016W        W96342   9.648  21.131   4.550
24017W        W96343  21.466  29.470  11.543
24018W        W96344  37.028  32.034   4.602
24019W        W96345  20.345  44.202   2.175
24020W        W96346   9.249  29.582  14.870
24021W        W96347  21.036   2.503  14.010
24022W        W96348  31.358  31.114   4.578
24023W        W96349  37.357  35.721  13.836
24024W        W96350   6.216  13.311   4.657
24025W        W96351  26.081   3.395   0.391
24026W        W96352  23.598  34.437   0.846
24027W        W96353  42.865   2.450   2.593
24028W        W96354  40.685  35.967   0.770
24029W        W96355   3.843   3.050  11.970
24030W        W96356  37.813  31.952  14.772
24031W        W96357  18.587  41.486   2.744
24032W        W96358  27.633  30.193  14.082
24033W        W96359   0.386   9.277  14.736
24034W        W96360   1.066  37.400  14.371
24035W        W96361  36.923  29.510   4.297
24036W        W96362  42.479  40.271   4.317
24037W        W96363  24.530  16.639  12.299
24038W        W96364   4.428  13.890  13.732
24039W        W96365  18.740   8.949   0.848
24040W        W96366  10.086  16.607   4.502
24041W        W96367  19.165  26.261  12.953
24042W        W96368  44.854   9.754  10.746
24043W        W96369   0.834  11.204   2.587
24044W        W96370   2.552   6.806   0.768
24045W        W96371  12.706  42.745  12.380
24046W        W96372   6.801  27.580   2.745
24047W        W96373  12.576  43.489  12.873
24048W        W96374   9.622  35.061  11.063
24049W        W96375  26.953  19.517   1.849
24050W        W96376  15.749  12.195   4.932
24051W        W96377   9.626  17.361  10.741
24052W        W96378  41.988  25.513   3.141
24053W        W96379   3.107  10.235  14.219
24054W        W96380   9.504  30.098   5.106
24055W        W96381  30.581  17.741   1.699
24056W        W96382  20.797  23.426   4.100
24057W        W96383  19.636  38.798  14.831
24058W        W96384  32.946   6.923  12.354
24059W        W96385   3.772  10.555   0.562
24060W        W96386  20.364  10.271   0.900
24061W        W96387  16.780  24.984  13.010
24062W        W96388  15.740  43.297   4.883
24063W        W96389   8.191  33.075   2.877
24064W        W96390   1.970  18.123  10.867
24065W        W96391  14.425  21.537  12.680
24066W        W96392  15.814  29.158  13.747
24067W        W96393  32.378  38.414   0.350
24068W        W96394   1.894  32.544  13.643
24069W        W96395  21.681  16.322   4.074
24070W        W96396  25.198  37.485   1.921
24071W        W96397  24.805  11.909  12.472
24072W        W96398  20.272  25.992   0.847
24073W        W96399  44.481  18.255   2.886
24074W        W96400  11.457  35.302   3.105
24075W        W96401  44.838  21.937   2.881
24076W        W96402  14.332  24.674  11.149
24077W        W96403  21.258   4.742   3.239
24078W        W96404   6.392   5.611  11.936
24079W        W96405  17.189  30.382   3.228
24080W        W96406  20.672  18.989   1.832
24081W        W96407  22.723  23.294  13.793
24082W        W96408  10.869  13.348  11.679
24083W        W96409  23.612  36.080   2.403
24084W        W96410  24.540  39.366  11.935
24085W        W96411   7.031   5.003   2.293
24086W        W96412   7.656   6.761   2.278
24087W        W96413  35.135  31.993   0.823
24088W        W96414  30.940  40.428  10.129
24089W        W96415  41.556  10.901  10.667
24090W        W96416  39.001  30.969   0.895
24091W        W96417   4.655  22.013  14.744
24092W        W96418  31.617  29.559   4.697
24093W        W96419   9.227  32.191   0.327
24094W        W96420  15.355  19.361  12.230
24095W        W96421  28.191  23.543   4.686
24096W        W96422  23.339  12.650   0.908
24097W        W96423  35.119  36.952  14.825
24098W        W96424   4.469  34.767  11.953
24099W        W96425  14.917  20.010   4.521
24100W        W96426  36.577   4.321  12.725
24101W        W96427   9.263  10.140  11.991
24102W        W96428  35.449   5.247   1.349
24103W        W96429  26.477   4.821  14.593
24104W        W96430   8.282  21.567   2.681
24105W        W96431  34.144   1.133  13.866
24106W        W96432  12.049  28.247  10.992
24107W        W96433  17.029   2.933  12.504
24108W        W96434  31.124  18.828  14.184
24109W        W96435  28.937  30.603   0.034
24110W        W96436  16.123  16.050   0.917
24111W        W96437   6.620  22.994   3.186
24112W        W96438  37.663  23.264   1.656
24113W        W96439  15.548  11.921   1.462
24114W        W96440  17.359   7.904  12.328
24115W        W96441  36.119  34.370   3.740
24116W        W96442  14.325   6.822  12.461
24117W        W96443   5.944  27.982   4.582
24118W        W96444   4.842  32.915   0.938
24119W        W96445  30.480  25.941  11.771
24120W        W96446  30.632  44.023  10.959
24121W        W96447  32.433  16.134   3.602
24122W        W96448  42.181   7.906  12.488
24123W        W96449  44.005  12.425   0.552
24124W        W96450   6.661   8.943  12.436
24125W        W96451  31.596  33.385   0.793
24126W        W96452  22.962  37.152  10.011
24127W        W96453  31.943   0.869   3.118
24128W        W96454   8.262  11.636   0.411
24129W        W96455  12.408  39.301  13.470
24130W        W96456  34.550  35.671   9.730
24131W        W96457  40.770   2.487  10.757
24132W        W96458  30.824  21.060   4.173
24133W        W96459   2.272  36.832   0.267
24134W        W96460   3.005  39.926  11.110
24135W        W96461  28.172  34.463   2.488
24136W        W96462   2.723   1.234  12.424
24137W        W96463   1.987  32.464  12.407
24138W        W96464  25.141  29.329  13.429
24139W        W96465  42.791  26.256  14.605
24140W        W96466  37.918  30.331  12.618
24141W        W96467   7.192  22.498   4.219
24142W        W96468  17.357  17.306   1.292
24143W        W96469  27.974  13.872  12.386
24144W        W96470  28.946  40.356  12.487
24145W        W96471  26.099  27.790  11.950
24146W        W96472  10.356   2.119   0.324
24147W        W96473  44.021   6.385  14.917
24148W        W96474  39.756   3.508   5.052
24149W        W96475  23.080   2.749  11.554
24150W        W96476   6.198  34.486   1.880
24151W        W96477  24.045  31.965  12.988
24152W        W96478  40.399  25.937   2.517
24153W        W96479  38.080  12.474   0.032
24154W        W96480  25.499  10.650  14.746
24155W        W96481  26.785  14.854  14.392
24156W        W96482  26.066  40.088  14.532
24157W        W96483   9.162  25.900   1.266
24158W        W96484   2.368  32.807   3.932
24159W        W96485  11.216   9.613  11.482
24160W        W96486  40.105  33.327   0.421
24161W        W96487   8.713  32.081   0.496
24162W        W96488  12.915   5.963  12.651
24163W        W96489  41.326  36.542  14.499
24164W        W96490  43.710   4.836  13.587
24165W        W96491   4.462  39.053  13.357
24166W        W96492  16.130  25.435   4.304
24167W        W96493  15.573  30.914   2.213
24168W        W96494   6.997  32.545  14.929
24169W        W96495   1.374  19.191   0.263
24170W        W96496  25.756  38.553  14.021
24171W        W96497  26.372  10.056  12.834
24172W        W96498  11.520  24.115   3.759
24173W        W96499   8.307  42.249  14.322
24174W        W96500  21.071  12.608   3.258
24175W        W96501  24.385   7.659  14.787
24176W        W96502  41.858   0.576   1.030
24177W        W96503  10.738  44.965  10.584
24178W        W96504  36.576   8.799  10.580
24179W        W96505  18.775   6.436   4.548
24180W        W96506  25.955  24.601   1.420
24181W        W96507  36.973  31.510   4.593
24182W        W96508  10.299   8.954  13.346
24183W        W96509  40.007  30.728  10.700
24184W        W96510  21.046  39.383   4.056
24185W        W96511  29.771   9.622   1.864
24186W        W96512   7.265  34.419  11.572
24187W        W96513  22.559  13.913  11.969
24188W        W96514  29.734  29.927  13.027
24189W        W96515  24.682   6.287  12.064
24190W        W96516   9.763  27.072   3.580
24191W        W96517  17.220   6.120  10.814
24192W        W96518  24.177  30.889   0.794
24193W        W96519  32.195   2.801   0.306
24194W        W96520  40.536  43.590  14.350
24195W        W96521  14.761  20.740  13.109
24196W        W96522   1.178  26.116   1.337
24197W        W96523  30.642  23.420  13.023
24198W        W96524  44.293   6.977   0.307
24199W        W96525   7.405  42.443   0.780
24200W        W96526  41.379   6.285   3.285
24201W        W96527  35.779  22.712  10.770
24202W        W96528  14.127  26.110   5.066
24203W        W96529  31.584   7.772  12.349
24204W        W96530  22.556   5.702  12.858
24205W        W96531   4.649  25.123   0.782
24206W        W96532  13.747  29.495   3.209
24207W        W96533   4.831  37.949  10.603
24208W        W96534  28.877  15.865   1.383
24209W        W96535  32.071  35.984  14.700
24210W        W96536  34.332  23.763   0.287
24211W        W96537  23.510   7.203  10.756
24212W        W96538   9.317  35.502  12.152
24213W        W96539  39.857  17.045  11.602
24214W        W96540  21.451  41.999  13.899
24215W        W96541  39.210  12.692   1.386
24216W        W96542  17.989  22.109   4.315
24217W        W96543   1.139   7.461   2.318
24218W        W96544  13.686   3.627   4.402
24219W        W96545  36.929  12.385   0.676
24220W        W96546  44.704   1.853  14.218
24221W        W96547   3.026  15.143  12.949
24222W        W96548  22.023  44.410   2.785
24223W        W96549   1.459  40.739  11.897
24224W        W96550  35.005  39.610  10.621
24225W        W96551   1.303  29.165  13.425
24226W        W96552  36.569   3.370   3.224
24227W        W96553   0.924  22.504  11.290
24228W        W96554  15.530  34.024   3.584
24229W        W96555   4.257  14.626  12.876
24230W        W96556  15.825  31.607  11.520
24231W        W96557  34.110  42.659   0.685
24232W        W96558  33.051  44.286   2.155
24233W        W96559  40.912  19.526   2.317
24234W        W96560  26.952   4.890  13.347
24235W        W96561   3.316  34.539  12.398
24236W        W96562   0.688   9.681  13.000
24237W        W96563  17.690  36.378   3.632
24238W        W96564  33.571  27.909  12.981
24239W        W96565  17.158  33.587  13.984
24240W        W96566  15.008  30.639   0.499
24241W        W96567  32.455  15.794  12.997
24242W        W96568  20.109  31.859  12.056
24243W        W96569  15.404  12.128  13.388
24244W        W96570  43.751  43.813  12.059
24245W        W96571  16.623  10.118   4.270
24246W        W96572  33.608  17.261   1.140
24247W        W96573  23.734  44.592   4.728
24248W        W96574  15.303  43.725  14.408
24249W        W96575  25.989   8.850   2.542
24250W        W96576  42.769  18.570   4.860
24251W        W96577   7.746  34.959   2.629
24252W        W96578  37.338  24.140  12.177
24253W        W96579  22.895  38.888  10.377
24254W        W96580  23.475  14.303   1.698
24255W        W96581  41.786  39.828  11.842
24256W        W96582  11.084  40.382  13.850
24257W        W96583  37.905   5.348   4.636
24258W        W96584  10.620  32.891  13.254
24259W        W96585  16.081  19.804  14.734
24260W        W96586  19.145  36.408  10.337
24261W        W96587  28.668  15.058  11.791
24262W        W96588  19.252  32.313  14.413
24263W        W96589   2.512   2.274   0.821
24264W        W96590  16.280  28.646   4.736
24265W        W96591  28.914  35.527   3.716
24266W        W96592  43.568   7.756   2.173
24267W        W96593  19.099  11.944  13.852
24268W        W96594  30.033  44.642  12.597
24269W        W96595   7.184  18.210   2.138
24270W        W96596  12.300  24.759   0.953
24271W        W96597  33.527  29.105  13.824
24272W        W96598  23.059  42.261   2.469
24273W        W96599   6.256   8.901  11.145
24274W        W96600  18.170  15.924   2.338
24275W        W96601  37.545   0.316  10.742
24276W        W96602  33.619  33.571  13.876
24277W        W96603   1.639  19.228  13.617
24278W        W96604   2.194  32.070   5.009
24279W        W96605  26.616   7.194   4.621
24280W        W96606   7.793  13.342  13.057
24281W        W96607   2.937  10.125  12.071
24282W        W96608  12.370  37.415  10.983
24283W        W96609  11.608  10.727  10.150
24284W        W96610  26.052  22.778   0.752
24285W        W96611  31.508  43.604  13.773
24286W        W96612  43.716  15.967  12.060
24287W        W96613  28.150  25.077  11.143
24288W        W96614  10.184  43.350  12.516
24289W        W96615  36.040  10.965   4.188
24290W        W96616   1.524  20.484   3.329
24291W        W96617  44.355   5.181  10.615
24292W        W96618  26.009  19.855   3.797
24293W        W96619  22.721   3.340  11.206
24294W        W96620  36.407  44.512   3.222
24295W        W96621  19.388  25.598  14.241
24296W        W96622   0.488  12.271   4.221
24297W        W96623  19.753  11.840   3.639
24298W        W96624   9.635  27.245   0.100
24299W        W96625  11.652  33.871   4.567
24300W        W96626  32.439  13.812  13.405
24301W        W96627   4.742  17.090  12.082
24302W        W96628  27.732  40.531  13.609
24303W        W96629  22.331   1.724   2.286
24304W        W96630  24.084  22.535  12.729
24305W        W96631  12.109  41.653   1.428
24306W        W96632  16.839  18.159   4.105
24307W        W96633   2.887   9.413  14.804
24308W        W96634  20.432  41.580  14.972
24309W        W96635  14.997  18.091   2.770
24310W        W96636  23.291  41.483   0.160
24311W        W96637  26.336  10.878  13.060
24312W        W96638  13.459  24.583   4.551
24313W        W96639   3.788   5.632  12.835
24314W        W96640  15.140  20.505   0.768
24315W        W96641  15.021  11.787   4.092
24316W        W96642   5.201  28.064   0.286
24317W        W96643  13.836  29.903  12.614
24318W        W96644  20.788   2.577   3.577
24319W        W96645   8.926   9.814  14.025
24320W        W96646  37.941  21.019  12.059
24321W        W96647  10.876  16.294   3.637
24322W        W96648  38.534  20.650  13.038
24323W        W96649  17.068  30.871  13.411
24324W        W96650   8.124  35.929  12.291
24325W        W96651  17.014  19.881  11.441
24326W        W96652  32.908  19.266   0.297
24327W        W96653  27.064  25.028  11.555
24328W        W96654  27.687  16.328  13.647
24329W        W96655  34.528  33.615  12.422
24330W        W96656  33.565  19.323  11.671
24331W        W96657  12.528  42.032  10.780
24332W        W96658   5.461  37.850  12.451
24333W        W96659  32.583  13.168   1.779
24334W        W96660  27.698  22.631  10.546
24335W        W96661   1.183  26.492   0.339
24336W        W96662  43.516   0.385   3.256
24337W        W96663  19.172  14.473   3.301
24338W        W96664  36.976  29.419  12.859
24339W        W96665   2.402   1.568  11.167
24340W        W96666  29.589   0.488   1.559
24341W        W96667  19.332  10.217   1.904
24342W        W96668   7.778  36.599   2.216
24343W        W96669   8.803  11.086   4.188
24344W        W96670  38.317  19.118   3.886
24345W        W96671  38.068  44.288   1.496
24346W        W96672  15.083  44.083   1.786
24347W        W96673  32.143  19.288  14.332
24348W        W96674  10.867  25.917  13.087
24349W        W96675  35.074  31.034  14.880
24350W        W96676  16.577   3.950  11.236
24351W        W96677  33.589  30.946  11.249
24352W        W96678  37.009   6.913  11.587
24353W        W96679  28.603  20.354   2.216
24354W        W96680  31.002  40.272   3.637
24355W        W96681  40.743  33.498  11.991
24356W        W96682  22.073  22.443  11.898
24357W        W96683  10.539  16.863   3.080
24358W        W96684  16.390   9.827  14.052
24359W        W96685  28.982  20.614  10.730
24360W        W96686  30.167  29.638   0.648
24361W        W96687  31.539  28.068   4.523
24362W        W96688  25.130  18.219   0.321
24363W        W96689  31.931  23.657   4.575
24364W        W96690  23.028  42.021   4.638
24365W        W96691  18.070  12.379  11.895
24366W        W96692  15.390   5.163   4.058
24367W        W96693  11.382  23.710  11.429
24368W        W96694  11.298  16.174  14.941
24369W        W96695   1.598  18.751   5.100
24370W        W96696  12.106   9.905   1.688
24371W        W96697  10.326  13.701  13.303
24372W        W96698  24.664  35.990  11.677
24373W        W96699  28.017  22.399   1.038
24374W        W96700  34.349  44.728   2.861
24375W        W96701  25.135  24.588  12.379
24376W        W96702  23.778   2.877  10.674
24377W        W96703   2.457  40.616   4.172
24378W        W96704  16.255  43.805  13.747
24379W        W96705  29.926  16.993  14.472
24380W        W96706  16.504  39.820  14.954
24381W        W96707  12.045  13.066   4.204
24382W        W96708  21.470  40.051  11.452
24383W        W96709  28.298  26.981  13.653
24384W        W96710  23.725  26.749   4.485
24385W        W96711  30.850  44.599  13.536
24386W        W96712  27.758  17.663  13.005
24387W        W96713  29.949  38.242   0.413
24388W        W96714  32.998  14.678   3.852
24389W        W96715  33.508   1.327   4.906
24390W        W96716  33.464  18.725  13.864
24391W        W96717  14.081  35.574   0.284
24392W        W96718  21.037  43.022   1.438
24393W        W96719  32.952  32.938   1.014
24394W        W96720  30.609  20.622   0.430
24395W        W96721  24.084  22.072  12.542
24396W        W96722   6.358  22.141  10.898
24397W        W96723  33.440   1.988  13.043
24398W        W96724  29.008  13.589  11.643
24399W        W96725  21.608  15.896  11.572
24400W        W96726   1.655  11.237   5.300
24401W        W96727  13.324   2.664  14.927
24402W        W96728  28.372  39.528   0.857
24403W        W96729  36.415  18.054   4.866
24404W        W96730  29.126  18.603   1.022
24405W        W96731   7.407  22.819   4.587
24406W        W96732  34.893  41.067   3.704
24407W        W96733  37.056  19.513  11.236
24408W        W96734  38.923  35.401  13.886
24409W        W96735  17.083   4.808   3.223
24410W        W96736  25.587  20.119   1.921
24411W        W96737  35.422   3.932  10.750
24412W        W96738   9.802   9.756   2.638
24413W        W96739  38.660  35.477  14.582
24414W        W96740  18.708  18.474   1.954
24415W        W96741  13.354  12.812   0.225
24416W        W96742  15.760  27.198  14.479
24417W        W96743  17.411  33.972  10.627
24418W        W96744   3.218  37.756   1.493
24419W        W96745  19.717   1.484   1.819
24420W        W96746   9.025   4.944   4.996
24421W        W96747  18.809  29.645   4.492
24422W        W96748  22.503  28.618  10.718
24423W        W96749   5.706  15.135   0.891
24424W        W96750  22.401  16.261  14.601
24425W        W96751  43.756  33.985  12.114
24426W        W96752  41.828   9.993   3.260
24427W        W96753  26.886  26.340  12.418
24428W        W96754  40.062  22.475  13.106
24429W        W96755  32.142   5.368   0.806
24430W        W96756  41.344   7.784  12.362
24431W        W96757  26.691  21.746   3.482
24432W        W96758  32.139  27.544  13.282
24433W        W96759   1.821  33.385   2.749
24434W        W96760   9.811  27.367   2.980
24435W        W96761  27.598  39.936   0.854
24436W        W96762   1.529  44.041   1.044
24437W        W96763  18.894  16.135  13.034
24438W        W96764  38.661   3.285   4.199
24439W        W96765  39.143  19.540   2.682
24440W        W96766  40.826  15.641   0.821
24441W        W96767  27.418  37.898   2.207
24442W        W96768  38.649  13.373  14.298
24443W        W96769  22.606  14.069  14.372
24444W        W96770  26.681  28.579  10.696
24445W        W96771   8.021  36.197   0.949
24446W        W96772  40.728  31.883  11.293
24447W        W96773  14.604  39.831   1.923
24448W        W96774   4.924  24.663   0.844
24449W        W96775  36.728  12.731   0.331
24450W        W96776  12.497  24.971  14.940
24451W        W96777  41.840  36.319  11.677
24452W        W96778   1.366  15.692   4.214
24453W        W96779  29.601  32.374  12.970
24454W        W96780  38.248   2.983   2.621
24455W        W96781  29.428  24.749  13.064
24456W        W96782  25.679   2.813   3.211
24457W        W96783  43.344  35.747  10.952
24458W        W96784  31.591  36.396  14.547
24459W        W96785  19.799  44.489  14.360
24460W        W96786   5.196  27.006   0.899
24461W        W96787  22.019  36.109   2.660
24462W        W96788  32.430   5.215  11.130
24463W        W96789  31.059  35.848  10.249
24464W        W96790  41.358  38.725  12.202
24465W        W96791  32.616  22.617   0.582
24466W        W96792  35.525  28.848   1.907
24467W        W96793  22.513   1.777  13.751
24468W        W96794  27.505  25.966   9.632
24469W        W96795  17.014  26.590  13.961
24470W        W96796  41.904  28.462   3.328
24471W        W96797  21.235  11.554  11.893
24472W        W96798  29.687  37.116   1.218
24473W        W96799  29.334  20.007   1.898
24474W        W96800  34.928   4.479   1.291
24475W        W96801   6.834  18.755   4.584
24476W        W96802  44.412   6.468  11.507
24477W        W96803   0.249  27.170  11.597
24478W        W96804   3.731  30.893  11.022
24479W        W96805   5.272  34.748  10.761
24480W        W96806   7.245  28.182  12.852
24481W        W96807  40.330  21.998  12.056
24482W        W96808  27.060  22.795   0.884
24483W        W96809  22.540   4.799  13.363
24484W        W96810  17.986  20.922   3.692
24485W        W96811  10.685  27.958   3.125
24486W        W96812  38.043  11.785   1.243
24487W        W96813   2.105  24.726  12.066
24488W        W96814  43.495  31.529  11.515
24489W        W96815  36.157  21.673   0.893
24490W        W96816  13.401   6.362   2.813
24491W        W96817  39.354  38.695   0.678
24492W        W96818   5.914  22.784   4.568
24493W        W96819  19.144  28.157   4.748
24494W        W96820  21.786  12.725   2.307
24495W        W96821  44.098  37.002   2.770
24496W        W96822  17.179  29.052   2.172
24497W        W96823  31.641  13.911   2.386
24498W        W96824   1.848  35.567   1.960
24499W        W96825   5.210  13.717  12.926
24500W        W96826  12.582  42.251   2.318
24501W        W96827  39.049  15.701   3.169
24502W        W96828   3.942  37.488   2.559
24503W        W96829  37.325  11.877  12.575
24504W        W96830  28.716  22.071  13.442
24505W        W96831  21.122  20.233  13.266
24506W        W96832  23.199  11.779   0.905
24507W        W96833  19.635  15.533  11.542
24508W        W96834  25.076   3.261   2.444
24509W        W96835  35.972  30.688  14.299
24510W        W96836  18.292  35.097  13.420
24511W        W96837  43.320  13.806  13.946
24512W        W96838  17.149   9.256  12.030
24513W        W96839  36.608  13.761  13.070
24514W        W96840  10.649  42.261  12.204
24515W        W96841  37.494  22.358  11.568
24516W        W96842   3.932  12.752  11.318
24517W        W96843  33.580  32.428  14.504
24518W        W96844  20.309  37.971   4.713
24519W        W96845   7.055  13.396   2.530
24520W        W96846  42.418  21.192  10.613
24521W        W96847  44.817  23.949   1.321
24522W        W96848  26.404  34.118   4.158
24523W        W96849  27.939  10.071   0.080
24524W        W96850  19.161   8.597   3.629
24525W        W96851  33.227  23.750   4.438
24526W        W96852  16.840  28.245   2.364
24527W        W96853   4.938  38.635  12.034
24528W        W96854   4.675  22.155  12.847
24529W        W96855  12.843  18.504  10.741
24530W        W96856  18.123   3.991  10.912
24531W        W96857  30.643  30.426   0.369
24532W        W96858  40.967  12.736  14.483
24533W        W96859  40.542  35.065   0.274
24534W        W96860  36.416  27.473  14.971
24535W        W96861   6.798  24.831   4.467
24536W        W96862  30.638   6.790  11.551
24537W        W96863  39.484  32.730  10.440
24538W        W96864  25.036  21.946  10.622
24539W        W96865  38.864   9.882  12.641
24540W        W96866  14.066  14.334  14.563
24541W        W96867  14.279  21.577  13.207
24542W        W96868  18.284  29.197   1.453
24543W        W96869   7.275  11.430   4.216
24544W        W96870  28.258  23.415   0.561
24545W        W96871  31.996  43.553  11.668
24546W        W96872  35.915  28.883   4.844
24547W        W96873  35.881  21.295   1.743
24548W        W96874  30.660  22.067  12.370
24549W        W96875  39.148  33.207  14.570
24550W        W96876  24.192  42.284  14.329
24551W        W96877  39.277  27.593   1.439
24552W        W96878   4.752  16.499   1.143
24553W        W96879  35.116  34.135   0.501
24554W        W96880  25.709  36.921   0.837
24555W        W96881   1.387   0.251   4.589
24556W        W96882  31.524  31.026   0.666
24557W        W96883   3.263  11.614  14.346
24558W        W96884  20.370   0.410   3.385
24559W        W96885  26.526  25.533  13.344
24560W        W96886   9.204  26.560   3.116
24561W        W96887  13.705  18.162  12.330
24562W        W96888  32.448  16.841   4.175
24563W        W96889  36.549   8.935  12.863
24564W        W96890   3.157  29.450  14.289
24565W        W96891  21.560  30.152   4.769
24566W        W96892   5.737  10.140  10.468
24567W        W96893  11.054  30.067   2.714
24568W        W96894   1.381  15.085   1.123
24569W        W96895  41.504  16.249   3.308
24570W        W96896  31.516  22.217   3.354
24571W        W96897  16.865   1.714  14.659
24572W        W96898  29.623  19.409  14.334
24573W        W96899  12.258  33.806  10.697
24574W        W96900   6.620  15.079   2.281
24575W        W96901   2.786  17.170   0.979
24576W        W96902  17.752  26.686  10.553
24577W        W96903  22.498   9.757  12.803
24578W        W96904  23.951   1.753   0.416
24579W        W96905   0.723  25.996  12.214
24580W        W96906  28.301   1.689   2.119
24581W        W96907  17.445  13.243   9.916
24582W        W96908  33.392  39.918   4.402
24583W        W96909  23.024  13.332   1.808
24584W        W96910  32.038  42.024  11.791
24585W        W96911  27.202  10.772  10.638
24586W        W96912  18.703  22.063  14.371
24587W        W96913  42.481   1.213  11.599
24588W        W96914  24.012  23.587  14.377
24589W        W96915   8.486   6.957  12.157
24590W        W96916   1.418  21.379  11.155
24591W        W96917  44.518  34.095   0.361
24592W        W96918  19.271  43.488  11.893
24593W        W96919   2.470   3.701  11.539
24594W        W96920   1.824   7.528  12.982
24595W        W96921  18.018  13.733   1.895
24596W        W96922  26.157  21.988  11.902
24597W        W96923   2.730  14.044  11.982
24598W        W96924  42.420  42.951   1.276
24599W        W96925  34.108  17.152   0.999
24600W        W96926  38.121  43.203  10.724
24601W        W96927  18.784  18.855   3.845
24602W        W96928  10.221  27.705   1.735
24603W        W96929  41.120  17.152   3.161
24604W        W96930  42.241   0.507   0.722
24605W        W96931  41.913  10.619   4.632
24606W        W96932   0.804  25.699   0.563
24607W        W96933  42.709  24.016   0.963
24608W        W96934  39.440   0.949  13.383
24609W        W96935  27.083   7.891   1.797
24610W        W96936   6.731  11.635   0.250
24611W        W96937  38.097  30.712   3.207
24612W        W96938  21.161   9.143   3.207
24613W        W96939  20.934  24.348   0.473
24614W        W96940  25.328  37.344  12.561
24615W        W96941  24.035   4.482  12.805
24616W        W96942  39.643  22.543  11.574
24617W        W96943  10.793  28.564   2.249
24618W        W96944  36.186   8.685  11.613
24619W        W96945  14.844  32.627   1.298
24620W        W96946  39.013  24.561   1.403
24621W        W96947   5.421   8.172  14.472
24622W        W96948  22.603  12.153   0.846
24623W        W96949  42.114  16.153   4.709
24624W        W96950  17.340  42.830  11.698
24625W        W96951  29.703  35.999  10.761
24626W        W96952   1.946  39.840   2.931
24627W        W96953   1.877  25.757  13.052
24628W        W96954   0.020  33.459   3.276
24629W        W96955  15.506  13.327  14.954
24630W        W96956  38.018  42.415  14.452
24631W        W96957   4.552  22.648  12.982
24632W        W96958   8.108  34.658   2.811
24633W        W96959  21.045   4.349   1.325
24634W        W96960  10.389  17.549   2.284
24635W        W96961  30.401  32.226  13.521
24636W        W96962  25.177  41.851  11.600
24637W        W96963  41.297  13.893  13.101
24638W        W96964  15.741  34.076   0.941
24639W        W96965  33.552  35.138  11.974
24640W        W96966  31.641  14.884  11.697
24641W        W96967  27.424  26.148   4.137
24642W        W96968  39.267   8.328   3.908
24643W        W96969  26.655  28.042   0.041
24644W        W96970   5.922  15.119  12.460
24645W        W96971   2.989  17.615   4.200
24646W        W96972  19.715  16.456   3.419
24647W        W96973   2.446  33.900  14.869
24648W        W96974  24.520   5.816   1.309
24649W        W96975  42.436  42.828  11.566
24650W        W96976   6.706  33.630   2.469
24651W        W96977  25.112  43.308  12.645
24652W        W96978  41.092  31.855  11.639
24653W        W96979  18.613  34.332  11.070
24654W        W96980  13.678  16.273   2.086
24655W        W96981  21.661  20.302   2.401
24656W        W96982  26.775  17.166   2.818
24657W        W96983  43.477   6.008   0.165
24658W        W96984  32.611  17.071  14.325
24659W        W96985  18.342  43.801  11.045
24660W        W96986  43.884  29.946   3.858
24661W        W96987   5.695  14.300  12.400
24662W        W96988  23.445   9.877   2.846
24663W        W96989  15.896  17.461  13.566
24664W        W96990  31.367  35.121   2.660
24665W        W96991  16.112  37.904   2.384
24666W        W96992   2.659  22.992   5.216
24667W        W96993  12.845  44.803  12.839
24668W        W96994  14.303  41.349   2.753
24669W        W96995   9.419  40.015   4.509
24670W        W96996  22.922  44.365   0.041
24671W        W96997   9.669  29.461  12.143
24672W        W96998   4.688  19.399   2.412
24673W        W96999  44.983   5.897  14.976
24674W        W97000  24.235  13.005  11.436
24675W        W97001   7.665  23.694  14.077
24676W        W97002   3.788  39.889  13.366
24677W        W97003   2.921  16.613  11.059
24678W        W97004  42.034  37.150   2.132
24679W        W97005  14.072  40.019  13.732
24680W        W97006  14.708  11.695  12.393
24681W        W97007  40.225   7.699   0.040
24682W        W97008  42.300   3.694  12.124
24683W        W97009   6.177  41.997  14.416
24684W        W97010  26.438  40.342   1.927
24685W        W97011  17.614  14.593  11.522
24686W        W97012  17.621  10.126  10.606
24687W        W97013  35.363  32.080   1.289
24688W        W97014  11.585  25.638  12.732
24689W        W97015  40.379  24.482  12.578
24690W        W97016  30.870   3.656  14.309
24691W        W97017   7.769   1.709   0.726
24692W        W97018  32.319   7.955   4.678
24693W        W97019  28.895  20.724   0.842
24694W        W97020  26.088  14.036   4.127
24695W        W97021  24.977  40.666  11.856
24696W        W97022  37.779  33.520   2.839
24697W        W97023  32.133  39.943   1.620
24698W        W97024  13.268  43.120   1.656
24699W        W97025  33.959  14.264   1.291
24700W        W97026  36.837  10.628  12.581
24701W        W97027  27.009  42.540   3.141
24702W        W97028  14.898  26.698  11.514
24703W        W97029  37.555  36.960  14.290
24704W        W97030  28.118  27.536   0.847
24705W        W97031  29.512  30.004  12.346
24706W        W97032   4.569  22.717   9.849
24707W        W97033  28.718  44.028  11.033
24708W        W97034  32.125  19.474  11.546
24709W        W97035  30.430   8.723  11.295
24710W        W97036  16.551  20.662   3.393
24711W        W97037  14.533  40.343   1.842
24712W        W97038   9.670  19.761  14.372
24713W        W97039  14.147  42.374   2.835
24714W        W97040  12.202  29.589   4.700
24715W        W97041   3.276  39.429   1.214
24716W        W97042  16.830   5.808   3.594
24717W        W97043  13.319  23.130  14.413
24718W        W97044  35.360   6.711  14.232
24719W        W97045  37.347  38.431   0.979
24720W        W97046  16.021  11.820   2.797
24721W        W97047  40.803   0.381   3.205
24722W        W97048  38.504  24.008   3.410
24723W        W97049  30.114  22.759  10.600
24724W        W97050  21.299  42.449  11.342
24725W        W97051  24.576  20.716   2.237
24726W        W97052  44.848  41.479   0.762
24727W        W97053  42.282   2.702  13.994
24728W        W97054  34.528  32.594   0.453
24729W        W97055  17.864   3.923  11.376
24730W        W97056  26.180  34.623  11.539
24731W        W97057  12.848  41.392   0.974
24732W        W97058   4.319  19.467  11.119
24733W        W97059  28.404  30.427   0.792
24734W        W97060  25.453  10.111   0.977
24735W        W97061  44.433  15.220  10.558
24736W        W97062   2.199  38.114  10.944
24737W        W97063  28.075  31.732   0.252
24738W        W97064  35.685  15.924  11.951
24739W        W97065   3.723  35.072   1.825
24740W        W97066   9.739  41.336   4.744
24741W        W97067  24.325  42.893  12.412
24742W        W97068  24.619   6.344   0.941
24743W        W97069   8.741   1.183  10.393
24744W        W97070  17.791  37.537  10.874
24745W        W97071  17.685  41.900   2.403
24746W        W97072  40.782  10.242   4.037
24747W        W97073  29.986   2.260  10.715
24748W        W97074  20.669  28.081   4.838
24749W        W97075  38.486  20.578  14.752
24750W        W97076  38.745  24.288  11.133
24751W        W97077  11.396  24.047   0.347
24752W        W97078  43.857   5.235  11.423
24753W        W97079  25.359   7.164   1.750
24754W        W97080  39.410  31.631  12.020
24755W        W97081  17.518  18.060   2.515
24756W        W97082  15.181  27.283   2.631
24757W        W97083   1.735  14.948   2.286
24758W        W97084  33.292  29.458   3.236
24759W        W97085  32.247  34.361  13.184
24760W        W97086  34.471   0.530   4.227
24761W        W97087   7.826  30.433   0.138
24762W        W97088  18.832  12.250  11.057
24763W        W97089  23.277  39.234  13.480
24764W        W97090  10.812  34.874  11.072
24765W        W97091  40.363   2.669   2.870
24766W        W97092   6.835  27.204  14.352
24767W        W97093   0.788  30.510   1.663
24768W        W97094  34.089  32.096  11.517
24769W        W97095  11.629   9.821  14.449
24770W        W97096  29.549  27.661  11.734
24771W        W97097  21.599  35.602  11.121
24772W        W97098   5.375   8.645   0.849
24773W        W97099  33.419  34.199  11.005
24774W        W97100  12.778  40.244   0.333
24775W        W97101  16.729  18.968   2.667
24776W        W97102  32.044   8.250   3.666
24777W        W97103   1.719  17.812  13.527
24778W        W97104  19.071  27.534   4.582
24779W        W97105  34.085  18.337   0.144
24780W        W97106  42.032  12.234   1.272
24781W        W97107  19.178  27.485   4.001
24782W        W97108  30.865  21.562  12.968
24783W        W97109   3.861  25.007   1.258
24784W        W97110  30.961  18.082   2.784
24785W        W97111   7.980  18.181   0.953
24786W        W97112  42.005  36.512  13.899
24787W        W97113   8.910  28.548  10.534
24788W        W97114  23.027  15.092   2.194
24789W        W97115   3.039   4.244   3.364
24790W        W97116  36.189  30.767   4.955
24791W        W97117  24.793  24.789  11.195
24792W        W97118  34.416  16.004  11.653
24793W        W97119   4.934  12.735   4.844
24794W        W97120   6.663  32.235   2.899
24795W        W97121  18.719  28.506  13.405
24796W        W97122   8.376  11.724   2.843
24797W        W97123  10.049  39.881   1.367
24798W        W97124  25.792  44.615  14.015
24799W        W97125  10.279  16.005  12.861
24800W        W97126  23.091  34.450  13.047
24801W        W97127  11.258   7.362   4.565
24802W        W97128  35.085  27.529   4.247
24803W        W97129  34.428  15.301  12.901
24804W        W97130  15.582  40.005   0.930
24805W        W97131   6.372   8.754  14.418
24806W        W97132  36.835   3.434   1.384
24807W        W97133  15.434   4.250   2.216
24808W        W97134  13.637  11.847   1.449
24809W        W97135  12.213  41.803   4.536
24810W        W97136   8.241  14.579   2.176
24811W        W97137  34.169  21.109   0.328
24812W        W97138   6.536  16.081  12.214
24813W        W97139  30.055   4.386   0.932
24814W        W97140  44.877   4.624   2.686
24815W        W97141  41.457   1.557  11.538
24816W        W97142  32.550  35.117  12.856
24817W        W97143  29.682   0.993   0.783
24818W        W97144   2.209  27.032  14.515
24819W        W97145  40.004  17.833  13.243
24820W        W97146  30.205  43.688  14.335
24821W        W97147   1.860  32.482   3.182
24822W        W97148  34.710  12.883   5.113
24823W        W97149   6.246  12.298   1.886
24824W        W97150  16.560  42.348   1.446
24825W        W97151  10.590  13.817  13.753
24826W        W97152   7.464  10.603  14.877
24827W        W97153   1.256  29.382  12.076
24828W        W97154   4.859   4.902   5.059
24829W        W97155  44.372   3.160   1.701
24830W        W97156  25.083  18.780  13.316
24831W        W97157  16.088  37.013  12.448
24832W        W97158   2.006  41.292  12.092
24833W        W97159  41.994  28.833  10.939
24834W        W97160  33.215   9.222   1.711
24835W        W97161  16.804  19.054   1.164
24836W        W97162  40.506  11.207   3.919
24837W        W97163   5.582  30.318   2.138
24838W        W97164   1.945  23.464  14.363
24839W        W97165  11.397  19.750  12.294
24840W        W97166  37.887   5.960   2.189
24841W        W97167  16.604  12.665   1.336
24842W        W97168  26.550  42.184  11.611
24843W        W97169  25.217   4.611  11.444
24844W        W97170  36.529  37.885   0.935
24845W        W97171  33.838  36.517   2.648
24846W        W97172   8.142   9.836  13.339
24847W        W97173  32.576  37.021   2.442
24848W        W97174  27.765  13.146  10.701
24849W        W97175   0.196  26.660   4.238
24850W        W97176   9.154  24.209   2.917
24851W        W97177  15.633  32.054   2.248
24852W        W97178  43.957  29.131   3.052
24853W        W97179   0.868  44.826  14.921
24854W        W97180  44.243  34.944   0.839
24855W        W97181  14.085  24.106  13.845
24856W        W97182   0.970  35.427  10.977
24857W        W97183   6.913  26.620   2.318
24858W        W97184  36.247  27.152   3.573
24859W        W97185  21.909  41.558  12.851
24860W        W97186  28.692  24.124   1.657
24861W        W97187  31.629  42.289   2.305
24862W        W97188  24.229  41.758   2.357
24863W        W97189  15.326   2.032  12.041
24864W        W97190   2.512   2.924   1.289
24865W        W97191  28.522  23.525   4.235
24866W        W97192   9.917   2.837  13.550
24867W        W97193  25.498  33.021   1.443
24868W        W97194   5.897  13.118  10.702
24869W        W97195  11.620  29.015  13.483
24870W        W97196  11.915  32.688  13.392
24871W        W97197   1.408  11.406   3.848
24872W        W97198   2.848  41.361   0.290
24873W        W97199  42.914  36.378  13.914
24874W        W97200  14.187  11.841  12.458
24875W        W97201  23.539  19.342  13.956
24876W        W97202  30.193   0.922   3.661
24877W        W97203  19.936  35.078   0.489
24878W        W97204  30.889   4.831  14.773
24879W        W97205  29.668  13.596   2.792
24880W        W97206  24.486  38.614  13.096
24881W        W97207  35.033  21.571   3.388
24882W        W97208  19.658   6.623   4.666
24883W        W97209  36.062  32.551  12.851
24884W        W97210   6.152  38.021   2.293
24885W        W97211  36.343  44.869  13.393
24886W        W97212  31.363   4.339   1.345
24887W        W97213   8.023  17.820  12.050
24888W        W97214  31.174   0.922  12.750
24889W        W97215  39.892  14.186   0.423
24890W        W97216  37.298   5.839   1.269
24891W        W97217  28.062   9.120   4.886
24892W        W97218  26.618  28.467   0.377
24893W        W97219   1.178  32.066   0.348
24894W        W97220  41.088  38.056  13.042
24895W        W97221  36.994   0.849   4.515
24896W        W97222   1.016  32.968  13.434
24897W        W97223  29.538  30.557   1.962
24898W        W97224  18.078  14.378  11.605
24899W        W97225   4.374  34.300  10.696
24900W        W97226  25.959  28.939   4.208
24901W        W97227  37.017   7.349   2.648
24902W        W97228  21.971  24.911  13.936
24903W        W97229  13.227  37.883  14.958
24904W        W97230   9.301   4.504   1.201
24905W        W97231   8.822  34.978   2.304
24906W        W97232   0.024  30.654   1.305
24907W        W97233   0.691  35.090  10.651
24908W        W97234  38.740  39.390  12.894
24909W        W97235  16.364  31.090  12.625
24910W        W97236   8.287  20.333   3.169
24911W        W97237  15.920  21.934  13.503
24912W        W97238  31.960  23.927   5.176
24913W        W97239  16.090   6.795   0.969
24914W        W97240  26.147  30.634  14.550
24915W        W97241  26.045  41.593   1.861
24916W        W97242   1.872  33.228  12.007
24917W        W97243  29.941  33.177  11.168
24918W        W97244   4.696  32.972  12.960
24919W        W97245   5.865   7.643   0.023
24920W        W97246  40.019   0.281  14.500
24921W        W97247  37.410  22.480  12.665
24922W        W97248  15.662  14.814  12.989
24923W        W97249  26.450   7.895   2.757
24924W        W97250   7.271  27.510   2.444
24925W        W97251   0.725  43.793   1.343
24926W        W97252   0.276  37.747   2.686
24927W        W97253  23.445  15.198  14.073
24928W        W97254  30.049   5.530  13.112
24929W        W97255  33.380  30.083  12.352
24930W        W97256  27.018  32.097   4.518
24931W        W97257  41.585  24.253   2.282
24932W        W97258  19.555  31.542  12.380
24933W        W97259   1.247  21.414   1.726
24934W        W97260  39.155  21.295  12.037
24935W        W97261  10.391  16.867  13.971
24936W        W97262  26.040  29.595  12.180
24937W        W97263  31.826   5.187   2.660
24938W        W97264  42.246   0.767   1.657
24939W        W97265  42.105  40.068  13.502
24940W        W97266  33.065   3.101   1.857
24941W        W97267  30.467  11.175  12.925
24942W        W97268  13.276  32.059  12.008
24943W        W97269   6.159  26.928   4.217
24944W        W97270  44.450  17.547  13.913
24945W        W97271  33.058   6.241   1.661
24946W        W97272  19.184  19.242  13.129
24947W        W97273  28.449  18.567   1.895
24948W        W97274  25.729  24.765  11.537
24949W        W97275   8.166   0.972   1.748
24950W        W97276   8.237  13.795   1.654
24951W        W97277  21.625   5.743  14.533
24952W        W97278   6.431  29.605   3.251
24953W        W97279   4.713  26.569  11.716
24954W        W97280  11.198  39.419   4.676
24955W        W97281  30.607   7.801  11.787
24956W        W97282  29.150   3.625   3.730
24957W        W97283  24.159  17.879   1.552
24958W        W97284  39.855  39.937   3.211
24959W        W97285  38.396   8.999   1.071
24960W        W97286   3.033   8.303   2.984
24961W        W97287   3.643   5.001   2.830
24962W        W97288  38.114  17.636   4.914
24963W        W97289   1.104  35.886   4.575
24964W        W97290  43.822  34.149   2.918
24965W        W97291  43.838  34.967  10.600
24966W        W97292   5.401   2.554  10.868
24967W        W97293  40.364   2.390   0.347
24968W        W97294  29.910  40.823   2.684
24969W        W97295   5.820  40.013  13.498
24970W        W97296  20.918  19.168  12.654
24971W        W97297  15.368   4.012  10.647
24972W        W97298   4.895  33.436  14.848
24973W        W97299  16.160   7.899  13.865
24974W        W97300  19.942  15.149   2.377
24975W        W97301  15.123  36.950   3.005
24976W        W97302   9.447  13.208  10.720
24977W        W97303  24.155  31.339  10.508
24978W        W97304   3.943  33.050  14.724
24979W        W97305  39.099  16.128   1.249
24980W        W97306  36.941  41.946  11.814
24981W        W97307  43.393  13.952  12.740
24982W        W97308   8.219  19.023   3.505
24983W        W97309  22.525  39.891   4.266
24984W        W97310  16.899   8.672   1.461
24985W        W97311   8.704   7.757  14.246
24986W        W97312   9.161  19.837   3.283
24987W        W97313  32.787  33.794   2.906
24988W        W97314   7.923  24.682  14.982
24989W        W97315  11.668  18.294   4.677
24990W        W97316  17.501  11.215   0.033
24991W        W97317   0.024  35.059  12.051
24992W        W97318  30.033   4.371   1.848
24993W        W97319  12.381   7.583   2.142
24994W        W97320   3.766  37.964   4.620
24995W        W97321  36.597  40.599  10.714
24996W        W97322  12.865  14.621   3.641
24997W        W97323  44.886   1.977   1.919
24998W        W97324   0.568  29.493   0.760
24999W        W97325  18.547  23.014   0.263
25000W        W97326  32.401   3.911   2.866
25001W        W97327  30.604   3.649   2.044
25002W        W97328  13.937  44.935  14.881
25003W        W97329  10.373  24.176   4.461
25004W        W97330  11.706   8.829  11.657
25005W        W97331  17.277  17.714  10.994
25006W        W97332  27.782  28.023   2.783
25007W        W97333  32.385  28.207   4.286
25008W        W97334  10.222  15.055   4.078
25009W        W97335  19.280  38.993   0.136
25010W        W97336  26.330  42.374  13.443
25011W        W97337  33.011  15.915   1.815
25012W        W97338  35.118  44.734   0.370
25013W        W97339   0.000  18.391  12.008
25014W        W97340   0.099   3.640  11.028
25015W        W97341   8.317   7.890  13.297
25016W        W97342  28.213   8.086  11.662
25017W        W97343   9.929  41.982   0.678
25018W        W97344  22.522   2.844  12.070
25019W        W97345  14.965  43.501   2.868
25020W        W97346  15.519  19.918   1.485
25021W        W97347  20.252  13.096   1.187
25022W        W97348  38.061  23.447   1.336
25023W        W97349   5.007  20.878  11.019
25024W        W97350  42.934  20.051  11.823
25025W        W97351  36.113  14.309   1.729
25026W        W97352   8.716  22.472   4.599
25027W        W97353  25.782   3.429   1.221
25028W        W97354  23.553  28.929  14.892
25029W        W97355  15.567  44.334   1.698
25030W        W97356  38.792   4.426  13.016
25031W        W97357  32.604  20.583   4.368
25032W        W97358  29.463  41.049   0.766
25033W        W97359  27.661  10.268   1.444
25034W        W97360  42.787  38.333  11.704
25035W        W97361  34.289  29.203   2.409
25036W        W97362   3.197  29.691   3.593
25037W        W97363  10.211   4.648  10.843
25038W        W97364   9.797  31.603   3.174
25039W        W97365  13.791  31.832  10.954
25040W        W97366  13.120  31.004   1.924
25041W        W97367  39.029  18.948   1.977
25042W        W97368  27.451   0.302  11.990
25043W        W97369  41.177  28.318  11.682
25044W        W97370   2.461   5.429   1.802
25045W        W97371  15.536  16.130   4.583
25046W        W97372  36.546  35.431   3.127
25047W        W97373  28.658   2.023  12.522
25048W        W97374  23.491  16.735   3.222
25049W        W97375  44.550  37.043  13.304
25050W        W97376  12.694  19.082  11.603
25051W        W97377   0.746  26.225  14.059
25052W        W97378  24.905  36.762  10.701
25053W        W97379  12.125  36.526  10.674
25054W        W97380   8.458   0.908   2.675
25055W        W97381  20.476  31.996  10.760
25056W        W97382   9.436  34.738  10.685
25057W        W97383  17.597  36.404  11.905
25058W        W97384  34.248  27.384  13.873
25059W        W97385   6.701  38.750   3.224
25060W        W97386  17.030  19.914   4.508
25061W        W97387  41.545  10.731   4.268
25062W        W97388  44.614  35.844  10.206
25063W        W97389  44.381  24.669  14.095
25064W        W97390   0.067  16.600  14.300
25065W        W97391  37.814  30.011  13.461
25066W        W97392  42.814  43.337  13.099
25067W        W97393   3.724   1.662  10.723
25068W        W97394  20.482  29.415  11.780
25069W        W97395   9.077  22.892  14.882
25070W        W97396  20.299  11.120  13.355
25071W        W97397  38.084  44.297   4.403
25072W        W97398  13.777   6.892  11.165
25073W        W97399   7.271  42.808  11.391
25074W        W97400  37.305  39.158   3.238
25075W        W97401   6.614  43.361  12.319
25076W        W97402  36.738  28.298   4.237
25077W        W97403  27.735  23.648   3.698
25078W        W97404  14.629  37.097  12.898
25079W        W97405  26.537  20.283  11.792
25080W        W97406  12.769  15.544  13.391
25081W        W97407  32.076   4.395   4.704
25082W        W97408  27.046  25.117  13.001
25083W        W97409  14.009  37.801  10.589
25084W        W97410   2.758  17.040   4.877
25085W        W97411   6.176  20.761   3.755
25086W        W97412  34.328  10.463   0.386
25087W        W97413   0.274  11.732  12.519
25088W        W97414  20.938   2.135   0.965
25089W        W97415  22.620  12.213  11.959
25090W        W97416  27.162  18.323  10.702
25091W        W97417  19.064  34.047  13.994
25092W        W97418  12.363  27.505   0.258
25093W        W97419  35.258   8.476   3.297
25094W        W97420  31.950  23.097  13.930
25095W        W97421  11.756  17.076   2.599
25096W        W97422   1.778  23.106  12.450
25097W        W97423  36.692  32.640  10.502
25098W        W97424  31.573   1.467  14.485
25099W        W97425  28.097   2.348  14.524
25100W        W97426  24.787   1.478  12.071
25101W        W97427  33.878  19.804  10.460
25102W        W97428   2.799  34.387  12.423
25103W        W97429  12.319  35.893   3.822
25104W        W97430  40.510  31.397  10.639
25105W        W97431  12.284  35.958   9.808
25106W        W97432  14.053   9.167   4.825
25107W        W97433  17.170  44.506  12.434
25108W        W97434  24.236  21.252  13.133
25109W        W97435  17.743  41.551  10.804
25110W        W97436  11.133  21.846  11.620
25111W        W97437  24.264  19.779  13.478
25112W        W97438  26.422  22.654  11.046
25113W        W97439   2.072  20.037  12.389
25114W        W97440  32.218  25.934  14.068
25115W        W97441  15.682  34.515   3.694
25116W        W97442  32.582  35.424   3.574
25117W        W97443  16.173  42.765   2.749
25118W        W97444   3.430  13.015   3.370
25119W        W97445  21.066  31.901  13.954
25120W        W97446  39.950  24.892  13.455
25121W        W97447  31.876  32.529   2.308
25122W        W97448  34.171  37.405   4.191
25123W        W97449  26.958  35.002   4.852
25124W        W97450  33.837  13.732   3.927
25125W        W97451  15.001  18.758  10.873
25126W        W97452   3.756  44.761   4.328
25127W        W97453  33.916  12.791  12.275
25128W        W97454   6.266  10.720   2.285
25129W        W97455  24.229  30.814  10.578
25130W        W97456  40.197  12.427  14.473
25131W        W97457   4.126   1.786   1.138
25132W        W97458  31.890  17.456   1.941
25133W        W97459  32.105  24.038  10.697
25134W        W97460  11.396  19.765   4.078
25135W        W97461  18.126  18.834  14.247
25136W        W97462  29.935  27.643   5.146
25137W        W97463   4.629  22.168   1.224
25138W        W97464  38.809   9.153  11.458
25139W        W97465   7.435  29.538   0.706
25140W        W97466  26.245  19.786   0.428
25141W        W97467   5.311  30.850   0.816
25142W        W97468  28.538   7.197  12.021
25143W        W97469  35.472  24.470  13.922
25144W        W97470  32.451  18.860   3.632
25145W        W97471  39.321  18.093   1.189
25146W        W97472  31.226  25.257  12.351
25147W        W97473   9.352  23.095   4.514
25148W        W97474  37.271  20.206   4.333
25149W        W97475  17.568  20.629   2.476
25150W        W97476  43.941   3.876  14.940
25151W        W97477  32.578  40.300   2.848
25152W        W97478  24.575   4.217  13.336
25153W        W97479   5.487  16.138   1.821
25154W        W97480  38.047  22.465  13.944
25155W        W97481  42.534  27.005  11.999
25156W        W97482  26.875  35.081  14.676
25157W        W97483  18.300  17.007  13.383
25158W        W97484  40.823  16.010  11.546
25159W        W97485   2.775  28.556   1.698
25160W        W97486   5.384  10.821   0.057
25161W        W97487   7.170  39.014  11.003
25162W        W97488  39.263   9.296  10.686
25163W        W97489  32.530  26.226   2.673
25164W        W97490  20.260  38.031  10.452
25165W        W97491  23.955  15.460   3.767
25166W        W97492  42.246  29.601   1.296
25167W        W97493  38.993  42.722  11.605
25168W        W97494   3.877  11.116  12.045
25169W        W97495  24.189  11.578   0.993
25170W        W97496  14.733  36.793  12.467
25171W        W97497   3.254  15.604   1.905
25172W        W97498  42.499  38.681   3.311
25173W        W97499  19.019   2.810  11.066
25174W        W97500  30.576   0.535   2.891
25175W        W97501  11.956  15.064  11.144
25176W        W97502  19.364  10.732   4.055
25177W        W97503  18.050  22.400  12.911
25178W        W97504   2.971  17.260  12.501
25179W        W97505  12.237  28.421  13.424
25180W        W97506  29.708  29.888   1.411
25181W        W97507  20.071  33.477  13.520
25182W        W97508  18.247  33.645   1.849
25183W        W97509  20.548  32.581   0.935
25184W        W97510  11.517  16.521   3.361
25185W        W97511  27.758  26.720  14.181
25186W        W97512  36.477  40.880  14.825
25187W        W97513  33.621  13.221  12.202
25188W        W97514  37.971  14.747  14.873
25189W        W97515  37.314  14.877  11.076
25190W        W97516  10.742  43.784  12.074
25191W        W97517  41.364  28.239  14.015
25192W        W97518  24.371  15.646  14.970
25193W        W97519   8.848  38.551  12.970
25194W        W97520  36.981  26.535   2.254
25195W        W97521  40.710   0.054   2.083
25196W        W97522  20.737   5.809  11.611
25197W        W97523  31.876  27.584  11.091
25198W        W97524  10.709  22.034   1.856
25199W        W97525  30.922  40.924   2.289
25200W        W97526  18.691  11.394   0.291
25201W        W97527   4.902  40.402  10.392
25202W        W97528  20.197   2.771   0.517
25203W        W97529  10.786  23.499  14.540
25204W        W97530  44.952  15.659   4.409
25205W        W97531  31.647  37.165  12.805
25206W        W97532   0.853  29.103   2.461
25207W        W97533  15.094  15.883   4.208
25208W        W97534   8.032  35.024  13.741
25209W        W97535   6.808   3.981   4.381
25210W        W97536  21.904  28.014   1.902
25211W        W97537   8.759  23.987   2.679
25212W        W97538   3.342  32.453  11.942
25213W        W97539  18.672  26.385   2.828
25214W        W97540   9.821  11.814  10.817
25215W        W97541  30.540  29.619   1.014
25216W        W97542   2.844  34.487   1.036
25217W        W97543  19.708   1.230   2.255
25218W        W97544  12.134  21.231   0.265
25219W        W97545   7.178  28.636  12.618
25220W        W97546  20.644  22.278  14.072
25221W        W97547  11.791   8.271   3.585
25222W        W97548   9.418  15.534  14.989
25223W        W97549  12.319  38.355  11.548
25224W        W97550  29.465  21.219  11.261
25225W        W97551  24.506  12.664   2.247
25226W        W97552   7.847   4.060  11.650
25227W        W97553  39.156   4.219   0.405
25228W        W97554  14.095  40.556   3.148
25229W        W97555  31.390  39.703   4.135
25230W        W97556  37.447  39.435  12.517
25231W        W97557   0.452  13.842  13.645
25232W        W97558  16.595  25.138  11.090
25233W        W97559  12.324   1.949   4.025
25234W        W97560  28.039  11.837   0.401
25235W        W97561  19.470   8.252   1.737
25236W        W97562  38.885  33.446   4.635
25237W        W97563  40.555  30.941  12.579
25238W        W97564  26.218  12.362   1.448
25239W        W97565  39.042  35.169  11.202
25240W        W97566  31.115  41.907  14.334
25241W        W97567  38.319  18.210  13.383
25242W        W97568  13.942  21.055  10.083
25243W        W97569  40.879   4.198  13.429
25244W        W97570  17.870  19.680  14.196
25245W        W97571  33.532  38.096   1.525
25246W        W97572  38.367  16.610   3.934
25247W        W97573  24.121  29.472  12.588
25248W        W97574  34.135   0.525  12.377
25249W        W97575  37.021   3.681   4.199
25250W        W97576  29.075  27.470   2.641
25251W        W97577  32.768  38.820  11.938
25252W        W97578   1.319  29.653  12.531
25253W        W97579  19.323  37.104   0.602
25254W        W97580  17.106   8.697   4.364
25255W        W97581  35.108  28.200   0.635
25256W        W97582  10.058  44.444   0.942
25257W        W97583   9.377  24.342  14.654
25258W        W97584  21.021  29.595   0.883
25259W        W97585  33.140   5.772  10.674
25260W        W97586  20.473  19.675   3.148
25261W        W97587  20.791  32.044   3.768
25262W        W97588  25.287  11.332   1.406
25263W        W97589  19.646  29.537  11.933
25264W        W97590  24.819  18.822  14.772
25265W        W97591  29.583  33.530  11.295
25266W        W97592   9.421  29.924  13.304
25267W        W97593   0.570  38.601  12.936
25268W        W97594  35.215  23.657   2.730
25269W        W97595  24.069   4.815   2.828
25270W        W97596  29.550  12.273  12.895
25271W        W97597  22.908  34.784  14.255
25272W        W97598  40.948  31.092  10.529
25273W        W97599  11.815  35.957  10.029
25274W        W97600  10.800  37.873   1.787
25275W        W97601  34.431  16.718   0.922
25276W        W97602   4.926  25.266  11.289
25277W        W97603  41.773  17.623  14.431
25278W        W97604  11.598  27.089   1.733
25279W        W97605  22.578   6.391  11.230
25280W        W97606   8.079  11.142   0.351
25281W        W97607  26.644  26.543  10.387
25282W        W97608  44.463  35.372  10.039
25283W        W97609  41.016  37.502  11.402
25284W        W97610  42.382  10.651  13.467
25285W        W97611  44.087  20.858   0.240
25286W        W97612  27.908  42.773   2.309
25287W        W97613  38.286  26.242   2.908
25288W        W97614  18.192   0.419   1.077
25289W        W97615  26.091  28.022   0.376
25290W        W97616   8.910  12.393  10.489
25291W        W97617  30.451  19.979   4.790
25292W        W97618   9.620  17.955   1.753
25293W        W97619   5.948  44.301  11.536
25294W        W97620  12.114  36.506   5.483
25295W        W97621  38.632  10.788  11.997
25296W        W97622   1.775   6.184   3.583
25297W        W97623  19.080   9.345   0.172
25298W        W97624  31.321  36.847  14.523
25299W        W97625  36.484  22.056   0.656
25300W        W97626  27.536  11.119   3.669
25301W        W97627   5.703  17.768   4.178
25302W        W97628   1.839  10.783  14.546
25303W        W97629  11.176  38.409   2.801
25304W        W97630  31.107  41.386  10.070
25305W        W97631   3.175   3.203  11.524
25306W        W97632  42.257  40.346   0.401
25307W        W97633  34.314  33.108  11.604
25308W        W97634  27.263  35.740  13.480
25309W        W97635  32.360  22.894  14.737
25310W        W97636   5.936  23.664  14.565
25311W        W97637  33.971  32.094  10.669
25312W        W97638  26.434  37.103  14.096
25313W        W97639  13.163  39.289  11.221
25314W        W97640  14.919  40.097   5.058
25315W        W97641  41.901  33.047  12.535
25316W        W97642  31.661  36.533   4.938
25317W        W97643  14.028  39.320   3.586
25318W        W97644  37.896  38.012   1.248
25319W        W97645  31.821  27.193   4.556
25320W        W97646  19.669  44.091  12.907
25321W        W97647   2.825  36.973  12.832
25322W        W97648  36.039  11.115   2.582
25323W        W97649   4.962  37.534  10.330
25324W        W97650  14.409  40.397   0.063
25325W        W97651  11.365   1.158  13.377
25326W        W97652   6.091   6.361   1.147
25327W        W97653  24.559  22.125  10.630
25328W        W97654  27.096  10.359   0.282
25329W        W97655   8.425  25.118  13.807
25330W        W97656  13.145  31.787  13.487
25331W        W97657   8.618  28.188   4.118
25332W        W97658   6.822  43.492  11.315
25333W        W97659  39.249   0.818   4.907
25334W        W97660  39.995  37.363   4.075
25335W        W97661   4.208  20.608   0.794
25336W        W97662  16.534  34.063   1.133
25337W        W97663  34.287  27.963   4.250
25338W        W97664  43.776  30.287  12.573
25339W        W97665  16.571  40.855  12.563
25340W        W97666  16.724  33.499  14.865
25341W        W97667   9.221  20.716   3.810
25342W        W97668  30.402  29.540   1.510
25343W        W97669  23.514  23.754   0.901
25344W        W97670  38.301  20.126   0.775
25345W        W97671  12.169  10.325  12.120
25346W        W97672  44.565   6.245   0.803
25347W        W97673  16.054  11.372  11.616
25348W        W97674  33.789   4.292   2.171
25349W        W97675  23.661  43.700   4.027
25350W        W97676  33.672   7.262   0.879
25351W        W97677  14.754  29.971   0.047
25352W        W97678  23.053  13.688  14.905
25353W        W97679   8.309  40.944   4.097
25354W        W97680  35.173  36.247  11.141
25355W        W97681   9.191   1.184  11.442
25356W        W97682  13.258  17.692  11.720
25357W        W97683  29.612  33.526   1.705
25358W        W97684   4.585  25.092   1.717
25359W        W97685  27.429  14.742   1.377
25360W        W97686  16.070   0.484  11.194
25361W        W97687   2.143   8.914   2.867
25362W        W97688  36.103  35.991   2.388
25363W        W97689  25.732   8.376  12.559
25364W        W97690   2.358  30.610  12.500
25365W        W97691  24.741  21.535   0.542
25366W        W97692  27.677  37.454   0.482
25367W        W97693  42.504  25.213   3.652
25368W        W97694  18.529   6.778   4.207
25369W        W97695  12.408  29.144  14.389
25370W        W97696  21.100  33.442  14.825
25371W        W97697  38.583   5.671   1.542
25372W        W97698   0.195  37.910   4.535
25373W        W97699  20.205   7.300  13.467
25374W        W97700  13.058   4.159   2.455
25375W        W97701  44.917  24.177  13.996
25376W        W97702  28.923  43.984   4.940
25377W        W97703  39.941  33.560   3.851
25378W        W97704  27.722  27.034  11.077
25379W        W97705  31.413  35.176  12.059
25380W        W97706  18.050  38.514   0.275
25381W        W97707  31.093  34.890  12.375
25382W        W97708  16.677  35.642  11.220
25383W        W97709   2.430   9.242   1.932
25384W        W97710   7.699  16.836  11.912
25385W        W97711  32.999  14.880   0.913
25386W        W97712  14.748  12.475  14.280
25387W        W97713  12.231  31.425  14.934
25388W        W97714  28.270  31.196  14.452
25389W        W97715   3.246  33.832   1.177
25390W        W97716   3.868  34.988  13.382
25391W        W97717  17.882  10.266   1.708
25392W        W97718  31.634  20.183  12.095
25393W        W97719  29.010  13.868  10.749
25394W        W97720  36.242  16.490   3.880
25395W        W97721   8.215  38.398   1.960
25396W        W97722  44.713  24.744   2.325
25397W        W97723  10.787  32.690   2.405
25398W        W97724   2.002  37.512   1.708
25399W        W97725   9.263  16.731  14.935
25400W        W97726  28.180  23.133  13.429
25401W        W97727  38.939  24.108   5.132
25402W        W97728   2.535  26.186   0.991
25403W        W97729  25.965  13.605   0.461
25404W        W97730  10.816   2.904   3.581
25405W        W97731  20.295  24.644   1.904
25406W        W97732  18.582   1.920   0.481
25407W        W97733  21.458  42.949  12.463
25408W        W97734  15.559  26.646   3.150
25409W        W97735   2.690  26.411  11.533
25410W        W97736  37.115  34.017  10.118
25411W        W97737  39.334   2.016   1.041
25412W        W97738   4.729  25.019   3.639
25413W        W97739  24.102  35.207   1.365
25414W        W97740   1.693  26.388  11.654
25415W        W97741  34.039  40.338   2.818
25416W        W97742  12.371  41.557   0.793
25417W        W97743  23.786  31.642  14.485
25418W        W97744   5.939  28.137   3.709
25419W        W97745  20.268   3.041   4.276
25420W        W97746  20.947   6.993   2.741
25421W        W97747  38.855  30.925   3.796
25422W        W97748  35.864   6.743  14.098
25423W        W97749   4.230   7.244   3.104
25424W        W97750   9.704  42.210  14.791
25425W        W97751  39.948  19.866   0.991
25426W        W97752  26.016  35.644  13.146
25427W        W97753   3.640  23.552  14.901
25428W        W97754  26.319  42.180   3.528
25429W        W97755  20.368  40.965   3.171
25430W        W97756   2.252  23.338   1.880
25431W        W97757   1.423  14.730  12.198
25432W        W97758  25.031  11.237   1.847
25433W        W97759   7.221   5.846   4.971
25434W        W97760  37.298   2.483  12.498
25435W        W97761  12.001  11.980   3.181
25436W        W97762  31.417   5.229  14.047
25437W        W97763  37.737  28.638   0.496
25438W        W97764  17.536  34.817  14.319
25439W        W97765   6.231  44.284  13.798
25440W        W97766  10.642  42.457  12.707
25441W        W97767  23.310  43.763   0.854
25442W        W97768  44.679  14.210  13.234
25443W        W97769  37.892  39.370   3.526
25444W        W97770  31.506  22.467  13.474
25445W        W97771   5.161   5.338   1.082
25446W        W97772  33.595  35.288   1.219
25447W        W97773   1.135  22.769   1.652
25448W        W97774   6.588  36.897  11.219
25449W        W97775  43.088  37.079  12.871
25450W        W97776  34.572  17.730  12.839
25451W        W97777  22.010  39.650  14.512
25452W        W97778  17.742  30.521   4.662
25453W        W97779  31.517  34.842   3.935
25454W        W97780  30.961  33.207   1.355
25455W        W97781  28.600   8.336   3.116
25456W        W97782  11.587   0.264   4.122
25457W        W97783   9.706  17.648   0.008
25458W        W97784  35.527  42.735  12.983
25459W        W97785   5.491  17.148  13.377
25460W        W97786   8.697  18.083  11.658
25461W        W97787  15.101   2.537  13.892
25462W        W97788  43.308   2.828   4.793
25463W        W97789  35.571  38.952  13.940
25464W        W97790  25.959   4.938   4.634
25465W        W97791  40.844  40.215   3.481
25466W        W97792  17.880  36.905   0.400
25467W        W97793  32.446   9.940  11.646
25468W        W97794  20.234  39.585   1.842
25469W        W97795  39.437  43.558   3.210
25470W        W97796   5.771  34.348  12.607
25471W        W97797  41.968  13.251   4.858
25472W        W97798  38.300  38.358  11.817
25473W        W97799   0.304  11.847   4.489
25474W        W97800  13.189  37.157   4.383
25475W        W97801  38.928  38.791   2.140
25476W        W97802   3.160  44.816   0.835
25477W        W97803   8.251  42.043  12.045
25478W        W97804  23.053  37.079   1.334
25479W        W97805  29.585  14.193   4.390
25480W        W97806  21.230  38.226   4.648
25481W        W97807  19.573  34.373   1.818
25482W        W97808  33.543  30.489  12.055
25483W        W97809  13.646  15.688   1.135
25484W        W97810   8.269  12.603  12.924
25485W        W97811  36.415  11.823   2.839
25486W        W97812  41.593   8.250   0.476
25487W        W97813  34.905  25.442   1.233
25488W        W97814  37.460  40.574   4.538
25489W        W97815  21.606  21.542  10.805
25490W        W97816  11.804  40.942   1.946
25491W        W97817  21.481  43.008   3.243
25492W        W97818  17.023  15.179   0.124
25493W        W97819  13.878  14.748   1.312
25494W        W97820  10.552  11.186   3.620
25495W        W97821  18.523  12.918   9.796
25496W        W97822  31.444  41.503  13.423
25497W        W97823  34.833   2.201  13.942
25498W        W97824   4.658  42.173  14.637
25499W        W97825  30.599  31.955  12.026
25500W        W97826  11.843  34.155   2.620
25501W        W97827  31.561  44.710   1.638
25502W        W97828  15.911   1.391  11.102
25503W        W97829  13.378  33.901   0.850
25504W        W97830   2.512  35.886  10.746
25505W        W97831  13.159   3.968   3.157
25506W        W97832  24.922  42.349   3.163
25507W        W97833  43.823  18.500   0.907
25508W        W97834  27.647  32.280  13.081
25509W        W97835  29.051  38.632  13.368
25510W        W97836  17.628  33.316  14.480
25511W        W97837  14.233   8.290  10.915
25512W        W97838  42.153  38.921   2.385
25513W        W97839  14.397   9.508   5.030
25514W        W97840  33.333  16.224   3.209
25515W        W97841  44.617   7.043  13.426
25516W        W97842  35.980  34.795  10.186
25517W        W97843   4.495  39.520   2.791
25518W        W97844   1.257  16.477  10.678
25519W        W97845  32.433   4.464   3.724
25520W        W97846  32.198  17.837   4.127
25521W        W97847  30.790  31.711  12.897
25522W        W97848  16.710  18.812   3.166
25523W        W97849  35.640   9.758  12.930
25524W        W97850  44.519  36.067   2.662
25525W        W97851  22.738  16.988  11.909
25526W        W97852  23.187  43.128  11.149
25527W        W97853  25.687  20.027  14.953
25528W        W97854  19.373  43.285   4.227
25529W        W97855  27.993  12.671   3.330
25530W        W97856  21.002  43.227   4.951
25531W        W97857  17.197  16.752  13.562
25532W        W97858  39.500   9.024  13.475
25533W        W97859  33.452  23.796   3.182
25534W        W97860  31.906  20.063   2.944
25535W        W97861  24.825  38.893  10.183
25536W        W97862  29.336  12.154  11.616
25537W        W97863  17.682   4.360  12.119
25538W        W97864  30.853  29.924  14.921
25539W        W97865  40.477  18.818  12.544
25540W        W97866  14.484  17.840  14.410
25541W        W97867  14.781  33.309  13.360
25542W        W97868  23.072  30.210   4.684
25543W        W97869  16.681  25.201   3.552
25544W        W97870  30.598  43.290   4.784
25545W        W97871  40.962  21.216   4.947
25546W        W97872  29.853   2.482  13.470
25547W        W97873   9.678  12.053   0.015
25548W        W97874  15.084  29.999   3.253
25549W        W97875  41.986  44.446   1.902
25550W        W97876  22.480  34.024  13.525
25551W        W97877  42.404  19.703  12.298
25552W        W97878  36.364  29.134   1.395
25553W        W97879  40.362  28.695   1.265
25554W        W97880  15.239   0.783  11.076
25555W        W97881  32.485   2.507  13.436
25556W        W97882  23.128  28.068  13.368
25557W        W97883  10.780  22.697  11.568
25558W        W97884   7.254  20.156   0.331
25559W        W97885   2.265  40.957   1.887
25560W        W97886  11.905  24.686   1.740
25561W        W97887  17.868   4.723   3.432
25562W        W97888   9.834   3.109  12.579
25563W        W97889  38.865  41.702   1.743
25564W        W97890  20.729  27.054  12.446
25565W        W97891  28.214  10.898   4.294
25566W        W97892  44.110  39.959   3.739
25567W        W97893   7.663  17.237  12.887
25568W        W97894  15.738  32.424  12.160
25569W        W97895  29.495  43.966  14.872
25570W        W97896  37.818  12.328   1.282
25571W        W97897   8.924  43.263  12.245
25572W        W97898  14.105  44.343  12.504
25573W        W97899  41.706   2.272   1.643
25574W        W97900  17.496  43.908   1.798
25575W        W97901  43.470  11.700   2.165
25576W        W97902   9.621  22.168  13.359
25577W        W97903  16.406  12.894  10.981
25578W        W97904   7.361  34.870   1.874
25579W        W97905  36.563  42.412   3.855
25580W        W97906   8.224   1.747  14.509
25581W        W97907  26.113  26.769   2.929
25582W        W97908   5.166  11.205  13.575
25583W        W97909  37.392  14.239  13.848
25584W        W97910  18.216  26.707  13.049
25585W        W97911  29.470  38.392  12.105
25586W        W97912  36.571   3.474   1.845
25587W        W97913  42.534  14.039  13.931
25588W        W97914   6.779  16.813  12.895
25589W        W97915  15.095  23.235   0.303
25590W        W97916  19.056  17.469   4.640
25591W        W97917   8.277  14.834  14.393
25592W        W97918  44.167  31.108  11.754
25593W        W97919  28.735  17.127  13.845
25594W        W97920  29.707  18.709   4.066
25595W        W97921  26.365  16.370   9.477
25596W        W97922  31.594  27.017   1.845
25597W        W97923  34.070  25.801   1.787
25598W        W97924  34.356   1.380   3.186
25599W        W97925  18.388  34.666   4.080
25600W        W97926   7.480  29.043   4.664
25601W        W97927  18.161  16.572   0.242
25602W        W97928  27.462  37.421   2.757
25603W        W97929  21.849   8.778   5.047
25604W        W97930   5.027  31.994  13.040
25605W        W97931  23.262  39.383  11.581
25606W        W97932  17.681  15.577  10.628
25607W        W97933   9.740  11.566  12.652
25608W        W97934  10.110  32.245   4.550
25609W        W97935  27.085  32.782  11.776
25610W        W97936  36.021  10.425  13.977
25611W        W97937   3.911  41.993  10.688
25612W        W97938  16.614  27.671  13.222
25613W        W97939  16.403  41.912   4.065
25614W        W97940  36.534  20.177  13.355
25615W        W97941  38.568  24.164   0.386
25616W        W97942   1.198  23.015  13.355
25617W        W97943   7.674   4.079   4.483
25618W        W97944  33.379  32.644   0.352
25619W        W97945  30.666  11.112  11.560
25620W        W97946  16.758   6.513   4.606
25621W        W97947  44.494  24.189  14.298
25622W        W97948  20.710   0.248   1.314
25623W        W97949  36.994  15.586   2.516
25624W        W97950   9.147  21.578  13.316
25625W        W97951  40.837  27.035   0.782
25626W        W97952  13.620  12.552  13.012
25627W        W97953  20.962   3.441   0.423
25628W        W97954  29.458  13.427  13.335
25629W        W97955  36.585  35.514   3.637
25630W        W97956  19.465   6.737   0.330
25631W        W97957   4.638  21.494  10.134
25632W        W97958  40.562  23.467  10.709
25633W        W97959   7.333  43.888  12.101
25634W        W97960  23.647  29.772   1.179
25635W        W97961  44.826  30.161   2.288
25636W        W97962  25.193   6.289   3.729
25637W        W97963  32.405  28.841   0.833
25638W        W97964  42.488  13.263  11.520
25639W        W97965  13.800  36.559   1.621
25640W        W97966  11.277  40.333  11.564
25641W        W97967   1.534  33.511  11.752
25642W        W97968  21.659  11.389   0.124
25643W        W97969  42.872  28.967  10.755
25644W        W97970  26.165  44.368  14.254
25645W        W97971  14.215  13.096  13.336
25646W        W97972  38.057  18.991  14.746
25647W        W97973  29.084   6.939  14.660
25648W        W97974  44.408   3.271  12.373
25649W        W97975  30.663   9.755   3.682
25650W        W97976   2.194  37.143  11.224
25651W        W97977   1.609  43.400  14.353
25652W        W97978  24.626  22.505   1.647
25653W        W97979  41.910  29.240  11.530
25654W        W97980  10.162  12.198   3.376
25655W        W97981  44.272  14.194  10.124
25656W        W97982   4.563  34.447  11.527
25657W        W97983  17.243  15.546   0.930
25658W        W97984   7.920  35.842  10.754
25659W        W97985  12.767  41.097   4.159
25660W        W97986  22.133  41.266   4.473
25661W        W97987   4.201  23.796   9.844
25662W        W97988  30.527   5.839   3.062
25663W        W97989  26.644   1.305  12.780
25664W        W97990  44.471  43.808   0.817
25665W        W97991  41.517  36.949   0.819
25666W        W97992   3.161  44.954  11.550
25667W        W97993  31.074  21.754  11.498
25668W        W97994  18.168   3.806   4.847
25669W        W97995  19.700  23.415   2.237
25670W        W97996  32.850   8.273   1.701
25671W        W97997  42.811  24.517  12.130
25672W        W97998  26.387  29.735  14.603
25673W        W97999   1.015   6.130   4.449
25674W        W98000  15.404   1.672  11.150
25675W        W98001  17.318  27.844  13.467
25676W        W98002  25.691  40.753  11.600
25677W        W98003   8.970  15.843   1.165
25678W        W98004  43.782  25.569  14.976
25679W        W98005  31.999   8.665   4.875
25680W        W98006  19.773  39.370  11.638
25681W        W98007  17.244  41.104   0.831
25682W        W98008  12.045  35.637  10.924
25683W        W98009  19.852   6.461   0.073
25684W        W98010  32.468   1.335  14.158
25685W        W98011  34.498  23.890  13.041
25686W        W98012  25.053  11.928  12.021
25687W        W98013  42.633  38.113   1.356
25688W        W98014  38.431  22.804   1.127
25689W        W98015   4.112  16.255  12.142
25690W        W98016  25.520   8.574  12.977
25691W        W98017   4.718  20.855   3.995
25692W        W98018  38.974   8.577  12.722
25693W        W98019  32.632  23.710  13.931
25694W        W98020   0.721  37.311   0.346
25695W        W98021  41.491  44.532  11.546
25696W        W98022  15.782  11.306   4.945
25697W        W98023   4.294   1.010  13.595
25698W        W98024  24.658  32.363  14.320
25699W        W98025  34.831  34.493   2.428
25700W        W98026  30.323  41.214   1.700
25701W        W98027   3.937  25.290   2.555
25702W        W98028  10.197   4.379  11.894
25703W        W98029  38.467  28.683  13.418
25704W        W98030  29.923   3.432  13.877
25705W        W98031  37.321   9.937   3.343
25706W        W98032  16.961   0.965   4.120
25707W        W98033   1.564  28.727  13.420
25708W        W98034  12.249  28.429  12.057
25709W        W98035  26.044   1.663   3.781
25710W        W98036   3.743  19.905   0.922
25711W        W98037  39.886   0.855  13.690
25712W        W98038   0.767  17.593   0.814
25713W        W98039  34.283  26.417  14.893
25714W        W98040   2.581  37.132  13.435
25715W        W98041  28.119   9.129   4.372
25716W        W98042  21.328  22.670  10.714
25717W        W98043   4.813  15.697   2.873
25718W        W98044  31.432  29.720   1.460
25719W        W98045  40.192  31.827  10.627
25720W        W98046  41.474  16.619   2.361
25721W        W98047  15.034  33.917  13.770
25722W        W98048  30.220  19.196   1.438
25723W        W98049  17.042  21.996   2.711
25724W        W98050   7.085   9.882   1.409
25725W        W98051  12.207  11.446   2.489
25726W        W98052  10.664  42.807  13.126
25727W        W98053  39.491   8.457  14.894
25728W        W98054  28.493   7.399   2.291
25729W        W98055  41.394  24.968   1.607
25730W        W98056   8.424  29.955  12.981
25731W        W98057  27.667  12.358   4.331
25732W        W98058  17.773  44.008  12.357
25733W        W98059  39.097   8.805  14.963
25734W        W98060  35.965  42.291   0.846
25735W        W98061  36.891  39.271   4.092
25736W        W98062  34.689  29.271   4.241
25737W        W98063  10.115  18.807   0.922
25738W        W98064  24.469   1.474   3.754
25739W        W98065  16.190   3.642   1.254
25740W        W98066  29.963  38.297  13.373
25741W        W98067  10.598  13.841   4.201
25742W        W98068  24.183  30.089   0.245
25743W        W98069  32.679  10.131   1.770
25744W        W98070  26.060   5.188  12.578
25745W        W98071  21.758  26.269   3.586
25746W        W98072  26.510  43.181   3.748
25747W        W98073  13.426  38.033   3.621
25748W        W98074  30.574  35.289   0.681
25749W        W98075   9.790  29.621   4.309
25750W        W98076  26.253  22.927  14.957
25751W        W98077   1.200  30.174   1.548
25752W        W98078  35.981  33.098   2.145
25753W        W98079  15.572   0.105  14.220
25754W        W98080   6.496  19.753   4.731
25755W        W98081  39.264  42.820  13.507
25756W        W98082  23.259   8.491   2.769
25757W        W98083   2.249   4.795  13.795
25758W        W98084   1.684  31.632  13.925
25759W        W98085  35.668  22.465  12.282
25760W        W98086   8.138  19.192  14.344
25761W        W98087  41.585  38.171  12.938
25762W        W98088  15.688  25.040  14.962
25763W        W98089  18.621  34.978  14.409
25764W        W98090  24.213   9.664   1.406
25765W        W98091  24.943  24.011   1.776
25766W        W98092  36.960  37.048  11.735
25767W        W98093   7.872  23.188  11.772
25768W        W98094   3.335  22.313  11.059
25769W        W98095  34.635  19.525   5.113
25770W        W98096  17.219  25.587  14.990
25771W        W98097   2.317  34.048   1.272
25772W        W98098  11.337  44.950   4.613
25773W        W98099   9.705  30.807   0.217
25774W        W98100  29.937  11.864  13.950
25775W        W98101   0.276  12.811   1.301
25776W        W98102  22.591   6.178  10.748
25777W        W98103   4.712  18.482   2.795
25778W        W98104  32.549  10.457  13.547
25779W        W98105   4.294   8.375   2.339
25780W        W98106   5.662  16.314  13.765
25781W        W98107  34.423  42.006  10.791
25782W        W98108  37.471  37.834  14.042
25783W        W98109  29.584  25.717  10.163
25784W        W98110  38.824  21.667  13.381
25785W        W98111   7.772  35.498  14.310
25786W        W98112  22.713  31.151  13.885
25787W        W98113  26.508  28.542   3.825
25788W        W98114   9.266  30.689   1.909
25789W        W98115  25.571  14.658  13.160
25790W        W98116  32.552   9.440  13.353
25791W        W98117  23.577   4.701  11.058
25792W        W98118  19.607   8.388   0.703
25793W        W98119  41.454  19.258   3.370
25794W        W98120   0.432  25.488  14.020
25795W        W98121   5.763   0.588   2.876
25796W        W98122  18.829  38.938   4.539
25797W        W98123  32.441  11.466   1.408
25798W        W98124  31.070  27.562  12.392
25799W        W98125  22.070  34.887  10.736
25800W        W98126  24.074  21.575   1.178
25801W        W98127  34.876  15.551  12.842
25802W        W98128   4.316  24.790   3.451
25803W        W98129  12.999  27.956   1.697
25804W        W98130  39.705  35.168  13.484
25805W        W98131  10.887  38.567   3.697
25806W        W98132  35.415  25.226   4.723
25807W        W98133  26.028  36.797   1.248
25808W        W98134  20.175  28.868   4.764
25809W        W98135  14.629  41.271  10.423
25810W        W98136  22.188  38.456   3.876
25811W        W98137  30.602  21.402  11.213
25812W        W98138  35.961  32.462   4.683
25813W        W98139   7.856  17.985  14.865
25814W        W98140   5.840   1.674   0.685
25815W        W98141   8.441  34.881  14.554
25816W        W98142  23.252  29.104  14.478
25817W        W98143  38.331  34.764  14.777
25818W        W98144  24.288  18.098   0.667
25819W        W98145  37.522  37.056   1.149
25820W        W98146  29.976  19.793  14.413
25821W        W98147  39.357  21.259   2.729
25822W        W98148  17.801  17.674   4.075
25823W        W98149  20.609  15.951   3.597
25824W        W98150  30.820  30.730   3.358
25825W        W98151   9.871  37.343  10.755
25826W        W98152  36.463   8.786   0.173
25827W        W98153  22.204  21.680  14.251
25828W        W98154   0.160   4.079   2.521
25829W        W98155   4.774  20.537  10.733
25830W        W98156  13.204  28.879   0.034
25831W        W98157  41.754  41.827  14.495
25832W        W98158  12.895   5.866   3.248
25833W        W98159  10.929  22.827  14.031
25834W        W98160  25.193  36.914   0.763
25835W        W98161   7.560  13.975  14.240
25836W        W98162  21.876  28.842   4.365
25837W        W98163  38.864  11.293   4.039
25838W        W98164  24.515  41.232  11.070
25839W        W98165  21.196  19.505   1.979
25840W        W98166  29.692  18.318  10.338
25841W        W98167  14.652  25.743  13.464
25842W        W98168  38.745  10.177   3.184
25843W        W98169  11.790  29.356   4.468
25844W        W98170  30.725  24.276   1.637
25845W        W98171  40.067  42.607   1.188
25846W        W98172  21.811  39.391   9.790
25847W        W98173  34.588  43.594   4.890
25848W        W98174  33.077   6.593  14.019
25849W        W98175  11.755  32.993  10.585
25850W        W98176  18.185  41.685  13.051
25851W        W98177  37.130  42.307   3.122
25852W        W98178  38.078  36.928   4.785
25853W        W98179  38.834   8.883  14.106
25854W        W98180  37.617   7.860   4.880
25855W        W98181  25.126  35.167  13.277
25856W        W98182   2.444   9.097  14.100
25857W        W98183  14.143  40.845  11.549
25858W        W98184  31.673   8.274  12.574
25859W        W98185   8.832   6.616  10.648
25860W        W98186  34.555  20.854  13.116
25861W        W98187  27.691  24.499  13.542
25862W        W98188  18.648   1.797   1.453
25863W        W98189   2.576   9.306   5.321
25864W        W98190   1.845  25.925   1.908
25865W        W98191   1.900   3.735   4.261
25866W        W98192  33.334  26.388   3.266
25867W        W98193  11.327  20.942   2.677
25868W        W98194  13.651   7.608  12.712
25869W        W98195  32.154  18.676  11.405
25870W        W98196  44.386  35.085   4.552
25871W        W98197  11.387  30.548   0.534
25872W        W98198  31.045   8.204  13.462
25873W        W98199  18.659  38.931  14.492
25874W        W98200  14.406  19.444  13.311
25875W        W98201  20.177  27.008   4.531
25876W        W98202   5.491  19.406   1.694
25877W        W98203  21.038  10.797   1.449
25878W        W98204  30.086  13.671   3.082
25879W        W98205  24.028  27.590   0.373
25880W        W98206  36.866  37.976   4.392
25881W        W98207  35.365   2.275   0.326
25882W        W98208  11.307  35.071  10.223
25883W        W98209  43.549  33.466   1.053
25884W        W98210   5.945  35.460   0.776
25885W        W98211  14.060  17.407   4.999
25886W        W98212  21.976  32.172   4.115
25887W        W98213   1.449  23.083   4.512
25888W        W98214  23.554  33.702   4.687
25889W        W98215  38.076  19.754   3.668
25890W        W98216   9.444   2.403  12.509
25891W        W98217  38.417  42.426   2.307
25892W        W98218  26.653  39.750   3.127
25893W        W98219  32.663  22.577   3.247
25894W        W98220  25.933  24.001   3.670
25895W        W98221  13.334  18.323  14.400
25896W        W98222  14.350  20.539   0.337
25897W        W98223  25.963  19.266  14.441
25898W        W98224  33.838  14.689  11.170
25899W        W98225  28.244  35.059   3.327
25900W        W98226   9.122  12.579   4.719
25901W        W98227  28.929   1.056  12.880
25902W        W98228   6.612  39.421  12.517
25903W        W98229   0.801  11.726   4.559
25904W        W98230  25.453  28.224   3.716
25905W        W98231  16.662   3.263   0.192
25906W        W98232  24.422   1.688  13.885
25907W        W98233  15.992  32.636   2.646
25908W        W98234   6.687  30.394  10.666
25909W        W98235  20.034  14.595  13.459
25910W        W98236  23.705  33.391   0.021
25911W        W98237  21.596   5.362  12.634
25912W        W98238  25.901  31.079  14.671
25913W        W98239   9.808  15.315  11.340
25914W        W98240  13.863  42.726  13.457
25915W        W98241   2.578  37.292   0.107
25916W        W98242  13.050  30.636   1.378
25917W        W98243  44.188  43.953   3.272
25918W        W98244  38.285  17.731  13.838
25919W        W98245   4.736  25.713  11.136
25920W        W98246  38.894  24.479  12.989
25921W        W98247  28.025  40.043  13.486
25922W        W98248  14.379  24.900  13.567
25923W        W98249  30.668  40.871   3.583
25924W        W98250   0.776   2.833  14.446
25925W        W98251  22.610  13.834  13.243
25926W        W98252  17.198   0.551   0.797
25927W        W98253  42.598  39.863   2.035
25928W        W98254  39.542  10.384   0.947
25929W        W98255  42.014  17.647   0.946
25930W        W98256   0.284  23.506  11.512
25931W        W98257  43.508  24.960   3.574
25932W        W98258  28.175  24.625  13.387
25933W        W98259   9.425  27.568   0.450
25934W        W98260   5.798   3.291  14.350
25935W        W98261  20.114  16.493   4.539
25936W        W98262   2.960  26.542   4.714
25937W        W98263  11.825  26.048  13.511
25938W        W98264  11.130  10.650  10.670
25939W        W98265  13.034  26.612  10.465
25940W        W98266  37.578  19.510  10.678
25941W        W98267  42.521  29.481   1.735
25942W        W98268  41.378  22.729  14.900
25943W        W98269  28.477  43.481   1.792
25944W        W98270  15.159  28.018   4.256
25945W        W98271  11.196  14.347   2.875
25946W        W98272  23.426  39.117  14.610
25947W        W98273   6.847   5.805  14.028
25948W        W98274  34.883  30.083   4.146
25949W        W98275   1.029   1.315   4.303
25950W        W98276  31.623  13.809  12.419
25951W        W98277   1.959  29.738   4.276
25952W        W98278  18.241  14.323   2.916
25953W        W98279  42.303   8.666   3.479
25954W        W98280  26.452  10.346   2.438
25955W        W98281   9.180   0.854  12.313
25956W        W98282  11.900  42.352   1.656
25957W        W98283  13.108  20.805  11.116
25958W        W98284  40.573   8.096   2.302
25959W        W98285  19.519  31.896   3.273
25960W        W98286  25.683  38.956  13.298
25961W        W98287  23.122   9.148   1.800
25962W        W98288  28.348  11.112   3.287
25963W        W98289  35.325  29.938   3.461
25964W        W98290  20.159   3.296   3.608
25965W        W98291  11.452  12.783  11.218
25966W        W98292   7.534  22.805  11.061
25967W        W98293  30.008  26.455  13.298
25968W        W98294  37.259  42.450  13.581
25969W        W98295  15.155  14.825   1.849
25970W        W98296  32.089   9.146   4.680
25971W        W98297  43.408  23.170   2.142
25972W        W98298  44.275  33.004  12.214
25973W        W98299  16.438  29.109   3.727
25974W        W98300   6.820  38.884  12.590
25975W        W98301  36.834  36.064   1.961
25976W        W98302  17.382  12.247  10.481
25977W        W98303  18.585  24.439  10.545
25978W        W98304  42.322   2.209  11.528
25979W        W98305  11.495  43.344   3.028
25980W        W98306  12.354   6.644   2.773
25981W        W98307   8.364   5.816  12.673
25982W        W98308  35.740   8.623   2.243
25983W        W98309  37.635  24.218  12.578
25984W        W98310  18.201  16.638  14.218
25985W        W98311  17.500  14.779  10.119
25986W        W98312  32.909  31.319  14.324
25987W        W98313  15.833  31.716   2.618
25988W        W98314  20.239  11.303   0.735
25989W        W98315  16.855  16.722   2.248
25990W        W98316   0.948   1.846  13.267
25991W        W98317  11.053  23.424   1.800
25992W        W98318  24.979  40.388  13.916
25993W        W98319  15.710  28.258  13.069
25994W        W98320  24.693   8.394   1.891
25995W        W98321   6.948   8.051  13.350
25996W        W98322  27.915  28.377   4.215
25997W        W98323   3.284  25.713  14.841
25998W        W98324  24.695   2.700   2.382
25999W        W98325  19.156  11.660  10.540
26000W        W98326  34.506  20.325   4.603
26001W        W98327  29.838   4.924   2.767
26002W        W98328   6.792   0.431   4.136
26003W        W98329   3.160  36.595  12.573
26004W        W98330  11.853   7.716   3.960
26005W        W98331  22.165  17.717  11.453
26006W        W98332  28.048  27.085   4.065
26007W        W98333   7.793   9.380  14.548
26008W        W98334  26.475   1.964   2.395
26009W        W98335   3.868  18.640   3.630
26010W        W98336  38.319   0.388  11.377
26011W        W98337  29.651   8.576  11.734
26012W        W98338  34.506   5.665  14.924
26013W        W98339  18.296  26.948  11.225
26014W        W98340   3.888  32.524  12.543
26015W        W98341  34.799  15.651   3.334
26016W        W98342  14.807   7.394   4.899
26017W        W98343  34.068  43.205   2.818
26018W        W98344   1.150  16.164   3.190
26019W        W98345  28.293  31.241  10.713
26020W        W98346  43.316  15.973   2.808
26021W        W98347  25.334  25.649   2.168
26022W        W98348  31.009  12.867  12.007
26023W        W98349  38.043  33.229  11.075
26024W        W98350  44.157   7.066  10.326
26025W        W98351  20.133  38.511   4.344
26026W        W98352   5.806   2.549   4.103
26027W        W98353   4.661  20.960  11.381
26028W        W98354   9.875  32.800   0.299
26029W        W98355   2.024   5.684   1.825
26030W        W98356  16.510   8.591  13.099
26031W        W98357  16.127  23.280   3.101
26032W        W98358  19.804   9.009   2.296
26033W        W98359  17.266  35.001   1.943
26034W        W98360  44.415  14.772  12.451
26035W        W98361  20.269  19.086   4.266
26036W        W98362   5.321  15.404   0.016
26037W        W98363  30.592   4.533   4.506
26038W        W98364   5.721  24.148  12.636
26039W        W98365  40.436  43.017   2.364
26040W        W98366  37.527  18.121  13.964
26041W        W98367  33.558  20.040  14.903
26042W        W98368   5.477  17.307   1.300
26043W        W98369  13.100  29.004  13.103
26044W        W98370  32.660   1.934  12.571
26045W        W98371  23.186  19.315   3.938
26046W        W98372  24.509  27.580   0.181
26047W        W98373  21.247  43.999   0.615
26048W        W98374   1.363   4.862  14.440
26049W        W98375  39.506  17.755   2.871
26050W        W98376   8.575  18.768   1.880
26051W        W98377  10.657   5.930  11.255
26052W        W98378  10.358  12.877  13.075
26053W        W98379   2.747  15.688  10.787
26054W        W98380  15.580  34.976  10.708
26055W        W98381   3.996  17.689   0.205
26056W        W98382   6.395  15.551   2.218
26057W        W98383  15.580   0.946   4.077
26058W        W98384  44.362  32.367  10.481
26059W        W98385  14.033  36.560  14.415
26060W        W98386   0.226  28.650   2.982
26061W        W98387  36.117  41.510   2.330
26062W        W98388   5.716   1.771   4.660
26063W        W98389   4.407  39.069   2.183
26064W        W98390  35.473  30.607  11.920
26065W        W98391  34.412  17.191   4.200
26066W        W98392  28.588  38.147   2.764
26067W        W98393  40.935  25.949   1.804
26068W        W98394  30.047  43.526  11.546
26069W        W98395  38.410  29.607   3.227
26070W        W98396  20.468  22.290  11.957
26071W        W98397  38.458  23.581  13.523
26072W        W98398  24.407  25.679  12.200
26073W        W98399  27.161  29.734  12.624
26074W        W98400   8.351  26.934   9.839
26075W        W98401   4.643  31.680   3.294
26076W        W98402  23.527  14.058   1.237
26077W        W98403   3.425  36.884  14.333
26078W        W98404  36.402   1.270   1.213
26079W        W98405  35.949  39.748   1.722
26080W        W98406  18.768   8.918  13.947
26081W        W98407  16.589  22.919  14.468
26082W        W98408  40.881  25.986   2.329
26083W        W98409  13.602  38.063   2.303
26084W        W98410  43.011  20.006  10.951
26085W        W98411   0.295  33.146   1.596
26086W        W98412  31.554  36.512   2.168
26087W        W98413  42.367  32.848  10.718
26088W        W98414  21.156  10.012   3.763
26089W        W98415  19.034  12.214   4.849
26090W        W98416  15.267  11.873  13.853
26091W        W98417  40.601  26.694  11.165
26092W        W98418  31.102   2.761  13.272
26093W        W98419  24.689  32.897   1.735
26094W        W98420  29.889  25.946  10.594
26095W        W98421  35.388  37.338  11.115
26096W        W98422  34.420  18.728   3.759
26097W        W98423  10.385   8.305  10.441
26098W        W98424   7.186  35.081  10.670
26099W        W98425  24.003  41.338   3.223
26100W        W98426  17.483   9.637  11.984
26101W        W98427  35.744  36.955  11.165
26102W        W98428   9.825  39.824   0.877
26103W        W98429  16.983  18.127   2.055
26104W        W98430  40.097  12.663  12.393
26105W        W98431  14.115  29.523   0.643
26106W        W98432   7.357  16.218   4.620
26107W        W98433   1.026  40.727   4.264
26108W        W98434  30.312  43.510   1.453
26109W        W98435  38.135  13.560   5.354
26110W        W98436  20.156  36.968   0.187
26111W        W98437   9.878  41.292   0.955
26112W        W98438  18.162  11.477   1.163
26113W        W98439  24.512  41.272   2.339
26114W        W98440  12.869  27.016   3.565
26115W        W98441  11.578  40.887   3.776
26116W        W98442   0.940  35.237   5.094
26117W        W98443  28.960   8.306   2.199
26118W        W98444  36.665  38.751  11.183
26119W        W98445   8.430  35.900   0.752
26120W        W98446  31.998   7.450   3.222
26121W        W98447  34.463   7.864  11.917
26122W        W98448   6.414   3.608   2.611
26123W        W98449   5.758  17.055  12.027
26124W        W98450  17.250  33.986   4.414
26125W        W98451  22.454  38.599   1.636
26126W        W98452  44.535   6.795  11.136
26127W        W98453  16.621  37.166  13.988
26128W        W98454  23.790   5.488  12.612
26129W        W98455  34.978   5.902   4.525
26130W        W98456  35.973  15.887  12.542
26131W        W98457  28.916  39.968  14.331
26132W        W98458  41.976  10.483  10.538
26133W        W98459   2.268  23.224   4.781
26134W        W98460  34.523  43.353   3.875
26135W        W98461  39.192  16.335   5.051
26136W        W98462  41.001  44.281   1.512
26137W        W98463  32.174  28.986   0.397
26138W        W98464  14.263   1.968  13.609
26139W        W98465  22.568  36.096  13.892
26140W        W98466   0.467  10.646   1.479
26141W        W98467  22.006  16.028   3.748
26142W        W98468  10.748   9.331  10.761
26143W        W98469  18.160   8.195  11.579
26144W        W98470  37.588  43.808  14.068
26145W        W98471   3.032  28.493   3.359
26146W        W98472   0.517  24.053   3.411
26147W        W98473   0.906  24.689  13.950
26148W        W98474  22.431  18.623   3.259
26149W        W98475  26.979  36.389   2.423
26150W        W98476  25.357  22.925   4.196
26151W        W98477   3.075  41.357  13.849
26152W        W98478  23.135  34.621  12.061
26153W        W98479  28.210  11.262  13.535
26154W        W98480  27.658  33.517   0.906
26155W        W98481  24.235  44.431  11.021
26156W        W98482   0.927  33.863  12.056
26157W        W98483  28.122  20.565   2.389
26158W        W98484  41.200  38.832   3.172
26159W        W98485  29.395  27.854  10.183
26160W        W98486  26.199  27.176   0.317
26161W        W98487  31.098  14.613   0.319
26162W        W98488  16.157  43.011   1.426
26163W        W98489   4.727   7.910  13.735
26164W        W98490   1.247   5.032   0.919
26165W        W98491  43.981  44.353  14.743
26166W        W98492  42.995  29.392   1.890
26167W        W98493  22.251  36.628  14.881
26168W        W98494   3.816  20.440   4.111
26169W        W98495  42.995  31.228  10.231
26170W        W98496  27.387  43.508   3.663
26171W        W98497  22.605  42.287  10.474
26172W        W98498  31.027   4.276   4.647
26173W        W98499  22.817   8.215   2.841
26174W        W98500  32.641  23.088   3.420
26175W        W98501  32.341  20.495  11.982
26176W        W98502  11.369   4.834   1.328
26177W        W98503  36.979   4.958   0.395
26178W        W98504  29.685  27.621  12.742
26179W        W98505  22.153  20.691  12.421
26180W        W98506  12.350  20.799   3.920
26181W        W98507  11.621  29.943  13.831
26182W        W98508   2.199  31.344  13.025
26183W        W98509  24.223  40.737   2.915
26184W        W98510  32.701  24.130   0.910
26185W        W98511  13.082  24.619   4.176
26186W        W98512  31.129  24.013  13.946
26187W        W98513  20.761   8.291  13.978
26188W        W98514  17.718  24.493   3.449
26189W        W98515  36.510  17.336  11.428
26190W        W98516   6.602  12.613  11.469
26191W        W98517  17.668  33.148  13.082
26192W        W98518  42.334  13.191   4.500
26193W        W98519  40.771  15.488  11.576
26194W        W98520  32.162   2.924  13.362
26195W        W98521   6.108  44.555   1.307
26196W        W98522  25.763  13.589   2.742
26197W        W98523  40.944  18.261   0.038
26198W        W98524  10.142   0.791  10.560
26199W        W98525  21.957  16.433   3.383
26200W        W98526  24.630  29.915   4.848
26201W        W98527  19.217  12.708   1.730
26202W        W98528  36.208   8.369  14.996
26203W        W98529  27.534  29.866  10.544
26204W        W98530  20.677  29.460   3.259
26205W        W98531  10.891  37.961   2.705
26206W        W98532  33.034  22.934  12.603
26207W        W98533   8.870  42.478   1.366
26208W        W98534   3.787   8.867  13.261
26209W        W98535   5.645   0.508  14.491
26210W        W98536  35.726  43.904   1.462
26211W        W98537   7.999  24.998   5.106
26212W        W98538  15.579   0.614  14.230
26213W        W98539  11.598  22.753  10.378
26214W        W98540  38.540  17.114  12.689
26215W        W98541  25.372  16.642  14.008
26216W        W98542  34.849   2.429  13.445
26217W        W98543  24.282  37.958  13.522
26218W        W98544   5.297   4.483  13.824
26219W        W98545  12.604  21.530  12.440
26220W        W98546  36.058  22.279   2.378
26221W        W98547  21.789  17.048   4.818
26222W        W98548  32.989  24.468  14.488
26223W        W98549  44.019  31.835   0.958
26224W        W98550   8.355  40.327   2.897
26225W        W98551  35.768   5.034  11.981
26226W        W98552  37.574  14.855  10.617
26227W        W98553   8.304  19.649   0.767
26228W        W98554   4.882  31.549  13.795
26229W        W98555  23.198  40.422  10.211
26230W        W98556  33.086   4.278  11.432
26231W        W98557   9.806  17.931  12.934
26232W        W98558  42.890  36.843  14.381
26233W        W98559  38.787  42.321   0.944
26234W        W98560  18.091  25.476   2.338
26235W        W98561  25.194   4.848   2.306
26236W        W98562  16.939  28.006   5.029
26237W        W98563  25.750   7.129  11.201
26238W        W98564  22.707  35.988   0.860
26239W        W98565  29.143   2.221   4.056
26240W        W98566  31.384  16.202   4.314
26241W        W98567   7.203   3.747   3.391
26242W        W98568  35.469   0.238   4.752
26243W        W98569  29.143  32.031   4.438
26244W        W98570  28.886  41.303  14.917
26245W        W98571  44.850  38.839   3.277
26246W        W98572  25.602  12.229   2.954
26247W        W98573  13.316   7.396  11.964
26248W        W98574  31.279   7.522  10.176
26249W        W98575  26.240   1.288   3.466
26250W        W98576  11.966  14.067  12.009
26251W        W98577  11.400   6.842  12.001
26252W        W98578  17.675   3.973   4.118
26253W        W98579  22.216  30.980  12.433
26254W        W98580  10.705  32.487  14.864
26255W        W98581  36.076  21.236  10.442
26256W        W98582  41.822  16.724  10.737
26257W        W98583   5.681   1.269   3.802
26258W        W98584  32.429   9.674   1.636
26259W        W98585  37.409  29.142   3.144
26260W        W98586  36.605  17.239   4.180
26261W        W98587  42.748  34.906   3.763
26262W        W98588   6.636   0.787   1.868
26263W        W98589  22.300  21.786  13.327
26264W        W98590  18.239  23.578  10.473
26265W        W98591  44.960  11.320  12.901
26266W        W98592  27.716  39.299   4.952
26267W        W98593   6.967  43.835  13.941
26268W        W98594  24.017  13.816  10.312
26269W        W98595   2.476  35.700   2.777
26270W        W98596  19.133   4.627   2.108
26271W        W98597  33.909   2.206  12.907
26272W        W98598  25.841   5.439  11.614
26273W        W98599   3.705   5.663  13.352
26274W        W98600  41.930   2.763  11.004
26275W        W98601  21.183  28.029   4.607
26276W        W98602  15.083  18.735  11.702
26277W        W98603  23.748  22.279   0.812
26278W        W98604  10.224  33.676   3.567
26279W        W98605   9.610   1.869  11.108
26280W        W98606  19.814  39.881   3.333
26281W        W98607   9.452  34.047  13.563
26282W        W98608  15.941  26.312   0.965
26283W        W98609  27.503  32.128   2.307
26284W        W98610  13.324  12.316   0.038
26285W        W98611  22.994  13.612   0.798
26286W        W98612  35.998  32.600   2.333
26287W        W98613   5.593  34.936  14.777
26288W        W98614   8.658  41.499   4.733
26289W        W98615  33.903  19.992  13.624
26290W        W98616  24.214  10.583  14.887
26291W        W98617  15.574  35.370   4.470
26292W        W98618   8.703   4.663   0.769
26293W        W98619  11.297  38.356   4.163
26294W        W98620  19.411   4.974   4.133
26295W        W98621  31.023  11.299  10.670
26296W        W98622  30.663  40.857  13.100
26297W        W98623  18.923  10.549   0.955
26298W        W98624  44.079  25.985  14.923
26299W        W98625  30.392   3.227   1.736
26300W        W98626   4.353  16.043  11.748
26301W        W98627  40.646   6.563   4.425
26302W        W98628  29.197  13.789  12.905
26303W        W98629  22.054  25.212  14.809
26304W        W98630  21.649  13.594  12.894
26305W        W98631  29.657  21.976  12.608
26306W        W98632   1.837  26.100  10.940
26307W        W98633   4.128  27.509   2.830
26308W        W98634  36.317   5.237  12.619
26309W        W98635  12.986  34.489  13.763
26310W        W98636  19.816  21.690   4.352
26311W        W98637  33.281  37.506  11.804
26312W        W98638  33.105   8.729  13.384
26313W        W98639  19.573  21.670   3.881
26314W        W98640   6.778  41.749   2.387
26315W        W98641  20.967  39.159   0.315
26316W        W98642  30.857  43.856   1.736
26317W        W98643  43.446  12.684  11.433
26318W        W98644  25.545  31.190   0.924
26319W        W98645  16.551  37.273   0.663
26320W        W98646  21.223  17.169   3.222
26321W        W98647  19.977  44.548   2.281
26322W        W98648  20.344  25.663   0.243
26323W        W98649  31.796  44.968   2.036
26324W        W98650  40.608   5.183   3.615
26325W        W98651  19.211  28.416   4.243
26326W        W98652  10.731  32.074  11.017
26327W        W98653   0.787  44.336   2.642
26328W        W98654   5.161  25.153   0.840
26329W        W98655  24.500  30.858   1.898
26330W        W98656  38.551  16.358  11.078
26331W        W98657  42.978  28.187   0.942
26332W        W98658  41.981   2.768  12.879
26333W        W98659  38.466  25.251   2.779
26334W        W98660   9.093  10.281   4.134
26335W        W98661   0.759  24.257  13.492
26336W        W98662  36.417   7.711   1.024
26337W        W98663  29.518   1.448  12.470
26338W        W98664  27.971  20.292   1.378
26339W        W98665  30.546  42.633   1.204
26340W        W98666  39.577  26.202   3.713
26341W        W98667  25.069  38.063  14.809
26342W        W98668  18.828   0.420   2.513
26343W        W98669   1.212  14.611   2.771
26344W        W98670  27.899   2.009   2.211
26345W        W98671   7.443  31.858   4.151
26346W        W98672   6.782  15.646  11.487
26347W        W98673  26.486  23.298  11.609
26348W        W98674  31.925  16.275   2.324
26349W        W98675  40.029  14.641  14.261
26350W        W98676  37.933  29.766  12.557
26351W        W98677  14.251  12.772  11.284
26352W        W98678  14.408  13.235  11.580
26353W        W98679  19.552  32.854   3.641
26354W        W98680  22.789  31.959   0.894
26355W        W98681  30.538  24.040   3.625
26356W        W98682  31.987  30.236   4.290
26357W        W98683  14.107  36.552  12.513
26358W        W98684  26.584  43.298   1.234
26359W        W98685  13.602  43.935   0.050
26360W        W98686   5.795   2.923   1.433
26361W        W98687  33.256  29.521  12.492
26362W        W98688   9.319  13.748  11.469
26363W        W98689  41.305   4.790   2.241
26364W        W98690  18.483  21.057   0.816
26365W        W98691  36.454   0.751   3.569
26366W        W98692  27.594  27.333  11.497
26367W        W98693  21.841  20.574  13.108
26368W        W98694   4.532  26.608  14.394
26369W        W98695  24.047   3.828  13.380
26370W        W98696  20.961   4.682   2.253
26371W        W98697  32.509   8.836   4.609
26372W        W98698   4.053  28.003  11.040
26373W        W98699  42.200  35.796  10.391
26374W        W98700  21.620  26.434   1.180
26375W        W98701  29.465  28.340   4.267
26376W        W98702   5.503   0.104   2.767
26377W        W98703  30.926  27.431   1.261
26378W        W98704   0.964  13.768  13.604
26379W        W98705  27.201   8.314  12.492
26380W        W98706  20.177  14.344  11.633
26381W        W98707  38.836  26.448   4.246
26382W        W98708   8.180  28.543   4.638
26383W        W98709  27.679   3.598   2.738
26384W        W98710  43.357   1.647   1.882
26385W        W98711   4.854   9.396  12.014
26386W        W98712  36.142  36.169  13.965
26387W        W98713  38.961  16.205   1.884
26388W        W98714   3.742  14.451   4.700
26389W        W98715  14.568  27.258   4.253
26390W        W98716  25.743  33.783   1.629
26391W        W98717  40.301  18.841   5.060
26392W        W98718   3.308   0.335   3.842
26393W        W98719  12.338  32.931  14.259
26394W        W98720  15.267   2.368   4.776
26395W        W98721  37.945  37.882  12.438
26396W        W98722  27.465  18.999  12.119
26397W        W98723   2.185  12.317   0.712
26398W        W98724   9.277  20.011  14.168
26399W        W98725  26.558  44.977   4.135
26400W        W98726  23.085  27.447   1.412
26401W        W98727  34.364  30.398  11.237
26402W        W98728   0.919  34.552  10.744
26403W        W98729  38.567  35.559  12.447
26404W        W98730  38.026  26.043  14.297
26405W        W98731  25.725  13.143  13.987
26406W        W98732   5.949  37.883  14.961
26407W        W98733  24.768  23.216  13.200
26408W        W98734  17.739  38.611   4.105
26409W        W98735  30.120  17.164  11.209
26410W        W98736  32.078  40.511  12.387
26411W        W98737  15.605  34.155   2.265
26412W        W98738  25.122  16.151   1.435
26413W        W98739  16.687   2.677   4.622
26414W        W98740  18.327  34.087  11.955
26415W        W98741  41.751  11.421   1.953
26416W        W98742  17.801  28.137  12.463
26417W        W98743  43.315  44.790   4.224
26418W        W98744   8.144   9.006  14.682
26419W        W98745  26.715  33.714   3.329
26420W        W98746  39.357   8.235   2.838
26421W        W98747  32.470  35.678   2.661
26422W        W98748  12.900  33.414  10.368
26423W        W98749  22.993  15.156   3.834
26424W        W98750   3.297  28.995  14.953
26425W        W98751  28.957  17.655  14.928
26426W        W98752  31.101  34.392  12.124
26427W        W98753  21.733  30.150   3.734
26428W        W98754  26.561   7.845  10.768
26429W        W98755  11.208  16.796  12.404
26430W        W98756   5.346  35.811  11.551
26431W        W98757  16.759   3.692   4.220
26432W        W98758  28.585  16.046   3.131
26433W        W98759  28.587  12.644   1.078
26434W        W98760  44.559  15.266   2.932
26435W        W98761   6.566   6.354   1.385
26436W        W98762  16.960  38.898  10.406
26437W        W98763   7.873  37.945   3.613
26438W        W98764  19.858   4.026  11.929
26439W        W98765   7.624  32.836   1.220
26440W        W98766  37.114  33.826   4.098
26441W        W98767   6.280  17.508  11.634
26442W        W98768  17.014  42.482  14.544
26443W        W98769  13.290  37.896  10.973
26444W        W98770  35.223  36.978   9.989
26445W        W98771  42.105  44.018  13.770
26446W        W98772  10.572  30.905   0.761
26447W        W98773  11.675  21.252  11.222
26448W        W98774  32.941  33.539  10.335
26449W        W98775  44.697  19.915  12.660
26450W        W98776  35.012  38.027   4.553
26451W        W98777  34.748   6.103   3.602
26452W        W98778   9.382  34.356   2.761
26453W        W98779  34.583  40.579   3.147
26454W        W98780  18.264  11.345   1.973
26455W        W98781  16.117   4.397   3.514
26456W        W98782  32.913   7.812  12.956
26457W        W98783  29.696  10.971   2.836
26458W        W98784  12.811  35.472  12.968
26459W        W98785  14.464   2.703   4.731
26460W        W98786   0.845  31.144   3.640
26461W        W98787  15.552  36.400   0.575
26462W        W98788  23.879  42.788  11.505
26463W        W98789  35.363  30.111   2.467
26464W        W98790  40.860  11.286   0.671
26465W        W98791   2.347  12.125   3.616
26466W        W98792  39.287  25.732   2.728
26467W        W98793   4.880  38.801   3.754
26468W        W98794  22.963   2.965  12.921
26469W        W98795  32.870   9.797  11.926
26470W        W98796  38.337  15.688   2.944
26471W        W98797   4.983   1.651  10.229
26472W        W98798   8.271  13.099  11.980
26473W        W98799  23.638  34.678   4.715
26474W        W98800  35.776  25.202   2.365
26475W        W98801   3.967  24.107  12.951
26476W        W98802  32.809  30.094   3.272
26477W        W98803   1.400  20.130   1.453
26478W        W98804  25.907  39.954  11.069
26479W        W98805   7.813  17.754   2.647
26480W        W98806  30.688   2.013   0.805
26481W        W98807   3.399   1.528   2.728
26482W        W98808  36.384  36.560  14.968
26483W        W98809  40.825   3.982  14.736
26484W        W98810  29.070   7.421   4.603
26485W        W98811  10.080  39.248  13.911
26486W        W98812   4.733  21.764   1.947
26487W        W98813  33.854  13.641  13.375
26488W        W98814  24.139  40.976   0.512
26489W        W98815  13.707  34.091  11.403
26490W        W98816  43.003  17.233   1.923
26491W        W98817  12.040   6.926  14.003
26492W        W98818   0.237  17.526  11.209
26493W        W98819  31.223   3.157  11.982
26494W        W98820  30.703  33.387  14.519
26495W        W98821   5.830  30.487  11.351
26496W        W98822  11.378  25.517   3.813
26497W        W98823  12.097   4.779   2.739
26498W        W98824  34.411  44.216   0.005
26499W        W98825  19.570  29.053   4.673
26500W        W98826  39.488  39.976  12.901
26501W        W98827  17.312  26.718   1.266
26502W        W98828  21.391  32.101  11.735
26503W        W98829  41.950  43.301  14.448
26504W        W98830  24.654  44.223   3.162
26505W        W98831   9.952  28.002   0.707
26506W        W98832  18.036  44.854  12.056
26507W        W98833  14.775  27.927   1.192
26508W        W98834  15.482  36.885   0.062
26509W        W98835  36.796  43.066   0.761
26510W        W98836  37.928  16.611  10.777
26511W        W98837  36.049  25.322  11.631
26512W        W98838  17.705  26.354  10.944
26513W        W98839   4.789  37.258   5.099
26514W        W98840   9.466  22.546   0.001
26515W        W98841  37.317   1.363   4.449
26516W        W98842   6.349  38.859  12.407
26517W        W98843  12.888   3.919   1.799
26518W        W98844   1.334  38.264  14.994
26519W        W98845  29.442  25.272   2.226
26520W        W98846   4.050  24.466  13.758
26521W        W98847  41.866  22.201   4.559
26522W        W98848  23.562  30.739  11.541
26523W        W98849  13.736  22.699   0.389
26524W        W98850  11.720  11.083   3.078
26525W        W98851  10.118  38.348  11.039
26526W        W98852  20.348   1.337   4.295
26527W        W98853  44.172  21.857  14.992
26528W        W98854  18.811   4.456  10.690
26529W        W98855  43.987   2.970   2.868
26530W        W98856  36.391  19.806  14.820
26531W        W98857  25.917  40.488   4.596
26532W        W98858   8.666  34.133  12.806
26533W        W98859  28.850  39.303  14.872
26534W        W98860  10.642  15.124   1.221
26535W        W98861   9.292  10.154   4.572
26536W        W98862   3.214  38.507   4.236
26537W        W98863  29.343  27.094   0.254
26538W        W98864   1.035  28.427  14.896
26539W        W98865  22.780  16.250  14.983
26540W        W98866  20.610  18.584   3.744
26541W        W98867   6.263   6.768  12.536
26542W        W98868  22.564  10.660  11.554
26543W        W98869   1.862   6.429  14.575
26544W        W98870  34.988  24.110   2.890
26545W        W98871  17.866   1.685   3.691
26546W        W98872  21.600  24.236  11.626
26547W        W98873  31.479   7.286  10.613
26548W        W98874  34.888  11.247  14.196
26549W        W98875  14.025  28.599  12.845
26550W        W98876  37.858  43.395  12.618
26551W        W98877  37.115   6.729   1.300
26552W        W98878  39.434  42.059   0.568
26553W        W98879  37.946  37.411  10.501
26554W        W98880  25.571  13.217  13.359
26555W        W98881  11.422  29.749  14.897
26556W        W98882  30.006  37.039   2.644
26557W        W98883  32.132  24.790   3.801
26558W        W98884  32.566   0.468  13.874
26559W        W98885  29.931  24.095   0.274
26560W        W98886  32.010   3.174  12.384
26561W        W98887  14.549  12.168   2.839
26562W        W98888  17.139   7.588  11.938
26563W        W98889  33.972  15.809  14.937
26564W        W98890  27.733  18.109  13.276
26565W        W98891  25.245   9.442  11.418
26566W        W98892   5.118  35.907  12.400
26567W        W98893  24.488  15.766  11.383
26568W        W98894  21.012  27.396   0.949
26569W        W98895   4.768  23.841  11.081
26570W        W98896  14.829  41.405   3.663
26571W        W98897  39.817  10.715   1.224
26572W        W98898  22.643  22.933   4.340
26573W        W98899  35.218  17.799   4.138
26574W        W98900  42.446   4.816   2.599
26575W        W98901   4.052  19.600  14.933
26576W        W98902  30.900   3.358  10.093
26577W        W98903  39.521  34.120  11.626
26578W        W98904  11.869  26.590   1.017
26579W        W98905  17.848   9.266   4.833
26580W        W98906   9.243  36.743   2.827
26581W        W98907  20.622  11.896  13.622
26582W        W98908  40.360  22.104   0.262
26583W        W98909   7.357  18.961   3.764
26584W        W98910  31.874  32.920  12.985
26585W        W98911   2.920  25.541   3.956
26586W        W98912  10.378  39.050   1.211
26587W        W98913  32.008  25.465   2.959
26588W        W98914   7.098  25.448   4.060
26589W        W98915  39.259  37.903  11.027
26590W        W98916  31.612  29.386   2.740
26591W        W98917   6.722  34.029   2.864
26592W        W98918   5.919  19.668  13.861
26593W        W98919  15.675  32.171  10.835
26594W        W98920   3.465  11.221   2.299
26595W        W98921   5.806  21.510   4.657
26596W        W98922   5.440  11.743  14.819
26597W        W98923   7.190  39.888  12.830
26598W        W98924  23.042  32.477   2.835
26599W        W98925  41.324  37.906   0.709
26600W        W98926  32.768  41.442  11.155
26601W        W98927  37.893  39.019   4.324
26602W        W98928  29.978   4.727  11.197
26603W        W98929  15.668   1.408  13.863
26604W        W98930  22.695  24.118   0.392
26605W        W98931  16.350  25.997  14.151
26606W        W98932  35.542  29.167  10.532
26607W        W98933  35.589  37.480   1.959
26608W        W98934   3.770   2.258  12.962
26609W        W98935  23.235   3.186   2.611
26610W        W98936  38.935  41.309  12.590
26611W        W98937  25.150  22.132   3.780
26612W        W98938  41.511  22.662  11.198
26613W        W98939  20.878  39.906  13.291
26614W        W98940  29.496  23.408  14.960
26615W        W98941  18.132  17.726  11.192
26616W        W98942   8.709  33.578   2.154
26617W        W98943   9.713  13.284   4.875
26618W        W98944   9.324  11.960   2.858
26619W        W98945   5.599  16.639   0.059
26620W        W98946  29.221  19.447   4.922
26621W        W98947  23.425  13.485   3.167
26622W        W98948   2.223  23.701   2.700
26623W        W98949  25.372   8.022  12.074
26624W        W98950   3.049   5.819  10.185
26625W        W98951  24.603  35.583  11.377
26626W        W98952   5.419  19.992   4.297
26627W        W98953  21.465  30.560   3.911
26628W        W98954  42.558  11.320  11.441
26629W        W98955  41.535  27.816   4.849
26630W        W98956  20.616  25.508  13.157
26631W        W98957  22.258  38.017   2.463
26632W        W98958  27.992  16.841   3.508
26633W        W98959   2.000   2.134  11.590
26634W        W98960   0.344  11.251   0.885
26635W        W98961  42.385  34.573  13.350
26636W        W98962  41.453  38.045   3.678
26637W        W98963  15.556  42.503   2.353
26638W        W98964  33.281   9.786  12.751
26639W        W98965  34.863  11.999  11.893
26640W        W98966   0.849  29.039  13.630
26641W        W98967  15.130  14.633   2.693
26642W        W98968  20.691   2.731   0.281
26643W        W98969  10.644  23.104   4.106
26644W        W98970   0.069   6.886  11.230
26645W        W98971   9.187  39.009   0.708
26646W        W98972  23.721   5.085  11.381
26647W        W98973  38.379  19.890  13.742
26648W        W98974  41.633  44.303  13.554
26649W        W98975  28.099  30.463  11.200
26650W        W98976  16.147  40.048   0.250
26651W        W98977  37.118  24.610  13.092
26652W        W98978  11.353   0.218   1.760
26653W        W98979  38.472  11.227  14.374
26654W        W98980  21.198   1.104   0.281
26655W        W98981  17.959  35.948  11.673
26656W        W98982   7.651  25.693   2.874
26657W        W98983  35.948  24.670   3.665
26658W        W98984  27.193  16.704   1.305
26659W        W98985  19.402  11.311   3.711
26660W        W98986   5.830  40.720   4.453
26661W        W98987  18.038  16.307   4.532
26662W        W98988  29.149  31.493  11.527
26663W        W98989   6.244  12.335  10.768
26664W        W98990  10.879  30.879   4.696
26665W        W98991   2.672  36.327   3.613
26666W        W98992  35.301  13.252  14.813
26667W        W98993  38.814  19.152  12.193
26668W        W98994  38.372  25.423   4.618
26669W        W98995  39.770  39.979  12.470
26670W        W98996   0.260   1.556   4.036
26671W        W98997  31.980  24.246  12.915
26672W        W98998  17.702  14.200   3.608
26673W        W98999  36.609  34.052  10.110
26674W        W99000  21.490  10.588   2.344
26675W        W99001   0.505  15.044  14.251
26676W        W99002  38.039  14.257   3.610
26677W        W99003  17.172   2.918   3.177
26678W        W99004  17.715   6.238   1.645
26679W        W99005  33.897  43.065   3.727
26680W        W99006   2.765   4.482  10.626
26681W        W99007  31.564  30.633   1.503
26682W        W99008   2.292  27.425   1.787
26683W        W99009  22.285  18.567   3.820
26684W        W99010  41.423  27.593  14.731
26685W        W99011  39.989  14.022  13.600
26686W        W99012  36.309  39.930  14.522
26687W        W99013  34.459  29.185  10.447
26688W        W99014  43.934  39.369   3.142
26689W        W99015  27.756   1.382   0.242
26690W        W99016   9.434  29.920  11.577
26691W        W99017  33.015   2.232   4.729
26692W        W99018  27.218  26.680   4.101
26693W        W99019  36.958  14.533  13.392
26694W        W99020   2.977  11.370  12.131
26695W        W99021  42.273  34.045   4.161
26696W        W99022   3.667   1.048  12.467
26697W        W99023  25.533   7.147   0.695
26698W        W99024  29.221  40.935  13.336
26699W        W99025  32.903  34.415   2.707
26700W        W99026   7.573  20.501  13.003
26701W        W99027  44.907   4.788   2.193
26702W        W99028  34.191  29.386   4.180
26703W        W99029   6.297  27.091  10.721
26704W        W99030  10.793  28.606   4.222
26705W        W99031  27.614  41.935  14.232
26706W        W99032   2.597  10.642   0.302
26707W        W99033  33.775   0.942   1.318
26708W        W99034  36.992   8.147  13.968
26709W        W99035  17.101   2.427  13.329
26710W        W99036  36.407  42.738   3.468
26711W        W99037  36.623  37.480  11.051
26712W        W99038  39.276  28.065  13.869
26713W        W99039   2.750  42.263   4.609
26714W        W99040  37.406  40.272   1.745
26715W        W99041  17.000  30.605  11.241
26716W        W99042  25.265   4.443  14.973
26717W        W99043  27.723  43.074   4.541
26718W        W99044  20.995  42.450   5.255
26719W        W99045   7.718  22.620  13.003
26720W        W99046  35.136  12.398  12.503
26721W        W99047   2.935  35.851  14.917
26722W        W99048   7.305  23.683   1.443
26723W        W99049  28.971   6.962  13.615
26724W        W99050  13.124  42.008  14.367
26725W        W99051  17.433   2.963  14.491
26726W        W99052   6.400  37.212   3.225
26727W        W99053  33.347  30.076  14.498
26728W        W99054  15.642  16.547  11.151
26729W        W99055  31.279  37.050  11.935
26730W        W99056  24.194   4.346  12.324
26731W        W99057  13.674  41.827   1.437
26732W        W99058  11.151  20.496  11.571
26733W        W99059  36.093   9.606   0.279
26734W        W99060  16.133  39.890   3.193
26735W        W99061  27.240  22.360   1.231
26736W        W99062  34.663   1.540   0.358
26737W        W99063  43.499  38.804   0.154
26738W        W99064  25.451  38.067   0.274
26739W        W99065  11.819  14.850   0.327
26740W        W99066  37.954  35.575  14.668
26741W        W99067  27.732  12.718   2.884
26742W        W99068  39.961  32.881  14.277
26743W        W99069  21.546   7.803  12.492
26744W        W99070   1.849   1.521   2.300
26745W        W99071  31.801   3.626   4.247
26746W        W99072  44.958  41.049   4.154
26747W        W99073  34.841  10.120  11.536
26748W        W99074  35.573   3.747  11.199
26749W        W99075  44.450  15.224  10.036
26750W        W99076  16.053  33.584   4.589
26751W        W99077  27.312  21.710  11.442
26752W        W99078  42.270  13.154   1.953
26753W        W99079  41.321  14.262   3.098
26754W        W99080   3.424   1.796   1.896
26755W        W99081  11.740   8.769  14.491
26756W        W99082  36.955  13.390  10.112
26757W        W99083   4.391  40.456  13.982
26758W        W99084  41.918  15.551   0.249
26759W        W99085  35.492  19.057  12.580
26760W        W99086   0.345  19.793   1.474
26761W        W99087  34.542  22.817  10.466
26762W        W99088  21.451  36.577  11.167
26763W        W99089  14.075  32.125   3.188
26764W        W99090  29.084  22.542  11.471
26765W        W99091  13.111  27.543  11.617
26766W        W99092  38.750  22.492  10.714
26767W        W99093  12.153  31.018   1.270
26768W        W99094  32.632  28.970  12.501
26769W        W99095  15.180  26.470   0.363
26770W        W99096  29.889  29.476  14.318
26771W        W99097  10.811  15.898   3.213
26772W        W99098  44.187   8.788  14.826
26773W        W99099  29.511  44.954   4.378
26774W        W99100  40.296  38.585   3.285
26775W        W99101   1.066  20.718   3.300
26776W        W99102  33.144  26.620  11.148
26777W        W99103   8.159  27.934  11.160
26778W        W99104  43.061  17.718  11.236
26779W        W99105  23.846  30.634  13.069
26780W        W99106  26.836  38.423  11.030
26781W        W99107  28.724  17.290   1.774
26782W        W99108  37.507  25.938   0.548
26783W        W99109  40.822  34.650   0.438
26784W        W99110  11.645  32.211   1.267
26785W        W99111   3.811   0.986   4.402
26786W        W99112   2.061  20.468   1.265
26787W        W99113  44.780   0.599   0.291
26788W        W99114  13.090  38.399   2.725
26789W        W99115  12.117  37.514   4.610
26790W        W99116  32.082  35.405   2.853
26791W        W99117  29.669   3.657   2.250
26792W        W99118   1.848  23.082   2.135
26793W        W99119   1.744  40.035  11.533
26794W        W99120  13.715   0.026   2.287
26795W        W99121  14.064  38.197   0.307
26796W        W99122  41.218   4.799  10.555
26797W        W99123  14.320  26.208   4.587
26798W        W99124  37.217  41.328  11.764
26799W        W99125   5.192   9.492  14.890
26800W        W99126   5.322  37.766  13.370
26801W        W99127  23.193  43.095   5.064
26802W        W99128   2.437   5.349   0.132
26803W        W99129  26.560  34.520  11.172
26804W        W99130   4.740  11.035   5.494
26805W        W99131  23.440   8.916   3.060
26806W        W99132  23.616  29.863   0.251
26807W        W99133  20.184  40.461  12.869
26808W        W99134  10.127  19.264   2.748
26809W        W99135  44.145   1.987   2.372
26810W        W99136   4.691   9.432   4.979
26811W        W99137  24.151  35.502   4.489
26812W        W99138   4.367   4.386  12.237
26813W        W99139  12.730  30.883  12.776
26814W        W99140  13.131  12.621   1.931
26815W        W99141   1.759  10.740   2.788
26816W        W99142  35.403  26.997   2.922
26817W        W99143  25.214  41.955   3.344
26818W        W99144   3.898  31.049  12.926
26819W        W99145  41.040  20.785  13.737
26820W        W99146  22.046  20.082   0.719
26821W        W99147  36.683  25.212  11.981
26822W        W99148  28.288  24.153   3.229
26823W        W99149  32.862  25.598   0.290
26824W        W99150  40.557  19.566   4.117
26825W        W99151  16.846  19.003  13.807
26826W        W99152  30.018   6.650  11.589
26827W        W99153  44.692  26.525   3.164
26828W        W99154  13.852  15.406   0.737
26829W        W99155  10.124  22.024  13.349
26830W        W99156  12.917  34.048   5.421
26831W        W99157   7.357   7.302   0.697
26832W        W99158  17.705   4.871  11.408
26833W        W99159  33.429   7.712  14.418
26834W        W99160  27.965  39.562  13.295
26835W        W99161  35.936   8.916   4.505
26836W        W99162  31.110  33.459  11.057
26837W        W99163  29.432   4.854   1.994
26838W        W99164   2.742  42.994  14.038
26839W        W99165   5.362  21.300  13.363
26840W        W99166  38.066  21.083   0.984
26841W        W99167  22.059   7.397  12.891
26842W        W99168  30.145  34.391  12.049
26843W        W99169   3.300   6.168  11.572
26844W        W99170  21.223   7.708  14.546
26845W        W99171  40.742  25.565   2.624
26846W        W99172  38.983  11.797  10.981
26847W        W99173  35.438   8.913  14.907
26848W        W99174   8.776  15.192   4.627
26849W        W99175  37.721   2.303   4.139
26850W        W99176  21.055  11.362  14.274
26851W        W99177   0.231  19.043   2.831
26852W        W99178  24.716  16.568  13.281
26853W        W99179  24.505  14.276  12.549
26854W        W99180  15.053  40.997  11.403
26855W        W99181  22.548  32.706   3.651
26856W        W99182  43.790   2.473  14.251
26857W        W99183   4.951  40.591  11.404
26858W        W99184   7.681  42.380   4.729
26859W        W99185  16.665   8.793   2.930
26860W        W99186  42.472  27.749  13.916
26861W        W99187  36.904  14.174   3.227
26862W        W99188   1.706  30.201   4.209
26863W        W99189  16.192  12.999  13.010
26864W        W99190  27.999  13.744  11.465
26865W        W99191   2.757  25.132   1.327
26866W        W99192  41.299  30.545   0.437
26867W        W99193   1.856  27.722  13.373
26868W        W99194  13.049  40.498   3.265
26869W        W99195  36.972  34.000  11.085
26870W        W99196   2.832  19.457   3.418
26871W        W99197  40.847  43.337   2.386
26872W        W99198  10.764  16.242   0.005
26873W        W99199  38.033  30.275   0.447
26874W        W99200  28.160  21.719   0.214
26875W        W99201   3.222  30.725   2.156
26876W        W99202  40.586  34.552   2.337
26877W        W99203  42.367  13.201  13.581
26878W        W99204  30.474   5.002   0.227
26879W        W99205  18.676  38.869  12.486
26880W        W99206  37.480  34.219   1.903
26881W        W99207  21.720  24.012   3.332
26882W        W99208  39.460  34.541   0.500
26883W        W99209   4.304  30.717   0.757
26884W        W99210  23.249  33.179   4.026
26885W        W99211  29.439   2.782  12.871
26886W        W99212   0.976  32.627   3.396
26887W        W99213  42.304  12.638   2.130
26888W        W99214  44.719   7.261  11.160
26889W        W99215   6.337   4.246   4.270
26890W        W99216  38.400  38.446   1.632
26891W        W99217  31.913  40.908  10.323
26892W        W99218   8.927  17.848  14.429
26893W        W99219   5.988   8.806  13.833
26894W        W99220  12.692   1.714   1.436
26895W        W99221   4.381  34.376  14.873
26896W        W99222  26.926  12.684  10.546
26897W        W99223  26.991  38.725  12.184
26898W        W99224  10.528  24.484  10.636
26899W        W99225  43.291  18.833  13.305
26900W        W99226  24.007  15.690  14.597
26901W        W99227  13.117  34.412   9.649
26902W        W99228   6.961  41.095   0.252
26903W        W99229   3.440  40.380  10.977
26904W        W99230  36.466  35.445   2.491
26905W        W99231  19.108  41.070   4.300
26906W        W99232  18.893  33.909   2.946
26907W        W99233  26.002   1.244  14.488
26908W        W99234   5.360  20.444   3.204
26909W        W99235  40.035  17.338  13.392
26910W        W99236  35.883   6.689   4.337
26911W        W99237  43.117   8.320  11.027
26912W        W99238  42.535  18.188  12.097
26913W        W99239  32.310  10.390  14.432
26914W        W99240  35.689   3.299  12.535
26915W        W99241  19.144  28.262   0.458
26916W        W99242  24.569   9.398  11.193
26917W        W99243  20.378   6.319   0.809
26918W        W99244   6.202  17.307  14.798
26919W        W99245  38.895  22.295  12.057
26920W        W99246  27.100  11.682  14.527
26921W        W99247  15.123  33.951   2.336
26922W        W99248   7.942   7.772   0.062
26923W        W99249  13.291   5.622  14.541
26924W        W99250  44.933  11.352  11.951
26925W        W99251  39.347  21.412  13.474
26926W        W99252  34.082  15.129  13.722
26927W        W99253  40.033  33.407   1.865
26928W        W99254   0.823  12.384  13.118
26929W        W99255   6.853  39.580  11.701
26930W        W99256   3.162  16.763  13.015
26931W        W99257  40.017  44.706  11.593
26932W        W99258   2.246  16.290  14.947
26933W        W99259  33.478  35.649  13.512
26934W        W99260  15.727  33.051   2.275
26935W        W99261   5.954  19.698   3.310
26936W        W99262  34.593  23.330  10.437
26937W        W99263  15.663  21.961  12.559
26938W        W99264   4.038  37.399  13.087
26939W        W99265  36.913  34.361  12.509
26940W        W99266  10.242   6.760  12.282
26941W        W99267   2.722   9.482   3.822
26942W        W99268  36.620  30.995   3.699
26943W        W99269  10.897  32.926  10.684
26944W        W99270   1.230  13.614   0.383
26945W        W99271  32.489  26.174  13.242
26946W        W99272  14.043  15.006   2.228
26947W        W99273  26.196  18.584   5.090
26948W        W99274  25.621  16.131  12.211
26949W        W99275  23.779  44.610   3.332
26950W        W99276  18.708  29.621  12.889
26951W        W99277   4.274   0.563  11.214
26952W        W99278  35.768  16.583  11.869
26953W        W99279   9.192  26.454   2.149
26954W        W99280   7.373  28.691  13.093
26955W        W99281  36.364  15.813  11.485
26956W        W99282  44.734   6.758   3.021
26957W        W99283   2.363   1.280  10.225
26958W        W99284  34.064   6.406  11.522
26959W        W99285  33.835   1.083  13.456
26960W        W99286  13.737  24.552   4.978
26961W        W99287  28.374  17.228  11.174
26962W        W99288  40.365  29.303   4.130
26963W        W99289  18.562  42.377   1.354
26964W        W99290  20.694  17.568  12.115
26965W        W99291   9.271  44.384   4.539
26966W        W99292  23.022  40.076  12.960
26967W        W99293  36.500   5.678  12.424
26968W        W99294  44.446   0.811  11.688
26969W        W99295  28.376  28.323  14.935
26970W        W99296  29.143   8.763  12.434
26971W        W99297  39.493  25.527  13.298
26972W        W99298   6.196  37.504   0.879
26973W        W99299  25.245   9.737   2.214
26974W        W99300  39.885   9.329   4.677
26975W        W99301   3.236  20.204  14.966
26976W        W99302   1.944  20.953  14.435
26977W        W99303  38.001  30.812  12.501
26978W        W99304  32.904  18.542   3.658
26979W        W99305  43.266  26.487   0.407
26980W        W99306  16.220  40.083   3.669
26981W        W99307   8.652   8.335   1.001
26982W        W99308   1.166   0.236  14.521
26983W        W99309   7.792   3.148  14.449
26984W        W99310  14.452  37.052   3.834
26985W        W99311   4.807   3.599   4.974
26986W        W99312   6.341  35.687  13.949
26987W        W99313  10.818   3.519  14.478
26988W        W99314  19.723  21.060  12.094
26989W        W99315  12.817  10.683   4.611
26990W        W99316   5.685  42.769   2.791
26991W        W99317   6.845   9.800  13.639
26992W        W99318  26.532  11.223   0.796
26993W        W99319   9.170  25.456   2.284
26994W        W99320  41.411  28.188  12.642
26995W        W99321  33.120  22.515   0.494
26996W        W99322  29.096  20.938  12.898
26997W        W99323  29.130  28.945   2.292
26998W        W99324   5.666  38.127  11.446
26999W        W99325  16.236  23.460   0.692
27000W        W99326   9.451  32.539   1.387
27001W        W99327   0.430  20.983  12.451
27002W        W99328  24.493  30.526  11.474
27003W        W99329  42.874  22.402  12.468
27004W        W99330  14.794  32.416  12.451
27005W        W99331   1.436  17.317   2.767
27006W        W99332  33.357  35.113  10.301
27007W        W99333  17.524   9.114  10.764
27008W        W99334   2.524   4.461  12.947
27009W        W99335   4.387  16.679  13.825
27010W        W99336  16.168  39.001  10.884
27011W        W99337  36.863  12.243  13.204
27012W        W99338  12.405  29.603   4.219
27013W        W99339  15.541  11.161   2.191
27014W        W99340   2.688  11.362   4.969
27015W        W99341  32.424   8.737  14.439
27016W        W99342  33.841  32.127  13.738
27017W        W99343  10.628  20.264  14.500
27018W        W99344  39.883  39.877  14.449
27019W        W99345  23.008   4.835  14.704
27020W        W99346  11.368  12.749  14.472
27021W        W99347  37.457  29.550  12.576
27022W        W99348   1.306   5.892   3.221
27023W        W99349   9.164  40.796   2.622
27024W        W99350  21.525  23.622  11.096
27025W        W99351  20.527  19.325  14.019
27026W        W99352  22.938  15.640   1.943
27027W        W99353  25.335   9.193  13.516
27028W        W99354   4.154  23.645  14.956
27029W        W99355  27.591  19.303   4.148
27030W        W99356  33.204  32.153  12.939
27031W        W99357  18.021  23.175  12.144
27032W        W99358  23.509   6.769   0.006
27033W        W99359  10.381  37.913   2.713
27034W        W99360   5.764  18.244  13.505
27035W        W99361  25.641  26.883  11.116
27036W        W99362  40.846  20.837  12.893
27037W        W99363  20.213  26.062  13.972
27038W        W99364  16.811  13.767  13.913
27039W        W99365  24.127  37.094  11.089
27040W        W99366   5.810   0.614  11.318
27041W        W99367  25.012  22.105   2.688
27042W        W99368  39.967   0.970   3.723
27043W        W99369  27.583  38.422   4.755
27044W        W99370  13.709  34.163  13.588
27045W        W99371  41.611  18.113   4.072
27046W        W99372  11.625  39.505  11.001
27047W        W99373   7.246  11.390  11.983
27048W        W99374  23.328  13.558  14.466
27049W        W99375  25.440  19.190  11.723
27050W        W99376  28.755  34.816   4.752
27051W        W99377  27.272   0.336   0.530
27052W        W99378  39.479  32.889   4.243
27053W        W99379  33.156  42.013   1.508
27054W        W99380  12.442  44.973   0.642
27055W        W99381   0.026   1.194   0.958
27056W        W99382  21.476   6.870  13.632
27057W        W99383  12.850  26.602   1.829
27058W        W99384  11.611  26.731  10.205
27059W        W99385  13.280  20.162   2.605
27060W        W99386  39.047  17.944  13.962
27061W        W99387   8.820   9.650   0.792
27062W        W99388  43.784  26.747   4.112
27063W        W99389  25.276   3.842   2.225
27064W        W99390  22.122  26.275   5.468
27065W        W99391  12.451   4.146  13.470
27066W        W99392  20.043  32.982   2.818
27067W        W99393  30.003  41.016   2.211
27068W        W99394  30.223  15.141   3.193
27069W        W99395  28.544  32.195  11.413
27070W        W99396  31.380  23.073   0.963
27071W        W99397  20.562  24.987   2.160
27072W        W99398  24.145  44.719  13.153
27073W        W99399  32.677  18.479   4.741
27074W        W99400  17.032  26.698  11.654
27075W        W99401   4.268  35.241   4.561
27076W        W99402   1.533  17.783   0.668
27077W        W99403   1.965  20.449   5.091
27078W        W99404  13.906   6.983  11.966
27079W        W99405  26.536  43.525   4.232
27080W        W99406  31.492  13.196   1.420
27081W        W99407   2.420   7.816  14.027
27082W        W99408  28.645  12.299   4.256
27083W        W99409  27.238  39.887  14.033
27084W        W99410  43.063  27.203   4.223
27085W        W99411  11.100   2.148   3.708
27086W        W99412  42.440  24.661  12.905
27087W        W99413   1.851  38.970   0.293
27088W        W99414  42.259  24.183  11.141
27089W        W99415  13.328  41.039  10.597
27090W        W99416  13.755  31.411  11.975
27091W        W99417  26.904  41.962  11.908
27092W        W99418  27.087  27.172   4.593
27093W        W99419  28.894   3.668  12.564
27094W        W99420   2.399  42.772  12.548
27095W        W99421  38.048  36.373  10.625
27096W        W99422  23.583  44.686   4.226
27097W        W99423  33.973  13.055  10.585
27098W        W99424  37.912  23.681   1.860
27099W        W99425  22.902   1.492   0.749
27100W        W99426  28.451   0.380   3.629
27101W        W99427   2.309  17.644  10.900
27102W        W99428   1.314   5.667  10.649
27103W        W99429  41.471  19.555   4.774
27104W        W99430  38.039  14.673   0.381
27105W        W99431   1.277   1.171  11.744
27106W        W99432  20.723  18.641  12.581
27107W        W99433  24.904  16.042   2.685
27108W        W99434  19.390  39.838  11.885
27109W        W99435  41.066  11.397  11.406
27110W        W99436  17.478   9.432   2.652
27111W        W99437  23.679   6.745   2.316
27112W        W99438  19.687  38.905   0.443
27113W        W99439  41.433   9.608  14.598
27114W        W99440  27.224  26.548  13.017
27115W        W99441  10.708   0.889  14.087
27116W        W99442  11.790  40.830  12.994
27117W        W99443  30.893  15.231  12.307
27118W        W99444  29.168   7.383  14.417
27119W        W99445  39.041  42.067  10.617
27120W        W99446  39.059  35.326  11.708
27121W        W99447   3.911  13.705  13.527
27122W        W99448  42.384   0.500   1.237
27123W        W99449  22.032  12.378  12.120
27124W        W99450   7.300  31.572  12.810
27125W        W99451  33.764   6.912  14.012
27126W        W99452  44.377  44.530   0.586
27127W        W99453  19.476  13.796   1.019
27128W        W99454   2.322   1.374  13.979
27129W        W99455   2.240  42.862   4.597
27130W        W99456   1.100  34.985   4.592
27131W        W99457  33.597  15.383  11.602
27132W        W99458  27.018   9.221   2.210
27133W        W99459  35.053   4.487   2.380
27134W        W99460  29.070  34.527   2.388
27135W        W99461  28.575  35.100  14.779
27136W        W99462  27.007  28.631   5.073
27137W        W99463  40.280   0.878  14.993
27138W        W99464  42.120  36.619   1.415
27139W        W99465   5.924   7.537   5.118
27140W        W99466  44.332   7.845   0.220
27141W        W99467  20.611  33.463  12.357
27142W        W99468  14.562  34.907  14.363
27143W        W99469  13.370  37.483   0.483
27144W        W99470  31.359  32.777  13.529
27145W        W99471  17.695  22.517   3.120
27146W        W99472   9.347  35.840   0.305
27147W        W99473  40.155  23.394  14.283
27148W        W99474  31.361  42.908   1.956
27149W        W99475  31.527  16.567  12.145
27150W        W99476   4.094  20.114  12.012
27151W        W99477   7.308   2.256   3.190
27152W        W99478  18.098  12.918  11.725
27153W        W99479  22.055  37.651  13.367
27154W        W99480  42.352  20.941  14.764
27155W        W99481   5.605  20.525   3.776
27156W        W99482   3.753  25.516   1.178
27157W        W99483  41.846   0.828  12.558
27158W        W99484   1.941  13.131  14.515
27159W        W99485   6.934  18.193  11.666
27160W        W99486  18.734  21.182  12.041
27161W        W99487  11.622   5.980  12.623
27162W        W99488  35.448  37.362  13.068
27163W        W99489   7.416   1.196  12.964
27164W        W99490   7.730   3.737  10.817
27165W        W99491   2.717   8.277   4.874
27166W        W99492  40.316  40.324   3.793
27167W        W99493  11.759   0.429   2.685
27168W        W99494  27.590  44.948  12.442
27169W        W99495  23.911  40.014   3.905
27170W        W99496  20.053  17.731   4.545
27171W        W99497   4.476  30.984   3.291
27172W        W99498  26.400  41.389  12.320
27173W        W99499  31.657  19.091   3.251
27174W        W99500   1.732   3.432   0.323
27175W        W99501  12.202   6.429  13.910
27176W        W99502   9.134   2.016   0.350
27177W        W99503  27.157  36.131   3.736
27178W        W99504   2.377  21.534  10.893
27179W        W99505   6.938  21.725   1.796
27180W        W99506  33.363   6.810   4.428
27181W        W99507   2.849  10.257  12.572
27182W        W99508  29.899  31.693   3.673
27183W        W99509  37.395  31.375  12.170
27184W        W99510  19.204  31.384  13.294
27185W        W99511   7.357  10.572   0.824
27186W        W99512  36.344  13.570  13.467
27187W        W99513  16.095  26.437  11.107
27188W        W99514  17.085  27.181   2.682
27189W        W99515  30.210  43.565   3.240
27190W        W99516  15.677  15.245   4.381
27191W        W99517   4.365  37.053  10.664
27192W        W99518  43.832  44.916   1.358
27193W        W99519  31.150  29.135   3.257
27194W        W99520  26.201  43.305  11.994
27195W        W99521  10.382   5.243  13.241
27196W        W99522  10.390   0.069   4.513
27197W        W99523   9.873  35.445  10.828
27198W        W99524  25.591  12.653   4.238
27199W        W99525  35.829  43.987  14.396
27200W        W99526  27.974  38.755   1.218
27201W        W99527  35.543  20.266   1.000
27202W        W99528   6.780  24.294   1.911
27203W        W99529  24.633  17.764   9.712
27204W        W99530  24.067  11.049  11.471
27205W        W99531   8.555   0.256  10.623
27206W        W99532  20.549  19.596  11.364
27207W        W99533  27.066  17.719  14.730
27208W        W99534  23.567  40.986  14.310
27209W        W99535  33.058  41.569   1.834
27210W        W99536  39.567  37.824   0.372
27211W        W99537   6.150  21.816   2.128
27212W        W99538  37.555  31.444  14.389
27213W        W99539  33.227  43.913   0.657
27214W        W99540  33.466  22.260   2.257
27215W        W99541  18.635  12.964  10.612
27216W        W99542   4.331  33.103  14.344
27217W        W99543  16.074  26.607   1.422
27218W        W99544  32.525  36.642   4.326
27219W        W99545  37.983  24.947   0.273
27220W        W99546  25.230  34.020  13.976
27221W        W99547  34.947  36.064   0.190
27222W        W99548   4.912  14.484   0.775
27223W        W99549  17.674  15.583  14.627
27224W        W99550  10.794  22.290  12.516
27225W        W99551  24.671  43.412  14.424
27226W        W99552  40.947  31.759  13.428
27227W        W99553  30.132   7.046  14.951
27228W        W99554  30.778  20.522  11.155
27229W        W99555   0.204  21.587  10.646
27230W        W99556  25.166  21.607  11.490
27231W        W99557  33.716  32.553  10.606
27232W        W99558  42.276  24.043  12.897
27233W        W99559  31.969   4.149  14.316
27234W        W99560   2.183   5.278   3.677
27235W        W99561  32.766   8.422  13.604
27236W        W99562  22.057  21.724   0.926
27237W        W99563  24.642  35.540  14.947
27238W        W99564  44.541  20.355   1.190
27239W        W99565   5.306   8.495  13.141
27240W        W99566  37.148   6.866   4.591
27241W        W99567  20.211  14.382  13.014
27242W        W99568  23.122   1.710  14.424
27243W        W99569  31.958  44.072  11.534
27244W        W99570   7.367  20.444  14.838
27245W        W99571  31.801  40.384   4.827
27246W        W99572   7.427  37.703   1.584
27247W        W99573  34.013  18.287   3.209
27248W        W99574  29.538   1.426   2.163
27249W        W99575  16.880   6.398   2.860
27250W        W99576  32.450  13.122   3.753
27251W        W99577  27.173  22.968  14.323
27252W        W99578  14.572   8.360   3.779
27253W        W99579  23.210   1.365  13.564
27254W        W99580  42.293   9.893   2.248
27255W        W99581  43.370  17.813  11.964
27256W        W99582  13.298   1.348  14.605
27257W        W99583  18.695  27.163   3.251
27258W        W99584  10.915   9.170   2.327
27259W        W99585  16.728  43.428   3.205
27260W        W99586  17.659   3.931   0.879
27261W        W99587  23.013   4.360  11.542
27262W        W99588  23.875  40.029  14.432
27263W        W99589  13.251  30.467   1.827
27264W        W99590  42.292  18.543  14.068
27265W        W99591  33.245  23.306   4.073
27266W        W99592  26.301  40.793  12.968
27267W        W99593  13.184  12.038  12.212
27268W        W99594  32.325  13.590  11.972
27269W        W99595  31.962  17.240   2.403
27270W        W99596  40.888   7.725   0.306
27271W        W99597  23.598  37.269  14.724
27272W        W99598  36.736  15.076  12.676
27273W        W99599  35.410  20.217   3.852
27274W        W99600  40.504  34.961   1.954
27275W        W99601   2.554  41.978   2.265
27276W        W99602   1.287  19.111   1.766
27277W        W99603  25.938  24.188   1.768
27278W        W99604  23.817  17.782   4.375
27279W        W99605  18.838  33.196  12.117
27280W        W99606  32.137   9.739   1.198
27281W        W99607  26.687   2.672  13.455
27282W        W99608  29.484  13.083   1.290
27283W        W99609  20.537   8.356  11.064
27284W        W99610  25.002  34.609  14.171
27285W        W99611  43.763  10.387  12.118
27286W        W99612   5.770  19.704   4.024
27287W        W99613  38.310  30.101   4.620
27288W        W99614  21.486  24.723  11.577
27289W        W99615  39.756  16.834  10.649
27290W        W99616  38.551   6.458  11.983
27291W        W99617  27.275   2.793   2.340
27292W        W99618  36.842  15.497  12.970
27293W        W99619  42.509  21.613   3.937
27294W        W99620   5.463  41.061   3.230
27295W        W99621   9.914  42.805  12.666
27296W        W99622  21.246  14.789  11.102
27297W        W99623  18.427  26.543  14.480
27298W        W99624  44.762  35.417  10.491
27299W        W99625  35.678  24.218   3.840
27300W        W99626   6.437  13.636  12.381
27301W        W99627  38.871   7.041   4.897
27302W        W99628  33.500  43.545  12.919
27303W        W99629  35.229  17.071   1.879
27304W        W99630  38.056  29.567  13.447
27305W        W99631   7.346  17.227   1.161
27306W        W99632  26.582  12.301   2.355
27307W        W99633  29.451   9.644  13.586
27308W        W99634  23.005  13.689  11.489
27309W        W99635  32.477   1.500   1.028
27310W        W99636  40.785   0.912   4.226
27311W        W99637  43.771  20.327   1.956
27312W        W99638  10.205  11.792  11.808
27313W        W99639  24.455   7.109  10.833
27314W        W99640  14.632  34.304   2.351
27315W        W99641   7.049  20.054  14.856
27316W        W99642  10.108   1.952  13.077
27317W        W99643  28.883  36.025  14.404
27318W        W99644  33.663  13.792  13.817
27319W        W99645  37.435  28.881   2.705
27320W        W99646  23.320   7.374   1.642
27321W        W99647  41.379  13.596  14.458
27322W        W99648  42.956  11.426  11.150
27323W        W99649  13.376  14.082  13.709
27324W        W99650   6.677   7.655   1.764
27325W        W99651  36.053  43.523   1.341
27326W        W99652  27.674  44.896   4.726
27327W        W99653  33.556  41.353   1.828
27328W        W99654  44.006   5.272   3.123
27329W        W99655  10.079   4.799  11.316
27330W        W99656  30.396  16.343   2.871
27331W        W99657  18.685  33.417  11.675
27332W        W99658   2.676  33.510   3.758
27333W        W99659  18.080  41.435   2.813
27334W        W99660  28.388  33.144  11.642
27335W        W99661  15.727  41.816   2.847
27336W        W99662  29.739  21.155  10.736
27337W        W99663  14.858  30.396  10.729
27338W        W99664  33.463   7.336  14.024
27339W        W99665  34.984  42.354   1.070
27340W        W99666  22.986  20.708  14.810
27341W        W99667   7.817   1.393   1.986
27342W        W99668  24.008  31.648   9.939
27343W        W99669  16.087   9.750  12.155
27344W        W99670  43.091  12.774   1.801
27345W        W99671   3.761  22.344  13.477
27346W        W99672  38.134  26.448   4.176
27347W        W99673   0.829   5.873  12.595
27348W        W99674  31.706  27.633  12.993
27349W        W99675  31.781  29.481  12.843
27350W        W99676  10.352  25.085   3.244
27351W        W99677   7.624  14.077  11.555
27352W        W99678  24.373  42.269   2.408
27353W        W99679  18.198  27.107  13.372
27354W        W99680  30.957   7.613  11.461
27355W        W99681  15.440  17.736   0.273
27356W        W99682  30.542  15.714  12.409
27357W        W99683  21.307   7.956  11.211
27358W        W99684  37.706  44.051   3.844
27359W        W99685  40.002   3.135   4.758
27360W        W99686  22.562  30.523   2.623
27361W        W99687  33.322  19.713  14.087
27362W        W99688   0.429   1.374   0.652
27363W        W99689  17.629  39.421  14.527
27364W        W99690  22.780  39.331   3.300
27365W        W99691  19.353  12.064  13.424
27366W        W99692  32.918  14.878   1.847
27367W        W99693   5.458   3.297  13.950
27368W        W99694  31.346   1.699   2.766
27369W        W99695  32.851  36.415  12.986
27370W        W99696  32.931  10.798  12.949
27371W        W99697  33.561  12.079   0.909
27372W        W99698  20.484  34.099   1.038
27373W        W99699  43.147   7.871   4.080
27374W        W99700   5.659   5.326   1.318
27375W        W99701  30.359  26.013  10.316
27376W        W99702   5.621  16.135  11.934
27377W        W99703  33.633   4.350  14.142
27378W        W99704   6.980  25.132  14.418
27379W        W99705   3.798  26.243   4.244
27380W        W99706  14.284  25.546  11.217
27381W        W99707  11.005   0.511  10.573
27382W        W99708  44.471  25.587  13.625
27383W        W99709  23.928   0.282  11.151
27384W        W99710  26.107  35.423   0.965
27385W        W99711   7.690  12.275   3.114
27386W        W99712   9.220  25.772  10.880
27387W        W99713  21.679   2.773  12.632
27388W        W99714   6.363  10.432   2.777
27389W        W99715  33.612  38.320   0.710
27390W        W99716  42.680  41.397   3.330
27391W        W99717  20.453  33.694   1.757
27392W        W99718  24.994  40.652   4.129
27393W        W99719  40.306   7.189   0.772
27394W        W99720  28.411   1.371   4.260
27395W        W99721  33.179  13.322  11.101
27396W        W99722   6.003  37.108   2.731
27397W        W99723  43.914  12.363  11.867
27398W        W99724  12.247  43.584   1.499
27399W        W99725  35.957  11.874   9.994
27400W        W99726  26.415   0.097   0.757
27401W        W99727  15.054  15.711   5.021
27402W        W99728  41.041  34.371  14.902
27403W        W99729   8.823  41.000  12.027
27404W        W99730  44.881  15.703   1.028
27405W        W99731   9.089   7.342  12.309
27406W        W99732  23.014  26.968  11.526
27407W        W99733  30.904  19.629  11.919
27408W        W99734  11.420  24.543   2.705
27409W        W99735  14.752   4.180  13.359
27410W        W99736  31.093  37.583   3.345
27411W        W99737  44.817   9.649   3.664
27412W        W99738  36.266  15.601   2.041
27413W        W99739  26.796   0.932   4.595
27414W        W99740   7.367  43.501   1.668
27415W        W99741  27.978  32.340  13.490
27416W        W99742  38.009  11.124   0.425
27417W        W99743  37.349  14.299   4.116
27418W        W99744  39.286  36.540   2.728
27419W        W99745  33.421  12.623   1.624
27420W        W99746  31.016  29.170  13.371
27421W        W99747  44.362  39.588   3.356
27422W        W99748  16.971  28.227   1.420
27423W        W99749  42.513  43.256   4.465
27424W        W99750   7.332  11.821   3.895
27425W        W99751  25.352  42.930   4.171
27426W        W99752  38.948  44.283  14.477
27427W        W99753  11.850  36.833   3.726
27428W        W99754   1.216  39.955   3.382
27429W        W99755  31.489  24.520  11.726
27430W        W99756  19.048  29.012   3.578
27431W        W99757   4.262  34.611  13.406
27432W        W99758  21.669  12.082  11.275
27433W        W99759  20.801   6.689  11.500
27434W        W99760   4.233  23.553   3.684
27435W        W99761  23.855  19.177  11.951
27436W        W99762  29.078  21.585   0.252
27437W        W99763  28.894   7.816  14.443
27438W        W99764   1.445  34.318  10.779
27439W        W99765  39.357  43.112   4.593
27440W        W99766  31.447  21.644   0.898
27441W        W99767  26.879  35.158  14.167
27442W        W99768  19.215  21.956   2.855
27443W        W99769   1.691  33.859  11.389
27444W        W99770  23.563  17.408   9.580
27445W        W99771  23.966   4.399   3.526
27446W        W99772   5.688  18.078   1.893
27447W        W99773  24.684  36.359   4.197
27448W        W99774  24.773   0.798  11.606
27449W        W99775   0.007  22.646   4.198
27450W        W99776   1.272  13.066  10.679
27451W        W99777  40.221  23.270   1.851
27452W        W99778   1.523  42.345  11.042
27453W        W99779  24.131  23.091  10.469
27454W        W99780  38.686   9.937   1.871
27455W        W99781  15.542  25.556  13.000
27456W        W99782  18.413  11.289  12.791
27457W        W99783   5.999   7.723  10.731
27458W        W99784  22.651   0.355  11.231
27459W        W99785   1.556  37.114  14.321
27460W        W99786  13.317  42.105   1.723
27461W        W99787   0.112  13.091  13.549
27462W        W99788  15.739   0.167  11.504
27463W        W99789  24.675  11.803  14.268
27464W        W99790  24.929  29.283  13.905
27465W        W99791   0.368   4.293   1.631
27466W        W99792   4.985  28.533   4.104
27467W        W99793  41.972  23.678  14.877
27468W        W99794  38.590  34.859   1.865
27469W        W99795   1.685   4.758   0.978
27470W        W99796  10.260  16.111   0.989
27471W        W99797   2.834   0.461   0.838
27472W        W99798  20.970  43.663  14.270
27473W        W99799  24.316  34.863   0.315
27474W        W99800  17.161  11.753   3.677
27475W        W99801  26.262  15.264   4.539
27476W        W99802  14.784  20.168   3.175
27477W        W99803  28.384  12.808  12.967
27478W        W99804   6.109   8.782   1.300
27479W        W99805   2.324  44.858   1.944
27480W        W99806  17.576  17.640  12.914
27481W        W99807  41.768  41.962   2.057
27482W        W99808   5.103  17.078  14.469
27483W        W99809  18.174  39.015  12.097
27484W        W99810  24.273   5.302  14.364
27485W        W99811  30.990  17.318  12.090
27486W        W99812  28.672   9.691  13.916
27487W        W99813  16.841  16.307   1.321
27488W        W99814  32.709  25.756  12.498
27489W        W99815  36.599  14.237   1.900
27490W        W99816  26.011  31.086   4.693
27491W        W99817  38.424   9.629  12.633
27492W        W99818  40.909  32.577  11.995
27493W        W99819  36.958  31.126  12.217
27494W        W99820  23.449  32.020  12.097
27495W        W99821  41.670  39.002   3.257
27496W        W99822  32.076  44.956  12.881
27497W        W99823  40.434  27.978  11.652
27498W        W99824  41.236   2.963   3.988
27499W        W99825  35.511  20.750  11.883
27500W        W99826   7.688   2.586   4.731
27501W        W99827  16.791  26.978   3.067
27502W        W99828  23.965  36.468   4.957
27503W        W99829  13.429  20.249   3.087
27504W        W99830   2.365  23.300   4.284
27505W        W99831  41.366  26.244  11.174
27506W        W99832   1.640   9.588  11.161
27507W        W99833  28.352   9.466  10.719
27508W        W99834  18.637  26.514  11.970
27509W        W99835  11.243  10.814   1.863
27510W        W99836  27.469   2.964  12.121
27511W        W99837  38.838  29.019  13.941
27512W        W99838  21.089  10.074  13.325
27513W        W99839  11.967   1.725  14.939
27514W        W99840  41.449  25.925   0.865
27515W        W99841  38.756  39.628  11.276
27516W        W99842  14.279  39.011   4.314
27517W        W99843  29.447  39.073  14.405
27518W        W99844  33.742  20.523  12.549
27519W        W99845  12.086  41.421   3.239
27520W        W99846  18.130   3.476  12.144
27521W        W99847  13.003  38.604  10.331
27522W        W99848  15.261  36.587   4.386
27523W        W99849   5.083  43.196   3.223
27524W        W99850  23.262  18.307   2.203
27525W        W99851  28.181  40.968   0.117
27526W        W99852  27.232  11.059   1.738
27527W        W99853  28.983  29.183   1.871
27528W        W99854   4.510  10.390   4.985
27529W        W99855   2.460  32.983   2.369
27530W        W99856  43.728  21.531   2.798
27531W        W99857  22.697   9.240  14.453
27532W        W99858  35.072   2.025  11.109
27533W        W99859  22.781   4.099   0.359
27534W        W99860  17.614  40.261  11.047
27535W        W99861  33.229  10.115  11.762
27536W        W99862  25.064  31.161  11.145
27537W        W99863  36.635  18.112   2.371
27538W        W99864   2.676  37.202  11.507
27539W        W99865   5.423  27.468   2.431
27540W        W99866   9.284  11.645  13.887
27541W        W99867  30.528  37.047  12.988
27542W        W99868   2.971   8.608   3.634
27543W        W99869  19.780  31.383  13.154
27544W        W99870  38.286  34.638  10.735
27545W        W99871  16.187  32.034  12.651
27546W        W99872  15.196  10.432   0.760
27547W        W99873  39.720  29.880  14.742
27548W        W99874   9.118   9.599   1.902
27549W        W99875   7.589  27.515  13.609
27550W        W99876  20.668  25.113   1.672
27551W        W99877  25.269  38.939   2.377
27552W        W99878  23.077  17.319  14.269
27553W        W99879   6.946  33.116  12.009
27554W        W99880  35.922  28.049  13.501
27555W        W99881  35.005  17.589   4.569
27556W        W99882  18.957   7.636   2.190
27557W        W99883  13.360  13.819   1.376
27558W        W99884  36.522   2.328  13.743
27559W        W99885  26.148  29.194   1.209
27560W        W99886  31.554  30.478  12.161
27561W        W99887  15.880   5.730   4.612
27562W        W99888  20.763  22.991   3.801
27563W        W99889  27.625  35.870  13.130
27564W        W99890  10.378  23.613  14.860
27565W        W99891  17.029   6.657  14.859
27566W        W99892   6.630  17.830   0.977
27567W        W99893  35.501  17.216  11.178
27568W        W99894  32.925  25.700  10.596
27569W        W99895  22.300  32.550   2.162
27570W        W99896   2.924  41.150  10.697
27571W        W99897   7.851   2.020   4.581
27572W        W99898  17.216  36.536  13.540
27573W        W99899  27.536   1.471  14.346
27574W        W99900  18.861  40.038  13.459
27575W        W99901  37.385  19.409  14.553
27576W        W99902   2.945  28.983   3.219
27577W        W99903  15.123  14.573  12.137
27578W        W99904  25.778   7.662  12.016
27579W        W99905  10.301  30.846   3.311
27580W        W99906  15.406  42.945   5.033
27581W        W99907  23.918   3.762  14.302
27582W        W99908  15.186  32.453  13.360
27583W        W99909   3.405   8.855  12.909
27584W        W99910  23.158   9.586   0.726
27585W        W99911  41.031   6.202   1.254
27586W        W99912  34.075  24.518  13.608
27587W        W99913  13.220  27.353   3.780
27588W        W99914  37.667  24.973  12.076
27589W        W99915  35.533  40.662   1.793
27590W        W99916   3.043  35.892  13.972
27591W        W99917  19.528  29.588  14.888
27592W        W99918  16.591   8.924   1.824
27593W        W99919  37.289   8.829   4.247
27594W        W99920  16.244  35.767  12.918
27595W        W99921  20.027  12.186  10.480
27596W        W99922  16.746  42.524  13.025
27597W        W99923  27.124   0.906   3.261
27598W        W99924  11.618  29.287   2.347
27599W        W99925   8.658  10.431   2.351
27600W        W99926  31.456  30.745  12.603
27601W        W99927  13.671  20.945   3.777
27602W        W99928  23.244  32.444  12.953
27603W        W99929  40.175  27.439   3.298
27604W        W99930  14.111  12.335  12.649
27605W        W99931  37.168  21.588   1.043
27606W        W99932   3.719  12.236  11.584
27607W        W99933  23.254  21.661   2.961
27608W        W99934   3.996  34.950   2.287
27609W        W99935  21.436  11.727  12.386
27610W        W99936  15.684  34.542  12.746
27611W        W99937  16.754  20.458  11.327
27612W        W99938  40.729  25.863  13.784
27613W        W99939   2.683  40.592  13.848
27614W        W99940  31.032  24.670   0.735
27615W        W99941  11.326  24.213  11.942
27616W        W99942  27.137   0.752  12.552
27617W        W99943  12.805  27.427  13.710
27618W        W99944  19.487  16.590  13.883
27619W        W99945  34.021  40.275   3.971
27620W        W99946  28.144  23.304   2.816
27621W        W99947  44.410  32.059  14.017
27622W        W99948  37.516  26.228  12.877
27623W        W99949  33.555  38.580  13.912
27624W        W99950  31.311  23.610   0.933
27625W        W99951   0.425   8.429  13.443
27626W        W99952  13.525  41.775  14.627
27627W        W99953  27.157  12.665  11.459
27628W        W99954  43.709  33.752   5.022
27629W        W99955  40.869  42.882   2.634
27630W        W99956  23.487   7.789  14.562
27631W        W99957  14.103  15.231   1.362
27632W        W99958  10.264  25.184   4.661
27633W        W99959  39.955  24.417  14.364
27634W        W99960  34.057  11.230   4.078
27635W        W99961  19.284  25.134   3.461
27636W        W99962  17.379  31.975  11.101
27637W        W99963  41.170  11.424  12.335
27638W        W99964   0.895  33.348  14.638
27639W        W99965  24.511  16.644  10.653
27640W        W99966  34.007  41.474  13.346
27641W        W99967  26.687   7.132  11.973
27642W        W99968  39.098  26.679   2.367
27643W        W99969  27.550  42.627  11.134
27644W        W99970   1.841   5.436  10.510
27645W        W99971  12.291  12.093  10.589
27646W        W99972  19.493   5.961   2.026
27647W        W99973   8.691  11.187  10.924
27648W        W99974  16.741  13.189  11.239
27649W        W99975  12.815  30.326   3.825
27650W        W99976   0.493  32.961  13.555
27651W        W99977  30.018  38.505   4.689
27652W        W99978  34.533   1.732  11.281
27653W        W99979  35.950  30.612   2.738
27654W        W99980  25.520   0.470  14.153
27655W        W99981  41.459  11.677  14.057
27656W        W99982   6.106  15.187   4.334
27657W        W99983  18.731   3.036   4.080
27658W        W99984   7.747  26.987  13.874
27659W        W99985   3.658  23.198   4.928
27660W        W99986  42.764   9.473  11.067
27661W        W99987  35.838  33.887  10.553
27662W        W99988  22.159  25.474   2.697
27663W        W99989   9.828  44.433   4.362
27664W        W99990  35.118  36.554   0.360
27665W        W99991  37.330  18.250   0.896
27666W        W99992  29.376  21.308  11.799
27667W        W99993  19.687  32.445   3.926
27668W        W99994  19.665  44.989  14.826
27669W        W99995  27.676  10.667   0.624
27670W        W99996  29.593  25.526  14.830
27671W        W99997  28.084  32.142  14.290
27672W        W99998  10.447   7.120   0.697
27673W        W99999   3.899   2.379  14.362
27674W        W    0   1.728  37.491   4.181
27675W        W    1  36.083  44.770   0.151
27676W        W    2  28.977  40.138  12.007
27677W        W    3  20.586  18.137  11.896
27678W        W    4   9.292   3.027   0.365
27679W        W    5  30.703  22.051  14.045
27680W        W    6  41.358  43.918  13.341
27681W        W    7  15.130  39.458  12.289
27682W        W    8  24.074  36.920  12.020
27683W        W    9  16.500  34.054  12.510
27684W        W   10  41.438  25.826   1.839
27685W        W   11  43.840  16.025  10.758
27686W        W   12  27.934  43.794  13.346
27687W        W   13  36.873  41.827   4.320
27688W        W   14  12.651  16.663  10.655
27689W        W   15  44.013  28.375  14.064
27690W        W   16  20.510   8.196   0.432
27691W        W   17  30.699  36.394   4.163
27692W        W   18  22.196   1.973   0.962
27693W        W   19  15.112  17.520  12.595
27694W        W   20   3.781  20.473   1.709
27695W        W   21  29.088  43.345  10.597
27696W        W   22  13.057  44.515  11.023
27697W        W   23  24.210  29.510   1.861
27698W        W   24  27.249  43.885  11.566
27699W        W   25   8.448   9.256  10.343
27700W        W   26   4.396  27.688   2.346
27701W        W   27  12.322  44.049   4.021
27702W        W   28   1.340  36.920   4.573
27703W        W   29  24.493  15.704  10.866
27704W        W   30  31.340  40.206   3.253
27705W        W   31  17.287  44.806  12.837
27706W        W   32  32.134   8.627  14.914
27707W        W   33  42.998  22.554  14.807
27708W        W   34  30.429  42.010  11.596
27709W        W   35  41.238  42.348   3.612
27710W        W   36  22.992   9.285  12.104
27711W        W   37  18.344  14.838  14.891
27712W        W   38  40.359   4.723   1.720
27713W        W   39  28.520  12.729   2.263
27714W        W   40  44.157  20.990  11.530
27715W        W   41  26.144   3.473  12.458
27716W        W   42  43.400  43.593   0.733
27717W        W   43  26.116  15.263   2.552
27718W        W   44  24.540   8.818  11.502
27719W        W   45  36.086  30.251  13.929
27720W        W   46   4.226  20.890   0.362
27721W        W   47  23.965  25.107   5.221
27722W        W   48   7.480  17.596  13.473
27723W        W   49  10.183  24.542   0.516
27724W        W   50  44.802  30.272  13.408
27725W        W   51   4.573  22.206  10.630
27726W        W   52  37.934  17.349   4.424
27727W        W   53   0.467  43.944  14.811
27728W        W   54  13.228   5.714   0.402
27729W        W   55  28.537  35.843   1.980
27730W        W   56   2.568  10.938   0.967
27731W        W   57  36.884   4.021   2.361
27732W        W   58  41.116  13.630  11.532
27733W        W   59  15.294   1.332   0.991
27734W        W   60  20.990  10.308   4.622
27735W        W   61  35.097  11.734  14.223
27736W        W   62  21.717   5.100  13.120
27737W        W   63  32.873  20.815  12.614
27738W        W   64  23.432  12.239  11.258
27739W        W   65  14.346  15.268  13.609
27740W        W   66   9.690   4.437  13.907
27741W        W   67  13.214  36.915  14.300
27742W        W   68  39.830  35.987  13.755
27743W        W   69  17.787  35.771  10.736
27744W        W   70  24.474   1.808   2.101
27745W        W   71  43.448  43.055  12.913
27746W        W   72   2.943  36.167  11.553
27747W        W   73  33.917  41.026  12.454
27748W        W   74  16.262  42.838  11.514
27749W        W   75  15.199   0.046   1.745
27750W        W   76  35.017   0.973   0.726
27751W        W   77   3.088   5.807  13.280
27752W        W   78  14.630  40.060  12.171
27753W        W   79  25.040  12.288   2.831
27754W        W   80  13.654   1.602  11.632
27755W        W   81  14.375  32.615   2.194
27756W        W   82  24.531  19.828   4.043
27757W        W   83  38.461  41.629   2.172
27758W        W   84  40.043  26.319   0.210
27759W        W   85  23.859   1.935  12.825
27760W        W   86  30.311  22.439  13.928
27761W        W   87   6.508   4.954   0.256
27762W        W   88  26.680  24.526  10.911
27763W        W   89  33.401  36.921   0.509
27764W        W   90  32.510  21.667   4.560
27765W        W   91   8.171   0.511   4.389
27766W        W   92   1.765   6.627   1.828
27767W        W   93   4.221  32.526   3.028
27768W        W   94  35.632  23.931   2.540
27769W        W   95   4.335  35.661   4.240
27770W        W   96  41.518  30.932   1.234
27771W        W   97  19.952   8.847  11.464
27772W        W   98  21.685   9.948  12.238
27773W        W   99  20.055   8.019   0.648
27774W        W  100  38.387  16.696  13.976
27775W        W  101  17.072   8.042  12.748
27776W        W  102  34.939  14.971   0.987
27777W        W  103  26.334  20.973  13.471
27778W        W  104  19.618   6.747  12.347
27779W        W  105  39.023   7.929   4.137
27780W        W  106  23.775  39.972   2.645
27781W        W  107  11.841  29.138  12.076
27782W        W  108  16.677   1.246  13.040
27783W        W  109  35.600  37.334   1.472
27784W        W  110  27.073   0.831  14.788
27785W        W  111   2.389  41.300  13.527
27786W        W  112  33.121   5.257  12.420
27787W        W  113  11.776  24.793  12.555
27788W        W  114  13.062   5.614   4.084
27789W        W  115  31.213  17.751  13.014
27790W        W  116  23.025  22.328  11.643
27791W        W  117   8.516   3.421   2.511
27792W        W  118  24.221   4.441  10.476
27793W        W  119  28.016   1.823   0.159
27794W        W  120   1.726  39.960   0.527
27795W        W  121  30.373  20.157   0.310
27796W        W  122  22.452  31.866   3.242
27797W        W  123  34.818   7.742  14.781
27798W        W  124   0.287  13.905   2.273
27799W        W  125  37.198   3.229  11.017
27800W        W  126  10.875  20.697   3.677
27801W        W  127  32.327  30.318   4.697
27802W        W  128  34.928   2.886  13.704
27803W        W  129  26.898  34.349  11.937
27804W        W  130  27.511  24.969   3.691
27805W        W  131  25.029  28.470  10.665
27806W        W  132  42.298  18.090   3.224
27807W        W  133   2.766  35.117   1.805
27808W        W  134  19.077   0.513   2.007
27809W        W  135  12.829   3.766  14.230
27810W        W  136  31.981   8.461  14.049
27811W        W  137  30.866  29.658  13.278
27812W        W  138  29.685  10.289   3.133
27813W        W  139  30.941   6.628   2.789
27814W        W  140  27.741  36.996   2.945
27815W        W  141  38.962  41.561  11.663
27816W        W  142  35.367   1.981   2.380
27817W        W  143   8.202  42.763  12.905
27818W        W  144   8.198  11.074   0.917
27819W        W  145  38.968  22.763  11.108
27820W        W  146   0.806  28.109  13.451
27821W        W  147  15.187  30.003   1.000
27822W        W  148  27.998  33.138  11.962
27823W        W  149  24.514  29.630   4.419
27824W        W  150   3.213  17.010   0.723
27825W        W  151  10.995  24.560  12.147
27826W        W  152  19.093  29.995   2.650
27827W        W  153  32.003   7.976  11.624
27828W        W  154  39.659  28.391   3.300
27829W        W  155  41.216   6.227  13.422
27830W        W  156  24.192   3.444   2.727
27831W        W  157  20.695   2.701  12.379
27832W        W  158   8.669  36.716   4.324
27833W        W  159  24.631  38.820   5.085
27834W        W  160  18.215   5.633  14.057
27835W        W  161  41.346  19.707   1.463
27836W        W  162  20.966  27.569   3.804
27837W        W  163  39.915   3.179  14.489
27838W        W  164  35.334  29.369  10.979
27839W        W  165  42.878  41.362   0.869
27840W        W  166  27.930  20.862   4.258
27841W        W  167   8.233  29.577  14.747
27842W        W  168  44.794   2.514   0.522
27843W        W  169   3.175  28.875  13.039
27844W        W  170  42.583  33.619   5.194
27845W        W  171  36.983  38.813  10.732
27846W        W  172  44.954  10.310  14.973
27847W        W  173   7.067  41.001  12.573
27848W        W  174  43.676  13.138   2.236
27849W        W  175  26.552  33.924  13.034
27850W        W  176  38.352  20.489  13.474
27851W        W  177  30.702  14.092  10.512
27852W        W  178  20.583   2.985   0.789
27853W        W  179  22.079   2.309  11.432
27854W        W  180  13.908  40.503  14.973
27855W        W  181  23.222  30.564   0.773
27856W        W  182  35.933  21.692   3.328
27857W        W  183  14.307  31.091  10.685
27858W        W  184   1.508  18.510  11.089
27859W        W  185  22.469  40.400   4.413
27860W        W  186  27.966  27.981   1.817
27861W        W  187  26.114  17.496   3.861
27862W        W  188   6.002  34.036  13.429
27863W        W  189  14.375  34.468   4.219
27864W        W  190  28.827  15.343   1.382
27865W        W  191  10.695  36.547   1.033
27866W        W  192  44.661  41.350  11.178
27867W        W  193  34.909  43.284   4.261
27868W        W  194   3.205  44.535  11.060
27869W        W  195   9.083  21.684   4.185
27870W        W  196   9.812  27.942   2.304
27871W        W  197  36.543  23.192  10.640
27872W        W  198  35.402  42.929  12.514
27873W        W  199  42.743  30.388   4.593
27874W        W  200  24.739  41.865   3.151
27875W        W  201   3.532  35.171   4.613
27876W        W  202  21.925   9.658   0.410
27877W        W  203  40.574  40.914   1.255
27878W        W  204   4.144  35.830  12.967
27879W        W  205  12.474  31.194  10.593
27880W        W  206  25.401  37.391   3.814
27881W        W  207  38.392  23.181  12.006
27882W        W  208   1.979  26.566  14.485
27883W        W  209   8.479  32.352  11.209
27884W        W  210   7.498   1.966   2.794
27885W        W  211   0.131   4.177  12.920
27886W        W  212  13.588  24.339  11.307
27887W        W  213  27.261  16.298  14.039
27888W        W  214  33.857  30.063   2.159
27889W        W  215   0.860  23.857   4.654
27890W        W  216  16.137  18.340  13.513
27891W        W  217  19.236   8.674  13.913
27892W        W  218   4.917   0.351  13.316
27893W        W  219   5.617  15.616   1.788
27894W        W  220  21.429  41.157  12.028
27895W        W  221   1.768  27.248   1.749
27896W        W  222  10.962   4.766  11.908
27897W        W  223  16.634  12.542  14.123
27898W        W  224   1.732  21.781   0.276
27899W        W  225  27.270  36.190  14.822
27900W        W  226  29.103  16.628   2.356
27901W        W  227  20.717  27.461  14.687
27902W        W  228  30.455  15.504   4.167
27903W        W  229  44.416  24.090  11.579
27904W        W  230   5.740   7.227  13.423
27905W        W  231  12.082  44.436  10.586
27906W        W  232  38.367   4.773  11.450
27907W        W  233  16.596  36.370   2.241
27908W        W  234  23.372   2.043  12.926
27909W        W  235   6.808   5.344   3.261
27910W        W  236   2.509  22.179   1.418
27911W        W  237  40.675   4.883  14.048
27912W        W  238  44.983   9.799  13.472
27913W        W  239  40.021  33.662  13.631
27914W        W  240   5.968  27.034   3.135
27915W        W  241   0.976  31.615  13.164
27916W        W  242  11.717   4.261  10.552
27917W        W  243   3.831  28.928   2.331
27918W        W  244  44.892  23.166   4.131
27919W        W  245  23.236  23.123  13.890
27920W        W  246  16.840   8.362  10.988
27921W        W  247   4.754  29.613   0.604
27922W        W  248  11.802  36.991   3.243
27923W        W  249   5.146  29.617   4.080
27924W        W  250  10.310  22.465  11.426
27925W        W  251   6.772  19.313   0.153
27926W        W  252  14.308   4.407  13.547
27927W        W  253   5.377  30.104  13.352
27928W        W  254  33.546  42.759  13.429
27929W        W  255   9.787  34.920   1.621
27930W        W  256  21.170  29.067  14.390
27931W        W  257   7.291  13.891  12.010
27932W        W  258  36.626  22.593  13.855
27933W        W  259  29.345  21.798  12.988
27934W        W  260  43.865  43.477  10.626
27935W        W  261  18.248  43.794   2.285
27936W        W  262   7.388  42.932   2.927
27937W        W  263  21.004  23.588  12.011
27938W        W  264   4.916  38.634   4.751
27939W        W  265  28.669  43.262  13.983
27940W        W  266   3.385  43.980   4.653
27941W        W  267  20.961  28.434   4.375
27942W        W  268  23.784  25.804  11.058
27943W        W  269  36.975   5.795   0.839
27944W        W  270   0.803  43.665  10.344
27945W        W  271  23.155  27.185   0.880
27946W        W  272  11.972  22.654   1.385
27947W        W  273   7.466  29.174  13.308
27948W        W  274  30.905  13.370  13.290
27949W        W  275  11.268   3.253  14.551
27950W        W  276   4.914   5.308  14.191
27951W        W  277  38.405  26.552   2.279
27952W        W  278   3.966  15.789  12.362
27953W        W  279  25.512  33.240   2.349
27954W        W  280  19.699  12.359   0.325
27955W        W  281  24.249  35.405   1.840
27956W        W  282  11.187  35.387  13.462
27957W        W  283  35.520  24.458   2.469
27958W        W  284  19.559  44.461  14.818
27959W        W  285  15.797  17.385  13.069
27960W        W  286   3.699  35.017   1.234
27961W        W  287  34.645  32.095  10.048
27962W        W  288   7.333  15.141   4.543
27963W        W  289  25.488   9.453   3.691
27964W        W  290  34.421  22.429  14.951
27965W        W  291  17.270  43.403  13.512
27966W        W  292  14.324  37.344  11.681
27967W        W  293  24.628   4.433   0.209
27968W        W  294   2.756  26.056  12.992
27969W        W  295  29.691  17.663  12.289
27970W        W  296  29.117  35.055  14.977
27971W        W  297  27.220  32.578  11.060
27972W        W  298  16.278  10.680   2.387
27973W        W  299  10.987  26.444  11.990
27974W        W  300  21.129  37.482   1.929
27975W        W  301  39.497  33.122  11.949
27976W        W  302  34.970  13.314  10.676
27977W        W  303  31.066  18.765  12.950
27978W        W  304  31.348  14.472  11.616
27979W        W  305  22.614  39.781   3.520
27980W        W  306  25.806  22.235  14.426
27981W        W  307  43.167  20.661  12.856
27982W        W  308   4.176   8.351  13.007
27983W        W  309  11.573  10.403   2.004
27984W        W  310  31.552  28.723  14.286
27985W        W  311  39.949  30.187   1.232
27986W        W  312  16.581  11.355  13.300
27987W        W  313  36.567   2.967   1.857
27988W        W  314  34.092  35.473   1.261
27989W        W  315  26.460  28.085   3.125
27990W        W  316   1.978  33.133   4.436
27991W        W  317   3.184  13.230   2.396
27992W        W  318  37.874  24.955   1.964
27993W        W  319  28.638  43.359  11.827
27994W        W  320  28.696  30.943  11.870
27995W        W  321  15.737  43.325   0.756
27996W        W  322  23.517  16.957  10.278
27997W        W  323   7.902  41.504   4.062
27998W        W  324  12.867   6.508   2.821
27999W        W  325  42.448  20.168  14.099
28000W        W  326  42.970   6.144  11.163
28001W        W  327  30.924  14.322  12.905
28002W        W  328  22.493  12.306   1.326
28003W        W  329  44.719   6.246  13.384
28004W        W  330  16.730  41.013  13.434
28005W        W  331   2.652  14.722   3.069
28006W        W  332  43.713   6.443  12.018
28007W        W  333  11.090  35.075   3.884
28008W        W  334  19.468   2.876   2.698
28009W        W  335  17.725   5.395  14.055
28010W        W  336  28.534   3.831   4.181
28011W        W  337  15.253  27.675  10.958
28012W        W  338  33.408   0.440  14.281
28013W        W  339   1.813  15.256   0.855
28014W        W  340   6.873  32.546  14.252
28015W        W  341  14.589   4.790  12.510
28016W        W  342  26.944  34.404  13.597
28017W        W  343  13.105  19.656  11.609
28018W        W  344  37.881  40.108   4.571
28019W        W  345  25.683  34.554   4.587
28020W        W  346  13.755  27.777   0.018
28021W        W  347  36.526  18.186   3.275
28022W        W  348  31.951  18.764   5.085
28023W        W  349  42.389   4.691   3.123
28024W        W  350  21.294  14.962   2.018
28025W        W  351  10.299  37.830   1.253
28026W        W  352  40.620   0.361   1.322
28027W        W  353  18.948   9.281  12.120
28028W        W  354  30.066  15.317   4.487
28029W        W  355  19.770  11.838  14.684
28030W        W  356  31.129  11.416  11.537
28031W        W  357  18.690  10.694   2.314
28032W        W  358   5.936  17.872  11.696
28033W        W  359  20.082   4.895  13.385
28034W        W  360  15.984  38.313  12.040
28035W        W  361   3.722  38.634   0.089
28036W        W  362  29.130  12.984  11.258
28037W        W  363  41.868  44.698   1.284
28038W        W  364  30.032  23.507  13.147
28039W        W  365  38.316   3.507  12.449
28040W        W  366  30.135  16.118   0.535
28041W        W  367   3.253   6.771  14.501
28042W        W  368   4.888  12.837   1.681
28043W        W  369  13.707   1.409   4.655
28044W        W  370  43.746  17.636   4.663
28045W        W  371  27.896  37.969   3.129
28046W        W  372  14.736  24.496   1.694
28047W        W  373   1.947  17.217  10.320
28048W        W  374  23.986  20.576  11.192
28049W        W  375  39.540  13.075   1.598
28050W        W  376   8.651  15.539  12.349
28051W        W  377   7.621  16.178   0.042
28052W        W  378  32.448  15.362   4.212
28053W        W  379  40.168  22.822  14.532
28054W        W  380  26.850  10.615   3.087
28055W        W  381  13.154  36.352  11.596
28056W        W  382   3.179   0.336   4.918
28057W        W  383   2.348  12.250   3.098
28058W        W  384   7.359  38.060  12.208
28059W        W  385  41.830  34.043   0.777
28060W        W  386  12.068  32.102   5.093
28061W        W  387  21.148   1.452   4.658
28062W        W  388  16.163   4.281  11.511
28063W        W  389  25.600  20.112   2.822
28064W        W  390  21.549  13.624  13.905
28065W        W  391  25.553  42.088   3.712
28066W        W  392  21.481  38.622   4.089
28067W        W  393  37.857  43.738  14.898
28068W        W  394  29.944  43.665  14.852
28069W        W  395  26.135  36.852   4.592
28070W        W  396   2.771  10.227  13.094
28071W        W  397  27.912  27.493   4.362
28072W        W  398  33.192  24.128  11.524
28073W        W  399   6.383  34.648  13.913
28074W        W  400  20.460  24.498  12.067
28075W        W  401  32.439  11.217  11.719
28076W        W  402  30.804  11.231  14.342
28077W        W  403  16.759  21.746   4.623
28078W        W  404   7.186  28.479   3.372
28079W        W  405  11.142  31.688   4.716
28080W        W  406  37.477  40.805   0.849
28081W        W  407  30.267  18.801  14.407
28082W        W  408  35.962  44.359  14.751
28083W        W  409   4.103  42.024   3.178
28084W        W  410   7.363   5.401   4.631
28085W        W  411  32.007  22.043  10.644
28086W        W  412  38.470  26.803   4.299
28087W        W  413   7.823  36.963   3.106
28088W        W  414  21.539  43.705  14.406
28089W        W  415  38.595  21.726  12.881
28090W        W  416  25.078  33.937  10.725
28091W        W  417   0.476  22.188  11.899
28092W        W  418  31.974   1.486  11.518
28093W        W  419   0.043   7.329  12.496
28094W        W  420  21.068  42.052   1.173
28095W        W  421  23.609  38.340  11.013
28096W        W  422  13.310   1.718  12.256
28097W        W  423  12.125   3.399  13.701
28098W        W  424  25.485   8.008   3.694
28099W        W  425  36.854  10.744   3.840
28100W        W  426  25.694  16.724  14.791
28101W        W  427  27.563  15.387   0.195
28102W        W  428   6.456  29.057   4.614
28103W        W  429  27.045  43.818   2.704
28104W        W  430  13.927  12.781   2.337
28105W        W  431  31.939  32.138  11.991
28106W        W  432   3.784  30.147   3.143
28107W        W  433  26.985  36.499   2.930
28108W        W  434  22.622   4.364  11.171
28109W        W  435  28.361   7.450  10.684
28110W        W  436  30.531   9.562   4.136
28111W        W  437  44.392  11.833  12.363
28112W        W  438  17.092   8.579   2.701
28113W        W  439  21.051  29.915   2.677
28114W        W  440   5.034  38.844   1.602
28115W        W  441  44.334  39.028   3.225
28116W        W  442  18.886  34.444  11.489
28117W        W  443  11.192  27.923   3.170
28118W        W  444  26.675  31.477  12.973
28119W        W  445  34.438  22.746  11.421
28120W        W  446  17.761   8.679  12.382
28121W        W  447   8.118  37.153  11.101
28122W        W  448   9.775  24.715  11.126
28123W        W  449   7.372  11.856  11.145
28124W        W  450   3.167  12.481   1.777
28125W        W  451  22.994   9.964   3.821
28126W        W  452  40.336  38.288  14.816
28127W        W  453  24.891  26.537   0.278
28128W        W  454  13.258   9.609  13.982
28129W        W  455   2.288   5.266   4.600
28130W        W  456  39.656  35.978  12.868
28131W        W  457  29.509  28.982   1.882
28132W        W  458  30.157  42.508   3.211
28133W        W  459  13.143  24.712   3.106
28134W        W  460  42.051  24.430  12.592
28135W        W  461  32.267  20.939  14.685
28136W        W  462  10.791  15.537  13.596
28137W        W  463  36.318   5.234   4.590
28138W        W  464   8.937  35.817  14.222
28139W        W  465  31.603  20.412  14.363
28140W        W  466  26.430  37.122   1.261
28141W        W  467   0.511  16.182  12.602
28142W        W  468  43.956  39.551  14.358
28143W        W  469  34.803  40.427  11.165
28144W        W  470   6.359  31.255  11.532
28145W        W  471  42.993   5.877  10.714
28146W        W  472  38.148   6.338  13.321
28147W        W  473  44.088   8.087   1.819
28148W        W  474  23.705  17.502  13.078
28149W        W  475   2.157  11.629   3.632
28150W        W  476   7.912  42.029   4.107
28151W        W  477  39.535  24.721   4.490
28152W        W  478  23.390  41.268  11.585
28153W        W  479  13.103   2.518  13.848
28154W        W  480  21.335  24.614   1.737
28155W        W  481  29.397   5.648  14.837
28156W        W  482  43.934   8.393   4.854
28157W        W  483  10.030   7.304  13.293
28158W        W  484  12.871  10.649  13.480
28159W        W  485  37.365  35.063   3.557
28160W        W  486  39.582  21.543  10.897
28161W        W  487  36.915  13.768   5.497
28162W        W  488  26.606   4.628  11.879
28163W        W  489  21.166  37.424   2.866
28164W        W  490   9.125  35.172  11.170
28165W        W  491  26.957  20.792  10.675
28166W        W  492  12.101   5.761  12.591
28167W        W  493  21.754  31.093   0.496
28168W        W  494  29.559   3.529  10.384
28169W        W  495  20.577  32.174  14.739
28170W        W  496  10.649  27.564   0.996
28171W        W  497  13.312   0.692  11.592
28172W        W  498  37.108  38.376   4.646
28173W        W  499  12.137  22.807  10.494
28174W        W  500  39.452  22.553   3.788
28175W        W  501  22.019  43.678  14.757
28176W        W  502  11.239  28.913   2.248
28177W        W  503  13.174  26.729  13.539
28178W        W  504  41.469  14.611  13.615
28179W        W  505  41.869  24.896   0.282
28180W        W  506  19.556  24.709   3.693
28181W        W  507   2.468  42.349  14.910
28182W        W  508   5.296  11.563  12.860
28183W        W  509  38.263  33.529   0.755
28184W        W  510  20.721  18.800   2.713
28185W        W  511  39.616  34.038   3.992
28186W        W  512  15.348  27.523  12.886
28187W        W  513   7.159  16.130  11.630
28188W        W  514   1.529  30.648   1.007
28189W        W  515  32.735  22.634  12.979
28190W        W  516  26.459   3.904  11.503
28191W        W  517   5.872  37.389  10.459
28192W        W  518  32.061   0.234  12.420
28193W        W  519  44.391   2.215   4.160
28194W        W  520  32.225  22.658  12.923
28195W        W  521  20.220  30.507   1.710
28196W        W  522   4.021  42.296  11.974
28197W        W  523  28.765  18.765  11.658
28198W        W  524  18.100  22.583  13.434
28199W        W  525  37.550  27.196   2.345
28200W        W  526  41.317   3.934  12.276
28201W        W  527   3.147  15.679  11.144
28202W        W  528  24.937  34.234  14.562
28203W        W  529   8.674  11.300   2.677
28204W        W  530  35.582  42.030   0.363
28205W        W  531  12.643  15.095   0.346
28206W        W  532  32.316   0.475   3.095
28207W        W  533  32.158  17.280  13.743
28208W        W  534   8.096  44.449   0.846
28209W        W  535  19.018  39.343  11.246
28210W        W  536  28.663  26.219   0.879
28211W        W  537  18.130  26.471  14.042
28212W        W  538   0.038  21.228  14.209
28213W        W  539  12.809  42.851   3.174
28214W        W  540  27.942  36.162   4.578
28215W        W  541  35.104  44.819   2.210
28216W        W  542   6.097   7.800  12.015
28217W        W  543  29.121  18.547  11.981
28218W        W  544  27.956   6.047   2.113
28219W        W  545   4.033  15.099  12.895
28220W        W  546   1.288  12.257  10.124
28221W        W  547  33.722  30.592   3.704
28222W        W  548  28.986   0.816   1.618
28223W        W  549  21.698   5.293  11.268
28224W        W  550   9.579  29.436   0.238
28225W        W  551   8.855  33.582   3.548
28226W        W  552  21.588  22.671   0.943
28227W        W  553  15.534   3.933   0.791
28228W        W  554   3.214  32.904  13.885
28229W        W  555  12.764   0.298   1.439
28230W        W  556  18.541   9.964  13.949
28231W        W  557  27.912   7.122  11.662
28232W        W  558  40.442  44.554   3.230
28233W        W  559  11.875  26.071   0.367
28234W        W  560  19.861  24.391   1.803
28235W        W  561  43.515  31.381  14.734
28236W        W  562  28.992  11.248   4.875
28237W        W  563   4.852   0.860   2.787
28238W        W  564  25.584  15.828   4.025
28239W        W  565   2.005  13.322  14.007
28240W        W  566  29.707  33.991   3.244
28241W        W  567  29.859   0.349  14.784
28242W        W  568  16.347  15.728  13.409
28243W        W  569  29.595  35.863  14.093
28244W        W  570   1.161  27.228  11.592
28245W        W  571  37.758  23.236  14.634
28246W        W  572  39.933   5.438   2.765
28247W        W  573   0.600  39.148   9.900
28248W        W  574  41.534  31.256  14.521
28249W        W  575  44.269  23.525   3.650
28250W        W  576  44.243   3.912   0.349
28251W        W  577  33.428  14.298  12.953
28252W        W  578   7.082   0.252  11.751
28253W        W  579   1.209  17.810  12.940
28254W        W  580  17.520  16.811  13.986
28255W        W  581  14.442  14.245   3.741
28256W        W  582  11.334  38.411  12.429
28257W        W  583  22.015  20.090  13.259
28258W        W  584   7.869  13.723  14.873
28259W        W  585  35.672   2.378   2.129
28260W        W  586  19.752  17.971  11.116
28261W        W  587  18.511  32.239  12.103
28262W        W  588  17.633  38.262   3.748
28263W        W  589  18.032  22.468  14.855
28264W        W  590  43.422  10.687   1.877
28265W        W  591  24.268   7.515   0.983
28266W        W  592  19.550  17.351   1.915
28267W        W  593  16.981  34.081   3.046
28268W        W  594  38.834  29.679  13.868
28269W        W  595  36.585   7.165   2.855
28270W        W  596  28.168   0.364  11.742
28271W        W  597  41.385  15.536  10.898
28272W        W  598  16.444   0.775  13.061
28273W        W  599  31.728  22.514  12.993
28274W        W  600  41.652  24.971   5.037
28275W        W  601  10.638   3.302  14.035
28276W        W  602  41.000  44.930   0.230
28277W        W  603   2.385  42.283   3.227
28278W        W  604  35.866   7.731   2.282
28279W        W  605   4.345  17.649   4.404
28280W        W  606  44.382  39.879   1.125
28281W        W  607  14.833  17.282   1.456
28282W        W  608  36.970   0.246  10.289
28283W        W  609   7.668  41.155   5.050
28284W        W  610  39.023  28.094  13.407
28285W        W  611  19.955  13.609   0.412
28286W        W  612  42.953  42.846  13.861
28287W        W  613  13.346  16.384   2.831
28288W        W  614   7.208  31.791  11.799
28289W        W  615  25.469  41.385  13.488
28290W        W  616  40.530  32.587   2.260
28291W        W  617  35.736  30.668  13.845
28292W        W  618  42.275  21.246  12.002
28293W        W  619  22.217  27.030   3.883
28294W        W  620  15.947  16.681   3.510
28295W        W  621   2.533  42.818   3.789
28296W        W  622  11.460  22.662   1.338
28297W        W  623   8.853   9.301  13.636
28298W        W  624  43.569  11.352  14.443
28299W        W  625  43.385  31.837  13.000
28300W        W  626  13.106  29.533   3.688
28301W        W  627  14.695  18.086  10.451
28302W        W  628   2.965   0.021   0.236
28303W        W  629  17.552  39.963  11.476
28304W        W  630  38.296  18.549   3.190
28305W        W  631   5.191   2.444  11.345
28306W        W  632  31.087  34.943   0.735
28307W        W  633   7.237  33.196   1.267
28308W        W  634  20.635   0.888   3.291
28309W        W  635  26.407  28.627  12.013
28310W        W  636  43.776  39.555   0.686
28311W        W  637  36.468   5.596   1.914
28312W        W  638  13.444  29.156   3.718
28313W        W  639  13.222  44.855  13.989
28314W        W  640   3.268  18.243   2.366
28315W        W  641  33.532  25.077  12.049
28316W        W  642   9.638   8.517   3.831
28317W        W  643   6.779  41.765  12.127
28318W        W  644  16.602   9.370   2.101
28319W        W  645  40.725   1.311   4.575
28320W        W  646   5.408  43.957  13.943
28321W        W  647  43.215  20.613   2.650
28322W        W  648  27.881  10.707  14.476
28323W        W  649   9.202  43.750   1.937
28324W        W  650   8.681   6.543   5.045
28325W        W  651  40.992   1.400  14.598
28326W        W  652  30.479   2.109  14.900
28327W        W  653  26.655  11.318  14.397
28328W        W  654  24.898   0.315  11.131
28329W        W  655   9.005  29.466   3.106
28330W        W  656   6.901  15.318   3.241
28331W        W  657  34.157  36.339   1.233
28332W        W  658  28.620  32.772  14.044
28333W        W  659   3.403  40.606   4.061
28334W        W  660  10.822  33.880   0.277
28335W        W  661  14.488  24.479  13.848
28336W        W  662  37.731   0.309  12.115
28337W        W  663   0.299   3.316   5.740
28338W        W  664  31.908  26.746  11.754
28339W        W  665  36.257   8.646  13.721
28340W        W  666   1.270  15.626   0.285
28341W        W  667  32.157  31.212   4.536
28342W        W  668  13.754   7.215  14.892
28343W        W  669   2.526  26.579   1.881
28344W        W  670  11.231  29.165   2.692
28345W        W  671  17.502  44.191  11.948
28346W        W  672  26.499   6.283  13.419
28347W        W  673   8.797   7.663  10.648
28348W        W  674  24.775  44.769  14.876
28349W        W  675  34.896   0.365   2.975
28350W        W  676   4.820  18.162  13.307
28351W        W  677  34.853  42.269  12.311
28352W        W  678  25.447   3.579   1.597
28353W        W  679  16.734  16.103  12.121
28354W        W  680  39.166  21.607  11.636
28355W        W  681  26.118  23.648  14.353
28356W        W  682  11.551  14.723   4.329
28357W        W  683  21.477  18.032  12.431
28358W        W  684  22.731  13.437  13.558
28359W        W  685   9.714  21.801   0.774
28360W        W  686  14.170  15.161   3.364
28361W        W  687   9.467  27.527   4.069
28362W        W  688  28.364  29.020   4.691
28363W        W  689  40.866  43.895  11.594
28364W        W  690   9.709   6.707   1.036
28365W        W  691  16.761  31.938  11.509
28366W        W  692   2.801  10.313  14.680
28367W        W  693  22.877  10.248   4.866
28368W        W  694  40.908  44.481  14.965
28369W        W  695  22.520  17.614   2.829
28370W        W  696  43.817  27.599   3.259
28371W        W  697  13.316  29.107  14.557
28372W        W  698  31.176  24.872   2.834
28373W        W  699  32.886  12.810   3.917
28374W        W  700  37.027  24.016   3.099
28375W        W  701  33.379  31.464   2.208
28376W        W  702  16.554  14.204   0.951
28377W        W  703  35.073  25.937  13.321
28378W        W  704   4.790   8.363  10.716
28379W        W  705  14.387  20.247  11.832
28380W        W  706   6.884  41.099  10.689
28381W        W  707  35.604  27.632  13.559
28382W        W  708  35.028  15.522   3.775
28383W        W  709  15.788   3.696  14.808
28384W        W  710  16.693   6.744  10.559
28385W        W  711  35.104  24.213   0.250
28386W        W  712  43.856  38.326   1.298
28387W        W  713   8.245  37.363  10.660
28388W        W  714  27.012  20.288  12.415
28389W        W  715  14.114  20.678   1.293
28390W        W  716  19.543  16.031   3.146
28391W        W  717   1.238  16.068  13.850
28392W        W  718  33.435  34.039  13.730
28393W        W  719  19.053  36.608   1.957
28394W        W  720  15.425   3.028   4.079
28395W        W  721  37.215  22.930  12.883
28396W        W  722   1.008   6.142  11.224
28397W        W  723   0.789  32.410  10.500
28398W        W  724  25.728  16.205  10.650
28399W        W  725  25.209   2.139   4.604
28400W        W  726  39.987  13.691   1.291
28401W        W  727  23.022   5.987   2.254
28402W        W  728  30.212  28.513   4.656
28403W        W  729  29.600  20.516  13.621
28404W        W  730   4.488  24.767  13.516
28405W        W  731  35.095   5.967  12.962
28406W        W  732  12.147  20.658   0.750
28407W        W  733  11.117  11.715  12.078
28408W        W  734  12.165  27.925   0.463
28409W        W  735  20.829  34.646  13.058
28410W        W  736  36.458  24.591  12.471
28411W        W  737   5.340  32.983  10.431
28412W        W  738  13.509  34.957  11.398
28413W        W  739   9.384  41.539   3.732
28414W        W  740   0.745   1.800  14.260
28415W        W  741  16.463  42.997  11.974
28416W        W  742   0.295  14.114  11.514
28417W        W  743  31.826  37.478   4.570
28418W        W  744  23.112  33.858   0.311
28419W        W  745   1.966  14.458   2.374
28420W        W  746  32.970   1.895   2.496
28421W        W  747  12.798   1.478  14.734
28422W        W  748  24.553  21.820   4.581
28423W        W  749  40.415  16.059  10.682
28424W        W  750   4.272  27.519  11.490
28425W        W  751  19.469   2.504  11.267
28426W        W  752  13.864  37.387   1.378
28427W        W  753   7.361   2.184   4.632
28428W        W  754  10.692  27.428  10.779
28429W        W  755  36.672   3.802   4.568
28430W        W  756   7.441  37.898   4.144
28431W        W  757  35.461  25.141   1.939
28432W        W  758  15.263   7.223  10.736
28433W        W  759  33.083  31.448   3.867
28434W        W  760  13.212   2.864   2.947
28435W        W  761  13.032  10.340   4.290
28436W        W  762  10.906   9.297  12.611
28437W        W  763  10.172  19.121  12.688
28438W        W  764  29.914  22.552   3.735
28439W        W  765  44.540  27.666   3.621
28440W        W  766  19.658  22.469   3.154
28441W        W  767   2.329  33.583  12.587
28442W        W  768   8.866  41.571   3.192
28443W        W  769  25.250  24.261  14.929
28444W        W  770  33.537  33.664   5.386
28445W        W  771  21.557   9.813  13.288
28446W        W  772  17.979  36.291   3.194
28447W        W  773  36.877   0.668  14.453
28448W        W  774  21.604  41.101  13.754
28449W        W  775   0.988  22.328  11.762
28450W        W  776  10.119  13.740  11.072
28451W        W  777  37.145  36.247  10.493
28452W        W  778  31.836  19.059  11.161
28453W        W  779   1.709  32.845  11.066
28454W        W  780  31.912  11.301   0.225
28455W        W  781  22.677  21.235  12.921
28456W        W  782  11.084   1.085   3.051
28457W        W  783  17.097   1.900   1.373
28458W        W  784  19.582  13.881  12.529
28459W        W  785  10.316  43.870  13.043
28460W        W  786   8.121  35.910  13.804
28461W        W  787  31.214  41.103  14.764
28462W        W  788  32.458  37.120  10.482
28463W        W  789   2.051  21.934  11.787
28464W        W  790  21.049  11.589   3.396
28465W        W  791  16.962  17.487   0.492
28466W        W  792  27.889  18.701  11.534
28467W        W  793  22.697  15.927  11.013
28468W        W  794  10.812  18.605   2.843
28469W        W  795  24.791  44.874  12.657
28470W        W  796  32.977  44.480   2.730
28471W        W  797  13.793  39.700  11.949
28472W        W  798   6.402  33.602   2.898
28473W        W  799  24.718  30.647   4.379
28474W        W  800  41.311  21.284   3.211
28475W        W  801  40.942  11.818  12.106
28476W        W  802  21.970  28.912   3.860
28477W        W  803  29.851  17.356  11.713
28478W        W  804   6.415  10.690   0.383
28479W        W  805  19.470   9.393   2.575
28480W        W  806  24.972  24.558   2.712
28481W        W  807  25.817  25.096   0.185
28482W        W  808  11.137   6.534   3.375
28483W        W  809   0.076  23.484  14.702
28484W        W  810  27.450  36.336  12.998
28485W        W  811  29.154  17.693   3.264
28486W        W  812  26.461  14.795  12.981
28487W        W  813  30.643  14.794   1.362
28488W        W  814   7.711   6.043   0.012
28489W        W  815  41.687  29.667  14.985
28490W        W  816  37.542   4.494  11.095
28491W        W  817  23.740  33.542  11.930
28492W        W  818  12.267  18.316   2.309
28493W        W  819  20.278  21.331   0.499
28494W        W  820   8.246   6.869   0.468
28495W        W  821   1.415  14.235  11.596
28496W        W  822  11.949  32.039  10.699
28497W        W  823  28.637  31.983  13.957
28498W        W  824  13.822   5.334   4.095
28499W        W  825  24.723  28.966  14.692
28500W        W  826   5.809   6.368   2.637
28501W        W  827  30.114  20.101  10.663
28502W        W  828  38.327  13.219  14.715
28503W        W  829  27.644  14.082   3.753
28504W        W  830   4.340   5.936   0.698
28505W        W  831   3.055  23.732  10.701
28506W        W  832  13.200  26.139  11.674
28507W        W  833  13.382  11.271  11.041
28508W        W  834   8.887  33.084  12.325
28509W        W  835  35.153  11.141  12.004
28510W        W  836   7.260  11.059  14.927
28511W        W  837   5.970  44.852  12.333
28512W        W  838  42.373  40.059  10.632
28513W        W  839  27.222  18.584  14.324
28514W        W  840  30.480   8.332  13.940
28515W        W  841   7.210  40.020   0.240
28516W        W  842  44.320  26.083   4.314
28517W        W  843   7.063  31.334   1.261
28518W        W  844   8.914  28.499  12.478
28519W        W  845  17.465  34.474   3.522
28520W        W  846  39.084  38.694  11.815
28521W        W  847  43.353   2.607  13.966
28522W        W  848  32.107  43.564   3.299
28523W        W  849   1.481  25.700  12.437
28524W        W  850   2.242  24.224  12.010
28525W        W  851  20.782   9.093   3.701
28526W        W  852  33.515  19.072  12.999
28527W        W  853   2.790  38.362  12.422
28528W        W  854  24.535  30.193  13.509
28529W        W  855   7.708  13.494  14.378
28530W        W  856  21.416   7.823   2.768
28531W        W  857   5.959  11.810  11.603
28532W        W  858   0.315  17.038  13.050
28533W        W  859  14.612  35.029   1.155
28534W        W  860  31.505  26.665  14.840
28535W        W  861   8.857  25.390  10.622
28536W        W  862  44.084  31.486  12.861
28537W        W  863   4.864  29.453   1.405
28538W        W  864  38.835  17.134  11.869
28539W        W  865  12.270  25.096  10.406
28540W        W  866   8.838  40.017   2.931
28541W        W  867  30.905  25.952  12.932
28542W        W  868  14.241  22.272  12.533
28543W        W  869  27.089  44.770   2.066
28544W        W  870   9.187   9.172  11.762
28545W        W  871  37.829  28.583   0.999
28546W        W  872  40.555  42.664   1.799
28547W        W  873  39.083  30.502   4.717
28548W        W  874  16.036  36.500  11.941
28549W        W  875  28.613   2.462  11.625
28550W        W  876  37.096  20.597   0.039
28551W        W  877  28.634  34.178  13.450
28552W        W  878  10.821  17.858   0.316
28553W        W  879  44.786  21.334   2.039
28554W        W  880  12.335   4.789  12.431
28555W        W  881  30.587   3.236   3.321
28556W        W  882  19.942  36.717  13.474
28557W        W  883  23.450  25.942  10.673
28558W        W  884   7.368  18.196   1.639
28559W        W  885  31.557  41.380  14.448
28560W        W  886  36.443  28.892   1.850
28561W        W  887  33.383  20.849   0.185
28562W        W  888  15.328   1.399  10.400
28563W        W  889  10.935  27.520   2.912
28564W        W  890  12.635  38.469  12.839
28565W        W  891   6.714   7.484   1.271
28566W        W  892  21.795   7.199  11.125
28567W        W  893   3.750  14.657  12.965
28568W        W  894  23.700  19.986  11.581
28569W        W  895   2.296  29.520  11.321
28570W        W  896  25.130  23.057   3.303
28571W        W  897  20.796  13.714   4.362
28572W        W  898   6.451  12.739   2.673
28573W        W  899  36.581  32.524  11.934
28574W        W  900   0.331   7.443   0.694
28575W        W  901   4.794  25.731  10.161
28576W        W  902  16.904  39.240  14.838
28577W        W  903   5.735  25.960  14.764
28578W        W  904   8.104   8.202  13.803
28579W        W  905  13.859  36.584  12.042
28580W        W  906   3.388  37.264   1.729
28581W        W  907   3.992  21.673   5.309
28582W        W  908   7.010  44.452  11.540
28583W        W  909  26.002  27.965  11.473
28584W        W  910  30.145  29.927  14.442
28585W        W  911  25.127  10.679   3.099
28586W        W  912  17.723   9.103  13.965
28587W        W  913  44.074  23.025  14.353
28588W        W  914  11.894  22.619   4.124
28589W        W  915   2.924  22.060   3.248
28590W        W  916  28.361  10.151  13.967
28591W        W  917  12.663  42.008   0.826
28592W        W  918  42.197   2.927   4.121
28593W        W  919  12.824  13.086  10.784
28594W        W  920  33.706  44.049   4.167
28595W        W  921  26.215  32.223   2.463
28596W        W  922  30.468  20.678  12.529
28597W        W  923   1.639  31.026   1.723
28598W        W  924  13.255  37.327  12.983
28599W        W  925   4.518  27.197   1.448
28600W        W  926   0.819  18.266  14.196
28601W        W  927  33.507  24.505  11.670
28602W        W  928  44.729  37.349   3.819
28603W        W  929  40.079   4.581  12.547
28604W        W  930  12.619  35.363  11.256
28605W        W  931  15.834  22.441  13.450
28606W        W  932   2.435  31.461   3.175
28607W        W  933  26.746  32.162  11.584
28608W        W  934  40.485  40.408   2.391
28609W        W  935  26.801  42.297   1.820
28610W        W  936   8.895  17.487  10.954
28611W        W  937  21.757  17.271   1.736
28612W        W  938  13.153   5.094  11.928
28613W        W  939   6.840  12.854  14.557
28614W        W  940   6.309  44.269  12.454
28615W        W  941  23.606   6.282  13.869
28616W        W  942   2.795  27.596   2.743
28617W        W  943  24.220  33.697  11.883
28618W        W  944   9.869  35.899   1.712
28619W        W  945   8.342  29.457  13.081
28620W        W  946  26.144  34.928   0.789
28621W        W  947  19.965  41.438  12.812
28622W        W  948  37.115   9.782   0.401
28623W        W  949  35.185  41.550   3.801
28624W        W  950  42.529   0.972  11.146
28625W        W  951  19.741  21.988   1.880
28626W        W  952  31.575   4.933  14.455
28627W        W  953  25.071  34.856   2.670
28628W        W  954  25.965   5.275   1.778
28629W        W  955  19.987  26.407   0.970
28630W        W  956  30.393  41.324  12.941
28631W        W  957  22.209   8.058  12.046
28632W        W  958  29.094  36.055   0.835
28633W        W  959  19.060  37.129   1.846
28634W        W  960   9.155  22.584   1.453
28635W        W  961  24.072  41.240  12.088
28636W        W  962   7.377  22.768  14.340
28637W        W  963   9.527  29.427  11.163
28638W        W  964   5.244  35.582  11.094
28639W        W  965  27.424  25.282  10.709
28640W        W  966   2.225  31.150   0.722
28641W        W  967  27.096   8.425  13.482
28642W        W  968  21.753  24.916   1.297
28643W        W  969   8.644  15.133  11.504
28644W        W  970  38.866  17.206   4.278
28645W        W  971  36.930  13.309   4.143
28646W        W  972  11.082  14.782  13.292
28647W        W  973  26.625  20.640   4.746
28648W        W  974  38.383   3.723   3.267
28649W        W  975  14.091  33.337   4.638
28650W        W  976  11.221   1.254  13.874
28651W        W  977   9.877  22.049  13.806
28652W        W  978  18.476   5.634   3.345
28653W        W  979  33.879  33.510   0.980
28654W        W  980  41.812  42.952   1.884
28655W        W  981  33.760  31.166  10.792
28656W        W  982   9.237  43.358  10.699
28657W        W  983  41.235  39.001  10.776
28658W        W  984   8.298  13.885  11.206
28659W        W  985  13.755  37.422  12.885
28660W        W  986  13.163  13.123  11.190
28661W        W  987  31.875  12.104  11.447
28662W        W  988  15.232  14.163   2.883
28663W        W  989  44.239   4.367  12.411
28664W        W  990  25.235  18.502  14.773
28665W        W  991   8.662  30.905  10.856
28666W        W  992  33.661  35.443  10.701
28667W        W  993   0.225  44.260  11.331
28668W        W  994  33.425  40.396   5.195
28669W        W  995  21.796   7.674   2.432
28670W        W  996  41.893  43.732  13.367
28671W        W  997  19.918  17.370   2.739
28672W        W  998  30.043   6.430   4.654
28673W        W  999  12.078  32.143   3.211
28674W        W 1000  13.245  27.461   2.908
28675W        W 1001  28.454  39.240  13.305
28676W        W 1002  11.603  38.127  13.641
28677W        W 1003  35.855  29.152   1.219
28678W        W 1004  42.431  42.107  10.682
28679W        W 1005  24.638   1.469   1.724
28680W        W 1006   0.514  11.209  14.185
28681W        W 1007  41.427  14.478   4.516
28682W        W 1008   0.316  19.237   0.938
28683W        W 1009  36.623  35.120   0.802
28684W        W 1010  35.538  34.261  10.738
28685W        W 1011   6.519  43.806   0.832
28686W        W 1012  30.226  24.207   1.811
28687W        W 1013  14.847  31.996   2.788
28688W        W 1014  12.292  20.092  14.497
28689W        W 1015  43.855  11.420   1.825
28690W        W 1016  27.072  14.593   2.192
28691W        W 1017  25.559  40.277   1.950
28692W        W 1018  28.177  40.923  12.984
28693W        W 1019  37.096  34.645   2.731
28694W        W 1020  18.564  12.363   4.627
28695W        W 1021  10.690  31.104  14.586
28696W        W 1022  40.386  34.628  11.201
28697W        W 1023   4.367  25.548  11.879
28698W        W 1024   4.836   6.187   0.821
28699W        W 1025   6.870  36.528  11.002
28700W        W 1026  15.222  36.567  12.323
28701W        W 1027  29.871   2.846  14.663
28702W        W 1028  37.546   8.708   2.430
28703W        W 1029   4.164  34.854   1.394
28704W        W 1030   3.898   8.671   0.292
28705W        W 1031  20.244  12.337  11.142
28706W        W 1032  37.840  16.241   3.596
28707W        W 1033  18.935  23.246  11.690
28708W        W 1034  19.101  26.569   4.650
28709W        W 1035   5.641   0.727   4.609
28710W        W 1036  13.080  14.196   2.104
28711W        W 1037  43.297   9.815  12.767
28712W        W 1038  38.785  38.093   0.664
28713W        W 1039  26.615   8.390  10.776
28714W        W 1040  13.311  43.836   4.214
28715W        W 1041  24.439  33.606   3.755
28716W        W 1042  10.540  22.267   4.438
28717W        W 1043  44.330  32.234   1.798
28718W        W 1044   8.298  32.015   0.844
28719W        W 1045  42.999  33.177   1.070
28720W        W 1046  19.751  34.102   1.399
28721W        W 1047  10.739  39.320   4.453
28722W        W 1048  16.519  37.478   4.670
28723W        W 1049  27.957   4.519   2.246
28724W        W 1050   5.633  33.393  10.571
28725W        W 1051  24.193   5.465   4.476
28726W        W 1052  19.941  13.415  14.246
28727W        W 1053  25.441  23.926  11.931
28728W        W 1054  37.489  24.231  13.059
28729W        W 1055  44.544  22.518  11.238
28730W        W 1056   8.162  40.835   0.839
28731W        W 1057  24.201  12.542   4.320
28732W        W 1058  38.953   8.838  10.470
28733W        W 1059   1.405  39.801  12.125
28734W        W 1060  17.103  29.037  10.639
28735W        W 1061   6.499  11.422   1.802
28736W        W 1062  12.066   9.192  14.564
28737W        W 1063   8.661  10.095   0.362
28738W        W 1064  25.423  41.417  10.656
28739W        W 1065   1.347  35.680  14.419
28740W        W 1066  41.313   5.838   0.982
28741W        W 1067  44.963   6.395  14.833
28742W        W 1068   6.973  36.080  14.952
28743W        W 1069   3.345  43.838   3.026
28744W        W 1070   3.239  25.618  12.524
28745W        W 1071  44.407  30.526  11.340
28746W        W 1072  36.323  34.940  10.669
28747W        W 1073  30.587  42.377   3.675
28748W        W 1074  24.734   7.479  12.817
28749W        W 1075   4.683  10.710  14.409
28750W        W 1076  41.913  38.682   4.539
28751W        W 1077   7.187  39.021   4.130
28752W        W 1078  19.422  17.100   1.195
28753W        W 1079  21.740  34.630  13.988
28754W        W 1080  13.411  15.269  12.489
28755W        W 1081   8.491   7.160  13.018
28756W        W 1082  13.589   7.796   3.665
28757W        W 1083  36.074  25.963   3.852
28758W        W 1084   3.040  29.356   0.250
28759W        W 1085  39.583   7.927   4.088
28760W        W 1086  17.338  42.378  10.962
28761W        W 1087  27.569  43.234  11.621
28762W        W 1088  17.189  36.460  11.204
28763W        W 1089  25.151  11.034  13.844
28764W        W 1090  19.105  37.864  12.507
28765W        W 1091  19.599   9.804   4.414
28766W        W 1092  31.571  39.333   5.083
28767W        W 1093  23.277  26.730  13.003
28768W        W 1094   0.750  19.475   1.268
28769W        W 1095  15.150  16.394  11.690
28770W        W 1096  40.751  14.355   0.323
28771W        W 1097  15.692  18.461   4.569
28772W        W 1098   5.986   9.320  13.915
28773W        W 1099  42.580  23.505   1.641
28774W        W 1100   9.882   9.612  11.834
28775W        W 1101   1.480   7.196   2.757
28776W        W 1102  26.048  43.803   1.283
28777W        W 1103  15.045  24.649  12.006
28778W        W 1104  14.332  33.558  12.947
28779W        W 1105  15.931  10.799   0.179
28780W        W 1106  30.830  34.651   1.458
28781W        W 1107  41.452   3.307   2.819
28782W        W 1108  13.882  42.286  13.126
28783W        W 1109  32.387   1.819   1.854
28784W        W 1110  25.255  24.770   2.300
28785W        W 1111  30.331  37.679  12.586
28786W        W 1112  18.336  31.050  13.930
28787W        W 1113  42.820  25.185   0.344
28788W        W 1114  37.339   7.647   0.448
28789W        W 1115   8.806   2.442   3.703
28790W        W 1116   3.550  10.860  11.590
28791W        W 1117  32.609  44.499  12.917
28792W        W 1118  27.936  32.711  12.253
28793W        W 1119  40.503   6.389   1.963
28794W        W 1120  11.470  35.161   4.201
28795W        W 1121  39.461  15.605   2.390
28796W        W 1122   9.813  44.358   2.257
28797W        W 1123  44.123   7.649  12.619
28798W        W 1124  22.055   5.830   0.301
28799W        W 1125  38.757   4.073   3.283
28800W        W 1126   9.275  37.472   9.925
28801W        W 1127  41.937   8.684   0.369
28802W        W 1128  44.513  24.280   4.338
28803W        W 1129  33.588  22.076   4.197
28804W        W 1130  35.166  17.116  14.330
28805W        W 1131  12.182   9.218  10.674
28806W        W 1132  12.865  39.162   1.188
28807W        W 1133  19.981  39.961   0.762
28808W        W 1134  24.920  29.433   4.768
28809W        W 1135  15.354  13.107   1.391
28810W        W 1136  26.818  31.840   0.956
28811W        W 1137  35.673  17.708  11.202
28812W        W 1138  21.234  41.579  10.978
28813W        W 1139  11.572  27.860  12.153
28814W        W 1140  12.490  14.365   0.417
28815W        W 1141  40.832  30.161  14.229
28816W        W 1142  15.617  29.481  14.430
28817W        W 1143  18.005   7.675  11.537
28818W        W 1144  44.410   7.643   2.738
28819W        W 1145  18.735   9.707  11.104
28820W        W 1146  11.807  21.030   1.474
28821W        W 1147  42.705  24.298   3.163
28822W        W 1148  21.370  20.531  12.927
28823W        W 1149  31.853  25.105   1.693
28824W        W 1150   0.371  25.592   4.650
28825W        W 1151  16.617   8.043   0.739
28826W        W 1152  30.642  36.331   0.320
28827W        W 1153  21.495  40.285  14.988
28828W        W 1154  10.161  18.686   4.660
28829W        W 1155   5.466   2.222   0.941
28830W        W 1156  17.549  33.002  12.562
28831W        W 1157   7.424  39.473  13.550
28832W        W 1158  11.618  32.974   3.232
28833W        W 1159  35.170  29.739  14.424
28834W        W 1160   0.474  27.106   0.253
28835W        W 1161  33.914  32.419   3.706
28836W        W 1162  39.917   3.865  14.876
28837W        W 1163  11.230   3.700  12.269
28838W        W 1164   9.780   4.171  11.643
28839W        W 1165  12.555  41.818  11.638
28840W        W 1166  19.794  39.471   0.928
28841W        W 1167  14.526  11.959   0.402
28842W        W 1168  36.327   1.935  13.998
28843W        W 1169  40.486  30.407   1.939
28844W        W 1170  18.757   8.149  12.537
28845W        W 1171   5.274  11.108  14.072
28846W        W 1172  17.739  29.711  12.635
28847W        W 1173  41.514  18.608   4.174
28848W        W 1174  43.878  40.084  11.005
28849W        W 1175  30.976  23.558  13.519
28850W        W 1176  44.203  36.830   0.412
28851W        W 1177  40.749  43.721  12.064
28852W        W 1178  36.618  27.007   3.920
28853W        W 1179  33.086  14.211   4.099
28854W        W 1180  25.025   4.468  13.433
28855W        W 1181  35.010  33.641  11.085
28856W        W 1182   2.795  38.451   2.425
28857W        W 1183  10.689  12.909  14.022
28858W        W 1184  38.215  41.512   3.765
28859W        W 1185   7.538  25.837   4.157
28860W        W 1186   2.647  38.616  14.419
28861W        W 1187   7.150  19.706   4.166
28862W        W 1188   3.772   2.360   3.175
28863W        W 1189  44.866   8.237  11.371
28864W        W 1190  11.807  25.152   2.220
28865W        W 1191  43.923  20.075   0.518
28866W        W 1192   9.217  14.882   3.395
28867W        W 1193   4.188  41.996  12.517
28868W        W 1194   5.892  15.495  14.501
28869W        W 1195   7.788  20.763  13.394
28870W        W 1196  21.081  20.297   0.746
28871W        W 1197  21.066  32.468  11.587
28872W        W 1198  26.123  26.185   4.547
28873W        W 1199  18.761   8.685   1.297
28874W        W 1200   6.201  18.031   1.908
28875W        W 1201  27.673  24.626   1.024
28876W        W 1202  20.501  21.277  11.588
28877W        W 1203  11.222   5.775  14.453
28878W        W 1204  22.466   4.998  13.853
28879W        W 1205  15.700   8.356  11.538
28880W        W 1206  41.062  38.207   3.956
28881W        W 1207  37.406  25.896  13.308
28882W        W 1208  13.548  39.465   1.791
28883W        W 1209  35.978   2.859   1.377
28884W        W 1210  17.121  18.799   3.836
28885W        W 1211  31.141  23.113  13.326
28886W        W 1212  37.475  35.111  13.463
28887W        W 1213   9.592   1.669   2.269
28888W        W 1214  22.907  26.181  14.062
28889W        W 1215  39.098  25.048  14.407
28890W        W 1216  43.036  33.617   2.804
28891W        W 1217  41.088  29.584   0.582
28892W        W 1218  34.537  23.654  14.333
28893W        W 1219  23.489  34.088  14.458
28894W        W 1220   8.971  21.545  11.223
28895W        W 1221  18.616  14.756   1.725
28896W        W 1222  19.997  35.425  12.022
28897W        W 1223  41.118   3.826  13.756
28898W        W 1224  35.770   8.723  13.525
28899W        W 1225  24.622  20.529   1.748
28900W        W 1226  17.460  22.798  14.882
28901W        W 1227  44.245  26.511   4.052
28902W        W 1228  18.631  42.601   4.834
28903W        W 1229  40.010  37.108   3.613
28904W        W 1230  11.572  30.136   1.926
28905W        W 1231   5.927   8.868  14.873
28906W        W 1232  13.571   6.839  12.941
28907W        W 1233  17.023  35.438  12.077
28908W        W 1234  21.822  28.961  12.519
28909W        W 1235  43.011  10.407  14.763
28910W        W 1236  30.174  18.604   3.180
28911W        W 1237  23.976  33.337   3.679
28912W        W 1238   2.662  24.214  11.479
28913W        W 1239  18.640  13.812  14.946
28914W        W 1240   3.356  11.792   5.450
28915W        W 1241  33.084  37.299  14.884
28916W        W 1242  20.746  32.660  12.015
28917W        W 1243  39.993  44.039   4.019
28918W        W 1244  18.353  16.746  11.550
28919W        W 1245  31.113  33.118  11.862
28920W        W 1246  30.194  31.909   1.856
28921W        W 1247  19.144  38.346  10.378
28922W        W 1248  19.809  25.235   1.395
28923W        W 1249  36.115   6.430  12.435
28924W        W 1250  25.417  39.022  11.061
28925W        W 1251  28.602  43.547   4.891
28926W        W 1252   0.921  32.443   4.305
28927W        W 1253   0.846   1.371   0.198
28928W        W 1254  27.582  25.768   2.338
28929W        W 1255  44.303   7.130   3.673
28930W        W 1256  23.162  14.369   0.464
28931W        W 1257  22.419  15.299  13.811
28932W        W 1258   2.499  11.704  11.996
28933W        W 1259  39.123  20.131   1.384
28934W        W 1260   3.955  19.719   0.443
28935W        W 1261  25.410  40.152  11.028
28936W        W 1262  42.721  40.292   0.887
28937W        W 1263  21.975  30.881   2.780
28938W        W 1264  22.318  44.992  13.098
28939W        W 1265  37.575  22.484   2.207
28940W        W 1266  21.661  35.990   0.014
28941W        W 1267  17.324   3.275   4.951
28942W        W 1268  14.096  10.561  12.432
28943W        W 1269  27.592   6.115  12.866
28944W        W 1270  25.701  44.879   3.095
28945W        W 1271  30.435   2.328  12.800
28946W        W 1272  19.977   9.343   1.857
28947W        W 1273  24.560   3.899   2.742
28948W        W 1274  19.294  18.830  12.440
28949W        W 1275  20.796  31.956  12.487
28950W        W 1276   9.355  10.047   1.998
28951W        W 1277  11.678  12.797   3.983
28952W        W 1278   8.319  12.403   4.135
28953W        W 1279  41.289  22.089  14.113
28954W        W 1280  21.114   8.745  12.456
28955W        W 1281   8.299  17.856  10.779
28956W        W 1282  27.789  23.141   4.676
28957W        W 1283  12.827  18.651  12.484
28958W        W 1284  24.657  43.337   0.350
28959W        W 1285  22.001  24.532  11.872
28960W        W 1286  27.810  25.606  10.541
28961W        W 1287  39.044   1.027  13.052
28962W        W 1288   2.058  40.446   4.482
28963W        W 1289  11.340  41.370  14.905
28964W        W 1290  42.798  35.536   4.580
28965W        W 1291   9.939  25.759   0.764
28966W        W 1292   0.857  33.189   1.506
28967W        W 1293  26.924  22.111   0.828
28968W        W 1294   4.825  12.709   2.880
28969W        W 1295  10.798  17.231   3.849
28970W        W 1296  29.243  27.136  13.842
28971W        W 1297  27.450   7.667  13.564
28972W        W 1298   0.875  33.008  10.532
28973W        W 1299  34.862  18.742  11.534
28974W        W 1300  42.963  10.617   0.961
28975W        W 1301  25.947  35.084   2.378
28976W        W 1302   6.973  13.604  12.442
28977W        W 1303  23.328  27.415  11.452
28978W        W 1304  38.894  21.213   2.472
28979W        W 1305  23.536  14.384   2.219
28980W        W 1306   3.624   3.780   2.827
28981W        W 1307  30.245  33.108   0.286
28982W        W 1308   5.635  29.613   0.330
28983W        W 1309   6.801  13.900  13.778
28984W        W 1310  22.157   8.264  10.757
28985W        W 1311  12.141  39.176   3.858
28986W        W 1312   8.740  43.761  12.409
28987W        W 1313  10.766   9.348   2.823
28988W        W 1314  20.756  20.229  14.823
28989W        W 1315  40.490   8.110  12.035
28990W        W 1316  13.899  11.357  11.189
28991W        W 1317  20.518  39.429   0.426
28992W        W 1318  11.606  11.742  11.891
28993W        W 1319  29.085  12.331  13.110
28994W        W 1320  18.092  30.496  13.273
28995W        W 1321  23.389  33.178  11.034
28996W        W 1322  36.821  40.298  13.952
28997W        W 1323  17.755  32.820  14.434
28998W        W 1324   0.021   3.735  12.205
28999W        W 1325   1.897  29.907   2.227
29000W        W 1326  12.606   3.548  12.527
29001W        W 1327  43.406  43.057   3.626
29002W        W 1328  26.765  24.540   3.424
29003W        W 1329  15.640   1.349   2.606
29004W        W 1330  41.046  12.785   3.313
29005W        W 1331  35.382   7.353   1.375
29006W        W 1332  25.513  31.634  13.891
29007W        W 1333  12.868   5.637   0.773
29008W        W 1334  14.779  36.660  11.109
29009W        W 1335  24.539   9.015  14.959
29010W        W 1336  28.601  35.873   0.773
29011W        W 1337  10.331  10.635   2.339
29012W        W 1338  42.577  37.377  12.103
29013W        W 1339  31.560  10.655   2.286
29014W        W 1340  17.283  19.595   0.595
29015W        W 1341  17.230   6.428   0.281
29016W        W 1342   1.672  22.879  11.988
29017W        W 1343  15.621  17.055  11.161
29018W        W 1344  40.999  19.841   5.037
29019W        W 1345  26.253  34.598  14.829
29020W        W 1346   3.194  17.800   2.680
29021W        W 1347   2.299   6.249  11.554
29022W        W 1348  24.668  42.071  14.302
29023W        W 1349  38.430  20.800   1.690
29024W        W 1350  35.312   5.984   3.233
29025W        W 1351   5.861  44.738  11.846
29026W        W 1352  32.867  11.599  12.087
29027W        W 1353  42.004  27.230   1.937
29028W        W 1354  31.262  44.688  10.269
29029W        W 1355  19.366  32.584  13.950
29030W        W 1356  39.419   4.835   4.556
29031W        W 1357  23.503  11.318   3.687
29032W        W 1358  35.356  17.536   1.427
29033W        W 1359  23.535  23.212   0.794
29034W        W 1360  18.955  36.610   3.270
29035W        W 1361   1.009  42.997   2.238
29036W        W 1362   0.406  29.982  12.487
29037W        W 1363   1.706   9.711  12.476
29038W        W 1364  31.185  33.329   5.123
29039W        W 1365  31.214  42.747  14.012
29040W        W 1366  40.248  11.309  11.055
29041W        W 1367  42.663  14.006  12.587
29042W        W 1368  43.661  15.059   4.191
29043W        W 1369  33.597  20.608  14.757
29044W        W 1370   5.409  20.684   0.643
29045W        W 1371  24.155  44.283   3.464
29046W        W 1372   9.827  12.565   3.156
29047W        W 1373  38.053  23.747   4.612
29048W        W 1374   4.687  26.730   3.724
29049W        W 1375  42.115  28.988  14.494
29050W        W 1376  32.935  39.380  12.868
29051W        W 1377  16.786  31.490   2.423
29052W        W 1378  24.678  29.340  14.338
29053W        W 1379  20.653  20.168   2.598
29054W        W 1380   7.905   3.007  11.603
29055W        W 1381   7.321   2.760   3.288
29056W        W 1382  33.682   4.499   0.880
29057W        W 1383  35.517  32.257  11.994
29058W        W 1384  38.476  37.718  14.821
29059W        W 1385  41.862   8.382   3.436
29060W        W 1386  44.035   4.082   0.814
29061W        W 1387   9.790   6.159  12.563
29062W        W 1388  43.594  39.966   3.658
29063W        W 1389  22.238  14.805   1.028
29064W        W 1390  32.589  36.312   0.308
29065W        W 1391  32.485  39.853   3.798
29066W        W 1392  27.259  29.879  14.282
29067W        W 1393   3.464  44.360  10.649
29068W        W 1394   0.252  24.232   2.670
29069W        W 1395   7.739  29.606  13.868
29070W        W 1396  25.966  39.646  12.397
29071W        W 1397  44.652  41.582   2.365
29072W        W 1398  16.214  22.221   4.723
29073W        W 1399  19.229   6.405   1.288
29074W        W 1400   6.404  34.470   3.451
29075W        W 1401  21.507   3.286   2.315
29076W        W 1402  10.843   8.300   4.802
29077W        W 1403  39.408   6.540  13.597
29078W        W 1404   9.315  21.673   0.385
29079W        W 1405   8.642  34.451   3.167
29080W        W 1406  23.971  16.816  10.046
29081W        W 1407  24.368  15.327   4.800
29082W        W 1408   9.750  44.051  14.122
29083W        W 1409  36.015  22.268   4.530
29084W        W 1410   4.848   2.468  12.072
29085W        W 1411   1.715  13.812  11.609
29086W        W 1412   1.747  34.852  14.812
29087W        W 1413  16.259  18.101  10.516
29088W        W 1414   8.521  34.433   0.860
29089W        W 1415  16.824   7.225   0.511
29090W        W 1416  44.444   0.363  11.936
29091W        W 1417  34.685  36.057  11.048
29092W        W 1418  19.992   0.300   2.599
29093W        W 1419  20.568   6.926   4.075
29094W        W 1420  12.839  18.499  14.475
29095W        W 1421  24.589  40.948  12.001
29096W        W 1422   4.456   8.665  12.009
29097W        W 1423  39.771  24.492  13.089
29098W        W 1424  43.383  24.400   0.397
29099W        W 1425  21.637  16.602  14.250
29100W        W 1426  13.831  31.355  13.396
29101W        W 1427   3.560  22.992  11.489
29102W        W 1428  28.067  38.453  10.615
29103W        W 1429   0.362  18.654   3.151
29104W        W 1430   4.827   1.658  12.544
29105W        W 1431  41.000  27.385  14.986
29106W        W 1432  18.124  37.609  13.510
29107W        W 1433  22.645   0.070   2.777
29108W        W 1434   9.735  19.539  13.023
29109W        W 1435   4.167  31.960   3.240
29110W        W 1436  16.150  15.531  11.928
29111W        W 1437   4.307  41.527   3.804
29112W        W 1438  17.807   4.511   2.546
29113W        W 1439   6.102  30.669   3.562
29114W        W 1440  11.686  34.182   3.131
29115W        W 1441  27.718  17.664  13.533
29116W        W 1442  15.569  38.310  12.388
29117W        W 1443   4.926  35.535   1.226
29118W        W 1444   4.770   1.289   4.478
29119W        W 1445   8.902   6.378   0.921
29120W        W 1446  33.616  41.283   2.670
29121W        W 1447  23.314  12.768  14.946
29122W        W 1448   4.470  20.407   0.394
29123W        W 1449  36.466  29.942  13.731
29124W        W 1450  33.213  18.504  13.381
29125W        W 1451   9.649   2.847  11.255
29126W        W 1452  35.935   8.811   0.039
29127W        W 1453  30.025  39.307  14.470
29128W        W 1454  19.950  37.041   2.720
29129W        W 1455  22.127  17.353  11.059
29130W        W 1456  23.521  33.470  11.467
29131W        W 1457  31.639  39.828   2.862
29132W        W 1458   3.531   3.710   2.324
29133W        W 1459   8.923  18.189  14.030
29134W        W 1460  42.258  29.334   2.268
29135W        W 1461  21.004  24.183   1.719
29136W        W 1462  21.004  41.852  11.985
29137W        W 1463   9.916   5.911   4.062
29138W        W 1464  25.146   5.391   2.189
29139W        W 1465  33.155  33.681   3.321
29140W        W 1466  15.562  13.381  12.092
29141W        W 1467   2.185  25.541   0.437
29142W        W 1468   4.353  25.216   4.893
29143W        W 1469   6.903  29.628  12.960
29144W        W 1470  37.966  16.841  11.645
29145W        W 1471  36.025  21.787   1.813
29146W        W 1472  15.330  41.334   0.759
29147W        W 1473   1.056  41.919  14.317
29148W        W 1474  10.242  18.783   2.945
29149W        W 1475  18.122   3.836   3.291
29150W        W 1476  19.245  13.113  10.776
29151W        W 1477  37.518  18.286   1.412
29152W        W 1478  21.486  40.580  11.334
29153W        W 1479  12.297   8.210  14.367
29154W        W 1480  28.066   8.300   0.211
29155W        W 1481  31.982  32.442  10.926
29156W        W 1482   3.701  24.182  14.405
29157W        W 1483   1.734  19.808   2.706
29158W        W 1484   4.476  13.601  10.567
29159W        W 1485  32.801  30.141  12.101
29160W        W 1486  22.436  10.785  10.715
29161W        W 1487  29.926  25.079   1.687
29162W        W 1488   4.216  44.954   1.205
29163W        W 1489  13.216  32.851   3.409
29164W        W 1490  32.027  21.524   4.344
29165W        W 1491  19.192  17.024  13.822
29166W        W 1492  23.521   4.270  11.571
29167W        W 1493  18.329  22.947   2.335
29168W        W 1494  14.355  32.945  13.979
29169W        W 1495  40.427  40.819  13.309
29170W        W 1496  13.323  16.298  12.469
29171W        W 1497  40.615   0.268   0.398
29172W        W 1498   5.680   0.944  11.683
29173W        W 1499  40.362  36.086   4.329
29174W        W 1500   0.424   7.911  11.215
29175W        W 1501  44.821  10.681  14.449
29176W        W 1502  23.067   1.813   2.448
29177W        W 1503  21.609  32.637  13.932
29178W        W 1504  12.774  27.038  10.578
29179W        W 1505   6.797  23.650  11.484
29180W        W 1506  33.351  26.091  11.848
29181W        W 1507  39.550  39.215   3.739
29182W        W 1508   5.367  44.245  12.484
29183W        W 1509  18.111   5.736   0.861
29184W        W 1510  32.641  21.103   4.515
29185W        W 1511  44.208  32.381   0.323
29186W        W 1512  18.536  44.458   4.692
29187W        W 1513  41.831  20.183  14.795
29188W        W 1514  24.615   2.489  13.828
29189W        W 1515  23.765  28.925   2.377
29190W        W 1516  11.366  37.639  11.083
29191W        W 1517  10.154  40.663   3.120
29192W        W 1518  43.962  24.258   2.309
29193W        W 1519  25.126  41.777   3.812
29194W        W 1520   1.282  30.981   2.799
29195W        W 1521  33.179  40.556   0.814
29196W        W 1522  33.755  40.080  14.841
29197W        W 1523  38.781  16.362  13.087
29198W        W 1524   2.857  10.756  10.434
29199W        W 1525  37.098  28.672   4.238
29200W        W 1526   1.768  11.907  13.673
29201W        W 1527  38.371   4.632  13.924
29202W        W 1528  25.099  17.481  14.915
29203W        W 1529  36.911  32.134  11.997
29204W        W 1530  13.358  25.157  13.534
29205W        W 1531   9.143   2.039  13.899
29206W        W 1532  36.996  34.965  12.988
29207W        W 1533   8.861  44.424   1.396
29208W        W 1534  36.575  17.477   3.723
29209W        W 1535  24.954  13.661  10.822
29210W        W 1536   7.699  36.066   3.711
29211W        W 1537   3.817  31.636   3.470
29212W        W 1538  21.324  37.021   0.977
29213W        W 1539  40.859  38.434  13.356
29214W        W 1540   5.149  10.254   0.225
29215W        W 1541   8.203   0.337   1.946
29216W        W 1542  31.366  35.570  14.330
29217W        W 1543  24.247  36.424   1.727
29218W        W 1544  19.046  19.825  13.378
29219W        W 1545  18.059  13.580   4.725
29220W        W 1546  26.872  26.573  11.706
29221W        W 1547  14.609  29.653   3.663
29222W        W 1548  43.310  35.137   1.617
29223W        W 1549  21.972  40.228   5.543
29224W        W 1550  22.108   8.943  13.331
29225W        W 1551  19.536  27.162  13.178
29226W        W 1552  32.405  16.724  10.665
29227W        W 1553   0.502  17.565   1.268
29228W        W 1554   4.179  26.417   1.510
29229W        W 1555   3.509   8.425   3.237
29230W        W 1556  36.799  35.912   5.169
29231W        W 1557  34.620   0.894  10.725
29232W        W 1558   7.704  27.018  11.338
29233W        W 1559  20.462  11.778   0.732
29234W        W 1560   6.522  36.407  11.359
29235W        W 1561  43.392  14.075   2.381
29236W        W 1562  11.015  44.828   1.690
29237W        W 1563  34.676  26.451   4.270
29238W        W 1564   1.824  42.306  10.608
29239W        W 1565  24.719  12.196  12.889
29240W        W 1566  10.253  39.533   2.714
29241W        W 1567  20.818   6.827   3.618
29242W        W 1568  30.493  11.786  12.491
29243W        W 1569  20.638  43.490  10.594
29244W        W 1570  24.250  41.778   3.329
29245W        W 1571  24.413  42.746   5.283
29246W        W 1572  14.296  38.953  14.056
29247W        W 1573   5.593  42.056  11.142
29248W        W 1574   1.890  35.506   0.975
29249W        W 1575  27.460  27.640  11.100
29250W        W 1576  13.053  36.121   1.393
29251W        W 1577  25.050  30.757   5.045
29252W        W 1578   8.209  36.086   3.796
29253W        W 1579  20.803  43.410   1.710
29254W        W 1580  34.855  43.770   0.375
29255W        W 1581   0.354  35.041   1.314
29256W        W 1582  30.079  29.916   2.461
29257W        W 1583  42.304  35.363   4.579
29258W        W 1584  22.570   6.441   1.000
29259W        W 1585  39.080  44.047   1.866
29260W        W 1586   1.778  44.936   2.771
29261W        W 1587  11.590  30.464  13.906
29262W        W 1588  27.936  30.387  14.859
29263W        W 1589  10.778  36.342  12.889
29264W        W 1590  16.241  31.513   2.362
29265W        W 1591  19.411  23.525  13.428
29266W        W 1592  19.530  40.298   0.540
29267W        W 1593  34.078  37.930   4.201
29268W        W 1594  43.880  14.579  13.953
29269W        W 1595  16.141  37.579  13.356
29270W        W 1596   9.280   3.216  14.846
29271W        W 1597  43.935  38.211  11.145
29272W        W 1598  12.619  35.008  10.875
29273W        W 1599  38.869   2.271   0.842
29274W        W 1600   4.552   6.781  10.386
29275W        W 1601  35.100  16.523   0.475
29276W        W 1602  39.812  33.443  12.410
29277W        W 1603  42.378  19.848   3.565
29278W        W 1604  33.495  32.557   0.872
29279W        W 1605   1.911  12.542  11.834
29280W        W 1606  27.606  11.597   1.330
29281W        W 1607  13.111  13.155   5.174
29282W        W 1608  18.136   8.884  13.499
29283W        W 1609  32.136  16.562   4.503
29284W        W 1610  39.253   8.878  11.627
29285W        W 1611   6.803   7.137  11.228
29286W        W 1612  43.280   3.412   3.621
29287W        W 1613  37.347  43.089  14.474
29288W        W 1614  34.428  11.702  13.540
29289W        W 1615  34.496  19.048   3.136
29290W        W 1616  25.019  27.691   2.196
29291W        W 1617  29.686  24.038  12.456
29292W        W 1618  40.516   7.413   4.193
29293W        W 1619   4.794  28.174   1.172
29294W        W 1620  42.861  20.158   3.184
29295W        W 1621   4.418  18.023  10.982
29296W        W 1622   4.682  30.529   4.125
29297W        W 1623   6.131  25.696   1.481
29298W        W 1624  13.355  22.012   2.142
29299W        W 1625  35.815  14.969   2.362
29300W        W 1626  33.942  30.140   3.388
29301W        W 1627   5.805   5.733  14.522
29302W        W 1628  39.830   6.214   3.247
29303W        W 1629   0.014   4.191   0.861
29304W        W 1630  42.464  41.539  13.133
29305W        W 1631   3.851  35.993  13.546
29306W        W 1632  33.659  24.156   2.353
29307W        W 1633  42.490  40.750   0.133
29308W        W 1634  36.298  34.873   1.830
29309W        W 1635  30.947  32.697   0.143
29310W        W 1636   5.262  38.930   0.529
29311W        W 1637  18.633  16.049  12.589
29312W        W 1638  32.256  25.620  13.038
29313W        W 1639  25.750  21.817   2.736
29314W        W 1640  18.212  28.706  12.034
29315W        W 1641   7.351   4.870   4.698
29316W        W 1642  14.772  23.582  13.664
29317W        W 1643  20.243   8.326  14.014
29318W        W 1644   9.379  17.987   2.745
29319W        W 1645  27.438  35.803  14.474
29320W        W 1646  34.405   3.828   3.121
29321W        W 1647  44.460   0.313  14.871
29322W        W 1648   5.460  32.579   1.735
29323W        W 1649  24.580   9.613  13.575
29324W        W 1650  31.478  33.074   4.237
29325W        W 1651  29.515  21.243   2.697
29326W        W 1652  37.465  28.005  11.621
29327W        W 1653  18.562  38.964  11.377
29328W        W 1654  44.902   1.960  13.358
29329W        W 1655  16.864  22.060   3.536
29330W        W 1656   5.460   4.904   0.986
29331W        W 1657  36.148  25.727   0.713
29332W        W 1658  24.987   6.775  14.661
29333W        W 1659  26.519  43.436   0.736
29334W        W 1660  16.006  26.486   2.913
29335W        W 1661   6.144  27.783  11.336
29336W        W 1662  24.031  30.680   2.294
29337W        W 1663  36.849  23.492   2.226
29338W        W 1664   9.927  10.172  14.897
29339W        W 1665  19.559  42.888   1.696
29340W        W 1666  31.930  27.957  10.729
29341W        W 1667  41.345   4.703  11.450
29342W        W 1668  29.643  27.346   3.884
29343W        W 1669  33.570  37.793  10.827
29344W        W 1670  40.069  39.393  11.831
29345W        W 1671   1.280  20.725   0.849
29346W        W 1672  27.158  31.817  11.828
29347W        W 1673  38.539  17.721  11.104
29348W        W 1674   8.776  12.068  12.635
29349W        W 1675   0.871   0.268   2.678
29350W        W 1676  32.536  26.502   1.338
29351W        W 1677  10.327   7.357   1.231
29352W        W 1678   1.322  12.404  12.180
29353W        W 1679   5.937   5.478   1.873
29354W        W 1680  29.942  26.229  11.076
29355W        W 1681  32.324   1.776  10.760
29356W        W 1682   7.423  41.833   4.145
29357W        W 1683   4.025  21.827   1.171
29358W        W 1684   0.998  35.462   0.293
29359W        W 1685  24.537  36.399  11.400
29360W        W 1686  26.621  15.927   2.231
29361W        W 1687  38.429  34.167  12.619
29362W        W 1688   4.906   0.397   0.364
29363W        W 1689  17.780   6.116  14.245
29364W        W 1690  21.279   0.221   1.264
29365W        W 1691  17.006  39.789  14.785
29366W        W 1692  16.523  26.155  12.291
29367W        W 1693  29.765   3.763   0.852
29368W        W 1694   3.961  31.050   1.515
29369W        W 1695  17.753  28.541  11.626
29370W        W 1696  43.732  38.127   2.168
29371W        W 1697  22.705  41.887   3.370
29372W        W 1698   4.776   9.450  11.510
29373W        W 1699   1.928  16.327   3.757
29374W        W 1700  43.860  43.757   2.845
29375W        W 1701   0.514  36.399   1.849
29376W        W 1702  27.976   0.244  12.191
29377W        W 1703  17.185  19.239   2.768
29378W        W 1704   8.929  28.694  12.960
29379W        W 1705  16.833  38.713  14.905
29380W        W 1706  36.811  34.405  13.891
29381W        W 1707   9.874   3.344  14.767
29382W        W 1708   3.662  44.543  12.491
29383W        W 1709   5.026   6.866  10.195
29384W        W 1710  33.510  11.825  10.811
29385W        W 1711  41.862  17.259   2.721
29386W        W 1712  18.130  33.669  10.442
29387W        W 1713  18.250  27.593   4.446
29388W        W 1714  22.732  33.906   1.531
29389W        W 1715  19.809   0.811  13.428
29390W        W 1716   5.903  43.844   4.644
29391W        W 1717  36.528  18.321  12.974
29392W        W 1718  42.355  42.919   0.747
29393W        W 1719  36.838  42.464  13.200
29394W        W 1720  38.978  11.775   0.725
29395W        W 1721  39.253  36.109   3.460
29396W        W 1722  33.588  30.502  14.041
29397W        W 1723   0.880  38.172  12.889
29398W        W 1724   8.149  22.081   0.491
29399W        W 1725  14.574  18.650   4.503
29400W        W 1726  11.084   2.282  14.844
29401W        W 1727  41.730  38.911   4.979
29402W        W 1728  26.119  42.216   0.310
29403W        W 1729  16.772  43.862   1.297
29404W        W 1730  14.464  44.714   3.824
29405W        W 1731   5.174   6.026   9.858
29406W        W 1732  12.228   7.408   3.080
29407W        W 1733   8.472  35.997   2.378
29408W        W 1734  25.094  13.832   1.311
29409W        W 1735  15.912  28.631  11.202
29410W        W 1736  15.191   0.421   3.654
29411W        W 1737  26.126  37.804  14.932
29412W        W 1738   2.258  31.139  14.352
29413W        W 1739  22.498  23.607   0.385
29414W        W 1740  19.205   8.414  12.602
29415W        W 1741  20.650  28.433   0.959
29416W        W 1742  38.980  36.703   0.828
29417W        W 1743  42.031  32.253  12.440
29418W        W 1744   9.662  11.230   4.656
29419W        W 1745  10.389  11.577  13.832
29420W        W 1746  15.300  43.792   4.100
29421W        W 1747  34.808  26.058  10.734
29422W        W 1748  24.434  38.364  10.516
29423W        W 1749  28.199  43.538   1.319
29424W        W 1750  11.318   8.325  12.344
29425W        W 1751   1.549  25.490  14.391
29426W        W 1752   7.122  31.377   2.200
29427W        W 1753  15.290   7.684  12.097
29428W        W 1754   1.924  23.072   4.126
29429W        W 1755  32.099   4.810   2.887
29430W        W 1756  32.560  37.557  12.570
29431W        W 1757   7.637  41.555   2.768
29432W        W 1758   6.394  38.221  10.874
29433W        W 1759  34.193   1.891   3.249
29434W        W 1760   2.876  35.333  14.863
29435W        W 1761  20.279  19.296   1.333
29436W        W 1762  44.206  13.214  11.871
29437W        W 1763  12.332  36.865   1.977
29438W        W 1764  42.481  41.128  12.805
29439W        W 1765  43.558   8.753  13.651
29440W        W 1766   1.022  35.939  13.217
29441W        W 1767  14.192   1.190   4.334
29442W        W 1768  31.008  31.429   2.158
29443W        W 1769  16.200  23.618  11.062
29444W        W 1770  26.825  29.127   4.496
29445W        W 1771  35.187  37.036  12.148
29446W        W 1772  34.403  28.491  11.077
29447W        W 1773  11.662   4.484  12.401
29448W        W 1774   3.178  42.483  12.921
29449W        W 1775   0.717  31.549   4.584
29450W        W 1776   1.297  10.639  12.148
29451W        W 1777  34.891  38.893   1.803
29452W        W 1778  32.138  31.952   4.721
29453W        W 1779  19.248   6.694   3.780
29454W        W 1780   6.334   6.920  12.023
29455W        W 1781   4.760  36.516  11.598
29456W        W 1782  30.295   8.546   1.290
29457W        W 1783  42.976  41.518  11.513
29458W        W 1784  24.004   5.742  13.419
29459W        W 1785  24.336  13.409  14.545
29460W        W 1786   7.196   7.938   4.011
29461W        W 1787  34.863  16.954   4.229
29462W        W 1788  30.592   8.715  12.821
29463W        W 1789  20.676  40.564   4.328
29464W        W 1790  29.008  17.951  14.446
29465W        W 1791   3.191  13.123   4.202
29466W        W 1792   0.253  25.078  11.622
29467W        W 1793  10.119  35.939  12.447
29468W        W 1794  20.262   0.866   4.626
29469W        W 1795  31.811   4.796   2.285
29470W        W 1796  15.102   6.740   0.052
29471W        W 1797  31.598  35.393  11.473
29472W        W 1798  28.680  23.692   4.734
29473W        W 1799  43.020  31.273   4.630
29474W        W 1800  13.258   5.813   4.534
29475W        W 1801   1.297  10.236   9.921
29476W        W 1802   7.161  30.489  11.455
29477W        W 1803  10.694  31.086   1.245
29478W        W 1804  26.532  24.153  11.257
29479W        W 1805   6.380  12.785   4.542
29480W        W 1806  15.033   0.735   2.197
29481W        W 1807  42.358  40.881   4.704
29482W        W 1808  37.992  34.124   1.832
29483W        W 1809  34.557   8.886  11.970
29484W        W 1810  12.624   6.873  11.685
29485W        W 1811  39.471  40.409   3.245
29486W        W 1812   9.126  16.207  14.938
29487W        W 1813  16.164  24.098   2.766
29488W        W 1814  41.936  10.915   2.216
29489W        W 1815  38.028   9.950   0.805
29490W        W 1816   8.436  14.785   4.065
29491W        W 1817   2.224  31.459   2.133
29492W        W 1818  10.461  35.558   4.685
29493W        W 1819  13.602  34.885  13.033
29494W        W 1820  42.737  36.099   1.980
29495W        W 1821  38.961  23.384  11.553
29496W        W 1822  20.661   5.866  10.725
29497W        W 1823  15.671  25.669   2.587
29498W        W 1824  18.090  19.658   0.338
29499W        W 1825  18.030  33.903   3.220
29500W        W 1826  36.283  21.687  11.631
29501W        W 1827   3.755  25.749   2.795
29502W        W 1828  42.274   5.461   0.393
29503W        W 1829  42.290   9.200   3.184
29504W        W 1830  38.476  21.043   4.316
29505W        W 1831  35.474   3.745  13.375
29506W        W 1832  40.432  28.739  12.602
29507W        W 1833  12.323  11.665   2.934
29508W        W 1834  30.650  36.472  11.581
29509W        W 1835  28.455   9.434  11.933
29510W        W 1836  26.834  24.954   0.164
29511W        W 1837   1.983  20.545   3.073
29512W        W 1838   6.770  43.920   3.738
29513W        W 1839  26.535  24.002   1.361
29514W        W 1840  16.362   1.006  11.863
29515W        W 1841  22.497  16.318  13.024
29516W        W 1842  38.263  29.737   0.721
29517W        W 1843  31.240  41.019  13.350
29518W        W 1844  35.905  23.631  13.821
29519W        W 1845  11.311   6.999  11.520
29520W        W 1846   5.183  41.308   2.850
29521W        W 1847   9.634  42.353   3.639
29522W        W 1848  11.343  26.282  13.553
29523W        W 1849  36.149  31.611  13.894
29524W        W 1850  16.689  26.805  10.818
29525W        W 1851  10.677  13.011   3.612
29526W        W 1852  40.479  11.761   2.642
29527W        W 1853  42.966  35.006  12.047
29528W        W 1854  37.457  10.611  13.415
29529W        W 1855   6.442   9.314  11.491
29530W        W 1856  12.249  35.115  12.604
29531W        W 1857  31.967   6.663   2.806
29532W        W 1858  25.580  27.385  10.988
29533W        W 1859  26.464  17.357  14.478
29534W        W 1860  15.546   2.775  12.501
29535W        W 1861  34.936  13.657   1.845
29536W        W 1862  11.093  41.301   1.454
29537W        W 1863  25.518  33.193  10.486
29538W        W 1864  41.315  27.047  10.885
29539W        W 1865  41.733   3.874   0.339
29540W        W 1866   9.167  18.244  11.151
29541W        W 1867  16.510  39.902  11.663
29542W        W 1868  13.822  16.660  11.509
29543W        W 1869  21.258  41.512   3.632
29544W        W 1870  27.037  43.356  10.890
29545W        W 1871  31.463  38.553   0.810
29546W        W 1872  13.461  37.561   2.383
29547W        W 1873  43.624  44.492  12.535
29548W        W 1874  16.730  33.513  11.572
29549W        W 1875  35.024  40.878   3.234
29550W        W 1876  34.851  32.181  14.916
29551W        W 1877  15.076   1.509  13.835
29552W        W 1878  44.280   7.446   0.531
29553W        W 1879  13.692  28.199  11.809
29554W        W 1880  38.567   3.015  12.949
29555W        W 1881   6.850  27.539  12.189
29556W        W 1882  29.226  41.333   2.468
29557W        W 1883  42.599   1.516   1.378
29558W        W 1884  41.295  19.799  11.918
29559W        W 1885  15.441  34.908  12.380
29560W        W 1886  22.079   1.498  12.883
29561W        W 1887  12.438  40.022   1.756
29562W        W 1888  30.644  33.852   2.429
29563W        W 1889  40.078   8.872  12.062
29564W        W 1890   7.714  13.245   3.150
29565W        W 1891  31.358  32.408   3.654
29566W        W 1892  12.389  36.603   4.156
29567W        W 1893  17.894  24.007   0.889
29568W        W 1894  24.581  26.561  11.552
29569W        W 1895  39.769  36.368  12.461
29570W        W 1896  38.924   5.666  14.644
29571W        W 1897   0.639  21.554  11.667
29572W        W 1898  26.616  15.773   3.141
29573W        W 1899  37.980  12.671   0.881
29574W        W 1900  26.397   3.898   4.230
29575W        W 1901  33.595  27.407  13.002
29576W        W 1902  23.521   2.677   1.217
29577W        W 1903  14.619  36.532  10.100
29578W        W 1904   0.247   2.571  11.402
29579W        W 1905  41.795   8.292  12.411
29580W        W 1906  19.046  15.073   0.855
29581W        W 1907   0.668  25.508  13.297
29582W        W 1908  15.335  40.475   0.693
29583W        W 1909  18.046   2.955   3.666
29584W        W 1910  25.296  42.089   4.174
29585W        W 1911  42.468  23.673  12.414
29586W        W 1912   4.999  24.007  13.954
29587W        W 1913   5.755   4.509   2.802
29588W        W 1914  39.250   5.373   3.306
29589W        W 1915  42.508  33.908   1.231
29590W        W 1916  13.591  27.461  13.113
29591W        W 1917  43.429   7.010  13.719
29592W        W 1918  23.507  39.635  14.459
29593W        W 1919  12.103  42.498  12.908
29594W        W 1920   7.698  44.520  10.798
29595W        W 1921  34.662  29.600  13.458
29596W        W 1922  44.890  26.577   1.669
29597W        W 1923  33.279   8.964   5.133
29598W        W 1924  12.391  20.145   0.717
29599W        W 1925  22.428  11.804   1.216
29600W        W 1926  28.008  29.637   0.289
29601W        W 1927   1.269  10.086  11.123
29602W        W 1928  28.623  15.215  13.069
29603W        W 1929  23.335   3.902   3.713
29604W        W 1930  18.145  26.536   4.118
29605W        W 1931  31.563  16.249   1.706
29606W        W 1932  39.518   6.927  12.083
29607W        W 1933  34.957  20.154   1.112
29608W        W 1934  14.264  19.758  12.076
29609W        W 1935  38.641  41.977  13.430
29610W        W 1936   5.399  18.487  11.205
29611W        W 1937  25.620  28.247  11.238
29612W        W 1938  33.343  25.258  13.348
29613W        W 1939   3.969  44.486  11.531
29614W        W 1940   3.380  43.597   1.908
29615W        W 1941  18.252   5.458   3.783
29616W        W 1942  12.548  22.073   3.621
29617W        W 1943   0.478  17.888  14.011
29618W        W 1944  20.594  23.749  13.873
29619W        W 1945  40.918  11.133   3.106
29620W        W 1946  25.950  25.082  13.883
29621W        W 1947  32.924  44.412   4.776
29622W        W 1948  17.070  36.944  12.328
29623W        W 1949  35.341  41.138   1.888
29624W        W 1950   5.953   9.743  10.900
29625W        W 1951  38.363   8.627   4.953
29626W        W 1952   5.911  41.524  14.439
29627W        W 1953  43.027  29.847   4.118
29628W        W 1954  17.794  19.664   0.770
29629W        W 1955  11.036  18.696   3.301
29630W        W 1956   7.404  11.720  14.129
29631W        W 1957  32.664  29.588   1.970
29632W        W 1958  25.952  13.187   1.202
29633W        W 1959  40.036  27.528  11.084
29634W        W 1960  23.103  11.275   1.513
29635W        W 1961   1.748  13.926  11.104
29636W        W 1962  28.621  27.538  11.735
29637W        W 1963  41.037  14.748  14.390
29638W        W 1964  33.458  26.836   3.018
29639W        W 1965  30.025   5.170   0.513
29640W        W 1966  24.914  29.482  12.994
29641W        W 1967  13.728  36.687   9.698
29642W        W 1968  16.531  17.243   3.387
29643W        W 1969   3.272  25.785   3.691
29644W        W 1970   9.465  39.559  11.210
29645W        W 1971  17.204  14.779  14.310
29646W        W 1972  16.960  29.513   2.189
29647W        W 1973  33.463  14.155   0.312
29648W        W 1974  35.284  43.907   0.626
29649W        W 1975   8.792  40.414  12.459
29650W        W 1976   9.794   5.963  13.906
29651W        W 1977  15.201  24.700  14.444
29652W        W 1978  16.053  14.875  14.272
29653W        W 1979   6.608  23.430   5.058
29654W        W 1980  35.326  11.875   3.398
29655W        W 1981  15.674  27.598  11.258
29656W        W 1982  13.742  32.533  10.466
29657W        W 1983  44.727  40.646   1.622
29658W        W 1984  37.160  10.714   5.108
29659W        W 1985  37.088  35.104  14.413
29660W        W 1986  11.915  29.762   4.137
29661W        W 1987  30.632  36.564  14.803
29662W        W 1988  27.898  43.793  13.858
29663W        W 1989   4.088  34.123   0.941
29664W        W 1990  27.040  28.057  10.737
29665W        W 1991  33.790  41.697   4.113
29666W        W 1992  35.481  20.812  14.105
29667W        W 1993  42.228  43.355  14.896
29668W        W 1994  14.190  21.179   3.636
29669W        W 1995  30.911  27.011   4.395
29670W        W 1996  32.177  39.586   9.887
29671W        W 1997  37.578  11.786  14.324
29672W        W 1998  32.019   3.988   1.009
29673W        W 1999   8.212  32.052  12.700
29674W        W 2000  36.766  16.757  11.584
29675W        W 2001  16.122   2.122   2.152
29676W        W 2002  44.230  13.154   3.137
29677W        W 2003  18.763   6.374   2.363
29678W        W 2004  28.189  15.677  12.295
29679W        W 2005  25.939   4.349  12.497
29680W        W 2006  36.387  38.263   0.372
29681W        W 2007   8.898   8.233  12.556
29682W        W 2008   3.373  41.268   0.301
29683W        W 2009  36.314  36.618   4.300
29684W        W 2010  14.591  38.431   1.000
29685W        W 2011  27.096  38.212  12.383
29686W        W 2012   1.131   0.749   5.080
29687W        W 2013  13.643  31.004  13.742
29688W        W 2014   6.307  12.405   1.351
29689W        W 2015  20.653  32.964  13.367
29690W        W 2016  29.662  20.325   2.147
29691W        W 2017  13.183   8.316   2.390
29692W        W 2018  12.369  25.157  10.921
29693W        W 2019   7.014  41.385   3.322
29694W        W 2020  31.459   8.484  13.452
29695W        W 2021  44.188  10.129  11.124
29696W        W 2022   5.945  29.910   3.734
29697W        W 2023   1.354  31.652   4.089
29698W        W 2024  15.303  20.236  13.124
29699W        W 2025   3.326  31.207  11.950
29700W        W 2026   3.241  21.041  11.266
29701W        W 2027  31.678   6.204  12.361
29702W        W 2028  17.992   1.711  14.036
29703W        W 2029  33.465  37.570   1.481
29704W        W 2030  31.687   8.099  11.229
29705W        W 2031  23.524  35.668  12.148
29706W        W 2032  21.271  24.744  10.824
29707W        W 2033   3.240  25.008  10.569
29708W        W 2034  22.777  35.957  11.279
29709W        W 2035  40.446  34.224   3.509
29710W        W 2036  21.189  41.225   0.800
29711W        W 2037  10.325  37.363  14.391
29712W        W 2038  18.967   2.878   2.532
29713W        W 2039  28.461  26.972  12.857
29714W        W 2040  39.723  12.203   3.093
29715W        W 2041   9.352  28.953   2.279
29716W        W 2042  27.401  29.635   1.159
29717W        W 2043   0.325   8.405  11.110
29718W        W 2044  25.658  29.153  14.305
29719W        W 2045  27.685  19.666  10.365
29720W        W 2046  26.232  26.327  14.767
29721W        W 2047   5.997  33.529  11.910
29722W        W 2048  38.205  11.375  14.775
29723W        W 2049  35.679  23.686  11.514
29724W        W 2050  24.749  10.921   3.643
29725W        W 2051  15.277  21.270   1.876
29726W        W 2052  41.077  38.828  12.611
29727W        W 2053  40.583  10.884  13.312
29728W        W 2054   2.183   9.880  12.296
29729W        W 2055  37.930  39.276  12.643
29730W        W 2056  43.824  17.121   0.400
29731W        W 2057  24.429  24.072   1.735
29732W        W 2058  21.134   3.315  13.420
29733W        W 2059  34.338  34.895   2.831
29734W        W 2060  29.161  22.988   4.929
29735W        W 2061  18.557  31.412   3.344
29736W        W 2062   3.019  18.109  13.768
29737W        W 2063  10.737  31.108  13.562
29738W        W 2064  36.355  32.282   3.253
29739W        W 2065  35.547  40.302  11.597
29740W        W 2066  11.748  37.850   4.785
29741W        W 2067  37.018   5.221   4.105
29742W        W 2068  36.086   8.817  13.095
29743W        W 2069  36.365  31.503   2.345
29744W        W 2070  15.525  26.562   0.738
29745W        W 2071   9.771  23.206  14.401
29746W        W 2072   5.955  14.688   4.476
29747W        W 2073  28.011  14.015  10.429
29748W        W 2074   0.009  34.462  12.774
29749W        W 2075  26.762  30.946   2.305
29750W        W 2076  20.832  15.233  11.172
29751W        W 2077  28.087  29.063  12.123
29752W        W 2078   8.758  32.924   1.708
29753W        W 2079  18.384  38.131   1.827
29754W        W 2080  38.633  17.987  12.349
29755W        W 2081  22.542   8.083   3.792
29756W        W 2082  30.424  21.529   4.257
29757W        W 2083  19.255   0.642  11.229
29758W        W 2084  10.376  38.660   4.355
29759W        W 2085  21.147   7.769   1.392
29760W        W 2086   5.679  43.432   1.760
29761W        W 2087  12.604  27.818   0.793
29762W        W 2088  38.597  35.053  12.408
29763W        W 2089  33.500  21.452   1.954
29764W        W 2090   1.308  37.746  14.980
29765W        W 2091  20.044   5.015  12.086
29766W        W 2092   3.481  42.808  12.575
29767W        W 2093   3.284  33.411  12.990
29768W        W 2094  25.655  27.608   1.984
29769W        W 2095  43.852   9.941   2.536
29770W        W 2096  37.225  19.790   5.088
29771W        W 2097  10.135  11.611   0.887
29772W        W 2098  19.532  12.269   3.878
29773W        W 2099  36.053  10.404  10.266
29774W        W 2100  38.906  11.478  14.512
29775W        W 2101  42.812  34.316   1.384
29776W        W 2102  41.350  37.279  14.895
29777W        W 2103  12.026  41.527  12.053
29778W        W 2104  12.425  32.928   4.862
29779W        W 2105  16.324   5.327   0.911
29780W        W 2106  34.225   6.911   0.052
29781W        W 2107  13.941   4.700   3.778
29782W        W 2108   6.640   1.733   1.784
29783W        W 2109  29.827  19.669  13.929
29784W        W 2110  20.123   4.959   2.595
29785W        W 2111  37.919  23.618  13.337
29786W        W 2112   4.621  41.772   0.388
29787W        W 2113  11.969  22.997  11.649
29788W        W 2114  17.647  36.842   1.794
29789W        W 2115   8.430  15.131  13.977
29790W        W 2116   2.059  35.735  13.087
29791W        W 2117  43.340  23.932  10.710
29792W        W 2118  12.671  35.393   3.670
29793W        W 2119   3.969  16.746  13.374
29794W        W 2120  24.463  14.793  12.425
29795W        W 2121   7.206  11.121  12.503
29796W        W 2122  13.584  35.986  12.548
29797W        W 2123  27.919  17.062   0.520
29798W        W 2124   8.359   7.181   2.935
29799W        W 2125  29.019  36.323   2.858
29800W        W 2126  21.875  19.132   4.931
29801W        W 2127   6.257   0.948   1.155
29802W        W 2128  24.645  18.190  10.660
29803W        W 2129  29.975   0.743   4.099
29804W        W 2130  30.131  21.753  12.592
29805W        W 2131  39.035  16.205  11.416
29806W        W 2132  34.954  29.208  12.671
29807W        W 2133  40.101  18.776  12.196
29808W        W 2134  21.228  44.505   4.150
29809W        W 2135  32.867  21.919  11.045
29810W        W 2136  40.760  39.817   3.127
29811W        W 2137  38.296  25.733   1.380
29812W        W 2138   4.818  11.014  10.186
29813W        W 2139  27.200  24.084  14.740
29814W        W 2140  23.972   0.359   2.884
29815W        W 2141  36.129  25.578   1.600
29816W        W 2142  15.120  26.266  12.519
29817W        W 2143  20.742   2.028  11.729
29818W        W 2144  32.372  37.413  13.511
29819W        W 2145  32.604  14.059  12.359
29820W        W 2146   3.896  39.989  12.704
29821W        W 2147  27.537  44.527  13.410
29822W        W 2148  25.726  25.033  12.003
29823W        W 2149   8.123   4.320  12.991
29824W        W 2150   5.268   5.410   4.097
29825W        W 2151  40.774  10.884  14.373
29826W        W 2152  34.838  22.160  13.330
29827W        W 2153   2.167  17.603   3.078
29828W        W 2154  24.085  40.068   0.736
29829W        W 2155  34.464  28.922   1.455
29830W        W 2156   3.650   1.558  10.084
29831W        W 2157  23.298   7.699  13.315
29832W        W 2158  42.236  27.535  12.873
29833W        W 2159   2.709  12.759   3.650
29834W        W 2160  40.734   4.723  10.733
29835W        W 2161  38.874   7.483  10.656
29836W        W 2162  24.816  20.713  14.323
29837W        W 2163  43.512  40.302   1.150
29838W        W 2164  23.069   6.716  13.416
29839W        W 2165  30.175   4.177  12.146
29840W        W 2166  42.877   7.858   3.641
29841W        W 2167  27.709  16.127   0.894
29842W        W 2168  24.613  13.084   3.275
29843W        W 2169   2.866  42.120   2.648
29844W        W 2170  12.681  28.735   1.484
29845W        W 2171  31.359  43.770   1.885
29846W        W 2172  21.438  20.083   3.265
29847W        W 2173  11.702  26.926   4.060
29848W        W 2174   4.359  18.991   4.852
29849W        W 2175  21.718  23.981   2.317
29850W        W 2176  12.057  10.831  12.049
29851W        W 2177  34.792  37.544   4.602
29852W        W 2178  14.645  19.994  10.584
29853W        W 2179   5.418  41.567   1.392
29854W        W 2180  14.213  20.914   3.165
29855W        W 2181  26.369  38.677   1.371
29856W        W 2182   4.307  44.402   4.644
29857W        W 2183   6.307  38.795  13.352
29858W        W 2184  37.887   0.158  13.616
29859W        W 2185   6.968  43.545  14.362
29860W        W 2186   9.521  26.701   4.515
29861W        W 2187  10.677  38.808   3.194
29862W        W 2188  32.659  32.048   4.863
29863W        W 2189  11.979  21.517  13.753
29864W        W 2190  31.865  26.646  11.223
29865W        W 2191   7.588  18.332   5.093
29866W        W 2192  44.882   2.271   3.235
29867W        W 2193  43.257  36.426  14.318
29868W        W 2194  43.833  29.469   4.133
29869W        W 2195  38.043  13.456   1.332
29870W        W 2196  38.494  29.603  11.623
29871W        W 2197  36.461   8.755   0.788
29872W        W 2198  29.343  15.587   4.149
29873W        W 2199   7.905  26.062  14.856
29874W        W 2200   1.288  43.802  10.444
29875W        W 2201  14.134   6.995   3.855
29876W        W 2202  13.278  10.737   2.339
29877W        W 2203  21.487   3.419   4.532
29878W        W 2204  28.074   7.185   4.107
29879W        W 2205  14.893  25.514   3.793
29880W        W 2206  26.990   3.224  12.131
29881W        W 2207  14.093   9.919  11.142
29882W        W 2208  21.862  31.505   0.807
29883W        W 2209  37.381  19.303   4.884
29884W        W 2210  24.947  23.528   3.108
29885W        W 2211  36.096   4.009  13.381
29886W        W 2212   5.674   1.308  12.050
29887W        W 2213  16.768  16.409  13.031
29888W        W 2214  35.835  16.543   4.270
29889W        W 2215  13.544   6.802  13.856
29890W        W 2216  22.780  38.880   3.063
29891W        W 2217  36.475   7.471  11.074
29892W        W 2218  41.488  37.550  14.415
29893W        W 2219  36.769  18.184  11.357
29894W        W 2220  32.215  16.647  12.117
29895W        W 2221   6.417  28.219   4.743
29896W        W 2222  14.281  25.100   1.533
29897W        W 2223  33.570  31.134   0.799
29898W        W 2224  22.152  18.164   4.829
29899W        W 2225  36.021  43.317   3.696
29900W        W 2226  21.746  15.654  11.128
29901W        W 2227   4.008  26.110   2.478
29902W        W 2228  39.097  13.304  14.588
29903W        W 2229   4.403  19.186   2.869
29904W        W 2230  15.617  31.847  13.928
29905W        W 2231  32.265  18.186   1.709
29906W        W 2232  15.466  25.661   3.358
29907W        W 2233  30.408   3.107  11.230
29908W        W 2234  18.018   3.239  13.128
29909W        W 2235  16.550  36.628  12.009
29910W        W 2236  33.609  11.880  13.405
29911W        W 2237  36.796  39.184  14.888
29912W        W 2238  38.057  42.319  13.938
29913W        W 2239   8.633  32.481  12.895
29914W        W 2240  10.736  15.359   3.406
29915W        W 2241   7.457  41.882   4.668
29916W        W 2242  35.482  37.125  11.570
29917W        W 2243  44.379  39.056  11.037
29918W        W 2244  13.813  36.500  14.907
29919W        W 2245  23.452   2.797  11.053
29920W        W 2246  33.962  22.053   2.349
29921W        W 2247   4.300   1.422   4.146
29922W        W 2248   5.797  13.253   0.559
29923W        W 2249   5.495  29.610  13.510
29924W        W 2250   0.731  29.617   4.113
29925W        W 2251  31.727  24.082  14.400
29926W        W 2252  14.373  19.473   0.407
29927W        W 2253  30.010  25.609  13.626
29928W        W 2254   9.322   0.048   1.329
29929W        W 2255  29.414  44.890   2.233
29930W        W 2256  41.999   3.452   4.881
29931W        W 2257   8.158  34.773  14.976
29932W        W 2258  44.623   1.010   1.865
29933W        W 2259  33.985  15.171  14.259
29934W        W 2260  34.144  23.115  11.165
29935W        W 2261  35.810  13.887   1.790
29936W        W 2262  21.955   1.366   0.964
29937W        W 2263  20.388  33.933  13.448
29938W        W 2264   3.002  24.023   1.876
29939W        W 2265  14.915   2.584   4.158
29940W        W 2266  28.058  27.226  11.709
29941W        W 2267  44.877  36.444   4.830
29942W        W 2268  15.316  30.880  14.825
29943W        W 2269   3.791  25.079  11.448
29944W        W 2270   6.264  22.633   4.099
29945W        W 2271  19.972  38.916  13.012
29946W        W 2272  26.509  36.513   3.135
29947W        W 2273   9.969  28.493   1.934
29948W        W 2274  10.151   4.228   3.749
29949W        W 2275   3.737  34.363  11.127
29950W        W 2276  21.960  35.270   1.755
29951W        W 2277  26.032  41.349   3.853
29952W        W 2278   6.415  18.518   1.433
29953W        W 2279  11.948   5.300  14.723
29954W        W 2280  32.880  23.207  13.908
29955W        W 2281  20.326  16.681   4.052
29956W        W 2282   0.603  14.766  11.864
29957W        W 2283  10.072  20.628  11.140
29958W        W 2284  30.673  14.133   3.633
29959W        W 2285  32.503  33.244   0.805
29960W        W 2286   2.179  44.870   3.751
29961W        W 2287   6.801  42.284  14.840
29962W        W 2288  25.701  18.113   4.274
29963W        W 2289  11.962  42.577   2.577
29964W        W 2290  41.033  27.019   1.263
29965W        W 2291  40.071  27.780  11.974
29966W        W 2292  10.654   4.244   2.334
29967W        W 2293  41.141  35.716  12.065
29968W        W 2294  41.021  22.706  10.476
29969W        W 2295   0.334  17.283  13.542
29970W        W 2296  17.258  44.010  12.385
29971W        W 2297  34.347  30.003  12.968
29972W        W 2298  43.888  18.423  14.780
29973W        W 2299   5.814  43.860  10.851
29974W        W 2300  11.730   9.105  12.074
29975W        W 2301  19.050  44.697  13.354
29976W        W 2302  20.513  17.865   4.285
29977W        W 2303  39.067   2.853  14.760
29978W        W 2304  23.167  39.076   1.360
29979W        W 2305  22.697  30.012   0.179
29980W        W 2306  20.125  37.528  10.593
29981W        W 2307  44.743   3.041   0.599
29982W        W 2308  34.042  44.240  11.105
29983W        W 2309  18.888  26.118   4.578
29984W        W 2310  29.846  24.164   2.767
29985W        W 2311  27.073   9.211  11.008
29986W        W 2312  35.666   6.154  12.459
29987W        W 2313  44.255  34.615  10.564
29988W        W 2314  14.234  42.212  11.492
29989W        W 2315  10.822  36.377   1.535
29990W        W 2316  16.606  32.598   4.024
29991W        W 2317   0.641  27.557  13.546
29992W        W 2318  21.157  11.077  13.256
29993W        W 2319  41.000  23.968  10.673
29994W        W 2320  29.082   6.437   1.885
29995W        W 2321  41.430  43.486   0.294
29996W        W 2322  10.651  44.277   2.703
29997W        W 2323   5.362  34.193   1.621
29998W        W 2324   3.727  32.769  12.097
29999W        W 2325  39.118  11.366   2.833
30000W        W 2326  30.816  10.262  13.372
30001W        W 2327  40.321  23.145  11.570
30002W        W 2328  42.808   0.868  13.381
30003W        W 2329  12.583   1.784  11.619
30004W        W 2330  24.541   4.924   0.504
30005W        W 2331  31.637  21.055   1.750
30006W        W 2332  37.535  10.174  11.972
30007W        W 2333  43.035  14.633  13.478
30008W        W 2334  20.161   7.904  12.837
30009W        W 2335  13.194  32.996   2.336
30010W        W 2336  37.151  16.017   2.277
30011W        W 2337  26.232  11.091   0.328
30012W        W 2338   6.806  42.286  13.052
30013W        W 2339  21.340  14.180  12.518
30014W        W 2340  13.832   1.367  12.457
30015W        W 2341  14.183  25.081  11.397
30016W        W 2342   3.395   4.714   4.667
30017W        W 2343  25.427  40.302   3.771
30018W        W 2344  42.980   6.966   0.969
30019W        W 2345  18.496  44.492  11.690
30020W        W 2346  33.103   3.582   1.708
30021W        W 2347   5.788   0.441  11.813
30022W        W 2348  30.482   8.763   0.196
30023W        W 2349  32.259  10.155   1.476
30024W        W 2350  41.946   5.166  11.876
30025W        W 2351  42.518  20.129   4.013
30026W        W 2352  20.816  30.916  13.775
30027W        W 2353  26.640  19.215   0.645
30028W        W 2354  20.117  11.004  10.096
30029W        W 2355  42.168  39.048   3.416
30030W        W 2356  39.966  15.016  13.897
30031W        W 2357  41.401  24.741  11.664
30032W        W 2358   4.738  42.304   2.885
30033W        W 2359  26.619   7.399   2.759
30034W        W 2360  42.830  31.226   4.154
30035W        W 2361  40.265  17.281   3.830
30036W        W 2362  19.280   0.174  11.405
30037W        W 2363  40.428  35.050   2.456
30038W        W 2364  40.657  43.093  14.847
30039W        W 2365   3.239   3.883   4.191
30040W        W 2366  40.542   8.178  14.271
30041W        W 2367  15.077  24.629   2.321
30042W        W 2368  18.529  41.330  12.095
30043W        W 2369  19.445  44.825   1.455
30044W        W 2370   9.278  25.493   0.500
30045W        W 2371  29.647  19.302  10.314
30046W        W 2372  42.481   0.887   4.584
30047W        W 2373  36.637  25.328   4.271
30048W        W 2374  15.655   7.282  11.100
30049W        W 2375   7.761  26.567   0.340
30050W        W 2376  26.487   5.395   3.003
30051W        W 2377  15.414  37.337   1.374
30052W        W 2378  27.450  11.652   3.656
30053W        W 2379  30.998  35.577   0.961
30054W        W 2380   0.069  31.655  10.816
30055W        W 2381   0.503  25.910   0.158
30056W        W 2382  23.875  18.068   1.070
30057W        W 2383  10.667  40.887  11.724
30058W        W 2384  33.822  16.104   2.573
30059W        W 2385  10.829  27.644  10.325
30060W        W 2386  33.778  16.929  12.673
30061W        W 2387   9.926   6.578   5.081
30062W        W 2388   2.962  20.363   4.125
30063W        W 2389  14.306  40.286  12.499
30064W        W 2390  39.740  44.430  11.210
30065W        W 2391  25.692  22.557  11.628
30066W        W 2392  41.127  26.406   1.551
30067W        W 2393  35.895   9.920  13.960
30068W        W 2394  29.707   8.273  13.412
30069W        W 2395  33.502  35.674   9.710
30070W        W 2396  44.383  40.398  10.490
30071W        W 2397  13.746   5.924   1.772
30072W        W 2398  17.344  10.878  14.302
30073W        W 2399   1.017  41.532   3.708
30074W        W 2400  41.373   8.779  10.676
30075W        W 2401  40.446  42.426  14.768
30076W        W 2402  35.388  33.486  12.540
30077W        W 2403  19.301  33.811  14.422
30078W        W 2404   3.835  37.775   5.111
30079W        W 2405  14.816  39.489   0.894
30080W        W 2406  30.914   1.451   1.871
30081W        W 2407  15.141  23.166   1.830
30082W        W 2408  23.742  28.637   4.123
30083W        W 2409   3.965  41.380   0.815
30084W        W 2410  31.013  32.875   4.982
30085W        W 2411  42.957  20.799  13.386
30086W        W 2412  40.444  21.630  12.551
30087W        W 2413  15.342   8.721  11.667
30088W        W 2414  35.871  33.516   3.439
30089W        W 2415  32.856  26.655   0.285
30090W        W 2416   4.804  28.881  14.061
30091W        W 2417  36.778  41.109  13.519
30092W        W 2418  22.071  11.653  14.368
30093W        W 2419  14.158   2.896   2.879
30094W        W 2420  12.736  41.278  14.423
30095W        W 2421  19.748  14.624  11.701
30096W        W 2422  19.727  32.697  11.916
30097W        W 2423  14.734  32.008  13.848
30098W        W 2424  13.810  13.105   1.944
30099W        W 2425   8.055  30.384  13.753
30100W        W 2426  21.690   1.620  12.536
30101W        W 2427  44.978   0.618   1.839
30102W        W 2428  34.586  34.117  12.309
30103W        W 2429  43.006  39.884  14.212
30104W        W 2430  10.495  10.571  11.855
30105W        W 2431  38.773  38.079   3.640
30106W        W 2432  35.266  44.957   3.702
30107W        W 2433  38.128  33.479  11.531
30108W        W 2434  42.506  32.476  14.973
30109W        W 2435  40.508  18.480  10.836
30110W        W 2436   6.813  39.917   2.109
30111W        W 2437  30.504   9.830   2.761
30112W        W 2438  13.946   2.542   4.152
30113W        W 2439  18.604  18.759  11.557
30114W        W 2440  32.827  11.312   0.673
30115W        W 2441   1.386  32.156   4.005
30116W        W 2442   7.945  41.959  11.645
30117W        W 2443   0.768  38.858   2.813
30118W        W 2444  22.549  39.963  12.822
30119W        W 2445   7.695  28.252  11.919
30120W        W 2446  34.479  15.455   2.131
30121W        W 2447   2.306  30.603   2.653
30122W        W 2448  27.181  17.462  13.205
30123W        W 2449  42.824  25.585   3.546
30124W        W 2450   0.108   1.257  10.694
30125W        W 2451  28.506  14.350  11.011
30126W        W 2452   4.996  30.862  14.858
30127W        W 2453  31.660  31.185  14.813
30128W        W 2454  13.069   9.769   2.613
30129W        W 2455   0.365  23.095   2.294
30130W        W 2456  44.910  34.850   3.671
30131W        W 2457  17.193  40.948  11.425
30132W        W 2458  32.203  44.928   4.792
30133W        W 2459  37.533   4.914  13.784
30134W        W 2460  19.245  35.016   3.512
30135W        W 2461  41.544  18.659   3.245
30136W        W 2462  27.567  39.078   0.863
30137W        W 2463  38.181  12.402   4.085
30138W        W 2464  23.509   6.549  11.666
30139W        W 2465  31.567   3.193   3.388
30140W        W 2466  14.548   3.690   0.748
30141W        W 2467  25.672  14.245   3.508
30142W        W 2468  38.340  31.351   1.926
30143W        W 2469   5.968   5.418   3.636
30144W        W 2470  38.474   7.304   2.813
30145W        W 2471  35.886  43.863   2.626
30146W        W 2472  38.492   4.420   4.584
30147W        W 2473  10.167  19.134  11.292
30148W        W 2474  27.557  11.642   4.147
30149W        W 2475  37.576  11.994   2.290
30150W        W 2476  43.602   5.909   0.695
30151W        W 2477   7.130  21.808  11.428
30152W        W 2478  42.406   5.491  10.772
30153W        W 2479  35.081   8.837   2.713
30154W        W 2480   8.613   3.252   1.766
30155W        W 2481   1.912  20.816  10.595
30156W        W 2482  16.504  32.259  11.222
30157W        W 2483  17.292   7.217  13.269
30158W        W 2484  39.058  44.505   1.339
30159W        W 2485  37.126  15.213   0.669
30160W        W 2486  25.683  24.285   3.259
30161W        W 2487   8.672  32.051   2.044
30162W        W 2488   6.788  20.802   4.104
30163W        W 2489  33.900  28.908  14.221
30164W        W 2490  15.950  15.528  11.042
30165W        W 2491  12.463  28.783  14.973
30166W        W 2492  26.457   9.732   4.920
30167W        W 2493  17.509  13.054  14.756
30168W        W 2494  30.408  35.147  11.620
30169W        W 2495  14.735   8.457   1.916
30170W        W 2496  24.725   4.918   3.599
30171W        W 2497  23.690   7.778  12.830
30172W        W 2498  25.490  27.488   2.954
30173W        W 2499  34.140  26.917  14.756
30174W        W 2500  32.066  13.783  10.719
30175W        W 2501  27.544  15.588   2.708
30176W        W 2502  28.847   1.225  11.934
30177W        W 2503  22.673   1.975   0.765
30178W        W 2504  38.473   4.266  11.368
30179W        W 2505  10.679   3.597   0.827
30180W        W 2506  18.213  15.704  13.601
30181W        W 2507  20.745  44.160   2.982
30182W        W 2508  38.638  33.189   4.082
30183W        W 2509  23.734  39.344   1.797
30184W        W 2510  25.097  39.018   1.689
30185W        W 2511  34.349  40.937  14.457
30186W        W 2512  23.373   7.380   4.619
30187W        W 2513  41.298  11.161   2.759
30188W        W 2514  16.917   6.993  12.326
30189W        W 2515  40.667  37.831  11.168
30190W        W 2516  17.660  36.392   4.676
30191W        W 2517   5.742  26.610  12.305
30192W        W 2518  32.014   0.929  12.099
30193W        W 2519  10.287   5.098   0.359
30194W        W 2520  39.287  33.958   3.623
30195W        W 2521   7.838  26.022   1.685
30196W        W 2522  14.746  37.955  13.229
30197W        W 2523  33.804  31.158   0.334
30198W        W 2524   2.849   9.203  10.132
30199W        W 2525  26.748  31.592  13.489
30200W        W 2526  41.375  24.149   4.608
30201W        W 2527  36.756  32.862   2.485
30202W        W 2528  19.096   3.718   0.483
30203W        W 2529   6.322  10.951  11.232
30204W        W 2530   6.692  32.489  10.989
30205W        W 2531   4.438  39.583  10.801
30206W        W 2532  42.262   9.203  13.870
30207W        W 2533  27.163  23.794   0.687
30208W        W 2534  29.653   3.421   3.648
30209W        W 2535   0.462  33.514  14.439
30210W        W 2536  15.563  24.125   1.323
30211W        W 2537  15.422  44.424   3.783
30212W        W 2538  39.494   6.367  13.085
30213W        W 2539  27.128  14.187  13.320
30214W        W 2540  20.532  22.261  12.458
30215W        W 2541  28.180  19.590  12.461
30216W        W 2542  17.145  22.397  10.365
30217W        W 2543  20.822  23.174   4.550
30218W        W 2544  19.278  16.744   3.292
30219W        W 2545  15.677   5.127   4.502
30220W        W 2546  17.342  15.478  13.742
30221W        W 2547  20.506  26.694  11.168
30222W        W 2548  40.600  15.126  13.372
30223W        W 2549   2.212  21.144   0.766
30224W        W 2550   1.457  43.276   2.245
30225W        W 2551  24.208  22.684   2.421
30226W        W 2552   6.918   9.365   4.937
30227W        W 2553  21.376   3.252  12.474
30228W        W 2554  13.842  13.108   4.124
30229W        W 2555  20.076   7.892  14.244
30230W        W 2556  21.184  40.381   0.434
30231W        W 2557  26.525  15.550  14.773
30232W        W 2558  42.688  44.357   1.282
30233W        W 2559  24.798  22.316  14.350
30234W        W 2560  28.243  22.259  13.585
30235W        W 2561  12.272  14.507   0.966
30236W        W 2562  31.940  20.621   0.597
30237W        W 2563  35.250  40.546  14.030
30238W        W 2564  35.941   9.705   3.058
30239W        W 2565  31.874  34.380  12.810
30240W        W 2566  41.837   1.534   5.028
30241W        W 2567  44.962  26.922  12.432
30242W        W 2568  16.498   5.325  12.086
30243W        W 2569  14.053  44.060   0.780
30244W        W 2570  26.486  30.518  10.776
30245W        W 2571   6.813  20.719  12.482
30246W        W 2572  25.744  21.007   0.959
30247W        W 2573  31.574  37.036   4.714
30248W        W 2574  27.946   6.295   0.096
30249W        W 2575  23.505  12.478   4.457
30250W        W 2576  25.261  42.289   2.756
30251W        W 2577  24.317  18.304   1.856
30252W        W 2578  42.424  17.115  10.674
30253W        W 2579  29.680  39.805  13.916
30254W        W 2580  40.451  26.211   0.522
30255W        W 2581  29.490  19.555   0.876
30256W        W 2582   8.535  30.183   0.256
30257W        W 2583  28.288  29.053   0.599
30258W        W 2584  31.083  42.017   2.318
30259W        W 2585  10.319   5.223  11.485
30260W        W 2586  29.981  23.687   1.388
30261W        W 2587  34.137  24.181  12.231
30262W        W 2588  12.773  29.744   2.226
30263W        W 2589  35.766   4.170  12.537
30264W        W 2590   2.313  22.277  13.564
30265W        W 2591  12.966  10.576  11.673
30266W        W 2592  18.148  24.048   2.705
30267W        W 2593  20.490   2.650  12.867
30268W        W 2594  42.290   0.283   1.791
30269W        W 2595  32.440  11.290   4.080
30270W        W 2596  37.303  17.368   1.184
30271W        W 2597  14.337  18.757   1.393
30272W        W 2598  32.580   0.265  10.623
30273W        W 2599   6.218  39.535  12.845
30274W        W 2600  14.564  44.011  11.371
30275W        W 2601   5.450   8.280  12.642
30276W        W 2602  18.008  14.697   2.570
30277W        W 2603  21.792  22.935  10.990
30278W        W 2604   1.446  25.422  11.491
30279W        W 2605  33.429  17.263  12.461
30280W        W 2606   9.604   8.827  12.441
30281W        W 2607  28.956   8.862  14.439
30282W        W 2608  31.060   3.660  12.017
30283W        W 2609  30.084  16.517  10.705
30284W        W 2610  23.205  36.064  13.029
30285W        W 2611  43.659  40.218  10.055
30286W        W 2612  19.364  25.224  12.917
30287W        W 2613  15.845  11.206   0.820
30288W        W 2614  41.315   2.745   4.479
30289W        W 2615  29.977  36.088  11.748
30290W        W 2616  30.414  22.549   4.603
30291W        W 2617  29.671   5.988  14.534
30292W        W 2618  44.942   8.247   4.757
30293W        W 2619  12.191  20.812   2.870
30294W        W 2620  18.932   1.663  10.990
30295W        W 2621  24.580  29.053   4.030
30296W        W 2622   9.163  15.092  13.445
30297W        W 2623   5.880  18.572  13.126
30298W        W 2624  36.345   0.240   1.725
30299W        W 2625  20.301  17.511  11.120
30300W        W 2626  31.011  10.763  11.874
30301W        W 2627   7.472  22.022   4.207
30302W        W 2628  35.054  20.981   4.800
30303W        W 2629  41.600  15.826   3.608
30304W        W 2630  39.950  21.146   3.558
30305W        W 2631  14.132  18.871  13.778
30306W        W 2632  35.212  29.614  12.459
30307W        W 2633   0.624  35.747  11.207
30308W        W 2634  30.586  41.807  13.517
30309W        W 2635   8.148  35.363  10.748
30310W        W 2636   0.892  44.394   1.707
30311W        W 2637  32.908  31.081   1.421
30312W        W 2638  13.702  27.430   3.271
30313W        W 2639   7.454  24.184   3.564
30314W        W 2640  28.171  24.665   3.328
30315W        W 2641  39.608   8.951  14.842
30316W        W 2642  23.707   8.303  12.659
30317W        W 2643  27.863  39.502   0.937
30318W        W 2644  13.078  22.045  10.747
30319W        W 2645   6.876  10.634  10.661
30320W        W 2646  16.008  15.886  10.689
30321W        W 2647  39.738  42.075  11.164
30322W        W 2648  21.807   4.335  14.794
30323W        W 2649  11.308  44.042   3.646
30324W        W 2650  39.477  34.161   2.715
30325W        W 2651   2.931  30.613  11.793
30326W        W 2652  35.520  18.584  12.394
30327W        W 2653   8.228  35.437   3.251
30328W        W 2654  20.959  15.154  12.360
30329W        W 2655  31.488   4.438  11.408
30330W        W 2656  31.608  16.672   4.485
30331W        W 2657  35.738  10.834   0.762
30332W        W 2658   7.873  10.260  11.585
30333W        W 2659  12.271  16.845   1.212
30334W        W 2660  13.232   0.940   0.933
30335W        W 2661   6.198   3.983   3.559
30336W        W 2662  19.174  39.218   4.908
30337W        W 2663   2.965  32.419   1.183
30338W        W 2664  44.201   7.365  14.490
30339W        W 2665   2.263  40.510   2.330
30340W        W 2666   1.704  18.245   4.811
30341W        W 2667  29.093  19.177   4.479
30342W        W 2668   1.732  20.547  13.509
30343W        W 2669   2.653  43.997  13.045
30344W        W 2670  40.018  32.445  14.022
30345W        W 2671  25.099  41.252   2.906
30346W        W 2672  27.934  14.799   4.184
30347W        W 2673  22.998  13.349   4.237
30348W        W 2674  41.542  42.811   3.851
30349W        W 2675  21.639  32.111   1.531
30350W        W 2676  34.608   8.084  13.583
30351W        W 2677   3.745  24.163  11.132
30352W        W 2678  23.135   5.623   0.370
30353W        W 2679  25.037  21.309   3.211
30354W        W 2680  15.346  20.273   4.367
30355W        W 2681   2.771  12.567   5.577
30356W        W 2682  11.638  31.075   1.434
30357W        W 2683  12.562  37.790   1.151
30358W        W 2684   2.918  26.218  13.461
30359W        W 2685  13.069   6.613  11.623
30360W        W 2686  42.279  23.969   1.823
30361W        W 2687  23.789  39.910  12.572
30362W        W 2688  44.418  30.230  14.044
30363W        W 2689  34.441  38.281   4.075
30364W        W 2690  37.328  36.577   0.951
30365W        W 2691  16.670  41.366  12.585
30366W        W 2692  42.733  41.216  11.905
30367W        W 2693  15.025  33.475   2.151
30368W        W 2694  21.999  42.868   3.153
30369W        W 2695   8.461  24.161   5.006
30370W        W 2696   5.712  29.594  13.041
30371W        W 2697  22.048  10.688  13.090
30372W        W 2698   9.258  22.997  12.414
30373W        W 2699  24.187  13.681   2.604
30374W        W 2700  31.590  41.074   1.697
30375W        W 2701  10.901  26.539   1.562
30376W        W 2702  34.497  39.768   2.717
30377W        W 2703   9.276  23.263  11.985
30378W        W 2704  24.294  12.018  10.266
30379W        W 2705  31.471  24.560  12.216
30380W        W 2706  42.181  31.396   1.844
30381W        W 2707  12.286  29.272  11.697
30382W        W 2708  30.527  35.024  12.112
30383W        W 2709   3.223  40.968  14.437
30384W        W 2710   7.886  38.549   0.967
30385W        W 2711   2.314  13.043   1.870
30386W        W 2712  16.602  19.460   1.388
30387W        W 2713  14.110   7.212  13.585
30388W        W 2714  29.970  39.486  12.661
30389W        W 2715  18.834  10.558  11.454
30390W        W 2716   6.832   7.458  11.614
30391W        W 2717  16.038  17.098   3.221
30392W        W 2718   0.582  18.121  11.445
30393W        W 2719  32.633  31.604  13.012
30394W        W 2720  15.048  44.417  12.996
30395W        W 2721  27.380  39.517   1.093
30396W        W 2722   0.216  31.012   0.958
30397W        W 2723   7.622   6.095  10.916
30398W        W 2724  16.726   6.686   0.298
30399W        W 2725  13.137  35.531   4.946
30400W        W 2726  18.732  27.666   4.179
30401W        W 2727  16.207  23.048   2.632
30402W        W 2728  10.401   8.420   0.457
30403W        W 2729   5.650  40.066  14.525
30404W        W 2730  35.845   0.954  12.953
30405W        W 2731  25.694   8.174   4.138
30406W        W 2732  37.991  25.318  12.981
30407W        W 2733  44.884  30.571  12.092
30408W        W 2734   7.100   9.011  13.431
30409W        W 2735  16.653   6.877  13.228
30410W        W 2736  14.628  25.999  10.329
30411W        W 2737  23.193  29.886   0.865
30412W        W 2738  39.474  40.565  14.810
30413W        W 2739  11.152  42.536  11.574
30414W        W 2740  19.078   3.963  10.695
30415W        W 2741  41.469  24.767  10.748
30416W        W 2742  17.317  23.717  12.840
30417W        W 2743  44.339  15.052   1.437
30418W        W 2744  30.558  29.634   2.409
30419W        W 2745   1.932   7.122   3.528
30420W        W 2746   5.862  35.844   4.217
30421W        W 2747  21.993  19.498   4.314
30422W        W 2748  24.364  10.319   5.037
30423W        W 2749   3.236  35.665  11.134
30424W        W 2750   7.900   3.313  10.557
30425W        W 2751  32.384  25.600   1.243
30426W        W 2752  12.860  39.872   4.104
30427W        W 2753  41.778  36.347  14.674
30428W        W 2754   3.418   5.412  14.136
30429W        W 2755   6.256  32.343  13.040
30430W        W 2756  36.501   2.679   3.815
30431W        W 2757  39.573   3.675   1.014
30432W        W 2758   0.509  14.407   4.070
30433W        W 2759  44.487   6.354   1.313
30434W        W 2760  10.776  26.706  13.339
30435W        W 2761  23.383   1.673  13.939
30436W        W 2762  17.850  21.231   0.244
30437W        W 2763   1.240   3.287  10.244
30438W        W 2764   7.637  28.412  12.628
30439W        W 2765  11.680  35.586   4.967
30440W        W 2766  28.549   0.984   3.948
30441W        W 2767  29.502  30.161  11.536
30442W        W 2768  38.205  13.696  14.889
30443W        W 2769   4.943  21.111   3.221
30444W        W 2770  10.950  15.015   4.864
30445W        W 2771  21.648  32.536  11.726
30446W        W 2772  19.122  13.387  13.041
30447W        W 2773  16.241   8.344   1.814
30448W        W 2774  10.168  22.612  12.776
30449W        W 2775  11.351  26.226  10.197
30450W        W 2776  13.201   4.616  11.170
30451W        W 2777  12.746  20.930   1.395
30452W        W 2778  22.486  37.942  13.059
30453W        W 2779  28.087   0.493  14.820
30454W        W 2780  14.155  35.413   1.672
30455W        W 2781   6.716   6.695   2.697
30456W        W 2782  12.096  17.618  11.527
30457W        W 2783  43.260  30.553  13.045
30458W        W 2784  31.972  27.268   5.060
30459W        W 2785  32.563   7.288  10.678
30460W        W 2786  24.334  10.638  11.606
30461W        W 2787  10.821  20.471   4.575
30462W        W 2788  42.999   1.102   4.447
30463W        W 2789  38.804  11.300   1.902
30464W        W 2790  34.843  16.226   1.434
30465W        W 2791  20.476   7.950   1.915
30466W        W 2792   4.144  18.393  11.539
30467W        W 2793  12.349  11.266   1.229
30468W        W 2794  25.133  25.735  13.302
30469W        W 2795  12.556  28.363  14.680
30470W        W 2796  26.373   5.868   0.378
30471W        W 2797  27.613  35.355  13.297
30472W        W 2798  14.093  25.276   4.629
30473W        W 2799  41.292   3.857  11.781
30474W        W 2800   1.196   9.132   0.448
30475W        W 2801   9.335  43.667   0.235
30476W        W 2802  44.542   5.639   3.736
30477W        W 2803  10.414   9.262   2.257
30478W        W 2804  23.966  22.169  13.693
30479W        W 2805   4.329  10.618  10.371
30480W        W 2806  21.516  33.710   3.760
30481W        W 2807  25.151  35.517   1.965
30482W        W 2808  23.777  10.287  14.454
30483W        W 2809   3.010  31.911  14.866
30484W        W 2810   7.805  23.067  12.293
30485W        W 2811   5.813  43.962   1.343
30486W        W 2812  29.576  40.477  10.856
30487W        W 2813  21.054  42.815   3.487
30488W        W 2814  32.233  30.636   0.796
30489W        W 2815  38.425  30.496   0.770
30490W        W 2816  10.582  16.581  14.665
30491W        W 2817  10.464  37.197  12.022
30492W        W 2818   1.057  28.604   0.496
30493W        W 2819   1.855  38.403  10.686
30494W        W 2820  38.574  14.039  14.922
30495W        W 2821  18.670  44.322  13.397
30496W        W 2822  40.382  11.121  11.885
30497W        W 2823  16.210  20.571   2.086
30498W        W 2824  32.404  27.484  14.042
30499W        W 2825  15.143  38.869  14.291
30500W        W 2826  11.725  17.758   1.395
30501W        W 2827   3.412  34.137  13.945
30502W        W 2828  19.635  29.025  13.643
30503W        W 2829  30.600  30.524  10.641
30504W        W 2830   9.203  42.872  11.542
30505W        W 2831  18.801  17.590  12.218
30506W        W 2832   1.134  11.549   0.400
30507W        W 2833  14.878   8.471  12.028
30508W        W 2834  37.604  38.980  12.341
30509W        W 2835  18.765  14.180   1.477
30510W        W 2836  13.674  27.249   5.084
30511W        W 2837   3.191   2.564   3.785
30512W        W 2838  29.939   5.435   0.981
30513W        W 2839  36.410  22.620   2.123
30514W        W 2840  43.376   1.302   4.135
30515W        W 2841  23.532  18.564  14.412
30516W        W 2842   5.352  38.936  12.561
30517W        W 2843  11.024  26.720   5.489
30518W        W 2844  25.225  41.570   4.265
30519W        W 2845  14.962  14.536  14.343
30520W        W 2846  44.483  32.672   3.314
30521W        W 2847  28.439  34.350   3.662
30522W        W 2848  20.017  34.009   0.853
30523W        W 2849   5.911   0.362  13.011
30524W        W 2850  12.878  43.016   3.663
30525W        W 2851  32.529  19.247   2.685
30526W        W 2852  21.497   3.774   4.900
30527W        W 2853  12.924  30.537  13.131
30528W        W 2854  14.495  44.898   3.344
30529W        W 2855  24.733  39.902  12.584
30530W        W 2856  14.294  34.697  11.176
30531W        W 2857  17.781  40.195   3.718
30532W        W 2858   9.178  23.563  14.939
30533W        W 2859   7.701   2.730  12.243
30534W        W 2860   6.879   5.393  10.938
30535W        W 2861  21.188  35.506  11.530
30536W        W 2862  31.589   0.237   1.604
30537W        W 2863  33.458  37.862   0.503
30538W        W 2864  30.706  22.206  13.553
30539W        W 2865  16.087   6.776   2.670
30540W        W 2866   2.293   3.864   3.427
30541W        W 2867  29.475  40.458  13.231
30542W        W 2868  38.663  20.761   2.357
30543W        W 2869  27.819  17.672   3.589
30544W        W 2870  22.040  16.344   2.870
30545W        W 2871  43.766  22.085  13.800
30546W        W 2872  40.049  18.654  11.701
30547W        W 2873  29.957  26.693  11.981
30548W        W 2874   2.943   1.317   1.962
30549W        W 2875   3.747   2.549  12.072
30550W        W 2876  33.574  17.276   4.627
30551W        W 2877  27.407  39.819  12.932
30552W        W 2878  29.227  27.049  11.507
30553W        W 2879  10.391   5.640   0.311
30554W        W 2880  21.661   7.395  13.801
30555W        W 2881  12.312  22.112  11.924
30556W        W 2882   0.839  35.320  11.473
30557W        W 2883   0.813  34.916  12.508
30558W        W 2884  35.837  39.260  12.622
30559W        W 2885  25.428  19.528   4.609
30560W        W 2886  31.025  36.036  13.087
30561W        W 2887  33.617  11.515  12.590
30562W        W 2888  14.535  32.615  14.437
30563W        W 2889   1.192   7.290  14.360
30564W        W 2890  43.701  41.449   0.643
30565W        W 2891  17.291  44.044   0.965
30566W        W 2892  29.446  34.371   2.773
30567W        W 2893  13.668  37.826   0.239
30568W        W 2894  35.640  33.126  11.475
30569W        W 2895  37.954  31.393   3.783
30570W        W 2896  28.666   6.705   2.484
30571W        W 2897  12.377  34.550   2.620
30572W        W 2898  14.140   7.314  10.849
30573W        W 2899   2.298  24.901  14.716
30574W        W 2900  37.296  14.128   1.340
30575W        W 2901  12.285  33.444  14.359
30576W        W 2902  12.104  31.754  11.176
30577W        W 2903   8.379  38.443   2.969
30578W        W 2904  27.747  12.823   0.381
30579W        W 2905  21.080  34.948  12.755
30580W        W 2906  37.593   3.209   3.283
30581W        W 2907  16.587  17.330   1.853
30582W        W 2908   5.909   5.567  11.684
30583W        W 2909  23.446  11.299   0.965
30584W        W 2910  22.223  21.079   0.760
30585W        W 2911  34.319  26.610   3.192
30586W        W 2912  22.298  31.929  11.551
30587W        W 2913  42.822  43.272  13.599
30588W        W 2914  29.063  11.159  11.918
30589W        W 2915  43.246  11.556  10.336
30590W        W 2916  28.398  16.340  11.000
30591W        W 2917  15.118  14.715  10.875
30592W        W 2918   0.841  31.671   2.346
30593W        W 2919  26.805  11.412   1.626
30594W        W 2920   6.751  24.485  13.378
30595W        W 2921  10.866  13.649   1.548
30596W        W 2922  30.002  16.490  14.518
30597W        W 2923   0.363   0.669  11.531
30598W        W 2924  22.889  24.741  13.030
30599W        W 2925  13.821  27.253   2.339
30600W        W 2926  43.656  19.304  14.899
30601W        W 2927  28.177  11.648   1.811
30602W        W 2928   3.360  22.234  10.202
30603W        W 2929  32.358   3.678  11.181
30604W        W 2930  41.384  41.961   2.411
30605W        W 2931  24.543  18.621  13.169
30606W        W 2932  29.038   4.417   0.733
30607W        W 2933   4.705  18.503  12.057
30608W        W 2934  38.180  33.078  11.841
30609W        W 2935  21.178  26.750  12.165
30610W        W 2936   5.826  39.794  14.036
30611W        W 2937  44.843  25.561   1.766
30612W        W 2938   1.962  19.125  14.037
30613W        W 2939  23.576  32.400   1.862
30614W        W 2940  23.559  30.940   3.246
30615W        W 2941   9.116   6.254  11.187
30616W        W 2942  15.245  31.561  14.408
30617W        W 2943  39.545   5.745  14.297
30618W        W 2944   6.336   4.556  13.034
30619W        W 2945  20.080  44.843   0.267
30620W        W 2946  35.843  27.957   2.110
30621W        W 2947  36.891  25.476   1.266
30622W        W 2948  10.909  27.898  13.856
30623W        W 2949  12.856  24.573  14.294
30624W        W 2950  23.121  11.881  10.726
30625W        W 2951  22.806  24.106  12.022
30626W        W 2952  10.755  27.989   2.150
30627W        W 2953  22.650  29.024   3.795
30628W        W 2954  34.858  17.373  13.540
30629W        W 2955   0.755  39.151   5.080
30630W        W 2956  14.596  13.954  13.320
30631W        W 2957   0.782  13.057  11.972
30632W        W 2958  32.059  31.542   5.044
30633W        W 2959  28.098  33.188   1.737
30634W        W 2960  30.121  32.147  12.191
30635W        W 2961  22.907  42.897  10.799
30636W        W 2962  26.638  33.194  12.499
30637W        W 2963   8.356  24.972   3.422
30638W        W 2964  29.680   6.801   0.143
30639W        W 2965  14.882  32.965   3.960
30640W        W 2966  26.060  13.096  11.496
30641W        W 2967   3.313  25.294  13.357
30642W        W 2968  25.339  22.750   0.301
30643W        W 2969   1.240  21.594  10.728
30644W        W 2970  44.396  33.986  13.312
30645W        W 2971  39.488  38.413  10.989
30646W        W 2972  16.467   0.709  11.455
30647W        W 2973   0.275  22.916  13.814
30648W        W 2974  37.445  16.171   4.556
30649W        W 2975  14.152   7.242   1.870
30650W        W 2976   7.653  39.086  11.619
30651W        W 2977   3.268  35.400  13.250
30652W        W 2978  44.204  33.661   0.423
30653W        W 2979  31.135  30.590   2.363
30654W        W 2980   2.751  13.758   0.417
30655W        W 2981  41.325   8.273  13.214
30656W        W 2982  29.804  17.910   1.070
30657W        W 2983   3.959  11.868  10.719
30658W        W 2984   0.460  17.203   2.832
30659W        W 2985  42.754  28.228   2.368
30660W        W 2986  24.147  12.092  10.755
30661W        W 2987  29.013   3.569   0.549
30662W        W 2988  39.445   4.372   3.686
30663W        W 2989  43.794  27.348  14.979
30664W        W 2990  22.063  16.907   9.791
30665W        W 2991  41.002  32.723  13.805
30666W        W 2992  17.513   7.053   4.192
30667W        W 2993  27.913  33.563  12.651
30668W        W 2994  43.104  15.123   4.101
30669W        W 2995  26.696  36.927   2.773
30670W        W 2996   7.349  26.691   4.498
30671W        W 2997   6.224  36.764   2.414
30672W        W 2998  21.125   1.130   2.233
30673W        W 2999  41.767  37.330   1.705
30674W        W 3000   9.639  22.112  14.747
30675W        W 3001   0.844  14.362   3.617
30676W        W 3002  17.750  35.257   4.074
30677W        W 3003  43.630   2.022   4.671
30678W        W 3004  28.093  39.635   5.196
30679W        W 3005  22.972   3.388   1.349
30680W        W 3006  20.517  33.585  10.553
30681W        W 3007  23.336   4.407  10.692
30682W        W 3008  15.324   8.124   0.302
30683W        W 3009  21.277  44.958   5.246
30684W        W 3010  29.483  34.971  13.093
30685W        W 3011   9.839  23.597   3.410
30686W        W 3012  31.890   8.889   1.833
30687W        W 3013  18.597  12.665   2.222
30688W        W 3014  33.514   5.149   2.236
30689W        W 3015  32.698  40.948  14.843
30690W        W 3016  25.609  38.558   2.579
30691W        W 3017  36.061   8.915   3.608
30692W        W 3018  34.513  18.870  11.884
30693W        W 3019  15.579  12.331  13.845
30694W        W 3020   4.555   0.805   3.294
30695W        W 3021  37.842  40.810  11.012
30696W        W 3022  41.609  38.782   1.737
30697W        W 3023  34.334  34.431  11.026
30698W        W 3024   0.885  43.537   3.550
30699W        W 3025  16.861  35.421   2.802
30700W        W 3026  28.268  11.724   4.828
30701W        W 3027  17.346  28.102   2.430
30702W        W 3028   6.924  22.585   3.294
30703W        W 3029  30.016   4.851  10.699
30704W        W 3030  44.779  29.976   3.317
30705W        W 3031   0.141  34.303  11.069
30706W        W 3032  31.080  42.530  13.532
30707W        W 3033  42.072   3.468  14.767
30708W        W 3034  41.077  15.042  12.440
30709W        W 3035  36.334  21.698   1.371
30710W        W 3036  26.682  27.508   1.900
30711W        W 3037  24.144  38.572  14.334
30712W        W 3038  12.284  18.746  12.125
30713W        W 3039  11.346  19.717   3.184
30714W        W 3040  23.297  41.033   4.295
30715W        W 3041  13.349  44.105   1.767
30716W        W 3042  23.479  18.717   5.023
30717W        W 3043  30.432  40.901  14.903
30718W        W 3044  12.123  12.987  14.929
30719W        W 3045   3.799  34.318   4.090
30720W        W 3046   2.892   2.670  13.428
30721W        W 3047  43.414  36.202  13.415
30722W        W 3048  15.769  41.402  10.342
30723W        W 3049  33.954  29.687  12.885
30724W        W 3050  17.697  11.049   0.483
30725W        W 3051  40.636  37.930   3.991
30726W        W 3052   1.179  43.305   2.703
30727W        W 3053  20.490  17.205   4.213
30728W        W 3054  31.297  15.175  11.958
30729W        W 3055  22.625  18.255   3.568
30730W        W 3056  17.790  37.500   1.498
30731W        W 3057  39.420  30.106   4.644
30732W        W 3058   2.780   9.847   2.242
30733W        W 3059   6.681  25.220  11.525
30734W        W 3060  18.086  33.389   3.311
30735W        W 3061  25.897  17.764  10.745
30736W        W 3062  18.900  26.916  12.133
30737W        W 3063  38.072  13.637   2.382
30738W        W 3064  38.639  20.324  13.859
30739W        W 3065   4.828   0.681  11.439
30740W        W 3066   2.987   3.977   0.325
30741W        W 3067  13.399   1.419   0.863
30742W        W 3068  35.564  22.043   1.598
30743W        W 3069  27.541  16.740   4.876
30744W        W 3070  20.776  22.632   4.188
30745W        W 3071  13.641  12.683  13.909
30746W        W 3072  37.864  19.758   1.623
30747W        W 3073  36.930  21.141  11.594
30748W        W 3074  43.438  30.566   3.904
30749W        W 3075  20.007  32.136   3.210
30750W        W 3076   9.107  15.748  10.324
30751W        W 3077  26.243  26.671  14.374
30752W        W 3078   7.108  19.154  14.229
30753W        W 3079  24.245  25.154   3.187
30754W        W 3080  23.991  39.485   3.976
30755W        W 3081  10.398  28.189   3.505
30756W        W 3082   3.326  10.815   3.579
30757W        W 3083  43.151  10.417   2.431
30758W        W 3084  44.904  31.833  14.919
30759W        W 3085  18.066  28.746   3.812
30760W        W 3086  14.581  21.700   0.433
30761W        W 3087  13.256  25.746   0.822
30762W        W 3088  32.674  18.001   0.381
30763W        W 3089   2.244  27.914   3.189
30764W        W 3090  10.740  43.941   0.281
30765W        W 3091  31.715  40.957  14.750
30766W        W 3092  12.278  26.945   0.017
30767W        W 3093  37.112  28.340  11.470
30768W        W 3094  11.236  35.531  10.414
30769W        W 3095  33.537  18.714   4.885
30770W        W 3096   6.923  23.313   1.913
30771W        W 3097  43.749  35.517  10.715
30772W        W 3098  41.327  43.585  10.516
30773W        W 3099  38.967  34.032   2.755
30774W        W 3100  16.671   8.043  14.500
30775W        W 3101  12.650  36.025  10.252
30776W        W 3102  30.941  22.918  14.813
30777W        W 3103  25.784  39.155   9.946
30778W        W 3104  32.147  21.163  12.886
30779W        W 3105  13.800  13.769   4.561
30780W        W 3106   1.878   3.656  10.887
30781W        W 3107   1.785  32.066  13.434
30782W        W 3108  22.821  42.989  13.324
30783W        W 3109  42.975  38.035   0.284
30784W        W 3110  37.683  22.197  14.449
30785W        W 3111   6.242  35.805   3.113
30786W        W 3112  16.774  34.487  12.447
30787W        W 3113  26.402  36.613  10.667
30788W        W 3114   8.362  35.592   0.318
30789W        W 3115   3.990   8.251   0.722
30790W        W 3116  43.383   4.512   0.293
30791W        W 3117  27.969  28.974  10.248
30792W        W 3118  41.962  16.015   3.275
30793W        W 3119  16.231  13.212  14.417
30794W        W 3120   1.397   7.400  11.285
30795W        W 3121   3.749  26.886   0.857
30796W        W 3122  13.696  30.034   3.160
30797W        W 3123   6.327  34.516   2.902
30798W        W 3124  22.032   2.899  10.759
30799W        W 3125  35.389  39.385   1.436
30800W        W 3126  23.029  30.446  14.031
30801W        W 3127   6.317   4.767   1.212
30802W        W 3128  22.327   5.895   3.021
30803W        W 3129  44.882   2.055  12.442
30804W        W 3130  25.293  21.845  11.049
30805W        W 3131  34.325   6.850   0.707
30806W        W 3132   1.348  26.099   3.826
30807W        W 3133   9.926  32.573   2.893
30808W        W 3134  28.199  18.911  14.546
30809W        W 3135  10.471   0.595   1.698
30810W        W 3136  42.495   7.707   1.566
30811W        W 3137  41.989  30.479   3.994
30812W        W 3138  21.590  11.232   3.136
30813W        W 3139  18.283  31.423  11.177
30814W        W 3140  33.114  16.538   4.635
30815W        W 3141  21.653   2.700  11.647
30816W        W 3142   8.643  40.389   2.144
30817W        W 3143   7.115  24.744  12.346
30818W        W 3144  20.655   3.986   1.176
30819W        W 3145  30.507  40.351  10.428
30820W        W 3146  40.462  29.966  11.156
30821W        W 3147  31.780  15.650   1.206
30822W        W 3148  16.137  37.348  13.831
30823W        W 3149  26.170   3.234  12.955
30824W        W 3150  40.971  41.928   2.718
30825W        W 3151   0.299  22.010   3.184
30826W        W 3152  44.393  37.964   3.172
30827W        W 3153  24.079  41.083  10.709
30828W        W 3154   3.648  22.277  10.649
30829W        W 3155   0.355  30.963   2.832
30830W        W 3156  34.537  28.180  11.790
30831W        W 3157  34.846  27.455  13.447
30832W        W 3158   9.826  14.740   4.254
30833W        W 3159   1.893   9.320  13.350
30834W        W 3160   2.400  18.496  12.039
30835W        W 3161  11.913  11.072   4.163
30836W        W 3162  36.881   8.440   0.851
30837W        W 3163  14.817  44.784   1.981
30838W        W 3164   2.791   5.755  13.704
30839W        W 3165  16.944  22.823  14.859
30840W        W 3166  18.641  18.729  10.695
30841W        W 3167  28.705   5.439  10.530
30842W        W 3168  32.160  24.230   2.393
30843W        W 3169  14.656  31.957  11.876
30844W        W 3170  27.056  28.832   9.838
30845W        W 3171  11.632  13.507  13.472
30846W        W 3172  41.133  15.092  10.731
30847W        W 3173   4.632  17.346  11.502
30848W        W 3174  14.718  21.615  13.464
30849W        W 3175  30.243   3.919   0.760
30850W        W 3176  16.117   0.245   3.651
30851W        W 3177   0.563  17.626  11.611
30852W        W 3178  28.924  33.909  12.524
30853W        W 3179  20.529  42.274   0.311
30854W        W 3180  28.107  44.294   4.559
30855W        W 3181  19.746  18.924  11.146
30856W        W 3182  37.541  27.152  12.072
30857W        W 3183   5.695   0.499   1.708
30858W        W 3184  15.308  12.038   3.152
30859W        W 3185  23.538   2.228   0.301
30860W        W 3186   5.439   6.281  13.376
30861W        W 3187  28.170  29.006   1.463
30862W        W 3188   2.586   4.926   1.849
30863W        W 3189  18.623  34.069   1.488
30864W        W 3190   9.875  42.843   4.521
30865W        W 3191  43.249   3.122  13.968
30866W        W 3192   0.112   8.492  13.030
30867W        W 3193  44.052   8.698  13.769
30868W        W 3194  19.996  23.481  12.061
30869W        W 3195  41.955  28.259   0.752
30870W        W 3196   7.693   7.912  14.583
30871W        W 3197  32.175  43.080  14.334
30872W        W 3198  11.876  23.068   0.432
30873W        W 3199  33.157  36.949  10.719
30874W        W 3200  37.345  31.613   1.190
30875W        W 3201  14.792  16.667  11.172
30876W        W 3202   7.595  30.665   3.675
30877W        W 3203  44.333  31.590   4.706
30878W        W 3204  20.857  18.136   4.571
30879W        W 3205   7.731   5.535  14.974
30880W        W 3206  26.537  21.619   3.961
30881W        W 3207  17.699  15.352  12.873
30882W        W 3208   1.718   0.562  11.877
30883W        W 3209  38.377  41.622   1.655
30884W        W 3210  28.087  19.211   3.449
30885W        W 3211  41.737  27.669  12.865
30886W        W 3212  24.998  19.184  12.005
30887W        W 3213   7.665  18.496   2.118
30888W        W 3214  41.048   3.379   4.665
30889W        W 3215   9.197  31.103  14.416
30890W        W 3216  12.550  43.289  11.643
30891W        W 3217  30.688  44.951  13.921
30892W        W 3218  41.880   1.781  11.171
30893W        W 3219  44.510  43.901  14.901
30894W        W 3220  25.595   8.688  11.036
30895W        W 3221  24.126  20.500   3.316
30896W        W 3222   7.851  30.613  13.335
30897W        W 3223  28.072  20.824   0.240
30898W        W 3224  42.455  37.984   0.291
30899W        W 3225   7.306   9.347   4.412
30900W        W 3226  12.771   8.909  14.333
30901W        W 3227  42.011  18.730   1.735
30902W        W 3228  18.168   2.691   2.205
30903W        W 3229  42.489  16.915  11.619
30904W        W 3230  30.449  39.847  10.733
30905W        W 3231  22.667   1.896  14.246
30906W        W 3232   2.318  31.117  12.553
30907W        W 3233  36.055  27.912   4.703
30908W        W 3234   7.549  11.756   1.684
30909W        W 3235  38.586   4.889   4.861
30910W        W 3236  38.016  44.788  13.269
30911W        W 3237  31.174  12.084   0.317
30912W        W 3238  29.940  35.453  13.958
30913W        W 3239  43.120  15.552  11.098
30914W        W 3240  13.225  25.783  10.360
30915W        W 3241  21.550   4.410  10.461
30916W        W 3242   4.298   2.260  10.378
30917W        W 3243  43.899  18.346  13.858
30918W        W 3244  10.349   0.298  11.976
30919W        W 3245  42.564  26.609  10.919
30920W        W 3246   7.127  38.424   3.188
30921W        W 3247   5.787   9.907   3.260
30922W        W 3248  39.946  36.453  12.937
30923W        W 3249  44.301   6.880  14.318
30924W        W 3250  17.066  19.541   4.974
30925W        W 3251  13.933  40.449  13.469
30926W        W 3252  14.838  35.316   2.346
30927W        W 3253   7.821  20.846   0.517
30928W        W 3254  33.352  39.238  12.574
30929W        W 3255   8.315  41.899   0.964
30930W        W 3256   4.356  41.551  12.299
30931W        W 3257  39.914  18.729   0.040
30932W        W 3258  28.520  25.671  13.542
30933W        W 3259  34.494  13.579   1.577
30934W        W 3260   7.627  42.435  11.058
30935W        W 3261  38.075  15.753   1.070
30936W        W 3262  30.964  28.615  14.603
30937W        W 3263  15.911  17.171   4.604
30938W        W 3264   5.726  38.264  14.680
30939W        W 3265   3.579   2.302   0.813
30940W        W 3266  34.485  37.322  10.986
30941W        W 3267  35.178  21.019   0.374
30942W        W 3268  15.416  38.032  14.015
30943W        W 3269  31.692   2.616   2.803
30944W        W 3270  43.606  20.511   0.412
30945W        W 3271  18.751   1.290   1.519
30946W        W 3272  36.610  10.805  14.399
30947W        W 3273   5.829  27.068   1.741
30948W        W 3274  36.571  44.373   4.233
30949W        W 3275  23.945  40.634  10.439
30950W        W 3276  10.227  31.893   3.330
30951W        W 3277  38.753   4.448   1.682
30952W        W 3278  36.365  40.302   2.159
30953W        W 3279  36.822  28.403  13.074
30954W        W 3280  23.642  11.197   0.451
30955W        W 3281   4.883   2.763   0.435
30956W        W 3282  15.264  31.620   0.442
30957W        W 3283   8.201   7.379  13.396
30958W        W 3284  24.784   7.370   4.720
30959W        W 3285  16.252   2.813   0.891
30960W        W 3286  23.432  43.861  14.509
30961W        W 3287  20.543  44.376   3.702
30962W        W 3288  27.704  44.492   1.728
30963W        W 3289   0.522  12.583   0.910
30964W        W 3290  28.204  22.181  14.791
30965W        W 3291  16.051  21.641  12.738
30966W        W 3292  19.106  40.309  14.953
30967W        W 3293  11.235  11.797  12.937
30968W        W 3294   4.680  21.141  10.650
30969W        W 3295  15.530   1.722  14.582
30970W        W 3296  21.782  31.323  11.650
30971W        W 3297  12.573  13.577   1.534
30972W        W 3298  35.646   6.349   0.840
30973W        W 3299  26.044  23.403  14.840
30974W        W 3300  32.693  40.978  11.954
30975W        W 3301  33.923  35.808  13.852
30976W        W 3302  31.397  36.804   1.744
30977W        W 3303   8.626  17.042   4.116
30978W        W 3304  11.692  36.976   0.011
30979W        W 3305  18.656  43.604  10.678
30980W        W 3306  23.515  24.963  13.025
30981W        W 3307  18.062  12.892  14.784
30982W        W 3308  32.234  18.115   0.694
30983W        W 3309   1.026  24.563   2.690
30984W        W 3310  23.473  28.908   1.955
30985W        W 3311   8.966  11.266  12.971
30986W        W 3312  25.625  12.737  14.303
30987W        W 3313  17.566   2.986  10.905
30988W        W 3314  33.032  34.844   9.586
30989W        W 3315  22.646  25.711  11.622
30990W        W 3316  24.603  23.114  12.721
30991W        W 3317  34.782  11.320   0.531
30992W        W 3318  43.075  15.252  11.509
30993W        W 3319  16.757  16.890  13.301
30994W        W 3320  34.901  44.995  14.944
30995W        W 3321  35.188   1.745   4.529
30996W        W 3322  17.484  10.226  13.368
30997W        W 3323   4.167  22.990  10.286
30998W        W 3324  38.888  23.180   3.785
30999W        W 3325  27.074  42.437  11.141
31000W        W 3326   1.528  33.094   2.276
31001W        W 3327  22.863  34.527  11.505
31002W        W 3328  17.371  12.956   5.065
31003W        W 3329   9.822   8.334   2.200
31004W        W 3330  36.508  42.015  12.858
31005W        W 3331  18.963  29.706   2.241
31006W        W 3332  31.976  41.370   2.901
31007W        W 3333   6.753  13.846  12.024
31008W        W 3334  28.898  41.701   4.127
31009W        W 3335   2.003  26.025  11.410
31010W        W 3336  21.952  44.874  12.120
31011W        W 3337  43.227  19.184   0.234
31012W        W 3338  11.282  22.604  14.932
31013W        W 3339  35.469   8.813   1.504
31014W        W 3340  33.897  30.558  11.420
31015W        W 3341  14.385  19.294  11.914
31016W        W 3342  19.092  43.016  11.858
31017W        W 3343  22.039  10.857  14.029
31018W        W 3344  43.272  43.960   3.281
31019W        W 3345  10.639  29.371  13.063
31020W        W 3346   3.902  37.080  14.127
31021W        W 3347  44.098  28.666   1.845
31022W        W 3348   4.793  14.073  13.421
31023W        W 3349  35.562  30.612  13.040
31024W        W 3350  28.400   0.613   4.882
31025W        W 3351  27.985   4.511  13.430
31026W        W 3352  41.727  44.894   1.740
31027W        W 3353  44.868  20.568   0.849
31028W        W 3354   5.343   3.802  11.242
31029W        W 3355  16.244  25.079   2.630
31030W        W 3356  10.570  14.066  11.110
31031W        W 3357  31.862  26.693   2.227
31032W        W 3358   8.750  17.697  13.903
31033W        W 3359  11.626  39.420  12.939
31034W        W 3360  20.663  17.076  11.838
31035W        W 3361   5.674  26.716  14.107
31036W        W 3362   9.420  15.269  13.872
31037W        W 3363   8.442   9.569   2.234
31038W        W 3364  22.474   0.010   0.766
31039W        W 3365  30.157  11.651   1.878
31040W        W 3366  23.116  14.108   0.899
31041W        W 3367  19.477  23.004  12.413
31042W        W 3368  36.192  16.545  10.404
31043W        W 3369   7.427  22.097   1.193
31044W        W 3370  12.320  31.880   0.889
31045W        W 3371  10.091   5.444   2.301
31046W        W 3372   0.545  41.968   3.277
31047W        W 3373  23.607  16.982   1.493
31048W        W 3374  41.969   5.959   4.678
31049W        W 3375   9.892   0.183   0.326
31050W        W 3376  44.793  32.529   0.883
31051W        W 3377  36.287   9.874   1.954
31052W        W 3378  38.934  19.549   0.533
31053W        W 3379  11.870  15.856  10.107
31054W        W 3380  34.057  25.185  12.071
31055W        W 3381  39.582  36.915   0.886
31056W        W 3382  15.727   4.405  11.272
31057W        W 3383   2.187  26.917   1.667
31058W        W 3384  32.094  23.022   1.847
31059W        W 3385  24.620  20.551   3.129
31060W        W 3386  19.144   1.948   4.861
31061W        W 3387  16.194  20.200  14.022
31062W        W 3388   8.430  27.608   2.477
31063W        W 3389  34.911  23.625   3.960
31064W        W 3390   2.678  41.487   2.209
31065W        W 3391  15.694  22.169   1.221
31066W        W 3392   9.328  38.940  14.319
31067W        W 3393  32.987  26.107   2.446
31068W        W 3394  39.855  28.695   1.213
31069W        W 3395  10.744  32.376  11.572
31070W        W 3396  35.326  22.069   4.718
31071W        W 3397  43.841  42.376   3.429
31072W        W 3398   2.385  16.676  13.317
31073W        W 3399  16.029  31.641   1.257
31074W        W 3400  15.199   0.009   1.232
31075W        W 3401  20.157  10.389   2.722
31076W        W 3402   5.305  13.137   1.843
31077W        W 3403   7.440   6.486   0.587
31078W        W 3404  39.372  29.183   0.037
31079W        W 3405   9.523  36.434  14.124
31080W        W 3406  18.169   3.441   3.635
31081W        W 3407  14.804  28.995   0.235
31082W        W 3408  42.278   7.522  12.149
31083W        W 3409  34.342   2.376  10.804
31084W        W 3410   5.987   8.447  11.195
31085W        W 3411  33.682   0.679  14.999
31086W        W 3412   3.612   9.572  11.120
31087W        W 3413   8.347  16.877   0.528
31088W        W 3414   3.856  11.558   0.725
31089W        W 3415  11.644   3.136   0.871
31090W        W 3416  14.575  31.550   4.904
31091W        W 3417  26.661  14.630   4.653
31092W        W 3418  37.108   7.818  13.552
31093W        W 3419  21.372  34.958   3.743
31094W        W 3420  29.484   8.704   2.720
31095W        W 3421   7.923   6.326   1.653
31096W        W 3422  25.490  20.676  12.904
31097W        W 3423  24.846  15.213   4.628
31098W        W 3424  44.931  20.292  11.476
31099W        W 3425  35.376  42.084  13.779
31100W        W 3426  39.481  41.372  13.215
31101W        W 3427  33.084  39.988  14.391
31102W        W 3428   4.432  10.424   2.071
31103W        W 3429   9.573  11.264  14.973
31104W        W 3430   3.491   9.252   4.304
31105W        W 3431  21.739  32.442  10.719
31106W        W 3432   9.356  39.754  12.977
31107W        W 3433   8.192  20.748   1.773
31108W        W 3434  34.038   7.827   1.670
31109W        W 3435  11.379  42.586   0.258
31110W        W 3436  16.320  34.700  11.159
31111W        W 3437  22.090  20.120  14.188
31112W        W 3438  44.866  15.370   4.841
31113W        W 3439  38.475   5.067  11.023
31114W        W 3440   1.515   8.748  11.434
31115W        W 3441  10.187   8.844   0.075
31116W        W 3442  16.761   2.294  11.196
31117W        W 3443  24.443  13.802  13.348
31118W        W 3444   4.790  28.085   3.440
31119W        W 3445  25.231   3.271   4.176
31120W        W 3446  40.331  20.561  12.319
31121W        W 3447  31.682  17.157   4.708
31122W        W 3448  33.544   7.845  13.927
31123W        W 3449  11.205  22.107   2.158
31124W        W 3450  11.059   1.747  14.923
31125W        W 3451  33.669   7.255  14.487
31126W        W 3452  33.890  26.119  14.605
31127W        W 3453  24.446  40.990  13.312
31128W        W 3454   8.744  10.545   0.562
31129W        W 3455  31.685  28.576   4.850
31130W        W 3456  40.561  33.391  13.050
31131W        W 3457  14.245  31.916  11.200
31132W        W 3458   4.259  42.512   2.864
31133W        W 3459  16.275  36.063   0.213
31134W        W 3460  42.934  25.660  12.416
31135W        W 3461  26.814  36.417   5.066
31136W        W 3462  32.634  21.756   3.743
31137W        W 3463   1.595   8.657   1.398
31138W        W 3464   2.341  39.739  13.765
31139W        W 3465  26.930  22.309  12.899
31140W        W 3466   3.369   6.143   1.786
31141W        W 3467  42.449   7.024  12.109
31142W        W 3468   7.704  17.312   2.300
31143W        W 3469   8.418  41.041  13.806
31144W        W 3470  30.448  31.911  12.535
31145W        W 3471  26.247  28.460   1.814
31146W        W 3472  15.170  18.349   1.867
31147W        W 3473  24.173   9.998  12.406
31148W        W 3474  25.584   0.629   0.031
31149W        W 3475  39.187  35.558   1.830
31150W        W 3476  23.812  23.656   1.724
31151W        W 3477  35.342  20.492   2.839
31152W        W 3478  10.314  28.662   0.233
31153W        W 3479  22.604  37.106  12.504
31154W        W 3480   9.653  26.906  13.002
31155W        W 3481  32.669  27.184   3.219
31156W        W 3482  41.250  17.195  13.819
31157W        W 3483  26.115  25.836   1.762
31158W        W 3484   5.201  44.972   3.203
31159W        W 3485  19.160   9.750  12.391
31160W        W 3486  33.901  36.259   5.510
31161W        W 3487  15.620  15.063  13.447
31162W        W 3488  18.929  17.113   2.782
31163W        W 3489   7.694  41.428  13.753
31164W        W 3490  34.991   0.929  11.929
31165W        W 3491  32.112   5.910  10.704
31166W        W 3492   1.325  23.720   0.558
31167W        W 3493  32.467  33.905  13.497
31168W        W 3494  29.331  18.177  12.707
31169W        W 3495   3.736  16.125   0.734
31170W        W 3496   3.702  44.040  11.594
31171W        W 3497  38.012  16.435   0.438
31172W        W 3498  26.159  43.032  14.093
31173W        W 3499  19.090  41.063   2.171
31174W        W 3500  24.223  23.166   4.880
31175W        W 3501  43.814   1.262   2.084
31176W        W 3502  35.842  32.492  14.847
31177W        W 3503   3.748  16.074   2.587
31178W        W 3504  11.645  35.653  12.122
31179W        W 3505  35.138   3.329  14.465
31180W        W 3506  40.803  41.285   0.385
31181W        W 3507  34.416  31.853   3.248
31182W        W 3508  42.081  11.473   0.727
31183W        W 3509   5.417  19.137   2.826
31184W        W 3510  24.002   5.727   1.443
31185W        W 3511   8.765  31.999  12.011
31186W        W 3512  22.635  26.230  10.655
31187W        W 3513  33.998  21.720  10.417
31188W        W 3514  22.254  21.761   3.146
31189W        W 3515  42.739  15.753   1.985
31190W        W 3516  43.578  27.189   4.294
31191W        W 3517  41.454  11.851  13.018
31192W        W 3518  25.683   4.821  12.804
31193W        W 3519  25.162   4.348  13.930
31194W        W 3520  39.089  39.655  12.054
31195W        W 3521  27.115  34.970   1.874
31196W        W 3522  26.967  34.472   1.920
31197W        W 3523  10.641  12.862   2.615
31198W        W 3524  13.081   2.863  11.569
31199W        W 3525  42.362  37.407   2.859
31200W        W 3526  24.241  22.924   3.520
31201W        W 3527  12.577  11.183  12.652
31202W        W 3528  12.828  39.937  11.987
31203W        W 3529   8.423   4.299  13.407
31204W        W 3530  20.738  40.307   0.194
31205W        W 3531  10.842  20.977   3.231
31206W        W 3532  10.418  10.795   4.435
31207W        W 3533  22.240  29.651  12.313
31208W        W 3534  32.150  40.504   5.187
31209W        W 3535  16.090  42.766   4.084
31210W        W 3536  10.664  25.030   1.544
31211W        W 3537  27.360  38.898  14.262
31212W        W 3538  25.498  37.479  10.647
31213W        W 3539  20.224   2.055  12.923
31214W        W 3540   7.783  10.880   0.685
31215W        W 3541  35.826  18.303  12.682
31216W        W 3542  44.938  17.614   1.717
31217W        W 3543  41.060   3.084  11.379
31218W        W 3544   6.264  16.323   3.767
31219W        W 3545   1.877  22.154  11.367
31220W        W 3546  24.565  34.887   4.147
31221W        W 3547  24.106  36.699   2.181
31222W        W 3548  17.634  30.679  13.057
31223W        W 3549   7.621  17.976   9.928
31224W        W 3550  14.623  19.834  12.417
31225W        W 3551   4.198  14.300   1.893
31226W        W 3552   7.879  33.583   0.873
31227W        W 3553  23.174  22.949   2.257
31228W        W 3554  13.591  31.392  11.126
31229W        W 3555  28.039   7.474  12.079
31230W        W 3556  32.896  20.787   2.789
31231W        W 3557  43.804  35.775  13.036
31232W        W 3558   3.760   7.213   0.845
31233W        W 3559  26.139  39.962  10.612
31234W        W 3560   7.676  44.187  12.885
31235W        W 3561  30.885  19.209   1.939
31236W        W 3562  19.163  28.856  13.463
31237W        W 3563  33.646  16.966   2.712
31238W        W 3564  15.719  42.258   4.625
31239W        W 3565  11.303  39.705  14.919
31240W        W 3566  37.809  31.609  12.365
31241W        W 3567  19.228  42.466  14.905
31242W        W 3568  44.040   4.170  11.118
31243W        W 3569   7.075  32.580  10.635
31244W        W 3570  43.442  38.342  11.098
31245W        W 3571  31.719  28.227  14.222
31246W        W 3572   3.448  13.153  12.053
31247W        W 3573   9.370  15.168  10.536
31248W        W 3574  31.418  29.405   0.403
31249W        W 3575  16.636  14.792  12.881
31250W        W 3576   7.291  15.181   0.873
31251W        W 3577   4.747  25.257  10.421
31252W        W 3578   2.726  14.125   0.823
31253W        W 3579  12.815  13.150   4.336
31254W        W 3580  19.997  40.955   3.784
31255W        W 3581  13.702  37.130  13.346
31256W        W 3582  14.114  21.185  10.575
31257W        W 3583   9.121  11.314   0.235
31258W        W 3584   0.680  13.622   4.087
31259W        W 3585   3.373   9.086  11.179
31260W        W 3586  20.501  15.310   1.522
31261W        W 3587  23.984  36.115  13.974
31262W        W 3588  37.034  40.455   1.432
31263W        W 3589  20.412  11.262   3.854
31264W        W 3590  37.930  35.968   3.637
31265W        W 3591  19.569  15.000   4.530
31266W        W 3592   4.238  11.743  14.277
31267W        W 3593  32.428  36.129   2.412
31268W        W 3594  13.031  14.517  13.453
31269W        W 3595  32.663   3.662  13.766
31270W        W 3596   1.744  42.551   3.319
31271W        W 3597  29.054  28.408   2.351
31272W        W 3598  37.090  37.902  11.738
31273W        W 3599  24.314  16.452  10.217
31274W        W 3600  37.852  28.628   4.642
31275W        W 3601  24.129  36.248   2.454
31276W        W 3602   7.909  16.142  12.005
31277W        W 3603  17.104   4.353  14.761
31278W        W 3604  34.638   2.046   0.300
31279W        W 3605  23.519  24.791  14.453
31280W        W 3606  14.276  17.228  11.046
31281W        W 3607   4.485  38.421   4.408
31282W        W 3608   8.943  13.324  10.677
31283W        W 3609  29.573   4.516   3.695
31284W        W 3610  19.719  30.054   3.071
31285W        W 3611   4.061  40.256  13.117
31286W        W 3612   8.690  30.995  11.373
31287W        W 3613  24.656   5.183  12.342
31288W        W 3614  30.391  33.555  12.905
31289W        W 3615  18.686  21.526   3.382
31290W        W 3616  15.726  35.234   2.259
31291W        W 3617   1.326  10.621  14.443
31292W        W 3618  33.124   1.694  12.578
31293W        W 3619  35.859  16.771  13.591
31294W        W 3620   8.173  29.653   4.253
31295W        W 3621  40.080  36.582   0.816
31296W        W 3622  13.831  25.748   1.652
31297W        W 3623  24.782  26.619   3.333
31298W        W 3624  18.112  33.488  10.927
31299W        W 3625  11.197   8.794   1.390
31300W        W 3626  42.832  18.761   0.468
31301W        W 3627   9.292  36.267   1.231
31302W        W 3628  18.154  25.208  10.756
31303W        W 3629   7.529  13.684  10.707
31304W        W 3630  22.120   7.735  14.972
31305W        W 3631   8.763  15.126   1.912
31306W        W 3632  33.412  33.852   1.393
31307W        W 3633  31.133  12.281   4.447
31308W        W 3634  41.019  27.585  10.990
31309W        W 3635  34.053  14.293   4.399
31310W        W 3636  33.707  31.635   0.519
31311W        W 3637   3.408  19.498   4.217
31312W        W 3638  12.147  43.429  10.679
31313W        W 3639  11.294  35.926   4.806
31314W        W 3640  41.913  25.603   4.735
31315W        W 3641   8.692  10.196  13.351
31316W        W 3642   9.580  22.540   2.351
31317W        W 3643  12.728  22.389   0.753
31318W        W 3644   2.968  33.895  14.912
31319W        W 3645  39.545  21.064  11.694
31320W        W 3646  22.230  12.181   4.430
31321W        W 3647  19.522  39.338   2.488
31322W        W 3648   6.657   0.378  11.484
31323W        W 3649  21.018   0.484  10.853
31324W        W 3650  36.023   0.813  14.989
31325W        W 3651  31.468  15.788  11.266
31326W        W 3652  40.302  29.521  11.595
31327W        W 3653  12.813  43.784   0.514
31328W        W 3654  19.120   1.718   1.207
31329W        W 3655  10.755  20.272  12.457
31330W        W 3656  18.848  44.558   0.770
31331W        W 3657  27.545  38.581   0.980
31332W        W 3658  43.732  22.118   4.067
31333W        W 3659  17.283  39.038   3.187
31334W        W 3660   9.652  29.402   2.342
31335W        W 3661  27.433  35.399   0.269
31336W        W 3662  14.683  40.535  13.816
31337W        W 3663  23.556  18.054  14.331
31338W        W 3664  14.677  23.647  14.698
31339W        W 3665   1.490  21.121  12.097
31340W        W 3666  13.794   2.860   3.378
31341W        W 3667   7.699  27.125   0.803
31342W        W 3668  38.551  12.310   4.894
31343W        W 3669  13.577  40.953  12.367
31344W        W 3670  23.295  42.750  12.450
31345W        W 3671  43.800  15.603  13.308
31346W        W 3672   8.856  27.896  10.173
31347W        W 3673  11.383  16.279  12.388
31348W        W 3674  22.471  14.636  13.109
31349W        W 3675  15.655  38.291  13.310
31350W        W 3676  13.261  25.473   0.403
31351W        W 3677  35.313  33.143   4.682
31352W        W 3678  22.815  35.201  10.311
31353W        W 3679   2.523  42.806  13.306
31354W        W 3680  42.298   1.925  14.770
31355W        W 3681  21.125  32.655  14.431
31356W        W 3682   8.304  30.598   2.714
31357W        W 3683   8.869  22.548   3.661
31358W        W 3684  37.633  21.866  11.621
31359W        W 3685  20.701  23.571  14.958
31360W        W 3686  27.109   3.445  13.598
31361W        W 3687  17.539  15.213  14.971
31362W        W 3688  23.526  36.335  14.007
31363W        W 3689  38.907  23.468  12.857
31364W        W 3690  14.052  24.266  11.045
31365W        W 3691  36.073  24.458   4.109
31366W        W 3692   8.617  43.524  11.947
31367W        W 3693  10.715  21.646   2.232
31368W        W 3694  24.191   4.149   0.228
31369W        W 3695  39.815  29.551  13.090
31370W        W 3696   5.447  42.479  14.537
31371W        W 3697   0.565  35.892   4.565
31372W        W 3698  14.540  41.752  14.315
31373W        W 3699  26.538  14.829   1.294
31374W        W 3700  19.664  30.859   3.262
31375W        W 3701  18.140  18.534  10.665
31376W        W 3702  21.814   6.253  12.006
31377W        W 3703  19.061  20.724  13.200
31378W        W 3704   3.233  16.176   2.688
31379W        W 3705  17.687  20.116  13.820
31380W        W 3706  29.246   9.011   5.064
31381W        W 3707  14.193  22.186  13.933
31382W        W 3708  11.200  31.406  11.031
31383W        W 3709  21.011  30.694  10.687
31384W        W 3710  23.159  15.266   3.363
31385W        W 3711  35.654  40.156   1.892
31386W        W 3712  23.975  14.251   1.952
31387W        W 3713  33.576  14.139   4.281
31388W        W 3714   5.321  24.714   1.455
31389W        W 3715   8.355  22.218  12.572
31390W        W 3716  31.322  42.311   0.817
31391W        W 3717  38.855  19.528  10.694
31392W        W 3718  14.159  12.657   1.051
31393W        W 3719  28.481  18.755   4.709
31394W        W 3720  19.777   0.707   2.271
31395W        W 3721  40.046  15.378  11.109
31396W        W 3722  14.684  41.863   1.381
31397W        W 3723  20.942  43.918   1.524
31398W        W 3724   9.413  38.378  11.598
31399W        W 3725  26.236   1.740   1.263
31400W        W 3726  28.703   2.616   3.182
31401W        W 3727  42.768   5.226   2.692
31402W        W 3728  15.331  14.888   4.130
31403W        W 3729  14.454  12.191  11.727
31404W        W 3730  17.017  23.514  14.014
31405W        W 3731  32.888  35.622   0.745
31406W        W 3732  26.710  33.040  13.427
31407W        W 3733  12.058  38.970   2.938
31408W        W 3734  18.889  24.119   5.097
31409W        W 3735   2.856  30.444  11.309
31410W        W 3736  11.130  23.218   2.873
31411W        W 3737   2.901  30.921   0.961
31412W        W 3738  13.415  30.720  12.436
31413W        W 3739  30.927  14.014   1.912
31414W        W 3740   3.178  21.526  10.666
31415W        W 3741  11.683  13.842   4.110
31416W        W 3742  32.984  37.516  11.389
31417W        W 3743  36.709  32.850   3.331
31418W        W 3744  43.561  38.574   2.945
31419W        W 3745   0.821  24.150  11.027
31420W        W 3746  39.915   2.425   4.079
31421W        W 3747   8.607   9.916  14.895
31422W        W 3748  25.212  40.138  12.589
31423W        W 3749  28.614  30.884   0.758
31424W        W 3750   2.672   9.788  12.444
31425W        W 3751  43.531  10.762  14.861
31426W        W 3752  43.029  26.713  10.696
31427W        W 3753  11.895  43.440  13.819
31428W        W 3754  35.976   6.864  11.643
31429W        W 3755  15.043  37.208   1.853
31430W        W 3756  12.117  37.928  14.410
31431W        W 3757  31.583  33.738   4.983
31432W        W 3758   4.975  11.166   1.702
31433W        W 3759  42.512  39.991   1.542
31434W        W 3760  15.286  37.631   0.962
31435W        W 3761  25.238  23.766   4.058
31436W        W 3762   0.157  28.889  11.101
31437W        W 3763   1.241  44.245  13.032
31438W        W 3764  26.864  10.251  11.744
31439W        W 3765  17.517  34.622   3.044
31440W        W 3766  44.331  17.107  11.469
31441W        W 3767   2.378  39.605  11.966
31442W        W 3768  22.964  14.233  10.250
31443W        W 3769  34.169   9.169   1.973
31444W        W 3770   5.757  32.876   0.723
31445W        W 3771  17.808  42.347   2.625
31446W        W 3772  39.446  44.161  11.642
31447W        W 3773   1.142  18.387   0.380
31448W        W 3774  43.870  24.642  13.500
31449W        W 3775  37.111  36.512  14.262
31450W        W 3776  39.795  19.844  10.686
31451W        W 3777  10.365   6.220   1.748
31452W        W 3778  15.338  22.224  10.544
31453W        W 3779  41.408  20.976  10.788
31454W        W 3780  38.973   3.654   1.683
31455W        W 3781  28.937  37.737   2.250
31456W        W 3782  19.856  37.358   3.351
31457W        W 3783  31.154  38.447  10.611
31458W        W 3784  25.771  40.487  14.356
31459W        W 3785  27.068   6.667  11.421
31460W        W 3786  38.967  17.900   3.923
31461W        W 3787  10.580   0.753  11.998
31462W        W 3788  44.695  36.043   3.623
31463W        W 3789  21.727  13.840  10.957
31464W        W 3790  20.095  38.588   0.483
31465W        W 3791   5.688  25.236   3.203
31466W        W 3792  19.727  39.587  13.676
31467W        W 3793  27.275  30.393  13.776
31468W        W 3794   4.617  38.238  11.906
31469W        W 3795   4.443  18.773   1.037
31470W        W 3796  40.866  29.735   3.241
31471W        W 3797  40.750  31.018  13.929
31472W        W 3798  31.184  24.516   1.759
31473W        W 3799  44.452  41.363   1.937
31474W        W 3800  44.445  41.957   4.085
31475W        W 3801  33.235   2.358   4.269
31476W        W 3802  17.144  28.047  14.895
31477W        W 3803  41.391  18.684   1.383
31478W        W 3804  23.943   9.958   2.974
31479W        W 3805  24.334  22.442   3.365
31480W        W 3806  22.665  18.800  13.848
31481W        W 3807  23.982   3.230   1.226
31482W        W 3808  40.454   9.130   2.324
31483W        W 3809  26.610  41.680  11.575
31484W        W 3810  22.221  14.942   1.723
31485W        W 3811  37.406  14.867   3.903
31486W        W 3812  26.589  44.189   3.578
31487W        W 3813  33.183  29.997   0.890
31488W        W 3814   1.757  21.266   1.713
31489W        W 3815  16.123  33.140  12.615
31490W        W 3816  44.725  40.408  12.980
31491W        W 3817  21.282   5.431  12.188
31492W        W 3818  36.972  43.953   0.433
31493W        W 3819   6.000  36.438  14.312
31494W        W 3820  25.148  30.386   4.277
31495W        W 3821  39.251  43.679  11.540
31496W        W 3822  31.393  26.746  11.034
31497W        W 3823   8.702  10.765   3.338
31498W        W 3824  42.476  18.963   3.151
31499W        W 3825  24.266  11.183  14.261
31500W        W 3826  28.372  18.512  11.482
31501W        W 3827  23.931  35.914  12.405
31502W        W 3828  10.212   8.794  12.869
31503W        W 3829  27.308   0.854   0.635
31504W        W 3830  14.767  18.165  14.108
31505W        W 3831  42.450  15.253   4.934
31506W        W 3832  13.806   8.623  11.575
31507W        W 3833  30.043  15.136   1.742
31508W        W 3834  32.785  26.701  11.503
31509W        W 3835  11.770   6.218  11.938
31510W        W 3836  30.573   3.063   0.725
31511W        W 3837  27.524  12.780  13.149
31512W        W 3838  43.230  40.976   1.703
31513W        W 3839   9.180  35.007   4.870
31514W        W 3840  39.157  38.913   3.851
31515W        W 3841  26.951  25.774   4.259
31516W        W 3842  25.039  20.770   4.812
31517W        W 3843  17.267  28.627   1.242
31518W        W 3844  25.000   8.466  12.926
31519W        W 3845  10.575  30.036  14.826
31520W        W 3846  18.740  17.820   3.785
31521W        W 3847  12.838  39.050  11.563
31522W        W 3848  12.655  38.834  14.369
31523W        W 3849  28.693   0.955  14.323
31524W        W 3850  22.118  23.033  10.616
31525W        W 3851  36.379  37.865   2.421
31526W        W 3852  19.391   5.743  12.092
31527W        W 3853  10.916  32.485  12.488
31528W        W 3854  21.426   4.961  12.066
31529W        W 3855  26.443  33.577   4.202
31530W        W 3856  40.181  31.668  12.823
31531W        W 3857   8.423   2.195  14.345
31532W        W 3858  35.940  10.106  12.543
31533W        W 3859   9.785  41.811  12.351
31534W        W 3860  42.808   4.837  10.686
31535W        W 3861  40.107  29.159  12.901
31536W        W 3862  11.423  42.279  14.837
31537W        W 3863  18.863  23.645  10.355
31538W        W 3864  41.534   2.433  11.045
31539W        W 3865  40.329  15.670   1.343
31540W        W 3866  15.857  25.137   0.454
31541W        W 3867  44.518   6.697   4.478
31542W        W 3868  20.241   9.048   3.238
31543W        W 3869  12.214   8.511   3.770
31544W        W 3870  23.795  33.444   0.982
31545W        W 3871  43.468  34.124  13.399
31546W        W 3872   3.351  26.268   1.601
31547W        W 3873  12.177  35.152  11.064
31548W        W 3874  35.892  35.130   4.667
31549W        W 3875   0.401  29.358  14.114
31550W        W 3876  13.410  26.510  12.331
31551W        W 3877  10.254   1.520   4.485
31552W        W 3878  29.403  22.100  10.940
31553W        W 3879  23.905   4.368  11.900
31554W        W 3880  16.162  13.233   4.416
31555W        W 3881   1.917  37.430   2.739
31556W        W 3882  44.396  20.006   4.584
31557W        W 3883   9.216  39.126  11.997
31558W        W 3884  12.315  19.881   4.141
31559W        W 3885  32.453  12.646  12.924
31560W        W 3886   4.763  21.768  13.986
31561W        W 3887  40.896   7.544  12.453
31562W        W 3888  42.793  31.157  11.111
31563W        W 3889  22.615  14.250   2.310
31564W        W 3890  15.737  42.763  10.725
31565W        W 3891   3.367  30.747   0.829
31566W        W 3892  41.430  44.743   2.151
31567W        W 3893   6.739  15.640  12.416
31568W        W 3894  39.591   9.255   0.435
31569W        W 3895   8.448  40.898   1.275
31570W        W 3896  41.367   9.508   0.553
31571W        W 3897  42.251  27.366  11.461
31572W        W 3898   6.301  21.043   4.257
31573W        W 3899  37.329  15.369   3.692
31574W        W 3900  14.092  35.144  11.012
31575W        W 3901   5.524  26.394  14.481
31576W        W 3902  37.439  30.873   0.726
31577W        W 3903  11.633  31.207   2.991
31578W        W 3904  12.076  35.577  12.457
31579W        W 3905  29.214  12.775   3.795
31580W        W 3906  38.316  14.079  12.135
31581W        W 3907  34.080  30.999   0.805
31582W        W 3908  20.744   0.876  13.572
31583W        W 3909  18.146   9.030  11.952
31584W        W 3910  21.174  43.781   3.682
31585W        W 3911  23.153  12.857   2.879
31586W        W 3912  14.307  13.299   3.690
31587W        W 3913  40.784  17.922  11.436
31588W        W 3914  11.809  23.973  12.400
31589W        W 3915  11.179  16.503  11.976
31590W        W 3916  19.232  10.142   0.952
31591W        W 3917  34.409  15.573   0.053
31592W        W 3918  15.662  12.889  12.072
31593W        W 3919  40.785   9.859  11.468
31594W        W 3920  33.526   6.445  13.824
31595W        W 3921   1.750  13.180   0.983
31596W        W 3922  26.785   0.841  14.348
31597W        W 3923  21.277   5.385   2.271
31598W        W 3924  24.757  15.741   3.059
31599W        W 3925  31.386  33.871  14.769
31600W        W 3926  38.541  20.663  14.237
31601W        W 3927   3.861   1.496   1.902
31602W        W 3928  11.421   4.455  13.498
31603W        W 3929   8.612  18.144  13.612
31604W        W 3930   1.239   3.607   3.232
31605W        W 3931  20.584  40.349  11.486
31606W        W 3932   4.632  16.166  12.177
31607W        W 3933  15.067  11.737   1.525
31608W        W 3934  36.898   2.465   4.049
31609W        W 3935  16.686  20.958  14.012
31610W        W 3936  35.195  41.086  10.684
31611W        W 3937  12.386  11.746  14.324
31612W        W 3938  33.172  38.799   3.348
31613W        W 3939   7.713  24.933   4.560
31614W        W 3940  15.607  32.647   4.546
31615W        W 3941  34.609   3.254   3.885
31616W        W 3942   5.578  31.854   0.734
31617W        W 3943   6.720  25.922   4.657
31618W        W 3944  31.160   2.244  11.037
31619W        W 3945  41.375  31.589   3.138
31620W        W 3946  28.631  26.582  12.102
31621W        W 3947   1.805  18.654   3.604
31622W        W 3948   3.992   4.015  11.618
31623W        W 3949   4.531   4.452  10.376
31624W        W 3950  25.048  24.457   0.827
31625W        W 3951   9.859  21.964   1.989
31626W        W 3952   3.038   5.500  10.613
31627W        W 3953  22.642  20.715   3.917
31628W        W 3954  26.652  18.173  13.122
31629W        W 3955   2.785  29.880   2.155
31630W        W 3956  32.629  19.757  11.619
31631W        W 3957   6.957  15.214   2.700
31632W        W 3958  41.894   6.874   0.874
31633W        W 3959  33.829  29.002   2.966
31634W        W 3960  30.679  27.448  13.962
31635W        W 3961  44.800   6.402   3.366
31636W        W 3962  41.276   3.423  12.112
31637W        W 3963  22.263  13.782  11.024
31638W        W 3964  29.362  26.265  14.088
31639W        W 3965  23.297   1.373   1.687
31640W        W 3966  44.463  29.433  11.911
31641W        W 3967  19.540  29.528   0.737
31642W        W 3968   3.668  30.285   4.421
31643W        W 3969  15.799   7.529   2.310
31644W        W 3970  42.942  11.448   3.313
31645W        W 3971  10.842  22.327  13.954
31646W        W 3972   6.452  42.761   3.208
31647W        W 3973  21.593   7.751  11.579
31648W        W 3974  41.403  41.380   4.606
31649W        W 3975  30.141   5.153   2.349
31650W        W 3976   9.422  23.932   1.369
31651W        W 3977  40.375  41.237  11.631
31652W        W 3978   3.381  17.025  10.514
31653W        W 3979   2.479  42.793  11.455
31654W        W 3980   2.770  30.611   2.394
31655W        W 3981  18.260   1.899   2.785
31656W        W 3982  32.434  38.433  12.110
31657W        W 3983  23.798  37.516   0.137
31658W        W 3984  24.896  43.383  14.878
31659W        W 3985  28.066   8.233   3.892
31660W        W 3986  20.994  12.882  12.788
31661W        W 3987  23.250   5.104   0.381
31662W        W 3988  17.031  19.781   0.164
31663W        W 3989  11.702  38.452   1.317
31664W        W 3990   7.395  40.872   4.567
31665W        W 3991   3.248  40.877   4.482
31666W        W 3992  24.263  15.262  14.397
31667W        W 3993   6.922   8.558  13.329
31668W        W 3994   4.300  36.684  12.988
31669W        W 3995  24.131  26.000   3.631
31670W        W 3996  13.575  17.823   1.934
31671W        W 3997  35.007  22.787  14.104
31672W        W 3998  10.310  26.202   5.007
31673W        W 3999  23.727  24.318  12.278
31674W        W 4000   0.224  21.838  11.555
31675W        W 4001  20.789   0.692   4.619
31676W        W 4002  34.542  23.347   1.365
31677W        W 4003   0.696  41.421  12.851
31678W        W 4004  11.191  18.404  11.160
31679W        W 4005  14.136  34.058  13.306
31680W        W 4006   3.838   6.432   0.208
31681W        W 4007  26.146  27.063  12.369
31682W        W 4008  41.074   7.440   0.979
31683W        W 4009  18.663  24.423   1.699
31684W        W 4010  25.109   2.218  11.652
31685W        W 4011  20.159  44.731  12.552
31686W        W 4012  38.809  12.259   0.715
31687W        W 4013   0.920  38.557  12.025
31688W        W 4014  29.207  15.580  11.212
31689W        W 4015  30.494  11.105   3.541
31690W        W 4016  13.295   7.904  12.381
31691W        W 4017  17.356   4.512   2.253
31692W        W 4018  23.551  14.232  12.969
31693W        W 4019  31.315  21.574  11.924
31694W        W 4020   6.370  17.123  12.081
31695W        W 4021  40.386   8.478   4.652
31696W        W 4022  11.869  43.333   3.717
31697W        W 4023   4.258  37.440  11.666
31698W        W 4024   9.712  29.014   1.018
31699W        W 4025   6.188  27.059   3.711
31700W        W 4026  22.153  27.998  10.427
31701W        W 4027  32.322  15.385  12.063
31702W        W 4028   9.910   3.387   3.666
31703W        W 4029  10.798  35.154  14.290
31704W        W 4030  21.143  37.392  13.010
31705W        W 4031  11.370   8.879   2.848
31706W        W 4032  37.453  19.052   0.657
31707W        W 4033  38.566  32.506   2.232
31708W        W 4034  39.857  27.668   3.658
31709W        W 4035  36.257  18.749  14.833
31710W        W 4036  13.292   3.785  11.805
31711W        W 4037  33.204  16.395   0.214
31712W        W 4038  18.276  28.716   4.687
31713W        W 4039  42.899  37.294   4.053
31714W        W 4040  40.636  35.878   3.515
31715W        W 4041   0.253  30.839  11.864
31716W        W 4042  36.053  16.216   3.303
31717W        W 4043  30.556  10.635   3.256
31718W        W 4044   7.685  27.153   3.665
31719W        W 4045   4.362  11.086  10.588
31720W        W 4046   5.324  19.809   0.373
31721W        W 4047  25.424  26.170  12.568
31722W        W 4048  16.661  23.425  10.885
31723W        W 4049  24.205  33.074   1.799
31724W        W 4050  43.733  28.693   3.283
31725W        W 4051  35.818  30.449   1.287
31726W        W 4052  20.107  24.229   4.373
31727W        W 4053   8.655   1.773   0.172
31728W        W 4054   7.464  29.409  14.268
31729W        W 4055  17.307  38.628   2.869
31730W        W 4056  41.220  19.142  12.477
31731W        W 4057  14.060  13.567   0.900
31732W        W 4058  30.062  32.558   0.436
31733W        W 4059   5.764  28.060  11.670
31734W        W 4060  16.281  17.548  12.987
31735W        W 4061  44.770  22.697  10.695
31736W        W 4062  33.430   0.513   0.739
31737W        W 4063   3.128  38.521   0.716
31738W        W 4064   5.788  27.230   4.022
31739W        W 4065  37.475  30.073  12.551
31740W        W 4066  22.471   5.686  13.372
31741W        W 4067  43.235  13.634   1.534
31742W        W 4068  16.719  10.551  13.033
31743W        W 4069   4.397  28.939   1.817
31744W        W 4070  23.968   1.396  12.493
31745W        W 4071  12.195  32.637  13.831
31746W        W 4072  42.604  17.556   1.964
31747W        W 4073  38.945  14.879   2.688
31748W        W 4074  36.553   9.331   1.660
31749W        W 4075  16.073  38.840  12.844
31750W        W 4076  17.305  42.523  12.972
31751W        W 4077   9.402  23.056  10.635
31752W        W 4078  30.900  22.074   4.261
31753W        W 4079  29.417  37.527   2.201
31754W        W 4080  36.501  23.015  12.500
31755W        W 4081   4.858  37.814   3.393
31756W        W 4082  17.141  22.215  12.937
31757W        W 4083  36.088  30.178  14.499
31758W        W 4084   2.260   2.483  11.848
31759W        W 4085  22.269  41.505   3.866
31760W        W 4086  13.234  26.011   1.813
31761W        W 4087  38.867  12.307  10.221
31762W        W 4088   6.426  44.032   4.594
31763W        W 4089  32.296  10.672  13.945
31764W        W 4090   2.174  17.838   2.607
31765W        W 4091  38.765   3.915  12.539
31766W        W 4092   6.960   3.687   1.735
31767W        W 4093  34.962  13.912  11.303
31768W        W 4094  36.514   1.063  13.833
31769W        W 4095   0.436  10.662  10.928
31770W        W 4096  15.168  42.704   4.140
31771W        W 4097  32.583  36.646  14.305
31772W        W 4098  17.065   5.314  11.214
31773W        W 4099  13.278   5.381   0.984
31774W        W 4100   5.614  29.963   3.347
31775W        W 4101  15.641  34.844  10.212
31776W        W 4102  34.882   9.556  14.704
31777W        W 4103   4.200   9.549  14.946
31778W        W 4104   1.797  28.199  10.444
31779W        W 4105  13.288  43.267  13.529
31780W        W 4106   2.434  36.021  14.949
31781W        W 4107  44.363  35.174   2.337
31782W        W 4108  37.845  12.093  12.009
31783W        W 4109  11.284  42.854   2.394
31784W        W 4110  24.622   8.850  14.421
31785W        W 4111   0.999  24.996   1.725
31786W        W 4112   7.564  37.984   0.722
31787W        W 4113   8.878  44.426   3.301
31788W        W 4114   5.596  21.044   2.227
31789W        W 4115   0.191  21.297   2.423
31790W        W 4116  19.927  15.114  13.392
31791W        W 4117  42.413  38.186   3.319
31792W        W 4118  36.846  24.724  11.747
31793W        W 4119  18.267  23.739  14.301
31794W        W 4120  39.026  30.965  14.273
31795W        W 4121   9.306  28.920   1.311
31796W        W 4122  24.224   0.831   4.655
31797W        W 4123  35.357   5.325   4.576
31798W        W 4124  24.069  38.076   5.059
31799W        W 4125   4.443   4.538  14.189
31800W        W 4126  16.791  18.116  11.427
31801W        W 4127  39.301   3.559  14.302
31802W        W 4128   9.574   2.415   2.809
31803W        W 4129   5.926  32.977   3.103
31804W        W 4130  24.116   8.678  14.975
31805W        W 4131  23.141   2.967  13.808
31806W        W 4132  34.924  30.195   1.189
31807W        W 4133   4.815  32.692  12.501
31808W        W 4134  33.146  39.474   1.757
31809W        W 4135  27.147  33.548   3.108
31810W        W 4136  26.194  23.076   1.305
31811W        W 4137  18.654  29.525   1.248
31812W        W 4138  28.718  38.626   1.490
31813W        W 4139   5.202  22.149   4.794
31814W        W 4140  33.718  11.361  10.035
31815W        W 4141   5.978  11.323   1.875
31816W        W 4142  10.324   1.716  14.559
31817W        W 4143  23.550  24.828  12.202
31818W        W 4144   3.369  17.051   1.620
31819W        W 4145  28.453  15.982   2.632
31820W        W 4146  15.534  28.404   4.187
31821W        W 4147  23.632  22.811   0.431
31822W        W 4148  29.043   7.169   4.159
31823W        W 4149   2.685  35.214   5.173
31824W        W 4150  19.547  41.209  13.011
31825W        W 4151  32.117  32.949   3.474
31826W        W 4152  12.686  15.958   3.272
31827W        W 4153  22.997  37.427   2.334
31828W        W 4154   1.256  10.125   0.483
31829W        W 4155   2.513   5.929  10.130
31830W        W 4156  22.782  40.036   1.489
31831W        W 4157  44.907  34.004  14.590
31832W        W 4158   9.104  36.488   2.415
31833W        W 4159  32.011  37.965  11.538
31834W        W 4160  23.653  42.157   3.830
31835W        W 4161  29.947  23.676  12.041
31836W        W 4162  23.233   5.745   4.196
31837W        W 4163   2.416  10.159   3.185
31838W        W 4164  11.775  31.035  11.030
31839W        W 4165  32.509   5.178   3.185
31840W        W 4166  32.702  27.105   0.506
31841W        W 4167  23.289  40.370   9.695
31842W        W 4168   3.818   8.847  10.276
31843W        W 4169   9.785  42.278   4.568
31844W        W 4170   7.079  37.666   4.512
31845W        W 4171  27.732  26.833  11.550
31846W        W 4172  17.880   7.802   3.729
31847W        W 4173   6.755   5.855  11.137
31848W        W 4174  37.322  32.415  13.327
31849W        W 4175  37.964  26.098   4.540
31850W        W 4176  11.348  33.828  14.372
31851W        W 4177  31.204  22.560   1.016
31852W        W 4178  18.779   5.195  12.031
31853W        W 4179  37.401  31.392   3.222
31854W        W 4180  26.087  26.278   0.270
31855W        W 4181  17.311  43.877  13.773
31856W        W 4182  30.675   9.393   1.865
31857W        W 4183  31.833  42.754  11.166
31858W        W 4184  23.006  16.091  10.197
31859W        W 4185   1.483  12.952   2.565
31860W        W 4186  38.807   4.682   4.089
31861W        W 4187   7.920  12.932   0.857
31862W        W 4188  31.468  32.945  10.988
31863W        W 4189  16.563  31.144   0.829
31864W        W 4190  26.044  13.181  13.140
31865W        W 4191  28.035  29.897   1.213
31866W        W 4192  29.459  29.644   0.318
31867W        W 4193  29.704   0.764  14.474
31868W        W 4194  17.211  17.361   5.043
31869W        W 4195   7.136  14.689  12.409
31870W        W 4196  43.714  24.972  12.582
31871W        W 4197  28.653  39.139   2.734
31872W        W 4198   5.354  11.340  12.144
31873W        W 4199  14.849  36.029   5.480
31874W        W 4200  10.737  31.055   1.760
31875W        W 4201  24.916  32.686  11.187
31876W        W 4202  44.015   0.302   4.136
31877W        W 4203  18.466  34.276   3.238
31878W        W 4204  33.889   1.371   0.347
31879W        W 4205   3.299   2.675  10.783
31880W        W 4206  23.661   2.849  14.483
31881W        W 4207   8.172  40.388  13.033
31882W        W 4208  27.202  12.753   1.904
31883W        W 4209   4.106  29.232   0.424
31884W        W 4210   3.750  10.947   0.173
31885W        W 4211  14.146  10.144  11.586
31886W        W 4212  13.350  14.229  10.276
31887W        W 4213   5.896  41.962  11.980
31888W        W 4214  35.464  32.951   4.227
31889W        W 4215  38.043  38.885  12.973
31890W        W 4216  13.123  18.559  12.894
31891W        W 4217  25.331  40.785   2.147
31892W        W 4218  28.515  28.259  13.386
31893W        W 4219  15.668   1.294   4.635
31894W        W 4220   6.471  40.756  14.283
31895W        W 4221   7.664   0.424   3.792
31896W        W 4222   1.717  40.909  14.015
31897W        W 4223   0.858  33.854  14.495
31898W        W 4224   5.170   2.341   4.744
31899W        W 4225  13.403   7.834   2.274
31900W        W 4226   2.412  25.365  13.923
31901W        W 4227   2.768  38.060  12.004
31902W        W 4228   4.730  29.408  10.743
31903W        W 4229  42.712   9.041   0.775
31904W        W 4230  14.603  33.123   0.753
31905W        W 4231  12.502  34.487  12.461
31906W        W 4232  32.575  41.988  14.875
31907W        W 4233   4.923  22.290  11.046
31908W        W 4234  38.907   7.220  11.441
31909W        W 4235  39.374   0.211  11.363
31910W        W 4236  25.180  41.123   1.789
31911W        W 4237  23.945  40.619   1.257
31912W        W 4238  32.951  26.260  14.947
31913W        W 4239  38.508  26.216  13.929
31914W        W 4240  40.348  28.242  12.084
31915W        W 4241   6.800  35.162   1.279
31916W        W 4242  40.994   7.963   3.519
31917W        W 4243  27.491  34.295  12.466
31918W        W 4244  27.652  28.238  13.354
31919W        W 4245  14.607  17.630  10.702
31920W        W 4246  16.984  19.778  13.206
31921W        W 4247   2.995  44.250   1.131
31922W        W 4248  34.094   1.976  13.353
31923W        W 4249  12.615  42.502  12.861
31924W        W 4250  29.073  21.679   4.344
31925W        W 4251  14.571   1.994  12.503
31926W        W 4252   3.731  14.128  12.070
31927W        W 4253  13.175  12.365  14.012
31928W        W 4254  35.866  17.684   2.311
31929W        W 4255  27.455  27.049   1.445
31930W        W 4256  17.326   6.371   1.323
31931W        W 4257  25.535  43.459  13.458
31932W        W 4258  23.557  37.933   1.767
31933W        W 4259  15.380  10.837   4.332
31934W        W 4260  34.846  29.711   4.509
31935W        W 4261  20.462   7.686  14.530
31936W        W 4262   9.797  28.201  13.529
31937W        W 4263  34.673  14.544  14.259
31938W        W 4264  17.782   9.118  13.144
31939W        W 4265  10.907  32.383   2.841
31940W        W 4266   8.902  19.353  11.691
31941W        W 4267  36.898  19.026  11.962
31942W        W 4268  38.587  40.870  12.048
31943W        W 4269  22.002   3.220   2.279
31944W        W 4270  31.404  38.838   3.748
31945W        W 4271  10.689  32.443  10.632
31946W        W 4272  42.342  15.141  14.597
31947W        W 4273  33.857   1.835   1.633
31948W        W 4274  22.252  22.649  10.970
31949W        W 4275  10.307  18.118   2.221
31950W        W 4276   0.684  30.490  10.457
31951W        W 4277  32.406  23.295  13.713
31952W        W 4278  35.974   1.939  14.823
31953W        W 4279  37.607  20.971  12.582
31954W        W 4280  12.702  17.744  13.011
31955W        W 4281  42.066   6.838  10.651
31956W        W 4282   3.771  42.618   0.648
31957W        W 4283  18.606   3.269   4.525
31958W        W 4284  26.274   3.113  10.595
31959W        W 4285   9.327   1.172   3.528
31960W        W 4286  21.563  37.652   3.172
31961W        W 4287  29.306  35.663  10.709
31962W        W 4288  42.537  36.357  14.916
31963W        W 4289  36.819   8.288   4.499
31964W        W 4290  43.438  31.188   1.165
31965W        W 4291  23.435  17.730   4.059
31966W        W 4292  36.496  22.861  14.895
31967W        W 4293  12.633   0.815  12.908
31968W        W 4294  44.520  41.378   2.833
31969W        W 4295  12.028  10.406   0.873
31970W        W 4296  36.851   9.775   3.233
31971W        W 4297   6.307  31.661  12.488
31972W        W 4298  38.485  33.134  12.625
31973W        W 4299  10.680  23.122   1.463
31974W        W 4300  42.375   8.041   4.559
31975W        W 4301  28.152  36.657  14.026
31976W        W 4302   1.495  21.547   3.728
31977W        W 4303   2.373  37.800   2.310
31978W        W 4304  40.751  11.340   1.687
31979W        W 4305   3.832   5.150  12.653
31980W        W 4306  19.085  40.846  11.004
31981W        W 4307  16.093  24.102   1.734
31982W        W 4308  33.577   3.387   3.086
31983W        W 4309  14.336  39.909   2.418
31984W        W 4310   3.266  32.024   1.808
31985W        W 4311  29.725  15.249   3.111
31986W        W 4312  23.041  33.684  11.490
31987W        W 4313  14.139  43.884   2.663
31988W        W 4314  17.572  15.171   3.270
31989W        W 4315  25.985  13.756   2.320
31990W        W 4316  26.939   8.348  12.060
31991W        W 4317  13.872  28.000  12.718
31992W        W 4318  28.574  10.219   2.415
31993W        W 4319  15.264  32.426   1.569
31994W        W 4320  16.869  32.550  12.761
31995W        W 4321  19.659   0.914  11.157
31996W        W 4322  24.751  17.982  11.141
31997W        W 4323   5.940  29.445   2.171
31998W        W 4324   7.412  34.054  14.933
31999W        W 4325  21.270  38.002  11.067
32000W        W 4326  40.012   6.836  11.893
32001W        W 4327  24.128  39.008   1.023
32002W        W 4328  14.189  24.903   1.042
32003W        W 4329  21.504  18.315   1.750
32004W        W 4330  15.109   2.769  14.365
32005W        W 4331  32.163   8.652  12.087
32006W        W 4332  42.400  21.738   1.462
32007W        W 4333  40.857  12.130   4.702
32008W        W 4334  27.584  15.302  10.733
32009W        W 4335   1.265   8.690   3.257
32010W        W 4336  18.633  26.114   3.631
32011W        W 4337  16.211  25.499  11.151
32012W        W 4338  18.792  19.475   4.051
32013W        W 4339   9.547  14.923  13.118
32014W        W 4340  15.270  29.181   1.940
32015W        W 4341   6.427  32.905   0.353
32016W        W 4342   1.487  41.411   1.665
32017W        W 4343   2.350  22.721   4.889
32018W        W 4344  37.635  13.287   2.762
32019W        W 4345  42.048  15.046  12.361
32020W        W 4346  42.317  16.573   2.455
32021W        W 4347  40.772  41.463   3.802
32022W        W 4348  27.252  13.272  10.742
32023W        W 4349   0.840   7.539   2.758
32024W        W 4350   3.094   4.549   9.917
32025W        W 4351  22.336   4.673  12.597
32026W        W 4352  27.743  42.500   3.665
32027W        W 4353  28.896  12.392   3.162
32028W        W 4354   1.816  21.016  11.091
32029W        W 4355  19.413   3.197  13.384
32030W        W 4356  25.017  38.679  12.534
32031W        W 4357  17.343   7.177   1.230
32032W        W 4358  17.928  41.838   1.186
32033W        W 4359  36.088  40.665   4.732
32034W        W 4360  22.778  35.536   4.138
32035W        W 4361  39.998  13.847  10.916
32036W        W 4362  21.693  25.584   0.298
32037W        W 4363   4.814   0.733   3.735
32038W        W 4364   7.096  15.223   2.177
32039W        W 4365  10.714  16.046  14.091
32040W        W 4366  18.270  30.357  12.808
32041W        W 4367  11.538  31.577   2.633
32042W        W 4368  25.140  15.581   3.865
32043W        W 4369   7.567   0.846  14.071
32044W        W 4370  35.338   9.837  13.383
32045W        W 4371   2.688   7.808   4.158
32046W        W 4372  31.542  20.263   1.155
32047W        W 4373  35.644   0.463  11.241
32048W        W 4374  16.343  28.446  14.898
32049W        W 4375  42.330  20.350   3.569
32050W        W 4376  32.941  23.173   1.655
32051W        W 4377  43.400  32.922  13.070
32052W        W 4378  38.724  37.995  12.974
32053W        W 4379  40.827  15.352   2.161
32054W        W 4380  18.457  14.038  14.517
32055W        W 4381   3.128  41.077   0.738
32056W        W 4382   0.670   6.700   4.577
32057W        W 4383  16.700  37.477  11.366
32058W        W 4384  35.090  31.158  12.472
32059W        W 4385  28.217  15.065   3.199
32060W        W 4386  11.984  11.531  11.515
32061W        W 4387   3.388  12.906   0.338
32062W        W 4388  18.573  32.948   4.925
32063W        W 4389   1.026   7.693   0.509
32064W        W 4390  27.434  35.151   2.238
32065W        W 4391  27.372   5.699  11.100
32066W        W 4392  25.148  30.647  11.179
32067W        W 4393  30.663  28.894   0.483
32068W        W 4394  43.061  15.672   4.444
32069W        W 4395  16.079   3.412  11.671
32070W        W 4396  40.118  16.260   1.216
32071W        W 4397  43.151  16.219  14.396
32072W        W 4398  29.717   2.416  11.137
32073W        W 4399  14.837  27.558  11.926
32074W        W 4400  41.406   4.213  13.525
32075W        W 4401  30.247  41.566   0.460
32076W        W 4402  36.444  40.372   4.107
32077W        W 4403  24.568  42.520  10.626
32078W        W 4404  17.404  15.884   2.269
32079W        W 4405   0.216   6.458   4.681
32080W        W 4406  43.017  26.866  11.197
32081W        W 4407  10.378  22.073  12.059
32082W        W 4408   2.986   2.007  12.757
32083W        W 4409  33.368  12.240  10.511
32084W        W 4410  28.037  10.652   4.731
32085W        W 4411  26.060   7.149   3.435
32086W        W 4412  35.430   6.652   2.078
32087W        W 4413   6.708   2.762  12.340
32088W        W 4414  24.492  20.711   0.721
32089W        W 4415  19.545   2.390   2.836
32090W        W 4416  31.347  32.923   3.759
32091W        W 4417   1.255  34.376  14.000
32092W        W 4418   0.672  24.781   0.104
32093W        W 4419  42.616  44.943   1.981
32094W        W 4420  21.041  38.881   3.881
32095W        W 4421   8.897  11.077  12.478
32096W        W 4422  30.127   0.870  11.882
32097W        W 4423  40.530   4.311  11.653
32098W        W 4424   9.164  16.287   3.413
32099W        W 4425  11.655  37.970   1.101
32100W        W 4426  20.981  33.150  12.542
32101W        W 4427  39.869  25.202   3.684
32102W        W 4428  35.069  33.192  14.791
32103W        W 4429  12.094  36.997   5.240
32104W        W 4430   7.759  37.715  12.128
32105W        W 4431  14.183  40.441  14.027
32106W        W 4432  10.339  14.760  14.401
32107W        W 4433   3.756  20.001  13.879
32108W        W 4434  14.213  28.842  11.608
32109W        W 4435   1.994  40.324  10.599
32110W        W 4436   8.260   4.673   2.827
32111W        W 4437   4.820   0.722   1.297
32112W        W 4438  19.515  20.189  10.672
32113W        W 4439  10.687  14.361  14.958
32114W        W 4440  36.909   8.366   2.896
32115W        W 4441  40.219  28.812   4.138
32116W        W 4442  17.440  22.967   3.176
32117W        W 4443  40.961  20.260  14.543
32118W        W 4444  39.992  11.755  11.077
32119W        W 4445  15.567   0.927  13.390
32120W        W 4446  28.123   0.879   2.798
32121W        W 4447  33.032  18.786  12.978
32122W        W 4448  29.726  41.796   3.740
32123W        W 4449  32.647  17.821  12.821
32124W        W 4450   9.941  42.509  14.447
32125W        W 4451  21.355  41.352   4.997
32126W        W 4452  44.454  24.799   1.342
32127W        W 4453   7.198   5.697  11.410
32128W        W 4454  12.155  44.963  12.135
32129W        W 4455  44.671  38.208  14.504
32130W        W 4456   1.831   2.887  13.422
32131W        W 4457   4.194   4.263   0.139
32132W        W 4458  39.335  32.132  14.105
32133W        W 4459  23.475  29.512  13.945
32134W        W 4460   2.355  25.689   0.917
32135W        W 4461   4.347   3.486  11.005
32136W        W 4462  17.456  44.759  11.226
32137W        W 4463  17.820  26.193   4.340
32138W        W 4464   4.424   8.710   2.791
32139W        W 4465  12.062  15.665  12.651
32140W        W 4466  19.700  20.122  11.610
32141W        W 4467   7.279   1.492  14.769
32142W        W 4468  25.498  14.724  11.667
32143W        W 4469   2.662  17.221   0.490
32144W        W 4470  12.396  44.196  12.345
32145W        W 4471  19.124  40.148  12.675
32146W        W 4472  36.593  13.106  13.513
32147W        W 4473  40.782  22.175  11.151
32148W        W 4474  36.822  37.284   2.205
32149W        W 4475  39.823  40.535  11.044
32150W        W 4476  32.920  17.217  13.359
32151W        W 4477  23.769  11.218   3.247
32152W        W 4478   5.896  41.628  12.600
32153W        W 4479  42.847  21.027  14.917
32154W        W 4480  28.506  30.379  14.365
32155W        W 4481  29.975  41.956   1.813
32156W        W 4482  12.565  22.676   2.164
32157W        W 4483   7.438  26.180   4.591
32158W        W 4484  41.351  28.436   2.283
32159W        W 4485  30.524  25.741  13.610
32160W        W 4486   4.055  29.740   0.491
32161W        W 4487   3.650  19.161  12.014
32162W        W 4488  12.608   2.900   1.730
32163W        W 4489  13.818   3.691  11.114
32164W        W 4490  14.274  21.968  11.549
32165W        W 4491  21.861  37.910   2.776
32166W        W 4492  41.911  24.464  10.674
32167W        W 4493   2.947  11.425   9.880
32168W        W 4494  23.717  16.341   4.193
32169W        W 4495  27.095   5.731   1.276
32170W        W 4496  19.680  39.979  11.120
32171W        W 4497   6.928  33.003   0.360
32172W        W 4498  23.059  15.913   0.286
32173W        W 4499  44.838  34.223  11.540
32174W        W 4500  15.248   0.320  11.564
32175W        W 4501   3.456  40.496  13.915
32176W        W 4502  39.944  24.701   3.692
32177W        W 4503  20.164  10.614  10.431
32178W        W 4504  12.272  19.065  13.999
32179W        W 4505   6.106   2.300   3.192
32180W        W 4506  17.237  40.405  11.360
32181W        W 4507  42.675  10.870   1.316
32182W        W 4508   5.175  16.202  13.558
32183W        W 4509   0.755   9.658  13.803
32184W        W 4510  30.182   9.287  14.370
32185W        W 4511   2.740  13.333   4.070
32186W        W 4512  44.443   4.228  10.304
32187W        W 4513   1.926  41.829   4.421
32188W        W 4514   8.681  17.088  10.664
32189W        W 4515  40.786  18.574   4.419
32190W        W 4516   3.790  22.810   0.380
32191W        W 4517   7.335   7.284   3.178
32192W        W 4518   1.787  35.371   3.372
32193W        W 4519  14.846  15.224   2.768
32194W        W 4520  17.113  12.778  12.327
32195W        W 4521  41.429   7.233  14.096
32196W        W 4522   0.976  20.649  12.895
32197W        W 4523  19.181  24.732  12.220
32198W        W 4524  10.274   7.971  12.421
32199W        W 4525  17.254  35.632  10.792
32200W        W 4526  43.913   4.856   2.433
32201W        W 4527  32.867  23.078  14.785
32202W        W 4528   3.783  12.649   4.607
32203W        W 4529  42.311   0.495  11.157
32204W        W 4530   9.600   4.735   0.868
32205W        W 4531  28.696   4.993   2.826
32206W        W 4532  13.838  27.992   0.972
32207W        W 4533  16.990  21.120  14.396
32208W        W 4534  28.930   7.921   3.686
32209W        W 4535  30.157  18.687   1.776
32210W        W 4536   9.844  29.934   2.427
32211W        W 4537  20.706  26.792  11.978
32212W        W 4538  22.089   5.165   0.868
32213W        W 4539  28.241   0.859  11.566
32214W        W 4540  18.221  17.291   4.857
32215W        W 4541   3.339  20.481   0.410
32216W        W 4542  25.033  40.210  12.092
32217W        W 4543  44.492  12.801  14.023
32218W        W 4544  35.076  16.573  14.168
32219W        W 4545   3.441   1.025   2.777
32220W        W 4546  38.979   0.226  12.622
32221W        W 4547  24.058  17.721  10.743
32222W        W 4548  18.981   2.700   3.770
32223W        W 4549  20.206  18.322   2.395
32224W        W 4550  10.250  16.040  13.819
32225W        W 4551  39.646   6.124  11.694
32226W        W 4552  15.917  19.950  12.663
32227W        W 4553   8.830  14.722  14.263
32228W        W 4554  20.274  18.310  11.529
32229W        W 4555   6.742   8.355  10.707
32230W        W 4556   5.586   7.752  11.999
32231W        W 4557  21.343  43.276   3.675
32232W        W 4558  10.150  30.295   2.668
32233W        W 4559  13.450  16.612   2.397
32234W        W 4560  10.267  38.950   2.612
32235W        W 4561  32.098   4.932  13.164
32236W        W 4562  44.142  26.882   3.731
32237W        W 4563  42.864  20.993   3.721
32238W        W 4564   4.907  26.458   1.096
32239W        W 4565  31.890   5.475  13.387
32240W        W 4566  43.435  36.679  11.147
32241W        W 4567  27.594  12.302  12.932
32242W        W 4568  39.465  41.118   2.903
32243W        W 4569  39.073  24.914  10.709
32244W        W 4570   6.187  28.038  13.761
32245W        W 4571  10.951  27.691  13.385
32246W        W 4572  23.365   7.669   0.063
32247W        W 4573  27.617  15.116  12.874
32248W        W 4574   5.994  30.025  11.033
32249W        W 4575  25.118  24.029  13.008
32250W        W 4576  43.031  12.778   0.372
32251W        W 4577   8.259  34.173  13.732
32252W        W 4578  22.629  29.964   3.341
32253W        W 4579  18.680  16.597  10.721
32254W        W 4580  37.074  41.546   0.779
32255W        W 4581  43.636  15.470   2.368
32256W        W 4582  39.804   5.886  10.546
32257W        W 4583  31.000  34.135  14.966
32258W        W 4584  26.308  39.796  12.771
32259W        W 4585   0.496   4.602   1.231
32260W        W 4586  12.242  24.127  12.088
32261W        W 4587  11.137  35.564   0.870
32262W        W 4588   4.859  20.735   2.861
32263W        W 4589  42.465  43.949   4.849
32264W        W 4590  31.470   0.156   2.551
32265W        W 4591   2.010  13.268  13.062
32266W        W 4592  40.810  17.445   1.402
32267W        W 4593   7.798  17.076   4.527
32268W        W 4594  26.241   7.396  14.933
32269W        W 4595  24.132  14.179   9.955
32270W        W 4596  39.921   1.867   3.186
32271W        W 4597  28.649  34.922  12.984
32272W        W 4598  13.130  40.087  14.756
32273W        W 4599   6.373  10.140  14.022
32274W        W 4600  40.532  39.493   3.506
32275W        W 4601  12.837  19.317  11.177
32276W        W 4602  23.531   4.112  14.192
32277W        W 4603  14.109  23.559  13.009
32278W        W 4604  12.809  16.314   1.909
32279W        W 4605   7.299   3.311   1.940
32280W        W 4606   3.724  16.364   1.197
32281W        W 4607   0.957   2.493  13.774
32282W        W 4608  17.210  25.093  14.819
32283W        W 4609  34.454  12.698   0.026
32284W        W 4610   3.996  11.425  10.426
32285W        W 4611   0.349  15.551  12.899
32286W        W 4612  23.284  35.488   1.356
32287W        W 4613  16.087   7.351   1.903
32288W        W 4614  23.662   3.691  13.844
32289W        W 4615  27.421  43.276   4.137
32290W        W 4616  44.254  37.494   2.918
32291W        W 4617   6.439  14.679   1.678
32292W        W 4618  23.032  40.913  11.421
32293W        W 4619  21.460  30.982   0.937
32294W        W 4620  20.235  33.607  13.048
32295W        W 4621  16.729  14.611  12.414
32296W        W 4622  31.178   9.780  12.156
32297W        W 4623  23.887  11.686  14.020
32298W        W 4624   4.902  12.347   4.031
32299W        W 4625   4.735  34.970   3.123
32300W        W 4626  44.325   5.671  10.444
32301W        W 4627  15.643   9.406   1.382
32302W        W 4628   5.702  29.591   4.066
32303W        W 4629  24.451  13.734  14.956
32304W        W 4630  29.168   9.783   3.552
32305W        W 4631  40.022  33.109  12.828
32306W        W 4632   9.836  14.356   2.711
32307W        W 4633  11.296  11.400  10.955
32308W        W 4634  23.882  39.312   4.538
32309W        W 4635   4.266  14.003   3.212
32310W        W 4636  33.976  11.534   3.673
32311W        W 4637  27.350  11.749   2.820
32312W        W 4638  13.112  41.777   0.709
32313W        W 4639   4.183  34.312  11.881
32314W        W 4640  36.711  35.985   3.790
32315W        W 4641  37.381  17.536  14.919
32316W        W 4642  11.848  40.977  13.899
32317W        W 4643  21.961  38.433   1.777
32318W        W 4644  37.808  40.585   1.824
32319W        W 4645  35.646  31.351   1.927
32320W        W 4646  27.450  26.602  11.037
32321W        W 4647  33.691  21.920   1.935
32322W        W 4648  13.548  28.100  11.129
32323W        W 4649  39.513  21.073  11.186
32324W        W 4650  15.348  23.135   0.747
32325W        W 4651   1.745  22.420  10.929
32326W        W 4652  33.547  32.932  14.369
32327W        W 4653   4.902  19.903   4.208
32328W        W 4654   5.478  18.038   0.312
32329W        W 4655  20.649   9.770  14.559
32330W        W 4656   4.194  43.320  10.695
32331W        W 4657  15.306  19.587  11.164
32332W        W 4658  30.602  11.874   0.582
32333W        W 4659  42.033   5.875   2.791
32334W        W 4660  25.262  34.964   0.609
32335W        W 4661  31.464  24.572  12.723
32336W        W 4662  38.140  35.819  12.931
32337W        W 4663  28.565   3.309  13.852
32338W        W 4664  44.766  25.298   1.173
32339W        W 4665  16.177  35.342   1.356
32340W        W 4666   2.706  37.864   3.625
32341W        W 4667  30.149  44.397  10.580
32342W        W 4668  41.297  10.037   1.412
32343W        W 4669   5.004  44.958  11.982
32344W        W 4670  31.052  33.539  11.548
32345W        W 4671  36.537  22.747   9.863
32346W        W 4672  23.951  27.651   4.683
32347W        W 4673  30.438  41.887   3.192
32348W        W 4674   0.510  34.728  12.935
32349W        W 4675  23.102  23.224   1.246
32350W        W 4676  13.084  43.517   1.214
32351W        W 4677  39.327   2.885   0.388
32352W        W 4678  36.667  20.456  13.784
32353W        W 4679  14.547   3.413  11.614
32354W        W 4680   9.576  20.701   4.239
32355W        W 4681  33.465   9.403  10.255
32356W        W 4682   2.403  30.196   5.066
32357W        W 4683  11.064  44.572  10.760
32358W        W 4684   9.537  30.971  11.917
32359W        W 4685  19.006   8.179  13.016
32360W        W 4686   8.160  26.734  14.977
32361W        W 4687  14.113  27.493  10.599
32362W        W 4688  30.309   2.243   3.330
32363W        W 4689  38.355  12.240  10.727
32364W        W 4690   4.379  35.832  14.824
32365W        W 4691  29.368  40.880   4.215
32366W        W 4692  11.837  10.704  11.113
32367W        W 4693  37.045  37.542   1.724
32368W        W 4694  21.273   0.717  12.498
32369W        W 4695   2.736   8.739   4.575
32370W        W 4696  12.251  29.131   4.419
32371W        W 4697  36.841  17.980   4.552
32372W        W 4698   2.901  40.526  14.814
32373W        W 4699  18.264  40.479  13.026
32374W        W 4700   0.497  15.682   1.854
32375W        W 4701  22.958  17.702  10.205
32376W        W 4702  32.547  12.547   3.098
32377W        W 4703  19.254   9.437  13.569
32378W        W 4704  10.862  22.511   1.984
32379W        W 4705  34.044  27.470   2.794
32380W        W 4706  32.025  16.877   0.749
32381W        W 4707  42.738  37.844  14.854
32382W        W 4708  19.793  40.919   0.899
32383W        W 4709  28.250  37.419   1.359
32384W        W 4710  10.613  21.107   1.700
32385W        W 4711  11.182  32.326   2.404
32386W        W 4712  37.442   6.414   4.642
32387W        W 4713  30.437   6.932  14.493
32388W        W 4714  35.064   4.955  11.649
32389W        W 4715  21.101  42.783  14.368
32390W        W 4716  15.368   6.158  11.508
32391W        W 4717  37.470  17.597   0.426
32392W        W 4718  10.308  26.529  10.124
32393W        W 4719   5.542  22.717   9.890
32394W        W 4720  44.244  39.537  11.466
32395W        W 4721  36.872  24.746  11.224
32396W        W 4722  17.559  13.470  14.356
32397W        W 4723  42.789  23.888  12.756
32398W        W 4724   7.796  24.504  12.950
32399W        W 4725  27.159   3.142   0.282
32400W        W 4726  29.951   7.207  11.638
32401W        W 4727  14.213  42.204  14.006
32402W        W 4728  11.126   9.432   3.577
32403W        W 4729  33.130  14.781   0.041
32404W        W 4730  22.660  35.545   1.771
32405W        W 4731   6.366  25.679   3.751
32406W        W 4732  41.327   4.671  14.747
32407W        W 4733  17.118  33.345   2.768
32408W        W 4734  38.587  36.868   2.963
32409W        W 4735   9.268  34.646  11.165
32410W        W 4736  35.663  10.692   1.819
32411W        W 4737  18.278   2.993  10.685
32412W        W 4738   7.807  10.618   4.113
32413W        W 4739  19.660  22.072  12.877
32414W        W 4740  12.420  29.749  11.569
32415W        W 4741  26.368  35.545  11.179
32416W        W 4742   1.677  32.990  14.379
32417W        W 4743  10.165   3.547  10.283
32418W        W 4744  12.432   0.723   1.475
32419W        W 4745  36.561  37.413   1.766
32420W        W 4746  14.699  18.188   0.455
32421W        W 4747  21.540  37.245  12.692
32422W        W 4748  22.749  38.618  12.873
32423W        W 4749  11.802  22.525  14.939
32424W        W 4750   5.728  31.963  13.803
32425W        W 4751  39.926  35.150  10.967
32426W        W 4752   4.022  13.264   1.427
32427W        W 4753  33.364  16.096  14.815
32428W        W 4754  30.172   2.882  13.377
32429W        W 4755  12.418   6.955  12.147
32430W        W 4756   7.707  14.022   4.494
32431W        W 4757   0.260   2.941  12.359
32432W        W 4758  17.675  12.604  14.576
32433W        W 4759  16.567  37.842  13.238
32434W        W 4760  38.006  16.023  14.376
32435W        W 4761  12.204  36.143   4.257
32436W        W 4762  20.844  14.512   5.039
32437W        W 4763  14.524   4.889  14.424
32438W        W 4764  14.253  12.285  14.608
32439W        W 4765  19.681  19.523   4.363
32440W        W 4766  34.603  40.647   4.473
32441W        W 4767  35.488  24.718  13.335
32442W        W 4768   8.195   0.528   2.950
32443W        W 4769  38.646  35.791  12.936
32444W        W 4770  35.871  23.958  14.217
32445W        W 4771  40.367  41.896   2.782
32446W        W 4772  41.451  15.375  13.975
32447W        W 4773  16.524  15.041   1.819
32448W        W 4774   1.490  44.465  13.780
32449W        W 4775  38.542  27.881   4.585
32450W        W 4776   1.288  40.980  14.514
32451W        W 4777   5.196  25.014  11.682
32452W        W 4778   1.509  25.154  10.976
32453W        W 4779  23.683  23.184  14.446
32454W        W 4780  10.678  31.648   3.362
32455W        W 4781  12.682  26.948  13.577
32456W        W 4782  21.052  10.756  12.309
32457W        W 4783  28.124  33.497   3.282
32458W        W 4784  33.692   0.259  12.237
32459W        W 4785  27.489  14.597   2.912
32460W        W 4786  38.803  13.579   1.005
32461W        W 4787  34.487  44.019   4.544
32462W        W 4788  36.925  39.029  13.599
32463W        W 4789  41.667   8.733   1.668
32464W        W 4790  38.939  24.880  11.508
32465W        W 4791  19.063  32.222   3.292
32466W        W 4792  28.328  37.845  13.622
32467W        W 4793  18.081  40.037   1.423
32468W        W 4794  17.015  30.997   2.388
32469W        W 4795  33.350  35.594   5.168
32470W        W 4796  37.994  24.924  11.247
32471W        W 4797  20.302   9.062   2.306
32472W        W 4798  25.701  33.640   1.094
32473W        W 4799  34.494  33.118   1.118
32474W        W 4800  24.005  42.086  13.716
32475W        W 4801  44.421  24.586  11.527
32476W        W 4802  44.140  27.137  13.454
32477W        W 4803  28.318  20.036   4.177
32478W        W 4804   7.593  31.882   0.291
32479W        W 4805  23.700   6.974   4.598
32480W        W 4806  39.523  21.555   0.048
32481W        W 4807   3.245  38.567  12.585
32482W        W 4808  22.594  17.477  11.299
32483W        W 4809  28.218  40.578   0.453
32484W        W 4810   0.822  37.646  11.616
32485W        W 4811  14.801  29.013  11.575
32486W        W 4812  37.084  42.447   3.653
32487W        W 4813  12.832  21.317   4.248
32488W        W 4814  32.472   5.678  12.002
32489W        W 4815  40.730  36.967   1.182
32490W        W 4816  27.689  20.752  14.329
32491W        W 4817  39.269  32.617   0.270
32492W        W 4818  18.831   0.814  11.010
32493W        W 4819   8.990   0.800  14.480
32494W        W 4820  12.292   0.493   4.023
32495W        W 4821  15.253   9.365  14.884
32496W        W 4822  33.750   3.372   4.013
32497W        W 4823  20.311  18.801   5.052
32498W        W 4824  28.590   7.261   4.421
32499W        W 4825  14.006  24.677  13.261
32500W        W 4826  30.471  12.301   0.942
32501W        W 4827  44.895   9.913  14.024
32502W        W 4828  17.688   2.754   1.451
32503W        W 4829  43.738  30.664   2.238
32504W        W 4830   9.259  38.443   2.114
32505W        W 4831  31.376  29.195   2.307
32506W        W 4832   9.759  17.714   4.996
32507W        W 4833   3.907  37.193   1.739
32508W        W 4834  11.141  30.869   1.385
32509W        W 4835  26.862  27.539   0.808
32510W        W 4836  10.762   6.688   1.042
32511W        W 4837   7.452   4.730  12.393
32512W        W 4838   8.922   6.639   4.571
32513W        W 4839  38.331   4.372   2.587
32514W        W 4840  42.799  22.290  14.344
32515W        W 4841  30.265  41.460   2.469
32516W        W 4842  44.189  36.112   3.582
32517W        W 4843   9.720  33.303   4.351
32518W        W 4844  25.402  42.471   0.536
32519W        W 4845   2.318  36.298   4.126
32520W        W 4846  43.583  32.039   1.150
32521W        W 4847  27.349  15.399  12.367
32522W        W 4848  18.998  29.000   1.695
32523W        W 4849  16.571  35.371   3.249
32524W        W 4850   8.701  22.295  11.620
32525W        W 4851  38.593  30.364  13.783
32526W        W 4852  28.387   6.846   1.454
32527W        W 4853  32.990  40.319   2.124
32528W        W 4854  12.628  33.959   1.342
32529W        W 4855   4.308  18.087  13.147
32530W        W 4856  19.291  24.972  11.687
32531W        W 4857  44.747  34.845  14.819
32532W        W 4858   1.859  18.900  12.667
32533W        W 4859  13.408  36.483  11.186
32534W        W 4860  28.955   2.928   4.788
32535W        W 4861  43.476  23.749  14.910
32536W        W 4862   9.298  40.340  12.436
32537W        W 4863  37.726   8.133  12.548
32538W        W 4864   5.311   7.301   0.514
32539W        W 4865   9.920   6.304  14.880
32540W        W 4866   6.141  17.008  11.644
32541W        W 4867  27.644  29.403   3.637
32542W        W 4868   2.324  33.504  10.620
32543W        W 4869  41.834  16.240   0.978
32544W        W 4870  32.395  41.613  10.834
32545W        W 4871  19.438  22.922   4.153
32546W        W 4872  14.038  11.858   5.025
32547W        W 4873  25.993  21.934  14.953
32548W        W 4874  38.334   6.944  14.923
32549W        W 4875  22.964  14.103  13.989
32550W        W 4876  10.912   5.743   0.574
32551W        W 4877  27.476  41.731   4.070
32552W        W 4878  23.337  10.737  11.836
32553W        W 4879  21.147  37.252  14.986
32554W        W 4880  23.185  13.845   0.378
32555W        W 4881  16.685   5.560   2.269
32556W        W 4882   3.729  16.271  13.457
32557W        W 4883  42.336   6.459  14.926
32558W        W 4884  19.548   9.725   2.980
32559W        W 4885  39.455  16.328  11.652
32560W        W 4886  25.863  31.008   3.414
32561W        W 4887   7.290  12.228   4.826
32562W        W 4888  20.471  19.115  11.668
32563W        W 4889   6.695  16.118  14.838
32564W        W 4890  12.344  44.817  13.025
32565W        W 4891  12.266   1.001   2.251
32566W        W 4892  34.822  35.898   0.670
32567W        W 4893  13.534   1.393   1.589
32568W        W 4894  11.385   0.059  12.084
32569W        W 4895   1.974  43.331   2.142
32570W        W 4896   6.295  34.268   0.209
32571W        W 4897  23.050  42.499  11.744
32572W        W 4898  34.175  32.675  12.898
32573W        W 4899  41.821  18.598  13.825
32574W        W 4900   0.021  35.393  14.904
32575W        W 4901  33.624  25.697   0.807
32576W        W 4902  10.247  35.103  11.092
32577W        W 4903  44.270  40.277  12.094
32578W        W 4904  34.891  25.361   5.026
32579W        W 4905  17.483   5.881   1.240
32580W        W 4906   0.053  29.562   0.716
32581W        W 4907   9.149  13.333   0.330
32582W        W 4908  38.387   9.143   1.594
32583W        W 4909  23.154  42.517   2.026
32584W        W 4910   4.443  31.645  14.075
32585W        W 4911   5.724  26.142  11.046
32586W        W 4912  42.971  41.092   4.529
32587W        W 4913  24.656  42.910   0.989
32588W        W 4914  31.214  17.324  14.499
32589W        W 4915  23.569   1.948   2.283
32590W        W 4916  28.486  11.750   1.418
32591W        W 4917  44.088  17.506   1.490
32592W        W 4918   0.312  11.268  14.974
32593W        W 4919   6.645  28.296   0.209
32594W        W 4920  16.458   4.995  14.743
32595W        W 4921   7.945  43.364  14.809
32596W        W 4922   2.320   5.740  11.437
32597W        W 4923  38.785  42.894   2.660
32598W        W 4924  30.191  22.207   0.879
32599W        W 4925  22.059  32.121   2.338
32600W        W 4926  10.236   5.754  12.424
32601W        W 4927  18.068  21.875  11.202
32602W        W 4928  18.557  14.262  10.778
32603W        W 4929  31.950   6.817  11.193
32604W        W 4930   5.401  22.120  11.163
32605W        W 4931   9.886   3.623  12.504
32606W        W 4932   3.981  33.431  13.482
32607W        W 4933  25.135  44.403  12.123
32608W        W 4934  38.129  27.125   3.579
32609W        W 4935  40.408  13.531   0.635
32610W        W 4936  22.206  14.347   4.650
32611W        W 4937  41.222  39.538  13.401
32612W        W 4938  35.881  27.247  11.595
32613W        W 4939  35.309  21.242   2.245
32614W        W 4940  43.299  39.587   4.570
32615W        W 4941  15.137  29.420   4.784
32616W        W 4942  16.781  36.560  12.523
32617W        W 4943   1.272  26.086  13.916
32618W        W 4944  15.788  37.030  14.073
32619W        W 4945  27.040  32.094  10.975
32620W        W 4946   0.032  13.609  13.468
32621W        W 4947  28.610  14.233   0.876
32622W        W 4948  32.768  11.425   1.800
32623W        W 4949  25.150   1.195  10.727
32624W        W 4950  21.616  37.326   4.519
32625W        W 4951  42.963   7.825  14.873
32626W        W 4952  16.503  10.138  10.225
32627W        W 4953  22.329   5.837  11.529
32628W        W 4954   1.437   7.144   3.715
32629W        W 4955   2.543  20.349  13.415
32630W        W 4956  24.757  39.925   4.510
32631W        W 4957  32.395  41.856   0.340
32632W        W 4958   3.026  27.193  11.160
32633W        W 4959  41.455  23.493  13.085
32634W        W 4960   0.774  22.525   4.718
32635W        W 4961   1.736  13.809  13.994
32636W        W 4962  20.044  40.666  14.736
32637W        W 4963   3.178  38.073   4.484
32638W        W 4964  10.334  25.486   2.889
32639W        W 4965  11.293  37.708   4.993
32640W        W 4966   3.430  43.296  14.453
32641W        W 4967  15.334  30.469   2.496
32642W        W 4968  43.453   5.812  12.016
32643W        W 4969   3.315  38.286  13.001
32644W        W 4970  36.089  37.986   0.701
32645W        W 4971  18.331  25.284  11.543
32646W        W 4972  34.006  22.657  13.971
32647W        W 4973   8.732  10.372  10.186
32648W        W 4974   9.949  30.402   0.426
32649W        W 4975  39.333  25.440   0.692
32650W        W 4976  41.441  20.190   4.137
32651W        W 4977   4.396  18.033   0.432
32652W        W 4978  27.481  39.797  14.807
32653W        W 4979  26.714  40.065   1.268
32654W        W 4980  42.973  21.565  11.220
32655W        W 4981  16.797  43.483   1.807
32656W        W 4982   8.651  16.919  13.270
32657W        W 4983  36.313  22.071   3.343
32658W        W 4984  31.112  36.347   2.436
32659W        W 4985  14.977  28.683  10.227
32660W        W 4986  25.922   1.296  10.689
32661W        W 4987  41.554   1.803   1.931
32662W        W 4988  29.110  41.867  10.539
32663W        W 4989  35.680  29.879  14.359
32664W        W 4990   1.504  17.167  11.104
32665W        W 4991   7.214  22.566  12.499
32666W        W 4992  38.293  22.659   4.107
32667W        W 4993  43.266   1.418  11.974
32668W        W 4994  16.209  30.542   2.861
32669W        W 4995   7.427  35.679   1.555
32670W        W 4996  20.127  24.033   2.749
32671W        W 4997  12.233  43.805  13.693
32672W        W 4998  21.461  39.665   5.027
32673W        W 4999  19.392   7.412   1.464
32674W        W 5000  22.217   8.789   4.719
32675W        W 5001  37.687  22.257   3.483
32676W        W 5002  39.542  16.239   4.159
32677W        W 5003   4.121  10.196   2.408
32678W        W 5004  33.295  43.199  11.970
32679W        W 5005  35.532  15.365   0.926
32680W        W 5006  11.382   4.393   1.010
32681W        W 5007  12.284  23.918   9.708
32682W        W 5008  10.059  37.939   2.296
32683W        W 5009  19.895  27.247  13.527
32684W        W 5010  30.028  43.482   3.736
32685W        W 5011  31.530   8.235   0.366
32686W        W 5012  27.191  31.740   0.582
32687W        W 5013  23.954   2.258  11.622
32688W        W 5014   2.787   6.338   0.617
32689W        W 5015  12.354  15.036   1.833
32690W        W 5016   3.297  23.991   3.705
32691W        W 5017  12.153   1.264   2.674
32692W        W 5018  33.995  44.534  13.396
32693W        W 5019  25.350  30.061  14.446
32694W        W 5020  16.643  27.937   3.214
32695W        W 5021   3.345  26.781   3.716
32696W        W 5022  17.258  12.845   0.366
32697W        W 5023  28.083   3.333   4.504
32698W        W 5024   3.535  25.922  11.769
32699W        W 5025  17.260  44.818  14.832
32700W        W 5026  30.815  40.951   4.062
32701W        W 5027  36.621  21.590   4.592
32702W        W 5028  44.781  20.342   3.678
32703W        W 5029  16.726  23.397   0.860
32704W        W 5030   1.913  42.814   4.188
32705W        W 5031  11.323  26.027  14.500
32706W        W 5032  31.489  27.236   4.156
32707W        W 5033  27.566  41.043   2.725
32708W        W 5034   9.330  23.249  13.026
32709W        W 5035  20.739  31.932   3.257
32710W        W 5036  27.976  36.446  13.565
32711W        W 5037   0.149  13.143   4.636
32712W        W 5038  15.165   2.335  11.649
32713W        W 5039  26.640   8.817   3.795
32714W        W 5040  36.097  42.573  14.234
32715W        W 5041  11.915  36.562  11.143
32716W        W 5042  24.159   3.803  11.043
32717W        W 5043  21.519  32.185  13.008
32718W        W 5044   0.938  42.209   0.926
32719W        W 5045   5.277  20.031   2.404
32720W        W 5046  23.280   5.132  11.134
32721W        W 5047  31.681  20.023  14.004
32722W        W 5048  31.688  23.468   0.581
32723W        W 5049  38.638  13.100   2.664
32724W        W 5050   7.948   7.283  13.833
32725W        W 5051  39.452  28.456  11.880
32726W        W 5052  18.135   0.833  14.886
32727W        W 5053  20.630  21.281   4.426
32728W        W 5054   5.726  43.606  13.530
32729W        W 5055  36.396  23.501   1.917
32730W        W 5056  11.279  27.339   5.074
32731W        W 5057  11.536  25.977   5.085
32732W        W 5058  38.586  15.595   3.386
32733W        W 5059  17.168  20.507   2.151
32734W        W 5060   6.711  18.104  12.122
32735W        W 5061  22.975   8.097  12.417
32736W        W 5062   9.811  44.878  11.548
32737W        W 5063  23.964   7.404  14.456
32738W        W 5064  23.371  20.312  12.456
32739W        W 5065  12.691   2.194  14.003
32740W        W 5066  20.957   2.755   4.033
32741W        W 5067  39.175  44.836   2.185
32742W        W 5068  24.561  41.317   3.693
32743W        W 5069  18.271  13.804   2.857
32744W        W 5070  37.431  36.767   0.194
32745W        W 5071  21.717   8.934  14.794
32746W        W 5072  38.779  29.425  13.018
32747W        W 5073   8.330  23.232  13.524
32748W        W 5074   4.115   2.395   4.123
32749W        W 5075  23.728  29.698  11.380
32750W        W 5076  14.559  22.731   0.710
32751W        W 5077   5.771  44.314   2.815
32752W        W 5078   8.493  38.253  13.817
32753W        W 5079   7.093  40.527   0.466
32754W        W 5080  18.666  16.942  12.983
32755W        W 5081  31.863  32.436   0.203
32756W        W 5082  44.613  13.353   4.091
32757W        W 5083  11.730  27.021   0.735
32758W        W 5084  19.208  17.728  11.940
32759W        W 5085  44.927  37.894  12.120
32760W        W 5086  25.677  29.608  10.824
32761W        W 5087  20.964  14.893   3.325
32762W        W 5088  33.076  34.701   4.157
32763W        W 5089  39.063  13.782   0.594
32764W        W 5090   5.799  37.604  11.502
32765W        W 5091  19.030  16.551   0.012
32766W        W 5092  20.352   8.025  12.005
32767W        W 5093  13.389   8.290  11.607
32768W        W 5094   1.973  23.773  13.075
32769W        W 5095   1.463   8.975  10.566
32770W        W 5096  28.423  27.197   3.649
32771W        W 5097   7.972  43.741  12.821
32772W        W 5098   0.053  23.110   4.618
32773W        W 5099  19.664   6.125  13.023
32774W        W 5100   6.115  20.989   5.106
32775W        W 5101  38.321  16.553  12.970
32776W        W 5102  15.400  34.987   3.682
32777W        W 5103  15.834  18.947   3.183
32778W        W 5104  22.340   7.919  13.542
32779W        W 5105   9.339  29.954   0.732
32780W        W 5106  25.733  21.236   1.448
32781W        W 5107   7.635  11.938   3.501
32782W        W 5108  31.650  13.549   4.104
32783W        W 5109  40.441  13.377   1.138
32784W        W 5110  28.839  34.938  12.459
32785W        W 5111   7.645  10.180   3.209
32786W        W 5112  38.143  41.929  13.240
32787W        W 5113  41.486  35.536   0.755
32788W        W 5114  31.217  43.188  12.048
32789W        W 5115  44.992  15.241  14.281
32790W        W 5116  36.681   1.560   5.154
32791W        W 5117  41.945   3.482  10.756
32792W        W 5118  17.314  39.569  11.724
32793W        W 5119  14.740  15.316  11.204
32794W        W 5120  20.306  25.718   2.917
32795W        W 5121  39.433  32.435  10.869
32796W        W 5122  23.879  34.483  11.639
32797W        W 5123  31.955  20.132   1.475
32798W        W 5124  21.060   9.972  14.316
32799W        W 5125  29.157  31.153  10.991
32800W        W 5126  32.285  37.477  14.870
32801W        W 5127   0.314   8.166  10.658
32802W        W 5128   0.950  33.003   0.026
32803W        W 5129  37.304   7.254   2.163
32804W        W 5130  14.255  44.398  11.496
32805W        W 5131   1.986  21.001  10.113
32806W        W 5132  15.213  40.127  11.531
32807W        W 5133  44.882   0.547  14.630
32808W        W 5134   4.140   9.252  13.158
32809W        W 5135  18.108  23.626  10.982
32810W        W 5136  41.092  28.934   2.830
32811W        W 5137  35.945  19.922   1.035
32812W        W 5138  20.164  26.905   0.924
32813W        W 5139  26.210  23.896  14.838
32814W        W 5140   3.980  28.722   4.204
32815W        W 5141  37.438  34.052  11.296
32816W        W 5142   3.495  10.859   2.675
32817W        W 5143  44.953  33.019   3.628
32818W        W 5144  42.888  23.441   4.078
32819W        W 5145   4.492  40.883   2.110
32820W        W 5146  34.098  12.870   1.794
32821W        W 5147   9.985   0.302  10.674
32822W        W 5148  13.832  11.661   3.144
32823W        W 5149  28.546   7.209   1.806
32824W        W 5150   2.679  14.572  14.345
32825W        W 5151   2.961   2.452  12.461
32826W        W 5152   8.892   5.992  13.978
32827W        W 5153  31.270  31.405  11.225
32828W        W 5154  32.241  35.932  10.718
32829W        W 5155  38.800  43.743   2.204
32830W        W 5156   4.536  39.024   1.670
32831W        W 5157  33.603  11.095   4.301
32832W        W 5158  26.541  28.668   2.585
32833W        W 5159  28.567  11.145   0.959
32834W        W 5160  28.142  39.928  11.574
32835W        W 5161  22.030   2.011  13.823
32836W        W 5162  29.345  22.102  11.480
32837W        W 5163  26.570  20.513   1.312
32838W        W 5164  40.845  10.788  14.883
32839W        W 5165  38.044   5.247   3.217
32840W        W 5166  25.201  27.241   2.010
32841W        W 5167  37.616  15.331   2.712
32842W        W 5168  12.547  18.613   0.705
32843W        W 5169   7.785   3.256  11.060
32844W        W 5170  31.578   1.477   2.301
32845W        W 5171   5.407   1.867   2.728
32846W        W 5172  42.944  25.986  13.689
32847W        W 5173  25.458  19.612  14.041
32848W        W 5174  36.040  44.770   4.788
32849W        W 5175  19.512  24.796   1.291
32850W        W 5176  37.582  17.696   3.652
32851W        W 5177  14.587   1.470  13.037
32852W        W 5178  18.317  35.109   1.954
32853W        W 5179   1.480   2.548  14.880
32854W        W 5180  10.344  16.735  13.454
32855W        W 5181  14.935  13.465  12.435
32856W        W 5182  16.718  21.010   4.325
32857W        W 5183  10.394   0.430  13.396
32858W        W 5184  28.163  35.059  10.944
32859W        W 5185  39.759  24.216   2.748
32860W        W 5186   8.508   8.180   1.816
32861W        W 5187  19.541  13.749   3.800
32862W        W 5188  27.676  22.270  14.063
32863W        W 5189  16.897  30.123   2.897
32864W        W 5190  42.274  19.492   0.864
32865W        W 5191  20.388  31.895  11.629
32866W        W 5192  15.537  44.526   4.637
32867W        W 5193  44.899  24.269   2.307
32868W        W 5194   3.841  43.392   4.226
32869W        W 5195  36.847  13.895  10.109
32870W        W 5196  35.752  44.836  14.775
32871W        W 5197  17.240   3.657   3.805
32872W        W 5198  12.682  19.380  13.918
32873W        W 5199  31.453   7.132  14.785
32874W        W 5200   3.140  13.122  14.934
32875W        W 5201  38.321   3.229  11.536
32876W        W 5202  34.812  16.516  12.019
32877W        W 5203   4.949   5.872  12.978
32878W        W 5204  38.958  15.772  11.683
32879W        W 5205  37.923  12.756  10.199
32880W        W 5206  17.179  26.270   2.316
32881W        W 5207  12.179   4.368  13.903
32882W        W 5208  29.035  23.498  12.663
32883W        W 5209  33.346   9.343   3.775
32884W        W 5210  27.747  29.609   4.426
32885W        W 5211  24.052  23.292  10.987
32886W        W 5212  21.435  19.220  11.745
32887W        W 5213  42.002  11.993   0.741
32888W        W 5214  18.041  10.956  12.938
32889W        W 5215  33.110  36.469   0.314
32890W        W 5216  33.341  33.444  14.293
32891W        W 5217   6.294   8.077   2.203
32892W        W 5218  32.072   0.398  10.569
32893W        W 5219  14.735  32.837   0.320
32894W        W 5220   1.820   1.275  12.391
32895W        W 5221  15.024  26.903   0.156
32896W        W 5222  36.210  14.740   3.465
32897W        W 5223   6.201  12.812  14.811
32898W        W 5224   7.340  27.641  12.444
32899W        W 5225   6.789  38.304   0.520
32900W        W 5226  26.206  38.509  13.771
32901W        W 5227  33.058  20.656   1.000
32902W        W 5228  23.133  34.361   4.049
32903W        W 5229  39.808  11.591  11.531
32904W        W 5230  22.669   6.160  14.533
32905W        W 5231  15.078  42.501  14.061
32906W        W 5232  27.192  25.515  12.533
32907W        W 5233  36.473   2.999   2.790
32908W        W 5234  17.731  14.735   4.331
32909W        W 5235   7.747  38.072  11.741
32910W        W 5236   6.100  25.520   3.350
32911W        W 5237   0.433  22.570  13.375
32912W        W 5238  44.261  28.047  13.435
32913W        W 5239   9.383  23.810   3.193
32914W        W 5240  29.825  42.018  13.847
32915W        W 5241   3.710  27.238   4.045
32916W        W 5242   3.058  20.227   2.834
32917W        W 5243  19.793   4.242   4.128
32918W        W 5244  13.543  19.590   3.649
32919W        W 5245  24.665  30.816  11.038
32920W        W 5246  36.279  10.210   0.333
32921W        W 5247   2.373  26.899   4.154
32922W        W 5248   4.576  31.456   0.447
32923W        W 5249  23.936   9.699   1.846
32924W        W 5250  35.801   9.028  11.704
32925W        W 5251  23.124  35.030   4.731
32926W        W 5252  21.722  34.945   4.710
32927W        W 5253  10.867  26.942  10.862
32928W        W 5254  35.609   2.879  14.561
32929W        W 5255  44.432   7.225  10.731
32930W        W 5256   8.304  22.706   4.869
32931W        W 5257   7.835  30.847   2.700
32932W        W 5258  27.406  17.146   0.435
32933W        W 5259  27.215  16.748  10.677
32934W        W 5260  34.567  22.341  12.191
32935W        W 5261  20.196  40.468   4.513
32936W        W 5262  28.174  31.686   3.270
32937W        W 5263   7.556  18.222   0.200
32938W        W 5264   8.559  11.631   1.746
32939W        W 5265  40.956  35.196   1.351
32940W        W 5266  39.666  28.373  11.206
32941W        W 5267  13.248  35.179   1.166
32942W        W 5268  12.222   7.708  13.568
32943W        W 5269  24.818   2.791  10.746
32944W        W 5270   9.939  15.250  13.872
32945W        W 5271  40.443  38.471   1.331
32946W        W 5272  11.907  25.243   1.730
32947W        W 5273   9.928  31.117  10.566
32948W        W 5274   2.046   3.277   4.125
32949W        W 5275  25.406  37.597  13.004
32950W        W 5276  14.789  42.322   4.134
32951W        W 5277  20.813  22.293  11.574
32952W        W 5278   6.235  34.210  11.488
32953W        W 5279  41.473   4.771   3.267
32954W        W 5280  39.046  24.004   0.407
32955W        W 5281   1.934   2.596  13.829
32956W        W 5282  40.343  33.705  11.208
32957W        W 5283   4.230  11.134   4.170
32958W        W 5284  41.536  42.453   0.284
32959W        W 5285  42.333  37.482   0.018
32960W        W 5286  43.394  23.052   4.689
32961W        W 5287  37.867  43.720  13.300
32962W        W 5288  33.377  37.083   2.869
32963W        W 5289  39.306  30.631   2.302
32964W        W 5290  28.821  20.491   1.770
32965W        W 5291  29.685   8.740  13.972
32966W        W 5292  14.777  21.943   3.814
32967W        W 5293  39.986  38.401  14.328
32968W        W 5294   0.300  16.954   0.872
32969W        W 5295  11.589   8.158   4.047
32970W        W 5296  27.931  20.932  12.022
32971W        W 5297  19.023  44.234  11.699
32972W        W 5298   1.949  33.780  14.990
32973W        W 5299  38.756   6.255  12.822
32974W        W 5300  37.105  22.084  12.945
32975W        W 5301  32.996  25.480  11.084
32976W        W 5302  16.202  22.762   4.724
32977W        W 5303  32.974  10.953   3.068
32978W        W 5304  31.212   9.719  12.682
32979W        W 5305  33.154   2.927  10.671
32980W        W 5306   8.203  17.341  10.581
32981W        W 5307  27.183  11.311   1.281
32982W        W 5308  31.748  19.885  11.679
32983W        W 5309  44.921   1.445  12.195
32984W        W 5310  22.520  44.542   4.094
32985W        W 5311   0.536  25.779  12.773
32986W        W 5312   0.430  29.542   1.287
32987W        W 5313  36.830   6.621   2.369
32988W        W 5314  13.751  40.081   4.159
32989W        W 5315  27.453  29.148   1.027
32990W        W 5316   8.857  44.890   2.589
32991W        W 5317  37.486   6.979  12.405
32992W        W 5318  17.129  30.901   0.077
32993W        W 5319  19.716   6.934  10.380
32994W        W 5320  42.406   1.431   0.874
32995W        W 5321  40.353  18.433   1.912
32996W        W 5322  43.870  36.146   4.010
32997W        W 5323   8.479  20.013   1.954
32998W        W 5324   4.649  44.461  13.475
32999W        W 5325   2.125  15.742   4.650
33000W        W 5326  19.117   7.090  12.153
33001W        W 5327  24.775  15.711  12.331
33002W        W 5328  13.916   9.113  12.476
33003W        W 5329   1.448  18.345  14.922
33004W        W 5330  32.065  23.181  12.994
33005W        W 5331  13.684  16.796   2.836
33006W        W 5332   6.125  40.103   0.363
33007W        W 5333  39.313  16.621   4.423
33008W        W 5334  20.010  29.450  14.247
33009W        W 5335   1.677   3.262  11.554
33010W        W 5336   0.930  17.352  12.826
33011W        W 5337  24.154   2.195   1.517
33012W        W 5338   4.977   5.873   4.154
33013W        W 5339  15.369  22.691   3.193
33014W        W 5340  32.943  34.190   4.083
33015W        W 5341  20.755  19.718   4.592
33016W        W 5342  37.592   2.890  11.033
33017W        W 5343  23.767  29.014  10.728
33018W        W 5344  34.634   8.617  12.409
33019W        W 5345  18.250   7.843   0.177
33020W        W 5346  37.608  10.655   2.143
33021W        W 5347  24.126   7.409  12.401
33022W        W 5348  40.376  31.166  13.012
33023W        W 5349   8.753  16.651   0.247
33024W        W 5350   4.328  30.128  14.536
33025W        W 5351   0.248  14.349  11.975
33026W        W 5352  43.234  14.224  11.199
33027W        W 5353  42.879   7.447  12.951
33028W        W 5354  31.478  38.971  13.791
33029W        W 5355  30.104  31.145  12.122
33030W        W 5356   2.888  20.731  11.570
33031W        W 5357  10.637  16.456  13.774
33032W        W 5358  27.600  38.808  14.927
33033W        W 5359  40.356  36.942  12.984
33034W        W 5360  24.477  22.984  13.559
33035W        W 5361  21.126   5.714   1.855
33036W        W 5362   9.800  10.105   1.660
33037W        W 5363  44.774  38.837   4.151
33038W        W 5364  31.009  29.381   0.763
33039W        W 5365   0.888  26.651   1.299
33040W        W 5366   1.947  16.812   0.904
33041W        W 5367  34.896  16.359   2.838
33042W        W 5368  22.160  38.900   2.749
33043W        W 5369  19.602  29.881   2.580
33044W        W 5370  20.522  41.452   4.525
33045W        W 5371   8.926  44.770   0.469
33046W        W 5372   4.191   7.166   1.171
33047W        W 5373  38.277  23.045  11.102
33048W        W 5374   1.805  20.303   0.287
33049W        W 5375  14.841  24.691  11.168
33050W        W 5376   8.198  10.315  12.358
33051W        W 5377   5.672   4.118   3.534
33052W        W 5378  12.722  19.054   2.456
33053W        W 5379   5.997  38.335  10.557
33054W        W 5380  18.767   2.236  12.464
33055W        W 5381  36.137  10.438  14.873
33056W        W 5382  26.766  40.138  10.630
33057W        W 5383  24.030   3.923   2.903
33058W        W 5384  29.436  43.639   1.840
33059W        W 5385  20.395  22.738  14.191
33060W        W 5386  30.602  13.377   0.494
33061W        W 5387  39.886  17.134   1.282
33062W        W 5388  34.327  28.218   2.249
33063W        W 5389  25.613  30.909  11.223
33064W        W 5390  42.743   4.727  14.955
33065W        W 5391  24.366  28.757  11.193
33066W        W 5392  24.457  27.163  12.474
33067W        W 5393  35.384   0.201  14.876
33068W        W 5394  40.336  39.617  13.006
33069W        W 5395  14.255  16.043  14.798
33070W        W 5396   0.432  39.030  13.909
33071W        W 5397   0.263   7.406   1.237
33072W        W 5398  39.802   8.211  10.915
33073W        W 5399  29.547   7.267  11.968
33074W        W 5400  14.500  43.260   2.396
33075W        W 5401  42.324  13.163   1.430
33076W        W 5402   2.695  20.675   9.699
33077W        W 5403   7.765  43.739   1.266
33078W        W 5404  14.601   6.737   0.726
33079W        W 5405  36.316  28.960  12.435
33080W        W 5406  30.335  34.508   3.813
33081W        W 5407  22.211  43.030  12.093
33082W        W 5408  16.636   8.236  14.032
33083W        W 5409   2.757  10.518   4.770
33084W        W 5410   1.437  25.996  12.858
33085W        W 5411   9.261  33.200   1.649
33086W        W 5412  11.683  13.030  10.366
33087W        W 5413  31.537  28.895  10.584
33088W        W 5414  18.942  27.610  11.101
33089W        W 5415  38.053   4.142   4.576
33090W        W 5416   3.692   2.949   2.162
33091W        W 5417  23.194  37.903   2.375
33092W        W 5418   4.823  20.464  11.981
33093W        W 5419  23.952  17.181   2.329
33094W        W 5420   9.762  42.511   1.781
33095W        W 5421  44.621   5.194  11.892
33096W        W 5422  18.664  16.187   2.642
33097W        W 5423   8.454  19.134  14.806
33098W        W 5424  18.162  35.155  14.206
33099W        W 5425   6.739   7.960  14.146
33100W        W 5426  11.403  16.520  11.142
33101W        W 5427  36.084  23.952   4.109
33102W        W 5428  30.154  44.131  12.585
33103W        W 5429  36.309   2.781  13.882
33104W        W 5430  36.765  36.455   4.650
33105W        W 5431   0.992   5.314   1.334
33106W        W 5432  34.486  23.481  14.840
33107W        W 5433  25.390   4.801   0.614
33108W        W 5434   5.342  26.553   2.333
33109W        W 5435   2.449  25.923   3.232
33110W        W 5436  20.757  12.860  11.919
33111W        W 5437  36.083   5.433  12.167
33112W        W 5438  44.257  25.235   1.142
33113W        W 5439  14.052  39.965  14.808
33114W        W 5440  10.817  35.642  11.521
33115W        W 5441  36.054  31.135   0.737
33116W        W 5442  27.161  15.747  14.265
33117W        W 5443  43.999  40.792  11.920
33118W        W 5444  14.792   3.202   1.405
33119W        W 5445  37.780  39.301   3.029
33120W        W 5446  21.130   3.505  10.710
33121W        W 5447  42.677   8.801   3.159
33122W        W 5448  29.477  28.434   2.838
33123W        W 5449  17.836   7.682   1.516
33124W        W 5450  32.855  19.266  11.164
33125W        W 5451   3.492  25.014  11.881
33126W        W 5452  23.456  15.514   3.714
33127W        W 5453   3.361  44.200   0.302
33128W        W 5454  28.025  15.077  11.171
33129W        W 5455  18.787  25.297   1.325
33130W        W 5456  27.963  19.460   1.914
33131W        W 5457  16.259  34.115  12.066
33132W        W 5458  30.306  43.122  13.000
33133W        W 5459   6.164  29.723   0.374
33134W        W 5460  17.587  10.247   2.134
33135W        W 5461  26.641   4.249   2.121
33136W        W 5462  33.942  42.570   3.614
33137W        W 5463  12.928  16.251  11.265
33138W        W 5464  26.934  37.109  13.999
33139W        W 5465  36.029  28.567  13.502
33140W        W 5466  10.478  11.118  10.629
33141W        W 5467   6.663  16.062   1.112
33142W        W 5468   6.903  44.439  13.299
33143W        W 5469  10.109  37.360  13.485
33144W        W 5470  33.066  40.965   1.131
33145W        W 5471  26.482  44.313   1.269
33146W        W 5472  19.988  13.881   0.856
33147W        W 5473  35.192  35.868   3.652
33148W        W 5474   0.254  18.353   1.431
33149W        W 5475  43.309  27.483   0.102
33150W        W 5476   1.560   4.978   4.186
33151W        W 5477  21.921  38.929   5.439
33152W        W 5478   1.749   8.272  13.692
33153W        W 5479  18.576  15.547  12.451
33154W        W 5480  32.382   3.159  11.139
33155W        W 5481  36.470  26.206  10.990
33156W        W 5482   7.963  19.243   4.360
33157W        W 5483   4.440  25.100  12.174
33158W        W 5484  13.646   3.789  10.642
33159W        W 5485  14.229  20.786  13.991
33160W        W 5486   7.378  38.361   2.686
33161W        W 5487  35.505  38.047  14.912
33162W        W 5488   8.250   8.340   0.084
33163W        W 5489  30.522  27.543  11.455
33164W        W 5490  23.874  15.665   0.115
33165W        W 5491  29.000   0.352  11.180
33166W        W 5492  29.406  30.707   0.465
33167W        W 5493  30.538  16.217  10.663
33168W        W 5494  23.729  29.030  10.195
33169W        W 5495  26.773   8.816  11.976
33170W        W 5496  10.737  24.409   4.804
33171W        W 5497   5.325   2.434   3.206
33172W        W 5498  26.618  20.795   2.354
33173W        W 5499  35.451  22.239   3.894
33174W        W 5500  43.556  42.312   2.456
33175W        W 5501  12.804  25.248  11.167
33176W        W 5502  44.528  40.417  14.843
33177W        W 5503  14.364  40.337  11.611
33178W        W 5504  17.960   5.628  13.125
33179W        W 5505  36.995  13.350   2.398
33180W        W 5506  39.443   9.429   0.927
33181W        W 5507  23.313  28.287  12.889
33182W        W 5508  18.519  36.191   1.266
33183W        W 5509  25.440  34.427  13.314
33184W        W 5510  28.579  11.599  14.122
33185W        W 5511  21.297  44.857  14.804
33186W        W 5512  16.573  18.125   2.365
33187W        W 5513  27.965   9.431  12.039
33188W        W 5514  44.985   2.909   4.284
33189W        W 5515  26.172  11.893  11.971
33190W        W 5516  10.706  39.911   3.678
33191W        W 5517  43.962  15.575  12.806
33192W        W 5518  41.914  35.497   0.066
33193W        W 5519  16.836  18.218  12.866
33194W        W 5520  25.740  22.248  12.086
33195W        W 5521  28.485   3.424   5.079
33196W        W 5522  13.934  29.468   4.095
33197W        W 5523   9.069  32.459   4.614
33198W        W 5524   1.760  29.390  12.622
33199W        W 5525  10.309  27.301  14.727
33200W        W 5526  26.181   9.357   4.404
33201W        W 5527  20.212   3.754   1.323
33202W        W 5528  25.987  41.564  14.506
33203W        W 5529   0.441  10.810   5.102
33204W        W 5530  43.721  36.072  13.911
33205W        W 5531  32.993   8.695   4.256
33206W        W 5532  11.684  25.497   1.242
33207W        W 5533   3.728  33.828   4.266
33208W        W 5534  14.772   6.747   1.821
33209W        W 5535  34.892  11.396   5.033
33210W        W 5536  25.866  20.079   3.305
33211W        W 5537  24.709  21.162  14.016
33212W        W 5538  32.474   5.268  13.110
33213W        W 5539  23.635  39.784  11.247
33214W        W 5540  12.227  21.680   0.021
33215W        W 5541   7.653  41.452   1.419
33216W        W 5542  39.341   2.477   0.074
33217W        W 5543   3.875  36.804  12.428
33218W        W 5544   8.946   2.195   1.645
33219W        W 5545  21.126   3.774  14.983
33220W        W 5546  27.603  39.067   4.063
33221W        W 5547  39.055  18.177  12.045
33222W        W 5548  43.446   1.466  12.902
33223W        W 5549  26.216  20.911   4.975
33224W        W 5550   9.330  44.217  11.093
33225W        W 5551  14.022   4.355   0.212
33226W        W 5552   0.829   5.684   4.230
33227W        W 5553   0.676  44.419  11.553
33228W        W 5554   6.888   4.921   1.274
33229W        W 5555  17.180  13.323  12.945
33230W        W 5556  20.541  21.220  14.485
33231W        W 5557  27.103   9.629  12.950
33232W        W 5558   7.715  18.276   3.372
33233W        W 5559  40.811   6.249   2.373
33234W        W 5560  13.384   4.316   2.822
33235W        W 5561  32.165   0.526   1.341
33236W        W 5562  42.303   7.329   2.559
33237W        W 5563   6.183  27.522   2.862
33238W        W 5564  11.070   7.727  10.407
33239W        W 5565  33.530  34.779   1.305
33240W        W 5566  23.734  18.193  10.213
33241W        W 5567  27.475  17.334   2.341
33242W        W 5568  10.148   9.674   1.747
33243W        W 5569  22.470  16.681   0.823
33244W        W 5570  32.392  12.094   2.879
33245W        W 5571  29.443  23.387   0.700
33246W        W 5572  41.531  33.207  14.450
33247W        W 5573  26.951  14.539   1.250
33248W        W 5574   8.563  40.037  13.080
33249W        W 5575  33.310  28.524  14.959
33250W        W 5576  40.475  27.806  12.321
33251W        W 5577  12.397  30.639  13.055
33252W        W 5578  32.461  17.490   3.223
33253W        W 5579  36.540   0.293  14.288
33254W        W 5580  13.502  22.559  14.379
33255W        W 5581   0.516  39.974  13.124
33256W        W 5582  17.912  34.784   4.219
33257W        W 5583  13.922  36.923  10.511
33258W        W 5584  31.033  10.886  12.356
33259W        W 5585  18.139   1.744  10.580
33260W        W 5586   7.403  16.100  14.250
33261W        W 5587  10.406  44.053   4.933
33262W        W 5588  19.660  13.558   2.904
33263W        W 5589  28.051  19.631   0.834
33264W        W 5590  35.022   5.462  11.560
33265W        W 5591  29.830  16.174  11.201
33266W        W 5592  38.405  12.090   1.428
33267W        W 5593  17.028  39.049   2.737
33268W        W 5594  10.076   3.393  11.577
33269W        W 5595  41.585   9.129   3.839
33270W        W 5596   2.966  25.551  11.639
33271W        W 5597   1.898  14.337   0.517
33272W        W 5598  16.244  16.026  12.031
33273W        W 5599  15.290  32.684  13.835
33274W        W 5600   1.754  42.908  12.195
33275W        W 5601  41.256  34.947  14.000
33276W        W 5602  20.704  44.465  12.360
33277W        W 5603  31.740  35.443  13.990
33278W        W 5604  39.425  27.661  13.517
33279W        W 5605  26.396   7.514   3.659
33280W        W 5606   1.228  16.232   1.317
33281W        W 5607  25.136  17.719   0.391
33282W        W 5608  13.609  22.757  12.120
33283W        W 5609   6.556  13.776  13.334
33284W        W 5610  43.667  12.578  12.367
33285W        W 5611  38.890  41.436  11.165
33286W        W 5612  32.288  15.469  13.942
33287W        W 5613  20.119  25.565   1.111
33288W        W 5614   3.493  26.859  12.162
33289W        W 5615  30.296  43.522  11.029
33290W        W 5616  17.536  24.957  11.255
33291W        W 5617  37.771  10.378   3.438
33292W        W 5618  11.573  39.001  12.627
33293W        W 5619  14.854   0.663  14.703
33294W        W 5620   6.379  13.950   1.045
33295W        W 5621  17.061  23.068  14.283
33296W        W 5622   3.476  31.130  11.439
33297W        W 5623  36.464   2.465   2.774
33298W        W 5624  43.176  28.102   2.104
33299W        W 5625  24.464  36.995  13.740
33300W        W 5626  42.748  30.922  11.571
33301W        W 5627  20.138  27.621  13.874
33302W        W 5628  44.847   5.910  10.725
33303W        W 5629  40.087   8.190  14.528
33304W        W 5630  44.271  18.884   1.884
33305W        W 5631   6.589  35.534  12.429
33306W        W 5632  42.267  17.640   4.236
33307W        W 5633  20.633  12.783   3.588
33308W        W 5634   5.371   2.362  14.288
33309W        W 5635  13.208   6.883   1.243
33310W        W 5636   5.680  17.552   1.873
33311W        W 5637  35.135  32.915  13.347
33312W        W 5638  31.602  14.048  10.720
33313W        W 5639   8.249  11.875   1.384
33314W        W 5640  24.841  21.577   1.917
33315W        W 5641  20.727   4.515  12.390
33316W        W 5642  41.016  37.030  13.804
33317W        W 5643   2.670  14.416  12.332
33318W        W 5644  40.099  25.180  13.042
33319W        W 5645  21.369  36.940  11.820
33320W        W 5646  23.581  12.160   0.748
33321W        W 5647  26.898  35.485   4.588
33322W        W 5648  30.196  18.983  13.034
33323W        W 5649  16.063  30.144   1.022
33324W        W 5650   4.636  43.013   2.171
33325W        W 5651  24.683  36.239  12.149
33326W        W 5652  19.364  10.288   3.265
33327W        W 5653  28.099   1.953   3.087
33328W        W 5654  18.680  28.768   2.373
33329W        W 5655  23.525   0.491  13.041
33330W        W 5656  42.626  21.619  12.103
33331W        W 5657  37.655  38.054  14.483
33332W        W 5658   8.781  39.358   0.865
33333W        W 5659  31.896   1.290  14.880
33334W        W 5660   2.980   4.239  11.992
33335W        W 5661  35.843  36.128  10.487
33336W        W 5662  14.297  22.799   1.554
33337W        W 5663  44.396  36.721  10.565
33338W        W 5664  18.542  27.900  10.944
33339W        W 5665  30.099  21.678  11.480
33340W        W 5666  34.939  40.303  14.460
33341W        W 5667  38.552  31.569  11.633
33342W        W 5668  43.425  14.059  11.836
33343W        W 5669  42.531   9.691   2.703
33344W        W 5670  25.254  18.970  13.795
33345W        W 5671  41.913  32.602   4.266
33346W        W 5672  43.538   9.279  13.431
33347W        W 5673  23.351  29.174   3.270
33348W        W 5674  17.817   9.739   0.498
33349W        W 5675  42.666  14.293   4.682
33350W        W 5676  17.872  32.457   4.636
33351W        W 5677  17.154  22.493  12.478
33352W        W 5678   8.121   5.289  14.005
33353W        W 5679   1.500   5.242   1.593
33354W        W 5680  36.129  33.494  13.933
33355W        W 5681  37.096   7.120   4.154
33356W        W 5682  27.630  13.059  12.462
33357W        W 5683  32.705  43.045   4.077
33358W        W 5684   1.557  15.640  14.418
33359W        W 5685  17.360  29.390  14.210
33360W        W 5686   4.221  14.611   4.598
33361W        W 5687  28.830  25.061  13.640
33362W        W 5688  24.466   1.446   0.810
33363W        W 5689  12.140  20.653   2.374
33364W        W 5690  32.200  17.481  12.947
33365W        W 5691  14.718  26.554   3.797
33366W        W 5692  38.429  13.910   3.892
33367W        W 5693  23.477  13.260   4.414
33368W        W 5694  21.274  33.435  11.803
33369W        W 5695  33.638  40.874   0.841
33370W        W 5696  16.368  31.090  13.957
33371W        W 5697  25.452  33.798  14.368
33372W        W 5698   1.840  25.041   3.278
33373W        W 5699  24.495  40.257   2.248
33374W        W 5700  41.880  19.917  11.012
33375W        W 5701  14.813  19.758  13.336
33376W        W 5702  15.329  21.115  11.490
33377W        W 5703  39.849  38.950  12.082
33378W        W 5704  17.512  36.916  12.634
33379W        W 5705  27.630  22.106  12.325
33380W        W 5706  20.370  19.495   0.304
33381W        W 5707  18.213   4.935   3.766
33382W        W 5708  44.912  15.725  14.104
33383W        W 5709  23.097  44.396  10.141
33384W        W 5710  10.243  33.158  12.022
33385W        W 5711   1.232  10.668   2.146
33386W        W 5712  23.182  32.542  10.767
33387W        W 5713   3.895  29.980   4.056
33388W        W 5714  28.656   1.158   2.217
33389W        W 5715  14.870   6.298  11.615
33390W        W 5716   0.006  12.659  12.224
33391W        W 5717  38.211  24.036   1.590
33392W        W 5718  28.374  15.123  10.447
33393W        W 5719  12.785  28.393   1.889
33394W        W 5720  26.083   0.516   0.854
33395W        W 5721  23.220   1.160   4.902
33396W        W 5722  24.670   6.874  14.232
33397W        W 5723  37.166  25.203   0.864
33398W        W 5724   2.024  42.307   4.208
33399W        W 5725  37.632   7.188   4.173
33400W        W 5726   3.379   1.838   0.468
33401W        W 5727  32.055   2.787  10.926
33402W        W 5728   6.774   8.039   0.895
33403W        W 5729  17.023   7.247   2.977
33404W        W 5730  31.832  19.528  14.015
33405W        W 5731  43.002   0.711  14.669
33406W        W 5732  14.728   2.559  11.506
33407W        W 5733   0.296  44.247   2.698
33408W        W 5734  24.943  24.332  11.983
33409W        W 5735   6.226  27.979  10.445
33410W        W 5736  18.599  36.965   3.131
33411W        W 5737  32.036  27.870   1.773
33412W        W 5738  32.996  38.900  13.496
33413W        W 5739   6.259   1.444   0.911
33414W        W 5740  20.568  10.206   3.024
33415W        W 5741  15.606  21.487  12.333
33416W        W 5742  31.408  27.495  14.523
33417W        W 5743   2.683   1.231  14.543
33418W        W 5744  13.781  25.505   0.765
33419W        W 5745  12.088  20.698  11.582
33420W        W 5746  25.435  34.959   1.284
33421W        W 5747  21.458  12.153   4.044
33422W        W 5748  31.055  42.417  14.401
33423W        W 5749  35.437   6.385   0.342
33424W        W 5750   0.178   3.552   2.553
33425W        W 5751   1.332  25.215  12.563
33426W        W 5752  24.044  23.053   4.409
33427W        W 5753  22.329   7.432  13.339
33428W        W 5754  21.226  13.907  12.077
33429W        W 5755  39.448   0.229   3.771
33430W        W 5756   5.888  35.506  13.724
33431W        W 5757   7.257  14.309  11.224
33432W        W 5758  29.891  31.004   0.517
33433W        W 5759   3.656   3.455   5.021
33434W        W 5760  32.973   2.339   3.808
33435W        W 5761  32.228  23.248   3.684
33436W        W 5762  23.183  29.412  12.699
33437W        W 5763  19.779  15.201   0.103
33438W        W 5764  15.039  39.354  12.934
33439W        W 5765  28.383  41.334  12.649
33440W        W 5766   3.894  19.202   4.700
33441W        W 5767  33.210   7.783   2.731
33442W        W 5768   2.789  43.349  14.827
33443W        W 5769  20.526  28.156   4.344
33444W        W 5770  19.975  31.164   0.625
33445W        W 5771  30.506  31.615   4.751
33446W        W 5772  14.344  11.278  10.781
33447W        W 5773  24.620  38.496   4.107
33448W        W 5774   5.909  17.762   2.292
33449W        W 5775  12.629  15.763  10.565
33450W        W 5776   4.495  21.622   3.998
33451W        W 5777   1.824  40.254  14.575
33452W        W 5778  42.057   5.933  13.407
33453W        W 5779  18.639   5.697   2.868
33454W        W 5780   2.740  21.842   0.462
33455W        W 5781  42.612  16.288   4.229
33456W        W 5782   1.871   0.794  13.583
33457W        W 5783  41.804   3.886  11.037
33458W        W 5784  18.271   3.703  13.000
33459W        W 5785   1.457  12.640  11.461
33460W        W 5786   3.260  17.174  11.835
33461W        W 5787  36.908  20.495   3.232
33462W        W 5788  44.812   4.432   0.441
33463W        W 5789  38.235   7.676   3.650
33464W        W 5790  44.241  13.689   0.028
33465W        W 5791  23.955  23.187   1.568
33466W        W 5792  25.851  35.266  11.000
33467W        W 5793  19.503   4.286   1.175
33468W        W 5794   2.827  35.668  13.536
33469W        W 5795  33.159  42.398   3.253
33470W        W 5796  34.950  37.009  10.419
33471W        W 5797  43.951  40.984  10.899
33472W        W 5798  11.325  12.856  10.731
33473W        W 5799   7.396  18.065  13.971
33474W        W 5800  31.500  25.246   1.349
33475W        W 5801   0.350  20.894   4.576
33476W        W 5802  32.500  39.100   9.909
33477W        W 5803   9.334  42.330   4.095
33478W        W 5804  38.279  12.903   9.809
33479W        W 5805  22.992   0.835   0.328
33480W        W 5806  44.908  12.073   0.449
33481W        W 5807  30.362  14.635   0.960
33482W        W 5808  16.073  21.301  12.369
33483W        W 5809  42.945  44.248   2.644
33484W        W 5810  24.699   7.269   0.870
33485W        W 5811  25.279  28.301  12.432
33486W        W 5812  32.624  29.061   3.473
33487W        W 5813  36.042   5.870   1.890
33488W        W 5814  37.669   6.870   4.580
33489W        W 5815  30.012  30.184   2.013
33490W        W 5816  30.292  13.628  14.773
33491W        W 5817  32.513  10.609   1.751
33492W        W 5818   5.245  18.782   0.394
33493W        W 5819  25.012  20.242   3.249
33494W        W 5820  27.781   8.354  11.622
33495W        W 5821   4.009  20.443  11.044
33496W        W 5822   0.459   6.192  11.974
33497W        W 5823   2.162  35.090  12.604
33498W        W 5824  35.238  11.898  12.551
33499W        W 5825   7.358  38.042   1.191
33500W        W 5826  43.240  34.101   0.748
33501W        W 5827  31.012  32.463   4.679
33502W        W 5828  25.520   1.512  10.405
33503W        W 5829  15.256  25.249   0.147
33504W        W 5830   7.528  36.120   0.823
33505W        W 5831  37.877  29.739  11.329
33506W        W 5832  22.701  33.381   2.397
33507W        W 5833  31.603   9.942   0.338
33508W        W 5834   0.222  21.437  14.868
33509W        W 5835   3.514  36.100   4.538
33510W        W 5836  15.935   7.261  14.341
33511W        W 5837  36.053  40.340  12.039
33512W        W 5838  27.945   9.626   1.866
33513W        W 5839  43.103  11.838   5.270
33514W        W 5840   7.754  15.384  13.157
33515W        W 5841  22.982   8.760   3.215
33516W        W 5842  11.133   2.186  11.591
33517W        W 5843  13.625  31.205   4.194
33518W        W 5844   2.713   1.663  14.240
33519W        W 5845  30.658  44.486   2.765
33520W        W 5846   3.214  25.992   2.806
33521W        W 5847  34.270  41.491   4.143
33522W        W 5848   9.662   1.718  12.984
33523W        W 5849  32.545  11.142  13.966
33524W        W 5850   4.700  26.053   3.643
33525W        W 5851  37.540  42.414  12.110
33526W        W 5852  40.010   0.048   3.852
33527W        W 5853  42.472  11.901   0.039
33528W        W 5854  44.689  29.583  11.451
33529W        W 5855   8.887   3.847  12.854
33530W        W 5856  33.467  27.223   1.696
33531W        W 5857   5.495   2.554   3.684
33532W        W 5858  18.976  21.935  11.655
33533W        W 5859  13.646   7.952   1.771
33534W        W 5860  28.242   2.952  12.448
33535W        W 5861   8.879   6.740   2.194
33536W        W 5862   4.456  24.722  12.521
33537W        W 5863  40.042   7.239  13.451
33538W        W 5864  39.837   8.657   0.683
33539W        W 5865  29.127  33.934  13.430
33540W        W 5866  34.926  36.334   3.613
33541W        W 5867   8.662  29.587  10.915
33542W        W 5868  37.628  26.890   1.898
33543W        W 5869  19.224   5.763  10.926
33544W        W 5870  40.791  18.736   4.924
33545W        W 5871  25.516  36.474  14.637
33546W        W 5872  12.168  35.106  13.137
33547W        W 5873  18.570  24.953  10.600
33548W        W 5874  30.000  42.914  10.729
33549W        W 5875   7.678  31.672  11.959
33550W        W 5876  35.424  29.712  14.894
33551W        W 5877  43.889  17.367   3.386
33552W        W 5878  13.539  19.215  14.333
33553W        W 5879  35.531  28.130   4.698
33554W        W 5880   2.650  24.668  12.974
33555W        W 5881  22.001   5.894   2.609
33556W        W 5882  24.841  18.866   4.996
33557W        W 5883  19.902  39.602  12.519
33558W        W 5884  28.879  12.806   0.667
33559W        W 5885   0.461   8.772   4.567
33560W        W 5886  10.194  42.317  10.696
33561W        W 5887   0.052  17.026  11.164
33562W        W 5888  24.603  29.011   0.184
33563W        W 5889  36.097  29.054   2.832
33564W        W 5890  11.059  40.285   0.627
33565W        W 5891  31.669  21.112   3.805
33566W        W 5892   6.560  32.538  12.136
33567W        W 5893  22.588  18.618  12.311
33568W        W 5894  24.540   8.359   4.719
33569W        W 5895  15.652  44.835   1.899
33570W        W 5896  36.871  39.070   0.876
33571W        W 5897   6.513  37.001   2.763
33572W        W 5898  40.574  23.751  14.357
33573W        W 5899  21.936  18.112  12.226
33574W        W 5900   0.645  27.015   2.669
33575W        W 5901   7.467  21.044  12.477
33576W        W 5902  14.788  34.490   2.832
33577W        W 5903   1.552   6.633  13.208
33578W        W 5904  18.448   1.776  12.204
33579W        W 5905  27.137  33.535   0.665
33580W        W 5906  29.175  18.253   0.426
33581W        W 5907  17.523   6.896  13.820
33582W        W 5908  41.781   2.995   2.045
33583W        W 5909  39.556  37.837  12.968
33584W        W 5910  34.317   0.913  11.610
33585W        W 5911   1.551  36.532  12.495
33586W        W 5912  12.691  17.212   2.806
33587W        W 5913  25.452  26.620   5.027
33588W        W 5914  12.227  26.458  14.724
33589W        W 5915  33.718  23.794   1.871
33590W        W 5916   6.170  39.577  11.155
33591W        W 5917   9.607  13.581   0.286
33592W        W 5918  38.421  26.689  14.817
33593W        W 5919  11.716  10.780  13.791
33594W        W 5920  25.194   4.731   2.823
33595W        W 5921  20.931  21.010  14.752
33596W        W 5922   8.348   9.093  12.919
33597W        W 5923  23.976  31.159  14.463
33598W        W 5924  23.269   7.977   0.489
33599W        W 5925  19.651   7.276  12.243
33600W        W 5926  43.322  34.760  11.754
33601W        W 5927  19.514  23.416   4.134
33602W        W 5928  18.253  42.578  13.953
33603W        W 5929  25.258  20.746  13.370
33604W        W 5930  21.189  41.031   1.295
33605W        W 5931  26.518  21.469   3.088
33606W        W 5932  16.179   7.913   3.320
33607W        W 5933  40.050  24.223  10.811
33608W        W 5934  14.246  16.888  13.521
33609W        W 5935  27.561  11.232   2.728
33610W        W 5936  37.034   2.715   1.907
33611W        W 5937  41.539  32.091  13.444
33612W        W 5938   8.768  30.588  12.983
33613W        W 5939  16.103  17.158   3.727
33614W        W 5940  15.629  24.736  10.710
33615W        W 5941  13.716  24.413  10.666
33616W        W 5942   1.978  10.063  14.063
33617W        W 5943  30.859  28.028  11.724
33618W        W 5944  22.729  17.125   2.701
33619W        W 5945  28.877  12.067   1.989
33620W        W 5946   8.081  16.082  12.484
33621W        W 5947  31.490   7.936   1.873
33622W        W 5948  33.011   5.133   1.689
33623W        W 5949  31.061  38.834  11.574
33624W        W 5950   5.904   5.109   4.616
33625W        W 5951  31.564  34.993  13.607
33626W        W 5952   8.772   5.661   1.393
33627W        W 5953  23.203  44.556  11.960
33628W        W 5954  15.834   5.023   2.261
33629W        W 5955   9.274  25.658  14.978
33630W        W 5956   9.837   0.456  14.743
33631W        W 5957  17.482  15.453  11.971
33632W        W 5958  43.975  41.253  13.734
33633W        W 5959  37.793  39.434  14.870
33634W        W 5960  37.091   2.625   3.227
33635W        W 5961  23.970  25.639   2.363
33636W        W 5962   0.450  44.703   1.618
33637W        W 5963   9.380  11.119  13.916
33638W        W 5964  11.534  18.828   3.396
33639W        W 5965  11.369  27.715   2.735
33640W        W 5966  38.155   7.502  13.059
33641W        W 5967  14.215   0.818  11.748
33642W        W 5968  30.502  44.418  13.859
33643W        W 5969   5.692   5.875   2.745
33644W        W 5970   2.686  39.010   2.723
33645W        W 5971  27.980  18.007   4.777
33646W        W 5972   8.668  31.399   2.859
33647W        W 5973  30.019  10.849   1.370
33648W        W 5974  42.927  32.632  11.939
33649W        W 5975  17.253  11.317  11.099
33650W        W 5976  12.156   5.016  13.107
33651W        W 5977  43.068  39.095  11.251
33652W        W 5978  18.200   8.817  14.511
33653W        W 5979  10.982   5.410   2.430
33654W        W 5980  26.612   1.832  14.363
33655W        W 5981   9.770  40.989   2.868
33656W        W 5982  25.750  34.115  14.052
33657W        W 5983  11.666  19.134   1.359
33658W        W 5984   3.281   5.442   2.143
33659W        W 5985  17.189  18.226   4.520
33660W        W 5986  28.036   6.687  12.557
33661W        W 5987  14.134  11.766  11.538
33662W        W 5988  33.500  16.301  11.954
33663W        W 5989  16.648  27.293  12.024
33664W        W 5990  43.300  29.178   4.180
33665W        W 5991  42.352  23.090  12.091
33666W        W 5992  21.523  16.651   4.593
33667W        W 5993  32.341  15.890  14.878
33668W        W 5994  43.485  24.577  14.272
33669W        W 5995  39.077   4.726   0.308
33670W        W 5996  10.239  29.939  10.977
33671W        W 5997  32.419  17.481   2.319
33672W        W 5998  22.240  10.132   1.266
33673W        W 5999  26.937   3.419  14.909
33674W        W 6000   8.705   0.560  11.614
33675W        W 6001  29.510   3.971   3.595
33676W        W 6002  13.323  38.291  14.677
33677W        W 6003  38.719   5.219  12.093
33678W        W 6004  18.578   7.891  12.959
33679W        W 6005  34.627   7.992  11.035
33680W        W 6006  35.433  37.802   2.331
33681W        W 6007  26.914  27.162  12.981
33682W        W 6008  17.279  11.668   0.870
33683W        W 6009  40.328  13.085   2.129
33684W        W 6010  20.058  33.445   0.026
33685W        W 6011  33.953  33.937  11.594
33686W        W 6012  16.693   9.283  13.872
33687W        W 6013  43.069   1.638  13.504
33688W        W 6014   7.782  23.581  12.625
33689W        W 6015   8.321  13.851   3.567
33690W        W 6016   6.706   1.977   4.033
33691W        W 6017  40.387  40.933  14.687
33692W        W 6018  12.400  28.319  12.938
33693W        W 6019  15.908  32.287  13.099
33694W        W 6020   2.010  43.736   1.827
33695W        W 6021   1.422  14.245   0.312
33696W        W 6022  30.719  35.570  11.575
33697W        W 6023  31.196  26.529   0.771
33698W        W 6024  10.230  30.890   1.310
33699W        W 6025  18.756   9.849   4.625
33700W        W 6026   3.911  12.268  11.045
33701W        W 6027  13.859   5.745   0.871
33702W        W 6028   4.773  14.377  14.439
33703W        W 6029  21.871  40.006   1.374
33704W        W 6030   1.358   4.155   1.385
33705W        W 6031  17.921   1.801  12.149
33706W        W 6032  24.536  28.014  11.654
33707W        W 6033  26.491  28.002  11.582
33708W        W 6034  43.368  17.238   4.682
33709W        W 6035  25.963   0.788  10.755
33710W        W 6036   3.946  23.056   5.334
33711W        W 6037   8.675  15.110  14.567
33712W        W 6038  19.680  17.218  13.120
33713W        W 6039   9.431  15.899  12.251
33714W        W 6040  29.263  33.919  11.103
33715W        W 6041   3.864   3.712  11.229
33716W        W 6042  23.289  36.038  11.223
33717W        W 6043  33.424  25.195  11.102
33718W        W 6044  22.378  22.467   4.654
33719W        W 6045   6.638   5.710  13.564
33720W        W 6046   6.362   6.539  11.647
33721W        W 6047   7.956  32.259  11.853
33722W        W 6048  43.804  39.343   4.110
33723W        W 6049   3.509   5.829  11.908
33724W        W 6050  23.087  36.520   2.316
33725W        W 6051  36.345  34.468   1.300
33726W        W 6052  32.667  26.103   4.623
33727W        W 6053  38.624   2.765  14.497
33728W        W 6054  14.499  36.640   4.966
33729W        W 6055  28.775   4.213  10.868
33730W        W 6056  28.515  15.832  14.493
33731W        W 6057   9.242  11.705   1.257
33732W        W 6058   1.855  41.850   1.039
33733W        W 6059  34.587   2.163   3.476
33734W        W 6060  12.136  16.688  10.693
33735W        W 6061  10.841  18.658   1.717
33736W        W 6062  29.309  12.868  10.786
33737W        W 6063  44.028  41.932   1.361
33738W        W 6064  17.769  41.917  14.468
33739W        W 6065  27.817  43.092   1.380
33740W        W 6066  33.449  34.606   2.798
33741W        W 6067   2.907  43.546   2.113
33742W        W 6068  12.672  31.809  12.914
33743W        W 6069  43.531  27.739   2.849
33744W        W 6070   4.284  31.986  12.394
33745W        W 6071  42.129   8.850   4.285
33746W        W 6072  17.347   2.655  14.948
33747W        W 6073  28.500  39.269  11.520
33748W        W 6074  33.086   0.314  11.569
33749W        W 6075  33.579  22.880   4.799
33750W        W 6076  13.875  41.367  13.476
33751W        W 6077  20.786  38.753  10.252
33752W        W 6078   9.248   7.312   4.164
33753W        W 6079  20.079  13.424  12.913
33754W        W 6080  16.706  31.194   0.205
33755W        W 6081  11.335  25.070  10.522
33756W        W 6082  35.337   5.883   0.078
33757W        W 6083  12.808  30.976  13.738
33758W        W 6084   1.016  10.389  13.329
33759W        W 6085  34.856  13.694   2.844
33760W        W 6086  40.514  13.245   2.726
33761W        W 6087  35.569   7.965   0.245
33762W        W 6088  42.808  25.704   0.287
33763W        W 6089  10.350  16.979   1.375
33764W        W 6090  11.677  17.795   4.614
33765W        W 6091  20.578  37.558  11.580
33766W        W 6092  19.522  12.850  11.182
33767W        W 6093   5.246  35.383   0.536
33768W        W 6094  34.479  27.742   2.968
33769W        W 6095  18.596  15.029  12.353
33770W        W 6096   1.247  19.263  14.762
33771W        W 6097  11.383  13.836  14.666
33772W        W 6098  15.145  22.937  14.837
33773W        W 6099   9.502  10.172   2.478
33774W        W 6100   8.834  13.323   3.897
33775W        W 6101  36.111  44.062  13.825
33776W        W 6102  22.638  22.933   2.342
33777W        W 6103  32.156  19.610  12.460
33778W        W 6104  24.587  30.494  14.939
33779W        W 6105   8.006  44.869   1.845
33780W        W 6106  20.499  23.544  12.034
33781W        W 6107  17.190  34.528   1.732
33782W        W 6108   6.983  36.777  14.908
33783W        W 6109  29.116  19.984  14.844
33784W        W 6110  26.410   5.311   0.831
33785W        W 6111   8.178  12.348  14.950
33786W        W 6112  35.241  17.165  11.652
33787W        W 6113  21.647  16.120  13.481
33788W        W 6114  10.797   8.316  13.802
33789W        W 6115  32.789  30.933   2.642
33790W        W 6116   6.644  16.288   0.352
33791W        W 6117  13.231  31.002  12.828
33792W        W 6118  35.565  11.790  13.919
33793W        W 6119  26.131  20.045  12.556
33794W        W 6120  40.542  36.451   0.559
33795W        W 6121  23.086  29.947  13.453
33796W        W 6122  32.084  38.360  12.490
33797W        W 6123  10.306  33.641   4.078
33798W        W 6124  23.198  33.535   2.381
33799W        W 6125  29.064  19.144   3.036
33800W        W 6126  17.338  26.581   1.767
33801W        W 6127  25.203  15.873  12.037
33802W        W 6128  26.938   1.236   2.404
33803W        W 6129  43.032   2.687   0.752
33804W        W 6130   1.344   1.578   0.839
33805W        W 6131   8.864   7.257   2.760
33806W        W 6132   5.247  20.175  12.753
33807W        W 6133   2.281  25.400  11.321
33808W        W 6134  39.286  42.461   0.946
33809W        W 6135  31.597  18.987  14.021
33810W        W 6136   3.854  38.906  12.631
33811W        W 6137   3.932  44.900  12.067
33812W        W 6138  13.055  32.173   2.277
33813W        W 6139  35.577  30.149  13.902
33814W        W 6140  35.454   9.976   3.314
33815W        W 6141  22.294  28.500   0.182
33816W        W 6142  28.072   5.188   3.263
33817W        W 6143   4.009  11.812   4.622
33818W        W 6144  16.059  15.586   3.202
33819W        W 6145  10.280  23.230   1.757
33820W        W 6146  33.581  18.120  14.849
33821W        W 6147  38.839  19.727   4.271
33822W        W 6148  37.805   7.430   0.337
33823W        W 6149  16.454  11.281   3.689
33824W        W 6150  25.462  27.036  13.580
33825W        W 6151  37.066  41.584  11.332
33826W        W 6152  42.466  32.394  12.111
33827W        W 6153  24.288  20.843  12.351
33828W        W 6154  27.373  28.149  10.342
33829W        W 6155   3.888   2.019   1.828
33830W        W 6156   2.345   6.999  11.047
33831W        W 6157   4.477  43.058   1.251
33832W        W 6158  21.103  37.981   1.829
33833W        W 6159  13.491  28.680   1.452
33834W        W 6160  36.810  38.032   2.669
33835W        W 6161   8.669  36.761   2.384
33836W        W 6162  26.172  39.949   4.032
33837W        W 6163  24.161  38.556   2.859
33838W        W 6164  23.841  23.436   4.146
33839W        W 6165  12.416  14.782   3.803
33840W        W 6166  21.762  14.651   1.838
33841W        W 6167  28.407   7.718  14.428
33842W        W 6168  35.245  18.051  13.913
33843W        W 6169  18.503   0.461  10.830
33844W        W 6170  25.612  38.256  12.508
33845W        W 6171   6.345  10.623  14.880
33846W        W 6172  32.105  18.795   3.203
33847W        W 6173  13.816  22.606   1.422
33848W        W 6174  28.507   8.958  10.701
33849W        W 6175  22.127  25.675   2.175
33850W        W 6176  24.959  30.443  12.370
33851W        W 6177   1.321   9.393   4.911
33852W        W 6178  38.482   9.844   2.366
33853W        W 6179  10.163   0.930   3.322
33854W        W 6180  30.485  12.114  12.905
33855W        W 6181  25.342  37.052   3.065
33856W        W 6182   5.835  28.531   0.023
33857W        W 6183  12.243  40.709   1.190
33858W        W 6184  14.929  21.044   3.620
33859W        W 6185  27.666  37.900   3.582
33860W        W 6186   9.702  34.496  14.298
33861W        W 6187  15.290   5.886   2.336
33862W        W 6188  10.673  21.268  11.250
33863W        W 6189  20.696  21.736   0.258
33864W        W 6190   1.327  44.472   0.829
33865W        W 6191  37.711  36.519  13.414
33866W        W 6192  38.535   7.283   3.806
33867W        W 6193  18.524  15.105  13.408
33868W        W 6194   6.878  33.694  11.362
33869W        W 6195   5.124  19.176   2.267
33870W        W 6196   0.107  18.595  12.494
33871W        W 6197  21.765   0.832   4.962
33872W        W 6198  25.177  43.399   0.341
33873W        W 6199   0.736  39.044  12.043
33874W        W 6200   2.913   9.939  11.572
33875W        W 6201  25.464  23.594   3.196
33876W        W 6202  20.997   7.311   1.593
33877W        W 6203  39.432   0.389   3.252
33878W        W 6204  33.595  15.557   2.340
33879W        W 6205  42.758  26.227  10.656
33880W        W 6206  20.548  27.605   4.636
33881W        W 6207   4.238  14.058  11.284
33882W        W 6208   5.677  20.089   2.744
33883W        W 6209  27.275  28.158   2.797
33884W        W 6210  37.956  39.829  10.684
33885W        W 6211  13.274  15.165   1.719
33886W        W 6212  25.622  22.094   1.311
33887W        W 6213  30.026  29.469   1.125
33888W        W 6214  39.375  11.332  11.466
33889W        W 6215  44.111  18.969   4.595
33890W        W 6216  16.777  17.905  13.659
33891W        W 6217  21.695   1.669   1.891
33892W        W 6218  39.949  21.180  10.942
33893W        W 6219  10.661  22.158  14.435
33894W        W 6220  22.601   7.762  10.802
33895W        W 6221  26.493  39.108  11.441
33896W        W 6222  34.191  25.932  13.096
33897W        W 6223  19.711  18.716  11.641
33898W        W 6224  32.086  36.467   2.215
33899W        W 6225   8.232   3.407   4.543
33900W        W 6226  44.276   9.112   2.393
33901W        W 6227  16.636   2.487   3.802
33902W        W 6228   4.492   9.750  13.824
33903W        W 6229  36.772  27.975   2.363
33904W        W 6230  25.266  14.700   3.753
33905W        W 6231  29.054  33.040  10.851
33906W        W 6232  16.377  31.444   1.851
33907W        W 6233  28.707  32.115   4.210
33908W        W 6234   8.060   5.918   4.310
33909W        W 6235  42.467  23.638  14.712
33910W        W 6236   6.355   9.694   4.535
33911W        W 6237  23.767  44.014  12.259
33912W        W 6238   0.777  16.844  12.933
33913W        W 6239  16.912  39.755   2.255
33914W        W 6240  23.567  40.907   4.772
33915W        W 6241  26.865   6.187  11.500
33916W        W 6242  39.933  26.756  12.095
33917W        W 6243  24.286  32.877  11.089
33918W        W 6244  20.601  25.460  10.603
33919W        W 6245  21.616  29.658  11.093
33920W        W 6246  12.398  11.650  12.454
33921W        W 6247  18.888  10.834   3.182
33922W        W 6248   8.927  30.577   0.269
33923W        W 6249  12.190  38.560   2.646
33924W        W 6250  42.937  40.020  10.845
33925W        W 6251  16.127  20.105   3.287
33926W        W 6252  37.909  36.972  11.462
33927W        W 6253  38.868   6.497   1.351
33928W        W 6254  41.851  42.791   2.875
33929W        W 6255  28.906  24.034   0.626
33930W        W 6256   0.398   5.284  12.127
33931W        W 6257  37.496  17.167   4.654
33932W        W 6258   1.197   9.495  13.017
33933W        W 6259  26.362   4.468  10.667
33934W        W 6260  21.258  22.509   2.260
33935W        W 6261   0.037  35.619  10.890
33936W        W 6262  35.372  29.103  13.408
33937W        W 6263  19.934  26.931   0.415
33938W        W 6264   3.969  23.104   1.813
33939W        W 6265  38.439   1.687   3.199
33940W        W 6266   1.421   2.497   5.494
33941W        W 6267  34.470  43.507   4.389
33942W        W 6268  25.700  31.222  11.625
33943W        W 6269  19.237  23.354   1.980
33944W        W 6270  15.389  16.577   0.402
33945W        W 6271  25.032  15.641   1.274
33946W        W 6272  16.754  12.147   4.655
33947W        W 6273  10.235  20.703   3.194
33948W        W 6274   4.810  20.038   1.688
33949W        W 6275  29.305   1.778  14.499
33950W        W 6276  42.789  19.035  12.001
33951W        W 6277  30.920  10.855   3.780
33952W        W 6278  32.413  41.245  11.504
33953W        W 6279  21.990  13.356   0.713
33954W        W 6280  26.603   9.283  10.746
33955W        W 6281  41.105  29.116  11.933
33956W        W 6282   3.556  27.143  11.150
33957W        W 6283  14.241   8.792  12.789
33958W        W 6284  30.337   0.818   1.442
33959W        W 6285  10.130  39.533   4.154
33960W        W 6286  31.974   3.716   0.568
33961W        W 6287  26.371  40.078   0.869
33962W        W 6288   9.178   0.657  11.378
33963W        W 6289   1.078   3.918   5.406
33964W        W 6290  42.430   8.921  12.299
33965W        W 6291  14.171  30.021   3.383
33966W        W 6292  21.100  44.966   3.105
33967W        W 6293  29.806  27.235   0.436
33968W        W 6294  24.301  41.951   1.223
33969W        W 6295  35.421  27.995   1.447
33970W        W 6296  25.976  14.080  13.149
33971W        W 6297  14.384   9.068   0.774
33972W        W 6298  16.419  40.659   4.342
33973W        W 6299  42.091  36.478  12.086
33974W        W 6300  30.053  37.854  10.679
33975W        W 6301   2.660  39.339   2.277
33976W        W 6302   0.735  17.160   3.786
33977W        W 6303  26.441  33.844   2.122
33978W        W 6304  26.521  11.655   3.249
33979W        W 6305  44.820  14.609   1.287
33980W        W 6306   7.189   6.157  10.641
33981W        W 6307  44.753  29.057  10.307
33982W        W 6308  16.785  14.089  13.491
33983W        W 6309   3.830  43.777   0.140
33984W        W 6310  30.418  25.296  13.863
33985W        W 6311  15.332  31.007  10.992
33986W        W 6312  27.458  16.580   1.779
33987W        W 6313   9.749  43.005  14.467
33988W        W 6314  18.143  24.045  13.883
33989W        W 6315   1.369   1.441  12.175
33990W        W 6316  22.903   3.195  10.744
33991W        W 6317   9.346   9.283  13.490
33992W        W 6318  34.106  27.188   2.371
33993W        W 6319   7.658  21.466  12.769
33994W        W 6320  20.076  12.374  12.979
33995W        W 6321  35.107  10.333   0.012
33996W        W 6322  35.558  19.274  10.758
33997W        W 6323  37.018  28.837   3.007
33998W        W 6324  20.814  28.199  13.481
33999W        W 6325   1.279  36.400   4.608
34000W        W 6326  26.863  25.841   0.496
34001W        W 6327  15.644  44.688  12.956
34002W        W 6328  34.933  27.795  13.055
34003W        W 6329  20.689   6.651  14.281
34004W        W 6330  24.145   6.239   1.710
34005W        W 6331  30.358  20.606  12.010
34006W        W 6332   8.187  14.801   3.577
34007W        W 6333  27.170  42.859   4.278
34008W        W 6334  35.528  34.459   1.938
34009W        W 6335  31.665   0.991  12.885
34010W        W 6336  40.444   6.969  13.156
34011W        W 6337  17.485   8.776  10.379
34012W        W 6338  22.923  40.985   5.384
34013W        W 6339  10.179  17.323   1.739
34014W        W 6340   1.471  34.102  13.056
34015W        W 6341  38.879  21.361   5.026
34016W        W 6342  42.879  14.685  12.925
34017W        W 6343  14.781  24.473   3.693
34018W        W 6344  11.417  26.520   1.227
34019W        W 6345  10.178  14.013  11.501
34020W        W 6346  32.481  30.430   1.431
34021W        W 6347  11.388  44.198  13.592
34022W        W 6348  24.535  41.375   3.169
34023W        W 6349  28.717  41.882   3.664
34024W        W 6350  12.539  13.653  13.539
34025W        W 6351   7.880  20.708   2.442
34026W        W 6352   8.421  40.007   0.555
34027W        W 6353  38.045  31.288   0.206
34028W        W 6354   5.357  10.793   4.885
34029W        W 6355   4.545  22.560   2.266
34030W        W 6356  33.844   6.459  14.245
34031W        W 6357   8.855   5.946   4.074
34032W        W 6358  42.884  34.038  11.147
34033W        W 6359  20.405  24.891   5.174
34034W        W 6360   0.569  25.158  11.245
34035W        W 6361  44.939   0.938  12.284
34036W        W 6362  44.420  14.842   4.767
34037W        W 6363   7.167  25.865  10.979
34038W        W 6364   7.964  42.378  12.362
34039W        W 6365  23.600  34.878   1.790
34040W        W 6366  39.362  37.667   1.315
34041W        W 6367  15.046  34.051   3.359
34042W        W 6368  36.389  14.225  14.561
34043W        W 6369   2.647  38.943  14.817
34044W        W 6370  29.741  13.249  13.957
34045W        W 6371  36.063  22.970  12.052
34046W        W 6372  22.494   3.580   1.199
34047W        W 6373  38.585  28.426  12.964
34048W        W 6374  34.906  38.816  10.684
34049W        W 6375  21.203  18.812  13.923
34050W        W 6376  37.491  23.210   2.653
34051W        W 6377  15.818  13.655  11.514
34052W        W 6378   3.831  30.405  13.882
34053W        W 6379  41.441  34.593   0.799
34054W        W 6380  32.915  33.022  14.038
34055W        W 6381  19.439  24.311  14.821
34056W        W 6382  42.913  10.892   2.375
34057W        W 6383   9.713  40.815  13.511
34058W        W 6384  24.736  26.377  12.023
34059W        W 6385  17.076  27.090  13.818
34060W        W 6386  42.741  25.549  13.917
34061W        W 6387  16.221  40.034   1.412
34062W        W 6388  36.965  22.030   1.893
34063W        W 6389   9.665   1.042  10.500
34064W        W 6390  24.704  14.852  10.456
34065W        W 6391  42.536  25.670   1.247
34066W        W 6392   3.420  36.772  12.132
34067W        W 6393  27.997   8.835  11.485
34068W        W 6394   5.168  16.773   4.031
34069W        W 6395  10.471  32.446  13.497
34070W        W 6396  35.360  31.592  12.500
34071W        W 6397  14.090  38.458  14.195
34072W        W 6398  41.261  21.243   2.701
34073W        W 6399  44.716  37.839   3.605
34074W        W 6400   4.256  14.763  10.642
34075W        W 6401   4.933  32.865  13.431
34076W        W 6402   2.866  43.456  11.454
34077W        W 6403   1.550   1.249  13.710
34078W        W 6404  22.889   5.318  12.077
34079W        W 6405  12.540  40.375   4.433
34080W        W 6406   5.367   4.202   0.200
34081W        W 6407   4.915  15.762  12.366
34082W        W 6408  17.262  30.622   0.499
34083W        W 6409  16.455  42.991  11.057
34084W        W 6410  39.178  17.169   9.926
34085W        W 6411   0.234  25.551  13.559
34086W        W 6412  39.489   6.769  14.138
34087W        W 6413   0.382  26.647   1.389
34088W        W 6414  44.526  24.651   4.707
34089W        W 6415  11.849  44.967   2.894
34090W        W 6416   3.217  12.600  14.820
34091W        W 6417   9.365  20.225   1.105
34092W        W 6418  10.894  17.173   2.876
34093W        W 6419  30.523  24.631   0.045
34094W        W 6420  13.612  42.285  12.099
34095W        W 6421   2.072   8.883  14.504
34096W        W 6422  39.510   2.949   1.288
34097W        W 6423   3.162   4.754   1.711
34098W        W 6424  17.210  11.330  12.108
34099W        W 6425  31.839  10.219  11.155
34100W        W 6426  31.082  24.648  11.384
34101W        W 6427   0.917  28.130   1.035
34102W        W 6428  34.435  12.793  12.159
34103W        W 6429  16.765  25.559   0.238
34104W        W 6430  20.170   7.500  11.955
34105W        W 6431  34.515  25.499  14.927
34106W        W 6432  40.363  19.236  11.155
34107W        W 6433  13.822  22.965  14.423
34108W        W 6434  13.665  18.860   1.884
34109W        W 6435  15.053   3.064  13.942
34110W        W 6436   1.543  42.448  13.872
34111W        W 6437   2.478   4.309   3.174
34112W        W 6438  10.423  43.360  12.998
34113W        W 6439  20.919  21.936  12.550
34114W        W 6440  10.161  41.563  11.726
34115W        W 6441   4.970  22.546  10.553
34116W        W 6442  16.033  22.573  11.604
34117W        W 6443  41.035  44.404   2.034
34118W        W 6444  40.758  34.907  11.656
34119W        W 6445   6.902  26.208   2.679
34120W        W 6446  24.680  19.554  14.414
34121W        W 6447   7.636  22.614   0.673
34122W        W 6448  31.933  31.599   0.144
34123W        W 6449  18.253   6.224   2.301
34124W        W 6450   2.000   0.755  11.472
34125W        W 6451   5.351  39.329   1.186
34126W        W 6452  42.530  27.093   4.124
34127W        W 6453  22.302  32.672   0.989
34128W        W 6454  22.925  39.229  10.770
34129W        W 6455  44.396  20.784   0.946
34130W        W 6456   4.880  29.006  13.008
34131W        W 6457  17.251   0.793   3.718
34132W        W 6458  39.134  21.282  13.966
34133W        W 6459   6.262  34.048   0.674
34134W        W 6460  14.251  18.264  13.074
34135W        W 6461  36.897  25.071   3.384
34136W        W 6462  17.605  43.292  11.619
34137W        W 6463  33.420  12.548   1.122
34138W        W 6464  39.447   4.804  13.902
34139W        W 6465  15.255   1.231   3.225
34140W        W 6466  39.401  15.085   2.393
34141W        W 6467  32.040  18.557  14.749
34142W        W 6468   0.795  15.476  13.141
34143W        W 6469  36.675  36.314  10.672
34144W        W 6470  43.418  22.534   4.599
34145W        W 6471  36.009  44.339   2.426
34146W        W 6472  14.531  29.938  13.338
34147W        W 6473  22.664   7.495   2.482
34148W        W 6474  28.786  16.510   3.268
34149W        W 6475  22.310  41.563  11.148
34150W        W 6476  17.659   5.946  12.786
34151W        W 6477  14.940  36.452  13.409
34152W        W 6478  15.570   4.895   0.948
34153W        W 6479  25.757  43.338  13.941
34154W        W 6480  24.379  43.499  14.894
34155W        W 6481  16.279  32.716  10.642
34156W        W 6482  29.649   0.997   3.683
34157W        W 6483   4.940  17.101  11.122
34158W        W 6484   9.986  18.035  14.801
34159W        W 6485   1.483  14.787   3.209
34160W        W 6486  19.346  24.230   3.639
34161W        W 6487  40.813  16.568  14.495
34162W        W 6488  20.126  21.188  14.804
34163W        W 6489   7.789  25.959  13.941
34164W        W 6490  32.124  11.941  10.627
34165W        W 6491  23.729  22.689  11.507
34166W        W 6492   8.854  39.299   3.737
34167W        W 6493  10.867  12.605   4.998
34168W        W 6494  21.699  17.680  11.659
34169W        W 6495  42.508  38.955   3.789
34170W        W 6496   5.750  35.953  13.987
34171W        W 6497  21.008   7.461  10.389
34172W        W 6498  42.772  10.113   2.245
34173W        W 6499   5.330  28.604   0.182
34174W        W 6500  27.137  33.947   1.486
34175W        W 6501  32.231  12.951  11.045
34176W        W 6502  22.688  12.798  14.866
34177W        W 6503  10.670  26.480  11.590
34178W        W 6504  25.390  11.414   0.126
34179W        W 6505  22.012   0.333   0.789
34180W        W 6506  19.044  33.656   3.532
34181W        W 6507  43.226   9.211  11.155
34182W        W 6508  10.347   7.790   3.766
34183W        W 6509  35.587  42.288   3.433
34184W        W 6510  14.812  36.614  11.968
34185W        W 6511  38.341  13.529   0.733
34186W        W 6512  15.875  42.101  13.839
34187W        W 6513  11.147  29.891   1.134
34188W        W 6514  34.061  37.677   2.896
34189W        W 6515  44.765  39.198  10.243
34190W        W 6516  10.205  16.344  11.780
34191W        W 6517  32.580  38.738  11.449
34192W        W 6518  44.573  37.503  12.178
34193W        W 6519   4.245  10.142  10.126
34194W        W 6520   6.214  23.966   3.132
34195W        W 6521  12.515  20.521  14.294
34196W        W 6522  23.468  23.989  10.947
34197W        W 6523  23.022  22.593  13.506
34198W        W 6524  28.314  11.693  10.188
34199W        W 6525   8.134  27.075   3.945
34200W        W 6526  20.359  30.596  11.652
34201W        W 6527  13.392  33.155   0.251
34202W        W 6528  20.073  20.126  11.242
34203W        W 6529   7.166  26.341  13.864
34204W        W 6530  24.132  16.601   4.039
34205W        W 6531  41.444   2.696   1.232
34206W        W 6532   5.862  26.101   2.711
34207W        W 6533  20.884  13.283  13.963
34208W        W 6534  24.929   8.410  14.478
34209W        W 6535   0.268  38.901  14.395
34210W        W 6536  41.529  44.269   1.652
34211W        W 6537   9.635  25.571   3.183
34212W        W 6538  27.190  15.162   0.445
34213W        W 6539   4.865  33.616   3.098
34214W        W 6540  11.376   0.254  13.489
34215W        W 6541  38.103  18.067  12.426
34216W        W 6542   3.217   0.392   4.397
34217W        W 6543   6.855  15.262   3.738
34218W        W 6544  30.521  23.683  11.175
34219W        W 6545  23.031  16.764  14.006
34220W        W 6546  28.947  43.488   2.672
34221W        W 6547  15.655  10.556  11.738
34222W        W 6548  42.835  39.141  10.784
34223W        W 6549  20.277   6.827  14.048
34224W        W 6550  25.856  14.213   9.870
34225W        W 6551   1.985  30.466   1.215
34226W        W 6552   6.086  33.357  10.332
34227W        W 6553  18.084  31.850  14.963
34228W        W 6554  19.086  27.786   0.260
34229W        W 6555  35.221   3.928   3.400
34230W        W 6556  41.179  27.774  12.912
34231W        W 6557   0.793  18.083   0.673
34232W        W 6558  17.107  42.843   3.709
34233W        W 6559   6.155  39.806  11.619
34234W        W 6560  21.557  20.424   2.893
34235W        W 6561  34.177   3.213  12.889
34236W        W 6562  43.335  10.561   0.305
34237W        W 6563  24.618   0.273  14.800
34238W        W 6564  15.239  40.368   1.185
34239W        W 6565  44.286  30.691   3.191
34240W        W 6566  29.511  32.416  11.985
34241W        W 6567   0.335   6.294   2.622
34242W        W 6568  17.224  43.572   2.335
34243W        W 6569  31.998   2.934  10.438
34244W        W 6570  29.728  36.099   1.338
34245W        W 6571   5.723  24.737   4.538
34246W        W 6572  22.685  11.840  13.069
34247W        W 6573  25.527   2.651   4.579
34248W        W 6574  20.665  35.133   1.628
34249W        W 6575  41.348  12.155   2.191
34250W        W 6576  28.089  14.368   3.784
34251W        W 6577  16.107   6.824  10.489
34252W        W 6578  27.572   8.160  13.461
34253W        W 6579  21.750  39.098  11.109
34254W        W 6580  31.482  11.170   4.236
34255W        W 6581  42.355  34.472  11.001
34256W        W 6582  10.194  24.079  12.348
34257W        W 6583  43.852   7.426   3.810
34258W        W 6584   6.169  16.708   1.491
34259W        W 6585  23.196   8.930   1.351
34260W        W 6586  21.968  37.921  13.812
34261W        W 6587  38.723  37.209  14.892
34262W        W 6588   9.799   1.492  11.937
34263W        W 6589  10.364   9.858   3.341
34264W        W 6590   4.308  27.180  14.702
34265W        W 6591   7.441  19.259   4.179
34266W        W 6592   8.204  41.434   0.732
34267W        W 6593  30.032  40.559  11.116
34268W        W 6594  37.394  32.994  11.717
34269W        W 6595   0.437  29.502   2.893
34270W        W 6596   4.872  40.415  14.877
34271W        W 6597   3.744  22.955   2.279
34272W        W 6598  16.647   3.975  13.932
34273W        W 6599  43.892   5.414  12.831
34274W        W 6600  17.871   2.969   4.154
34275W        W 6601   6.404  33.991   3.679
34276W        W 6602  34.063  35.144  10.735
34277W        W 6603  32.984  29.650  12.084
34278W        W 6604  33.951  17.245  11.188
34279W        W 6605  37.452   2.486  13.064
34280W        W 6606  34.123  23.770   3.756
34281W        W 6607  24.030  36.669   1.323
34282W        W 6608  19.766  42.510   1.972
34283W        W 6609  16.144  37.005  11.901
34284W        W 6610   2.432  20.822   1.308
34285W        W 6611  38.855  26.785   4.652
34286W        W 6612  39.723  26.012   3.241
34287W        W 6613  28.714  33.985   4.106
34288W        W 6614  21.810  23.520  10.679
34289W        W 6615  33.972  28.260  12.926
34290W        W 6616  12.082  17.067  13.916
34291W        W 6617  35.666  41.402   3.685
34292W        W 6618  13.111  36.575  10.272
34293W        W 6619  44.338   5.399   0.418
34294W        W 6620  11.110  40.487  12.965
34295W        W 6621   2.721   2.242   1.667
34296W        W 6622  20.135  20.049   1.886
34297W        W 6623  21.114  15.838  14.088
34298W        W 6624  23.021  23.047  12.456
34299W        W 6625  32.544  24.318  10.648
34300W        W 6626  40.098  25.462  12.608
34301W        W 6627  34.953  18.048  11.182
34302W        W 6628   4.417  33.159   0.691
34303W        W 6629  39.157   9.812   1.710
34304W        W 6630  20.248  21.605   2.338
34305W        W 6631  42.411   8.454   2.073
34306W        W 6632  19.184  12.728   0.860
34307W        W 6633   8.616  22.827   0.861
34308W        W 6634  33.468  29.939   2.484
34309W        W 6635  30.031  16.739   3.853
34310W        W 6636  39.722   6.382  11.261
34311W        W 6637   1.764  36.144  11.167
34312W        W 6638  40.293   6.299  13.756
34313W        W 6639  29.108  25.935  10.050
34314W        W 6640  41.706  10.165  12.466
34315W        W 6641  14.045  32.707  12.201
34316W        W 6642  43.248  15.981  11.824
34317W        W 6643  10.564  42.205   1.172
34318W        W 6644  35.583   5.817   4.508
34319W        W 6645  13.817  12.034   0.553
34320W        W 6646  13.208  44.347  14.892
34321W        W 6647  40.299  11.608   0.278
34322W        W 6648  28.106  38.544  14.638
34323W        W 6649  43.964   3.127   2.378
34324W        W 6650  22.085  33.677   3.168
34325W        W 6651   8.325  15.794   0.252
34326W        W 6652  12.791   9.861   3.111
34327W        W 6653  35.361  39.437  13.796
34328W        W 6654   0.696  24.025   1.375
34329W        W 6655   1.668   8.225  12.326
34330W        W 6656  15.058  30.726   4.283
34331W        W 6657   0.772  17.127   1.017
34332W        W 6658  29.005  34.745   0.447
34333W        W 6659   4.683  20.528  14.457
34334W        W 6660  20.170  38.149   0.188
34335W        W 6661  41.944  23.041   3.266
34336W        W 6662  11.308  43.370   2.549
34337W        W 6663   2.351  27.323  12.833
34338W        W 6664  34.968   7.301  14.531
34339W        W 6665  13.982  35.366   2.173
34340W        W 6666  28.942  26.036   1.764
34341W        W 6667  30.944  11.320  13.837
34342W        W 6668   6.775  21.854  13.499
34343W        W 6669   8.406  15.367  11.112
34344W        W 6670   3.180   1.187  10.184
34345W        W 6671  19.524   4.360   3.708
34346W        W 6672  42.403  41.585  11.921
34347W        W 6673  22.672  36.578  10.788
34348W        W 6674  15.595  10.185  14.980
34349W        W 6675  34.349  11.005  14.794
34350W        W 6676  23.682  35.092   3.866
34351W        W 6677  35.212   6.264   3.700
34352W        W 6678  23.150   1.770  12.528
34353W        W 6679  22.025  16.722   3.806
34354W        W 6680   7.648  40.916   1.307
34355W        W 6681   2.961  30.440  12.629
34356W        W 6682  28.921  19.777   3.778
34357W        W 6683  24.012   9.358  11.993
34358W        W 6684   1.786  41.925  11.426
34359W        W 6685  25.056  39.982  10.654
34360W        W 6686  27.355   9.752   3.267
34361W        W 6687  17.627  11.224   4.143
34362W        W 6688  27.622  23.235   2.733
34363W        W 6689  30.204  18.596  11.857
34364W        W 6690  42.538  28.250  14.011
34365W        W 6691  15.398  17.742   2.695
34366W        W 6692  20.760   3.754  11.948
34367W        W 6693  19.070  17.567   2.036
34368W        W 6694  18.458   9.408  12.085
34369W        W 6695  32.176  32.925  10.747
34370W        W 6696   9.470  39.580  12.066
34371W        W 6697  29.480  23.520  12.351
34372W        W 6698  23.744  17.519   0.056
34373W        W 6699  26.510  10.869  12.523
34374W        W 6700   5.768  43.940   1.866
34375W        W 6701   3.105  41.506   1.882
34376W        W 6702  12.497  38.903   3.197
34377W        W 6703   7.246   4.475  14.746
34378W        W 6704  36.942   2.773  12.221
34379W        W 6705  32.513  42.346   1.012
34380W        W 6706   7.686  14.608  11.665
34381W        W 6707  23.571  27.427   0.225
34382W        W 6708  28.443  37.540  11.903
34383W        W 6709  17.634  38.957  14.318
34384W        W 6710  36.167  32.870   0.492
34385W        W 6711  16.589  20.662   2.873
34386W        W 6712   8.155   8.420  10.642
34387W        W 6713  43.803  23.303  12.365
34388W        W 6714  12.363  18.080  11.532
34389W        W 6715   1.265   0.053  10.683
34390W        W 6716  38.941  15.819   3.673
34391W        W 6717  12.070  18.334  11.896
34392W        W 6718  16.188  44.970   0.358
34393W        W 6719  24.719  24.253   5.001
34394W        W 6720  33.740  27.548   2.297
34395W        W 6721  38.208  25.172   4.135
34396W        W 6722  35.089  35.565   0.367
34397W        W 6723  35.918  13.405  11.080
34398W        W 6724  40.980  25.427   3.282
34399W        W 6725  27.420  35.520   1.127
34400W        W 6726  27.915   1.552   3.353
34401W        W 6727  32.047  40.087   4.013
34402W        W 6728  29.839  39.566  14.882
34403W        W 6729  22.201  27.467  11.180
34404W        W 6730  44.036  13.772  13.495
34405W        W 6731  41.135  44.400  13.388
34406W        W 6732  39.062  34.558  14.760
34407W        W 6733  34.356  15.496  14.552
34408W        W 6734  24.233  34.358   1.459
34409W        W 6735  27.069  43.824  13.298
34410W        W 6736  13.178  11.397   0.257
34411W        W 6737   3.256  20.144   3.629
34412W        W 6738  20.804  11.100   4.206
34413W        W 6739  28.408  17.222   1.311
34414W        W 6740  28.990  31.877   0.011
34415W        W 6741   0.469  15.248   0.193
34416W        W 6742  33.837  19.283  14.486
34417W        W 6743  25.533  25.207  10.546
34418W        W 6744  23.501  29.523   4.606
34419W        W 6745  33.152  27.370  13.656
34420W        W 6746  40.870  23.570   2.886
34421W        W 6747  15.374   8.383   3.372
34422W        W 6748  34.828  44.974  12.936
34423W        W 6749  30.984  41.814  10.351
34424W        W 6750  14.275  41.505  12.070
34425W        W 6751  20.667  44.658   4.506
34426W        W 6752  40.243  15.322  12.919
34427W        W 6753  36.346  17.925   0.244
34428W        W 6754   7.706   9.707  11.559
34429W        W 6755   4.391  41.338  11.380
34430W        W 6756   0.637  34.190   2.469
34431W        W 6757  31.178  40.901   3.614
34432W        W 6758  35.647  42.466   0.097
34433W        W 6759  30.046   1.646  10.570
34434W        W 6760  26.763  29.625  10.868
34435W        W 6761   5.797  20.724  12.620
34436W        W 6762  36.487  41.517  14.387
34437W        W 6763  16.972   7.795  13.584
34438W        W 6764  32.082  43.489   0.302
34439W        W 6765  10.148  24.973  11.420
34440W        W 6766   5.967  10.600   3.635
34441W        W 6767  30.647  30.886   0.639
34442W        W 6768  10.698  38.230  11.023
34443W        W 6769  18.125  11.238   3.925
34444W        W 6770  37.932  26.251  10.674
34445W        W 6771   1.812  23.688  10.196
34446W        W 6772  43.450   6.852   0.723
34447W        W 6773  28.925  26.007  14.444
34448W        W 6774   3.256  31.986   1.218
34449W        W 6775   0.787  17.424   2.478
34450W        W 6776  19.268  28.474  11.533
34451W        W 6777  18.740  26.506   1.834
34452W        W 6778  16.238  32.809  14.596
34453W        W 6779  27.403  37.862  13.869
34454W        W 6780  13.314  37.974   1.875
34455W        W 6781  43.329  36.521   4.721
34456W        W 6782  32.389  12.368   2.430
34457W        W 6783  40.464  21.511  12.054
34458W        W 6784   8.846  37.946   3.080
34459W        W 6785  34.081  30.046  10.613
34460W        W 6786  19.003   9.629  11.533
34461W        W 6787  37.074  36.039   4.768
34462W        W 6788   3.343  30.960  12.991
34463W        W 6789   5.223  11.648   4.145
34464W        W 6790  12.307  18.971  11.219
34465W        W 6791  28.051  23.172  10.743
34466W        W 6792  10.939  42.338   0.074
34467W        W 6793  22.604  10.319  10.526
34468W        W 6794   1.511  17.792   2.110
34469W        W 6795   9.827  11.808   1.309
34470W        W 6796  41.467  10.801  14.118
34471W        W 6797  17.856  10.306   2.841
34472W        W 6798  35.091  37.972  14.386
34473W        W 6799  39.257  24.131  11.246
34474W        W 6800   2.284  24.766  12.542
34475W        W 6801  32.966  37.518  13.071
34476W        W 6802   0.783  33.944  12.554
34477W        W 6803   3.440  24.066  13.016
34478W        W 6804   3.311  18.175  12.115
34479W        W 6805  21.547  34.087   0.263
34480W        W 6806  41.759  37.989   1.046
34481W        W 6807  31.665  17.235   3.654
34482W        W 6808  15.231   4.423  13.457
34483W        W 6809  12.761  20.382  11.168
34484W        W 6810   6.510  11.843  12.503
34485W        W 6811  30.502  44.690  14.325
34486W        W 6812  43.816  18.783   4.012
34487W        W 6813  27.617  34.011   0.048
34488W        W 6814  39.787  36.484   2.766
34489W        W 6815   0.407   2.282   3.244
34490W        W 6816   2.037  24.025   1.741
34491W        W 6817   0.833  17.508   2.995
34492W        W 6818  31.012  15.704  12.161
34493W        W 6819  22.763   9.811   4.513
34494W        W 6820  15.598  38.496   1.783
34495W        W 6821   3.416  15.594   1.311
34496W        W 6822   0.297  17.118  12.513
34497W        W 6823  23.803  12.593  14.975
34498W        W 6824  22.112  27.944  10.999
34499W        W 6825  10.887   3.405  11.186
34500W        W 6826   3.152  30.868  14.530
34501W        W 6827   1.476  32.438   0.556
34502W        W 6828  39.349  42.536  12.637
34503W        W 6829   1.387  15.147  14.306
34504W        W 6830  39.029  32.937  12.114
34505W        W 6831  37.376  16.871  13.359
34506W        W 6832   8.331   2.499  10.812
34507W        W 6833   6.392  34.018   4.608
34508W        W 6834  37.263  36.798   3.731
34509W        W 6835  42.875  38.792   0.876
34510W        W 6836   1.472  31.561   3.150
34511W        W 6837  41.863  27.955  14.571
34512W        W 6838  43.085  42.189  12.029
34513W        W 6839  40.755  23.956   3.269
34514W        W 6840  23.009  35.602   0.953
34515W        W 6841  19.234  32.702   3.231
34516W        W 6842   1.324  24.536   0.693
34517W        W 6843  30.660  25.589  10.649
34518W        W 6844  24.866  33.482  11.248
34519W        W 6845  16.543  16.174  12.624
34520W        W 6846  40.026  18.153   4.107
34521W        W 6847  12.559  37.621  12.874
34522W        W 6848  30.194  26.966  11.606
34523W        W 6849  27.632  33.475  14.234
34524W        W 6850  17.841  25.450   3.379
34525W        W 6851  27.238  22.859   1.372
34526W        W 6852   2.574  41.668  12.807
34527W        W 6853  33.767   0.455  12.741
34528W        W 6854  33.771  21.952  12.439
34529W        W 6855   0.901  18.529  13.465
34530W        W 6856  31.135   5.454   4.609
34531W        W 6857  19.750  19.007   4.303
34532W        W 6858  43.810  44.377  11.374
34533W        W 6859  29.625  10.161  11.208
34534W        W 6860   5.293  20.458   2.688
34535W        W 6861  30.041  20.331  14.431
34536W        W 6862  16.989  33.964  14.408
34537W        W 6863  22.073  41.443  10.730
34538W        W 6864  38.882  24.172   2.327
34539W        W 6865  27.963  41.681   1.917
34540W        W 6866  29.636   4.354  14.004
34541W        W 6867   7.610  19.560  12.039
34542W        W 6868  12.843  16.864   3.617
34543W        W 6869  13.663  36.486   4.582
34544W        W 6870  13.216   9.905   4.489
34545W        W 6871  14.984  37.623   2.214
34546W        W 6872  10.408   4.709   3.687
34547W        W 6873   1.882  31.335   2.492
34548W        W 6874  16.151   5.471  13.608
34549W        W 6875  16.084  26.072  13.301
34550W        W 6876  22.658  31.284   1.869
34551W        W 6877  35.832  39.394  11.548
34552W        W 6878   7.853  31.822   1.313
34553W        W 6879   5.217  43.781  11.643
34554W        W 6880   6.537  18.837   3.874
34555W        W 6881  39.741  36.146  10.674
34556W        W 6882  26.509  15.202  10.734
34557W        W 6883  23.948  17.933   4.841
34558W        W 6884  17.231  13.711   9.809
34559W        W 6885   5.871  11.264  11.973
34560W        W 6886  30.119  40.319   1.430
34561W        W 6887  35.942  28.009  12.030
34562W        W 6888   5.824   8.184   2.618
34563W        W 6889  33.939  17.304   3.468
34564W        W 6890  30.709  27.808   5.010
34565W        W 6891  13.586  22.041  10.861
34566W        W 6892  20.008  30.017  13.059
34567W        W 6893   3.658  20.149  10.787
34568W        W 6894  10.756  22.654   0.113
34569W        W 6895   1.399  18.672  13.503
34570W        W 6896  33.499  25.065   1.845
34571W        W 6897  13.215  20.953   3.523
34572W        W 6898  16.022   2.455  14.675
34573W        W 6899  37.639  37.776   0.314
34574W        W 6900   8.846  24.529   3.211
34575W        W 6901  13.039  40.909  11.528
34576W        W 6902  37.629  15.785   3.773
34577W        W 6903  43.869  44.291  11.889
34578W        W 6904   8.431  12.949   2.841
34579W        W 6905   8.355   8.440   0.580
34580W        W 6906   1.183  17.192   0.012
34581W        W 6907  21.563   0.606  13.859
34582W        W 6908  36.039  41.968  10.657
34583W        W 6909  26.182  20.975  12.953
34584W        W 6910  18.179   7.688   2.758
34585W        W 6911  15.302  19.211   4.335
34586W        W 6912  23.049   1.469   3.900
34587W        W 6913  35.739  23.679   0.413
34588W        W 6914  14.099   5.293  12.428
34589W        W 6915  35.892  38.435   5.013
34590W        W 6916  37.796  23.965  12.045
34591W        W 6917   9.206  44.358  10.597
34592W        W 6918  10.255  42.969   2.187
34593W        W 6919  43.817  32.586  13.905
34594W        W 6920  28.065   7.143  13.925
34595W        W 6921  27.638  32.988  14.528
34596W        W 6922  16.637  39.180  10.696
34597W        W 6923  18.840  38.311   4.131
34598W        W 6924  33.386  13.792  11.161
34599W        W 6925  30.586  35.805   0.712
34600W        W 6926  18.261   4.573   0.196
34601W        W 6927  16.589  31.559  12.859
34602W        W 6928  39.362  35.358   3.762
34603W        W 6929  40.476  28.253   1.035
34604W        W 6930   2.867  41.436  12.384
34605W        W 6931   6.041  18.797   3.151
34606W        W 6932  42.308  39.863   3.200
34607W        W 6933   0.615  25.060  14.701
34608W        W 6934  31.138  44.328  11.659
34609W        W 6935  26.977  21.736   2.922
34610W        W 6936  42.565   2.278  13.882
34611W        W 6937  17.389   0.752  12.000
34612W        W 6938  25.038  20.783  13.832
34613W        W 6939   1.846  26.884   0.398
34614W        W 6940  26.246  36.600  12.655
34615W        W 6941  41.271  19.310  14.380
34616W        W 6942  43.026   3.381   3.172
34617W        W 6943   8.316  19.189   1.695
34618W        W 6944  16.761  39.231  10.010
34619W        W 6945  32.636  13.284  11.024
34620W        W 6946  12.601  23.921   0.930
34621W        W 6947  16.201  42.810   3.594
34622W        W 6948  44.341   3.004  11.940
34623W        W 6949  27.739  41.606  11.060
34624W        W 6950  44.305  43.078  10.151
34625W        W 6951  35.183   5.220  10.464
34626W        W 6952   0.793  23.535  14.561
34627W        W 6953  38.474  21.428  12.485
34628W        W 6954  24.675  28.540   1.821
34629W        W 6955  23.319  18.002  11.098
34630W        W 6956  33.172   7.261   0.779
34631W        W 6957   6.511   7.177   1.936
34632W        W 6958  27.188  37.318   0.279
34633W        W 6959  20.193  21.280  10.989
34634W        W 6960   7.691   8.439  12.874
34635W        W 6961   3.209  12.638  12.424
34636W        W 6962  44.455  20.717  13.923
34637W        W 6963  18.650   9.147   4.644
34638W        W 6964  15.046   8.075   1.274
34639W        W 6965   5.223  14.524   1.301
34640W        W 6966  34.581  31.571  10.695
34641W        W 6967   1.621   8.031  12.894
34642W        W 6968  27.365  17.042  11.076
34643W        W 6969  33.129   7.255   3.838
34644W        W 6970  16.687  22.539  11.895
34645W        W 6971  25.442  28.106  10.776
34646W        W 6972  24.358  32.056   4.126
34647W        W 6973  11.582   7.777  10.563
34648W        W 6974  14.698   2.226   0.926
34649W        W 6975  24.805  13.805   1.790
34650W        W 6976  27.201  28.753   4.610
34651W        W 6977   3.466  34.169   4.555
34652W        W 6978  35.848   8.401   1.782
34653W        W 6979  21.059   9.145  10.756
34654W        W 6980  31.126  28.896   4.316
34655W        W 6981  37.913   4.306  12.619
34656W        W 6982  21.118  31.145  13.446
34657W        W 6983  21.070  39.340   3.163
34658W        W 6984  16.886  28.098  12.552
34659W        W 6985  26.326  28.559  10.004
34660W        W 6986  29.923  20.507   3.799
34661W        W 6987  12.174  18.587   4.851
34662W        W 6988  25.049  15.155  10.224
34663W        W 6989  37.531   5.385   3.342
34664W        W 6990  28.922   8.294   0.697
34665W        W 6991  13.719   8.770   4.063
34666W        W 6992  36.991   8.764   4.675
34667W        W 6993  35.331  26.146  10.708
34668W        W 6994  13.222  18.676  13.766
34669W        W 6995  20.174  44.837  10.696
34670W        W 6996  37.445  24.699  14.807
34671W        W 6997   2.669  40.129   1.414
34672W        W 6998   5.506   8.276  11.281
34673W        W 6999  28.894  27.937   3.567
34674W        W 7000  32.628  14.211   4.405
34675W        W 7001  19.807   9.740   0.034
34676W        W 7002  44.240   5.678   1.828
34677W        W 7003  42.380  28.938  14.049
34678W        W 7004  14.212   8.393   2.729
34679W        W 7005  41.993  23.942  12.445
34680W        W 7006   6.186  26.329  11.199
34681W        W 7007   4.919  17.824   5.072
34682W        W 7008  10.868   6.086  12.928
34683W        W 7009  38.350  26.477   4.684
34684W        W 7010  25.051  44.986   0.313
34685W        W 7011  14.147  10.661   1.842
34686W        W 7012   2.858  25.621   1.448
34687W        W 7013   4.359  41.019   3.031
34688W        W 7014  19.254  17.520  13.894
34689W        W 7015  26.862  22.495   3.674
34690W        W 7016  22.100  25.012  10.552
34691W        W 7017  13.077  13.831   0.924
34692W        W 7018  37.600  32.995  12.607
34693W        W 7019  37.123   2.548   4.844
34694W        W 7020  14.149  10.894   3.269
34695W        W 7021  28.404  25.098  13.381
34696W        W 7022  26.400   8.562   1.327
34697W        W 7023  20.528  16.627  12.551
34698W        W 7024  43.565   2.880  13.583
34699W        W 7025  27.252  33.364  14.575
34700W        W 7026  24.992  36.042   2.751
34701W        W 7027   4.133   0.949  12.272
34702W        W 7028  28.880  28.488   0.009
34703W        W 7029  25.000  12.565   2.373
34704W        W 7030  13.236  33.001   5.347
34705W        W 7031  27.958  32.917  13.464
34706W        W 7032  11.392  10.238   2.856
34707W        W 7033   5.206  30.777  13.898
34708W        W 7034   1.697  37.089   1.467
34709W        W 7035  36.912   0.266  12.969
34710W        W 7036  18.608  28.148   0.370
34711W        W 7037   9.564  43.519   4.094
34712W        W 7038  44.806   1.346   4.099
34713W        W 7039  29.166  20.721  14.536
34714W        W 7040   9.280   2.696   3.663
34715W        W 7041   0.894  17.826  10.685
34716W        W 7042  15.533   2.791   1.425
34717W        W 7043  35.357  31.515   2.363
34718W        W 7044  37.383  14.775   1.935
34719W        W 7045   3.481  44.961  11.138
34720W        W 7046  28.654  22.438  14.820
34721W        W 7047  10.379  34.525   0.493
34722W        W 7048  14.577  12.137   0.885
34723W        W 7049  27.098  23.268   4.058
34724W        W 7050  24.018  20.000  10.604
34725W        W 7051  36.750  32.741   1.197
34726W        W 7052   0.357  15.532   4.038
34727W        W 7053  15.104  28.671   1.275
34728W        W 7054  25.587  42.404  13.521
34729W        W 7055  41.691   8.958   4.541
34730W        W 7056  11.707  32.983  12.267
34731W        W 7057  42.535  23.290  14.348
34732W        W 7058  33.912  15.821  13.014
34733W        W 7059   7.553  21.455   3.885
34734W        W 7060   0.727  39.093  12.900
34735W        W 7061  32.569  41.178   0.973
34736W        W 7062  16.328  19.209   4.082
34737W        W 7063  42.526   8.243   1.605
34738W        W 7064  15.283  19.188  10.820
34739W        W 7065  41.052   2.445   2.358
34740W        W 7066  11.823  31.602   4.035
34741W        W 7067  26.395  35.070  13.987
34742W        W 7068  36.558   9.314  13.282
34743W        W 7069   4.176   8.460  13.966
34744W        W 7070  12.182  41.296   2.201
34745W        W 7071   8.287  23.530   0.292
34746W        W 7072  26.162   0.317  10.768
34747W        W 7073  33.104  13.657  10.700
34748W        W 7074  35.106  19.979  11.213
34749W        W 7075  17.890  40.241  12.727
34750W        W 7076  32.500  21.662   0.875
34751W        W 7077  43.415   6.944  12.361
34752W        W 7078  23.526  43.186  14.875
34753W        W 7079  20.113  42.416   2.668
34754W        W 7080  43.411  32.440  11.891
34755W        W 7081   6.059   9.397   4.182
34756W        W 7082   5.477  30.706  13.476
34757W        W 7083  15.758  21.966   4.747
34758W        W 7084  31.625   3.546   0.040
34759W        W 7085  20.969  44.890  13.398
34760W        W 7086   1.513  21.816   1.484
34761W        W 7087  40.721  39.914  10.443
34762W        W 7088  23.495  28.976  14.024
34763W        W 7089  33.202  41.309   2.272
34764W        W 7090  12.241  44.198  11.099
34765W        W 7091   7.146  29.994   0.487
34766W        W 7092  22.206  16.308   4.153
34767W        W 7093  31.624  20.719  11.535
34768W        W 7094  36.073  28.670   1.478
34769W        W 7095   5.424   5.123  13.444
34770W        W 7096  14.698  21.961  12.481
34771W        W 7097  36.425  22.695  14.342
34772W        W 7098  40.298  14.205  10.647
34773W        W 7099  12.321   1.076  13.319
34774W        W 7100   3.897  13.720  11.540
34775W        W 7101  23.997   0.813  11.222
34776W        W 7102  26.382  42.688   5.002
34777W        W 7103  19.340   0.951   1.986
34778W        W 7104  16.081  43.549   2.403
34779W        W 7105   9.974  26.680   0.728
34780W        W 7106  38.619  10.168  10.731
34781W        W 7107  19.403  14.287   0.318
34782W        W 7108  27.758   0.366   1.980
34783W        W 7109  14.276  33.010  10.604
34784W        W 7110  30.108  23.323   2.782
34785W        W 7111  16.235  14.089   1.953
34786W        W 7112   2.731  21.011   0.903
34787W        W 7113  26.193  32.628   3.678
34788W        W 7114  39.662  35.529  13.130
34789W        W 7115  20.211  41.998   3.387
34790W        W 7116  38.324  33.440  14.456
34791W        W 7117   3.964  39.678   4.227
34792W        W 7118  18.825  35.168   2.080
34793W        W 7119  32.528  22.158  10.711
34794W        W 7120  38.716  12.851   1.322
34795W        W 7121   3.420  30.741  10.623
34796W        W 7122  21.040  29.438   2.913
34797W        W 7123  23.056  36.576   1.216
34798W        W 7124  11.216  40.835  11.033
34799W        W 7125  24.228  27.122   0.518
34800W        W 7126   5.697  42.756  12.965
34801W        W 7127   4.113  12.006   0.716
34802W        W 7128  28.362   1.203  12.106
34803W        W 7129   5.700  35.018  13.822
34804W        W 7130  42.294  43.917  12.031
34805W        W 7131  11.395   0.976   0.461
34806W        W 7132   7.850   4.969   2.672
34807W        W 7133  42.578  20.534   1.839
34808W        W 7134  33.058  30.891   2.196
34809W        W 7135   4.717  31.351   4.550
34810W        W 7136  28.501  27.091  14.387
34811W        W 7137  28.166  37.408  10.254
34812W        W 7138   9.307  38.206  12.878
34813W        W 7139  14.170  23.034  13.033
34814W        W 7140  17.612  38.792  12.625
34815W        W 7141  34.973   9.291  14.158
34816W        W 7142  42.763   6.787   1.447
34817W        W 7143   2.797  22.511   4.156
34818W        W 7144  44.375   2.707   0.791
34819W        W 7145  38.640  41.225   1.870
34820W        W 7146  36.072  34.377   1.751
34821W        W 7147  42.147   9.292  13.375
34822W        W 7148   9.645  23.063   4.077
34823W        W 7149  10.380  42.565   3.182
34824W        W 7150  18.747  30.519  13.839
34825W        W 7151  27.091  30.544   3.972
34826W        W 7152   8.262  28.098   0.837
34827W        W 7153  18.589  10.189   3.815
34828W        W 7154  25.545  39.331   0.809
34829W        W 7155  12.832   1.700  13.877
34830W        W 7156  20.631  35.810  10.464
34831W        W 7157  10.855   7.747  13.198
34832W        W 7158  44.258   4.174   3.193
34833W        W 7159  39.864   6.721  10.907
34834W        W 7160  14.398  40.908  14.057
34835W        W 7161  14.917  42.785  14.452
34836W        W 7162  42.784   1.493   2.382
34837W        W 7163  34.831  34.178   1.992
34838W        W 7164  24.736   9.750   3.168
34839W        W 7165  44.271  44.455   4.012
34840W        W 7166   5.023   6.144   4.586
34841W        W 7167  15.829  34.173  11.819
34842W        W 7168  13.348  39.315   1.114
34843W        W 7169  11.689   9.330  11.402
34844W        W 7170  10.520   1.265   3.119
34845W        W 7171  42.513  31.498   1.466
34846W        W 7172  15.792  36.055  12.035
34847W        W 7173   2.443   4.877   3.869
34848W        W 7174   8.974  42.867   0.418
34849W        W 7175  17.475  38.329   4.729
34850W        W 7176  11.799  41.606   2.370
34851W        W 7177  20.245  28.795   0.918
34852W        W 7178   2.358  29.637  10.829
34853W        W 7179  23.683  16.937   2.773
34854W        W 7180   5.777  10.397   1.382
34855W        W 7181  11.349  19.277   1.890
34856W        W 7182  28.473  41.923   0.225
34857W        W 7183  15.557   3.220   4.538
34858W        W 7184   1.342  13.518  11.404
34859W        W 7185  33.966  18.659  13.884
34860W        W 7186  11.898   3.857   0.469
34861W        W 7187  14.560  29.515  13.915
34862W        W 7188  33.890  24.286   1.900
34863W        W 7189  14.328   5.145  12.898
34864W        W 7190  28.436  11.177   2.471
34865W        W 7191   5.147  29.465  13.900
34866W        W 7192  31.989  24.989  14.059
34867W        W 7193  42.713  19.196   1.736
34868W        W 7194   6.658   4.256   2.870
34869W        W 7195  37.620  13.218  10.318
34870W        W 7196   1.708  20.654  11.979
34871W        W 7197  16.812  26.107   1.936
34872W        W 7198  41.406  29.073  13.835
34873W        W 7199   6.414   5.820  14.400
34874W        W 7200  30.016  25.952  14.961
34875W        W 7201  27.585  15.574   3.566
34876W        W 7202   4.404  11.781  13.326
34877W        W 7203   6.446  37.768  14.851
34878W        W 7204  24.517  15.260   0.751
34879W        W 7205  33.885  21.988  11.641
34880W        W 7206   9.775   5.983  11.173
34881W        W 7207  14.138  14.358   3.347
34882W        W 7208  37.275  30.057   3.738
34883W        W 7209  19.129  44.011   1.263
34884W        W 7210  35.524   1.505   4.188
34885W        W 7211  25.106   9.824  11.806
34886W        W 7212  23.173   2.700   2.431
34887W        W 7213  21.218  13.288   4.180
34888W        W 7214   0.292  31.870  12.066
34889W        W 7215   9.849   9.879   0.332
34890W        W 7216  19.177  18.743  10.972
34891W        W 7217   0.975   2.333  12.467
34892W        W 7218  42.119  32.155   4.559
34893W        W 7219  18.503  39.930   3.121
34894W        W 7220  14.217  44.968   2.835
34895W        W 7221  13.357  24.049  12.998
34896W        W 7222  28.695  22.102   0.791
34897W        W 7223  31.374  40.059  14.889
34898W        W 7224   6.216   8.523  13.007
34899W        W 7225  31.252  14.272   3.532
34900W        W 7226  44.916  10.495   2.334
34901W        W 7227  44.526  22.821  12.951
34902W        W 7228   1.769   1.992   4.818
34903W        W 7229   5.951   5.537  12.212
34904W        W 7230  17.274  17.111   1.756
34905W        W 7231  42.447  13.716   4.700
34906W        W 7232   2.681  12.198  11.503
34907W        W 7233  11.651  25.033   0.309
34908W        W 7234  43.405  18.485   4.144
34909W        W 7235   5.299  19.993   1.885
34910W        W 7236  12.675  23.973   0.007
34911W        W 7237  35.796   9.287   2.769
34912W        W 7238   8.940   5.122   0.523
34913W        W 7239  23.481  10.228  11.907
34914W        W 7240  44.147  20.707   2.932
34915W        W 7241   4.825  13.336   1.840
34916W        W 7242  29.954  18.704  14.801
34917W        W 7243  42.468   7.185  13.986
34918W        W 7244  13.489  18.463   1.386
34919W        W 7245  31.505  27.231  11.081
34920W        W 7246  19.112  44.884   3.206
34921W        W 7247  41.544   6.232   0.320
34922W        W 7248   9.403  42.320  12.075
34923W        W 7249   9.655  28.419   3.751
34924W        W 7250   8.170  19.988   1.446
34925W        W 7251  37.888  23.546   3.766
34926W        W 7252   2.988  24.461  12.495
34927W        W 7253   7.633  31.413  12.406
34928W        W 7254  19.160  17.916  12.434
34929W        W 7255   0.868  31.315  12.471
34930W        W 7256  20.883  16.521   0.850
34931W        W 7257  44.380  26.688  11.173
34932W        W 7258  40.650  26.973  14.833
34933W        W 7259  40.016  44.563   4.028
34934W        W 7260  13.411  23.602  10.712
34935W        W 7261  12.547  19.608  12.427
34936W        W 7262  27.203   7.203  11.121
34937W        W 7263  29.101  17.742  12.885
34938W        W 7264  37.153   2.061   3.352
34939W        W 7265  13.767  29.144   4.637
34940W        W 7266  14.121  13.285   2.335
34941W        W 7267  23.872  17.408   2.809
34942W        W 7268  13.355  16.102   1.270
34943W        W 7269  16.081   0.945  13.402
34944W        W 7270  17.461  26.963  11.509
34945W        W 7271  17.186  23.693  10.392
34946W        W 7272  39.227  17.619   0.891
34947W        W 7273  14.056  37.122   0.947
34948W        W 7274  39.060  30.046   0.822
34949W        W 7275   5.359  44.622  13.804
34950W        W 7276  39.379   6.903   4.123
34951W        W 7277  21.418  24.395  12.893
34952W        W 7278  16.061  16.781   4.894
34953W        W 7279   4.525  13.238   1.229
34954W        W 7280  42.007  38.644   0.985
34955W        W 7281  19.448   9.804   3.914
34956W        W 7282   7.233  36.044  13.410
34957W        W 7283  44.965  21.582  13.084
34958W        W 7284   7.694   9.151  10.762
34959W        W 7285  22.067   1.763   0.477
34960W        W 7286   5.788  33.949   2.391
34961W        W 7287   9.159  10.640  10.383
34962W        W 7288  15.522  44.357  11.108
34963W        W 7289  35.968   5.798  14.094
34964W        W 7290  23.139  24.596  14.774
34965W        W 7291   5.842  44.493  14.523
34966W        W 7292  32.286  26.453   4.139
34967W        W 7293   1.476  31.351   3.691
34968W        W 7294  18.037  26.314  12.263
34969W        W 7295  35.642  33.955  12.315
34970W        W 7296   5.162  12.895  14.843
34971W        W 7297  37.367  24.064   3.972
34972W        W 7298  21.126  40.188  12.174
34973W        W 7299   8.856  15.054   0.498
34974W        W 7300   5.613   6.148  14.279
34975W        W 7301   2.185  18.730   4.423
34976W        W 7302   8.314  43.504   4.623
34977W        W 7303  30.201  26.175  13.729
34978W        W 7304  33.502   4.383  10.169
34979W        W 7305   0.314  15.706   0.024
34980W        W 7306  17.722  13.822  13.406
34981W        W 7307  13.208  16.605  13.814
34982W        W 7308  32.169  23.021  11.699
34983W        W 7309   9.332  30.189  11.144
34984W        W 7310  29.898  20.576   0.884
34985W        W 7311  30.345  40.997   4.242
34986W        W 7312  44.470  23.248  11.900
34987W        W 7313  30.983  14.788  12.063
34988W        W 7314   7.969  10.639  14.718
34989W        W 7315  41.944  22.683  14.041
34990W        W 7316  12.019   3.500   2.023
34991W        W 7317  12.567   4.283   0.587
34992W        W 7318  21.574  40.478   4.427
34993W        W 7319  27.397  13.838   0.386
34994W        W 7320  11.762   2.446  14.251
34995W        W 7321  42.169  41.253   4.179
34996W        W 7322   8.179  18.005   3.278
34997W        W 7323  36.285  35.444   5.455
34998W        W 7324  18.843  29.032   3.110
34999W        W 7325  21.664  27.212   4.854
35000W        W 7326  11.312  30.048  10.661
35001W        W 7327  29.475  42.067  13.456
35002W        W 7328  30.143  35.334  14.840
35003W        W 7329  17.254  32.164   1.893
35004W        W 7330  25.402   4.184  11.674
35005W        W 7331   4.767  18.589   0.263
35006W        W 7332  23.026   8.873  11.515
35007W        W 7333  43.675  10.154  11.098
35008W        W 7334   8.280   6.644  10.796
35009W        W 7335  27.669  43.092   2.742
35010W        W 7336  14.828  42.184  14.967
35011W        W 7337  26.136  28.288   3.555
35012W        W 7338   1.024  44.352  13.997
35013W        W 7339  44.777  14.394   5.059
35014W        W 7340  15.319  32.033   0.757
35015W        W 7341  23.868  43.861  14.225
35016W        W 7342   4.927  36.963   1.010
35017W        W 7343  40.536  41.690  10.739
35018W        W 7344   6.856  10.691   4.902
35019W        W 7345  11.791  27.151  11.526
35020W        W 7346  39.975   5.771   0.739
35021W        W 7347  14.788   0.252  13.342
35022W        W 7348  26.755   8.843   0.341
35023W        W 7349  42.187  16.850  13.985
35024W        W 7350  23.526  10.789   4.076
35025W        W 7351   3.673  21.298  14.447
35026W        W 7352   6.391   1.967   3.631
35027W        W 7353  21.185   4.218   2.307
35028W        W 7354   2.370  39.200   1.370
35029W        W 7355  39.457  35.978   4.450
35030W        W 7356   5.207  30.921  11.103
35031W        W 7357  25.278  21.113   1.170
35032W        W 7358  32.746  21.641  14.496
35033W        W 7359  35.379  11.322  14.007
35034W        W 7360   9.855  23.606  14.764
35035W        W 7361  13.880  36.070  12.034
35036W        W 7362  26.272  22.584   1.223
35037W        W 7363  21.757  29.494   0.248
35038W        W 7364  12.230  18.242   2.845
35039W        W 7365  43.794   0.260  14.004
35040W        W 7366  32.450  34.971  14.940
35041W        W 7367   0.010  10.841  12.085
35042W        W 7368  19.061  26.320   0.925
35043W        W 7369  34.612  37.062  14.965
35044W        W 7370  33.262  12.938  13.964
35045W        W 7371  18.020  31.986   4.113
35046W        W 7372  43.928  36.866   1.380
35047W        W 7373  44.470  26.542   2.284
35048W        W 7374   1.746  23.847   4.721
35049W        W 7375   0.265  21.849   1.479
35050W        W 7376   0.233  13.184   0.380
35051W        W 7377  39.773  29.266   2.363
35052W        W 7378  42.984  10.804   3.264
35053W        W 7379  37.787   8.759  13.950
35054W        W 7380  10.460  15.154  13.886
35055W        W 7381  26.522  37.929   3.488
35056W        W 7382  11.648  34.199   3.655
35057W        W 7383   9.678  25.967   1.339
35058W        W 7384  29.115  43.424  12.088
35059W        W 7385  31.402   2.457  14.711
35060W        W 7386  25.555  30.886   4.847
35061W        W 7387  24.460  41.851   4.854
35062W        W 7388  29.215  29.521   0.808
35063W        W 7389  15.029  42.404   3.314
35064W        W 7390  33.585  11.308   1.302
35065W        W 7391  42.972  34.143   3.176
35066W        W 7392   0.310  27.123   1.643
35067W        W 7393  33.112  15.154  11.576
35068W        W 7394  24.400  19.742  14.819
35069W        W 7395  35.604  15.602  12.338
35070W        W 7396   8.094  28.264   4.161
35071W        W 7397  36.559  41.831   3.113
35072W        W 7398   1.497   1.498   3.409
35073W        W 7399  33.569  11.171   0.445
35074W        W 7400  14.021  20.276   2.315
35075W        W 7401  35.949  32.634   1.817
35076W        W 7402  16.167  12.769  11.828
35077W        W 7403  20.769  33.089   1.678
35078W        W 7404  39.423  26.111   4.219
35079W        W 7405  37.007  21.771   4.878
35080W        W 7406   7.330  41.565  14.088
35081W        W 7407   7.094  17.529  14.781
35082W        W 7408  41.951   9.261   4.904
35083W        W 7409  39.612   2.318   4.492
35084W        W 7410  19.991  16.668  13.965
35085W        W 7411  26.909  29.822  13.057
35086W        W 7412   3.203   9.849  12.441
35087W        W 7413  17.405  21.430   9.972
35088W        W 7414   0.626  39.524   4.118
35089W        W 7415  39.507  39.820   1.919
35090W        W 7416  31.125  20.654  14.397
35091W        W 7417  13.052  17.531  14.448
35092W        W 7418   5.714  37.533   1.797
35093W        W 7419   7.268  16.612  13.519
35094W        W 7420  43.427   9.104   1.258
35095W        W 7421  12.633   9.563  12.548
35096W        W 7422  39.886   6.237   0.486
35097W        W 7423   6.089  37.936  11.194
35098W        W 7424  33.836  23.266  13.159
35099W        W 7425  19.224  11.999   2.427
35100W        W 7426  23.372  42.000   0.293
35101W        W 7427  37.391  10.327   9.763
35102W        W 7428  28.869   9.331  10.681
35103W        W 7429  38.024  29.710   1.177
35104W        W 7430  21.287  35.107  14.430
35105W        W 7431  42.373  30.894  10.960
35106W        W 7432  15.071  25.687  14.870
35107W        W 7433  32.077   6.315  13.185
35108W        W 7434  14.271  37.919  14.903
35109W        W 7435  23.423   4.863   4.640
35110W        W 7436  32.489  28.406  14.045
35111W        W 7437   5.927  26.560   4.641
35112W        W 7438   8.329  37.669  14.360
35113W        W 7439  32.050  18.609  11.938
35114W        W 7440  24.608   3.270   1.828
35115W        W 7441  17.190  18.914   2.359
35116W        W 7442  28.936  26.936  11.923
35117W        W 7443  18.762  11.198   2.270
35118W        W 7444  20.337  16.042  10.901
35119W        W 7445  32.679   4.484   0.795
35120W        W 7446  17.798  40.941   3.302
35121W        W 7447  23.167  14.093  12.110
35122W        W 7448  38.517  22.458   0.733
35123W        W 7449  35.874  39.720   3.259
35124W        W 7450  25.365  31.342  13.463
35125W        W 7451   2.842  17.107   1.481
35126W        W 7452  15.782   9.632  13.542
35127W        W 7453  26.165  15.534  10.518
35128W        W 7454   9.094   8.728  12.499
35129W        W 7455   9.700  24.981   3.059
35130W        W 7456  29.595  29.930   2.771
35131W        W 7457   1.973  43.339   3.183
35132W        W 7458  14.107  41.848  13.358
35133W        W 7459  44.527  13.082  14.614
35134W        W 7460  34.970  38.785  13.392
35135W        W 7461  37.551  41.269  13.964
35136W        W 7462  10.307   7.173  14.235
35137W        W 7463  19.253   0.707  12.638
35138W        W 7464  32.880   0.748  12.586
35139W        W 7465  38.088   1.965  10.427
35140W        W 7466   9.605  24.960  10.691
35141W        W 7467   6.291  17.634  10.755
35142W        W 7468  40.666   2.144   4.488
35143W        W 7469  10.312  16.830  11.846
35144W        W 7470  13.674  29.478  11.332
35145W        W 7471  12.798  31.599   3.639
35146W        W 7472  14.648  32.538   4.176
35147W        W 7473  12.517  20.356   4.169
35148W        W 7474  37.927   1.951   3.820
35149W        W 7475  10.717   3.713   4.634
35150W        W 7476  28.865  26.168  13.900
35151W        W 7477  12.381   3.738   1.729
35152W        W 7478   1.872  37.953  14.305
35153W        W 7479  41.292  15.894   0.031
35154W        W 7480  25.066   9.800   4.566
35155W        W 7481   6.810  32.608   4.449
35156W        W 7482  37.379   8.648   5.020
35157W        W 7483  17.726  41.892  11.712
35158W        W 7484  25.256   9.804   3.197
35159W        W 7485  25.966   3.016  13.850
35160W        W 7486  39.558  36.376   3.821
35161W        W 7487  18.997   8.828   0.315
35162W        W 7488  13.614  23.464  11.163
35163W        W 7489   0.138  23.176  14.275
35164W        W 7490  11.592   3.821   0.057
35165W        W 7491  11.411  44.907  11.591
35166W        W 7492  40.547  40.324  13.330
35167W        W 7493  19.800  15.689  14.473
35168W        W 7494  34.338  43.551  12.573
35169W        W 7495  11.892   4.848  12.688
35170W        W 7496  38.173  13.200  10.203
35171W        W 7497  13.731  38.410  12.492
35172W        W 7498  34.406  30.690  10.811
35173W        W 7499  34.347  16.261  12.099
35174W        W 7500  35.039  23.483   4.902
35175W        W 7501   1.770  24.345   4.643
35176W        W 7502  34.823  26.464  12.441
35177W        W 7503  24.236  24.029  10.716
35178W        W 7504   6.177  30.042  12.249
35179W        W 7505   5.104  27.558   4.201
35180W        W 7506  13.390   3.403   0.416
35181W        W 7507  21.586  10.865  10.382
35182W        W 7508   9.239  29.002   4.229
35183W        W 7509  42.275  11.196  10.512
35184W        W 7510   1.493  33.027   4.593
35185W        W 7511  37.865  17.968   0.286
35186W        W 7512  30.265  12.603   0.564
35187W        W 7513  36.186  17.766   5.258
35188W        W 7514  37.013   3.695  11.158
35189W        W 7515  30.997  33.826  14.428
35190W        W 7516  43.449   2.411   3.240
35191W        W 7517  25.428  39.349  10.544
35192W        W 7518  38.760  34.522  12.429
35193W        W 7519  11.666  27.585  14.519
35194W        W 7520  35.552  12.833   0.942
35195W        W 7521   1.458  22.028   3.582
35196W        W 7522  14.687   0.270  13.844
35197W        W 7523  23.670  35.530   2.432
35198W        W 7524  27.999  24.639   0.060
35199W        W 7525  20.520  27.239  13.843
35200W        W 7526  28.265  29.722  12.650
35201W        W 7527  20.169   1.331  14.822
35202W        W 7528  17.079  33.456   4.922
35203W        W 7529  28.322  10.819   2.838
35204W        W 7530  39.469  17.213  14.329
35205W        W 7531  26.021   6.075  13.521
35206W        W 7532  19.084  19.200  14.487
35207W        W 7533  11.893  20.076   0.899
35208W        W 7534  39.585  30.172   2.348
35209W        W 7535  31.400  24.730   3.313
35210W        W 7536   2.237  26.106  10.617
35211W        W 7537  26.306  41.154  13.801
35212W        W 7538  43.916   6.873   1.657
35213W        W 7539  44.491   6.784   0.784
35214W        W 7540  30.675  23.634   1.918
35215W        W 7541  36.073   1.343   3.102
35216W        W 7542  11.886   5.772   1.944
35217W        W 7543   0.733  29.665  14.354
35218W        W 7544  43.021   5.509  11.952
35219W        W 7545  15.195  40.319  14.270
35220W        W 7546  11.315   8.694  13.496
35221W        W 7547   6.265  30.077  13.247
35222W        W 7548  11.821  14.342   4.144
35223W        W 7549  43.744  16.675   1.643
35224W        W 7550  17.879  33.624   1.156
35225W        W 7551  11.175  33.369   4.204
35226W        W 7552   1.596  39.042   3.921
35227W        W 7553  22.358  39.870   1.241
35228W        W 7554  28.141   8.407  11.233
35229W        W 7555  13.666  39.983   1.717
35230W        W 7556  32.872  28.211   2.051
35231W        W 7557  29.170  15.986  12.544
35232W        W 7558  15.760  28.204   3.743
35233W        W 7559  13.054   9.419   4.475
35234W        W 7560   3.559   5.153  11.165
35235W        W 7561   9.409  19.793   2.840
35236W        W 7562   3.322   9.371  13.817
35237W        W 7563  14.633  10.090  14.909
35238W        W 7564  19.245  35.318  12.561
35239W        W 7565  44.437   3.711   0.781
35240W        W 7566  41.322  38.607  13.550
35241W        W 7567  26.686  36.908  11.031
35242W        W 7568  22.123  43.052  13.037
35243W        W 7569  34.826  21.071  10.637
35244W        W 7570  10.204  23.273  11.063
35245W        W 7571   2.433   3.178   1.757
35246W        W 7572   4.635  25.597   4.575
35247W        W 7573   3.864  19.778   2.364
35248W        W 7574  11.729  18.284   0.641
35249W        W 7575   6.543  43.039   0.435
35250W        W 7576  42.829  31.694   4.361
35251W        W 7577  28.506  40.242   5.195
35252W        W 7578  41.641  25.007   4.060
35253W        W 7579  44.248  28.590   4.060
35254W        W 7580  18.086  39.833  12.946
35255W        W 7581  22.171  26.506   3.842
35256W        W 7582  10.608  19.033  11.566
35257W        W 7583   1.965  21.218   3.736
35258W        W 7584  30.208  27.440   0.692
35259W        W 7585  11.621   1.958  13.222
35260W        W 7586  32.513  31.347  13.987
35261W        W 7587  24.126  24.508   1.911
35262W        W 7588   4.703   6.886   5.068
35263W        W 7589   2.775  20.246  10.739
35264W        W 7590   0.754  41.846   1.845
35265W        W 7591  44.832  26.064   2.419
35266W        W 7592  14.563  27.505   4.913
35267W        W 7593  14.033  12.343  13.921
35268W        W 7594   5.757  44.146   3.309
35269W        W 7595  37.640  25.118   1.551
35270W        W 7596  37.082  38.370   3.604
35271W        W 7597  17.190  19.446   2.293
35272W        W 7598  23.509   7.172   2.985
35273W        W 7599  25.569  36.089   4.601
35274W        W 7600   4.814   6.703  14.346
35275W        W 7601  12.280  40.235   2.243
35276W        W 7602  37.088  42.415   0.385
35277W        W 7603  24.271   4.443  14.798
35278W        W 7604  33.839  26.789  12.584
35279W        W 7605  22.961   9.867  11.768
35280W        W 7606   3.450  29.007  11.535
35281W        W 7607  13.888   9.144   0.893
35282W        W 7608  44.454   4.929   1.305
35283W        W 7609  25.097  36.197   1.276
35284W        W 7610   2.475  33.912   4.859
35285W        W 7611   9.229  26.947   4.864
35286W        W 7612  19.192   1.846   1.720
35287W        W 7613  44.510   1.400   0.795
35288W        W 7614  28.119  39.431  10.897
35289W        W 7615  38.926  14.250  10.189
35290W        W 7616   1.562   7.864   3.179
35291W        W 7617  25.025   4.019  14.788
35292W        W 7618  25.281   2.872   0.326
35293W        W 7619   3.458   4.897  14.048
35294W        W 7620  34.556   3.863   2.215
35295W        W 7621  32.334  23.036   4.716
35296W        W 7622  13.426  27.590   4.198
35297W        W 7623   7.858  14.059   3.745
35298W        W 7624  16.271  11.575   3.274
35299W        W 7625  29.277  28.616   0.389
35300W        W 7626  21.007  19.736  13.417
35301W        W 7627  40.007  40.026  12.940
35302W        W 7628   8.142  36.036   0.115
35303W        W 7629   8.165  33.062   3.859
35304W        W 7630  24.595   8.523  14.857
35305W        W 7631  26.234  33.368  14.336
35306W        W 7632  20.542  35.628   4.208
35307W        W 7633  37.550  38.156   3.411
35308W        W 7634  16.207  11.415   4.618
35309W        W 7635  29.538   4.960  12.049
35310W        W 7636  40.118  22.773   0.867
35311W        W 7637  25.207   5.133  14.335
35312W        W 7638  14.264  40.909  14.993
35313W        W 7639  30.192   7.872   3.896
35314W        W 7640  14.117  14.309   2.370
35315W        W 7641  32.559  44.109  13.992
35316W        W 7642  11.159   1.462  10.757
35317W        W 7643  34.394  21.371  10.707
35318W        W 7644  20.119  41.784   4.552
35319W        W 7645   5.517  36.606  11.027
35320W        W 7646   4.037  19.257  14.323
35321W        W 7647  20.204  12.904   4.312
35322W        W 7648   4.422  21.591  10.615
35323W        W 7649  20.277  42.386   2.183
35324W        W 7650  43.787  21.561  10.423
35325W        W 7651  28.085   7.090   4.620
35326W        W 7652  44.357  32.409   2.874
35327W        W 7653  19.677   7.404  10.655
35328W        W 7654  23.038  29.127  13.126
35329W        W 7655  16.614  21.475  11.111
35330W        W 7656  43.900  40.806  14.942
35331W        W 7657  35.862  24.238   2.171
35332W        W 7658   2.731  16.346   2.586
35333W        W 7659  14.167  39.250   5.042
35334W        W 7660   0.196  43.253   2.621
35335W        W 7661  21.995   3.694  11.729
35336W        W 7662   1.230  17.573  10.964
35337W        W 7663  41.193  17.220   0.666
35338W        W 7664  28.001   3.722   4.143
35339W        W 7665  13.711   3.691   3.244
35340W        W 7666  20.708  29.578   1.326
35341W        W 7667  44.060   3.375   1.326
35342W        W 7668  41.453   7.327   2.214
35343W        W 7669  17.197  18.319   1.423
35344W        W 7670  30.148  25.651   3.821
35345W        W 7671   2.008  20.496   4.209
35346W        W 7672  41.620   6.594   2.902
35347W        W 7673  23.093   6.307  14.231
35348W        W 7674  42.976  24.220   2.257
35349W        W 7675  16.254  36.489  12.442
35350W        W 7676  38.994   0.404  12.125
35351W        W 7677  27.470  37.572   0.958
35352W        W 7678  17.036  36.985  12.822
35353W        W 7679  24.628   7.762   2.619
35354W        W 7680  13.531  24.121   4.303
35355W        W 7681  33.506  23.542   0.510
35356W        W 7682  11.132   1.807  13.108
35357W        W 7683   7.716  12.234  13.828
35358W        W 7684  33.353  12.126  13.808
35359W        W 7685   6.235  43.392  11.976
35360W        W 7686  41.976  27.617  13.859
35361W        W 7687  20.324  43.838   3.066
35362W        W 7688  38.845  20.600  12.601
35363W        W 7689  29.907  18.425  14.361
35364W        W 7690  12.488   2.354   2.854
35365W        W 7691  32.998  29.564   2.819
35366W        W 7692  14.136   2.872   1.873
35367W        W 7693  20.266  40.528  11.125
35368W        W 7694  11.797  13.542   2.780
35369W        W 7695  24.374  22.940   1.748
35370W        W 7696  33.943   6.843  14.593
35371W        W 7697   0.082   9.089   3.389
35372W        W 7698  32.174  40.026   4.844
35373W        W 7699  41.190  18.835   3.628
35374W        W 7700  43.413  21.541   4.390
35375W        W 7701  18.228   2.806   1.328
35376W        W 7702  24.076  42.563  10.958
35377W        W 7703   8.427  30.195  13.447
35378W        W 7704  42.076  38.851  11.118
35379W        W 7705  17.985  14.534   3.902
35380W        W 7706   1.858  37.130   0.426
35381W        W 7707  16.288   3.333  10.721
35382W        W 7708  33.635   8.417   1.311
35383W        W 7709  35.325  15.711   4.211
35384W        W 7710  27.061  26.932  10.289
35385W        W 7711  36.925  38.712  11.614
35386W        W 7712  39.808  31.080   4.567
35387W        W 7713  34.365  33.534   0.820
35388W        W 7714  40.220   1.752  11.144
35389W        W 7715  31.805  14.051  13.386
35390W        W 7716  43.287  42.174  10.768
35391W        W 7717  44.203   6.915  11.593
35392W        W 7718  35.781  43.838  14.889
35393W        W 7719  32.442  30.900   1.649
35394W        W 7720   9.316  11.800  10.924
35395W        W 7721  11.702  23.882  13.574
35396W        W 7722  14.605  22.449  14.270
35397W        W 7723  42.938  11.701  14.866
35398W        W 7724  30.129   1.923   0.628
35399W        W 7725   8.740  11.373   4.611
35400W        W 7726  38.410  24.944  11.603
35401W        W 7727  14.715  25.643   2.694
35402W        W 7728   4.468  39.061  10.692
35403W        W 7729  24.989  28.953  13.110
35404W        W 7730  28.138   7.323   1.255
35405W        W 7731  38.363  21.142   2.965
35406W        W 7732  31.847  26.169   4.085
35407W        W 7733   4.731  28.413   2.357
35408W        W 7734  32.609  23.979   3.092
35409W        W 7735  22.002  10.342   4.776
35410W        W 7736  10.496   0.411  10.664
35411W        W 7737  36.020  32.117  12.037
35412W        W 7738   5.329   6.256   4.161
35413W        W 7739  16.892  14.066   0.180
35414W        W 7740   9.678  33.562  13.346
35415W        W 7741  22.643  15.363   3.517
35416W        W 7742   3.763  23.195   1.342
35417W        W 7743   5.850   9.753  13.532
35418W        W 7744  18.274  31.664  14.493
35419W        W 7745  40.186  26.546   1.248
35420W        W 7746  43.036   5.168   1.365
35421W        W 7747  21.006   5.864   0.448
35422W        W 7748   2.606  26.587   0.426
35423W        W 7749  11.172   0.220  13.003
35424W        W 7750  16.008  12.199  14.826
35425W        W 7751  13.198  32.969   2.874
35426W        W 7752  43.776  30.658  14.293
35427W        W 7753  11.576   9.388  13.489
35428W        W 7754  11.310  41.514   2.889
35429W        W 7755  14.812  21.744  12.959
35430W        W 7756  34.164   9.617  12.221
35431W        W 7757  38.565   3.234   5.080
35432W        W 7758   1.743  14.373  11.989
35433W        W 7759  40.450  31.549  14.953
35434W        W 7760  43.523  15.077  10.599
35435W        W 7761  11.265  43.512   1.205
35436W        W 7762  17.469  38.764   3.613
35437W        W 7763  15.079   7.176   1.812
35438W        W 7764  14.461  10.878  12.604
35439W        W 7765  30.757   4.839  11.609
35440W        W 7766   8.322  12.174   0.972
35441W        W 7767  43.213   3.259  11.077
35442W        W 7768  34.721  33.854   0.650
35443W        W 7769   2.464  18.412  13.875
35444W        W 7770  39.453  35.386   0.940
35445W        W 7771  14.195  39.071   1.390
35446W        W 7772  22.763  14.001  12.427
35447W        W 7773  37.469  37.659  12.039
35448W        W 7774  33.777  24.551  14.984
35449W        W 7775  32.587  10.964   1.364
35450W        W 7776  26.402  28.535  14.318
35451W        W 7777  31.716  30.580   3.932
35452W        W 7778   8.739  42.032  14.160
35453W        W 7779  41.643  22.903   0.295
35454W        W 7780  40.519  11.345  14.343
35455W        W 7781  14.879  32.479  14.064
35456W        W 7782  25.443  37.363   0.896
35457W        W 7783  33.652  26.228   0.143
35458W        W 7784  22.679  28.242  14.188
35459W        W 7785  25.093  30.950   0.897
35460W        W 7786  33.524  20.363   1.078
35461W        W 7787   4.943  29.313  14.367
35462W        W 7788  38.906  31.093  12.746
35463W        W 7789  26.805  29.866   1.636
35464W        W 7790  15.105  22.347   0.365
35465W        W 7791  10.171  29.223  12.852
35466W        W 7792  13.926   5.921   3.257
35467W        W 7793   1.556   3.844   2.368
35468W        W 7794   9.803   5.378   3.062
35469W        W 7795   8.972  13.631   3.066
35470W        W 7796   2.203   8.443  11.922
35471W        W 7797  39.966   2.385  13.863
35472W        W 7798  37.966  19.858  10.476
35473W        W 7799  22.076  36.356   0.300
35474W        W 7800   5.513  37.001   2.874
35475W        W 7801  17.415  23.957  12.395
35476W        W 7802  37.004  25.669  11.728
35477W        W 7803  11.813   1.695   3.322
35478W        W 7804  38.827  28.510   3.687
35479W        W 7805  13.048  23.227   0.526
35480W        W 7806  40.130   2.844  12.908
35481W        W 7807  29.193   3.223  12.564
35482W        W 7808   9.229  14.120  14.874
35483W        W 7809  41.720  14.598   0.370
35484W        W 7810  28.527   8.873  13.105
35485W        W 7811  20.809  17.994  12.936
35486W        W 7812   4.359  38.519  10.672
35487W        W 7813  44.083  12.343   4.514
35488W        W 7814  18.575   5.185   4.078
35489W        W 7815  37.660  14.718  12.527
35490W        W 7816  31.493  35.332  14.824
35491W        W 7817  25.039  34.330   0.397
35492W        W 7818  19.885  31.889  11.538
35493W        W 7819  39.960  36.665   4.532
35494W        W 7820  38.584  31.400  13.012
35495W        W 7821  33.685  41.268   5.044
35496W        W 7822  38.686  13.890  13.956
35497W        W 7823   8.466  14.356  11.872
35498W        W 7824  36.335  37.445   0.752
35499W        W 7825  22.502   7.174   3.440
35500W        W 7826  27.939  10.452   4.259
35501W        W 7827  40.604  37.567  12.147
35502W        W 7828  41.973  44.581  14.895
35503W        W 7829  32.499  30.020   2.223
35504W        W 7830  13.380  23.091   2.054
35505W        W 7831  34.184  43.502   2.365
35506W        W 7832  34.853  30.999   0.376
35507W        W 7833   3.433   7.492  12.991
35508W        W 7834  11.681  27.577  10.653
35509W        W 7835  39.316  14.757  10.806
35510W        W 7836  26.436  14.394  11.656
35511W        W 7837  32.393  13.841   1.388
35512W        W 7838  28.602   3.009   3.596
35513W        W 7839  17.833  20.774  12.491
35514W        W 7840  36.131  27.508  10.655
35515W        W 7841  18.034  11.327  13.725
35516W        W 7842  30.043   3.387   2.688
35517W        W 7843  16.634  44.346  10.269
35518W        W 7844   6.276  41.712  11.109
35519W        W 7845  14.894  44.224   0.716
35520W        W 7846   1.804  32.946  10.445
35521W        W 7847   8.191  33.991   0.910
35522W        W 7848  36.570  30.242   4.432
35523W        W 7849  38.979  16.128  10.922
35524W        W 7850   2.168  44.543  11.116
35525W        W 7851  10.299  40.928  13.081
35526W        W 7852  20.696  12.144   2.684
35527W        W 7853  22.553   0.890  14.711
35528W        W 7854  14.595  23.830  13.264
35529W        W 7855  43.376  11.164  11.284
35530W        W 7856   0.470   5.238   3.258
35531W        W 7857  41.888  40.833   3.948
35532W        W 7858   8.365   6.853   2.088
35533W        W 7859  16.633   9.568  12.904
35534W        W 7860  22.715   5.409   2.226
35535W        W 7861  11.787  34.630   0.292
35536W        W 7862   5.752  32.397   3.626
35537W        W 7863  39.557  43.696  12.902
35538W        W 7864  17.274  34.015  12.067
35539W        W 7865  18.906  43.022   2.427
35540W        W 7866  28.473  41.492   3.961
35541W        W 7867   0.801  21.414  12.394
35542W        W 7868  22.312  25.977   0.779
35543W        W 7869  26.466  38.952   0.122
35544W        W 7870   7.235  15.311   4.065
35545W        W 7871  18.708  12.069  13.044
35546W        W 7872  38.596  35.487   3.109
35547W        W 7873  21.485  10.308  13.041
35548W        W 7874   4.868  30.770  12.332
35549W        W 7875  44.835  24.456  11.208
35550W        W 7876  29.940   4.721  14.307
35551W        W 7877  36.058  31.923  11.556
35552W        W 7878  14.432  32.555   1.662
35553W        W 7879   2.462   1.783   2.602
35554W        W 7880  30.592   8.240  11.534
35555W        W 7881  27.159  42.915   0.055
35556W        W 7882  24.174  11.221  11.007
35557W        W 7883  25.613  27.021  13.088
35558W        W 7884  24.137  26.162  12.811
35559W        W 7885   1.648  32.892  12.331
35560W        W 7886  43.220  19.313   4.660
35561W        W 7887  19.659  41.280   3.579
35562W        W 7888  43.374  24.539   2.095
35563W        W 7889  32.171  35.241  10.519
35564W        W 7890  42.369  18.716  12.068
35565W        W 7891  20.616   6.920  11.057
35566W        W 7892  35.398  26.295  13.530
35567W        W 7893   9.130   4.246  14.353
35568W        W 7894  24.171  18.177   5.225
35569W        W 7895  30.689  21.048   0.788
35570W        W 7896  29.755   9.140   2.921
35571W        W 7897  20.672  12.829  10.520
35572W        W 7898  22.649   6.378   4.594
35573W        W 7899  39.903  14.766   2.424
35574W        W 7900   8.584   5.189  12.889
35575W        W 7901   0.892  21.283  11.132
35576W        W 7902   7.097   1.792  14.350
35577W        W 7903  33.904  27.132   0.501
35578W        W 7904  38.619  16.737   1.377
35579W        W 7905  18.956  19.684  11.640
35580W        W 7906   1.432  44.735  14.532
35581W        W 7907  29.913   7.705   1.764
35582W        W 7908  13.632  38.138  10.696
35583W        W 7909  40.227  10.476  12.499
35584W        W 7910   7.303  15.399  11.993
35585W        W 7911  24.129   0.881  14.877
35586W        W 7912  38.270  27.879  13.831
35587W        W 7913  26.505  20.241   1.761
35588W        W 7914  33.437  14.070  14.789
35589W        W 7915   6.719  19.501  14.289
35590W        W 7916  44.566  36.610  12.439
35591W        W 7917  11.250  30.446  14.470
35592W        W 7918   5.332  16.622   1.841
35593W        W 7919  13.263  42.332   4.063
35594W        W 7920   7.928  37.904  14.742
35595W        W 7921  11.281  39.652   3.163
35596W        W 7922  37.596  43.777   2.110
35597W        W 7923   6.370  33.664  11.543
35598W        W 7924  40.994  12.952   1.902
35599W        W 7925  14.413   5.799   0.591
35600W        W 7926   8.207  34.292  12.593
35601W        W 7927  25.754  34.520   1.349
35602W        W 7928   0.863  34.473  13.684
35603W        W 7929  37.037  39.337   4.581
35604W        W 7930  20.613   0.351  11.140
35605W        W 7931  40.996  29.013   0.258
35606W        W 7932  20.927   1.230   1.001
35607W        W 7933  38.370  28.571  12.500
35608W        W 7934  14.521  16.980   3.234
35609W        W 7935  36.439  42.690   4.824
35610W        W 7936  31.700   2.074   2.843
35611W        W 7937  37.896  13.626  10.171
35612W        W 7938  20.483  35.569   1.852
35613W        W 7939  21.836   3.307  14.037
35614W        W 7940  25.073   5.989  11.954
35615W        W 7941  27.361  36.000   4.578
35616W        W 7942   0.032  20.961   2.819
35617W        W 7943  19.509  18.727   2.913
35618W        W 7944  16.995   7.373  10.367
35619W        W 7945  39.175   3.375   4.293
35620W        W 7946  35.939   7.600   0.440
35621W        W 7947  41.902   4.273  13.758
35622W        W 7948  14.218  33.918  14.320
35623W        W 7949  39.427  15.713   1.865
35624W        W 7950   1.396  31.384  12.972
35625W        W 7951  25.429  38.297  11.682
35626W        W 7952   6.752  31.733   2.814
35627W        W 7953   0.963   1.462  12.943
35628W        W 7954  43.463  21.528  11.040
35629W        W 7955   1.934  40.875  11.770
35630W        W 7956  42.362  27.479  10.891
35631W        W 7957  31.193   6.352   0.362
35632W        W 7958  25.929  12.150  10.991
35633W        W 7959  26.423  14.288  13.003
35634W        W 7960  26.694   7.671  13.125
35635W        W 7961   2.438  13.108  12.111
35636W        W 7962   4.718  16.013  11.382
35637W        W 7963   7.307   2.782   1.298
35638W        W 7964  20.577  39.014  11.544
35639W        W 7965   4.288  29.227   2.309
35640W        W 7966  43.485  41.285  11.509
35641W        W 7967  28.167  10.103   3.405
35642W        W 7968  16.250  44.317   2.357
35643W        W 7969  20.992  43.256   3.230
35644W        W 7970  13.723  21.605  11.128
35645W        W 7971  29.538  31.932   4.076
35646W        W 7972   4.283   8.833   2.097
35647W        W 7973  43.676  41.640  11.186
35648W        W 7974  30.647  33.394  12.477
35649W        W 7975  39.124   2.738  14.214
35650W        W 7976  20.066  16.894  13.037
35651W        W 7977  21.624  33.061   4.325
35652W        W 7978  22.022   1.636   3.276
35653W        W 7979  12.354  25.125  12.926
35654W        W 7980  38.112  23.178  11.570
35655W        W 7981  16.577  40.818  11.208
35656W        W 7982  14.723   7.392   0.591
35657W        W 7983   7.198  41.309   2.844
35658W        W 7984  17.281   9.808   3.831
35659W        W 7985  34.461  43.930  11.169
35660W        W 7986  29.198   7.790  10.633
35661W        W 7987  42.113  17.070   3.159
35662W        W 7988  29.921  38.541   0.894
35663W        W 7989  10.410   3.289   4.644
35664W        W 7990   5.159   9.236  14.081
35665W        W 7991  29.578   3.979  13.438
35666W        W 7992  43.950  36.374   1.782
35667W        W 7993  17.961  21.040   0.752
35668W        W 7994  28.177  36.984  13.335
35669W        W 7995  14.878  17.802  12.212
35670W        W 7996   6.700  41.369   4.582
35671W        W 7997   7.566   6.426   1.196
35672W        W 7998  35.740  27.472  10.967
35673W        W 7999  12.731  39.785  12.539
35674W        W 8000  15.603   3.324   3.642
35675W        W 8001  27.622  28.198   0.664
35676W        W 8002   9.662  17.438   1.897
35677W        W 8003  30.033  39.852  14.513
35678W        W 8004  38.946  26.976   4.171
35679W        W 8005  27.426  29.155   3.232
35680W        W 8006  36.820  22.825   0.562
35681W        W 8007  20.630  28.428   2.277
35682W        W 8008  17.927  41.405  12.707
35683W        W 8009  23.761  21.747   0.780
35684W        W 8010  29.717  35.488  11.001
35685W        W 8011  12.147   2.172   1.331
35686W        W 8012  41.868  21.609   0.182
35687W        W 8013  23.007  18.425  11.184
35688W        W 8014  38.394  29.185  13.392
35689W        W 8015  20.585  43.482   4.782
35690W        W 8016  10.370  17.753   4.291
35691W        W 8017   9.774  33.257  12.330
35692W        W 8018  25.295  28.554  13.865
35693W        W 8019  13.280  35.481  14.225
35694W        W 8020  34.376  43.964  14.144
35695W        W 8021  34.022  10.639  10.401
35696W        W 8022  23.481  38.359  12.076
35697W        W 8023  41.236  14.632   1.233
35698W        W 8024  20.774  35.423   3.224
35699W        W 8025  30.159  21.632   2.405
35700W        W 8026   2.251  21.795  13.472
35701W        W 8027   5.808  36.673   1.255
35702W        W 8028  18.121   2.200  13.919
35703W        W 8029  32.057  30.562   2.337
35704W        W 8030  11.172  12.860   2.797
35705W        W 8031  39.570  14.047   2.468
35706W        W 8032  37.091  32.456  12.849
35707W        W 8033  41.820  40.760  12.079
35708W        W 8034   2.238   4.608  12.375
35709W        W 8035   8.233   2.289   1.305
35710W        W 8036  40.399   4.849  12.852
35711W        W 8037  26.074  35.853  13.865
35712W        W 8038  17.706  31.977  13.395
35713W        W 8039  40.994  35.643   0.500
35714W        W 8040  42.080  22.527   1.908
35715W        W 8041  13.773  27.937  13.213
35716W        W 8042  29.656   5.279   2.194
35717W        W 8043  41.022  36.886   0.735
35718W        W 8044  38.161  35.423  13.306
35719W        W 8045  25.739  35.648   3.290
35720W        W 8046  42.132  11.295   4.483
35721W        W 8047  12.106  17.193   2.995
35722W        W 8048  22.898  15.364  14.736
35723W        W 8049   4.960  11.247  14.456
35724W        W 8050  24.207  39.031   2.710
35725W        W 8051  28.513  11.944  14.617
35726W        W 8052  16.750  21.438   1.165
35727W        W 8053  36.070  32.855  11.457
35728W        W 8054  12.404  12.645   0.367
35729W        W 8055  30.455  26.431  11.938
35730W        W 8056  20.267  23.513   2.690
35731W        W 8057  34.369   7.461   1.442
35732W        W 8058  34.322  25.129  11.594
35733W        W 8059   5.406  21.229   4.936
35734W        W 8060  27.068  23.803   1.216
35735W        W 8061  33.260  40.237  14.850
35736W        W 8062  26.463  10.924  11.065
35737W        W 8063  11.767  40.250   2.366
35738W        W 8064  10.747  23.168   2.514
35739W        W 8065  42.970  16.703  14.313
35740W        W 8066   3.378  15.761   2.381
35741W        W 8067  29.886  16.826  13.540
35742W        W 8068  13.830   5.113   4.579
35743W        W 8069   4.326  29.693   4.074
35744W        W 8070  27.645  41.614  13.819
35745W        W 8071  26.912  18.123   3.848
35746W        W 8072   2.224  38.362  13.559
35747W        W 8073  43.265   2.849  11.817
35748W        W 8074  10.634  23.668  11.522
35749W        W 8075   4.338  27.660  12.546
35750W        W 8076  40.287  34.625   0.429
35751W        W 8077  44.735  41.983   2.825
35752W        W 8078  26.624   6.342  13.918
35753W        W 8079   1.780   3.491  13.846
35754W        W 8080  19.977  37.574   3.806
35755W        W 8081   2.987  13.268  12.995
35756W        W 8082  28.501  23.152   3.148
35757W        W 8083   6.730   3.986   3.377
35758W        W 8084  26.562  11.607  13.751
35759W        W 8085  16.785  32.040   1.701
35760W        W 8086   7.476  37.547   2.383
35761W        W 8087   6.409  40.936  11.580
35762W        W 8088  44.482  14.846   2.102
35763W        W 8089   6.271  27.804   5.025
35764W        W 8090  18.499  32.151  13.372
35765W        W 8091   9.415  23.189   2.675
35766W        W 8092  44.119  30.388  12.173
35767W        W 8093  40.018  44.462  12.066
35768W        W 8094   1.245  32.616   3.878
35769W        W 8095  43.078  15.518   3.741
35770W        W 8096  29.742  25.017   4.318
35771W        W 8097  16.647   2.009  10.752
35772W        W 8098  34.564  37.911  14.397
35773W        W 8099  21.598  29.041   0.447
35774W        W 8100  14.140  36.911  14.923
35775W        W 8101  13.677  32.405  12.893
35776W        W 8102   5.554  32.502   0.254
35777W        W 8103  35.014  24.504  13.416
35778W        W 8104  21.522  30.590   0.528
35779W        W 8105  23.512  22.195  11.451
35780W        W 8106  38.140  37.757   0.368
35781W        W 8107   6.394   9.140   4.916
35782W        W 8108  12.701  26.879   5.004
35783W        W 8109  14.383   3.953  14.380
35784W        W 8110  42.473   4.209  13.039
35785W        W 8111  33.546  10.626  12.852
35786W        W 8112   2.517  36.712   2.674
35787W        W 8113  34.537  37.400   0.366
35788W        W 8114  39.558  28.314  14.715
35789W        W 8115  35.340   4.261   2.748
35790W        W 8116  42.375  15.740   3.149
35791W        W 8117   5.841  21.309   4.173
35792W        W 8118   5.361   0.462   3.145
35793W        W 8119   2.869  40.102  12.438
35794W        W 8120   0.209  20.450  11.963
35795W        W 8121  13.618  22.122  13.634
35796W        W 8122  27.952  41.094   3.186
35797W        W 8123  42.860  34.565  11.056
35798W        W 8124   0.504  16.197   4.627
35799W        W 8125   2.712  40.766   0.774
35800W        W 8126   3.180  31.612  12.233
35801W        W 8127  10.643  35.023   2.651
35802W        W 8128  36.275  27.008  11.393
35803W        W 8129  31.302  10.422  14.754
35804W        W 8130  12.467  36.693  14.967
35805W        W 8131  25.511  10.847   4.368
35806W        W 8132  36.884  32.518   4.696
35807W        W 8133  13.211  39.850   1.933
35808W        W 8134  20.007  15.961   4.586
35809W        W 8135   4.360  40.572   0.294
35810W        W 8136  18.776   6.605  13.412
35811W        W 8137   4.903  16.016   1.211
35812W        W 8138   1.513  22.119  14.913
35813W        W 8139   7.972  30.411   9.901
35814W        W 8140  37.972  35.464   2.251
35815W        W 8141  18.576  25.174  14.502
35816W        W 8142  33.525  23.792   0.978
35817W        W 8143  18.691  34.430  10.064
35818W        W 8144  37.826  30.607  12.036
35819W        W 8145  17.541  18.536   3.641
35820W        W 8146   7.266  14.048  12.517
35821W        W 8147  27.027   1.797   0.242
35822W        W 8148  22.989   0.334   3.222
35823W        W 8149  31.125  24.740   3.742
35824W        W 8150  14.173  31.103   0.760
35825W        W 8151  32.925  30.492  13.435
35826W        W 8152  15.256   7.525   4.617
35827W        W 8153  27.656   6.743   0.777
35828W        W 8154  11.846  35.861  12.862
35829W        W 8155  12.349  30.504   2.602
35830W        W 8156  28.024  28.554  11.991
35831W        W 8157  25.092  26.616  14.787
35832W        W 8158  21.073  21.951  14.285
35833W        W 8159  14.558  15.879   1.273
35834W        W 8160   9.645  30.216   2.851
35835W        W 8161  41.348  11.379  11.841
35836W        W 8162  41.436   4.977  12.986
35837W        W 8163  40.208  15.827  12.884
35838W        W 8164  10.725  44.253  14.866
35839W        W 8165  28.108   9.040  11.024
35840W        W 8166  44.365   9.909   3.701
35841W        W 8167  14.778   4.383  12.853
35842W        W 8168  28.584  31.860  11.041
35843W        W 8169  33.157  32.165  14.263
35844W        W 8170  22.011   9.891   3.994
35845W        W 8171  30.562  11.134   4.078
35846W        W 8172  28.453   1.717  12.916
35847W        W 8173  17.014  34.165   3.981
35848W        W 8174  42.981  37.122   2.141
35849W        W 8175  16.806  25.781  13.407
35850W        W 8176  25.168  30.090   2.592
35851W        W 8177   2.501  23.676   3.137
35852W        W 8178  21.302  10.719  11.456
35853W        W 8179  10.692   4.254   4.648
35854W        W 8180  32.599   6.124  12.372
35855W        W 8181   5.359   0.988   0.012
35856W        W 8182  23.673  37.047   3.730
35857W        W 8183  32.897  18.252  13.726
35858W        W 8184   5.133  40.291   9.916
35859W        W 8185   4.711  40.964  10.679
35860W        W 8186  42.745  18.096  10.442
35861W        W 8187  39.840  28.175  11.689
35862W        W 8188  15.016   1.969   2.201
35863W        W 8189   0.624   1.305  13.295
35864W        W 8190  26.228  21.681   0.342
35865W        W 8191  12.596   6.405  11.486
35866W        W 8192   2.171  42.733  14.746
35867W        W 8193  11.100   9.936  11.024
35868W        W 8194   2.752  32.973   0.526
35869W        W 8195  11.286   0.740  13.678
35870W        W 8196  23.627  20.240  14.901
35871W        W 8197   2.374  33.396  12.115
35872W        W 8198   2.601   8.224  12.995
35873W        W 8199  42.728  26.497   4.130
35874W        W 8200  43.262  44.253  10.748
35875W        W 8201  36.560  21.139  10.672
35876W        W 8202  10.411  25.721   0.994
35877W        W 8203   3.225  16.120   1.780
35878W        W 8204  16.002  17.796  13.939
35879W        W 8205  24.347  44.956  11.132
35880W        W 8206  33.990  32.764   4.158
35881W        W 8207   7.916  23.026  10.825
35882W        W 8208  34.612  21.127   3.500
35883W        W 8209  28.376  21.257   2.374
35884W        W 8210  20.474  10.702  11.222
35885W        W 8211  11.352  26.659   0.738
35886W        W 8212  25.700   4.626   4.967
35887W        W 8213   0.065  10.232  10.739
35888W        W 8214  35.927   8.110   4.069
35889W        W 8215  29.700  41.983  12.057
35890W        W 8216  22.162  15.043  14.422
35891W        W 8217  10.315  35.551  13.088
35892W        W 8218  40.859  24.197   4.610
35893W        W 8219  13.804   4.269  10.603
35894W        W 8220  40.658  19.966   0.434
35895W        W 8221  43.297   6.379   3.185
35896W        W 8222  23.070   4.665  11.131
35897W        W 8223   8.102   6.510  14.389
35898W        W 8224  41.287  10.020   0.535
35899W        W 8225  12.324   2.674   1.362
35900W        W 8226  34.956  14.300  10.958
35901W        W 8227  25.806   1.393   0.385
35902W        W 8228  12.280  14.525   1.967
35903W        W 8229   9.163  12.661   2.191
35904W        W 8230  21.119  19.372   4.424
35905W        W 8231  11.392  43.096  14.453
35906W        W 8232  22.930  27.090  14.033
35907W        W 8233  31.433  28.444  12.562
35908W        W 8234  21.996  11.167   4.840
35909W        W 8235   3.372  11.026  12.060
35910W        W 8236  15.246  36.150   3.270
35911W        W 8237  37.894  17.994  12.958
35912W        W 8238  14.265   7.791  11.992
35913W        W 8239  32.146  13.273   2.737
35914W        W 8240  36.798  41.773  13.992
35915W        W 8241  18.164  41.123  10.495
35916W        W 8242  21.709  31.620   1.652
35917W        W 8243  17.760  44.992   4.158
35918W        W 8244  27.718  26.647  12.854
35919W        W 8245  23.196  12.074   3.199
35920W        W 8246  10.332  31.960   1.060
35921W        W 8247   3.050  10.706  14.417
35922W        W 8248  30.573  13.277  14.998
35923W        W 8249   2.718   5.178   4.866
35924W        W 8250   7.229  25.174   4.495
35925W        W 8251  30.231   9.114  12.082
35926W        W 8252  17.740  31.154   0.885
35927W        W 8253  43.320  15.447   2.777
35928W        W 8254  11.323  42.840  10.378
35929W        W 8255  26.053   6.863  11.559
35930W        W 8256  44.174  43.398  11.466
35931W        W 8257  43.468  17.185  13.531
35932W        W 8258   0.725  41.214   1.007
35933W        W 8259  16.706  26.772  13.067
35934W        W 8260   2.771  35.468   4.295
35935W        W 8261   7.331  10.288  13.719
35936W        W 8262  43.035   1.903  11.216
35937W        W 8263  22.292  44.398  11.037
35938W        W 8264  37.918   0.925   4.389
35939W        W 8265  11.126  23.644  12.847
35940W        W 8266   6.611  15.050   0.315
35941W        W 8267  30.107  11.277   2.927
35942W        W 8268  16.426  18.817   1.938
35943W        W 8269   8.779  42.884   2.574
35944W        W 8270  42.015  26.831   3.356
35945W        W 8271  31.997  15.125   4.889
35946W        W 8272  35.017   6.871  11.181
35947W        W 8273  23.496  39.359   4.106
35948W        W 8274  12.474  12.553  10.744
35949W        W 8275  25.174  18.530   1.945
35950W        W 8276  17.981   6.800   4.227
35951W        W 8277  19.497  13.069   2.797
35952W        W 8278  38.419  32.127   0.429
35953W        W 8279   7.945  30.827   0.479
35954W        W 8280   4.934   8.501   1.922
35955W        W 8281  11.138   7.883   2.822
35956W        W 8282  35.886   8.920   1.806
35957W        W 8283  40.798  22.210  12.025
35958W        W 8284  17.899  31.500  13.510
35959W        W 8285   7.820  22.911   0.277
35960W        W 8286   4.261  44.685  13.807
35961W        W 8287  39.583  29.466   0.433
35962W        W 8288   7.435  40.295  10.699
35963W        W 8289  31.082  39.771  11.406
35964W        W 8290   4.828  17.459  14.205
35965W        W 8291   7.430  21.712  14.372
35966W        W 8292  14.425   1.910   4.894
35967W        W 8293   7.654  15.536   4.708
35968W        W 8294  43.553   3.122  14.732
35969W        W 8295  26.610  11.429  11.095
35970W        W 8296  23.060   0.960  13.867
35971W        W 8297   3.450  20.098   3.147
35972W        W 8298  36.033  27.551   3.256
35973W        W 8299  11.771  34.956  10.386
35974W        W 8300  33.001  13.738  12.421
35975W        W 8301  37.047   9.298  13.817
35976W        W 8302  10.150   5.673   2.781
35977W        W 8303   2.982  19.108  14.327
35978W        W 8304   1.408  17.827  10.546
35979W        W 8305  44.909  11.037   0.287
35980W        W 8306   9.003  38.262  13.898
35981W        W 8307  10.680  34.355  11.727
35982W        W 8308   1.294  14.177   4.672
35983W        W 8309  24.687   4.082  13.826
35984W        W 8310  27.807  38.139  12.975
35985W        W 8311  12.873  40.929  13.762
35986W        W 8312  39.773   5.639   1.200
35987W        W 8313  20.106   4.447   2.507
35988W        W 8314  35.139  34.824   4.150
35989W        W 8315   3.165  38.820   1.615
35990W        W 8316  26.881  33.506  13.011
35991W        W 8317  11.202  12.382  14.791
35992W        W 8318  17.182   0.026   4.840
35993W        W 8319  31.554   3.305   0.507
35994W        W 8320  24.535  41.467  12.029
35995W        W 8321  26.557  19.515   2.719
35996W        W 8322  19.691   7.382  11.160
35997W        W 8323  42.211   5.724  12.944
35998W        W 8324  12.118   0.826  12.890
35999W        W 8325  19.386  43.744   0.888
36000W        W 8326  14.831  28.003   0.674
36001W        W 8327  16.221  34.061   4.639
36002W        W 8328  11.107  23.089   0.011
36003W        W 8329  23.594  23.430   1.286
36004W        W 8330  13.168  16.582  10.731
36005W        W 8331  22.570  26.001   1.233
36006W        W 8332  32.862  15.545   3.982
36007W        W 8333   9.856  19.452   3.561
36008W        W 8334  43.495  10.649  12.601
36009W        W 8335  22.784  32.459   2.396
36010W        W 8336  39.994  39.244   4.959
36011W        W 8337   5.233  33.614   2.410
36012W        W 8338  13.678  17.028   1.500
36013W        W 8339   4.734  23.495   3.561
36014W        W 8340  13.709  22.709  14.869
36015W        W 8341   7.319  18.670  14.348
36016W        W 8342  21.492  24.537  12.058
36017W        W 8343   9.766  20.331   1.407
36018W        W 8344  16.502  17.634   1.340
36019W        W 8345  14.145  39.326  11.239
36020W        W 8346  24.481  19.203  11.874
36021W        W 8347  37.041  10.753   3.328
36022W        W 8348   9.386  31.925   3.136
36023W        W 8349  30.152  43.042   4.008
36024W        W 8350  21.917  16.782   1.754
36025W        W 8351  24.017  42.387   0.939
36026W        W 8352  21.753  40.124  12.927
36027W        W 8353  22.638  41.428   4.666
36028W        W 8354  28.281  10.048   0.951
36029W        W 8355   8.616  18.776   4.912
36030W        W 8356  14.378  25.723   5.306
36031W        W 8357  19.254  24.243   0.322
36032W        W 8358   6.779  42.334   3.363
36033W        W 8359  29.710  29.108   3.163
36034W        W 8360   9.093  13.664   4.188
36035W        W 8361   1.322  43.459  11.904
36036W        W 8362   5.844  34.417   2.649
36037W        W 8363  30.588  43.989  12.345
36038W        W 8364  20.084  19.075  14.384
36039W        W 8365   9.647  29.956  12.043
36040W        W 8366  24.710  17.914   4.192
36041W        W 8367  28.704  41.792   2.296
36042W        W 8368  15.948  12.556  12.835
36043W        W 8369   0.326  27.476  13.956
36044W        W 8370   8.338   3.173  11.932
36045W        W 8371  42.704  22.108   2.754
36046W        W 8372  23.023  25.991  11.409
36047W        W 8373  13.769  38.418   3.597
36048W        W 8374  44.279  25.413  10.742
36049W        W 8375  44.660  11.370  10.483
36050W        W 8376  32.515   6.605   2.295
36051W        W 8377   3.223  26.657  13.490
36052W        W 8378   2.426  40.127  12.078
36053W        W 8379  34.715  20.939   2.976
36054W        W 8380   5.816  25.677  14.348
36055W        W 8381  10.085   0.856  12.670
36056W        W 8382  43.714  20.692  14.913
36057W        W 8383  22.011   6.779   1.765
36058W        W 8384  27.980  36.790  12.382
36059W        W 8385  11.809  24.464   0.302
36060W        W 8386  30.363  25.227   1.895
36061W        W 8387  35.194  40.827  12.011
36062W        W 8388  18.538  23.885  12.132
36063W        W 8389  27.061  31.152  10.714
36064W        W 8390   7.796  14.252  12.486
36065W        W 8391  13.247  33.089  12.088
36066W        W 8392  29.017  44.347  12.076
36067W        W 8393  37.648  25.715  12.882
36068W        W 8394   4.897   1.505  14.029
36069W        W 8395  17.208  41.997   1.735
36070W        W 8396  29.947   3.335   4.058
36071W        W 8397  24.906  12.685  12.644
36072W        W 8398   9.282  24.047  11.618
36073W        W 8399  36.237  32.120   0.016
36074W        W 8400  20.866   9.873   0.042
36075W        W 8401  33.125  44.877   0.910
36076W        W 8402  36.570  17.270  12.867
36077W        W 8403   3.299  42.455   0.864
36078W        W 8404  39.041  39.410  14.473
36079W        W 8405   4.897  11.260  13.017
36080W        W 8406  28.109  19.845  14.972
36081W        W 8407  28.152  42.862   4.301
36082W        W 8408  34.564  44.393   0.950
36083W        W 8409  41.014  32.625   1.480
36084W        W 8410  40.504   2.031  10.769
36085W        W 8411   0.569  40.987   4.220
36086W        W 8412  32.386  10.310   4.577
36087W        W 8413  32.831  25.196   4.495
36088W        W 8414   2.394  41.878   4.630
36089W        W 8415  20.594   8.431  10.560
36090W        W 8416  24.443  28.390  10.440
36091W        W 8417  39.556  29.554   1.335
36092W        W 8418  44.832  10.586   4.559
36093W        W 8419  18.769  39.445  10.769
36094W        W 8420  21.069   6.283  13.858
36095W        W 8421  24.020  19.476   3.313
36096W        W 8422  28.687  26.817   3.235
36097W        W 8423  24.224  19.519  10.629
36098W        W 8424  17.121   2.142  12.895
36099W        W 8425  35.995  29.359  10.293
36100W        W 8426   4.874   4.740  10.117
36101W        W 8427  23.081   8.921   4.594
36102W        W 8428  41.870  19.407   4.277
36103W        W 8429  42.482  20.765   0.250
36104W        W 8430  16.676  20.527  14.652
36105W        W 8431   4.714  19.320   3.313
36106W        W 8432  36.850  44.786   4.418
36107W        W 8433  20.076   4.273   2.037
36108W        W 8434   9.713   1.006   0.716
36109W        W 8435  12.379  23.609   1.283
36110W        W 8436   2.011  41.897   3.901
36111W        W 8437  30.584  37.305  11.179
36112W        W 8438  33.047  39.267   3.100
36113W        W 8439  36.380  25.701  11.127
36114W        W 8440  17.085  36.528  12.021
36115W        W 8441  41.955  18.003   1.336
36116W        W 8442  43.876  18.281  11.216
36117W        W 8443  17.992  30.621  11.551
36118W        W 8444  43.537  39.862  11.317
36119W        W 8445   6.036  38.876   4.915
36120W        W 8446  22.198   9.689  14.952
36121W        W 8447  11.862  36.463   3.355
36122W        W 8448  28.133  17.994   4.234
36123W        W 8449  16.809  15.821   0.844
36124W        W 8450  35.835  12.717  13.747
36125W        W 8451  11.867  21.132  11.691
36126W        W 8452  13.122  34.354   0.775
36127W        W 8453   0.265  26.139   1.142
36128W        W 8454  12.389  32.184   0.424
36129W        W 8455  13.158   7.406  12.471
36130W        W 8456   3.876   4.744  11.069
36131W        W 8457  23.465  29.221   4.108
36132W        W 8458  36.095  21.774   0.390
36133W        W 8459   6.288   2.875  12.612
36134W        W 8460  20.213  15.421   0.280
36135W        W 8461   1.352   4.735  13.921
36136W        W 8462  28.468  33.310   2.420
36137W        W 8463  38.435  27.285   0.750
36138W        W 8464  14.185  18.978   0.162
36139W        W 8465  27.395   3.582  14.772
36140W        W 8466  43.428   1.687   2.752
36141W        W 8467  24.660  28.113   4.336
36142W        W 8468   0.238  30.107   3.059
36143W        W 8469  29.134  18.515  11.053
36144W        W 8470  28.626   0.274  11.987
36145W        W 8471   3.564  37.634  10.213
36146W        W 8472  34.343  11.877   3.787
36147W        W 8473  32.472   7.787  12.428
36148W        W 8474  37.667  24.098   1.596
36149W        W 8475  27.435   2.714  13.788
36150W        W 8476  37.609  41.278  12.946
36151W        W 8477  18.273   3.007   4.837
36152W        W 8478  22.232  30.429  11.405
36153W        W 8479  16.534  15.061   3.803
36154W        W 8480  18.323  14.502   0.707
36155W        W 8481  41.552  35.047   0.490
36156W        W 8482  33.117   4.723  11.678
36157W        W 8483   7.272   3.865  10.611
36158W        W 8484  26.359  30.276  11.215
36159W        W 8485  17.133  36.001  14.772
36160W        W 8486  30.723  41.441  13.866
36161W        W 8487  14.581  21.502  11.665
36162W        W 8488  38.372  38.157  13.363
36163W        W 8489  29.427   3.873   0.460
36164W        W 8490  17.848  27.471  13.281
36165W        W 8491  21.695   8.312   1.485
36166W        W 8492  32.318  33.593  14.409
36167W        W 8493  26.456   4.862  13.593
36168W        W 8494  33.744  10.724   3.518
36169W        W 8495   2.640  36.692  13.758
36170W        W 8496  41.008   1.283  11.573
36171W        W 8497  35.090   3.771  13.757
36172W        W 8498  29.367  27.058  14.731
36173W        W 8499  20.761  43.424   1.183
36174W        W 8500  38.589  43.000  11.428
36175W        W 8501  15.047  41.389   0.294
36176W        W 8502   3.503  44.064   1.770
36177W        W 8503   8.836  43.722  11.492
36178W        W 8504  20.354   2.472   2.235
36179W        W 8505  25.547   5.150  11.934
36180W        W 8506  35.348  12.548   0.544
36181W        W 8507  43.725   5.304   2.640
36182W        W 8508  25.048  14.908  11.815
36183W        W 8509   4.704  14.483   3.604
36184W        W 8510  24.107  15.130   1.947
36185W        W 8511  15.909  16.389  10.694
36186W        W 8512  23.459   3.016  14.941
36187W        W 8513   4.854  37.755   2.878
36188W        W 8514  33.141  41.080   1.648
36189W        W 8515  28.662  33.040   0.534
36190W        W 8516  18.462  37.429  12.069
36191W        W 8517  32.881  36.263  14.893
36192W        W 8518  39.533   7.715   0.404
36193W        W 8519  22.715  43.153   4.850
36194W        W 8520  29.048  40.107   1.927
36195W        W 8521  27.523  18.626  11.186
36196W        W 8522   9.826   1.442   1.804
36197W        W 8523  23.437  13.606   3.667
36198W        W 8524  19.075  33.131   0.837
36199W        W 8525   7.610  43.110   1.923
36200W        W 8526  38.653  19.231   4.251
36201W        W 8527  41.340  19.302  13.378
36202W        W 8528   2.452  14.763  14.771
36203W        W 8529  24.587  27.674   3.926
36204W        W 8530  31.865   5.927   0.124
36205W        W 8531  22.457   2.196   4.977
36206W        W 8532  28.598  30.074   0.460
36207W        W 8533  24.335  23.590   4.219
36208W        W 8534  43.086  39.960   2.756
36209W        W 8535  38.998   7.965  14.582
36210W        W 8536   7.186  32.030   2.803
36211W        W 8537   2.843  44.942  13.851
36212W        W 8538   8.227  31.592  10.530
36213W        W 8539  11.763  37.364   3.622
36214W        W 8540  37.744   8.676  14.540
36215W        W 8541  25.697  37.754  12.603
36216W        W 8542  32.437  24.241  13.559
36217W        W 8543  25.539  32.393   3.185
36218W        W 8544   2.720  25.687   4.904
36219W        W 8545  21.964  18.131  11.703
36220W        W 8546  38.906  33.152   0.047
36221W        W 8547   3.347  42.728  11.624
36222W        W 8548  42.743  41.930  12.921
36223W        W 8549   4.511  23.424   2.354
36224W        W 8550   4.191  41.759   1.765
36225W        W 8551   8.447  20.187  12.049
36226W        W 8552  14.354  12.126   4.545
36227W        W 8553   6.654  36.036  12.575
36228W        W 8554  20.769  19.309   2.860
36229W        W 8555  23.286  11.867  11.599
36230W        W 8556  26.424  27.614  12.338
36231W        W 8557  33.130  17.153   2.741
36232W        W 8558  33.767  33.856   2.799
36233W        W 8559   7.216  17.557  13.937
36234W        W 8560  38.188  20.213   2.483
36235W        W 8561  32.867  23.907  11.173
36236W        W 8562   2.820  15.202   2.761
36237W        W 8563  16.622  11.290   1.367
36238W        W 8564   0.380  20.044  14.434
36239W        W 8565  29.361  17.298  13.035
36240W        W 8566   9.875  35.841  11.472
36241W        W 8567  18.801  31.543   5.262
36242W        W 8568  38.918   8.020  13.000
36243W        W 8569  39.034   1.288   3.713
36244W        W 8570   8.694  36.257  14.340
36245W        W 8571   3.696  39.259   2.419
36246W        W 8572   9.412  28.553   0.278
36247W        W 8573  34.543  34.398   2.872
36248W        W 8574  28.210  12.935   3.698
36249W        W 8575  31.505  36.650  12.722
36250W        W 8576   0.841  14.203   1.413
36251W        W 8577  12.043   0.830   1.797
36252W        W 8578  32.045  20.221   0.220
36253W        W 8579  28.103   5.268   0.811
36254W        W 8580  31.667  32.346  11.424
36255W        W 8581  30.373   2.601  10.840
36256W        W 8582  43.551  28.393  12.341
36257W        W 8583  39.741  26.693  11.610
36258W        W 8584  34.377  16.800  12.066
36259W        W 8585  25.078  38.081  11.377
36260W        W 8586  38.252  39.364  13.050
36261W        W 8587   6.271  39.833  12.424
36262W        W 8588  31.008  22.069   3.340
36263W        W 8589  31.314  28.930  11.641
36264W        W 8590  13.634  25.322   3.685
36265W        W 8591  14.679  12.854   3.060
36266W        W 8592  39.853  42.054   4.078
36267W        W 8593   7.766  36.649  11.969
36268W        W 8594  22.516  35.980   3.250
36269W        W 8595   2.795  39.495   3.630
36270W        W 8596   4.503  16.218   4.543
36271W        W 8597  22.185  21.001   3.857
36272W        W 8598  13.941   0.870  12.670
36273W        W 8599  11.127  23.549   0.319
36274W        W 8600  25.604  40.620   3.409
36275W        W 8601  36.932  29.675   1.780
36276W        W 8602  18.644  26.068  14.339
36277W        W 8603  12.614  43.247   2.229
36278W        W 8604   3.874  21.763   9.841
36279W        W 8605   4.965  24.703  12.552
36280W        W 8606  39.900   3.505  11.700
36281W        W 8607  32.313  33.459  11.912
36282W        W 8608  21.325  39.445   3.619
36283W        W 8609  36.603  36.620  11.090
36284W        W 8610  32.629  12.561  14.822
36285W        W 8611  15.238   2.994  14.824
36286W        W 8612  20.523   5.322  14.795
36287W        W 8613   1.224  40.484  12.859
36288W        W 8614  33.667  18.662   2.351
36289W        W 8615   9.635  39.371  12.528
36290W        W 8616  15.813  19.321   2.232
36291W        W 8617  38.394  26.515  10.658
36292W        W 8618   9.634   5.315   2.072
36293W        W 8619  33.288  12.298   0.004
36294W        W 8620  44.101   2.390   3.726
36295W        W 8621  31.729  38.452  10.684
36296W        W 8622  23.108  22.245   1.726
36297W        W 8623  19.399  15.683  12.415
36298W        W 8624  12.433  22.819  11.528
36299W        W 8625  42.629  21.238  12.445
36300W        W 8626  21.768  36.630  11.992
36301W        W 8627  14.808  35.963   0.750
36302W        W 8628   4.653   7.160   2.213
36303W        W 8629  13.146   2.922  10.681
36304W        W 8630   8.332  43.999  13.993
36305W        W 8631   3.584  14.720  11.191
36306W        W 8632  16.998  43.779  14.699
36307W        W 8633  12.439   3.629  13.363
36308W        W 8634  12.643  16.609  14.678
36309W        W 8635   0.743  10.105   4.671
36310W        W 8636  24.139  36.395   3.510
36311W        W 8637  24.695  12.041   0.276
36312W        W 8638  27.792  41.093  11.087
36313W        W 8639  35.462   2.096  14.844
36314W        W 8640  44.906  39.550  13.460
36315W        W 8641  41.049  22.944   1.319
36316W        W 8642  28.685   1.685  11.177
36317W        W 8643  13.595  39.815  14.541
36318W        W 8644  41.049  25.959  11.456
36319W        W 8645  32.634   8.358   4.462
36320W        W 8646  43.861  17.170   3.859
36321W        W 8647  28.931  16.504   3.769
36322W        W 8648   4.417  28.003  11.449
36323W        W 8649  12.801  13.715  11.770
36324W        W 8650  16.914  10.159  13.881
36325W        W 8651  18.516   6.759   0.721
36326W        W 8652   4.973  15.767   0.751
36327W        W 8653  34.878  23.025  13.667
36328W        W 8654  32.319  29.172  14.317
36329W        W 8655  35.102  17.593   1.889
36330W        W 8656   3.481  34.427  12.887
36331W        W 8657  21.736  14.324   0.057
36332W        W 8658  38.360  33.328   1.996
36333W        W 8659  18.495  28.380   3.779
36334W        W 8660  38.339  43.391  11.185
36335W        W 8661  16.378  42.093  11.912
36336W        W 8662  33.583   7.912   0.293
36337W        W 8663  22.931  16.226   3.801
36338W        W 8664   9.419  15.319  11.959
36339W        W 8665  38.913  17.238  13.427
36340W        W 8666  36.736  44.780  13.076
36341W        W 8667   5.232  20.559   1.111
36342W        W 8668  34.466   1.584   4.643
36343W        W 8669  44.998   6.944  14.968
36344W        W 8670   6.951  18.836   3.101
36345W        W 8671  35.390  29.105  12.394
36346W        W 8672  41.024  15.109  14.921
36347W        W 8673   8.164  42.424   3.085
36348W        W 8674  16.234  22.497  12.968
36349W        W 8675  37.906  22.702  12.522
36350W        W 8676  30.511  33.942  11.999
36351W        W 8677  18.708   8.409   0.811
36352W        W 8678  11.244  39.043  11.837
36353W        W 8679  13.437  21.476   9.782
36354W        W 8680   3.574  41.780   2.274
36355W        W 8681  26.453   8.435   0.402
36356W        W 8682   5.594   8.945   1.326
36357W        W 8683  40.358  12.945   4.498
36358W        W 8684  15.777   0.284   2.136
36359W        W 8685  21.385   9.647   4.529
36360W        W 8686  42.452  33.376   1.840
36361W        W 8687  20.860  16.984   1.593
36362W        W 8688  33.849  43.933   2.263
36363W        W 8689  41.572  36.998   2.884
36364W        W 8690  33.134  38.926   1.905
36365W        W 8691  15.344  33.536  12.518
36366W        W 8692  18.510   3.791   2.956
36367W        W 8693  15.353  13.650  10.753
36368W        W 8694   6.936  33.917   4.572
36369W        W 8695  10.425   8.785   2.499
36370W        W 8696   7.324  23.304   3.642
36371W        W 8697   0.723  16.444  11.573
36372W        W 8698  21.439  16.160  14.484
36373W        W 8699  18.093  12.292  13.926
36374W        W 8700  21.954  13.731  11.431
36375W        W 8701  34.942  37.537  14.173
36376W        W 8702  15.187  39.695   2.146
36377W        W 8703   3.983  12.839   2.656
36378W        W 8704  29.422   3.524  11.923
36379W        W 8705  20.994   0.368   0.854
36380W        W 8706  43.638  24.873   1.268
36381W        W 8707   4.335   9.615   0.811
36382W        W 8708  29.223  16.289   0.497
36383W        W 8709   2.777  35.046  11.774
36384W        W 8710   9.945  38.450   3.558
36385W        W 8711  33.534  16.754   0.395
36386W        W 8712  42.885   2.172  12.498
36387W        W 8713  43.603  28.564  13.814
36388W        W 8714  32.190  21.999   1.671
36389W        W 8715  13.063  41.495   1.443
36390W        W 8716  26.994   1.770   4.707
36391W        W 8717   3.930  42.918   2.966
36392W        W 8718  10.491  37.374  13.849
36393W        W 8719  42.960   6.708  12.534
36394W        W 8720  38.381  13.247   2.217
36395W        W 8721  14.338  24.338   2.745
36396W        W 8722  15.040  29.619   1.335
36397W        W 8723  14.270  44.720  13.309
36398W        W 8724  29.573   4.854   4.651
36399W        W 8725  14.188  30.670  12.129
36400W        W 8726  30.397  33.520  14.935
36401W        W 8727  15.491  16.201  13.378
36402W        W 8728  12.547  35.818  12.078
36403W        W 8729  19.484  30.511  13.396
36404W        W 8730  31.666  37.936   4.754
36405W        W 8731  43.208  17.718  14.372
36406W        W 8732  24.238  15.813   2.257
36407W        W 8733   8.847  40.573   1.339
36408W        W 8734  22.698  43.073  14.920
36409W        W 8735  17.958  38.971  13.081
36410W        W 8736  44.280  20.481   3.756
36411W        W 8737  34.985   0.869   3.136
36412W        W 8738  21.405  28.198   1.730
36413W        W 8739  27.567  40.731  11.412
36414W        W 8740   1.287  15.528  13.947
36415W        W 8741  26.018  41.006  13.346
36416W        W 8742   9.225  14.830  12.023
36417W        W 8743  20.217  29.447  11.012
36418W        W 8744  23.710  39.285  11.386
36419W        W 8745   7.944  33.445   1.773
36420W        W 8746  29.212  21.314  12.374
36421W        W 8747   7.146  32.442  12.956
36422W        W 8748  32.602  37.129  13.964
36423W        W 8749  41.821  40.194   4.636
36424W        W 8750  30.108  38.334   2.793
36425W        W 8751  18.150  35.118   0.608
36426W        W 8752   1.303   7.182   1.862
36427W        W 8753  40.698  20.265   2.773
36428W        W 8754  12.028  18.690   0.695
36429W        W 8755  12.130  30.008  11.906
36430W        W 8756  42.789  24.080  14.560
36431W        W 8757  12.577  24.779  10.646
36432W        W 8758   7.279  44.412   2.738
36433W        W 8759  11.446   6.378   1.621
36434W        W 8760  18.672  34.838   1.688
36435W        W 8761  39.661  32.333  12.634
36436W        W 8762  34.725  36.990   9.858
36437W        W 8763  29.648  39.166   1.406
36438W        W 8764  20.327  32.087   0.907
36439W        W 8765  18.853  24.896   4.233
36440W        W 8766   0.280  33.924   3.477
36441W        W 8767  41.301  15.362  12.107
36442W        W 8768  42.821  21.034  13.831
36443W        W 8769   8.888  32.033  14.092
36444W        W 8770  26.186  36.929   2.651
36445W        W 8771  36.009  10.901  10.101
36446W        W 8772  35.861   1.372   4.567
36447W        W 8773  40.510  32.495   3.263
36448W        W 8774  24.688  44.019   4.988
36449W        W 8775   0.353   4.177  14.454
36450W        W 8776  36.391  34.773   9.767
36451W        W 8777  44.134  37.786   0.855
36452W        W 8778  24.064  39.526  10.159
36453W        W 8779  13.236  18.252  12.495
36454W        W 8780   4.808  36.334   3.323
36455W        W 8781   4.874  14.662  12.183
36456W        W 8782  21.661  23.559   4.630
36457W        W 8783  39.561   9.897   0.759
36458W        W 8784  27.732  17.269   4.643
36459W        W 8785   2.983  35.551   0.333
36460W        W 8786  43.079  26.953   4.677
36461W        W 8787  29.155   3.015  13.357
36462W        W 8788   1.292  24.126  13.463
36463W        W 8789  15.281   3.017  10.805
36464W        W 8790  34.553  21.884  13.010
36465W        W 8791   9.234   7.830  10.418
36466W        W 8792  43.121   4.221   5.042
36467W        W 8793  17.968  23.086   3.276
36468W        W 8794  42.232  14.819  13.079
36469W        W 8795  38.896   4.156  12.105
36470W        W 8796  28.193  37.453   4.150
36471W        W 8797   2.393  40.767  13.471
36472W        W 8798  15.122  13.526   1.655
36473W        W 8799  35.549  15.240   4.151
36474W        W 8800  11.293   2.549   0.241
36475W        W 8801   3.933  14.825  12.478
36476W        W 8802   5.942  38.002   1.838
36477W        W 8803  39.107  17.018   1.635
36478W        W 8804  25.761  30.456   5.261
36479W        W 8805  41.116  24.739  14.908
36480W        W 8806  16.590  27.880  14.061
36481W        W 8807  25.905  31.827  11.072
36482W        W 8808  37.964  20.143  13.540
36483W        W 8809  20.264  35.494   4.639
36484W        W 8810  31.857   4.246   0.567
36485W        W 8811  12.635  21.792   4.216
36486W        W 8812  21.027  18.674   0.424
36487W        W 8813   1.442   4.129  10.656
36488W        W 8814  44.797  40.872   3.671
36489W        W 8815  26.445  20.673  10.589
36490W        W 8816  38.368  38.556   0.058
36491W        W 8817   5.464  26.520   4.428
36492W        W 8818  33.934  41.238  13.804
36493W        W 8819   4.902  28.109  13.493
36494W        W 8820   6.341  22.204  14.401
36495W        W 8821  21.223  26.578  12.657
36496W        W 8822   3.486  26.262  14.323
36497W        W 8823  31.627  41.826   0.931
36498W        W 8824  27.910   5.252  11.478
36499W        W 8825  18.722   7.176  10.980
36500W        W 8826  36.804  27.989   3.334
36501W        W 8827  10.180  40.006  14.614
36502W        W 8828  38.365  36.127   0.417
36503W        W 8829  25.951   1.044  12.834
36504W        W 8830   6.345  26.170   1.381
36505W        W 8831  42.333   6.510  12.249
36506W        W 8832   5.923  19.201   1.428
36507W        W 8833  14.587   7.150   1.530
36508W        W 8834  16.626   9.151  10.611
36509W        W 8835  10.778   3.472  12.563
36510W        W 8836  13.961  36.665  13.917
36511W        W 8837  37.065  10.292   1.763
36512W        W 8838   5.989  17.272   0.278
36513W        W 8839   9.114  39.746  13.893
36514W        W 8840  22.084  37.246  11.598
36515W        W 8841   3.064   5.311  13.751
36516W        W 8842  31.301  15.468   1.263
36517W        W 8843  34.977  31.967  10.426
36518W        W 8844  34.964  27.085  11.872
36519W        W 8845  40.264  21.995  14.747
36520W        W 8846  11.727  43.710   3.338
36521W        W 8847  38.868  40.845  12.973
36522W        W 8848  44.396  30.021  11.456
36523W        W 8849  24.300  34.039  13.886
36524W        W 8850   3.969   5.615   4.201
36525W        W 8851  30.094  17.573  10.914
36526W        W 8852  13.642  28.481  14.244
36527W        W 8853  37.507  12.852  10.673
36528W        W 8854  12.839  41.359   4.627
36529W        W 8855  25.409  26.603   0.224
36530W        W 8856  36.966  34.779   3.345
36531W        W 8857  15.910   5.314   2.668
36532W        W 8858   9.808  34.954  13.482
36533W        W 8859  13.730  13.345  12.013
36534W        W 8860  19.672  25.906   4.098
36535W        W 8861   2.837   5.494  14.179
36536W        W 8862  12.527  14.566   2.807
36537W        W 8863  23.649  25.115   0.431
36538W        W 8864  42.601   0.433  14.847
36539W        W 8865  42.801   6.349  10.719
36540W        W 8866   4.647  35.002  12.398
36541W        W 8867  36.292  37.403   2.199
36542W        W 8868  27.408  16.129  14.530
36543W        W 8869  23.740  39.014  10.203
36544W        W 8870  40.496   8.880  12.366
36545W        W 8871  39.000  12.972  14.976
36546W        W 8872  31.502  44.445   1.200
36547W        W 8873  35.082  15.923  11.193
36548W        W 8874  36.498  14.733   0.456
36549W        W 8875  41.311  35.844   3.708
36550W        W 8876   5.722  13.687  11.155
36551W        W 8877  30.933  31.023  10.795
36552W        W 8878  21.762  29.457   1.284
36553W        W 8879  25.600  18.269   0.099
36554W        W 8880   0.523  22.452   3.309
36555W        W 8881  29.946  11.330  14.104
36556W        W 8882   5.744  23.053  12.609
36557W        W 8883  35.912  23.499   0.961
36558W        W 8884  30.484  34.497   0.194
36559W        W 8885  23.944   6.941  10.915
36560W        W 8886  10.902  39.379  12.133
36561W        W 8887  39.878   6.103   4.174
36562W        W 8888   0.028  21.850   0.276
36563W        W 8889  21.627  12.752  13.415
36564W        W 8890  37.503  40.092  10.420
36565W        W 8891  11.600   3.650   0.924
36566W        W 8892  21.491  18.874  10.953
36567W        W 8893  22.047   5.521  12.826
36568W        W 8894  19.050   4.220   2.435
36569W        W 8895  36.482  25.793  10.632
36570W        W 8896   8.422  15.650   4.042
36571W        W 8897  12.333  37.490  13.510
36572W        W 8898  44.281   9.202  13.993
36573W        W 8899  15.365   2.423   1.104
36574W        W 8900   7.852   1.922   1.185
36575W        W 8901   5.794  18.139  10.385
36576W        W 8902  43.561  17.990  11.518
36577W        W 8903  16.265  37.934   4.471
36578W        W 8904  11.278   5.233   2.837
36579W        W 8905  15.618  44.755   1.392
36580W        W 8906  19.676  44.983   3.545
36581W        W 8907  14.282  32.616   0.367
36582W        W 8908   0.118  14.351   0.948
36583W        W 8909  22.168  21.037  11.280
36584W        W 8910  27.877   8.042   5.174
36585W        W 8911  37.442  26.072  10.704
36586W        W 8912  36.103   9.121  11.281
36587W        W 8913   8.930  18.215   3.641
36588W        W 8914  37.830  35.399  12.898
36589W        W 8915  24.896  20.086   0.411
36590W        W 8916  12.227   2.219   3.581
36591W        W 8917  42.978  40.270  13.851
36592W        W 8918  13.776  40.761  11.899
36593W        W 8919  19.682  34.130   2.280
36594W        W 8920   5.379  14.182  11.095
36595W        W 8921  31.520  11.868   2.183
36596W        W 8922  16.547  16.717   4.575
36597W        W 8923  36.965  41.589  13.491
36598W        W 8924  11.135  22.676   0.460
36599W        W 8925  13.759  36.183   1.975
36600W        W 8926   5.489  18.775  11.645
36601W        W 8927  12.107  40.000   2.784
36602W        W 8928   9.560   7.900   3.176
36603W        W 8929  41.320  11.313   0.867
36604W        W 8930   5.275  15.704   3.154
36605W        W 8931   6.434  17.007   1.171
36606W        W 8932  20.221  25.391  12.836
36607W        W 8933  24.869   4.204   0.936
36608W        W 8934  33.539  27.113  13.426
36609W        W 8935  14.782  25.186   2.920
36610W        W 8936   2.305  20.649   0.828
36611W        W 8937   7.735  10.082   2.282
36612W        W 8938  36.478   4.710  10.742
36613W        W 8939  29.389  14.025   1.368
36614W        W 8940  23.012  10.879  11.481
36615W        W 8941  43.087   3.475  13.171
36616W        W 8942   2.641  12.245  10.590
36617W        W 8943  38.438   1.427  10.557
36618W        W 8944  17.257  19.537  12.822
36619W        W 8945   9.881  15.822   4.212
36620W        W 8946  25.207  20.688   1.472
36621W        W 8947  14.901  31.538  11.604
36622W        W 8948  10.424  14.355  10.681
36623W        W 8949  34.096  27.727   3.832
36624W        W 8950  26.324  18.763  12.955
36625W        W 8951   3.332   4.175   2.134
36626W        W 8952  15.907  22.050   1.696
36627W        W 8953  35.606   2.405  14.334
36628W        W 8954   9.815  11.273   2.879
36629W        W 8955  28.985  15.510  12.660
36630W        W 8956  25.751  22.958  13.960
36631W        W 8957  12.762  18.853  14.017
36632W        W 8958   4.471  17.989  13.635
36633W        W 8959  43.757  32.146  11.605
36634W        W 8960  18.878  24.771  10.951
36635W        W 8961  41.763  25.999   1.289
36636W        W 8962  27.556  10.802  14.070
36637W        W 8963  33.523  34.505  12.780
36638W        W 8964  12.746  25.290  10.615
36639W        W 8965  13.174  38.951  10.762
36640W        W 8966   9.264  35.003  12.000
36641W        W 8967   5.119   6.372  12.957
36642W        W 8968  40.295  13.086   3.211
36643W        W 8969  37.363   5.738   9.917
36644W        W 8970  32.687  20.801   1.874
36645W        W 8971  41.528  26.767  12.945
36646W        W 8972  20.003  11.387  13.743
36647W        W 8973  35.558  33.916   2.327
36648W        W 8974  27.617  19.386   0.339
36649W        W 8975  29.592   3.478  12.394
36650W        W 8976  42.063  10.785   4.164
36651W        W 8977  19.257  40.460  11.900
36652W        W 8978  41.804  39.291   3.660
36653W        W 8979  15.590  39.588  12.069
36654W        W 8980  40.476   1.982   2.136
36655W        W 8981  16.202  37.062  13.384
36656W        W 8982   6.909  11.941  13.516
36657W        W 8983  27.626  13.626   0.834
36658W        W 8984  10.867  25.544   3.942
36659W        W 8985   7.423  35.036   4.409
36660W        W 8986   9.647  23.238   1.296
36661W        W 8987  26.254  30.912   2.470
36662W        W 8988  44.932  20.208  12.323
36663W        W 8989  37.248  20.273  14.667
36664W        W 8990   7.408   1.804   1.444
36665W        W 8991  21.218  20.640   4.787
36666W        W 8992   0.486  30.839  13.717
36667W        W 8993   3.346   0.648   2.431
36668W        W 8994  24.453   4.436   0.699
36669W        W 8995   1.943   5.992  10.348
36670W        W 8996  10.786   0.873  12.504
36671W        W 8997  41.463  31.137  11.794
36672W        W 8998  16.177  41.450   3.934
36673W        W 8999  38.588  30.867  13.845
36674W        W 9000  36.023  28.019   3.784
36675W        W 9001  12.425  32.717   0.314
36676W        W 9002  37.148  36.245  14.770
36677W        W 9003  29.628   0.268   0.280
36678W        W 9004  23.637  39.574   3.105
36679W        W 9005   8.835  18.519  12.261
36680W        W 9006  14.784   0.994  12.313
36681W        W 9007  10.827  42.219   4.199
36682W        W 9008   6.401  41.613   0.282
36683W        W 9009  44.631  35.484   4.812
36684W        W 9010  32.767  14.166  13.153
36685W        W 9011  24.853  23.120   1.875
36686W        W 9012   7.747  27.368   3.195
36687W        W 9013  25.481  25.240   2.459
36688W        W 9014  31.477   9.185  13.842
36689W        W 9015  32.043   7.822   1.877
36690W        W 9016   8.784  40.444   2.633
36691W        W 9017  42.468  21.432  11.054
36692W        W 9018  23.963  43.981   2.713
36693W        W 9019  39.200  31.230   0.498
36694W        W 9020  14.131  18.794  10.646
36695W        W 9021  35.467  35.124  11.607
36696W        W 9022  23.016  21.982  14.121
36697W        W 9023   1.842  44.924  11.104
36698W        W 9024  11.692  34.410   4.808
36699W        W 9025  33.167  15.292   3.221
36700W        W 9026  21.404  28.625  14.215
36701W        W 9027  12.335   7.809  11.139
36702W        W 9028   4.152  13.227   4.542
36703W        W 9029  17.046  10.398   0.314
36704W        W 9030  13.319  27.562   1.490
36705W        W 9031   9.926   2.390  14.329
36706W        W 9032  21.498   5.675   2.700
36707W        W 9033  14.691   2.900   1.848
36708W        W 9034  18.365   0.235   2.399
36709W        W 9035  32.274  16.555   2.737
36710W        W 9036  21.100  41.040   2.337
36711W        W 9037  21.563  22.701   4.634
36712W        W 9038  10.368  29.539  14.785
36713W        W 9039  18.311  20.812  14.408
36714W        W 9040  33.357  12.291  11.903
36715W        W 9041   7.686   4.704   0.896
36716W        W 9042  36.490   1.767   0.859
36717W        W 9043  15.599  14.821  12.139
36718W        W 9044   6.416  30.701  13.622
36719W        W 9045   1.025  20.429   0.243
36720W        W 9046  23.920  44.932   0.801
36721W        W 9047  18.137  16.654  11.079
36722W        W 9048   4.503  21.389   4.853
36723W        W 9049  21.755  39.498  11.457
36724W        W 9050  15.248  14.657  13.935
36725W        W 9051  29.644  35.882   0.884
36726W        W 9052  31.438  30.460  11.641
36727W        W 9053  18.234  19.653   4.938
36728W        W 9054  31.515  11.606  13.959
36729W        W 9055   5.355   3.034  12.513
36730W        W 9056  19.082   5.890   1.219
36731W        W 9057  35.434  44.192  14.787
36732W        W 9058  34.901  26.600  11.512
36733W        W 9059  13.362  42.300  12.556
36734W        W 9060  30.713  33.916   2.958
36735W        W 9061  19.853   5.272   0.334
36736W        W 9062   1.057  25.807  11.484
36737W        W 9063  18.865   5.325   0.637
36738W        W 9064  14.769   5.734   0.969
36739W        W 9065  23.039   7.153   0.699
36740W        W 9066   6.684  29.014   2.705
36741W        W 9067  17.711   2.148  13.583
36742W        W 9068   8.866  21.245   4.055
36743W        W 9069   1.563   7.079  13.424
36744W        W 9070  34.266   7.827  14.836
36745W        W 9071  18.081  15.961   1.560
36746W        W 9072   3.776  44.360  12.007
36747W        W 9073  10.477  21.227   0.893
36748W        W 9074   5.342  33.641   2.902
36749W        W 9075   5.262  44.811   1.418
36750W        W 9076   5.266  40.404   2.204
36751W        W 9077  24.631  33.804  13.099
36752W        W 9078   9.836   7.081   3.657
36753W        W 9079  10.242  19.752  13.928
36754W        W 9080  42.506  10.232  12.910
36755W        W 9081  42.317  13.065  12.516
36756W        W 9082   5.138  22.106  13.074
36757W        W 9083   5.951   0.934  13.594
36758W        W 9084  40.943  40.776   3.417
36759W        W 9085  38.816  39.519   0.938
36760W        W 9086  38.760   2.003  13.080
36761W        W 9087  40.481  11.694  13.921
36762W        W 9088   3.631  29.097   1.879
36763W        W 9089   9.864  19.099   3.175
36764W        W 9090  13.319  10.145  13.921
36765W        W 9091  15.881  30.167   2.642
36766W        W 9092   9.775  10.288   4.997
36767W        W 9093   5.757  36.046   0.434
36768W        W 9094  20.588  41.721  11.089
36769W        W 9095  35.633  35.563  14.341
36770W        W 9096  34.341  35.558  12.934
36771W        W 9097  12.545  40.798  11.689
36772W        W 9098   9.807   4.880   2.373
36773W        W 9099   1.390  30.865   4.655
36774W        W 9100   1.096  41.861   4.134
36775W        W 9101  22.557  37.129   0.452
36776W        W 9102  31.644   4.571   2.726
36777W        W 9103  31.184   7.471   3.120
36778W        W 9104  35.605  40.350   3.199
36779W        W 9105  13.608   0.587   0.884
36780W        W 9106  24.905   6.710  12.483
36781W        W 9107  28.842  21.941  12.934
36782W        W 9108  19.955   1.000   4.189
36783W        W 9109  39.341  20.096   3.880
36784W        W 9110  25.519  21.948  14.764
36785W        W 9111  12.550  15.126  12.081
36786W        W 9112  10.646  43.240   0.026
36787W        W 9113  24.645   2.992   4.206
36788W        W 9114  44.039  16.611  13.293
36789W        W 9115  14.613  36.583  12.981
36790W        W 9116  26.911   0.458  13.953
36791W        W 9117  38.399  12.412   1.830
36792W        W 9118  11.061  19.588   4.618
36793W        W 9119  23.636   9.561  14.006
36794W        W 9120  23.452  25.857  12.097
36795W        W 9121  20.228   4.408   0.842
36796W        W 9122   4.060   2.398  11.689
36797W        W 9123   3.228  17.682  12.381
36798W        W 9124  36.394  18.576  14.381
36799W        W 9125  28.032  39.004   4.628
36800W        W 9126  11.911   4.926  13.532
36801W        W 9127   2.844  26.108   1.665
36802W        W 9128   7.494  26.377   4.113
36803W        W 9129   8.540  30.288  12.579
36804W        W 9130   1.251  41.201  12.614
36805W        W 9131   6.398   1.897   0.070
36806W        W 9132  22.504  26.158  13.741
36807W        W 9133  31.466   2.722   1.448
36808W        W 9134  38.978  13.981  11.066
36809W        W 9135  30.864  21.502  14.908
36810W        W 9136  25.147  32.136   1.757
36811W        W 9137  38.165  32.023   3.130
36812W        W 9138  37.575   8.862  11.317
36813W        W 9139  19.848  36.562   3.646
36814W        W 9140  29.367  33.908  13.934
36815W        W 9141  12.628  24.515  10.221
36816W        W 9142  14.998  18.749  13.831
36817W        W 9143  16.737   1.632   3.473
36818W        W 9144   0.417  34.131   0.255
36819W        W 9145  43.531   3.534  12.341
36820W        W 9146  26.783  26.715  14.458
36821W        W 9147  13.214  17.560  13.003
36822W        W 9148  25.461  24.536   2.864
36823W        W 9149   0.748  22.967  13.087
36824W        W 9150  14.463  34.210   1.349
36825W        W 9151  44.870  30.329  14.991
36826W        W 9152   8.221   7.975  14.248
36827W        W 9153   3.827   4.357   2.258
36828W        W 9154  44.694  28.109   5.196
36829W        W 9155   3.836  28.199   1.621
36830W        W 9156  10.713   7.194   4.588
36831W        W 9157  39.458   0.324  11.937
36832W        W 9158  41.031   6.360   1.865
36833W        W 9159  16.954   0.302   4.009
36834W        W 9160  29.979  12.168   0.512
36835W        W 9161  39.583  17.625   0.051
36836W        W 9162  24.541   5.099  13.965
36837W        W 9163   8.956  31.729   4.073
36838W        W 9164  40.513  16.971  11.627
36839W        W 9165  12.672  30.046   0.203
36840W        W 9166  28.588  44.842   1.624
36841W        W 9167   9.122  44.788   4.858
36842W        W 9168  17.037  44.312  14.056
36843W        W 9169  35.491  31.624   0.907
36844W        W 9170   0.390  10.033  13.897
36845W        W 9171   8.271  10.891   4.104
36846W        W 9172  32.064  21.335   0.241
36847W        W 9173  23.006  19.642   2.056
36848W        W 9174  29.528  23.849   3.703
36849W        W 9175  43.440  36.256  14.844
36850W        W 9176  39.622  28.123   3.736
36851W        W 9177  32.076  31.518   3.124
36852W        W 9178   9.602   9.841  10.429
36853W        W 9179  16.664  39.787   1.324
36854W        W 9180   4.332  38.854  14.733
36855W        W 9181  38.984  40.780   1.189
36856W        W 9182   4.916   3.218   3.742
36857W        W 9183  25.523  28.917   2.167
36858W        W 9184   8.256  39.029  12.005
36859W        W 9185  36.763   1.672  12.450
36860W        W 9186  22.827  33.242  14.240
36861W        W 9187  17.327  15.019   4.143
36862W        W 9188  42.063   7.456  14.904
36863W        W 9189  12.203  21.246   3.141
36864W        W 9190  10.418   1.303  13.358
36865W        W 9191  40.150  15.252  10.616
36866W        W 9192  42.208  22.161  13.898
36867W        W 9193  17.577  13.328  13.467
36868W        W 9194  17.256   3.186  14.919
36869W        W 9195   4.394  34.743   4.650
36870W        W 9196  31.180  21.748   1.346
36871W        W 9197  43.461  11.688   1.638
36872W        W 9198   6.428  21.052  14.599
36873W        W 9199  10.411  44.296   3.671
36874W        W 9200  12.753  28.149  14.247
36875W        W 9201  38.714  43.562   1.110
36876W        W 9202  10.688  41.514  10.519
36877W        W 9203   8.866  24.921  14.064
36878W        W 9204  14.764  31.447  10.708
36879W        W 9205  16.930   5.242   1.715
36880W        W 9206  28.193  15.702  12.798
36881W        W 9207  35.007  34.102  13.637
36882W        W 9208  22.639  19.636  11.674
36883W        W 9209   9.873  19.127   4.624
36884W        W 9210  42.879   3.930  11.967
36885W        W 9211  35.265  33.127  14.250
36886W        W 9212  39.508  42.280   1.393
36887W        W 9213  32.559  33.223  10.571
36888W        W 9214  43.899  30.879  12.139
36889W        W 9215  12.640   8.677   1.650
36890W        W 9216  44.905  41.370  13.413
36891W        W 9217  37.575   8.089  13.404
36892W        W 9218  18.757  26.584   3.754
36893W        W 9219  43.591  44.521  13.454
36894W        W 9220  37.179   6.496  12.913
36895W        W 9221   3.273  25.402   0.808
36896W        W 9222  43.802  23.411  11.441
36897W        W 9223  12.626  31.836   4.077
36898W        W 9224  13.310  14.294  12.683
36899W        W 9225  14.890  37.854   3.872
36900W        W 9226  20.823  39.835  10.135
36901W        W 9227  33.022  41.242  13.957
36902W        W 9228  15.671  15.801   0.809
36903W        W 9229  31.212   7.899  11.126
36904W        W 9230  40.064  29.081   3.726
36905W        W 9231  28.410  31.123  11.478
36906W        W 9232  31.109  30.927   1.446
36907W        W 9233  26.186  20.078   0.855
36908W        W 9234   9.869  29.732  13.463
36909W        W 9235  17.984  24.226   1.839
36910W        W 9236  12.108  44.375   0.883
36911W        W 9237   1.206  21.229   0.738
36912W        W 9238  31.224  22.960   1.855
36913W        W 9239   8.431   5.030   0.531
36914W        W 9240  12.609  38.528  14.895
36915W        W 9241  27.438  15.263  14.267
36916W        W 9242   0.304   3.689  10.558
36917W        W 9243  16.575   1.232   0.925
36918W        W 9244   6.915   1.914  12.782
36919W        W 9245   3.227  16.040  14.828
36920W        W 9246  42.051  32.439  10.801
36921W        W 9247  20.152   1.732  14.489
36922W        W 9248   7.439  36.912  13.135
36923W        W 9249   3.927   9.152   2.887
36924W        W 9250  10.389  15.722   5.149
36925W        W 9251  43.569  23.172  14.294
36926W        W 9252  15.041  37.570   4.363
36927W        W 9253  34.114   2.688  12.899
36928W        W 9254   9.256  18.850   2.540
36929W        W 9255   5.628  44.011  14.470
36930W        W 9256  10.306  10.319  13.010
36931W        W 9257  11.204  26.352   4.186
36932W        W 9258   9.211  11.856  14.380
36933W        W 9259  20.021  31.096  11.236
36934W        W 9260  38.533   8.187   2.889
36935W        W 9261  11.094   2.528   2.271
36936W        W 9262  16.556   4.882  10.898
36937W        W 9263  41.059  16.303   2.394
36938W        W 9264   8.152  10.855  14.022
36939W        W 9265  14.181  21.028   1.676
36940W        W 9266  18.889  29.956  14.868
36941W        W 9267   5.056  20.323   4.517
36942W        W 9268  17.577  23.676  11.731
36943W        W 9269  19.967  18.483   1.566
36944W        W 9270   5.451   5.970  12.958
36945W        W 9271   8.405  37.974  13.360
36946W        W 9272   6.405  33.514   3.893
36947W        W 9273  17.006  10.393  13.437
36948W        W 9274  20.634  17.645   1.041
36949W        W 9275  40.862  26.256  11.079
36950W        W 9276  26.189  17.322   9.888
36951W        W 9277  12.331  33.630   0.781
36952W        W 9278   3.756   4.440   0.360
36953W        W 9279  21.555  32.969  13.522
36954W        W 9280  16.784  40.846  14.091
36955W        W 9281  34.055   4.821  11.523
36956W        W 9282  31.428  30.164  12.626
36957W        W 9283   9.409   9.174   1.826
36958W        W 9284  25.008  44.438  13.522
36959W        W 9285  38.016  24.493  14.043
36960W        W 9286  21.787  39.889  11.094
36961W        W 9287   4.494  30.621  10.651
36962W        W 9288   5.040  10.569   3.658
36963W        W 9289  11.670  32.852   2.009
36964W        W 9290   8.280  32.092  14.544
36965W        W 9291  44.042  26.523  12.833
36966W        W 9292  41.593  18.619  10.841
36967W        W 9293   2.830  20.069   4.937
36968W        W 9294   6.374  14.773  13.596
36969W        W 9295  21.700  28.060   4.698
36970W        W 9296  18.185  11.027   4.403
36971W        W 9297   9.863  18.635  11.219
36972W        W 9298  33.278  15.792   4.163
36973W        W 9299   2.460  19.625  11.128
36974W        W 9300   9.118  29.397   2.128
36975W        W 9301  18.565  10.711  12.097
36976W        W 9302  10.678   1.433  11.529
36977W        W 9303  34.008  26.930  13.585
36978W        W 9304  28.477  20.483  14.642
36979W        W 9305  29.238  29.895   1.163
36980W        W 9306   5.750   4.666  11.689
36981W        W 9307   1.175  38.375  12.475
36982W        W 9308  35.916   9.599   1.134
36983W        W 9309  42.391   2.342   1.863
36984W        W 9310  12.207  10.377  11.175
36985W        W 9311  34.013   0.039  14.769
36986W        W 9312  44.080  27.717   2.826
36987W        W 9313   6.801  42.452  10.396
36988W        W 9314  15.614   5.493   2.290
36989W        W 9315  11.609   9.643  10.631
36990W        W 9316   7.702  10.595   2.175
36991W        W 9317  44.426  30.812  10.040
36992W        W 9318  43.365  16.990  11.573
36993W        W 9319  27.557  29.689   1.693
36994W        W 9320   4.382   1.498  11.442
36995W        W 9321   9.426   9.138  11.089
36996W        W 9322  35.085   7.204   0.548
36997W        W 9323  12.649  28.976  13.814
36998W        W 9324  38.035   8.888   3.678
36999W        W 9325  35.509  23.528   2.222
37000W        W 9326  35.113  11.204  11.100
37001W        W 9327  26.607   9.635  12.031
37002W        W 9328  24.508  38.293   3.195
37003W        W 9329  17.250  30.961   1.016
37004W        W 9330  39.921  27.381   0.929
37005W        W 9331   4.183  13.715  12.879
37006W        W 9332  18.649  29.363   3.601
37007W        W 9333  42.720  35.904  14.151
37008W        W 9334  31.179  27.219  11.796
37009W        W 9335  42.654  28.714  11.535
37010W        W 9336  27.971   2.715  11.246
37011W        W 9337  41.438  27.016   2.651
37012W        W 9338  28.375   0.278   0.744
37013W        W 9339  27.564  10.240   2.452
37014W        W 9340   5.912  12.574  12.157
37015W        W 9341   1.466  30.871  13.025
37016W        W 9342   0.985  39.354  14.469
37017W        W 9343  27.276   8.792   0.310
37018W        W 9344  38.223   7.476  12.117
37019W        W 9345   3.471  31.509   1.730
37020W        W 9346   7.884   1.340  14.209
37021W        W 9347  15.519   1.893   1.295
37022W        W 9348  27.034  19.607  14.976
37023W        W 9349   4.982  32.064   3.378
37024W        W 9350  11.306  26.549   9.392
37025W        W 9351   7.169   7.346  14.815
37026W        W 9352  20.849  29.136  12.530
37027W        W 9353   1.439  33.828  12.182
37028W        W 9354  36.397  26.288   1.132
37029W        W 9355  11.775   4.374  11.909
37030W        W 9356  39.151   4.882  14.310
37031W        W 9357  28.493  44.466   3.865
37032W        W 9358  20.178  27.110  14.965
37033W        W 9359   3.885  29.547   4.371
37034W        W 9360  32.826  38.032  13.020
37035W        W 9361   4.570  43.272   3.300
37036W        W 9362   0.461  40.943   1.357
37037W        W 9363  43.962   4.396   2.779
37038W        W 9364  23.576   4.627   1.373
37039W        W 9365  27.636   0.525   0.201
37040W        W 9366  14.301  40.135   3.374
37041W        W 9367  29.368  21.299  13.132
37042W        W 9368  12.660  13.328   3.248
37043W        W 9369   9.647   5.720  11.594
37044W        W 9370  15.181  14.986   3.622
37045W        W 9371  44.291  21.257  11.964
37046W        W 9372  25.542  29.621  11.734
37047W        W 9373  15.837  43.728   1.086
37048W        W 9374  43.994  28.115   4.106
37049W        W 9375  24.571  39.411   1.071
37050W        W 9376  19.743  12.815   3.536
37051W        W 9377  10.631  21.703  14.197
37052W        W 9378  34.053   0.734   3.719
37053W        W 9379  24.260   3.366  12.036
37054W        W 9380  27.114  40.586   1.213
37055W        W 9381   7.726   8.360   4.654
37056W        W 9382   9.543  38.371  12.452
37057W        W 9383   3.194  11.615   1.374
37058W        W 9384  20.455   0.930   1.280
37059W        W 9385  32.236  28.384  10.819
37060W        W 9386   3.914  15.592  14.823
37061W        W 9387   3.671  30.778  14.508
37062W        W 9388  24.681  11.392  13.956
37063W        W 9389   4.811  23.538  11.499
37064W        W 9390   6.925  11.831  12.133
37065W        W 9391  37.937  12.958   1.322
37066W        W 9392  19.568  36.023   4.278
37067W        W 9393  32.469  27.350   3.676
37068W        W 9394  34.663  14.929  12.103
37069W        W 9395   8.762  18.562  12.762
37070W        W 9396  26.515  15.270  11.244
37071W        W 9397  18.999   8.125   1.992
37072W        W 9398  30.869  38.852  10.646
37073W        W 9399   3.142   0.782  14.128
37074W        W 9400  27.037  37.116  12.400
37075W        W 9401  40.047  38.961  11.576
37076W        W 9402  18.521  33.761   3.278
37077W        W 9403  33.566   3.882   1.884
37078W        W 9404   4.070   1.297  10.571
37079W        W 9405  11.141  10.684   2.744
37080W        W 9406  22.641  27.953  12.499
37081W        W 9407  34.887  13.724  13.403
37082W        W 9408  20.263  16.524   2.337
37083W        W 9409  36.482  13.317  11.683
37084W        W 9410  32.753  27.255   0.004
37085W        W 9411  11.867  35.594   1.124
37086W        W 9412  14.748  43.634  14.538
37087W        W 9413  21.745  26.988   2.268
37088W        W 9414  15.922  29.555   3.111
37089W        W 9415  25.569  35.916  14.387
37090W        W 9416   9.013  31.806   5.069
37091W        W 9417  36.533   1.495  14.200
37092W        W 9418   2.169  39.500   2.363
37093W        W 9419  24.318  17.198   5.026
37094W        W 9420  34.852  36.515  14.917
37095W        W 9421  33.600   0.343  11.729
37096W        W 9422   7.157  27.801  10.491
37097W        W 9423   0.539  36.409  12.618
37098W        W 9424  10.085  32.617   4.872
37099W        W 9425  18.895  20.804   3.690
37100W        W 9426  19.853  21.626  10.743
37101W        W 9427  27.188  19.486  12.036
37102W        W 9428  10.157   6.961   2.350
37103W        W 9429  23.236  23.540   1.675
37104W        W 9430   4.185  12.846  13.154
37105W        W 9431  31.565  17.535   3.224
37106W        W 9432  41.953  25.877   1.773
37107W        W 9433  26.770   1.452   0.591
37108W        W 9434  39.587  37.307   0.516
37109W        W 9435  23.772  34.356   0.038
37110W        W 9436  15.261  42.477  10.359
37111W        W 9437   2.539  21.215  12.194
37112W        W 9438   2.786  26.591  13.807
37113W        W 9439  31.422   7.914   4.792
37114W        W 9440  24.010  27.442  12.511
37115W        W 9441  31.315  40.493   0.198
37116W        W 9442  40.405  39.267   1.912
37117W        W 9443  42.422  25.210  12.589
37118W        W 9444   3.271   2.357  12.041
37119W        W 9445   1.222  43.433  12.446
37120W        W 9446  18.851   5.780  10.284
37121W        W 9447  31.914  13.895  12.015
37122W        W 9448  22.535  40.154   5.574
37123W        W 9449  32.520   4.100   4.663
37124W        W 9450  18.865  29.559  11.077
37125W        W 9451  34.401  26.170  12.294
37126W        W 9452  18.921  20.085  12.095
37127W        W 9453  27.237  35.000   4.408
37128W        W 9454  42.233   5.654  13.900
37129W        W 9455   4.173  38.419  14.970
37130W        W 9456  10.853   7.573  14.888
37131W        W 9457  33.798  32.479   5.060
37132W        W 9458   8.240  17.395  14.607
37133W        W 9459  11.342  35.380   9.811
37134W        W 9460   1.375  29.582  11.149
37135W        W 9461   2.317   6.645  14.426
37136W        W 9462   5.665  42.319  11.611
37137W        W 9463  16.763  26.679  12.134
37138W        W 9464  12.730  13.882  13.970
37139W        W 9465  26.501  33.357   2.286
37140W        W 9466  41.902  35.212  12.862
37141W        W 9467  19.663  27.133  14.361
37142W        W 9468   3.825   6.586   3.221
37143W        W 9469  23.775  24.562  11.427
37144W        W 9470  15.724   2.286   1.886
37145W        W 9471  44.530  39.540  11.031
37146W        W 9472  20.163  13.234   4.704
37147W        W 9473  38.124   3.547   4.989
37148W        W 9474  42.542   3.847  13.929
37149W        W 9475   3.473  36.177  13.822
37150W        W 9476  37.166   3.867  14.449
37151W        W 9477  19.788  25.968  10.504
37152W        W 9478  36.720  21.654   2.299
37153W        W 9479   5.601  27.250  13.939
37154W        W 9480  31.866  29.634  13.391
37155W        W 9481   3.423  24.749  12.550
37156W        W 9482   6.994  12.626   3.718
37157W        W 9483  38.778  28.489   1.920
37158W        W 9484  30.670  16.242   1.922
37159W        W 9485   8.659   9.789   1.782
37160W        W 9486  38.336  41.161   2.337
37161W        W 9487  38.261  16.590  14.912
37162W        W 9488  11.415  15.150   4.548
37163W        W 9489  37.260  44.298   1.920
37164W        W 9490  23.276  43.628  11.260
37165W        W 9491  37.088  38.405  11.982
37166W        W 9492  20.504   8.750   4.004
37167W        W 9493  22.040  33.027  14.259
37168W        W 9494   7.065  30.591  13.854
37169W        W 9495  14.567  34.309  13.455
37170W        W 9496   1.936  25.583   2.346
37171W        W 9497   8.414  16.895  11.286
37172W        W 9498  16.484   5.919  14.375
37173W        W 9499   3.367  32.564   1.848
37174W        W 9500  38.971  18.540  11.049
37175W        W 9501  11.819   3.022  11.159
37176W        W 9502  24.037   4.920   4.665
37177W        W 9503   2.381  19.274   3.172
37178W        W 9504  37.678   5.529  11.372
37179W        W 9505  11.728  43.161   4.605
37180W        W 9506  32.667  17.273  12.898
37181W        W 9507   2.312  39.211  13.852
37182W        W 9508  42.900  41.505  14.577
37183W        W 9509  35.567   5.366  10.920
37184W        W 9510  29.782  23.612   0.347
37185W        W 9511  12.847  20.676   0.259
37186W        W 9512  13.186  42.150   2.663
37187W        W 9513  17.833   4.300  12.607
37188W        W 9514  14.452  39.857  12.737
37189W        W 9515  30.371  18.294   3.639
37190W        W 9516   3.872  14.672   1.690
37191W        W 9517  26.995  38.114  13.638
37192W        W 9518   0.864  17.163   4.286
37193W        W 9519  34.909  32.893  10.617
37194W        W 9520  36.111  18.595  13.961
37195W        W 9521   7.856  22.491   2.818
37196W        W 9522  33.046  16.388   2.024
37197W        W 9523  39.541  31.073  11.576
37198W        W 9524   5.270  11.300   2.828
37199W        W 9525  14.081  13.460   3.258
37200W        W 9526  14.782  31.703   2.385
37201W        W 9527  36.368  22.598   4.733
37202W        W 9528  25.211  10.618   2.587
37203W        W 9529  37.086   3.970  11.605
37204W        W 9530  12.382  15.201  13.546
37205W        W 9531   2.312  40.895  11.427
37206W        W 9532  33.901   8.341  13.462
37207W        W 9533  14.515  24.680   0.683
37208W        W 9534   0.345  34.066  14.317
37209W        W 9535  23.973  37.391  11.522
37210W        W 9536  20.602  19.789  13.064
37211W        W 9537   9.188   8.843   0.437
37212W        W 9538  35.454  16.159  14.829
37213W        W 9539   5.592  12.768  11.828
37214W        W 9540  17.033  23.960   2.695
37215W        W 9541   1.249  17.115   3.732
37216W        W 9542  11.616  24.437   5.140
37217W        W 9543  43.835  35.155   4.561
37218W        W 9544   1.951  43.235  10.569
37219W        W 9545  31.597   5.780   1.257
37220W        W 9546  36.586   3.770  10.419
37221W        W 9547  20.286  41.025   0.966
37222W        W 9548  22.243  34.384   2.173
37223W        W 9549   9.344  29.672   1.753
37224W        W 9550   8.184  32.667  11.548
37225W        W 9551  12.373  15.570  10.996
37226W        W 9552  26.509  19.160   1.142
37227W        W 9553  22.605  26.234  11.657
37228W        W 9554   6.894  38.975  13.603
37229W        W 9555   1.771  43.484   4.419
37230W        W 9556  18.627  41.307   3.226
37231W        W 9557  17.289  26.022  11.171
37232W        W 9558  22.002  44.362   0.396
37233W        W 9559  14.434  41.489   1.621
37234W        W 9560  24.832  16.620  10.223
37235W        W 9561  27.974  31.598   5.130
37236W        W 9562  39.012  44.751  13.468
37237W        W 9563   8.258  29.507   4.718
37238W        W 9564  22.264   8.351  11.248
37239W        W 9565  34.403   9.739  14.758
37240W        W 9566  33.163  11.696   0.769
37241W        W 9567  18.827  44.023   4.696
37242W        W 9568  27.511   5.357   0.974
37243W        W 9569  11.885  43.212  13.366
37244W        W 9570  11.864   4.900  11.169
37245W        W 9571  36.937  35.389  13.914
37246W        W 9572  14.779  14.749  14.958
37247W        W 9573  34.034  11.928   0.729
37248W        W 9574  25.746  44.656   3.562
37249W        W 9575  28.099   8.861   9.721
37250W        W 9576  13.586  39.035  11.141
37251W        W 9577  10.598  43.832   2.276
37252W        W 9578  25.018  20.752   4.251
37253W        W 9579  43.950   5.525   0.799
37254W        W 9580  13.295  33.168  13.865
37255W        W 9581  12.601  23.756  11.929
37256W        W 9582  22.571  18.634  12.899
37257W        W 9583   7.275  14.794  11.412
37258W        W 9584   2.759  24.977  12.560
37259W        W 9585   6.253  14.275  13.369
37260W        W 9586  43.997  15.053   3.803
37261W        W 9587  14.298  35.356   4.561
37262W        W 9588  23.244   4.336   0.428
37263W        W 9589   7.288  30.968  14.848
37264W        W 9590  16.127  20.671  13.217
37265W        W 9591  13.810   2.060  14.433
37266W        W 9592   7.977  30.620   4.025
37267W        W 9593  10.231  12.762   0.356
37268W        W 9594   4.449  20.836  13.156
37269W        W 9595   5.781  38.753  14.819
37270W        W 9596  39.531  15.045   1.903
37271W        W 9597  31.997  10.504   3.761
37272W        W 9598  10.696  38.385  12.153
37273W        W 9599   1.943  35.158   4.776
37274W        W 9600  10.596   2.002   3.775
37275W        W 9601   5.159  42.925  11.488
37276W        W 9602  38.812  16.964  13.854
37277W        W 9603  43.424  28.446   2.952
37278W        W 9604  30.802  43.146  13.213
37279W        W 9605  27.092  21.451  13.813
37280W        W 9606   7.857  42.816  13.633
37281W        W 9607   5.979  20.259  13.459
37282W        W 9608  35.078  27.224   0.778
37283W        W 9609  25.146  34.867   1.763
37284W        W 9610   4.967  21.965   4.060
37285W        W 9611  11.267  18.752  10.773
37286W        W 9612  29.548  12.352   0.762
37287W        W 9613  35.161   1.661   1.488
37288W        W 9614  39.006  10.616   3.207
37289W        W 9615  25.981  31.538  12.585
37290W        W 9616  39.980  10.835  14.776
37291W        W 9617   4.134  43.477   1.387
37292W        W 9618  35.653  23.225  11.808
37293W        W 9619  42.933  21.246  14.434
37294W        W 9620   0.865   3.525  11.686
37295W        W 9621  26.046  34.214  12.062
37296W        W 9622  25.683   9.237  10.699
37297W        W 9623  12.279  23.151  12.044
37298W        W 9624  20.260   7.678   3.729
37299W        W 9625   7.859   2.202  13.495
37300W        W 9626  43.420  12.551  11.910
37301W        W 9627   7.205  41.407  14.925
37302W        W 9628  33.002  42.895   3.243
37303W        W 9629  32.880   8.797  10.712
37304W        W 9630   4.893  38.897  14.689
37305W        W 9631  28.967  33.122  12.051
37306W        W 9632  35.812  33.923   3.756
37307W        W 9633  34.537  18.328   2.324
37308W        W 9634  42.567  18.545   3.419
37309W        W 9635   5.283  22.969  12.844
37310W        W 9636  17.802  39.926   4.577
37311W        W 9637   4.211   5.282  14.889
37312W        W 9638   3.469  30.559  13.544
37313W        W 9639  35.838   2.782   0.819
37314W        W 9640   5.531   9.559  13.950
37315W        W 9641  36.796  23.657  10.723
37316W        W 9642  38.124  20.530  13.926
37317W        W 9643  44.436  18.180   3.396
37318W        W 9644  38.676  34.894   2.741
37319W        W 9645  13.235  42.521  14.398
37320W        W 9646  15.176  13.811   2.512
37321W        W 9647   5.423  37.945  14.969
37322W        W 9648  12.341   1.807  14.585
37323W        W 9649  34.901  17.232  14.833
37324W        W 9650  28.588  41.223  13.797
37325W        W 9651  27.489  24.595   2.819
37326W        W 9652  34.179  18.285  13.578
37327W        W 9653  27.456  39.402   2.635
37328W        W 9654  19.777  24.403  13.346
37329W        W 9655  16.418  34.456   0.495
37330W        W 9656   1.360  38.539  10.916
37331W        W 9657   0.431  13.379  12.169
37332W        W 9658  14.009  36.673   2.401
37333W        W 9659   8.644  19.884   0.376
37334W        W 9660  37.167   1.221   3.301
37335W        W 9661  34.457  33.999  14.302
37336W        W 9662  13.073  40.402   1.857
37337W        W 9663   9.680   9.321   3.441
37338W        W 9664  42.852  33.536   3.826
37339W        W 9665   5.289  33.820  10.572
37340W        W 9666  25.579   6.262   0.696
37341W        W 9667   4.009  32.975  10.896
37342W        W 9668   1.514  29.044   4.767
37343W        W 9669  43.480  38.366   4.165
37344W        W 9670   8.085   3.315   3.280
37345W        W 9671  18.359  35.999   0.323
37346W        W 9672  17.347  24.604  12.036
37347W        W 9673  38.253  40.353   4.285
37348W        W 9674  33.420  35.304   5.580
37349W        W 9675  29.415  44.369   2.173
37350W        W 9676  12.286   2.446  10.708
37351W        W 9677  23.533  40.475   2.027
37352W        W 9678  26.579  22.145   2.307
37353W        W 9679  19.714  14.077  13.443
37354W        W 9680  42.619  26.033  11.661
37355W        W 9681  33.887  42.246  10.789
37356W        W 9682  28.828  19.976   1.919
37357W        W 9683   7.364   5.006  13.083
37358W        W 9684   1.138   4.155  10.231
37359W        W 9685  19.732   7.429   1.864
37360W        W 9686  29.043   8.729  13.044
37361W        W 9687  20.256  41.821   0.433
37362W        W 9688  39.979  43.802   4.479
37363W        W 9689  24.745  10.413   2.808
37364W        W 9690  15.816  11.261  12.274
37365W        W 9691   2.725  42.556   1.203
37366W        W 9692   2.521   5.836   3.777
37367W        W 9693   8.642  36.065   0.279
37368W        W 9694  30.367  14.290   1.408
37369W        W 9695  12.760  32.929   3.129
37370W        W 9696   4.921  43.074   4.114
37371W        W 9697  10.624  15.725  12.361
37372W        W 9698   7.372  21.726   4.677
37373W        W 9699  26.174  15.722   2.327
37374W        W 9700  41.741   4.835   1.935
37375W        W 9701   0.985  37.126   2.626
37376W        W 9702  32.108  33.509  12.385
37377W        W 9703  11.619  23.111   2.757
37378W        W 9704  33.041  31.570   4.893
37379W        W 9705  24.097   9.162   0.674
37380W        W 9706  33.343   5.205  11.165
37381W        W 9707  32.946  35.344   2.671
37382W        W 9708  40.993  25.958   3.333
37383W        W 9709  14.834  31.997  11.401
37384W        W 9710  35.019  18.984  12.011
37385W        W 9711   5.316  17.882   0.802
37386W        W 9712   6.779  37.512  11.633
37387W        W 9713  38.922  25.745   0.828
37388W        W 9714  12.310  36.120  12.853
37389W        W 9715  38.568  41.468   2.788
37390W        W 9716  29.407  10.216  14.766
37391W        W 9717   4.788  28.729   4.534
37392W        W 9718   8.252  34.373  11.140
37393W        W 9719  23.631  37.547   3.607
37394W        W 9720  10.797  14.077   1.221
37395W        W 9721  40.924  42.559  10.764
37396W        W 9722  41.359  35.375  12.406
37397W        W 9723  17.224  24.103  10.729
37398W        W 9724   6.333  28.619  12.955
37399W        W 9725  15.159  37.866  14.502
37400W        W 9726  14.133  29.021   0.863
37401W        W 9727  36.875  19.649  13.614
37402W        W 9728  23.949   1.436   3.681
37403W        W 9729  32.801   7.350  13.103
37404W        W 9730  20.248  11.772   3.867
37405W        W 9731  18.355  44.035   4.473
37406W        W 9732  40.181  37.898   4.931
37407W        W 9733  26.745  20.536   3.770
37408W        W 9734  37.348  43.747  11.978
37409W        W 9735  28.411  44.338   2.333
37410W        W 9736   1.967  32.311   1.361
37411W        W 9737  34.412  30.242   1.270
37412W        W 9738  18.293  42.627  13.158
37413W        W 9739  31.073  22.029   2.793
37414W        W 9740   0.240   3.878  11.767
37415W        W 9741  10.801  33.545  14.753
37416W        W 9742  25.776  11.094   2.334
37417W        W 9743   2.456  39.208  12.387
37418W        W 9744  13.556  36.534  14.194
37419W        W 9745  23.752   2.187   2.716
37420W        W 9746  30.070  19.252  14.538
37421W        W 9747  21.000  30.549   0.540
37422W        W 9748  15.295   9.596  13.384
37423W        W 9749  14.594  14.037   1.660
37424W        W 9750  24.092  19.051  10.425
37425W        W 9751  19.261  24.533  14.112
37426W        W 9752  35.144  39.037   4.105
37427W        W 9753  12.663  43.271   1.397
37428W        W 9754   2.863   0.802   3.296
37429W        W 9755  17.159  10.622  11.438
37430W        W 9756  39.928  36.814   3.176
37431W        W 9757  15.116  39.050   2.674
37432W        W 9758  41.318  19.622   0.952
37433W        W 9759  33.410   4.810  13.981
37434W        W 9760  10.129  43.542  13.389
37435W        W 9761  23.650  27.241   1.132
37436W        W 9762   5.356  30.420  11.124
37437W        W 9763  15.307  21.234   9.611
37438W        W 9764  34.776  34.058   4.604
37439W        W 9765  13.270  26.649  11.832
37440W        W 9766  19.122   8.946  13.444
37441W        W 9767  44.882  43.733  13.440
37442W        W 9768  37.639  12.794  12.454
37443W        W 9769  25.033   7.992   1.814
37444W        W 9770  18.748  19.003  11.132
37445W        W 9771  25.400  15.733  14.809
37446W        W 9772  16.187  19.846  11.556
37447W        W 9773   6.611  13.674  14.415
37448W        W 9774  35.054   7.723   2.694
37449W        W 9775  31.113  33.035  11.361
37450W        W 9776  20.224  29.923   3.743
37451W        W 9777  21.256  34.127   3.226
37452W        W 9778  34.349  25.740   0.403
37453W        W 9779  26.734   0.868  13.462
37454W        W 9780  38.480  31.384  13.902
37455W        W 9781  15.278  30.460  11.056
37456W        W 9782  20.405   7.292   9.853
37457W        W 9783   4.693  41.399  14.867
37458W        W 9784  22.620  14.005   0.720
37459W        W 9785  18.444  10.730   0.990
37460W        W 9786   0.866   5.598   2.328
37461W        W 9787  31.917  28.208  12.519
37462W        W 9788  37.545  29.953   0.553
37463W        W 9789  22.704   9.174   0.391
37464W        W 9790  13.783   2.714   1.548
37465W        W 9791   7.463  40.550   2.356
37466W        W 9792  15.326  14.785  12.584
37467W        W 9793  22.751  12.345   2.270
37468W        W 9794  33.326  27.590   0.891
37469W        W 9795  36.790  39.409  13.880
37470W        W 9796  35.498  27.722  12.724
37471W        W 9797  28.217  16.248   0.039
37472W        W 9798  20.165   0.267  12.369
37473W        W 9799  38.257  36.621  11.663
37474W        W 9800  29.479  13.603  14.250
37475W        W 9801   7.142  26.369  13.244
37476W        W 9802  28.975  22.085  10.650
37477W        W 9803  25.624  12.809  11.571
37478W        W 9804  25.348  21.686   1.825
37479W        W 9805  36.616  34.450   1.741
37480W        W 9806  39.525  31.095   3.226
37481W        W 9807  34.923  28.393  14.945
37482W        W 9808  37.934  23.619  14.318
37483W        W 9809  26.564   1.306   1.039
37484W        W 9810  42.978  13.238   0.593
37485W        W 9811   0.920  17.381  11.878
37486W        W 9812   1.227  18.648   3.096
37487W        W 9813  37.920  25.411  11.030
37488W        W 9814   5.854  30.901  10.682
37489W        W 9815  21.789  28.167   2.750
37490W        W 9816  32.851  44.952   1.356
37491W        W 9817  31.022  24.610  11.901
37492W        W 9818  29.641  11.712   2.309
37493W        W 9819  21.154  11.630  10.582
37494W        W 9820  36.544  31.353   1.835
37495W        W 9821  13.199  24.015   1.467
37496W        W 9822  16.707  20.311   2.167
37497W        W 9823  40.921   9.692   4.855
37498W        W 9824   1.223  27.888  13.230
37499W        W 9825  35.823  33.645  14.387
37500W        W 9826  32.626  37.023   4.666
37501W        W 9827  14.537   7.896  14.838
37502W        W 9828  15.562  17.166   2.184
37503W        W 9829   1.907   3.616   3.750
37504W        W 9830   3.776   6.935  11.143
37505W        W 9831  15.386  43.975  11.912
37506W        W 9832  42.959  17.387  14.805
37507W        W 9833  14.594  33.857  12.509
37508W        W 9834  21.179  11.293   1.845
37509W        W 9835  38.044  29.953   4.187
37510W        W 9836  11.904   5.650   0.250
37511W        W 9837  25.240  39.234  13.329
37512W        W 9838  40.697  22.429   1.312
37513W        W 9839  11.094   3.363   2.371
37514W        W 9840  43.783  16.602   0.746
37515W        W 9841   5.274  32.582  14.310
37516W        W 9842  30.141   3.381   0.813
37517W        W 9843  39.770  33.978  14.928
37518W        W 9844  36.085  11.279   1.197
37519W        W 9845  27.734  39.763   1.362
37520W        W 9846  29.107  34.162  10.678
37521W        W 9847  14.213   0.466   2.706
37522W        W 9848  17.161   1.926  11.543
37523W        W 9849  26.194  28.463  11.519
37524W        W 9850  13.329  25.050   1.871
37525W        W 9851  44.576  19.779   2.858
37526W        W 9852  34.709  32.666  11.692
37527W        W 9853  17.250  43.428   3.237
37528W        W 9854  25.404  13.385   2.218
37529W        W 9855  12.295   1.864   0.841
37530W        W 9856  15.049  24.058  12.447
37531W        W 9857  11.229  27.880  11.181
37532W        W 9858  30.675  43.510   0.533
37533W        W 9859  39.058  10.927  11.191
37534W        W 9860  25.872   3.298  13.403
37535W        W 9861  28.433  24.871  10.510
37536W        W 9862  19.466  19.260   3.912
37537W        W 9863  21.247   4.971  11.585
37538W        W 9864   2.493  31.541  13.419
37539W        W 9865  27.318   8.356   0.610
37540W        W 9866  42.720  42.004  11.096
37541W        W 9867  18.130  15.236  10.585
37542W        W 9868  19.947  27.491  11.058
37543W        W 9869   1.199  38.394   4.658
37544W        W 9870   8.694  44.305  10.639
37545W        W 9871  20.664   9.375   3.294
37546W        W 9872   3.718  35.943   4.990
37547W        W 9873  30.456  35.280   4.647
37548W        W 9874  17.124  34.972   2.905
37549W        W 9875  25.075   2.319  12.593
37550W        W 9876  19.973  22.054   2.338
37551W        W 9877   8.682  20.279  12.532
37552W        W 9878  12.317  10.726   1.908
37553W        W 9879  40.200  34.319  12.042
37554W        W 9880  10.911  42.539  13.501
37555W        W 9881  39.511  10.312  11.594
37556W        W 9882   4.761  41.469  12.637
37557W        W 9883  14.158  21.506   0.205
37558W        W 9884  20.546  27.462   0.720
37559W        W 9885  21.076  34.978  11.569
37560W        W 9886  33.090   4.751  14.471
37561W        W 9887   7.020   7.380   0.322
37562W        W 9888  20.081   0.196  11.100
37563W        W 9889  33.311  36.106   5.132
37564W        W 9890  41.197  12.115  14.358
37565W        W 9891  42.298  29.220   3.189
37566W        W 9892  13.388  33.811  11.138
37567W        W 9893   3.155  36.144  12.272
37568W        W 9894   9.894  34.999   3.078
37569W        W 9895   3.919  34.923  12.840
37570W        W 9896  39.634  36.474   1.653
37571W        W 9897  41.326   3.287   1.725
37572W        W 9898  35.871  38.419  11.920
37573W        W 9899  19.580   3.838  11.548
37574W        W 9900   9.818  39.114  12.077
37575W        W 9901  39.789  37.692  11.564
37576W        W 9902  24.551  40.045   0.443
37577W        W 9903  35.101  44.464   2.946
37578W        W 9904   1.186   0.138   2.207
37579W        W 9905  39.423  27.616   1.936
37580W        W 9906   7.664   0.029  10.667
37581W        W 9907  44.337  19.718  10.891
37582W        W 9908   7.198   5.091  13.690
37583W        W 9909   1.099   3.808  14.318
37584W        W 9910  26.395  40.898   1.432
37585W        W 9911   8.405   5.768  13.973
37586W        W 9912  30.241  39.881  12.864
37587W        W 9913  28.602  25.674   4.751
37588W        W 9914  43.858  21.626  13.079
37589W        W 9915  16.546  44.302  13.894
37590W        W 9916   3.128  32.369  13.109
37591W        W 9917  24.292  31.157   1.514
37592W        W 9918  34.399  32.108   0.409
37593W        W 9919  41.489   0.334  13.508
37594W        W 9920  39.465  29.077   4.560
37595W        W 9921  22.991  21.273  11.634
37596W        W 9922  11.879  35.616  14.100
37597W        W 9923  10.392  42.510   2.450
37598W        W 9924  39.446  17.120   2.209
37599W        W 9925   3.279  35.279   0.952
37600W        W 9926  30.676   0.895  10.262
37601W        W 9927  37.147  25.006  12.063
37602W        W 9928  23.535  29.286  13.104
37603W        W 9929  21.215  15.239  13.312
37604W        W 9930  28.247  38.451  11.719
37605W        W 9931  18.610  13.682  13.624
37606W        W 9932  30.689   3.358   4.341
37607W        W 9933  41.573   1.342   1.273
37608W        W 9934  25.302  22.326  14.271
37609W        W 9935  38.270  14.270   4.233
37610W        W 9936  11.645  41.166   4.199
37611W        W 9937  40.023  41.906   1.760
37612W        W 9938  22.492  38.474   2.655
37613W        W 9939  15.239  15.619  12.873
37614W        W 9940   4.683  20.064   0.731
37615W        W 9941  38.003  22.473  11.119
37616W        W 9942   2.287  41.069  14.405
37617W        W 9943  25.712  39.569   4.603
37618W        W 9944  33.343   5.226  14.471
37619W        W 9945  18.651  38.384   3.658
37620W        W 9946   2.354  42.465   2.334
37621W        W 9947  17.222  31.098  10.598
37622W        W 9948  44.357  30.103   4.676
37623W        W 9949   9.274  41.398   5.027
37624W        W 9950  17.010  33.972  11.580
37625W        W 9951  30.906  44.837  11.077
37626W        W 9952  29.957  43.273  14.515
37627W        W 9953  42.420  24.214  11.634
37628W        W 9954   3.078  31.144  14.064
37629W        W 9955  31.635  28.976   1.390
37630W        W 9956  31.616  22.193  14.081
37631W        W 9957  24.361  42.940   3.003
37632W        W 9958   8.674  22.481   1.328
37633W        W 9959  21.905  22.893   1.611
37634W        W 9960  30.530  20.078  11.038
37635W        W 9961   6.101  36.340  14.804
37636W        W 9962  31.219  21.032   3.417
37637W        W 9963  43.659   6.835   1.206
37638W        W 9964  42.964  19.542  14.060
37639W        W 9965  18.258  38.420   4.018
37640W        W 9966   1.082  15.888   0.955
37641W        W 9967   8.767  28.959  12.083
37642W        W 9968  21.513  24.032   4.305
37643W        W 9969   2.664  10.137   1.255
37644W        W 9970  21.622   8.436  14.957
37645W        W 9971  37.804  42.923  11.936
37646W        W 9972  20.502  35.331   0.674
37647W        W 9973  41.890  19.925   4.199
37648W        W 9974  35.854  21.216  14.968
37649W        W 9975  10.619  12.328   2.620
37650W        W 9976  42.226  17.152  12.063
37651W        W 9977  33.449  24.155   2.820
37652W        W 9978   7.252  24.490   3.151
37653W        W 9979  28.924   5.503  13.895
37654W        W 9980   1.732   7.131  10.451
37655W        W 9981  12.753  25.665   4.411
37656W        W 9982  35.133   2.738  10.602
37657W        W 9983   8.076   8.872  12.502
37658W        W 9984   4.269  41.713  11.690
37659W        W 9985  34.923  20.583   0.407
37660W        W 9986  21.057  39.555   4.580
37661W        W 9987  40.392  17.255   4.923
37662W        W 9988   2.511  29.231   0.243
37663W        W 9989  33.581  33.170  11.014
37664W        W 9990  44.938  27.516   1.688
37665W        W 9991  24.187  16.724   2.223
37666W        W 9992  13.599  38.906  12.402
37667W        W 9993  41.213  12.297   3.429
37668W        W 9994  40.366  26.201  13.592
37669W        W 9995  32.280  43.743  11.287
37670W        W 9996  15.899  37.494  14.321
37671W        W 9997  18.275  36.890  14.912
37672W        W 9998   6.759  12.748  12.321
37673W        W 9999  39.434  13.370  13.321
37674W        W10000  38.443  21.958   0.823
37675W        W10001   0.165  18.680   3.630
37676W        W10002  35.322  17.148  12.423
37677W        W10003  25.637   4.701  10.449
37678W        W10004  16.595  23.426  11.925
37679W        W10005  20.329   3.032  12.503
37680W        W10006   5.756  28.446  13.078
37681W        W10007  25.898  12.647  10.642
37682W        W10008  10.360  41.805   2.895
37683W        W10009   2.440  22.053   1.919
37684W        W10010  15.528  24.677  12.953
37685W        W10011  17.319  13.183   4.299
37686W        W10012  44.581  10.614   3.190
37687W        W10013  25.411  38.867  14.262
37688W        W10014  25.672   7.868  12.488
37689W        W10015  22.644  33.115   0.438
37690W        W10016  16.854  38.431  14.445
37691W        W10017  12.230   0.334  13.989
37692W        W10018  34.143  17.156  13.011
37693W        W10019   4.279  38.601  13.594
37694W        W10020  16.027  19.167   3.651
37695W        W10021  38.777   2.244   1.897
37696W        W10022  29.426  28.695   3.904
37697W        W10023  28.550  12.537  11.493
37698W        W10024  10.857  15.535  12.817
37699W        W10025  40.817   0.845  14.196
37700W        W10026  18.677   3.903   3.981
37701W        W10027  11.587   0.200   0.753
37702W        W10028  16.860   3.208   4.102
37703W        W10029   0.702  25.957   2.849
37704W        W10030  42.970   9.097   2.437
37705W        W10031   6.286  25.410   5.062
37706W        W10032  32.003  37.407   2.729
37707W        W10033  44.097   3.180   4.624
37708W        W10034  40.440  17.056   1.365
37709W        W10035  12.704  33.506   9.891
37710W        W10036  29.029  20.324   3.820
37711W        W10037  17.792  16.139   0.906
37712W        W10038  33.596   7.912   1.415
37713W        W10039  29.932   8.817  11.168
37714W        W10040   5.120  41.289  10.673
37715W        W10041  16.114  36.909  11.392
37716W        W10042  14.698   6.428  12.547
37717W        W10043  10.728  22.798   4.533
37718W        W10044  37.819  23.017   0.490
37719W        W10045  42.223  17.826  14.635
37720W        W10046  32.855  39.910  14.845
37721W        W10047  37.260  25.377  13.442
37722W        W10048  24.578  44.599   3.503
37723W        W10049  12.963   4.193  11.016
37724W        W10050  36.912   3.298  11.471
37725W        W10051  44.031   2.990  14.582
37726W        W10052  36.633  26.743   1.288
37727W        W10053  43.628  21.905   2.237
37728W        W10054  10.231   0.240   0.733
37729W        W10055  12.603  35.183  10.381
37730W        W10056  38.600  32.044   1.366
37731W        W10057  35.928  38.503  14.487
37732W        W10058   4.296   6.624  11.866
37733W        W10059  39.063  20.828   0.610
37734W        W10060  27.532   0.971   4.641
37735W        W10061  14.179   6.755   2.932
37736W        W10062   4.435  36.588  13.560
37737W        W10063  14.143  10.892   1.361
37738W        W10064   0.397   5.624  13.828
37739W        W10065  17.319  28.449   1.727
37740W        W10066  30.773  40.314  13.956
37741W        W10067  21.746   2.315   2.184
37742W        W10068  17.546  23.000  12.183
37743W        W10069  43.993  29.647   3.133
37744W        W10070   1.014  26.932   0.875
37745W        W10071  12.589  37.945  13.522
37746W        W10072  42.441  31.472   0.009
37747W        W10073  37.252  24.486   4.641
37748W        W10074  44.034   2.280  11.039
37749W        W10075  41.357  25.708   2.341
37750W        W10076   4.455  34.213  12.991
37751W        W10077  15.734   5.001  13.018
37752W        W10078  31.876  22.900   3.806
37753W        W10079  44.284  37.647   1.357
37754W        W10080  15.709  33.428  13.800
37755W        W10081  28.628  26.571  13.635
37756W        W10082  40.040  38.185  11.424
37757W        W10083  31.920  43.948   2.679
37758W        W10084  22.754  36.956  12.987
37759W        W10085  34.294  37.883   3.733
37760W        W10086  25.707  39.209  12.428
37761W        W10087  10.260  35.471  12.602
37762W        W10088  31.354  22.604  12.037
37763W        W10089  44.391  40.748   4.530
37764W        W10090  10.192  40.295   2.254
37765W        W10091  41.245  27.636  11.452
37766W        W10092  13.645   1.826  12.627
37767W        W10093  15.074  19.239  13.938
37768W        W10094  43.001   8.406   2.957
37769W        W10095  23.484  44.000   3.646
37770W        W10096   6.206  34.905   3.270
37771W        W10097  21.213  16.623  14.579
37772W        W10098  12.154  14.529  13.868
37773W        W10099  31.616  28.581   4.332
37774W        W10100  18.536  26.252   2.243
37775W        W10101  17.195   8.302  11.490
37776W        W10102  22.188  20.146   1.204
37777W        W10103  33.707  25.927  11.515
37778W        W10104  15.269  28.046  14.393
37779W        W10105   0.797  15.078  14.834
37780W        W10106  44.579   0.444   0.756
37781W        W10107  17.142   8.307  10.572
37782W        W10108   5.354  28.397  11.631
37783W        W10109  37.860   1.672  11.238
37784W        W10110   6.217  30.172  10.597
37785W        W10111   6.352   6.205   3.855
37786W        W10112  32.224   4.414  13.501
37787W        W10113  30.010  11.698  14.458
37788W        W10114  43.927   7.700  11.245
37789W        W10115  15.412  22.248   1.657
37790W        W10116  27.917   0.272  10.242
37791W        W10117  12.681  23.187   1.335
37792W        W10118  39.372  26.255  11.162
37793W        W10119  26.104   7.175  14.475
37794W        W10120  35.519  18.529   0.512
37795W        W10121   8.678  22.694   4.136
37796W        W10122  39.355  21.273   1.450
37797W        W10123  12.204  20.832   1.225
37798W        W10124  41.572   7.551   4.305
37799W        W10125  44.206  21.161   3.202
37800W        W10126  15.552   4.306   0.261
37801W        W10127  40.451  41.495  11.206
37802W        W10128  29.646  22.669   2.424
37803W        W10129   6.621  25.668   2.729
37804W        W10130  29.116   5.508   2.290
37805W        W10131  30.971  21.568   4.253
37806W        W10132   3.746  30.126   0.308
37807W        W10133  11.116  36.956  14.207
37808W        W10134  40.432   2.615  13.829
37809W        W10135  14.281   4.743  14.877
37810W        W10136  14.733   3.099   4.559
37811W        W10137  10.119   5.364   1.259
37812W        W10138  11.667   1.973   2.893
37813W        W10139   4.636  38.086  12.784
37814W        W10140  26.232   0.336   3.434
37815W        W10141  13.361  20.198  13.335
37816W        W10142  24.188  25.404  10.240
37817W        W10143  41.371  27.313  14.267
37818W        W10144  32.472  38.557   3.330
37819W        W10145  33.097  37.900   1.320
37820W        W10146  14.330  25.720   4.778
37821W        W10147  18.765  13.888   3.695
37822W        W10148  33.269  37.373  11.001
37823W        W10149   7.841   7.710  11.173
37824W        W10150  36.005   9.670   2.500
37825W        W10151   5.443  21.933   1.286
37826W        W10152  14.856  25.686   5.088
37827W        W10153  37.429   7.702  11.060
37828W        W10154   7.235   8.791   0.199
37829W        W10155  11.712  12.630  12.989
37830W        W10156  25.977  24.423   2.804
37831W        W10157  43.079   2.892   1.891
37832W        W10158  23.796  41.446  12.483
37833W        W10159  35.325  30.579  13.524
37834W        W10160  23.006  28.257   2.361
37835W        W10161  23.817  32.096  14.829
37836W        W10162  12.262   2.369  12.863
37837W        W10163  22.072  29.919  12.948
37838W        W10164  26.022  38.012  13.965
37839W        W10165   3.051  21.356   5.454
37840W        W10166   7.741  14.359  13.001
37841W        W10167  40.854  10.815   0.397
37842W        W10168  21.066  30.268   4.054
37843W        W10169  11.950  38.322   3.053
37844W        W10170  30.680  25.012  14.683
37845W        W10171  11.807   1.845  10.203
37846W        W10172  19.265  42.386  13.246
37847W        W10173   4.661  13.114  13.348
37848W        W10174  38.636  32.010  11.332
37849W        W10175  21.187  28.477   3.364
37850W        W10176  40.368  39.608   0.363
37851W        W10177  10.094  22.081  14.993
37852W        W10178   8.340  21.590  14.801
37853W        W10179   5.148  44.548   0.258
37854W        W10180  43.478   7.604  11.545
37855W        W10181  13.242   0.511   1.278
37856W        W10182   6.933  28.566  13.888
37857W        W10183  43.040   1.921   9.744
37858W        W10184  21.772   3.861  13.004
37859W        W10185  17.242  38.572  12.306
37860W        W10186   0.455  12.142  14.653
37861W        W10187   0.344  33.244  13.093
37862W        W10188  11.574  43.663   0.314
37863W        W10189  36.066   0.402   3.565
37864W        W10190  27.300  13.779   1.748
37865W        W10191  18.728   1.047   3.320
37866W        W10192   1.865   7.894  13.348
37867W        W10193  40.528  44.857   0.966
37868W        W10194  22.342  27.901  12.918
37869W        W10195   0.393  24.465   4.182
37870W        W10196  11.240   7.365   3.002
37871W        W10197   1.918  39.860  12.003
37872W        W10198  16.190   8.152  14.309
37873W        W10199  27.929  28.944  11.144
37874W        W10200  40.361  10.359  14.188
37875W        W10201   9.336  23.503  12.540
37876W        W10202   1.877  19.687  13.400
37877W        W10203  10.149  18.250   0.884
37878W        W10204  42.842  39.369  13.391
37879W        W10205  40.573  37.664   3.275
37880W        W10206   5.342  21.880   3.673
37881W        W10207   0.837  29.616   3.609
37882W        W10208  14.873  15.570  14.297
37883W        W10209  26.015  28.789   3.687
37884W        W10210  16.678   0.778   3.241
37885W        W10211   6.608  37.893  14.343
37886W        W10212  36.894  40.574   0.956
37887W        W10213  44.888  43.037  12.263
37888W        W10214  43.304  10.401   3.306
37889W        W10215   1.327   4.861   3.705
37890W        W10216  38.663   1.373  11.682
37891W        W10217  22.569  20.143  10.905
37892W        W10218  11.805   0.264  11.865
37893W        W10219   6.759   0.092  12.503
37894W        W10220  31.529  44.860  14.359
37895W        W10221   6.181  11.060   3.611
37896W        W10222  29.192  40.474   1.426
37897W        W10223  32.516  24.690  11.023
37898W        W10224  13.797  44.603  13.512
37899W        W10225   2.076  36.855  10.803
37900W        W10226   3.495  17.595   0.324
37901W        W10227  18.290  19.101   3.243
37902W        W10228  13.178  44.501   3.798
37903W        W10229  17.283  11.948   0.412
37904W        W10230   3.447   4.680   2.395
37905W        W10231   5.398  30.472   4.593
37906W        W10232   6.213  19.664   3.766
37907W        W10233  44.579   1.240  10.680
37908W        W10234  29.557  22.497  11.242
37909W        W10235   5.362  38.488   0.757
37910W        W10236  11.988  10.399   5.234
37911W        W10237  44.944  33.531  13.305
37912W        W10238  39.985  39.930   0.562
37913W        W10239  16.610   6.330  11.055
37914W        W10240  35.046  28.718   2.227
37915W        W10241  31.892  38.269  14.474
37916W        W10242   6.166  29.450   3.826
37917W        W10243  15.125   8.200   3.831
37918W        W10244  32.407   5.653  13.452
37919W        W10245   9.876  28.137   3.351
37920W        W10246  36.615  40.954   1.201
37921W        W10247  41.638  33.516  12.032
37922W        W10248  11.106   9.146   0.414
37923W        W10249   4.992  39.301   0.306
37924W        W10250  40.759  42.050   1.174
37925W        W10251  21.759   2.211   1.211
37926W        W10252   5.507  31.898  12.918
37927W        W10253  11.963  24.889  12.050
37928W        W10254  20.032  23.466   3.204
37929W        W10255   1.970  40.824   1.460
37930W        W10256  11.301  43.745  14.873
37931W        W10257   0.489   3.608   0.295
37932W        W10258  15.276  27.743   1.868
37933W        W10259  28.388  25.250   4.533
37934W        W10260  15.955  11.177   3.588
37935W        W10261  43.972  12.858  13.119
37936W        W10262  26.535   0.368  14.334
37937W        W10263  20.295  34.955  13.382
37938W        W10264  18.175   3.716   2.321
37939W        W10265  41.681  11.022  11.165
37940W        W10266  15.450   3.387  14.040
37941W        W10267  14.252  34.838  10.278
37942W        W10268  15.077  43.531   3.716
37943W        W10269  12.136   4.660  14.395
37944W        W10270  13.760   3.897   2.020
37945W        W10271  11.936  16.291  14.298
37946W        W10272  11.408  37.042   2.856
37947W        W10273  19.738   3.280   1.440
37948W        W10274  12.088  40.869   3.571
37949W        W10275  19.358  41.339   2.527
37950W        W10276  10.848  32.571  11.105
37951W        W10277   4.909  37.921   1.921
37952W        W10278  41.821  39.928  10.575
37953W        W10279  21.907  42.828   0.867
37954W        W10280  44.822  12.226   1.888
37955W        W10281  30.186  12.158   1.940
37956W        W10282  39.850  22.974  14.151
37957W        W10283  14.667  14.556   1.739
37958W        W10284   6.330   5.176  12.200
37959W        W10285   0.577  38.528  13.857
37960W        W10286  15.700   2.642  13.406
37961W        W10287   7.159  38.573  13.815
37962W        W10288  32.424  41.737  14.481
37963W        W10289  32.060  18.627   1.445
37964W        W10290   5.355  20.930   2.935
37965W        W10291  15.285  30.424   4.637
37966W        W10292  44.488  28.255   1.806
37967W        W10293  31.540  24.908  11.395
37968W        W10294  11.309  23.532  12.378
37969W        W10295   3.013   2.990  10.514
37970W        W10296   9.559  41.228   1.365
37971W        W10297  10.334  41.379  14.906
37972W        W10298  17.511  24.083  14.704
37973W        W10299  34.821  19.759  11.606
37974W        W10300  40.652  30.200  12.130
37975W        W10301  39.804  28.000  13.833
37976W        W10302  15.324  23.261  14.382
37977W        W10303  26.625  23.705  10.336
37978W        W10304  41.367   4.983  11.008
37979W        W10305  28.965  30.081   3.485
37980W        W10306  43.205   3.111  12.251
37981W        W10307  34.011  26.948   2.893
37982W        W10308  30.551  30.141   4.707
37983W        W10309  20.092  35.937  12.118
37984W        W10310  27.833  34.835   2.335
37985W        W10311  22.671  20.463   2.164
37986W        W10312  25.034  23.132   4.630
37987W        W10313  26.456  25.012   1.702
37988W        W10314  42.202  11.058   1.240
37989W        W10315  43.764  23.617   3.542
37990W        W10316  27.744   6.980   3.338
37991W        W10317  14.131  37.630   0.946
37992W        W10318  26.175  16.074   1.909
37993W        W10319   3.017  39.057  14.481
37994W        W10320  40.957  36.590  10.741
37995W        W10321  38.426  26.592  12.192
37996W        W10322   8.301   8.946   0.192
37997W        W10323  23.444  14.643   4.941
37998W        W10324  39.480  15.798   1.324
37999W        W10325   9.099  27.185  11.517
38000W        W10326  42.777  18.933  12.553
38001W        W10327  23.508  26.659   0.252
38002W        W10328  29.471  23.708   1.440
38003W        W10329   1.539  29.836   4.541
38004W        W10330  32.722  16.658  11.091
38005W        W10331   9.688  24.319  10.158
38006W        W10332   2.651  30.482  10.559
38007W        W10333  42.969  37.942  13.853
38008W        W10334  25.054  19.576   0.390
38009W        W10335  15.190  19.240  11.774
38010W        W10336  36.974  24.037   2.283
38011W        W10337  10.679  31.961  12.488
38012W        W10338   9.210   0.271  14.585
38013W        W10339   7.476  34.546   0.887
38014W        W10340  31.618   0.760   3.687
38015W        W10341  18.277  28.870  12.529
38016W        W10342   0.233  36.027  12.839
38017W        W10343  39.500  24.240   0.416
38018W        W10344  40.435  27.970   2.162
38019W        W10345  20.066   7.644   3.158
38020W        W10346   0.714  26.980  13.207
38021W        W10347  10.234  40.083  12.128
38022W        W10348  31.036   1.170  14.398
38023W        W10349   5.926   2.901  13.034
38024W        W10350  36.992  19.682   1.946
38025W        W10351  15.754  24.955   3.830
38026W        W10352  41.997  33.407  12.896
38027W        W10353  22.160  34.530  13.710
38028W        W10354  16.011   1.141   3.900
38029W        W10355  24.257  33.085  12.488
38030W        W10356  19.751  41.926  14.670
38031W        W10357  37.367  19.060  14.159
38032W        W10358  24.279  21.105   1.004
38033W        W10359  14.690  16.121   3.713
38034W        W10360  21.034   4.829  13.287
38035W        W10361  28.944  31.463   0.293
38036W        W10362  42.531  36.878   1.244
38037W        W10363  20.313  35.403  11.631
38038W        W10364  21.820  28.207   0.997
38039W        W10365  21.792  41.531   3.591
38040W        W10366  35.460  18.859   1.365
38041W        W10367  25.132  17.708   5.056
38042W        W10368   9.631  12.435  12.056
38043W        W10369  18.804   8.825   2.250
38044W        W10370  32.335  34.134  13.934
38045W        W10371  38.355   8.888  11.503
38046W        W10372  20.553  20.802  12.772
38047W        W10373  15.442  26.261  13.781
38048W        W10374  32.142  13.176   4.775
38049W        W10375  18.428  19.844  10.395
38050W        W10376  31.720  29.977  14.655
38051W        W10377   6.159   5.258   1.430
38052W        W10378  13.643  14.748  12.086
38053W        W10379   0.449  22.156  13.019
38054W        W10380   4.035   5.915   3.790
38055W        W10381  12.009  27.922   4.305
38056W        W10382   9.838  38.563  10.672
38057W        W10383  16.990  21.242  10.246
38058W        W10384   2.989  11.212  14.526
38059W        W10385   9.898  40.383   3.583
38060W        W10386  35.086  11.614   0.828
38061W        W10387  30.439  11.184  13.941
38062W        W10388  16.326   7.077   2.297
38063W        W10389   7.973  12.542  11.179
38064W        W10390   4.341  12.533  11.079
38065W        W10391  11.246  21.218  13.007
38066W        W10392  15.550  11.125  13.327
38067W        W10393   9.139  19.557   2.447
38068W        W10394  22.666  32.467  10.296
38069W        W10395   2.704  11.009   4.546
38070W        W10396  18.045  29.728  13.614
38071W        W10397  25.788  28.515   4.925
38072W        W10398  19.975  20.620   1.865
38073W        W10399  34.224  32.595  11.509
38074W        W10400  36.406  16.108  13.890
38075W        W10401  23.755  27.986  12.947
38076W        W10402  34.565  42.760  12.088
38077W        W10403  30.114   5.705  10.906
38078W        W10404  37.623  19.678  14.203
38079W        W10405  25.082  10.726   4.087
38080W        W10406  38.495  15.697   3.882
38081W        W10407   5.469   1.783  13.383
38082W        W10408  12.703  35.000   2.461
38083W        W10409  27.964  22.526  11.231
38084W        W10410  40.025   8.931   4.960
38085W        W10411   5.344   5.828   2.273
38086W        W10412  43.141  36.995  14.985
38087W        W10413  18.022  20.484  14.696
38088W        W10414   7.322  30.983  11.523
38089W        W10415   7.246  28.606   2.007
38090W        W10416  30.346  28.374  12.508
38091W        W10417  20.139  43.210  11.440
38092W        W10418   7.152   3.710  13.595
38093W        W10419  14.419  11.753  11.970
38094W        W10420   4.347  38.767   0.819
38095W        W10421  14.099   1.189  10.449
38096W        W10422   9.774  30.174  12.494
38097W        W10423   7.669  27.008  14.855
38098W        W10424  30.589  18.685   2.121
38099W        W10425  34.621  27.599  14.570
38100W        W10426   9.938  19.186   0.403
38101W        W10427  22.669   1.023   2.708
38102W        W10428  30.532  27.120  13.095
38103W        W10429  27.628  19.471   2.295
38104W        W10430   7.759  17.024   1.874
38105W        W10431  34.144   2.746   0.466
38106W        W10432  18.486   6.135   3.228
38107W        W10433  39.029  10.361   0.941
38108W        W10434  30.535   3.286  14.421
38109W        W10435  31.083  21.761  13.479
38110W        W10436  20.342   1.235  11.046
38111W        W10437  42.965  24.830  13.090
38112W        W10438  33.669  36.933  12.114
38113W        W10439  37.929  12.798   5.000
38114W        W10440  28.472  38.654   3.789
38115W        W10441  36.595   7.219  11.523
38116W        W10442  34.877  25.962  12.427
38117W        W10443  20.556  10.832  10.734
38118W        W10444  26.964  20.179   2.747
38119W        W10445  17.579  19.056  10.293
38120W        W10446  12.921  22.586  11.599
38121W        W10447  35.514  13.981   5.087
38122W        W10448  40.397  13.636  13.593
38123W        W10449  16.852  16.366   3.192
38124W        W10450  14.888  13.816   1.255
38125W        W10451  40.365  37.026   3.978
38126W        W10452   4.660   6.016  14.909
38127W        W10453   6.290  11.392  13.524
38128W        W10454   8.383  24.456   3.457
38129W        W10455  38.930   7.627   9.851
38130W        W10456  44.372  10.395   0.727
38131W        W10457  25.234   6.187   3.225
38132W        W10458  17.871  14.152   0.406
38133W        W10459  32.998   8.153   4.145
38134W        W10460  23.122  32.643  12.495
38135W        W10461  35.088  42.299   4.989
38136W        W10462  19.417  10.688  14.283
38137W        W10463  21.066  29.189  10.781
38138W        W10464   3.887  10.867  14.476
38139W        W10465   2.951  38.893  12.308
38140W        W10466  44.228  40.848   1.847
38141W        W10467  15.670  24.229  11.513
38142W        W10468  34.535  44.964  10.753
38143W        W10469  36.137   2.876  10.652
38144W        W10470  13.643  12.330  12.006
38145W        W10471   9.670  15.623   3.220
38146W        W10472   7.111  15.184   0.287
38147W        W10473   3.867  10.158  14.055
38148W        W10474  35.013  37.150   1.437
38149W        W10475  40.739  17.227  13.841
38150W        W10476  24.146   4.758  14.368
38151W        W10477   4.463   3.171   2.406
38152W        W10478  41.897  15.255  14.817
38153W        W10479  27.562  21.231  11.589
38154W        W10480  38.908  22.570  14.339
38155W        W10481  21.738  24.568  12.509
38156W        W10482  21.205  33.731  14.327
38157W        W10483   5.885  11.467   4.210
38158W        W10484   6.788  10.848  12.570
38159W        W10485  30.932   3.773  13.435
38160W        W10486  16.009  33.852  11.477
38161W        W10487  17.360  37.027   2.318
38162W        W10488  17.992  40.884  14.393
38163W        W10489  27.166  18.267  13.198
38164W        W10490  43.409  41.878   2.190
38165W        W10491  41.463  19.019  14.917
38166W        W10492   7.640  34.162  10.609
38167W        W10493  30.198   3.094  10.737
38168W        W10494  19.534  15.339   0.947
38169W        W10495  44.604  23.220  14.358
38170W        W10496  10.645  39.050  14.825
38171W        W10497  36.915  25.451  10.704
38172W        W10498  40.223  14.317   4.511
38173W        W10499  12.859   9.274   0.836
38174W        W10500  33.990   0.327   2.389
38175W        W10501  43.384  29.886   0.001
38176W        W10502  32.370  42.808   1.215
38177W        W10503   9.150  36.858  13.924
38178W        W10504  22.238   2.241   2.347
38179W        W10505  37.289  39.485  12.026
38180W        W10506  42.220  31.110  14.705
38181W        W10507  37.416  10.488   5.516
38182W        W10508  21.677  10.077   2.372
38183W        W10509  24.873  31.602   0.270
38184W        W10510  18.799  23.434  12.267
38185W        W10511   3.891  14.784  11.585
38186W        W10512  32.349   1.462   2.759
38187W        W10513  30.060  36.577   2.888
38188W        W10514  13.162  39.859   0.262
38189W        W10515  42.837  20.468   3.607
38190W        W10516  31.510  14.908   4.603
38191W        W10517   3.841   0.009   0.280
38192W        W10518  29.052   0.037  12.589
38193W        W10519  29.931   8.157  10.724
38194W        W10520  22.992   4.702   1.744
38195W        W10521  23.153   7.851   2.320
38196W        W10522   8.786  29.881  12.367
38197W        W10523  12.794  37.623  14.781
38198W        W10524  39.074  44.398   2.478
38199W        W10525   5.157   3.362  14.380
38200W        W10526  31.901  41.545  11.995
38201W        W10527   0.579   8.188  12.974
38202W        W10528  26.899  14.711   4.191
38203W        W10529  17.051  42.053  10.630
38204W        W10530  19.591   4.387   2.326
38205W        W10531  35.095  36.632   3.205
38206W        W10532  41.845  13.169  13.753
38207W        W10533  27.362  24.801   4.992
38208W        W10534  22.537  35.098   0.308
38209W        W10535  12.808  22.262  12.893
38210W        W10536  28.943   3.857  11.210
38211W        W10537  43.849   6.391   3.263
38212W        W10538  15.774  42.490  14.574
38213W        W10539  31.871   0.446   2.815
38214W        W10540  40.473  31.446  12.425
38215W        W10541  27.886   5.732  13.056
38216W        W10542  17.557   7.230   1.702
38217W        W10543  13.266  30.103  14.380
38218W        W10544  18.731  40.340   3.899
38219W        W10545  25.161  27.170  14.998
38220W        W10546   9.691  31.458   4.581
38221W        W10547  40.686   1.893  13.710
38222W        W10548   0.452  11.916   2.175
38223W        W10549  25.073  33.832  12.857
38224W        W10550  12.413  26.016  12.925
38225W        W10551   5.647  16.892  11.545
38226W        W10552  43.187  14.245   4.690
38227W        W10553   5.890  16.762  13.367
38228W        W10554  26.592  15.294  13.066
38229W        W10555  21.932  18.432   3.151
38230W        W10556  13.595  41.835  12.447
38231W        W10557  10.883  25.094   3.339
38232W        W10558  29.563  14.883   1.562
38233W        W10559   4.954  24.610  14.531
38234W        W10560   6.294  28.750  14.940
38235W        W10561  27.119  40.997  12.520
38236W        W10562   8.238  25.892  12.220
38237W        W10563  20.476   3.477  12.269
38238W        W10564  21.556  37.075   5.027
38239W        W10565  31.762  31.541  11.356
38240W        W10566  31.579   5.115  10.668
38241W        W10567  13.280   6.895  12.505
38242W        W10568  41.153   2.243  13.502
38243W        W10569   4.464  41.295   0.709
38244W        W10570  32.446   6.129  14.339
38245W        W10571  43.198   6.416  14.961
38246W        W10572  37.368  11.320  11.457
38247W        W10573  32.931  40.553   2.583
38248W        W10574  15.372  38.073   2.743
38249W        W10575   7.811   7.718  12.596
38250W        W10576   5.346  42.967   4.841
38251W        W10577  14.605  10.841   1.668
38252W        W10578   4.847  10.771  12.836
38253W        W10579  44.023  18.924  14.848
38254W        W10580  19.108  36.828   4.218
38255W        W10581  13.551  16.308   0.821
38256W        W10582   3.697  13.825   2.229
38257W        W10583  29.427  14.625   3.042
38258W        W10584   3.935  23.166  13.118
38259W        W10585  21.546   1.428   0.562
38260W        W10586  16.598   8.245  12.713
38261W        W10587  39.248   2.565   1.019
38262W        W10588  41.615  38.414   4.866
38263W        W10589  41.003  37.837   0.283
38264W        W10590   2.892  21.020   2.409
38265W        W10591  43.309  24.489  12.835
38266W        W10592  27.997  11.832  11.982
38267W        W10593  35.059  35.100   0.150
38268W        W10594  11.120   0.773   3.613
38269W        W10595   6.254  12.310  12.505
38270W        W10596  39.559   2.975  14.927
38271W        W10597  29.697  18.172   4.157
38272W        W10598  26.516  26.227  11.557
38273W        W10599  17.558  40.988   2.281
38274W        W10600   5.343   1.219  10.965
38275W        W10601  17.609  15.452   4.069
38276W        W10602   0.220   4.353   2.100
38277W        W10603   0.694   8.202  12.062
38278W        W10604   7.400  18.576  11.844
38279W        W10605  20.023  18.145   4.231
38280W        W10606  42.477  24.536   2.364
38281W        W10607  28.611  20.513   4.099
38282W        W10608  44.886  16.724   4.015
38283W        W10609   0.446  11.734   2.653
38284W        W10610  33.902   7.712   0.684
38285W        W10611   6.941   5.228   1.819
38286W        W10612  25.326  31.072   2.213
38287W        W10613   2.382  36.589   3.176
38288W        W10614   9.499  34.714  12.813
38289W        W10615  36.397  15.762  12.839
38290W        W10616  17.661  32.714   0.772
38291W        W10617  33.855  42.247  13.910
38292W        W10618  12.191  11.521  12.931
38293W        W10619   4.553   3.210   9.841
38294W        W10620  39.341  28.899  14.125
38295W        W10621  17.574   9.868   1.508
38296W        W10622  23.137  32.657  10.252
38297W        W10623  44.041  40.838   2.779
38298W        W10624  22.698   4.919   4.060
38299W        W10625  33.029   9.717  13.581
38300W        W10626  12.392  11.411  11.224
38301W        W10627  14.061  20.053   4.215
38302W        W10628  41.780  11.731  10.359
38303W        W10629  11.161  17.990  12.786
38304W        W10630  28.593  34.698  11.047
38305W        W10631   6.024  24.233   0.493
38306W        W10632  25.754   5.696  12.899
38307W        W10633  31.058  43.525  13.509
38308W        W10634   7.747  36.503  13.956
38309W        W10635  42.762  27.157  11.581
38310W        W10636   5.935  43.830  11.778
38311W        W10637  38.546  42.393  14.494
38312W        W10638  12.555  16.806  12.464
38313W        W10639  23.014  15.311   5.457
38314W        W10640  27.789   1.000  14.249
38315W        W10641  17.494   3.881  11.006
38316W        W10642   7.480  27.624   1.493
38317W        W10643  40.830   0.494   1.810
38318W        W10644  10.615  36.652   3.806
38319W        W10645  37.481   1.941   1.745
38320W        W10646   6.757   3.250  13.524
38321W        W10647   3.386   7.864  10.732
38322W        W10648  38.352  38.904   1.955
38323W        W10649  25.094  25.494   1.752
38324W        W10650  25.140  40.759   3.619
38325W        W10651  27.961  34.494  11.736
38326W        W10652  43.938  13.736  11.565
38327W        W10653  41.215  40.815  12.084
38328W        W10654  40.582   1.716   1.689
38329W        W10655   4.708   9.180  11.089
38330W        W10656  42.824  44.311  13.051
38331W        W10657  24.021  26.466   1.808
38332W        W10658  28.501  43.018  12.955
38333W        W10659  14.587  41.045  12.166
38334W        W10660  12.777   0.793   0.628
38335W        W10661  43.286  14.196  13.592
38336W        W10662  20.230  22.128   1.882
38337W        W10663  18.175   1.192   2.169
38338W        W10664  39.195  11.453  14.080
38339W        W10665  16.272   3.815   2.693
38340W        W10666  20.489   9.925  10.678
38341W        W10667  44.225  14.254  13.480
38342W        W10668  19.795  41.584   2.699
38343W        W10669   5.396  25.216   1.309
38344W        W10670  24.752  44.728  13.926
38345W        W10671  37.590  24.971  13.471
38346W        W10672  22.452  32.161  12.811
38347W        W10673  35.965  25.072   3.302
38348W        W10674  38.883   5.318  12.597
38349W        W10675  24.173   2.146  13.836
38350W        W10676  13.032  12.740   4.105
38351W        W10677  20.820  34.933  13.477
38352W        W10678  16.616  16.205  14.479
38353W        W10679  24.129  37.602   4.269
38354W        W10680  27.713   1.073   3.701
38355W        W10681   2.626  11.531  13.612
38356W        W10682  31.873  20.543  14.800
38357W        W10683  20.711  26.240  13.880
38358W        W10684  38.634  26.682  10.198
38359W        W10685  30.392  14.320  12.866
38360W        W10686  40.124  40.924   1.900
38361W        W10687  34.923   8.588   5.067
38362W        W10688  27.373  22.533   3.702
38363W        W10689  30.487  30.916   4.261
38364W        W10690  32.099  32.283  13.973
38365W        W10691  27.451  27.640   4.547
38366W        W10692   9.617   0.285   4.080
38367W        W10693  35.256  27.554   1.724
38368W        W10694  21.209  11.317   2.759
38369W        W10695  15.308  24.637   1.324
38370W        W10696  18.560   5.902  14.965
38371W        W10697  35.794  26.500  14.398
38372W        W10698  33.975  20.264   1.374
38373W        W10699   4.724  34.375  13.427
38374W        W10700   7.968  27.672   2.241
38375W        W10701  17.219  15.836  13.320
38376W        W10702  28.221  37.529   5.036
38377W        W10703   5.484   6.705   0.678
38378W        W10704  13.576   7.282  13.615
38379W        W10705  11.104   8.236  13.332
38380W        W10706   8.137  28.985  12.494
38381W        W10707  38.602  34.411   4.523
38382W        W10708   2.410  32.492   2.166
38383W        W10709   4.420   9.807   3.832
38384W        W10710  13.888   1.424   0.300
38385W        W10711  11.466   6.517   2.680
38386W        W10712  35.313  18.649   4.719
38387W        W10713  40.836  18.315   2.812
38388W        W10714  28.349  19.618  13.876
38389W        W10715  11.240  44.053  12.009
38390W        W10716  36.536  25.551   3.772
38391W        W10717  38.778  25.462  13.813
38392W        W10718   8.277  11.605  10.373
38393W        W10719  16.977  44.741  14.379
38394W        W10720  40.361  35.141  13.883
38395W        W10721  11.136  11.733   4.080
38396W        W10722  34.534   7.944   1.479
38397W        W10723  16.949  22.667  10.978
38398W        W10724  12.110   5.879  12.083
38399W        W10725  16.847  12.985   4.278
38400W        W10726   1.142  15.327  13.488
38401W        W10727  20.657  39.079   4.211
38402W        W10728   5.718  29.489   3.552
38403W        W10729   6.511  44.355  11.521
38404W        W10730  20.699  39.817  14.279
38405W        W10731  41.390  39.801   4.721
38406W        W10732  40.864  27.357  12.982
38407W        W10733  43.862  41.917   0.868
38408W        W10734  36.817   7.031   3.292
38409W        W10735  25.480   9.859  13.431
38410W        W10736  17.776  31.494  14.512
38411W        W10737  34.097  16.524  14.292
38412W        W10738   2.624   4.511  13.497
38413W        W10739   4.691  18.373   2.237
38414W        W10740   4.417  28.200  14.810
38415W        W10741   8.981  30.569  11.169
38416W        W10742  33.467  17.777   4.763
38417W        W10743  23.316  37.642  12.520
38418W        W10744  13.314  31.001  10.932
38419W        W10745  35.890  12.212   4.623
38420W        W10746  36.297  28.563   2.770
38421W        W10747  22.845  27.560  10.681
38422W        W10748  17.005  32.414   3.546
38423W        W10749  26.806  23.269   0.830
38424W        W10750   5.711  11.106   4.585
38425W        W10751   0.529   5.288  13.463
38426W        W10752  44.293  24.327   1.829
38427W        W10753  31.582  31.551   1.423
38428W        W10754  34.721  15.499  12.344
38429W        W10755   0.485  25.962   3.628
38430W        W10756  42.811  43.513  14.048
38431W        W10757   6.726  43.362  13.919
38432W        W10758  15.540  18.638   0.923
38433W        W10759  17.170   8.615   4.855
38434W        W10760   2.833   4.313   5.430
38435W        W10761  29.717   8.236   4.639
38436W        W10762  19.225  37.413  12.696
38437W        W10763  20.799  15.143   1.911
38438W        W10764   8.363  24.328  10.698
38439W        W10765  35.329  14.177  12.136
38440W        W10766  15.837  23.665  12.280
38441W        W10767   3.709  41.663   0.484
38442W        W10768  43.438  37.140   1.392
38443W        W10769   7.417  28.790  13.640
38444W        W10770  18.230  32.484   4.266
38445W        W10771  31.164   5.157   3.790
38446W        W10772  22.815  28.154  12.962
38447W        W10773  34.350  26.593  12.578
38448W        W10774  34.943   0.914   3.649
38449W        W10775   2.285   8.715  10.324
38450W        W10776  10.517  35.090  12.321
38451W        W10777  44.593  27.148   3.636
38452W        W10778  17.339  24.565  14.920
38453W        W10779  35.688  40.953  10.658
38454W        W10780   0.464   5.582   1.888
38455W        W10781   6.692  36.498   2.797
38456W        W10782   8.786  15.420  13.628
38457W        W10783  21.300  31.314   3.651
38458W        W10784   2.220  38.055  14.660
38459W        W10785  26.765  25.188   1.150
38460W        W10786   9.981  18.637   4.183
38461W        W10787  31.674  11.997  10.375
38462W        W10788  19.212   4.780  13.257
38463W        W10789  42.764  26.519   2.663
38464W        W10790  14.741  15.320  12.076
38465W        W10791  40.589  38.894  13.497
38466W        W10792  44.365   4.025  14.019
38467W        W10793  43.959  32.092   2.881
38468W        W10794  35.468   3.491   3.266
38469W        W10795   0.787  14.326   1.909
38470W        W10796   0.819  33.404   1.981
38471W        W10797   1.676   2.099  11.051
38472W        W10798  20.656  21.766   4.701
38473W        W10799  16.625  30.394  10.505
38474W        W10800  19.377  11.763   3.227
38475W        W10801  22.707  11.021   0.173
38476W        W10802   1.343  37.268  14.772
38477W        W10803  36.993  22.753  12.449
38478W        W10804  34.500  21.496   1.640
38479W        W10805  22.411  24.798   0.244
38480W        W10806  24.013  32.159  10.910
38481W        W10807  14.419  23.634   1.192
38482W        W10808  40.564   7.457   4.962
38483W        W10809  13.099  29.883  14.929
38484W        W10810   2.450  20.400  12.473
38485W        W10811  28.522  43.498   4.350
38486W        W10812  12.601   1.389   2.432
38487W        W10813  15.666   5.168  11.647
38488W        W10814  18.505  25.033   3.255
38489W        W10815  20.202  36.602   2.830
38490W        W10816   2.225  22.627  11.715
38491W        W10817  30.042  26.778   0.488
38492W        W10818   4.414  10.852  13.638
38493W        W10819   5.169   0.472   2.651
38494W        W10820  40.924  26.863   3.908
38495W        W10821  22.557  34.540  12.414
38496W        W10822  29.586   1.297   1.202
38497W        W10823   6.143  28.550   3.486
38498W        W10824  26.832  26.919   4.989
38499W        W10825  11.898  34.012   4.091
38500W        W10826   3.013   6.498   1.640
38501W        W10827  32.593  28.662   3.792
38502W        W10828   7.419  30.436  11.019
38503W        W10829  19.670  34.253   4.521
38504W        W10830   5.816  19.734  12.414
38505W        W10831  33.405   7.437  14.911
38506W        W10832   4.862  19.048   3.751
38507W        W10833  37.678   6.208   3.785
38508W        W10834  16.745  19.021  11.073
38509W        W10835  23.598  32.112  13.833
38510W        W10836  18.162  36.158  10.668
38511W        W10837  37.137  41.901   0.310
38512W        W10838  39.378  14.098   3.339
38513W        W10839  43.427  30.985  14.415
38514W        W10840   0.716  14.183  13.353
38515W        W10841  20.707  19.372  12.141
38516W        W10842  33.586  21.193   1.519
38517W        W10843  29.623   5.774  13.438
38518W        W10844  21.600  20.133  11.434
38519W        W10845   8.691   8.841   2.873
38520W        W10846  12.907  14.008  13.507
38521W        W10847  26.602  40.903   2.771
38522W        W10848  33.758  34.002   0.992
38523W        W10849   0.749  36.340   2.999
38524W        W10850   4.377  19.275   3.883
38525W        W10851  38.128  15.041  12.441
38526W        W10852  33.000  17.660   0.125
38527W        W10853  40.019  36.000  13.267
38528W        W10854  44.753  19.757  13.465
38529W        W10855  28.248  29.904  11.903
38530W        W10856  38.276  40.534  11.090
38531W        W10857  22.333  22.180   2.776
38532W        W10858  25.686  16.673  10.480
38533W        W10859  13.246  12.230  14.523
38534W        W10860   3.792  41.892   0.945
38535W        W10861   5.864  21.136  13.934
38536W        W10862  36.900  10.973  11.773
38537W        W10863   5.435   2.796   4.395
38538W        W10864  41.351  33.957  14.006
38539W        W10865  36.834  32.863   4.320
38540W        W10866  41.849  40.830  13.540
38541W        W10867  32.916  34.077  10.229
38542W        W10868  22.453  44.055   1.173
38543W        W10869  34.953  27.587  12.045
38544W        W10870  21.919   2.835   2.840
38545W        W10871  20.008  22.158   0.248
38546W        W10872   6.931  23.402   0.459
38547W        W10873   5.522  39.290   3.740
38548W        W10874   2.727  21.799  10.630
38549W        W10875  43.387  41.263   0.981
38550W        W10876  39.523  10.716   3.177
38551W        W10877   3.434   2.008  12.445
38552W        W10878  40.242  19.268  12.663
38553W        W10879   7.689  32.916   1.735
38554W        W10880   6.273  16.008   3.360
38555W        W10881   8.144   1.769   2.265
38556W        W10882  35.327   4.768  11.177
38557W        W10883   0.934   1.195   0.688
38558W        W10884  12.720   6.428   4.644
38559W        W10885  20.145  32.379   3.661
38560W        W10886  39.062  35.334  12.292
38561W        W10887  12.818   7.913   2.356
38562W        W10888  25.631  25.020   2.904
38563W        W10889  26.254  41.647  13.675
38564W        W10890  20.269  34.476  10.703
38565W        W10891   6.111  39.332  12.378
38566W        W10892  33.860  28.281   1.878
38567W        W10893  18.002  36.124  14.533
38568W        W10894  42.819  21.595   2.749
38569W        W10895  42.513  28.489  12.813
38570W        W10896  28.722  21.060  10.595
38571W        W10897  32.940  36.745  12.574
38572W        W10898  30.707   5.035   4.645
38573W        W10899   0.302  20.295   0.726
38574W        W10900  44.210  41.538  10.290
38575W        W10901  20.423   1.756  10.247
38576W        W10902  36.241  21.263   2.141
38577W        W10903  34.504  34.079   2.385
38578W        W10904  39.942  33.666  14.547
38579W        W10905  31.601  15.213   3.883
38580W        W10906   8.915  33.072  11.821
38581W        W10907  41.874  32.793  14.949
38582W        W10908   7.881   9.424  11.168
38583W        W10909  20.802   6.375  11.973
38584W        W10910  23.736   7.832   0.382
38585W        W10911   4.391  23.495  11.146
38586W        W10912  26.053  14.716   2.426
38587W        W10913  39.447  39.576  14.198
38588W        W10914  26.225   6.918  12.821
38589W        W10915  28.687   0.697   0.756
38590W        W10916  30.449   4.945   1.187
38591W        W10917  25.817  26.128  10.523
38592W        W10918  40.003  36.393  11.126
38593W        W10919  44.042  34.430  12.329
38594W        W10920   9.366  13.121  13.533
38595W        W10921  15.867  12.606   2.181
38596W        W10922  17.084   8.139   4.635
38597W        W10923  35.217  28.370  11.701
38598W        W10924   0.593  38.881   3.727
38599W        W10925  39.141  13.784   2.359
38600W        W10926   2.606  36.966   4.641
38601W        W10927   6.613   4.874   3.227
38602W        W10928  37.835   9.983  14.658
38603W        W10929  37.577  28.575  11.392
38604W        W10930  36.138  12.850   4.105
38605W        W10931   4.389  33.920  11.588
38606W        W10932   6.893  33.997   1.467
38607W        W10933  44.214  34.508   2.895
38608W        W10934  12.796  43.759  14.075
38609W        W10935  44.279   4.264   4.138
38610W        W10936  40.280   0.404  13.259
38611W        W10937  32.694  16.801   1.983
38612W        W10938  28.625   1.218   0.751
38613W        W10939  13.026   9.195  11.249
38614W        W10940  13.630  36.892  11.445
38615W        W10941  24.632  14.837  13.249
38616W        W10942  26.523  12.880  14.348
38617W        W10943  44.974  31.551   2.360
38618W        W10944  12.261  26.669  13.719
38619W        W10945  39.408  44.968   4.291
38620W        W10946  43.445  37.017  13.684
38621W        W10947   5.977  18.246  12.570
38622W        W10948  30.899  38.385  11.960
38623W        W10949  17.245  14.625  14.835
38624W        W10950   5.169  28.699   2.258
38625W        W10951  31.430  18.274  13.414
38626W        W10952  25.182  10.637   3.603
38627W        W10953  13.107  24.692  13.275
38628W        W10954  36.431  16.303   0.894
38629W        W10955   7.844  37.843   5.072
38630W        W10956  10.435  36.917  13.417
38631W        W10957   9.363  37.753   3.079
38632W        W10958   2.227  44.839   0.973
38633W        W10959  31.154  35.026  12.871
38634W        W10960   4.374  19.755   4.206
38635W        W10961   7.873   4.416   0.492
38636W        W10962  23.197  21.784   0.565
38637W        W10963  13.921  19.372  12.254
38638W        W10964   4.177  22.777   3.573
38639W        W10965  14.555  20.267  14.928
38640W        W10966   3.387  41.820   3.624
38641W        W10967   5.760  37.012  10.796
38642W        W10968  40.374  37.776  14.921
38643W        W10969  35.095   5.936   0.943
38644W        W10970  12.719  11.006  13.818
38645W        W10971  23.041   6.708   0.934
38646W        W10972  15.836   5.372   1.455
38647W        W10973  20.113   1.404  11.480
38648W        W10974   0.271   4.633  14.734
38649W        W10975  13.616  16.513   1.491
38650W        W10976  21.371  30.376  11.570
38651W        W10977  13.793  35.537  10.588
38652W        W10978   5.333   0.472  10.193
38653W        W10979  17.302  21.185   3.302
38654W        W10980  40.069   4.486   0.389
38655W        W10981   5.894  38.977  10.617
38656W        W10982  10.876  22.100  10.594
38657W        W10983  40.547  11.290   3.424
38658W        W10984  27.411  22.608  13.351
38659W        W10985  32.576  33.842   0.255
38660W        W10986  29.960  40.285  13.081
38661W        W10987  19.606  11.559  12.892
38662W        W10988  36.930  11.824   1.564
38663W        W10989  12.294  29.574   2.414
38664W        W10990   2.168   9.498  12.656
38665W        W10991   2.191  33.517   5.039
38666W        W10992   0.005  41.367   3.640
38667W        W10993  36.872  36.341  13.286
38668W        W10994  23.441  33.569  13.461
38669W        W10995  25.207  24.145   0.451
38670W        W10996  41.968  35.051   4.906
38671W        W10997  33.823  42.245   4.049
38672W        W10998  28.732  41.499   2.886
38673W        W10999   3.603  17.686  13.438
38674W        W11000  12.100  40.303   4.865
38675W        W11001  39.336  19.727   4.655
38676W        W11002   2.691   0.892  14.946
38677W        W11003  43.801  37.806   1.272
38678W        W11004  34.664  43.538  13.884
38679W        W11005  25.100  29.091   0.028
38680W        W11006  15.606  37.300  10.815
38681W        W11007   8.333  14.328   1.734
38682W        W11008  21.815  42.959  13.723
38683W        W11009  22.064  29.433   3.279
38684W        W11010  19.377  18.009  14.755
38685W        W11011  21.187   6.171   4.144
38686W        W11012  38.308  30.034   1.451
38687W        W11013  30.999  34.436  12.632
38688W        W11014  32.626   0.920  10.860
38689W        W11015  28.089   1.319  12.552
38690W        W11016  32.952  35.243  11.132
38691W        W11017  16.022  13.253   4.993
38692W        W11018  32.347  21.332  11.117
38693W        W11019   6.195  40.654  12.106
38694W        W11020   7.570  40.517   5.049
38695W        W11021   6.833   4.450   4.191
38696W        W11022  35.130  42.638  14.980
38697W        W11023  32.498   2.140   2.289
38698W        W11024  30.388  19.777  13.131
38699W        W11025   1.001   9.392   2.204
38700W        W11026   6.940  35.400  11.907
38701W        W11027  30.005  23.862  13.576
38702W        W11028  35.785  37.572  12.371
38703W        W11029  11.889   9.588   4.190
38704W        W11030   0.167   0.889  12.794
38705W        W11031  24.535  37.168  11.990
38706W        W11032  27.107  21.252   2.627
38707W        W11033  44.236  42.004  11.655
38708W        W11034  43.775  18.680   0.220
38709W        W11035  43.329  44.967   4.701
38710W        W11036  29.691  17.719   2.399
38711W        W11037  28.359  36.601  10.660
38712W        W11038   7.382  39.393  12.788
38713W        W11039  13.022  19.504   4.515
38714W        W11040  33.150   3.803   0.389
38715W        W11041  31.118  16.874   1.429
38716W        W11042   2.265  21.765  11.351
38717W        W11043   2.783   1.430   2.433
38718W        W11044   2.951   3.420   3.865
38719W        W11045  38.570  39.248   2.805
38720W        W11046  29.422  39.850  12.001
38721W        W11047  34.873  28.551   3.569
38722W        W11048  32.575  20.238   4.767
38723W        W11049  44.807   1.362  14.960
38724W        W11050  36.300  43.037   4.441
38725W        W11051  16.118   2.484   4.458
38726W        W11052   0.978  38.022   0.299
38727W        W11053  22.729  39.682   5.389
38728W        W11054  13.787  23.475   0.908
38729W        W11055  29.069  13.569   1.789
38730W        W11056  12.530  35.522  10.764
38731W        W11057  41.608  28.032   1.080
38732W        W11058  15.126   0.968   1.367
38733W        W11059  24.669  36.633   1.442
38734W        W11060  32.054  16.601  12.595
38735W        W11061  20.777  16.000  11.817
38736W        W11062   1.930  15.654  12.579
38737W        W11063  30.370   8.553  14.752
38738W        W11064  17.651  11.621  12.024
38739W        W11065   6.297  42.378  14.947
38740W        W11066  12.822   3.309  10.830
38741W        W11067  31.331  42.815  10.943
38742W        W11068  11.414  25.469   1.704
38743W        W11069  39.973   1.784   4.711
38744W        W11070  37.431   4.681   0.398
38745W        W11071  34.336   2.167  12.104
38746W        W11072  27.023  20.212   1.388
38747W        W11073  20.485  14.788  14.787
38748W        W11074   0.464  18.622  12.118
38749W        W11075  15.755  11.174   1.739
38750W        W11076  41.258   6.323  14.006
38751W        W11077  10.039   1.414   3.153
38752W        W11078  37.059   1.032  14.811
38753W        W11079   5.769  44.343   4.613
38754W        W11080   1.802  35.687  13.561
38755W        W11081  15.466  35.579  10.211
38756W        W11082  25.944  35.034  14.866
38757W        W11083  39.299   3.761  11.510
38758W        W11084  37.865   3.705  12.638
38759W        W11085  42.520  32.937  12.035
38760W        W11086   0.676  11.902  12.968
38761W        W11087   6.167  23.122   3.392
38762W        W11088   8.942  39.004   1.392
38763W        W11089   9.480  24.102  14.144
38764W        W11090  36.127   4.081   3.066
38765W        W11091  12.326  44.757   2.891
38766W        W11092   5.701  31.665  11.106
38767W        W11093  11.406   1.718  11.142
38768W        W11094  17.074  40.747  14.943
38769W        W11095  29.340  29.973  10.668
38770W        W11096  35.841  33.495  13.496
38771W        W11097   8.663  44.387   3.766
38772W        W11098  10.278   3.169   2.884
38773W        W11099   1.949  42.999  14.370
38774W        W11100   5.122  12.229   4.890
38775W        W11101  35.654  39.580  11.076
38776W        W11102  14.867   5.260   2.921
38777W        W11103  35.565  23.472  12.437
38778W        W11104  40.626   4.828  14.580
38779W        W11105  11.752  13.411   1.405
38780W        W11106   7.054  18.089   0.241
38781W        W11107  34.377  14.278  13.869
38782W        W11108  19.146  30.929  11.118
38783W        W11109  26.913  11.309  14.850
38784W        W11110  34.455   9.655   0.928
38785W        W11111  44.389  27.423  10.638
38786W        W11112   1.999  22.439  14.434
38787W        W11113   2.218  44.011  13.965
38788W        W11114   5.251   5.149   0.514
38789W        W11115  25.867  21.864  13.857
38790W        W11116  12.633  42.543  11.126
38791W        W11117  38.726   8.787  14.600
38792W        W11118  43.302  22.189  12.966
38793W        W11119  42.347  29.490  12.873
38794W        W11120  20.027  20.792  13.410
38795W        W11121  27.260  33.007  14.182
38796W        W11122   9.608   3.327   0.770
38797W        W11123  25.230  35.867  10.482
38798W        W11124  44.514  37.792   0.201
38799W        W11125  20.497  20.876   0.624
38800W        W11126  23.679   7.245   0.053
38801W        W11127  43.942  32.925   3.620
38802W        W11128  10.105  43.481   4.085
38803W        W11129   9.192   7.547   3.146
38804W        W11130  13.357  41.321  13.460
38805W        W11131  38.531  30.104   3.271
38806W        W11132  18.626  44.893  12.031
38807W        W11133  33.433  20.768   3.410
38808W        W11134  21.578  19.842   1.790
38809W        W11135  23.346   3.381   0.337
38810W        W11136  38.918   9.314  13.334
38811W        W11137  25.593  44.929  11.638
38812W        W11138  26.195  38.413   0.768
38813W        W11139  26.174  18.786  14.459
38814W        W11140  40.542  12.613  14.812
38815W        W11141  15.366  34.297   4.151
38816W        W11142  37.161  20.721   4.019
38817W        W11143  13.361  10.314  10.534
38818W        W11144  33.379   2.172  11.958
38819W        W11145  25.213  44.289  14.480
38820W        W11146  36.491  26.746   3.387
38821W        W11147  25.394  19.890   3.253
38822W        W11148  17.131  31.599  12.153
38823W        W11149  13.742  35.804   2.339
38824W        W11150  12.387   2.964  11.131
38825W        W11151  36.147  39.385  11.145
38826W        W11152   9.512   4.355   3.724
38827W        W11153   6.855  44.955   1.396
38828W        W11154  18.700  18.133   1.456
38829W        W11155  21.191  21.228  13.283
38830W        W11156  34.823  10.070  14.604
38831W        W11157   2.051  25.021   4.180
38832W        W11158   1.982  19.998   4.192
38833W        W11159  29.305  35.107  12.631
38834W        W11160  36.099  43.047  13.989
38835W        W11161  41.323  27.042  11.896
38836W        W11162   2.184  14.567   0.152
38837W        W11163  41.437   8.587  14.205
38838W        W11164   2.485  42.836  10.942
38839W        W11165  25.010  19.688  11.030
38840W        W11166   8.705  26.057   1.058
38841W        W11167  40.534  22.508   0.832
38842W        W11168  22.719  14.399  12.068
38843W        W11169  34.667  12.298   1.319
38844W        W11170  24.325  26.072  11.882
38845W        W11171  17.482  36.440   3.156
38846W        W11172  40.440  28.742  14.840
38847W        W11173   5.983  13.732  10.713
38848W        W11174  39.565   0.565   4.566
38849W        W11175   0.905   0.346  14.985
38850W        W11176   3.382  41.327  14.769
38851W        W11177  40.118  20.532  11.575
38852W        W11178   4.900   0.464  11.923
38853W        W11179  29.775  31.743   3.182
38854W        W11180   7.422  15.682  14.944
38855W        W11181  42.950  38.395  12.582
38856W        W11182  24.085  41.379  14.876
38857W        W11183  41.741  12.578  12.541
38858W        W11184  44.762  14.745  11.136
38859W        W11185  12.198   1.129   1.294
38860W        W11186  38.752  21.080  12.839
38861W        W11187  24.496  18.522   2.299
38862W        W11188  39.839   9.395  14.969
38863W        W11189  29.843  19.584  14.876
38864W        W11190  29.453  19.840   1.317
38865W        W11191  32.191  31.196  14.923
38866W        W11192   3.152  24.637  12.028
38867W        W11193  27.718  14.301   0.226
38868W        W11194  29.442  19.550  11.728
38869W        W11195  18.379  29.645  10.916
38870W        W11196  43.922  25.511  11.633
38871W        W11197  42.452  11.699   2.422
38872W        W11198   9.308   0.992  10.974
38873W        W11199  15.391  36.297  12.758
38874W        W11200  12.728   5.855  14.359
38875W        W11201  14.749  40.383   1.372
38876W        W11202  21.755   5.654   1.357
38877W        W11203  28.779  37.098   4.621
38878W        W11204   1.892  18.659   0.958
38879W        W11205  16.847  27.216   2.229
38880W        W11206   2.852   4.685   4.685
38881W        W11207  42.280   8.378   2.601
38882W        W11208  36.840  12.622  13.540
38883W        W11209  15.094  35.182   1.273
38884W        W11210  41.966  33.562   4.836
38885W        W11211  36.581   1.955   1.823
38886W        W11212   9.933   6.175   3.609
38887W        W11213  24.654   0.820  14.744
38888W        W11214  37.332   6.650  11.966
38889W        W11215  30.559  12.228  13.969
38890W        W11216  17.390  32.579   4.519
38891W        W11217  44.262  17.038   3.514
38892W        W11218  40.010  44.316  10.777
38893W        W11219   9.073  17.268   0.860
38894W        W11220  26.690   8.761  13.441
38895W        W11221  17.072   4.867   4.535
38896W        W11222  25.763  44.967   2.125
38897W        W11223  26.306  38.260  14.749
38898W        W11224  44.450  44.867  12.882
38899W        W11225  42.448   7.221  13.107
38900W        W11226  39.287  36.841   4.066
38901W        W11227   2.484  29.613   3.138
38902W        W11228  33.206   0.397  12.076
38903W        W11229  22.423   0.065  12.159
38904W        W11230  27.102   1.341   5.001
38905W        W11231  40.517  39.513  14.064
38906W        W11232  36.820  21.157   2.230
38907W        W11233   2.389  11.737   3.166
38908W        W11234  19.709  44.588  10.732
38909W        W11235  11.483  26.795  12.857
38910W        W11236   3.379  31.422   3.229
38911W        W11237  31.198   4.204  13.351
38912W        W11238  39.325   5.346   4.601
38913W        W11239  12.636  23.691  10.035
38914W        W11240   3.304  18.287   2.884
38915W        W11241  10.149  38.486   0.043
38916W        W11242   3.902  20.278  14.308
38917W        W11243  33.047  23.827   2.812
38918W        W11244   5.765   7.842  14.010
38919W        W11245   5.158  38.353   3.760
38920W        W11246  40.459  37.387   2.340
38921W        W11247  19.729  11.560   4.604
38922W        W11248  22.602  13.506  12.275
38923W        W11249   4.436   0.295   2.185
38924W        W11250   5.728  13.700   3.893
38925W        W11251   3.249  39.527   4.275
38926W        W11252  29.027  41.274   4.358
38927W        W11253  11.488   9.791  13.925
38928W        W11254   5.019  21.759   2.670
38929W        W11255  31.064  36.429   1.934
38930W        W11256  23.906  15.829  12.076
38931W        W11257  31.835  14.398  11.895
38932W        W11258  43.952  12.580  11.397
38933W        W11259  29.299  38.523  11.263
38934W        W11260   7.570  31.197  11.012
38935W        W11261  14.035  40.992   2.358
38936W        W11262  33.474  17.240  11.387
38937W        W11263  37.618  18.722  11.133
38938W        W11264   6.415  11.239   3.172
38939W        W11265  12.122  17.929  11.117
38940W        W11266  10.607  44.572  11.640
38941W        W11267  44.506   7.675  14.756
38942W        W11268   6.385  43.326  10.069
38943W        W11269  18.002  13.020  13.397
38944W        W11270  30.839  40.372   0.400
38945W        W11271   7.282  37.718  13.775
38946W        W11272   3.897  35.468   4.856
38947W        W11273  38.558  24.443   4.968
38948W        W11274  25.728  19.317   2.300
38949W        W11275  35.421  38.765  10.611
38950W        W11276   0.527  42.884   2.367
38951W        W11277   0.049   9.175   2.043
38952W        W11278  19.175  39.712   4.738
38953W        W11279  24.868  24.910  13.077
38954W        W11280  31.453  39.546  14.915
38955W        W11281   7.668   1.326  13.713
38956W        W11282  44.818   9.238  13.904
38957W        W11283   8.926   9.204   3.756
38958W        W11284  38.933  32.549  13.343
38959W        W11285  28.107  10.927   3.726
38960W        W11286  20.047   8.315   2.780
38961W        W11287  44.863  21.740  12.408
38962W        W11288  15.201   9.632   1.228
38963W        W11289  23.387  37.199   9.716
38964W        W11290  38.824  30.940   0.298
38965W        W11291  33.517  31.573   3.610
38966W        W11292  27.023  39.077  11.658
38967W        W11293  16.760   3.482  12.065
38968W        W11294  33.264  28.046   0.253
38969W        W11295  21.882  39.018  12.093
38970W        W11296  23.206   5.966  13.837
38971W        W11297  33.544  11.345  13.415
38972W        W11298  13.272  22.393   4.823
38973W        W11299  18.393  31.452  13.593
38974W        W11300  19.228  12.141  10.724
38975W        W11301  13.071  20.629  12.454
38976W        W11302  17.763  32.014  11.455
38977W        W11303  44.055  24.789  11.271
38978W        W11304  27.144  31.594   0.038
38979W        W11305  11.601   9.510   1.810
38980W        W11306  23.120  12.225  14.796
38981W        W11307  43.271  39.365   0.822
38982W        W11308  39.484  37.458  12.325
38983W        W11309  21.196  41.524  12.351
38984W        W11310  26.394  16.537  12.424
38985W        W11311  43.708  14.061   3.813
38986W        W11312  35.836  36.835   3.627
38987W        W11313  12.569  13.166  12.612
38988W        W11314   5.117  38.485  12.509
38989W        W11315  17.098  29.701  10.971
38990W        W11316   4.160  20.853   1.654
38991W        W11317  10.714  21.597  10.708
38992W        W11318  17.568  21.206   4.643
38993W        W11319  22.759  39.792  11.141
38994W        W11320  24.808  15.924   3.546
38995W        W11321   7.340  12.143  11.576
38996W        W11322  11.771  13.775   3.242
38997W        W11323  44.533   0.488  13.298
38998W        W11324   0.059  29.666  10.615
38999W        W11325   7.576  36.296   4.163
39000W        W11326  41.286  43.724  11.050
39001W        W11327  28.661   1.481   3.808
39002W        W11328  40.829   9.881  12.418
39003W        W11329  32.094   1.173   0.846
39004W        W11330  33.793  27.257  14.470
39005W        W11331  10.602   9.687   4.713
39006W        W11332   1.839   7.706   1.010
39007W        W11333  11.841  24.870   5.003
39008W        W11334  14.543  14.161   4.247
39009W        W11335  27.164   8.341  11.545
39010W        W11336  15.681  21.726  13.075
39011W        W11337  40.953  43.459  13.199
39012W        W11338  40.912   0.672  12.865
39013W        W11339  43.938  25.414   4.282
39014W        W11340  25.989  18.795  13.523
39015W        W11341  43.944   8.953  13.354
39016W        W11342  18.140  31.133  14.396
39017W        W11343  43.346  39.069  10.676
39018W        W11344  15.439  15.321   0.690
39019W        W11345  21.168  31.430   2.745
39020W        W11346  22.619  37.494  13.873
39021W        W11347  14.404  31.125   3.080
39022W        W11348  42.560  32.687   3.191
39023W        W11349  27.235   0.875   3.771
39024W        W11350  31.932  20.832  13.700
39025W        W11351  24.739  42.117   4.110
39026W        W11352  16.628   9.106   1.312
39027W        W11353  11.319   1.133  12.477
39028W        W11354  18.716  29.870   3.471
39029W        W11355   6.189   3.981   1.720
39030W        W11356  44.888  16.869   0.247
39031W        W11357  12.415   4.272  11.043
39032W        W11358   8.670  14.820  11.905
39033W        W11359  27.196  41.928   2.334
39034W        W11360  12.527  17.741   1.697
39035W        W11361  13.818  43.904  12.597
39036W        W11362  40.750  30.489   2.780
39037W        W11363  25.979   3.749   2.448
39038W        W11364  37.109  23.297  14.789
39039W        W11365  12.936  14.096   0.213
39040W        W11366  42.473  29.579   0.787
39041W        W11367  11.792  20.748   0.199
39042W        W11368  19.978   6.813   3.232
39043W        W11369  21.325  26.558  10.628
39044W        W11370  41.438   8.906  11.549
39045W        W11371   0.874  23.090   2.500
39046W        W11372  36.456   2.715  11.037
39047W        W11373  14.231  21.209  14.428
39048W        W11374  41.389  23.067  12.089
39049W        W11375  35.535  23.257   0.671
39050W        W11376   2.407  25.071   0.418
39051W        W11377  26.251   9.182   2.898
39052W        W11378  19.667  30.735   4.670
39053W        W11379  21.739   1.657   2.844
39054W        W11380   2.892  43.552  10.624
39055W        W11381  15.893  14.905   2.527
39056W        W11382  11.289   5.577  14.939
39057W        W11383   1.966  18.241  14.994
39058W        W11384  14.841  21.057  11.668
39059W        W11385   1.457  32.823   3.232
39060W        W11386   9.983  26.940  13.912
39061W        W11387   5.080  14.657   4.397
39062W        W11388  34.238  27.023  12.352
39063W        W11389  15.172  34.786  12.803
39064W        W11390  21.111   8.273   0.240
39065W        W11391  35.658  11.148  13.516
39066W        W11392  43.949  31.841   4.475
39067W        W11393  29.689  18.554  12.573
39068W        W11394  19.602  22.190   0.559
39069W        W11395   2.828  23.399  13.974
39070W        W11396  41.912  44.854  12.159
39071W        W11397   5.220  27.220  14.894
39072W        W11398  29.374  36.978   3.187
39073W        W11399   0.706   1.024  12.857
39074W        W11400   2.976   7.457  11.573
39075W        W11401   6.949  31.267   2.789
39076W        W11402  18.611  13.567   0.959
39077W        W11403  29.938   7.893  14.555
39078W        W11404  44.387  25.291  10.233
39079W        W11405  24.286  18.089   9.461
39080W        W11406   3.569   2.332  14.809
39081W        W11407   3.938  19.208  13.409
39082W        W11408  23.093  29.996   1.384
39083W        W11409  10.395  43.813   1.805
39084W        W11410  19.166  20.238   1.742
39085W        W11411  19.742  35.009   4.613
39086W        W11412  16.656   0.939  14.615
39087W        W11413   3.276  44.546   1.848
39088W        W11414  39.075  34.429   3.626
39089W        W11415  21.203  41.855  13.451
39090W        W11416  10.885  36.836   4.791
39091W        W11417  27.726  39.055  12.363
39092W        W11418   6.681   5.913  10.625
39093W        W11419  15.255   8.882  13.942
39094W        W11420   4.995  44.636  12.454
39095W        W11421  17.363  42.405   2.866
39096W        W11422  34.802   5.859  12.462
39097W        W11423  26.232  40.898   4.569
39098W        W11424  29.924  18.545   3.622
39099W        W11425  41.779  21.113   4.510
39100W        W11426  31.183  26.555   1.763
39101W        W11427  40.637  20.978   0.246
39102W        W11428  44.401  18.020   3.871
39103W        W11429  31.101  30.232  12.001
39104W        W11430   2.443  21.536   0.177
39105W        W11431  38.875  18.363   1.195
39106W        W11432  17.109  19.770   2.727
39107W        W11433   1.745  28.569  12.969
39108W        W11434  22.777  29.464  12.330
39109W        W11435  14.706  38.280   3.660
39110W        W11436  42.947  19.736  14.536
39111W        W11437  29.463  40.316  11.762
39112W        W11438  44.787  28.137  14.343
39113W        W11439  38.333   6.140   2.406
39114W        W11440   7.307   9.633   3.953
39115W        W11441  22.696  28.169   0.956
39116W        W11442  29.100  33.460   1.686
39117W        W11443  32.323  11.902   1.151
39118W        W11444  13.419  15.796   0.631
39119W        W11445  29.433  18.281  14.451
39120W        W11446   2.200  17.565  13.526
39121W        W11447   1.364  32.047  13.771
39122W        W11448  29.081  39.561   0.321
39123W        W11449  30.307  20.579   2.875
39124W        W11450  10.364  36.110  10.295
39125W        W11451  35.813  40.589   3.691
39126W        W11452   1.791   3.973   3.362
39127W        W11453   6.362   5.561  13.136
39128W        W11454  19.994  13.216  12.064
39129W        W11455  14.685  24.425  12.602
39130W        W11456   8.216  25.754   2.902
39131W        W11457  40.291  42.988  13.516
39132W        W11458  18.752  40.394  14.396
39133W        W11459   2.297  41.816   0.770
39134W        W11460  32.360  35.464   0.835
39135W        W11461  38.992  34.508   1.783
39136W        W11462   3.445  39.703   2.457
39137W        W11463  13.809  20.075   2.755
39138W        W11464   0.342  29.939  11.343
39139W        W11465  17.618  35.627  11.209
39140W        W11466  42.792  34.844   1.381
39141W        W11467  33.530  15.332  10.683
39142W        W11468  29.994   5.225  14.082
39143W        W11469  31.094  42.566  12.625
39144W        W11470  29.660  44.769  12.960
39145W        W11471  30.401  20.753   3.781
39146W        W11472  28.567  40.617   0.036
39147W        W11473  37.030   1.280   2.816
39148W        W11474  28.494  15.767   3.576
39149W        W11475   4.927  17.835  13.819
39150W        W11476  18.041  10.973   1.186
39151W        W11477  19.251  28.073  13.506
39152W        W11478  13.288  33.826  14.450
39153W        W11479  23.394  25.710   4.146
39154W        W11480  30.989  41.481  12.083
39155W        W11481  37.528  29.107  10.520
39156W        W11482  39.067   0.281  14.426
39157W        W11483  42.406  23.767   3.607
39158W        W11484   8.240  19.136   0.707
39159W        W11485  33.175  20.329   4.227
39160W        W11486   0.025  23.243   3.222
39161W        W11487  17.809  24.935   4.244
39162W        W11488  19.570  15.158  10.565
39163W        W11489   7.105   3.195  12.026
39164W        W11490  37.722  42.513   1.159
39165W        W11491  32.616  23.229  11.436
39166W        W11492  44.721  33.844  10.645
39167W        W11493  26.270   0.741  12.542
39168W        W11494  39.844  42.242   2.133
39169W        W11495  19.233  20.115  14.743
39170W        W11496  32.907  42.573   0.332
39171W        W11497  23.065   0.021   1.734
39172W        W11498   1.722   8.534  12.733
39173W        W11499  39.254  34.638   1.344
39174W        W11500   0.927  40.542  11.865
39175W        W11501   3.291  20.456   1.876
39176W        W11502  37.741  15.880  13.935
39177W        W11503  13.132  12.843  13.851
39178W        W11504  27.489  32.802  11.428
39179W        W11505  21.580  25.660  13.803
39180W        W11506  33.354  10.203   0.556
39181W        W11507  43.398  22.501   3.207
39182W        W11508  25.433   6.117   4.199
39183W        W11509  36.148  35.082   3.304
39184W        W11510  34.612  10.341  11.988
39185W        W11511  42.177   2.435  10.635
39186W        W11512  42.666  39.121  12.166
39187W        W11513  31.075  38.572   2.417
39188W        W11514  24.901  19.681   1.363
39189W        W11515   1.531  35.085   0.249
39190W        W11516  37.579  22.538   3.070
39191W        W11517  44.272  29.424   2.280
39192W        W11518  14.174   8.219  12.782
39193W        W11519   7.733  27.079  11.844
39194W        W11520   6.642   0.233   1.848
39195W        W11521   2.697  41.901   3.072
39196W        W11522  24.780  14.082   3.129
39197W        W11523  41.424  41.378   2.752
39198W        W11524   3.502  24.486   2.466
39199W        W11525   7.863  11.073   2.400
39200W        W11526  21.444   2.273  12.533
39201W        W11527  42.067  33.161  10.397
39202W        W11528  36.648  12.807   4.328
39203W        W11529  33.529   2.744  14.872
39204W        W11530  30.069  20.836  13.540
39205W        W11531  32.626  25.048  13.916
39206W        W11532   4.346  41.398  14.291
39207W        W11533  16.274  31.884  13.137
39208W        W11534  12.040  22.996  14.830
39209W        W11535   2.318  33.511  13.093
39210W        W11536  25.462  40.033   4.606
39211W        W11537   4.409  44.432   2.455
39212W        W11538   8.249  37.506  11.978
39213W        W11539   7.147  25.249   0.333
39214W        W11540  32.994   5.884   2.011
39215W        W11541   6.094  24.720   2.376
39216W        W11542   6.661  26.163   3.778
39217W        W11543  29.166  13.744   2.775
39218W        W11544  41.421   1.805  13.406
39219W        W11545  18.897  43.470  12.861
39220W        W11546  12.290  44.793  13.983
39221W        W11547  42.422  26.205  13.519
39222W        W11548   0.315  32.605   4.313
39223W        W11549  13.174  19.705   2.783
39224W        W11550  25.111  23.855   2.271
39225W        W11551  35.953   0.937  11.192
39226W        W11552  32.092   0.361  14.094
39227W        W11553  27.497   4.338   4.692
39228W        W11554  26.965  33.950   0.966
39229W        W11555  41.526  13.012   4.987
39230W        W11556   2.525  34.653  14.409
39231W        W11557  29.995   1.693   1.659
39232W        W11558  41.055  36.835  14.833
39233W        W11559   2.981  31.155  10.561
39234W        W11560  34.674  17.756  11.917
39235W        W11561   9.842  25.444   4.856
39236W        W11562   8.982   2.327  11.901
39237W        W11563  29.983  17.262   1.238
39238W        W11564  37.457  37.478   2.807
39239W        W11565  38.611   6.680  14.309
39240W        W11566  14.359  19.914   3.319
39241W        W11567  31.004  42.528   1.397
39242W        W11568   2.345  42.068  13.029
39243W        W11569  39.344   7.171   4.733
39244W        W11570  35.570   0.478   0.305
39245W        W11571   9.811   1.724   4.280
39246W        W11572  25.085  31.481   2.466
39247W        W11573  40.061  13.236   0.115
39248W        W11574  41.820  36.492   4.390
39249W        W11575  35.022  36.845   1.017
39250W        W11576  29.007  40.939  13.807
39251W        W11577   3.485  42.836   1.495
39252W        W11578  28.942  24.594  14.432
39253W        W11579  11.262  12.763   4.275
39254W        W11580  32.842   8.221  10.703
39255W        W11581   0.279  26.214   2.676
39256W        W11582   2.355  31.677  11.591
39257W        W11583  20.183   2.298   0.755
39258W        W11584  28.458  41.643  13.544
39259W        W11585  40.950  33.574  14.347
39260W        W11586   8.750  23.663  12.584
39261W        W11587  37.392  19.263   1.176
39262W        W11588   1.839   2.669   3.724
39263W        W11589  39.757  26.452  12.495
39264W        W11590  31.582  20.804   1.273
39265W        W11591  17.525  33.031   2.880
39266W        W11592  28.371   8.736   5.081
39267W        W11593  34.021  38.105  10.914
39268W        W11594  19.122  24.372  12.605
39269W        W11595  19.846  32.477   1.432
39270W        W11596   5.831  22.086   2.423
39271W        W11597  40.003   4.191  14.440
39272W        W11598  26.604  32.137  10.651
39273W        W11599  15.377  13.123   1.907
39274W        W11600  43.894   0.830  10.991
39275W        W11601  17.707  43.787   2.289
39276W        W11602  29.598  24.066   1.022
39277W        W11603  39.989  11.607   1.345
39278W        W11604   8.307  16.340   0.459
39279W        W11605  36.128  17.251   0.646
39280W        W11606   1.810  41.007  10.749
39281W        W11607  20.059  10.638  10.930
39282W        W11608  28.364   8.357  13.873
39283W        W11609  24.461  16.277   2.261
39284W        W11610  36.335  32.407  11.483
39285W        W11611  15.824  20.127   2.863
39286W        W11612  26.554  36.657   0.492
39287W        W11613  41.709  14.820  13.039
39288W        W11614  16.991  40.875   1.287
39289W        W11615   5.384  17.758   2.300
39290W        W11616   1.792  30.067  13.313
39291W        W11617  29.005  27.359  14.441
39292W        W11618  20.099  23.146  14.323
39293W        W11619  28.916   5.445  14.751
39294W        W11620  43.375  34.839  10.366
39295W        W11621  17.078   8.916  14.396
39296W        W11622  12.221  13.144  14.103
39297W        W11623  27.016  24.522   0.556
39298W        W11624  17.605  15.658  12.451
39299W        W11625  40.598  19.028   4.193
39300W        W11626  36.830   9.667  12.120
39301W        W11627  25.509   2.270   3.178
39302W        W11628  18.958  40.860  14.528
39303W        W11629  35.982  39.211   3.278
39304W        W11630  34.008   6.926  11.102
39305W        W11631  27.965  29.216  10.695
39306W        W11632  24.590   5.234   1.380
39307W        W11633  32.562   5.839   1.686
39308W        W11634  33.452   5.328   4.019
39309W        W11635  42.370  19.732  10.990
39310W        W11636  42.945   7.496   1.715
39311W        W11637   7.205  29.472   4.803
39312W        W11638  39.478   8.809   4.089
39313W        W11639  24.678  19.104   0.229
39314W        W11640  36.489  10.844   2.449
39315W        W11641  14.367  17.214  10.514
39316W        W11642  13.131  36.900   5.183
39317W        W11643  42.718  34.350  12.935
39318W        W11644  37.922  11.734  10.157
39319W        W11645  34.138   0.330   0.185
39320W        W11646  28.377  20.671  12.100
39321W        W11647  35.297  43.523   0.990
39322W        W11648   3.462  17.167  12.365
39323W        W11649  38.559  14.328  11.019
39324W        W11650  21.053  11.307  13.756
39325W        W11651   6.696  40.259  13.979
39326W        W11652   6.513  27.552  11.621
39327W        W11653  31.122  13.477   4.085
39328W        W11654  38.700  36.851   3.445
39329W        W11655  21.156  37.123  13.486
39330W        W11656  44.407  30.811  12.126
39331W        W11657  37.070  28.460   3.352
39332W        W11658  34.056  26.584  11.969
39333W        W11659  14.147  22.435   1.890
39334W        W11660  19.550  44.970  11.035
39335W        W11661   5.769  18.028   4.645
39336W        W11662  32.877   4.198   3.768
39337W        W11663  36.434  16.087  12.417
39338W        W11664  35.613  38.838   3.208
39339W        W11665  25.946  19.598   0.828
39340W        W11666  39.453  39.570  12.410
39341W        W11667  27.732  12.234  10.713
39342W        W11668  34.067  17.671  13.054
39343W        W11669  10.536  44.792   1.926
39344W        W11670  43.732  17.678  14.364
39345W        W11671  44.792  25.790  10.984
39346W        W11672  15.763  40.312   3.549
39347W        W11673   4.812  13.429  10.920
39348W        W11674  42.904  19.049   4.093
39349W        W11675   1.305  16.712   1.649
39350W        W11676   9.177  16.412   0.449
39351W        W11677  43.300  38.758   3.899
39352W        W11678  18.830  11.080   0.961
39353W        W11679  36.909   9.296  12.859
39354W        W11680  24.924  16.097  13.354
39355W        W11681  13.834  40.398   3.560
39356W        W11682  27.218  41.737   2.814
39357W        W11683   6.336  38.976  10.322
39358W        W11684  13.740  30.183  14.543
39359W        W11685  42.874   4.324   4.595
39360W        W11686  20.074  15.250  14.246
39361W        W11687   4.241  21.140  12.530
39362W        W11688  27.460  21.636   1.998
39363W        W11689  23.695  19.564  10.674
39364W        W11690  33.522  26.715   5.181
39365W        W11691  22.263  25.154  13.565
39366W        W11692  35.874  28.234   0.727
39367W        W11693  20.512  30.137   1.350
39368W        W11694  19.532  13.071  13.408
39369W        W11695  18.515   1.503  14.586
39370W        W11696  36.164  15.641  11.027
39371W        W11697  15.691   8.414  12.561
39372W        W11698  37.981  17.466   0.368
39373W        W11699  24.686   5.445   2.903
39374W        W11700   5.151  18.246  11.580
39375W        W11701  33.506  26.205   2.805
39376W        W11702  26.914  32.359   2.878
39377W        W11703   5.161  21.547   2.191
39378W        W11704  28.925  24.748  10.615
39379W        W11705  34.626  44.867   1.998
39380W        W11706  33.013   0.300   2.209
39381W        W11707  18.333   7.958  11.158
39382W        W11708  24.841  41.236  13.592
39383W        W11709  22.046  44.685   4.210
39384W        W11710  11.670  31.784  14.232
39385W        W11711  25.052  23.710   3.578
39386W        W11712  26.128  44.702   2.841
39387W        W11713  23.966  15.227  13.972
39388W        W11714  32.792   0.284  12.394
39389W        W11715  33.541  44.287   0.503
39390W        W11716   6.295  10.643  11.703
39391W        W11717   1.815  28.210   3.256
39392W        W11718  26.581  21.942   4.364
39393W        W11719   6.479  39.973   1.659
39394W        W11720  29.615  40.858  11.827
39395W        W11721   9.674   7.873  11.592
39396W        W11722  40.612  42.524   2.334
39397W        W11723  22.758  40.028   2.948
39398W        W11724  32.130   8.220   0.433
39399W        W11725   4.311  26.037   1.205
39400W        W11726  42.313  42.985   1.778
39401W        W11727   0.536   0.379  13.430
39402W        W11728  42.180  16.641   3.767
39403W        W11729  42.389  21.999   0.977
39404W        W11730  12.650  17.776   4.589
39405W        W11731  23.295  17.192   3.952
39406W        W11732   3.555   2.361  11.602
39407W        W11733  33.466   3.718  14.994
39408W        W11734   0.468  31.643   4.140
39409W        W11735  12.504  12.853   4.031
39410W        W11736  12.316  20.183  12.642
39411W        W11737   6.214  11.129   4.456
39412W        W11738   7.775  10.092   4.118
39413W        W11739   5.923  26.985  12.646
39414W        W11740  11.624   5.200   0.115
39415W        W11741  21.475  37.126   3.179
39416W        W11742  22.478  40.896   4.629
39417W        W11743  16.310  10.298   1.819
39418W        W11744  17.425  44.330   0.045
39419W        W11745  41.857  30.060   3.701
39420W        W11746  25.659  44.323  13.611
39421W        W11747  14.651   2.862   2.738
39422W        W11748   3.943  37.994  14.784
39423W        W11749  34.047  14.622  10.710
39424W        W11750   7.856  43.196   3.624
39425W        W11751  37.158   6.380  10.794
39426W        W11752  19.250   3.483   1.337
39427W        W11753  19.968  28.031  10.225
39428W        W11754  14.602  15.872   4.360
39429W        W11755  41.602  43.716  12.920
39430W        W11756  31.164  13.928  11.615
39431W        W11757  16.215   6.442  13.790
39432W        W11758  26.072  10.737   2.077
39433W        W11759  39.519  30.967   0.809
39434W        W11760  17.377  10.436  13.820
39435W        W11761   2.469  26.692   2.825
39436W        W11762   3.503  31.972  12.019
39437W        W11763  13.073  19.716  12.452
39438W        W11764  21.807  36.469  14.224
39439W        W11765   3.388  39.367  14.684
39440W        W11766  22.588  34.583   0.386
39441W        W11767  26.949  22.528   1.662
39442W        W11768  17.781  43.938   0.826
39443W        W11769  10.583  30.134  13.917
39444W        W11770  19.243  35.671   0.674
39445W        W11771  10.392   3.740  14.268
39446W        W11772  26.455  26.469   4.325
39447W        W11773  24.186  11.318  13.766
39448W        W11774  15.305   6.643   1.829
39449W        W11775   9.237  38.203  11.132
39450W        W11776  40.271  14.224  11.656
39451W        W11777  10.379   2.714  14.324
39452W        W11778  24.312  25.733   1.445
39453W        W11779  12.818  43.537   4.596
39454W        W11780  30.831  12.581  12.394
39455W        W11781  35.859  44.759  11.536
39456W        W11782  30.110  43.955  10.860
39457W        W11783  24.626  27.099  13.351
39458W        W11784  40.876  34.950  10.619
39459W        W11785  23.070   0.698  14.442
39460W        W11786  17.814  37.814  13.891
39461W        W11787  16.771  39.072  11.697
39462W        W11788  13.737  29.252   2.177
39463W        W11789   2.418  37.617   2.813
39464W        W11790  22.577  21.489   1.805
39465W        W11791   4.144   1.948   2.333
39466W        W11792  32.461  11.938   4.452
39467W        W11793  19.869  30.106  14.517
39468W        W11794  15.211  18.014  13.456
39469W        W11795   9.992  34.526  11.897
39470W        W11796   3.678  18.508  12.832
39471W        W11797  10.826   1.276   1.313
39472W        W11798   2.017  35.896  11.550
39473W        W11799   2.194  18.562  12.883
39474W        W11800   8.448   5.859   1.776
39475W        W11801  38.343  33.546  10.793
39476W        W11802  44.989  36.028   3.078
39477W        W11803  32.229  12.567  13.395
39478W        W11804  24.153  41.042   1.021
39479W        W11805  12.647  39.508   4.445
39480W        W11806   9.593   6.864   3.027
39481W        W11807  29.669  35.105   5.039
39482W        W11808  37.847  11.823   2.697
39483W        W11809  10.650  37.843  11.973
39484W        W11810  26.029  28.597  12.996
39485W        W11811  34.010  40.736   2.134
39486W        W11812  11.387  26.969   3.553
39487W        W11813  31.158  42.798   0.962
39488W        W11814   9.002   9.610  11.573
39489W        W11815  24.144  23.448   3.714
39490W        W11816  36.488  34.746   3.125
39491W        W11817  27.503   2.333   2.295
39492W        W11818  20.780   0.392   4.180
39493W        W11819  20.827  24.650   1.844
39494W        W11820  38.602  12.761   2.253
39495W        W11821  30.640  40.804  11.179
39496W        W11822  14.156  23.911   0.847
39497W        W11823  41.273  36.104   1.375
39498W        W11824   3.644  23.757  13.522
39499W        W11825  18.656  19.505  11.242
39500W        W11826   2.904  27.416  11.610
39501W        W11827  34.546   7.555  13.591
39502W        W11828  15.655  26.723  13.751
39503W        W11829  32.158  10.644   1.377
39504W        W11830  43.391  31.962   2.191
39505W        W11831  32.973  25.108   0.483
39506W        W11832   3.911  17.719   4.693
39507W        W11833  28.628  41.041   0.369
39508W        W11834  17.044  31.674   4.619
39509W        W11835  34.024   8.639  13.865
39510W        W11836  41.899  34.308   2.811
39511W        W11837  30.884  42.741  11.212
39512W        W11838  19.516  35.897  13.284
39513W        W11839   7.862  11.401   3.314
39514W        W11840   2.395  24.143   5.240
39515W        W11841  24.125  44.258   1.912
39516W        W11842  35.791  35.254   5.444
39517W        W11843  36.260  20.368  12.919
39518W        W11844  40.253   6.458  11.104
39519W        W11845  32.991  35.925   0.270
39520W        W11846  19.980   2.174  14.826
39521W        W11847   1.011  26.916  11.985
39522W        W11848  19.289  18.243  11.757
39523W        W11849  31.974  38.491  14.001
39524W        W11850  17.845  23.040   0.961
39525W        W11851  18.697   8.179  11.463
39526W        W11852  40.090  31.622   1.254
39527W        W11853  43.474  28.617   0.646
39528W        W11854  13.605  10.985  14.635
39529W        W11855  11.705   8.725   1.248
39530W        W11856  38.430   2.397  12.560
39531W        W11857  34.647   6.214   1.865
39532W        W11858  39.350   4.285  14.015
39533W        W11859  30.252  24.789   2.703
39534W        W11860  29.998  30.692  12.528
39535W        W11861   0.663  34.322   3.699
39536W        W11862   2.824  44.833   4.356
39537W        W11863  37.347   9.210  11.019
39538W        W11864  39.297  40.909  13.300
39539W        W11865  23.823  16.814  11.166
39540W        W11866  16.053   9.327   2.675
39541W        W11867  41.236  15.080   2.451
39542W        W11868  22.157  36.597   2.641
39543W        W11869   6.729  30.900  10.734
39544W        W11870  21.593  22.028  10.596
39545W        W11871  26.022  24.552  10.690
39546W        W11872  28.659  44.391   2.789
39547W        W11873  29.045  31.522   2.158
39548W        W11874  35.975  35.169   1.046
39549W        W11875  29.189  22.220  12.658
39550W        W11876  31.196  39.181   3.414
39551W        W11877   1.252  36.391  13.935
39552W        W11878  41.394  40.871   4.116
39553W        W11879  44.382  14.412   2.386
39554W        W11880  25.852  27.831  11.000
39555W        W11881   1.766  21.053  12.538
39556W        W11882   2.962   2.701  10.088
39557W        W11883  10.917  34.311  13.101
39558W        W11884  34.030  42.628  10.451
39559W        W11885  37.038  33.921  13.005
39560W        W11886  14.192  23.764   3.656
39561W        W11887  30.293  23.582  11.636
39562W        W11888  29.454  44.715  11.622
39563W        W11889  30.213   0.428   3.243
39564W        W11890   9.330   9.814  14.382
39565W        W11891  33.516  40.823   3.887
39566W        W11892  36.473  16.035   4.553
39567W        W11893   3.448   6.745  12.452
39568W        W11894  26.595  34.878  13.030
39569W        W11895  16.061  19.329  11.543
39570W        W11896  44.200   1.797  14.150
39571W        W11897  24.084  23.800  10.273
39572W        W11898  14.887  25.181   0.502
39573W        W11899  14.831  15.526   2.109
39574W        W11900  19.573  11.087  11.484
39575W        W11901  30.586  17.739   2.221
39576W        W11902   3.914  36.439   2.253
39577W        W11903   6.781  10.196  13.334
39578W        W11904  31.805  40.473  14.987
39579W        W11905  21.061  16.172   3.380
39580W        W11906  31.541  15.365  14.985
39581W        W11907  33.453   7.454  11.943
39582W        W11908  18.786  30.710   3.781
39583W        W11909  30.573  27.460  12.399
39584W        W11910   6.762   4.000   0.214
39585W        W11911  26.443   9.848  14.331
39586W        W11912  18.968  14.587  11.978
39587W        W11913  39.914   3.888   1.348
39588W        W11914   2.952  16.498  14.817
39589W        W11915  26.053  20.285   2.607
39590W        W11916  36.925   4.680   4.145
39591W        W11917  14.880   8.281   3.368
39592W        W11918  23.036  27.101  10.544
39593W        W11919  20.260  32.125  13.515
39594W        W11920   4.292  24.635   2.453
39595W        W11921  20.916  19.846   2.894
39596W        W11922  30.084  26.371  14.617
39597W        W11923  16.743  36.349  13.522
39598W        W11924  44.263  28.013  14.345
39599W        W11925  44.824  19.771   0.233
39600W        W11926   5.431  15.271  10.961
39601W        W11927  41.285  40.583   0.153
39602W        W11928  32.816  10.236  14.345
39603W        W11929  42.619   9.100  13.442
39604W        W11930  28.568  37.968  10.697
39605W        W11931  14.985   3.398  10.609
39606W        W11932  23.717  29.215  13.595
39607W        W11933   7.707   0.791   3.159
39608W        W11934  41.929  41.420   1.803
39609W        W11935  35.153  21.972   1.916
39610W        W11936  35.516  35.036  10.233
39611W        W11937  20.855  30.145  13.442
39612W        W11938  42.511  35.963   4.494
39613W        W11939  40.119   7.308   1.726
39614W        W11940  15.691  39.621  13.028
39615W        W11941  15.113  31.072  14.251
39616W        W11942   6.388   3.828  10.518
39617W        W11943  26.396  43.891  14.464
39618W        W11944  27.653   6.487   3.109
39619W        W11945  40.578   1.332  14.279
39620W        W11946   9.405   4.882  13.905
39621W        W11947   8.154  40.180  12.121
39622W        W11948  30.185  20.517   3.369
39623W        W11949  14.365   9.195   1.636
39624W        W11950  14.694  15.659   0.784
39625W        W11951  14.733   6.177   1.277
39626W        W11952  34.819  15.290   0.171
39627W        W11953   4.622  20.836   1.875
39628W        W11954  31.423  15.623  13.368
39629W        W11955  21.427  40.185   3.552
39630W        W11956   6.431  19.860   0.630
39631W        W11957  25.598  15.591  12.216
39632W        W11958  34.331  31.532   1.076
39633W        W11959  31.193  24.292   3.472
39634W        W11960  41.002  13.374   4.201
39635W        W11961  39.832  19.732   3.099
39636W        W11962   4.979  22.250   1.873
39637W        W11963   3.244   0.418  12.452
39638W        W11964  32.440   0.663  12.301
39639W        W11965  36.999  27.020  12.025
39640W        W11966  30.217  33.015   4.454
39641W        W11967   5.870  29.185   1.197
39642W        W11968  40.256   4.733   5.126
39643W        W11969  28.566  31.154   4.628
39644W        W11970  19.122  31.429   0.152
39645W        W11971   0.807  11.267   0.143
39646W        W11972  42.837  34.725  10.544
39647W        W11973   8.072  35.005  14.254
39648W        W11974  43.939  12.027  13.544
39649W        W11975  22.052   8.357   3.798
39650W        W11976  43.716   3.541   4.537
39651W        W11977  31.556  31.626  13.824
39652W        W11978  36.024  18.938   1.432
39653W        W11979  24.657  35.470   2.166
39654W        W11980   3.453  14.205  12.979
39655W        W11981  39.443   3.363   0.240
39656W        W11982   7.210  26.971   3.807
39657W        W11983   8.409  24.032  12.070
39658W        W11984  26.183  37.799  11.177
39659W        W11985   6.366   0.441  14.839
39660W        W11986   5.769  19.916  10.648
39661W        W11987  25.497  18.859   2.197
39662W        W11988   3.154   8.924   1.935
39663W        W11989  10.185  19.748   4.187
39664W        W11990  41.909  37.765  11.578
39665W        W11991   3.157  29.376   1.804
39666W        W11992  23.368  32.357  14.899
39667W        W11993  11.291   1.656  12.498
39668W        W11994  35.376  15.226  11.020
39669W        W11995  23.944  23.048  14.913
39670W        W11996   9.704  22.448   3.503
39671W        W11997  16.798  44.815  13.029
39672W        W11998   5.745  23.475   0.039
39673W        W11999  18.348   6.221   0.868
39674W        W12000  37.963  34.936  13.509
39675W        W12001  15.319  33.023   3.708
39676W        W12002   4.277  17.064  10.543
39677W        W12003  44.813  41.097  11.605
39678W        W12004   7.764  21.143  11.519
39679W        W12005  15.530   4.872  11.221
39680W        W12006  24.996  20.560  14.800
39681W        W12007  24.352  10.753   1.157
39682W        W12008  41.460  13.811   3.460
39683W        W12009  11.849  23.451  13.787
39684W        W12010  16.722   0.270  11.607
39685W        W12011   6.683   5.806  12.628
39686W        W12012   0.675  16.621   3.483
39687W        W12013   1.728  14.336  14.053
39688W        W12014  33.464  16.678   3.372
39689W        W12015   4.674   9.756   4.326
39690W        W12016  37.053  21.700   3.838
39691W        W12017  32.493  32.469   1.330
39692W        W12018   5.902  26.209   2.199
39693W        W12019  12.722  21.740  12.889
39694W        W12020   4.193   4.900  14.509
39695W        W12021  32.636  11.241  10.719
39696W        W12022  18.456  33.627  14.162
39697W        W12023  29.127  32.108  12.038
39698W        W12024   2.111  37.385   5.089
39699W        W12025  43.222  41.950   2.660
39700W        W12026  40.953  21.093   1.558
39701W        W12027  20.476   6.754  11.882
39702W        W12028  17.042  17.685  11.444
39703W        W12029  33.480  37.294  14.522
39704W        W12030  32.493  24.586   0.729
39705W        W12031  24.734  44.744   3.037
39706W        W12032  28.940  39.447  12.638
39707W        W12033  18.164  24.729   0.142
39708W        W12034  12.393  17.566   0.417
39709W        W12035   2.668  14.329  11.144
39710W        W12036  22.142   3.229  12.004
39711W        W12037  27.713  13.389   1.806
39712W        W12038  22.669   2.491  12.977
39713W        W12039  26.011  16.448   1.479
39714W        W12040   8.662  25.145   4.899
39715W        W12041  21.944   0.901  11.170
39716W        W12042   7.128  26.849  13.991
39717W        W12043  10.677   9.758  12.562
39718W        W12044  13.248  20.950   2.166
39719W        W12045  36.978  15.571  12.455
39720W        W12046  33.713  22.559   4.042
39721W        W12047   9.280  16.509   2.972
39722W        W12048  36.544  27.590   3.127
39723W        W12049  28.532  17.258  12.540
39724W        W12050  44.379  22.674   0.254
39725W        W12051  39.396  42.381  11.613
39726W        W12052   0.950  14.381   2.388
39727W        W12053  14.160   1.208  14.429
39728W        W12054   9.286  24.926  13.753
39729W        W12055  13.091  18.663   0.701
39730W        W12056   2.354  20.272   3.343
39731W        W12057  30.585  31.704  11.526
39732W        W12058   5.314  35.658   3.739
39733W        W12059  35.794  29.550   0.816
39734W        W12060  21.579  30.683  13.038
39735W        W12061   4.290   2.748   9.762
39736W        W12062  42.540  22.600   1.233
39737W        W12063   5.961   2.850   0.487
39738W        W12064   6.836  10.271  13.859
39739W        W12065  40.375  20.634  12.824
39740W        W12066  30.557   4.638   1.619
39741W        W12067   1.504  19.622   5.009
39742W        W12068  25.259   4.936   3.590
39743W        W12069  11.916  35.063   3.161
39744W        W12070   3.783   0.933  13.525
39745W        W12071  11.872  36.593   4.194
39746W        W12072  30.598  24.062   4.476
39747W        W12073  43.948   6.110   4.221
39748W        W12074  36.342  15.639   9.995
39749W        W12075  23.735   1.265  10.718
39750W        W12076  36.877   1.242   0.418
39751W        W12077  35.001  29.565   1.805
39752W        W12078   5.623   2.840  14.556
39753W        W12079  25.859  29.523  11.300
39754W        W12080  28.096   2.853  14.329
39755W        W12081  44.960   2.292   0.968
39756W        W12082  29.277   9.856   0.861
39757W        W12083   7.626  39.103  13.129
39758W        W12084  10.183   3.168   0.487
39759W        W12085  37.556  13.139   0.211
39760W        W12086   6.179  32.222  13.952
39761W        W12087  11.796  11.608   2.784
39762W        W12088  20.561  42.928   1.185
39763W        W12089   8.226   0.227   0.536
39764W        W12090   7.236  38.106  14.391
39765W        W12091  43.998  13.023   3.576
39766W        W12092  34.665  22.133   1.937
39767W        W12093   8.201  35.438  14.015
39768W        W12094  29.547  22.766  12.207
39769W        W12095  44.810  19.677   2.389
39770W        W12096   8.736   1.263   0.239
39771W        W12097  15.196  13.168  13.124
39772W        W12098  32.067  11.257  14.740
39773W        W12099   6.298   0.990  10.608
39774W        W12100   1.883   2.973   2.401
39775W        W12101  28.929  23.112  13.846
39776W        W12102  23.525   4.490  13.034
39777W        W12103   9.112   6.451  13.831
39778W        W12104  30.696  31.633  13.783
39779W        W12105  11.613   7.698   2.910
39780W        W12106   7.790   1.704  11.976
39781W        W12107  16.821  25.045   0.433
39782W        W12108   3.907  36.642  10.752
39783W        W12109  41.847  15.047  13.828
39784W        W12110  43.516  18.888   0.628
39785W        W12111   3.759   7.976   3.674
39786W        W12112   9.318  24.479   2.467
39787W        W12113  13.106   9.287  10.741
39788W        W12114   9.696  43.024   1.852
39789W        W12115  21.693  22.165  12.102
39790W        W12116  30.646  10.875   2.780
39791W        W12117  25.962  33.981   3.894
39792W        W12118  29.056  14.174  14.881
39793W        W12119  20.069  17.336   3.630
39794W        W12120  10.793   0.241   4.821
39795W        W12121  34.881  30.114   3.234
39796W        W12122  38.473  29.169  14.826
39797W        W12123   8.298  43.751  14.488
39798W        W12124   0.284  36.060  14.990
39799W        W12125   4.009  38.341   2.319
39800W        W12126  38.120  18.158  14.865
39801W        W12127  28.502   5.422   3.085
39802W        W12128   1.192  39.893  10.676
39803W        W12129  14.607  12.228  14.989
39804W        W12130  11.102  16.718   0.370
39805W        W12131  12.618  28.991   4.086
39806W        W12132   1.772  30.449   0.287
39807W        W12133  44.246  39.977  14.133
39808W        W12134  28.657  11.811   3.161
39809W        W12135  21.194  36.071  11.961
39810W        W12136  14.202   5.899  13.139
39811W        W12137  27.498   0.506   2.417
39812W        W12138  27.176   3.227  14.476
39813W        W12139  44.392  44.367   2.628
39814W        W12140   3.710   0.246   4.167
39815W        W12141  35.991   1.151   0.393
39816W        W12142  13.638  33.973   4.141
39817W        W12143  43.903  22.534  13.512
39818W        W12144  39.835  29.585  10.697
39819W        W12145  20.822  14.205  12.049
39820W        W12146  40.703  17.804  10.957
39821W        W12147  26.440  35.720  11.696
39822W        W12148  22.691  30.349  11.158
39823W        W12149  23.287   9.791  12.193
39824W        W12150  18.686  22.737  13.469
39825W        W12151   3.036  25.526   3.296
39826W        W12152  33.273   3.569   0.837
39827W        W12153   0.983   5.314   3.398
39828W        W12154  13.658  33.592   9.719
39829W        W12155  37.333  13.341  13.861
39830W        W12156  32.656  34.643   0.295
39831W        W12157  13.407  42.254  13.407
39832W        W12158  43.773  44.299  14.289
39833W        W12159   4.226  33.656   2.801
39834W        W12160  16.161   3.438  13.382
39835W        W12161  14.806  33.211   1.217
39836W        W12162  13.805  38.894  14.289
39837W        W12163   8.924  18.623   3.075
39838W        W12164  11.178  35.572   2.759
39839W        W12165  28.535  15.276   3.780
39840W        W12166   8.645  11.328   0.783
39841W        W12167   5.681  27.529   1.964
39842W        W12168  30.066   5.017  12.960
39843W        W12169  42.868  41.859   2.085
39844W        W12170   4.815  10.220  12.612
39845W        W12171  38.900  43.301   3.905
39846W        W12172  33.009  20.161  14.195
39847W        W12173   8.188  14.824   2.623
39848W        W12174  14.195  19.199   1.197
39849W        W12175  44.522  29.252   1.850
39850W        W12176   4.251  28.538   4.611
39851W        W12177  12.584   3.416   0.777
39852W        W12178  42.532  42.437   0.758
39853W        W12179  32.591  13.441   0.037
39854W        W12180  39.161  14.686  12.269
39855W        W12181  17.157  10.097  11.447
39856W        W12182   7.418  34.713   1.384
39857W        W12183  22.048  37.618  11.989
39858W        W12184  42.702  12.813   4.691
39859W        W12185  41.036   7.871   4.054
39860W        W12186   1.487  36.917   2.113
39861W        W12187  24.499  29.866   2.197
39862W        W12188  28.841  35.583  11.984
39863W        W12189  23.875  16.273   2.109
39864W        W12190  14.239  13.137   2.807
39865W        W12191  33.039  16.039  11.937
39866W        W12192  12.359  15.331   0.756
39867W        W12193  20.463  15.308   0.938
39868W        W12194  43.005   3.838   2.359
39869W        W12195  29.474  29.372  11.051
39870W        W12196  28.723  31.567  10.643
39871W        W12197  35.253  30.600   3.340
39872W        W12198  20.679  13.306   3.586
39873W        W12199  27.978  14.067  13.310
39874W        W12200  19.686  34.162  14.471
39875W        W12201  14.410  25.370  13.774
39876W        W12202   1.797  12.920   1.930
39877W        W12203  25.975   6.418   1.124
39878W        W12204   1.650  31.577   4.889
39879W        W12205  22.171  31.455   1.816
39880W        W12206   3.479  23.590  12.299
39881W        W12207   9.898  36.879  13.468
39882W        W12208   7.240  10.647   3.021
39883W        W12209  28.615  30.623   4.563
39884W        W12210   6.867  43.039  14.388
39885W        W12211  30.372   3.921  10.712
39886W        W12212  22.802  23.827  11.549
39887W        W12213  30.898  18.313  11.815
39888W        W12214   5.911  15.682  13.102
39889W        W12215  12.153  15.286   0.284
39890W        W12216  13.809   0.371  12.861
39891W        W12217   4.227  30.073   3.405
39892W        W12218  31.246  43.878   2.391
39893W        W12219  30.705   0.734   1.084
39894W        W12220   3.717  10.666   3.262
39895W        W12221  41.248   3.251   3.288
39896W        W12222  43.923  33.557  11.872
39897W        W12223  14.023  31.830  13.469
39898W        W12224  19.096  36.576  13.320
39899W        W12225  39.323   4.459  10.752
39900W        W12226  14.248  35.866   4.673
39901W        W12227  18.697  34.492  12.676
39902W        W12228  28.919  22.312   1.234
39903W        W12229  33.631  31.662  10.712
39904W        W12230  15.810  22.964   0.250
39905W        W12231   7.441  33.141   0.277
39906W        W12232  39.329  43.655   4.617
39907W        W12233  23.781  34.231   2.386
39908W        W12234  28.020  32.049   2.341
39909W        W12235  29.448  41.483  14.531
39910W        W12236   0.620  22.318   5.438
39911W        W12237   4.209  28.428   0.733
39912W        W12238  24.715   0.045  12.175
39913W        W12239   9.585  42.847   2.788
39914W        W12240   5.139  31.280   1.071
39915W        W12241  42.933   4.145   1.147
39916W        W12242  30.102  11.545   0.463
39917W        W12243  19.211  32.355  12.071
39918W        W12244   6.828   2.775  11.847
39919W        W12245  15.859   5.246  11.160
39920W        W12246  10.164  35.340   2.808
39921W        W12247   7.996  28.671   1.380
39922W        W12248   0.041  32.897   2.631
39923W        W12249  30.889   5.142  14.260
39924W        W12250   1.258  36.948   1.180
39925W        W12251   0.711  44.065   0.330
39926W        W12252  27.028   9.889   4.245
39927W        W12253   1.236  14.609  14.014
39928W        W12254   1.767  34.219  13.492
39929W        W12255   8.338  44.776  11.811
39930W        W12256  28.913  11.316   0.027
39931W        W12257  20.760  22.196   2.745
39932W        W12258  28.654  41.964  14.459
39933W        W12259  43.211  27.463  12.800
39934W        W12260  34.792   9.242   0.837
39935W        W12261  23.546  28.650  14.432
39936W        W12262   6.876  32.534   3.672
39937W        W12263  10.232  20.739  12.758
39938W        W12264  15.530  30.992   1.652
39939W        W12265   9.091   1.708  14.886
39940W        W12266   7.308  42.044   1.084
39941W        W12267  42.072  10.231   0.948
39942W        W12268  22.173   7.839  11.057
39943W        W12269  26.078  43.422   2.399
39944W        W12270  14.584  18.425   2.771
39945W        W12271  30.046  20.327  13.416
39946W        W12272   4.785  30.972   0.332
39947W        W12273  25.603   6.902   3.610
39948W        W12274  31.465  29.923  11.639
39949W        W12275  38.367  25.978  10.612
39950W        W12276  39.402  14.200  13.933
39951W        W12277  31.670  13.669  12.905
39952W        W12278  16.088  21.506   3.241
39953W        W12279  26.240   2.941   4.071
39954W        W12280  42.473  17.333   0.442
39955W        W12281  32.577  44.340   2.409
39956W        W12282  14.616  34.542   0.964
39957W        W12283  12.940  23.714  14.329
39958W        W12284  43.940   8.293  14.057
39959W        W12285  32.433  42.562   3.980
39960W        W12286  32.992  26.241  11.469
39961W        W12287  33.531  16.834   4.908
39962W        W12288   6.160   2.003  10.707
39963W        W12289  24.647  34.633   1.723
39964W        W12290  21.960  28.663  12.127
39965W        W12291  14.239  29.852  11.420
39966W        W12292  36.476   0.542  13.837
39967W        W12293  21.622  29.160  12.964
39968W        W12294  21.311  41.495   2.182
39969W        W12295   5.354  36.939  12.975
39970W        W12296  15.595   7.039   4.038
39971W        W12297   1.974  27.677  12.881
39972W        W12298  24.701  37.984  11.727
39973W        W12299   8.411  12.171   3.689
39974W        W12300  35.895   7.615   1.366
39975W        W12301  26.983  19.668   0.883
39976W        W12302   1.222  18.027   4.672
39977W        W12303  22.265  13.851  12.439
39978W        W12304   1.543  20.125  12.474
39979W        W12305  33.003  13.196  12.353
39980W        W12306   8.327  30.687   3.635
39981W        W12307  20.164   8.288   0.013
39982W        W12308  37.872   7.192  14.871
39983W        W12309   4.868   1.999  14.209
39984W        W12310  12.228   7.924   1.748
39985W        W12311  18.458  17.082   2.571
39986W        W12312  13.144  35.021  12.078
39987W        W12313  43.026  26.115   0.058
39988W        W12314  10.220  15.001  11.477
39989W        W12315  41.171  24.101   0.713
39990W        W12316  17.396  30.236   2.719
39991W        W12317   1.016   7.996   2.336
39992W        W12318  42.486  26.689  13.827
39993W        W12319  21.888  40.604   2.255
39994W        W12320  34.543  24.538  13.857
39995W        W12321  32.182  29.001   3.123
39996W        W12322  11.938  19.084  12.839
39997W        W12323  11.674  27.455   0.993
39998W        W12324  24.664  11.294   4.091
39999W        W12325  35.100   4.886  14.241
40000W        W12326  37.767  29.893   3.741
40001W        W12327  27.475  22.564  14.489
40002W        W12328  29.436  17.702   0.140
40003W        W12329  23.797   5.284   2.953
40004W        W12330  20.379  31.135  14.841
40005W        W12331   6.274   1.722   4.134
40006W        W12332   2.355  32.554  13.408
40007W        W12333  42.958  44.713   4.943
40008W        W12334  15.742  30.403   2.182
40009W        W12335  38.602  35.640  10.558
40010W        W12336  30.068  11.898   1.421
40011W        W12337  35.012  15.187   3.346
40012W        W12338  23.538  37.985   0.203
40013W        W12339  10.299   2.643   0.396
40014W        W12340  43.429  20.637   4.071
40015W        W12341  32.407  40.258  12.999
40016W        W12342  28.522   1.316   3.337
40017W        W12343  29.560  42.861  10.425
40018W        W12344   3.361  17.215  12.874
40019W        W12345  34.773  19.240  11.603
40020W        W12346  13.587  23.736   1.761
40021W        W12347   0.814  32.099   0.002
40022W        W12348  36.912  24.360   2.712
40023W        W12349  21.292  13.534  13.440
40024W        W12350  26.021  11.207   1.879
40025W        W12351  19.772  11.324   0.943
40026W        W12352   8.887  29.245  11.224
40027W        W12353  17.709   6.331  12.027
40028W        W12354   2.922  12.094   4.686
40029W        W12355  11.555  14.170  12.807
40030W        W12356   2.819   7.876  12.230
40031W        W12357  16.787  19.949   1.268
40032W        W12358  31.170  13.327   3.106
40033W        W12359  17.266  25.465  12.458
40034W        W12360  14.286  29.724  10.668
40035W        W12361  35.537  31.081   0.820
40036W        W12362  21.746  24.984  11.944
40037W        W12363  20.091  16.523   1.025
40038W        W12364  23.774   3.439  14.927
40039W        W12365  29.079  31.439   3.559
40040W        W12366  30.208  23.256  12.260
40041W        W12367  37.499   2.998  13.399
40042W        W12368   7.663  26.119   3.700
40043W        W12369  26.028   6.750   1.732
40044W        W12370  41.339   4.965  13.894
40045W        W12371   4.379  41.102  12.558
40046W        W12372   6.378  39.971  14.913
40047W        W12373   3.053  29.840   0.876
40048W        W12374  24.389  33.103  10.606
40049W        W12375  19.142  33.662   4.117
40050W        W12376  16.079  21.649   0.832
40051W        W12377  13.301  23.636   2.228
40052W        W12378  14.220  38.419  12.662
40053W        W12379   2.196   4.640  14.307
40054W        W12380  30.404  29.414   4.132
40055W        W12381  27.750  22.075   1.873
40056W        W12382  34.895  39.558   1.510
40057W        W12383  11.284  38.921   2.852
40058W        W12384   0.313  13.284  14.883
40059W        W12385  10.336  35.500  13.593
40060W        W12386  41.934   1.351  11.554
40061W        W12387  43.781  27.264   2.852
40062W        W12388  24.324  33.395  11.055
40063W        W12389  38.525  25.945  11.485
40064W        W12390  37.281  18.614   3.242
40065W        W12391  40.954   8.905  14.421
40066W        W12392  22.720  40.812  11.023
40067W        W12393  10.142  31.191  12.923
40068W        W12394  29.747   1.689  12.048
40069W        W12395   6.154  44.339   4.266
40070W        W12396  15.870   3.277  13.773
40071W        W12397  17.266  26.410   0.734
40072W        W12398  43.272   9.630   0.335
40073W        W12399   4.764   1.941  12.976
40074W        W12400  19.592  35.787  11.027
40075W        W12401  17.859  24.570  11.053
40076W        W12402  23.545  40.570   3.387
40077W        W12403  19.678  40.499  11.178
40078W        W12404  25.630   8.369  13.433
40079W        W12405   9.778  28.974   2.003
40080W        W12406  14.749   8.191  11.543
40081W        W12407  16.416  22.090   0.889
40082W        W12408  23.941  31.480   2.336
40083W        W12409  35.881  42.067   4.150
40084W        W12410  34.668  17.577  11.160
40085W        W12411  15.729  16.023  14.373
40086W        W12412  37.623  13.613  13.080
40087W        W12413   5.420  42.801   3.264
40088W        W12414  12.255  41.580  10.749
40089W        W12415  12.486  31.918  14.525
40090W        W12416  32.019  16.698   1.239
40091W        W12417  25.117  27.464   4.789
40092W        W12418  30.460  30.136  11.629
40093W        W12419  33.093  32.031   0.858
40094W        W12420   8.004   3.706   1.268
40095W        W12421  28.595  24.543  14.835
40096W        W12422  43.913   7.980  12.261
40097W        W12423  19.810  30.149   0.530
40098W        W12424  39.870  11.330  13.447
40099W        W12425  36.953  32.530  14.131
40100W        W12426  36.127  20.807   0.653
40101W        W12427   2.154   7.650  11.606
40102W        W12428  44.207  26.689  14.430
40103W        W12429  40.983  40.108   0.838
40104W        W12430  31.459  32.597  14.907
40105W        W12431  18.089   9.342   1.955
40106W        W12432  35.857  30.660   0.801
40107W        W12433   0.375  43.433  14.810
40108W        W12434  38.396  27.476  13.100
40109W        W12435  26.629  26.042   4.543
40110W        W12436  30.684   4.381  10.918
40111W        W12437  21.450  33.971   4.231
40112W        W12438  38.372   0.451  10.850
40113W        W12439  19.492  26.064   3.251
40114W        W12440  18.162  31.168   4.742
40115W        W12441  29.156  38.409   3.215
40116W        W12442   7.254   3.237  13.793
40117W        W12443   0.209  10.321  11.234
40118W        W12444  11.812  12.002  11.507
40119W        W12445  36.987  16.621  14.576
40120W        W12446   4.858  19.624   0.367
40121W        W12447  31.808   3.006   1.732
40122W        W12448  30.526  31.463   2.910
40123W        W12449   2.990   3.767  13.200
40124W        W12450  25.356  23.529   4.522
40125W        W12451  10.573  16.047   1.557
40126W        W12452   8.758  43.189   0.837
40127W        W12453   8.675  21.124   9.789
40128W        W12454  30.630   1.616  11.958
40129W        W12455  40.345   0.046  13.975
40130W        W12456  24.565  41.544  14.991
40131W        W12457  18.293  30.888  11.128
40132W        W12458  25.582  15.208  10.929
40133W        W12459  12.124  39.666   3.717
40134W        W12460  34.904  19.792   2.240
40135W        W12461  44.523  15.328   1.846
40136W        W12462   5.260  17.908  14.824
40137W        W12463  34.056   9.540  11.701
40138W        W12464  36.304  41.064   0.285
40139W        W12465  12.149  33.448   2.097
40140W        W12466  23.334  25.290   1.383
40141W        W12467  13.854   3.059  14.602
40142W        W12468  12.103   3.900  14.927
40143W        W12469   8.125  19.698  11.992
40144W        W12470  43.005  29.371   4.587
40145W        W12471  35.443   2.764   2.368
40146W        W12472   6.078  24.201  11.614
40147W        W12473  23.499   0.978  12.885
40148W        W12474   6.893   1.872  12.288
40149W        W12475  36.926  36.407  11.913
40150W        W12476  14.294  37.692   4.962
40151W        W12477  19.116  23.474   1.457
40152W        W12478  26.494   7.006   3.718
40153W        W12479  40.105   8.575  10.725
40154W        W12480  18.601   3.166   0.418
40155W        W12481  39.422  44.467   3.292
40156W        W12482   7.885   8.461   1.430
40157W        W12483  42.267  41.807  13.557
40158W        W12484  23.100  32.977   3.581
40159W        W12485  27.367  10.459   9.806
40160W        W12486  15.293  28.562  13.004
40161W        W12487   5.279  18.392   0.929
40162W        W12488  10.327  44.454   4.606
40163W        W12489  13.493  20.967   4.793
40164W        W12490  22.973  41.912   1.717
40165W        W12491  44.812  17.055  10.554
40166W        W12492  32.208  31.023   5.014
40167W        W12493   1.085  28.687  10.299
40168W        W12494  40.925   4.425   2.299
40169W        W12495   6.910  21.087  14.762
40170W        W12496  24.116  42.794  11.949
40171W        W12497  26.151  13.021   3.958
40172W        W12498  29.167  15.679   4.797
40173W        W12499  40.094  30.172   2.432
40174W        W12500  42.141  22.999   2.816
40175W        W12501  18.014  15.131   1.976
40176W        W12502  19.210   7.382  11.743
40177W        W12503  25.586  24.652   0.034
40178W        W12504  33.171  25.697  12.702
40179W        W12505  19.961  31.316  13.872
40180W        W12506  31.421  44.209  12.075
40181W        W12507   9.020  35.618   3.685
40182W        W12508  12.219  11.722   2.026
40183W        W12509  36.362  28.636   3.644
40184W        W12510  39.503   8.936   2.157
40185W        W12511   0.651   5.110   1.966
40186W        W12512  20.695  20.971   1.517
40187W        W12513   1.717  42.951  13.910
40188W        W12514  29.428  20.641   3.892
40189W        W12515  11.041  31.630   1.846
40190W        W12516   5.227   0.853   2.310
40191W        W12517  15.725   9.359   2.277
40192W        W12518  39.277  29.978   1.484
40193W        W12519  41.882  30.977  12.080
40194W        W12520   6.729  30.108  13.026
40195W        W12521  27.237  10.574  12.996
40196W        W12522  12.157  29.543  12.154
40197W        W12523  25.127  36.378   4.446
40198W        W12524  33.945  14.738   3.817
40199W        W12525  28.090   8.629   2.782
40200W        W12526  21.268  44.985  12.958
40201W        W12527  30.487   4.125   4.213
40202W        W12528  33.835  28.062   2.351
40203W        W12529  30.578  28.157  12.930
40204W        W12530  23.099   4.746  13.427
40205W        W12531  18.131  28.095  10.676
40206W        W12532  28.113  33.535   2.115
40207W        W12533   5.984  14.631  12.670
40208W        W12534  13.841  20.606   4.596
40209W        W12535  22.436  14.461   3.290
40210W        W12536   3.000  12.337   4.228
40211W        W12537  33.342  39.554  11.147
40212W        W12538  24.169  24.160   3.089
40213W        W12539  11.111  16.215   0.422
40214W        W12540   7.901  19.241  10.559
40215W        W12541  12.673   3.333  12.982
40216W        W12542  29.182  33.519   0.769
40217W        W12543  43.334   5.413  14.375
40218W        W12544  39.131  15.061  13.461
40219W        W12545  14.141  17.947  11.579
40220W        W12546  25.118  44.180   2.373
40221W        W12547   8.756  43.463   1.277
40222W        W12548  32.781  40.831   0.658
40223W        W12549  37.563  20.305   0.058
40224W        W12550  37.916   3.807   0.761
40225W        W12551   0.393  32.961  11.220
40226W        W12552  34.413  12.762   1.380
40227W        W12553  35.595  16.973   4.505
40228W        W12554  27.598  42.017   4.505
40229W        W12555  10.708  14.627   1.747
40230W        W12556  37.814  29.034   3.442
40231W        W12557  44.936  31.448   0.834
40232W        W12558   0.464  32.627  11.597
40233W        W12559  35.143  34.654  10.231
40234W        W12560  18.056   6.743   2.309
40235W        W12561   0.911  33.969  13.981
40236W        W12562  18.200  19.002  14.747
40237W        W12563  43.804  44.826   4.088
40238W        W12564  21.296  34.470   0.874
40239W        W12565  30.710  27.429   0.801
40240W        W12566   4.188  34.327   3.649
40241W        W12567   9.277  13.043   2.522
40242W        W12568  12.673  34.099   2.735
40243W        W12569  32.929   2.916   0.991
40244W        W12570   8.770  12.553  11.145
40245W        W12571  29.003  39.819  14.835
40246W        W12572   5.479  27.986   1.792
40247W        W12573  30.693  11.597   3.613
40248W        W12574  15.336  26.495  12.920
40249W        W12575   8.942  40.565  10.506
40250W        W12576  11.459  11.965  12.468
40251W        W12577   3.924  32.448   0.385
40252W        W12578   9.995  37.448   3.377
40253W        W12579  27.712  22.909  11.019
40254W        W12580  29.864  34.852  13.961
40255W        W12581   6.118  33.985   4.117
40256W        W12582   5.204   4.954   1.986
40257W        W12583  37.851  40.236  11.000
40258W        W12584  14.319  35.828  12.049
40259W        W12585  17.378  32.491  11.985
40260W        W12586  41.446  25.500  12.840
40261W        W12587  36.440  29.473   3.327
40262W        W12588   4.835  32.137  10.220
40263W        W12589   1.407  19.973   2.320
40264W        W12590  16.802  39.830  13.213
40265W        W12591  19.745  33.456  12.481
40266W        W12592  23.291  19.978   2.314
40267W        W12593   5.777  34.942   4.619
40268W        W12594  19.609  18.855   1.637
40269W        W12595  28.957  30.955  13.519
40270W        W12596  32.438   6.717  11.175
40271W        W12597  11.307  34.271   2.810
40272W        W12598  21.168   1.022  14.016
40273W        W12599  39.482  27.029  10.695
40274W        W12600  41.226  39.969  11.191
40275W        W12601  44.778  39.465  12.947
40276W        W12602  41.775  35.837   0.412
40277W        W12603  12.209   6.988   1.726
40278W        W12604   0.752  13.837   0.344
40279W        W12605  44.022  41.142   0.369
40280W        W12606  29.419  19.827   4.614
40281W        W12607  44.641  24.669  12.820
40282W        W12608  21.230   0.788  14.481
40283W        W12609   3.292  28.132   2.280
40284W        W12610  43.986  38.918  11.661
40285W        W12611  29.112  15.616   1.764
40286W        W12612  36.581  26.618  11.280
40287W        W12613   4.902  32.571  11.662
40288W        W12614   0.568  41.341  13.807
40289W        W12615  39.820  40.289   3.618
40290W        W12616  44.498  44.083   3.676
40291W        W12617  18.149   0.227  10.504
40292W        W12618  37.046  19.045   3.081
40293W        W12619  10.885  17.653   3.123
40294W        W12620  36.898  30.891  13.818
40295W        W12621  39.000  39.252  10.924
40296W        W12622  43.683  29.702  11.471
40297W        W12623  16.331  17.045  12.966
40298W        W12624  15.657   2.791   3.674
40299W        W12625  34.132  13.855  12.981
40300W        W12626  44.022  26.891  14.874
40301W        W12627  42.396  31.580  14.504
40302W        W12628  24.657  18.621   4.563
40303W        W12629  14.629   0.791   1.256
40304W        W12630  40.911  10.904  11.204
40305W        W12631  27.676   5.163   1.876
40306W        W12632   0.783  32.067   4.644
40307W        W12633  30.533   7.611  13.254
40308W        W12634  35.961   9.713   4.074
40309W        W12635  38.709   8.886   5.244
40310W        W12636  34.703  25.920  14.709
40311W        W12637   9.186  28.602   4.898
40312W        W12638  36.925  12.339  14.378
40313W        W12639  43.842  31.272   4.323
40314W        W12640  27.575   7.251  14.113
40315W        W12641  12.756  44.956   3.132
40316W        W12642  20.232  16.155   9.948
40317W        W12643  28.970  12.537  11.054
40318W        W12644   1.067  21.864   9.791
40319W        W12645  42.889  13.212   1.562
40320W        W12646  37.945  33.513  14.964
40321W        W12647  21.071   3.211   1.311
40322W        W12648  11.934  17.269   1.298
40323W        W12649  11.230  19.207   0.492
40324W        W12650   2.351  28.404  12.373
40325W        W12651   0.865  18.071   4.227
40326W        W12652  24.761   3.903   3.627
40327W        W12653  31.087  34.262   2.833
40328W        W12654   1.868  15.565  10.647
40329W        W12655   0.375   9.593  12.488
40330W        W12656   8.226  11.407  14.927
40331W        W12657  14.575  26.282  11.609
40332W        W12658  40.118  21.469   1.827
40333W        W12659  12.042   7.224  13.395
40334W        W12660  25.771  14.573   2.866
40335W        W12661  26.357  23.021   2.270
40336W        W12662   6.789  44.079   4.225
40337W        W12663  13.861  13.118  12.462
40338W        W12664  22.008  33.265  13.363
40339W        W12665  27.123  16.295  14.972
40340W        W12666  33.877  15.440  12.212
40341W        W12667  19.196  35.521   3.276
40342W        W12668  21.253   6.698  10.692
40343W        W12669  33.307   0.762  11.680
40344W        W12670  32.546   9.396   1.197
40345W        W12671  20.731   9.906  12.046
40346W        W12672  33.520  39.519  12.966
40347W        W12673   4.350  15.153   0.662
40348W        W12674  21.665  32.935  11.410
40349W        W12675   8.164  21.822   3.229
40350W        W12676  23.567  19.083  14.413
40351W        W12677  40.230  21.188   1.351
40352W        W12678   4.254  20.569  12.190
40353W        W12679  16.673  38.598  11.548
40354W        W12680  37.978  22.165  10.669
40355W        W12681  32.135  14.219   3.667
40356W        W12682  31.552  29.747  11.153
40357W        W12683  42.517   9.279  10.560
40358W        W12684   0.292  16.709  11.673
40359W        W12685   1.937  15.941  12.159
40360W        W12686  44.711   2.432  13.481
40361W        W12687   6.913   9.244   4.033
40362W        W12688  18.175   1.527   1.766
40363W        W12689  31.723  39.139  14.587
40364W        W12690   6.408  32.328   1.726
40365W        W12691   3.239  15.946   0.737
40366W        W12692  40.435  32.372  10.644
40367W        W12693  22.685  30.651  11.594
40368W        W12694  25.155  33.712  11.998
40369W        W12695  23.499  40.613   1.007
40370W        W12696  19.427  26.575  14.399
40371W        W12697   9.162  13.714  10.962
40372W        W12698  42.437  16.684   2.965
40373W        W12699   5.591  14.367   0.032
40374W        W12700  12.160  37.958   3.705
40375W        W12701   6.148  23.960  10.753
40376W        W12702   2.318   2.462   1.349
40377W        W12703   3.345   9.192  11.978
40378W        W12704   7.797  23.750   0.832
40379W        W12705  11.721   6.313  13.801
40380W        W12706  42.791  22.388  11.075
40381W        W12707  41.915   1.325  12.445
40382W        W12708   1.762  10.103   0.759
40383W        W12709  38.146   6.397   3.795
40384W        W12710   4.351  25.524   4.111
40385W        W12711  26.096   1.723   3.227
40386W        W12712  32.121  24.138   3.316
40387W        W12713  44.157  17.841   1.112
40388W        W12714   5.660  35.409   4.014
40389W        W12715  39.576  23.292  10.703
40390W        W12716  25.777  38.888   2.207
40391W        W12717  17.446  12.278  13.589
40392W        W12718   0.958  27.990   2.792
40393W        W12719  31.568  37.331   0.848
40394W        W12720  43.976  20.703  12.540
40395W        W12721  42.937  35.230   4.181
40396W        W12722  14.081   2.900   3.800
40397W        W12723  41.109  19.639   3.692
40398W        W12724   6.137   4.590   4.691
40399W        W12725   4.196  27.053   4.832
40400W        W12726  23.147  24.494   1.967
40401W        W12727   6.188  38.944   4.107
40402W        W12728  17.727  43.219  11.030
40403W        W12729  24.603  30.100  11.888
40404W        W12730   8.205   3.844   3.789
40405W        W12731   1.194   3.687  10.756
40406W        W12732  14.305  39.557   1.223
40407W        W12733  29.390  32.097  11.537
40408W        W12734  16.135  40.560   0.353
40409W        W12735   5.299   3.361   5.000
40410W        W12736  37.705  40.975   2.711
40411W        W12737  18.073  10.343  14.711
40412W        W12738  33.931  14.628  13.619
40413W        W12739  17.803  25.591  13.368
40414W        W12740  43.999  19.385   3.296
40415W        W12741  21.130  44.743  12.420
40416W        W12742  40.490  10.872  10.902
40417W        W12743  13.167  33.671  11.553
40418W        W12744  43.078  23.621  11.044
40419W        W12745  43.879  14.691  10.566
40420W        W12746  26.983  22.589   4.580
40421W        W12747   1.699  26.736   1.670
40422W        W12748  16.012   6.241   4.117
40423W        W12749  43.367  31.071   4.158
40424W        W12750  28.881  14.314  13.839
40425W        W12751  23.888  44.323   1.430
40426W        W12752  25.732   2.179   4.499
40427W        W12753  42.253   8.102   5.065
40428W        W12754   3.197  14.761   5.064
40429W        W12755  24.266  24.271   0.411
40430W        W12756  37.536  42.612   4.905
40431W        W12757  41.491   0.108   0.271
40432W        W12758   3.546  32.050   4.101
40433W        W12759  11.079  37.864  14.375
40434W        W12760  44.147  35.980   1.422
40435W        W12761  18.579   5.220   3.065
40436W        W12762  34.389  29.897   0.332
40437W        W12763  16.308  27.126   1.342
40438W        W12764  11.654  36.578   0.362
40439W        W12765  28.907  38.204  12.540
40440W        W12766   1.957  21.834   9.605
40441W        W12767   4.412  19.909   0.265
40442W        W12768  14.622  11.178  13.084
40443W        W12769  13.125  24.064  13.960
40444W        W12770  21.325   9.788  14.761
40445W        W12771  15.818  22.889   2.940
40446W        W12772  37.601  15.040   0.502
40447W        W12773  15.570  28.321  12.577
40448W        W12774  22.965  24.095  14.878
40449W        W12775  43.780   6.979  11.995
40450W        W12776  22.074   6.415  11.328
40451W        W12777  43.038   3.383   4.103
40452W        W12778  28.043  15.216   0.301
40453W        W12779  14.710  25.712   2.189
40454W        W12780  41.997  40.828   0.290
40455W        W12781  29.141  40.513   3.275
40456W        W12782   3.925  25.063  12.152
40457W        W12783  30.671  25.595  14.267
40458W        W12784  24.343  39.408   0.120
40459W        W12785  26.198  19.489  11.823
40460W        W12786  32.497  19.720   3.243
40461W        W12787  13.092   1.942  12.688
40462W        W12788   7.654   4.510  13.110
40463W        W12789  36.983  29.214   0.194
40464W        W12790  41.919  19.778   0.087
40465W        W12791   4.804  30.219  14.330
40466W        W12792   5.457  39.547  11.874
40467W        W12793   8.415  15.652  13.899
40468W        W12794  20.315  10.377   1.851
40469W        W12795  10.710   6.026  12.436
40470W        W12796  21.172  18.175   2.194
40471W        W12797  14.098  17.538   3.706
40472W        W12798  10.795  10.098  12.929
40473W        W12799  21.818  26.697   4.600
40474W        W12800  32.645  38.292  11.679
40475W        W12801  21.835  33.664  11.026
40476W        W12802  38.437  24.917   4.768
40477W        W12803  14.914   5.319  12.079
40478W        W12804  22.058  21.473   4.029
40479W        W12805  18.253   6.455   3.620
40480W        W12806  25.735  31.692  12.155
40481W        W12807   3.269  11.498   4.968
40482W        W12808  14.161  28.912   4.353
40483W        W12809   6.632   2.676   1.798
40484W        W12810  38.000  22.466  12.062
40485W        W12811  44.481  31.134  13.814
40486W        W12812  32.044  25.020   4.254
40487W        W12813  27.943  27.092  12.726
40488W        W12814   6.355  42.477  13.788
40489W        W12815  10.293   9.598   3.757
40490W        W12816  26.620  13.554   3.766
40491W        W12817  15.098  39.072   3.590
40492W        W12818  20.908  33.824   4.162
40493W        W12819  14.735  39.982  11.657
40494W        W12820  18.133  31.056   1.892
40495W        W12821  34.097  39.507  12.604
40496W        W12822  17.146  43.841  10.657
40497W        W12823  39.372   5.963   1.287
40498W        W12824  40.754   7.274  11.944
40499W        W12825  13.841  39.901   3.683
40500W        W12826  24.029  29.172  13.016
40501W        W12827  24.910  14.838   5.484
40502W        W12828  25.291  26.045   0.894
40503W        W12829  25.760  27.013   3.294
40504W        W12830  34.696  17.357  14.370
40505W        W12831  19.704  16.518  13.377
40506W        W12832   8.138  31.657  13.367
40507W        W12833   7.131  43.789   4.486
40508W        W12834   3.011  16.671   4.622
40509W        W12835  34.559  29.575   2.121
40510W        W12836  34.521  30.987   3.637
40511W        W12837   1.761  31.026  14.308
40512W        W12838  22.665   6.183   3.735
40513W        W12839  40.778  10.339  10.233
40514W        W12840   1.235  13.999  11.169
40515W        W12841  43.269  34.703   4.929
40516W        W12842  15.761  17.136   4.124
40517W        W12843  36.070  16.177  11.689
40518W        W12844  19.836   0.789  12.042
40519W        W12845  28.961  18.117   1.317
40520W        W12846  11.054  28.745  11.968
40521W        W12847  14.395  36.929  13.935
40522W        W12848  10.612  31.550  14.318
40523W        W12849  15.323  36.584  13.755
40524W        W12850  43.199  40.894  12.559
40525W        W12851  43.906  42.073   2.181
40526W        W12852  12.683   8.307   2.009
40527W        W12853  21.421   9.650   0.272
40528W        W12854  24.044  15.104   9.563
40529W        W12855  40.359  10.646   4.794
40530W        W12856  31.437  43.945   2.880
40531W        W12857  28.612  14.823  13.852
40532W        W12858   3.202  38.817  10.908
40533W        W12859  20.305  43.446   3.806
40534W        W12860  22.342  30.454   1.702
40535W        W12861  25.482  25.314   1.477
40536W        W12862  24.758  14.463  13.930
40537W        W12863  30.440   2.273   1.179
40538W        W12864  42.302  33.855   0.720
40539W        W12865  14.275  28.249  12.507
40540W        W12866  17.697  19.034  11.114
40541W        W12867  30.950  25.988  10.494
40542W        W12868  31.356  33.992   0.341
40543W        W12869   5.000  29.999  11.103
40544W        W12870  11.884  19.164   4.352
40545W        W12871  33.394  28.947   2.232
40546W        W12872  29.448  37.286  12.027
40547W        W12873  21.675  34.452  12.448
40548W        W12874  33.037  26.928  10.203
40549W        W12875  29.965  33.003  12.039
40550W        W12876  22.456  10.241   4.547
40551W        W12877  17.842  33.381   1.617
40552W        W12878  33.807  12.173   2.872
40553W        W12879   7.585  20.447   3.817
40554W        W12880   1.792  41.339   1.220
40555W        W12881  28.670  22.478  13.782
40556W        W12882  15.611  18.289  14.763
40557W        W12883  36.942   2.800   4.444
40558W        W12884  12.110  23.525  14.752
40559W        W12885  16.069  37.536  12.517
40560W        W12886  19.401   8.165  14.835
40561W        W12887  43.259  11.296  14.856
40562W        W12888  10.773   1.881  13.524
40563W        W12889  21.191  17.218  10.579
40564W        W12890  41.609   9.870   4.161
40565W        W12891  14.168  13.724   1.767
40566W        W12892  25.470   1.670   1.476
40567W        W12893  38.865  24.899   1.765
40568W        W12894   2.476   6.198   2.331
40569W        W12895   3.494  37.905   4.118
40570W        W12896  31.205  12.425  13.248
40571W        W12897  39.836   4.679   3.805
40572W        W12898  36.610   0.502  10.613
40573W        W12899  15.754  19.727   1.043
40574W        W12900  15.382   1.915  12.918
40575W        W12901   9.694  38.340   0.435
40576W        W12902   5.006  23.658  12.002
40577W        W12903  38.798   9.649  11.627
40578W        W12904  15.221  44.787  12.329
40579W        W12905  42.594  20.238   1.372
40580W        W12906  34.277   5.791   1.159
40581W        W12907  31.619  35.057  13.098
40582W        W12908  21.783  22.200  12.615
40583W        W12909  37.947  23.691  11.564
40584W        W12910  17.440  27.241  11.063
40585W        W12911  27.132  43.329  14.727
40586W        W12912  40.043  22.777   2.178
40587W        W12913  31.025  37.100   4.615
40588W        W12914   4.252  17.726  12.391
40589W        W12915   2.668  34.857  13.918
40590W        W12916  33.358   2.176  14.866
40591W        W12917   3.262  25.280   1.304
40592W        W12918  33.556  38.551  13.022
40593W        W12919  30.528  12.457   3.292
40594W        W12920  41.509  23.740  11.710
40595W        W12921  26.196  32.971  11.529
40596W        W12922  41.815  17.564   0.476
40597W        W12923  24.635  32.159   4.576
40598W        W12924   7.258  40.810   4.054
40599W        W12925  22.244  26.276   3.384
40600W        W12926  21.125  14.859  12.965
40601W        W12927   5.989  27.076   2.624
40602W        W12928  28.904  28.670   1.279
40603W        W12929   8.783  11.178   1.646
40604W        W12930  26.064   3.974   0.536
40605W        W12931  21.289  26.529   3.717
40606W        W12932  13.288  24.113  10.629
40607W        W12933  18.879  25.224  13.049
40608W        W12934  35.486  21.117  13.563
40609W        W12935  24.813   6.852  11.147
40610W        W12936  43.202  28.101   2.631
40611W        W12937  41.983  26.270  13.266
40612W        W12938   9.951   0.530   1.662
40613W        W12939   7.261   9.942  13.302
40614W        W12940  14.526  18.588  13.957
40615W        W12941  16.511   3.375   2.857
40616W        W12942  40.864  33.941  12.560
40617W        W12943  12.831   0.900   2.420
40618W        W12944   0.558  37.384  14.472
40619W        W12945   9.660  44.084  12.566
40620W        W12946  31.059  40.960  10.897
40621W        W12947  19.046  29.448   0.002
40622W        W12948  29.336  38.958  10.525
40623W        W12949  35.957   4.747   0.872
40624W        W12950  21.775  22.206   4.649
40625W        W12951   6.318  27.939   0.858
40626W        W12952  25.515  25.815   3.413
40627W        W12953  14.279  40.877  10.272
40628W        W12954  44.453  18.101   4.368
40629W        W12955  29.222  32.972   4.302
40630W        W12956  34.362  19.796   0.275
40631W        W12957  31.145  19.264  13.417
40632W        W12958  36.892   5.434   1.695
40633W        W12959  19.022  38.374  10.885
40634W        W12960  19.540  39.317   3.069
40635W        W12961  44.485  16.175  12.615
40636W        W12962  11.733   1.684   1.923
40637W        W12963  12.260   0.039  13.519
40638W        W12964  16.616  27.170  11.186
40639W        W12965   7.967  15.663   5.096
40640W        W12966  12.376  14.250   4.614
40641W        W12967  36.556  30.945   2.290
40642W        W12968  23.517   3.877  13.380
40643W        W12969  34.404  23.805  10.493
40644W        W12970  40.815   9.844   1.477
40645W        W12971   0.959   6.211   0.806
40646W        W12972  21.667  43.706   3.682
40647W        W12973  32.758  33.027  13.089
40648W        W12974   7.436  40.045   4.778
40649W        W12975   4.466   7.862   3.389
40650W        W12976   6.841  36.137   0.886
40651W        W12977  10.158  16.589  10.406
40652W        W12978   1.158  38.601  10.439
40653W        W12979  40.323  17.570   1.492
40654W        W12980  17.333  26.317   2.830
40655W        W12981  11.129   9.212   4.782
40656W        W12982  22.130  15.841   2.828
40657W        W12983  27.880  13.607   3.214
40658W        W12984  38.084   7.878  14.439
40659W        W12985   3.234  23.089   4.021
40660W        W12986   1.597  39.619  14.782
40661W        W12987   5.776  12.621  10.839
40662W        W12988   8.850  11.170  11.412
40663W        W12989   5.483  11.311  14.520
40664W        W12990  34.593  30.217  14.941
40665W        W12991  26.498  27.304   4.219
40666W        W12992  33.832  14.260   2.774
40667W        W12993  25.999   1.432  11.188
40668W        W12994   8.079  35.116  12.025
40669W        W12995  15.411   7.656  14.568
40670W        W12996  26.621   4.729   4.903
40671W        W12997  20.963   9.434  11.194
40672W        W12998  15.282  11.831   2.340
40673W        W12999  40.995  21.737  10.503
40674W        W13000   1.398  24.923  11.456
40675W        W13001  15.002  24.738  12.911
40676W        W13002  24.212  11.320  12.250
40677W        W13003  12.604  24.616  13.393
40678W        W13004  15.619  40.278  12.437
40679W        W13005  37.036   5.458   3.613
40680W        W13006  18.285  39.804   9.848
40681W        W13007  18.673  17.564   1.686
40682W        W13008  35.866  30.011   1.571
40683W        W13009  21.539  26.168   2.584
40684W        W13010  42.797  11.304  13.897
40685W        W13011  44.179   6.760   1.218
40686W        W13012   5.221   6.892   1.424
40687W        W13013   9.959   7.197   0.909
40688W        W13014  17.624  17.365   3.206
40689W        W13015  11.530  15.264   3.070
40690W        W13016  42.826  42.274   2.758
40691W        W13017  10.806  37.334   0.277
40692W        W13018  18.704   5.804  10.770
40693W        W13019  36.905  33.346   0.690
40694W        W13020   8.693  36.581  13.945
40695W        W13021  38.856  23.510  14.282
40696W        W13022   6.348  41.324  13.332
40697W        W13023  24.699   5.585   4.225
40698W        W13024   4.631  38.620  12.861
40699W        W13025   3.275  29.776  11.616
40700W        W13026  29.302  44.962  11.030
40701W        W13027   9.816  27.723  14.440
40702W        W13028  18.276  36.890   1.371
40703W        W13029  44.313  27.950   0.410
40704W        W13030  14.405  18.505   4.020
40705W        W13031  37.941  36.832  12.881
40706W        W13032  37.573   1.404   4.904
40707W        W13033  17.669  26.628  14.963
40708W        W13034  13.236  33.459  13.423
40709W        W13035   7.207  10.076  12.379
40710W        W13036  26.890  38.693   1.424
40711W        W13037  18.576  24.298  12.502
40712W        W13038  23.256   5.251  13.458
40713W        W13039  40.821   3.218  13.528
40714W        W13040  26.609  39.390  13.395
40715W        W13041   5.491   7.372  11.365
40716W        W13042  27.481  33.793  12.382
40717W        W13043   5.670  16.627  11.084
40718W        W13044  12.059   1.414   0.324
40719W        W13045  35.276  14.555   3.738
40720W        W13046  28.701  31.702   3.317
40721W        W13047  44.218  38.025  13.338
40722W        W13048   1.670  26.725  12.942
40723W        W13049   4.130  17.300  11.620
40724W        W13050  37.494  10.577  10.191
40725W        W13051  30.547   3.891  13.047
40726W        W13052  37.932   1.743   3.311
40727W        W13053  34.146   1.802  14.410
40728W        W13054   3.768  22.041  11.087
40729W        W13055  23.909  34.421   1.868
40730W        W13056  39.938  14.979   0.469
40731W        W13057  29.454  42.151  11.637
40732W        W13058  23.554   5.708   2.743
40733W        W13059   4.670  29.001   2.853
40734W        W13060  32.482  23.432   1.724
40735W        W13061  36.910  33.539   1.693
40736W        W13062  30.096  22.018   3.433
40737W        W13063   2.536  35.101   4.696
40738W        W13064   0.877  12.894  14.303
40739W        W13065  40.923  37.038   4.085
40740W        W13066  13.630  37.541   1.852
40741W        W13067  21.038  22.721   4.678
40742W        W13068  36.786  12.321   2.895
40743W        W13069   9.850  32.141   1.214
40744W        W13070  23.713  25.148  12.588
40745W        W13071  43.263  33.382   2.366
40746W        W13072  22.753  21.078   4.611
40747W        W13073  43.511  26.674  11.095
40748W        W13074  16.280  15.994   4.364
40749W        W13075  43.232   4.742  14.829
40750W        W13076  12.307   1.336  14.853
40751W        W13077  29.842   3.235  11.988
40752W        W13078  10.375  15.356  12.867
40753W        W13079  38.008   0.913   1.205
40754W        W13080  11.255  31.963  13.993
40755W        W13081  13.144   1.474  11.148
40756W        W13082  27.188  29.054  14.359
40757W        W13083  40.542   7.783  13.479
40758W        W13084  12.103  14.817  12.095
40759W        W13085  39.896   2.822  10.487
40760W        W13086  37.936   9.651   2.233
40761W        W13087  31.257  38.063   2.500
40762W        W13088  21.713  35.147  13.285
40763W        W13089  41.470   7.116  11.666
40764W        W13090  14.871  34.457  14.331
40765W        W13091  22.787  16.640  11.124
40766W        W13092   2.709  11.315   3.245
40767W        W13093  36.261  44.983  14.697
40768W        W13094  11.948   1.516  14.416
40769W        W13095  15.280  44.346  11.562
40770W        W13096  33.670  15.705   3.849
40771W        W13097  36.441  35.913   3.330
40772W        W13098  10.401  35.016  12.809
40773W        W13099  40.917  15.883  10.197
40774W        W13100  21.442  38.270  10.669
40775W        W13101  33.399   1.721  11.184
40776W        W13102   5.754  16.606   2.782
40777W        W13103  37.841  11.323   2.585
40778W        W13104  42.597  24.753   3.392
40779W        W13105  35.456  37.163   3.716
40780W        W13106   2.481  22.748  13.571
40781W        W13107  16.342   9.304   0.924
40782W        W13108  38.978  21.101   4.596
40783W        W13109  26.412   1.424  10.798
40784W        W13110  17.224   9.127  14.905
40785W        W13111  34.474  42.806   1.157
40786W        W13112  16.571   7.170  11.157
40787W        W13113  28.635  25.798   3.654
40788W        W13114  27.012   2.585  13.066
40789W        W13115   6.343  17.147  13.013
40790W        W13116  37.323  16.597  13.855
40791W        W13117   6.226  23.493  14.073
40792W        W13118  14.377  37.882   2.660
40793W        W13119  29.453  13.256   3.644
40794W        W13120  41.579  11.266   3.602
40795W        W13121  36.995  21.287   0.277
40796W        W13122   9.236  14.660   4.692
40797W        W13123  10.572  36.868   3.148
40798W        W13124  22.841  10.852   1.379
40799W        W13125   8.270  36.346   0.515
40800W        W13126  23.784  22.233  14.425
40801W        W13127  16.548  25.058   3.053
40802W        W13128   3.695   9.408   9.527
40803W        W13129  24.506  24.114  12.831
40804W        W13130  29.430  22.062  13.911
40805W        W13131  44.399  34.030  13.843
40806W        W13132  15.773   0.853  10.992
40807W        W13133  20.497   2.932   3.826
40808W        W13134   5.777  11.138   2.838
40809W        W13135  36.194  23.249   4.386
40810W        W13136  21.314  39.532  13.236
40811W        W13137  19.743  35.165  12.573
40812W        W13138   2.983  36.158  13.115
40813W        W13139  40.661  29.093  13.955
40814W        W13140  22.288   9.441   3.922
40815W        W13141   9.359  37.577  14.545
40816W        W13142   5.426  40.319   2.701
40817W        W13143   9.359  25.441  12.219
40818W        W13144   0.980  30.631   3.536
40819W        W13145  36.018  43.376   2.833
40820W        W13146  41.877   4.339  14.261
40821W        W13147  20.632  14.597  13.902
40822W        W13148  37.117  32.478  11.089
40823W        W13149  15.194  30.640   1.403
40824W        W13150  33.657  11.564   0.819
40825W        W13151  30.137  31.982   4.656
40826W        W13152  31.874  42.357   2.754
40827W        W13153  16.487   8.302  11.983
40828W        W13154   6.379   4.234  11.673
40829W        W13155  23.593  20.510   3.726
40830W        W13156  37.118  19.892  12.070
40831W        W13157   6.904  16.564   2.214
40832W        W13158  30.102  22.776  12.427
40833W        W13159   3.917  15.808  11.548
40834W        W13160  12.760   4.767  10.622
40835W        W13161   7.350  28.703  10.830
40836W        W13162  41.299  37.949  11.536
40837W        W13163  40.098  29.549   0.411
40838W        W13164  35.007  10.009  11.987
40839W        W13165  25.881  36.041   2.281
40840W        W13166  11.075  37.524   4.552
40841W        W13167  41.922  16.756   2.783
40842W        W13168  34.119  42.937  12.539
40843W        W13169  27.480  26.464  13.781
40844W        W13170  40.949  39.599   0.826
40845W        W13171  37.152   7.905   3.278
40846W        W13172  41.880  27.974  10.351
40847W        W13173   0.208  41.287  14.873
40848W        W13174  26.515  26.582  12.108
40849W        W13175  43.279  24.299  13.314
40850W        W13176  31.498  29.571  14.354
40851W        W13177  25.969   4.760  14.486
40852W        W13178  32.371   9.798  13.030
40853W        W13179  25.467  11.322   4.671
40854W        W13180  23.624  17.776   9.943
40855W        W13181   0.817  11.464  11.135
40856W        W13182   3.843   6.417  11.134
40857W        W13183  11.585  20.350  13.046
40858W        W13184  44.774  15.782   3.945
40859W        W13185  13.208  39.898   4.936
40860W        W13186   5.543  14.756   4.778
40861W        W13187  39.481  20.045   0.793
40862W        W13188  32.972  17.631   1.068
40863W        W13189  21.046   9.675   2.015
40864W        W13190  21.979  36.282  12.510
40865W        W13191  17.309  40.751   1.695
40866W        W13192   9.286  36.030   4.552
40867W        W13193  41.794   7.274  14.488
40868W        W13194  10.594  24.255  14.956
40869W        W13195  26.040  10.793   3.079
40870W        W13196  23.560  33.916   0.954
40871W        W13197  19.677  38.958  12.431
40872W        W13198  35.354   5.329  14.335
40873W        W13199  19.583  22.125  12.328
40874W        W13200  18.287  28.281   1.272
40875W        W13201   4.241  43.863   0.540
40876W        W13202  42.746  20.547  12.520
40877W        W13203   8.176   5.838  14.956
40878W        W13204  23.758   6.983  14.019
40879W        W13205   2.127  16.792  10.544
40880W        W13206  20.308  28.105  12.181
40881W        W13207  26.449  42.152  14.916
40882W        W13208  37.071  14.699  11.479
40883W        W13209  18.521  11.408  13.801
40884W        W13210   8.242  31.681  13.878
40885W        W13211  16.216  40.296  11.427
40886W        W13212  25.705  24.807   4.125
40887W        W13213   7.861  36.983  10.679
40888W        W13214   3.984  16.884   4.245
40889W        W13215  11.267  36.882   0.265
40890W        W13216   6.379  15.769   0.749
40891W        W13217  41.750  23.136  14.808
40892W        W13218  25.969  30.903  10.818
40893W        W13219  43.905  44.251   2.775
40894W        W13220  26.512   5.943   2.940
40895W        W13221  15.641  23.685  14.255
40896W        W13222   7.335  22.019  10.499
40897W        W13223   7.619   3.995   3.614
40898W        W13224  40.952  10.118  11.923
40899W        W13225   1.156   3.914  13.099
40900W        W13226  28.259  28.703  11.551
40901W        W13227  33.527  13.329  13.629
40902W        W13228  36.456   6.246   1.229
40903W        W13229  44.160  10.784   1.367
40904W        W13230  23.700  10.270  12.922
40905W        W13231  36.290   5.804   1.455
40906W        W13232  22.489  30.950  14.862
40907W        W13233  30.083  43.963   3.937
40908W        W13234  14.767  40.272   4.213
40909W        W13235  15.648  34.066   5.039
40910W        W13236   4.196  24.977  14.864
40911W        W13237  10.859  29.759  10.694
40912W        W13238   3.233  32.183  14.440
40913W        W13239  22.066  11.626  13.046
40914W        W13240   4.431  25.584  12.907
40915W        W13241  17.290  31.577   2.602
40916W        W13242  23.853  13.726   3.387
40917W        W13243  41.275   2.289   1.906
40918W        W13244  34.212  30.572   3.539
40919W        W13245  17.359   4.806  14.674
40920W        W13246  13.192  27.553   1.973
40921W        W13247  28.651  11.663  11.266
40922W        W13248  10.757  21.069  12.683
40923W        W13249  42.723  34.862   5.109
40924W        W13250  34.627  21.445   4.853
40925W        W13251   8.181  25.658  13.232
40926W        W13252   4.498  24.530  13.987
40927W        W13253  43.912  29.483   3.619
40928W        W13254  22.194   4.651  14.922
40929W        W13255   4.737  26.655  12.533
40930W        W13256  32.418  25.944   4.191
40931W        W13257   5.215  36.059   3.178
40932W        W13258  24.445  12.255   3.830
40933W        W13259  26.181  34.550  10.553
40934W        W13260  29.499  11.965   2.760
40935W        W13261  44.151   6.275  12.496
40936W        W13262  41.814  27.742  12.036
40937W        W13263  38.501   7.878  11.437
40938W        W13264  39.832  12.167   4.516
40939W        W13265  20.700  29.557  10.844
40940W        W13266  40.291  34.704  11.694
40941W        W13267   0.744  12.786  12.797
40942W        W13268  37.697  31.638   0.351
40943W        W13269  12.154  43.045   2.751
40944W        W13270  43.055  33.841   1.190
40945W        W13271  38.574  15.287  12.388
40946W        W13272  34.075  31.569  11.471
40947W        W13273   1.149   5.484  12.446
40948W        W13274  29.967  16.101   2.205
40949W        W13275  40.771  27.396   1.502
40950W        W13276  21.211  25.241  13.647
40951W        W13277   3.236   2.266   1.786
40952W        W13278  42.434  19.909   3.074
40953W        W13279  20.693  37.793   3.264
40954W        W13280   6.659   6.765   1.677
40955W        W13281  20.137  18.766   3.575
40956W        W13282  40.570  23.651   1.840
40957W        W13283  16.031  21.804  12.232
40958W        W13284  33.909  44.726  13.871
40959W        W13285  18.854  16.109  13.552
40960W        W13286  11.944  13.586  11.063
40961W        W13287  25.208  29.148   3.409
40962W        W13288  32.960  39.919  13.444
40963W        W13289  23.114  29.925  13.978
40964W        W13290  36.120  34.550  12.772
40965W        W13291  17.766  44.761  12.996
40966W        W13292  25.053   8.275   0.496
40967W        W13293   3.359  22.188  13.779
40968W        W13294   3.880  28.953   3.700
40969W        W13295  41.958  37.301  14.338
40970W        W13296  27.435  42.288  11.510
40971W        W13297  12.134  24.390   4.278
40972W        W13298  41.994  21.157   0.387
40973W        W13299   6.425  29.172  11.192
40974W        W13300  39.751  40.231   4.511
40975W        W13301  21.743  19.766  11.091
40976W        W13302   3.715   4.735  10.557
40977W        W13303  14.102  33.084   0.799
40978W        W13304   9.301  38.506   4.596
40979W        W13305  29.092  38.120  13.418
40980W        W13306  40.415  25.254  12.171
40981W        W13307  26.576  11.948  12.344
40982W        W13308   5.360   3.662  13.055
40983W        W13309  22.516  34.519  14.437
40984W        W13310  44.875  22.755  14.123
40985W        W13311  18.686  11.008  11.323
40986W        W13312  27.683  36.771  12.832
40987W        W13313   3.104  14.577  11.133
40988W        W13314  41.591  23.424   1.897
40989W        W13315  12.959  38.851   2.955
40990W        W13316   2.801   1.891  11.213
40991W        W13317  12.167  35.808   5.069
40992W        W13318  25.183  30.536  10.307
40993W        W13319  33.152   3.946  12.019
40994W        W13320  43.466  12.768   4.151
40995W        W13321   3.786  18.403   4.182
40996W        W13322  44.380  33.072  13.295
40997W        W13323  41.338  43.800   4.127
40998W        W13324  29.956  26.947   3.413
40999W        W13325  23.132   5.392   1.392
41000W        W13326  29.501  27.627   2.411
41001W        W13327   7.333  44.041   1.179
41002W        W13328   5.640  35.775  12.427
41003W        W13329   0.800  24.530   1.542
41004W        W13330  17.319  38.345  11.442
41005W        W13331   9.831  42.380  13.439
41006W        W13332  30.279  33.466  11.968
41007W        W13333   6.703   5.403   0.388
41008W        W13334   8.412   6.457   0.740
41009W        W13335  17.562   8.721  12.852
41010W        W13336  34.877   2.947  12.165
41011W        W13337   8.790   3.977  11.872
41012W        W13338  27.045  42.416   2.274
41013W        W13339  14.263  33.222  11.084
41014W        W13340  21.316  37.822   1.360
41015W        W13341  32.559  36.336  11.638
41016W        W13342  15.214   1.285  12.418
41017W        W13343  15.460  34.699  11.906
41018W        W13344  15.084  33.907   3.858
41019W        W13345  17.365  44.512  10.751
41020W        W13346  35.584  38.019  12.596
41021W        W13347  27.887   2.318   1.347
41022W        W13348  15.990  13.128  14.945
41023W        W13349  23.240  24.346  12.528
41024W        W13350  18.631  34.884  14.927
41025W        W13351  13.938  30.391   0.843
41026W        W13352  32.629  18.879   1.438
41027W        W13353   7.139  39.575   0.527
41028W        W13354  12.368   7.705  14.567
41029W        W13355   5.940  13.251   3.257
41030W        W13356  24.650   3.488   0.483
41031W        W13357  29.185  18.694  12.496
41032W        W13358  40.063  22.521   3.061
41033W        W13359  26.960  10.524   2.600
41034W        W13360  29.152  31.021   3.829
41035W        W13361   6.168  34.666  12.610
41036W        W13362  10.260  26.901  12.496
41037W        W13363  41.303  29.653   1.445
41038W        W13364  42.055  13.658  12.005
41039W        W13365  16.171   6.504   1.387
41040W        W13366  42.916  39.826   0.740
41041W        W13367  21.005   3.307   2.200
41042W        W13368  26.747  34.693  13.970
41043W        W13369  34.597  20.340  12.023
41044W        W13370   5.136  32.441  11.233
41045W        W13371  24.393  10.813   0.544
41046W        W13372   6.453  17.756   3.207
41047W        W13373  30.703  33.126   0.019
41048W        W13374  18.684  34.806   4.830
41049W        W13375  25.869  19.884   1.239
41050W        W13376  37.487  41.443  13.430
41051W        W13377   5.296  26.197  14.892
41052W        W13378  35.000  13.094   4.659
41053W        W13379  23.612  38.938   4.806
41054W        W13380  23.116  26.148   3.316
41055W        W13381  32.134  29.513   2.691
41056W        W13382  17.458  13.285  11.901
41057W        W13383  31.156  44.402   2.920
41058W        W13384  11.079  26.449  14.312
41059W        W13385   9.387   9.657   4.706
41060W        W13386   4.912  26.654   0.622
41061W        W13387   2.270   9.413   2.802
41062W        W13388  27.000   8.702  13.926
41063W        W13389  38.425  15.320  14.006
41064W        W13390  31.591  21.471   0.441
41065W        W13391   5.422  11.401   0.832
41066W        W13392  19.876  23.383  13.599
41067W        W13393  21.932  20.019   2.895
41068W        W13394   3.484  19.503   0.686
41069W        W13395   0.299  27.675  10.707
41070W        W13396  11.152  32.089   5.034
41071W        W13397  16.575  17.825   1.930
41072W        W13398  37.997   8.280   0.690
41073W        W13399  37.180  34.141  12.102
41074W        W13400  43.994   7.907  14.827
41075W        W13401  32.508  16.661   0.918
41076W        W13402  10.254  17.688  14.558
41077W        W13403  28.780  21.680   3.084
41078W        W13404  40.343  21.452   3.772
41079W        W13405   5.746   3.629   0.882
41080W        W13406   9.234  25.221   3.108
41081W        W13407  37.663  31.444  12.910
41082W        W13408   7.978  14.474   4.614
41083W        W13409  40.404  19.250   1.476
41084W        W13410   1.466  39.303   0.848
41085W        W13411   8.935  42.978   1.300
41086W        W13412  22.027  40.043  10.669
41087W        W13413  24.925  27.374  12.497
41088W        W13414  39.577  42.491  14.528
41089W        W13415  21.123  37.511   3.372
41090W        W13416  28.470  28.799  11.075
41091W        W13417  38.434  44.988   2.829
41092W        W13418  13.637  10.879   1.467
41093W        W13419  10.780   8.424   1.793
41094W        W13420  33.502  38.064  13.859
41095W        W13421  33.021  15.100  14.020
41096W        W13422  23.803  14.672  13.028
41097W        W13423  10.111  35.948  13.380
41098W        W13424  25.196  41.926   2.371
41099W        W13425  24.511   1.258  11.687
41100W        W13426  19.252   7.609  12.196
41101W        W13427  23.883  32.731   0.628
41102W        W13428  43.872  44.772  11.715
41103W        W13429  27.560  18.587  13.416
41104W        W13430   5.896  17.077   1.887
41105W        W13431  32.018  31.091   2.324
41106W        W13432  21.441  42.349  14.394
41107W        W13433  31.925   8.672   2.777
41108W        W13434   9.910   1.027  14.493
41109W        W13435  19.093  35.311   0.335
41110W        W13436  18.658  35.350   1.613
41111W        W13437  43.513  13.750   1.960
41112W        W13438  20.703  20.344   4.142
41113W        W13439  39.389  23.468   1.794
41114W        W13440  28.045  19.583   4.258
41115W        W13441  12.665  42.391  13.924
41116W        W13442  43.585  19.215  13.000
41117W        W13443  20.649   7.302   3.708
41118W        W13444  28.712  31.741   3.838
41119W        W13445  17.389  39.137   4.808
41120W        W13446  11.796  27.037   0.229
41121W        W13447  11.043  22.174  13.386
41122W        W13448  40.384  21.598   0.472
41123W        W13449  22.029  17.876   0.269
41124W        W13450   5.118  11.827   0.776
41125W        W13451  15.120   9.336  12.182
41126W        W13452  28.514  28.082   4.558
41127W        W13453  10.699  35.391  11.078
41128W        W13454  42.022  31.843  13.421
41129W        W13455  10.149   5.168   2.745
41130W        W13456  24.491   2.872   4.682
41131W        W13457  36.538  12.763  13.135
41132W        W13458  29.165  17.002   4.642
41133W        W13459   0.380  15.366  12.023
41134W        W13460  13.565  13.478   1.699
41135W        W13461  42.606  39.560  14.214
41136W        W13462  25.675   4.963   2.829
41137W        W13463  17.179   3.804   4.699
41138W        W13464  18.126  17.826   2.991
41139W        W13465   8.916  39.811   4.384
41140W        W13466   8.352  16.225   2.798
41141W        W13467  29.699  31.273  10.469
41142W        W13468   6.067  28.182  12.743
41143W        W13469  40.748  11.262  12.550
41144W        W13470   3.796  27.618   1.821
41145W        W13471  23.606  16.677  12.465
41146W        W13472  32.548   8.482   3.786
41147W        W13473  35.149  38.598   3.785
41148W        W13474  30.433  11.470  12.041
41149W        W13475   3.603  21.267  10.518
41150W        W13476  23.410   1.459   0.735
41151W        W13477  27.468  25.992   2.820
41152W        W13478   1.256  39.572   1.897
41153W        W13479   5.629  37.482   3.644
41154W        W13480  31.895  28.140   4.165
41155W        W13481  27.185  23.892   4.554
41156W        W13482   8.468  36.511   1.465
41157W        W13483  13.183  10.713  13.068
41158W        W13484   9.357  12.702  14.288
41159W        W13485  14.723  20.521  10.566
41160W        W13486  31.049   4.912  13.808
41161W        W13487  16.718   3.553   2.146
41162W        W13488  38.699  11.407   5.043
41163W        W13489  26.210   8.470  13.440
41164W        W13490  37.551  25.261  11.379
41165W        W13491   9.897  43.266   1.364
41166W        W13492  12.149  37.888  11.359
41167W        W13493  38.849  38.497  13.023
41168W        W13494   2.356  32.363   4.199
41169W        W13495  24.650  44.493   0.887
41170W        W13496  35.020  19.135   4.350
41171W        W13497  13.969  32.467   1.892
41172W        W13498  31.521   5.257  12.711
41173W        W13499  22.345   9.420  14.032
41174W        W13500   4.256   4.723   4.133
41175W        W13501  42.896  20.499  10.723
41176W        W13502  43.554  21.008  14.396
41177W        W13503  36.425  28.362   1.788
41178W        W13504  39.931  32.504   0.409
41179W        W13505  33.274  22.043   0.354
41180W        W13506  24.428  39.763   1.438
41181W        W13507  13.861  43.880  13.127
41182W        W13508   9.249  37.160  12.951
41183W        W13509  43.465   6.245  13.136
41184W        W13510   4.343  42.264   4.152
41185W        W13511  31.604   4.865  13.033
41186W        W13512  36.589  28.680   1.393
41187W        W13513  22.035  15.528  13.079
41188W        W13514   8.156  32.554   3.113
41189W        W13515  40.164   2.516  13.365
41190W        W13516  41.181  10.968  12.104
41191W        W13517  34.662  37.240   4.204
41192W        W13518   4.806  36.523   4.827
41193W        W13519  30.688   0.976   2.209
41194W        W13520  31.233  42.221  13.928
41195W        W13521  35.164  26.031  14.500
41196W        W13522  36.460  39.272  13.456
41197W        W13523  32.519  39.778  12.334
41198W        W13524  27.842  42.803  10.752
41199W        W13525  40.901  26.717  10.737
41200W        W13526   5.486  38.397   0.252
41201W        W13527  26.031  22.967  10.699
41202W        W13528   6.390  32.519  14.953
41203W        W13529  34.480   5.883   4.753
41204W        W13530  16.242   6.568   4.490
41205W        W13531  36.668  11.856  11.670
41206W        W13532   3.798  24.608   1.802
41207W        W13533   1.098   3.914  11.945
41208W        W13534  43.254  35.367  12.535
41209W        W13535  20.720   5.014   4.600
41210W        W13536  13.643   2.356  14.038
41211W        W13537  20.821  24.979   1.197
41212W        W13538  21.242   0.810  13.489
41213W        W13539  16.657  11.600  10.640
41214W        W13540   5.448  40.001   4.190
41215W        W13541  38.492  18.767  14.559
41216W        W13542  21.013   4.008  11.554
41217W        W13543   3.906  13.761   2.706
41218W        W13544  31.882  11.978   1.775
41219W        W13545  28.631  22.212  11.477
41220W        W13546  13.359   7.016   5.011
41221W        W13547  15.966  40.435  13.268
41222W        W13548  20.657   3.199   2.870
41223W        W13549  14.654  34.983   5.336
41224W        W13550  34.087  18.029  10.652
41225W        W13551  27.818  14.776  14.509
41226W        W13552   8.196  43.426   2.735
41227W        W13553  41.475  20.545  13.923
41228W        W13554  16.536  28.886   0.790
41229W        W13555   2.063  36.023   2.792
41230W        W13556  27.986  36.537   1.765
41231W        W13557   4.012  39.829   1.215
41232W        W13558  10.634  41.347   4.109
41233W        W13559  34.110  11.313   3.100
41234W        W13560  39.331   3.439   3.402
41235W        W13561  34.586   3.429  11.637
41236W        W13562   7.509  44.115  11.640
41237W        W13563  14.346  43.409   0.283
41238W        W13564  17.641  11.590   0.386
41239W        W13565  29.077  21.246   3.024
41240W        W13566  39.828   3.968  11.934
41241W        W13567  37.070  35.316  11.621
41242W        W13568  42.425  23.542   4.596
41243W        W13569  36.321   4.217  10.554
41244W        W13570  16.077  15.780   0.472
41245W        W13571  39.824  44.957  11.180
41246W        W13572   6.928   1.866  13.276
41247W        W13573  39.057  30.725   4.240
41248W        W13574  41.557   1.007  11.534
41249W        W13575  33.657  29.773   1.658
41250W        W13576  31.009   6.392   3.259
41251W        W13577   3.748  44.353   4.652
41252W        W13578  31.065  30.355   4.086
41253W        W13579  30.045  26.244   4.559
41254W        W13580  31.113  33.701   4.762
41255W        W13581  34.398  17.005  11.449
41256W        W13582  21.186  20.036  12.810
41257W        W13583  38.225  28.469   0.498
41258W        W13584  34.010  41.751  10.557
41259W        W13585   5.979  12.362  13.031
41260W        W13586  20.248  15.386  12.851
41261W        W13587  19.397  12.576  13.478
41262W        W13588  35.587  39.147   2.801
41263W        W13589  14.932  17.619   4.358
41264W        W13590   3.290  10.312  12.899
41265W        W13591   1.855   4.487  10.656
41266W        W13592  42.488  11.426   3.627
41267W        W13593  24.380   7.197  13.113
41268W        W13594   4.716  15.278  12.350
41269W        W13595  24.772  43.219   3.138
41270W        W13596  42.037   9.808  13.437
41271W        W13597  44.955  22.073  10.614
41272W        W13598   5.388   2.467  14.813
41273W        W13599   1.021  10.177   1.722
41274W        W13600  35.850  28.761  14.013
41275W        W13601  40.454  32.484   1.616
41276W        W13602  23.673  20.508  11.630
41277W        W13603  28.149  25.499  10.154
41278W        W13604  26.118  37.392   2.402
41279W        W13605  32.203   4.461   0.962
41280W        W13606  40.510  34.674  13.164
41281W        W13607  41.521  22.762   5.082
41282W        W13608  13.005  31.130  10.554
41283W        W13609   6.997  12.278  11.169
41284W        W13610   1.702  11.282   1.534
41285W        W13611  14.490  28.987  13.344
41286W        W13612  25.801   7.144  11.940
41287W        W13613  19.587  37.506  11.486
41288W        W13614  33.049  12.882   1.894
41289W        W13615  34.108  33.907  12.503
41290W        W13616  30.658  42.906   4.024
41291W        W13617  22.211  12.613  12.579
41292W        W13618  38.966  13.226   2.290
41293W        W13619  44.259  22.932  13.458
41294W        W13620   7.130   3.592  10.171
41295W        W13621  41.053  18.746  13.083
41296W        W13622  31.257  29.295   1.219
41297W        W13623  41.958  22.983   4.098
41298W        W13624  28.583  29.786  13.566
41299W        W13625  43.144  36.133  10.694
41300W        W13626  38.185  40.888   0.466
41301W        W13627  35.023  36.053   1.099
41302W        W13628  27.616  22.179  11.432
41303W        W13629  25.962  19.702  13.900
41304W        W13630  18.236   6.745  14.368
41305W        W13631  11.157  40.479   1.098
41306W        W13632   4.806  26.106  11.485
41307W        W13633   7.894  36.953  14.730
41308W        W13634  40.429  31.074  12.020
41309W        W13635  34.376  21.190   2.658
41310W        W13636  19.745  36.594   1.310
41311W        W13637  17.220  23.739   3.387
41312W        W13638   9.980  31.604   4.173
41313W        W13639  43.458  31.582   4.533
41314W        W13640  36.832  39.544  11.407
41315W        W13641  36.013   2.345  13.889
41316W        W13642   6.220  31.131   3.740
41317W        W13643  30.599  39.919  11.217
41318W        W13644  33.391  26.536  11.588
41319W        W13645   9.298   4.032   1.379
41320W        W13646  30.199  20.505   4.233
41321W        W13647   8.749  16.106   0.296
41322W        W13648  38.709  21.716  11.082
41323W        W13649  31.279  32.142  14.772
41324W        W13650  31.916   6.917   4.110
41325W        W13651  17.290  38.939   2.254
41326W        W13652   4.083   0.698   3.476
41327W        W13653  35.087   0.429   4.465
41328W        W13654  20.979  23.492  12.884
41329W        W13655  36.863  40.528   2.442
41330W        W13656  40.937  39.971   4.916
41331W        W13657   6.447  18.868  14.820
41332W        W13658   9.786  19.644   4.549
41333W        W13659  37.555  12.690  12.956
41334W        W13660  16.529  29.149  10.779
41335W        W13661   7.292  10.163   4.829
41336W        W13662  27.360  39.481   1.617
41337W        W13663  33.599  14.209  13.458
41338W        W13664  35.405  43.365   4.160
41339W        W13665  29.955  12.073   4.632
41340W        W13666  37.980  12.203   9.872
41341W        W13667  36.089  24.564   0.345
41342W        W13668  31.114  35.626  11.245
41343W        W13669  33.621  24.106   4.544
41344W        W13670  22.758   6.454   2.234
41345W        W13671   2.841   0.268   4.075
41346W        W13672   3.709  19.286   2.371
41347W        W13673  30.697  19.649   4.014
41348W        W13674  18.497   6.665   3.203
41349W        W13675  23.508   2.384  10.723
41350W        W13676  43.457  13.099   0.423
41351W        W13677  44.230  42.488   2.205
41352W        W13678  18.618  28.014  10.440
41353W        W13679   5.453  37.028   3.850
41354W        W13680  42.301  19.967   2.223
41355W        W13681   6.306  15.627   4.141
41356W        W13682  36.537   0.056   4.760
41357W        W13683  11.211  24.659  13.107
41358W        W13684   0.089   9.631   4.128
41359W        W13685  10.095   4.959   0.918
41360W        W13686   6.190  36.193  13.882
41361W        W13687  42.742  28.622   1.146
41362W        W13688  25.423  10.786  13.263
41363W        W13689  27.413  38.958  11.980
41364W        W13690   6.692  30.306   4.781
41365W        W13691  17.402   6.406   2.848
41366W        W13692   5.180  38.331  10.670
41367W        W13693   0.719  29.546   4.623
41368W        W13694  28.400  16.832   1.947
41369W        W13695  20.534  18.005  13.379
41370W        W13696  22.972   1.766   1.467
41371W        W13697   3.703   7.680  14.024
41372W        W13698  19.475  12.411   4.375
41373W        W13699  35.146  31.020  11.992
41374W        W13700  11.165  23.022  14.483
41375W        W13701   3.865  24.638   3.247
41376W        W13702   6.775  38.351  14.495
41377W        W13703  21.791  40.807  10.978
41378W        W13704   7.942   5.458  13.518
41379W        W13705  41.380  38.988   3.676
41380W        W13706   9.992  32.504   3.759
41381W        W13707  39.965  26.186   2.614
41382W        W13708  23.789  27.117   2.440
41383W        W13709  19.338  41.421  11.633
41384W        W13710  28.072  24.955  10.147
41385W        W13711  30.839  43.063   1.304
41386W        W13712  21.155   1.289   1.458
41387W        W13713  38.481  44.783   0.639
41388W        W13714   5.310  44.136   4.780
41389W        W13715  18.137  44.430   2.786
41390W        W13716   8.370  31.080   3.188
41391W        W13717   6.303  39.335  13.698
41392W        W13718   8.689   5.398   1.833
41393W        W13719  33.059  27.993  13.015
41394W        W13720  17.325  40.046  11.938
41395W        W13721  26.520  17.255   2.393
41396W        W13722  44.690  36.536   0.867
41397W        W13723  12.403   0.908   4.832
41398W        W13724  30.027  20.704   2.218
41399W        W13725  17.011  27.077  12.334
41400W        W13726  29.408  33.099   1.952
41401W        W13727  29.573  21.596  14.084
41402W        W13728   6.075  42.855  13.944
41403W        W13729  31.141  21.301  12.532
41404W        W13730  23.170  10.827  12.332
41405W        W13731  36.507  27.681   1.414
41406W        W13732  14.777  31.457   1.929
41407W        W13733  42.026  18.257  12.063
41408W        W13734  29.177  35.378   4.155
41409W        W13735   2.591  42.586  13.771
41410W        W13736   0.261  20.898  14.952
41411W        W13737  21.629  14.375   2.286
41412W        W13738   5.119   7.239  12.267
41413W        W13739   2.745  30.270  12.172
41414W        W13740  24.647  37.495   1.209
41415W        W13741  21.501  42.302  11.816
41416W        W13742   5.870  35.454   1.770
41417W        W13743   6.349  35.839   1.196
41418W        W13744  42.316  39.070  10.704
41419W        W13745   7.151  21.918   0.808
41420W        W13746  22.681  19.197  11.039
41421W        W13747  11.239  40.306   2.108
41422W        W13748  40.036  19.235  14.848
41423W        W13749  24.600  39.886  12.095
41424W        W13750  44.680   4.526  11.231
41425W        W13751   6.184  22.091   2.838
41426W        W13752  21.537  22.052   2.282
41427W        W13753   9.649  25.974   2.812
41428W        W13754   8.379  42.504   1.173
41429W        W13755   4.284  33.684  12.041
41430W        W13756  44.605  28.741   1.931
41431W        W13757  30.948  43.531   2.128
41432W        W13758  37.761  36.856   3.659
41433W        W13759  14.389  33.786   4.627
41434W        W13760  30.061  10.397  11.343
41435W        W13761  40.520  21.761  11.609
41436W        W13762   3.491  11.407  13.923
41437W        W13763  38.309  28.468   3.732
41438W        W13764  39.527  13.188  14.902
41439W        W13765  35.222  41.721  13.067
41440W        W13766  31.844  38.314  11.189
41441W        W13767  30.731   5.439   0.354
41442W        W13768   6.926  18.823   0.039
41443W        W13769  28.984  11.916  14.029
41444W        W13770  35.314  38.261  11.118
41445W        W13771   8.700  27.533   2.931
41446W        W13772  21.862  18.727   3.592
41447W        W13773  38.396  25.727  14.013
41448W        W13774  35.127   5.615  10.766
41449W        W13775  43.519  29.878   1.326
41450W        W13776   7.399  11.653  10.654
41451W        W13777  27.434  21.607  10.591
41452W        W13778   8.405  10.576   1.009
41453W        W13779  14.605  34.063  14.009
41454W        W13780  34.684   3.388  13.751
41455W        W13781  44.637  23.675  14.917
41456W        W13782  30.461  38.038   0.380
41457W        W13783   1.816  33.883  14.497
41458W        W13784  26.590  23.558  14.105
41459W        W13785  26.479  31.361   2.325
41460W        W13786  34.661  13.623  11.607
41461W        W13787  29.093  25.530   3.825
41462W        W13788  33.582  41.166  12.095
41463W        W13789  34.047  33.695   3.254
41464W        W13790  20.363  21.595  13.210
41465W        W13791  20.583  32.712  12.899
41466W        W13792  29.439  15.411  10.561
41467W        W13793   2.990   6.302  11.169
41468W        W13794  11.542  17.287  14.471
41469W        W13795  18.422  20.776  12.020
41470W        W13796  41.801  20.666  14.574
41471W        W13797  13.199   3.371  13.057
41472W        W13798  38.850  44.743  12.575
41473W        W13799  23.668   5.228  10.533
41474W        W13800  42.858   8.305   1.194
41475W        W13801  35.864  20.785   1.372
41476W        W13802  28.233  43.434  14.254
41477W        W13803  26.929  36.553  14.689
41478W        W13804   2.951  10.746   2.658
41479W        W13805  24.552   4.850   1.018
41480W        W13806  11.061   9.898   0.777
41481W        W13807  25.200   9.112  11.007
41482W        W13808   5.205  17.694  10.097
41483W        W13809  30.893   5.608   3.796
41484W        W13810  22.744  33.399   4.129
41485W        W13811   8.719  23.076  11.198
41486W        W13812   1.424  36.107  13.505
41487W        W13813  44.551  28.709  12.389
41488W        W13814  11.220   8.902  12.985
41489W        W13815  34.774  14.435   1.252
41490W        W13816  30.039  10.234  12.095
41491W        W13817   5.112   0.780   0.861
41492W        W13818  13.709  11.786  13.399
41493W        W13819  38.317  38.431   0.592
41494W        W13820  32.496   8.951   3.602
41495W        W13821  25.880  41.431  12.326
41496W        W13822  44.339  39.918  10.707
41497W        W13823  25.581  29.666  10.302
41498W        W13824  11.003  12.450   0.273
41499W        W13825  34.591   1.422  11.683
41500W        W13826   3.734  17.215  13.315
41501W        W13827   6.422  20.133  11.967
41502W        W13828  11.317  28.901   3.124
41503W        W13829  21.845  19.752   3.345
41504W        W13830  28.563   1.639   4.669
41505W        W13831  12.842   4.469  13.524
41506W        W13832  15.826  18.788   1.348
41507W        W13833  22.668  19.304  13.051
41508W        W13834  31.666  14.274   0.907
41509W        W13835  19.795  33.904  12.728
41510W        W13836  30.131  33.319  13.811
41511W        W13837  24.213  12.221   2.310
41512W        W13838  18.423  17.262   1.310
41513W        W13839   7.397  32.482   3.590
41514W        W13840   3.491   8.371   2.703
41515W        W13841  21.700  34.850   0.812
41516W        W13842   1.708  42.447   3.818
41517W        W13843  21.611  33.481   4.649
41518W        W13844  20.629  17.538  12.662
41519W        W13845  15.924  33.014   0.436
41520W        W13846  11.349   1.194  11.661
41521W        W13847  12.900  30.028  12.362
41522W        W13848  23.260   0.300   0.396
41523W        W13849  33.385  43.382   4.062
41524W        W13850  21.651   3.503   3.310
41525W        W13851   8.227   8.299   2.266
41526W        W13852  25.784   4.370  14.800
41527W        W13853  43.714  16.309   3.524
41528W        W13854   8.612   1.161   4.064
41529W        W13855  38.146  25.233   5.041
41530W        W13856  30.479  33.439   1.296
41531W        W13857  40.466  10.293   4.438
41532W        W13858  21.032  36.923   2.887
41533W        W13859  10.783  29.101   4.454
41534W        W13860  22.470   4.517   0.338
41535W        W13861   7.260  39.082  12.392
41536W        W13862  17.325  18.140  11.593
41537W        W13863  36.123  37.799   0.225
41538W        W13864  36.365  43.241   1.639
41539W        W13865  34.169  18.533  12.451
41540W        W13866  23.954   1.759   1.229
41541W        W13867  27.995   8.595   1.858
41542W        W13868  43.191   3.518  11.930
41543W        W13869  28.284  26.821  12.406
41544W        W13870   2.398  17.587  11.928
41545W        W13871  28.132  29.721   5.247
41546W        W13872  17.280   1.747   0.019
41547W        W13873  10.157  16.523  13.013
41548W        W13874  21.697   9.798   3.155
41549W        W13875   4.164  15.282   2.748
41550W        W13876  19.215  44.220  13.510
41551W        W13877  44.531  17.234   4.539
41552W        W13878  30.145  36.619   3.397
41553W        W13879  35.011  39.139  13.013
41554W        W13880  19.503  34.947  11.744
41555W        W13881   0.971  13.390  14.408
41556W        W13882   0.355  26.333  12.011
41557W        W13883  36.665  15.613  11.070
41558W        W13884  36.249  25.476   2.464
41559W        W13885  17.537   2.530   0.991
41560W        W13886  30.048  10.310   4.537
41561W        W13887  18.006  32.025   0.457
41562W        W13888  14.400   6.406   1.982
41563W        W13889  44.949  26.584   1.128
41564W        W13890   0.992   9.821   2.481
41565W        W13891  32.083  19.515   1.892
41566W        W13892  43.520  25.171   0.852
41567W        W13893  17.973   8.654   2.761
41568W        W13894  42.913  11.477  12.511
41569W        W13895   9.838   9.043  10.270
41570W        W13896   6.258  13.826   4.703
41571W        W13897  33.972  40.044  14.347
41572W        W13898  29.056  26.988   2.468
41573W        W13899  16.283  35.557  14.936
41574W        W13900  19.630  34.342   0.934
41575W        W13901  11.758  24.147   1.545
41576W        W13902   5.838  26.678  11.057
41577W        W13903  25.248  36.492  12.136
41578W        W13904  16.594  30.110   3.333
41579W        W13905   1.321  10.887  12.603
41580W        W13906  40.940  21.005  11.415
41581W        W13907  30.190   3.870   1.833
41582W        W13908  22.043  19.330  14.302
41583W        W13909  26.515   8.254   4.557
41584W        W13910  28.244  18.550  14.153
41585W        W13911  30.953   8.860   2.781
41586W        W13912  30.011  36.311  12.940
41587W        W13913  18.117  39.333   0.978
41588W        W13914  24.684  30.601  10.546
41589W        W13915  30.598   5.009  12.917
41590W        W13916  38.887  27.430  10.659
41591W        W13917   5.512   8.861  14.070
41592W        W13918  37.286  38.606  10.272
41593W        W13919  11.145  33.103   0.812
41594W        W13920  24.446   8.326   1.387
41595W        W13921   7.101   0.435  11.220
41596W        W13922  32.342   6.313   2.771
41597W        W13923  13.754  30.546   3.296
41598W        W13924  43.028  23.132   2.478
41599W        W13925  37.459   8.030   5.366
41600W        W13926  31.441  17.806   2.783
41601W        W13927  16.761  43.414  13.458
41602W        W13928  17.795  25.645  14.314
41603W        W13929  17.550  42.956  13.270
41604W        W13930  32.991  25.177  10.674
41605W        W13931  27.950  23.449   2.360
41606W        W13932  17.802  34.005   2.758
41607W        W13933   2.639  31.017  13.782
41608W        W13934  25.224   4.449   4.877
41609W        W13935  44.441  35.568   1.395
41610W        W13936  34.565  43.712   2.656
41611W        W13937  38.330  28.171   4.186
41612W        W13938  21.867  26.262   0.731
41613W        W13939  29.075  15.211   0.245
41614W        W13940  29.616   5.292  13.247
41615W        W13941  14.343   5.277   4.250
41616W        W13942  12.430  29.566  12.603
41617W        W13943  28.197  23.147   4.345
41618W        W13944  14.594   2.331  14.028
41619W        W13945  31.164  27.299  14.092
41620W        W13946   3.903  44.857   1.893
41621W        W13947  28.993  22.532  13.354
41622W        W13948  15.124  24.653  10.747
41623W        W13949  16.836  28.610  13.598
41624W        W13950   7.498  37.799  13.197
41625W        W13951  25.120  22.838   2.323
41626W        W13952  17.166  35.342  11.217
41627W        W13953  26.033  26.533  11.514
41628W        W13954  41.039  34.691  14.410
41629W        W13955   2.666  42.367  12.363
41630W        W13956   3.912  18.591  14.818
41631W        W13957  39.056  33.778   1.221
41632W        W13958  37.711   5.339  11.865
41633W        W13959  27.116  28.896   1.369
41634W        W13960  30.402  43.237  13.560
41635W        W13961  19.694  32.434  12.869
41636W        W13962  32.961   6.433   2.129
41637W        W13963  36.020  38.090  14.805
41638W        W13964  44.042  26.121   3.791
41639W        W13965  10.789  41.809  14.318
41640W        W13966  34.614  12.654  13.484
41641W        W13967  43.713  44.727  14.970
41642W        W13968  21.488   8.584   2.337
41643W        W13969  10.818  10.151  14.726
41644W        W13970   5.234  13.641  14.306
41645W        W13971  10.389  25.636   0.463
41646W        W13972   7.553  40.040  11.147
41647W        W13973  37.442  40.057  12.372
41648W        W13974  16.005  39.109   2.716
41649W        W13975  33.569  32.081  11.581
41650W        W13976  29.988  38.536   1.838
41651W        W13977  20.332  21.353   1.464
41652W        W13978  19.540  15.678   1.364
41653W        W13979  18.169   5.101  14.030
41654W        W13980  34.230   3.375   4.222
41655W        W13981  14.197  15.133  14.077
41656W        W13982   3.325  27.704  11.491
41657W        W13983  23.448  40.051  14.101
41658W        W13984  41.522  20.316   3.189
41659W        W13985  17.007  24.256  12.240
41660W        W13986  20.110  21.555   1.028
41661W        W13987   5.206  37.517   1.714
41662W        W13988  37.889   8.733   2.819
41663W        W13989  30.916   1.450  10.690
41664W        W13990  37.869  16.968  11.145
41665W        W13991  18.399   0.427  14.682
41666W        W13992  33.425  19.326   0.415
41667W        W13993   2.789  13.782  11.107
41668W        W13994  22.613  23.317   4.702
41669W        W13995  35.278   2.788   2.857
41670W        W13996   1.218  17.124  12.197
41671W        W13997  17.792  39.784  11.062
41672W        W13998  30.307  34.935  11.166
41673W        W13999  37.598  25.004  14.384
41674W        W14000  10.376  12.724  11.208
41675W        W14001  38.563   5.794   2.061
41676W        W14002   7.356  20.271   3.374
41677W        W14003  20.767  41.810   0.306
41678W        W14004  33.169  28.661   1.855
41679W        W14005  28.164  12.774  11.774
41680W        W14006  30.978  28.396   1.642
41681W        W14007  33.001  10.119   3.598
41682W        W14008  27.201   2.286   3.426
41683W        W14009  43.520  15.281  12.844
41684W        W14010  43.493   3.127   2.129
41685W        W14011  23.894   2.364  14.283
41686W        W14012  12.556  34.455   4.549
41687W        W14013  34.425   3.902   1.439
41688W        W14014  22.738  18.312   0.016
41689W        W14015  41.418  28.458   3.116
41690W        W14016   6.632  44.814  14.053
41691W        W14017   4.755  33.211  12.467
41692W        W14018  38.750  30.721   1.498
41693W        W14019  28.317   9.124   2.680
41694W        W14020  28.919  23.736  13.991
41695W        W14021  27.459  12.337  13.421
41696W        W14022  25.546  10.697  13.748
41697W        W14023  42.985  41.474  13.159
41698W        W14024   1.616  38.741  13.017
41699W        W14025  15.325  27.441   3.955
41700W        W14026  32.522  27.717   1.908
41701W        W14027  42.804  21.802   3.233
41702W        W14028  38.376  28.802  11.028
41703W        W14029  42.078  15.685   3.678
41704W        W14030   0.623   3.783  10.956
41705W        W14031  12.862  37.348   1.222
41706W        W14032   2.548  36.213   2.747
41707W        W14033   0.260  43.266   3.191
41708W        W14034  41.593  35.942   3.256
41709W        W14035   5.169  40.209   1.727
41710W        W14036  27.883  43.731   2.140
41711W        W14037  38.030  13.939   1.596
41712W        W14038   2.319  26.021  12.747
41713W        W14039   2.461  14.819   3.556
41714W        W14040  24.825  38.742   9.683
41715W        W14041  13.859  18.630   0.470
41716W        W14042  14.467   9.145  12.477
41717W        W14043  24.302  38.079   4.143
41718W        W14044  34.920  27.092   3.109
41719W        W14045  35.340  22.988   0.237
41720W        W14046  13.945  25.684   2.895
41721W        W14047  21.906  27.603   4.128
41722W        W14048  23.648  10.213   4.747
41723W        W14049  12.685   1.865   2.726
41724W        W14050  12.748   7.387   2.436
41725W        W14051  30.830  19.322  11.077
41726W        W14052   1.801  23.388  13.397
41727W        W14053  21.059  42.201  13.091
41728W        W14054  33.812  32.938   3.668
41729W        W14055   6.978  17.256   0.210
41730W        W14056  37.354  23.024   3.127
41731W        W14057   1.096   4.295  12.677
41732W        W14058  17.211  16.755  10.685
41733W        W14059  34.352  30.471  12.709
41734W        W14060  17.949   8.840   3.823
41735W        W14061  21.158  40.012   4.384
41736W        W14062  29.379   1.510  14.013
41737W        W14063  11.259   3.980   3.238
41738W        W14064  44.430  40.337   1.909
41739W        W14065  43.906  42.188  12.442
41740W        W14066  36.056  36.771   1.191
41741W        W14067  30.430  42.950   2.625
41742W        W14068  11.445  39.520   1.278
41743W        W14069  14.590   1.428   3.612
41744W        W14070   6.358   9.816  14.430
41745W        W14071  13.816  21.666   3.329
41746W        W14072  35.727  23.697   1.392
41747W        W14073  38.903  37.434  10.498
41748W        W14074  34.779  40.583   4.978
41749W        W14075  39.487  35.692  10.525
41750W        W14076  42.007   7.860   3.587
41751W        W14077  23.259  15.189   0.702
41752W        W14078  10.624  12.711  13.513
41753W        W14079  36.328  10.721   3.837
41754W        W14080  33.331  14.579  11.161
41755W        W14081  28.198   3.357  14.530
41756W        W14082   9.921  39.760  11.479
41757W        W14083   6.867  42.285   2.083
41758W        W14084  17.118   1.435   1.742
41759W        W14085   4.990  38.275   4.249
41760W        W14086   8.760  26.470  10.639
41761W        W14087  43.841  17.093   1.318
41762W        W14088  27.271   2.794   3.309
41763W        W14089   8.840  20.257  11.666
41764W        W14090  19.604  10.785  11.930
41765W        W14091   2.162  34.813   4.465
41766W        W14092  22.158  40.427   5.080
41767W        W14093   0.492  10.767  14.480
41768W        W14094  15.343  42.066  13.992
41769W        W14095  44.273  21.501   2.803
41770W        W14096   8.382   3.290   0.125
41771W        W14097   8.720  44.452  14.357
41772W        W14098  18.664  29.571  14.227
41773W        W14099  44.919  11.094   2.181
41774W        W14100  13.578  19.702  12.591
41775W        W14101  19.694  44.404   2.814
41776W        W14102  24.175  35.604  12.973
41777W        W14103  24.336  38.761   2.264
41778W        W14104  27.231  16.812  12.591
41779W        W14105   4.999   9.293  13.016
41780W        W14106  16.836   9.344  12.474
41781W        W14107  20.041  36.975  11.204
41782W        W14108  35.956  40.544   4.190
41783W        W14109  16.073  23.195  12.391
41784W        W14110  23.034  38.361  13.593
41785W        W14111  33.649   1.984  10.335
41786W        W14112  24.156  24.535  14.961
41787W        W14113  23.954   6.356  10.876
41788W        W14114  28.558  42.128  13.451
41789W        W14115  22.200  42.126  12.551
41790W        W14116  26.132  13.161   4.464
41791W        W14117  15.099  13.553  11.949
41792W        W14118  16.288  40.343  14.845
41793W        W14119   0.777   0.674  14.018
41794W        W14120   6.228   5.260   3.173
41795W        W14121   5.861  13.595  13.737
41796W        W14122  44.836  21.126  14.689
41797W        W14123   6.716  22.545   1.479
41798W        W14124  43.662  14.338   0.473
41799W        W14125  31.372  42.198  12.854
41800W        W14126   4.696   1.331  13.577
41801W        W14127  18.881  24.235  14.360
41802W        W14128  15.271  17.336  14.376
41803W        W14129   4.431   3.543  12.480
41804W        W14130  44.242  16.504  12.297
41805W        W14131  29.856  14.481  10.721
41806W        W14132  37.969  44.333  14.228
41807W        W14133   9.867  28.200   4.722
41808W        W14134  31.864  26.671  12.491
41809W        W14135  20.986  33.900   2.304
41810W        W14136  21.741  36.802   4.437
41811W        W14137   0.312  37.217  13.336
41812W        W14138  42.906  22.885   1.010
41813W        W14139  42.075  10.149   3.728
41814W        W14140  34.853  34.938   3.677
41815W        W14141  29.506   7.792  12.037
41816W        W14142  30.512  10.052  11.971
41817W        W14143  26.699   0.479  12.458
41818W        W14144  19.644   9.926  12.485
41819W        W14145  11.564  14.364   2.458
41820W        W14146   5.695  19.034   4.658
41821W        W14147  34.958  16.050  12.914
41822W        W14148  35.552  24.765  11.880
41823W        W14149  31.870  22.590  13.855
41824W        W14150  38.824  43.766   4.684
41825W        W14151  21.958  33.166  11.043
41826W        W14152  38.799  22.543  11.600
41827W        W14153   9.457  35.849   2.661
41828W        W14154  18.187   7.064  12.121
41829W        W14155  18.036  37.044   0.879
41830W        W14156  14.584  14.092   0.876
41831W        W14157  32.099  20.824   0.162
41832W        W14158  41.288   9.216  12.343
41833W        W14159   1.496   9.227   1.437
41834W        W14160  27.302  14.823  14.478
41835W        W14161  28.162  19.811   1.321
41836W        W14162   8.828   7.985  13.316
41837W        W14163  16.590  16.761   1.171
41838W        W14164  19.836  37.687  11.891
41839W        W14165  30.465  43.712  10.564
41840W        W14166  17.748   5.772  12.258
41841W        W14167  33.551  24.643   2.130
41842W        W14168   7.253  19.466   3.726
41843W        W14169  12.123  27.940   2.179
41844W        W14170  36.434  29.629  10.188
41845W        W14171  20.717  11.854   3.102
41846W        W14172   9.715  24.740   0.377
41847W        W14173  31.318   9.883   0.781
41848W        W14174   1.483  37.393   2.417
41849W        W14175  10.860  31.398   2.554
41850W        W14176   4.145   5.392  13.104
41851W        W14177  35.315   5.673  11.223
41852W        W14178  14.556  38.464   4.140
41853W        W14179  14.577  37.049   1.649
41854W        W14180  40.015  32.878   1.776
41855W        W14181  28.938  16.454  11.136
41856W        W14182  43.346  20.021   1.905
41857W        W14183  44.770  25.628  12.098
41858W        W14184   9.418  32.434   3.749
41859W        W14185  39.113  27.138  11.041
41860W        W14186  31.702   9.314  13.379
41861W        W14187  18.590  37.904   0.640
41862W        W14188  35.079  18.559  13.011
41863W        W14189  17.674  31.628   3.153
41864W        W14190  19.296  13.375  12.560
41865W        W14191  14.639   9.871  12.429
41866W        W14192  32.555  26.210   3.762
41867W        W14193  41.417   8.063  11.938
41868W        W14194   3.817  30.962   1.031
41869W        W14195   5.733  39.260  12.799
41870W        W14196  36.494  23.206  13.398
41871W        W14197  43.974  25.604  13.531
41872W        W14198   1.369  42.701   0.231
41873W        W14199  34.102  21.603  14.680
41874W        W14200  28.414  15.282  14.027
41875W        W14201  19.586  16.727   0.329
41876W        W14202  22.586   0.728   4.846
41877W        W14203  13.113  21.039  14.448
41878W        W14204   0.916  42.851  12.567
41879W        W14205  25.436  43.707   0.712
41880W        W14206  31.711  42.249  11.125
41881W        W14207  26.499  15.702   5.642
41882W        W14208  22.676  16.097   1.877
41883W        W14209  18.652  26.814   4.684
41884W        W14210  12.379   1.896  13.718
41885W        W14211   1.357  24.569   4.848
41886W        W14212  44.814  17.793  14.214
41887W        W14213  33.198  18.174   5.020
41888W        W14214  17.287  43.770   3.632
41889W        W14215   3.329   3.728   1.802
41890W        W14216  35.451   4.681   0.726
41891W        W14217  31.952  11.100  10.166
41892W        W14218  13.356   3.874  14.438
41893W        W14219  43.515   1.896  13.428
41894W        W14220  18.334  16.173  14.453
41895W        W14221  21.511  22.866  11.404
41896W        W14222  26.721  12.525   0.475
41897W        W14223   3.920   3.309  14.842
41898W        W14224  39.379   9.531  13.564
41899W        W14225  10.298  19.541   0.507
41900W        W14226  39.112  37.385  11.010
41901W        W14227  11.735  20.961   0.961
41902W        W14228  37.524  19.316   1.679
41903W        W14229  18.513  35.223   2.482
41904W        W14230  14.988  25.839   3.413
41905W        W14231   3.259  38.955   0.455
41906W        W14232  17.309  31.123  13.822
41907W        W14233   3.691  44.883   1.276
41908W        W14234  16.761  13.962   4.599
41909W        W14235   0.876  31.333   2.741
41910W        W14236  21.105  35.309   1.366
41911W        W14237   4.958  20.544  11.483
41912W        W14238  21.171  11.821   1.868
41913W        W14239  10.332  14.430   2.665
41914W        W14240  35.643  12.016   5.038
41915W        W14241  11.345  29.501  10.785
41916W        W14242  44.451   5.494  12.561
41917W        W14243  36.039   3.191  14.474
41918W        W14244   5.919  25.579  10.797
41919W        W14245  31.211   7.418  12.769
41920W        W14246  22.767   8.222  13.575
41921W        W14247  42.726  39.355  11.539
41922W        W14248  39.755  44.294   3.652
41923W        W14249  25.161   3.333   0.507
41924W        W14250   2.986  18.826   0.194
41925W        W14251  21.070  33.828  11.425
41926W        W14252  16.839  32.900   3.673
41927W        W14253  39.586  39.101   0.427
41928W        W14254  18.091  37.558  12.417
41929W        W14255   2.437  31.672   1.685
41930W        W14256   6.801  42.905  11.616
41931W        W14257  19.414  26.449  12.498
41932W        W14258  35.570   0.184  12.579
41933W        W14259  30.527  34.985   3.933
41934W        W14260  34.781  34.523  13.076
41935W        W14261  38.813  42.622   3.364
41936W        W14262   4.124  42.873   0.916
41937W        W14263   3.001  16.660   1.722
41938W        W14264  43.210  23.245  11.392
41939W        W14265  18.303  22.448  11.465
41940W        W14266  10.344  15.900   2.788
41941W        W14267  17.265  12.199   0.897
41942W        W14268   7.184   6.320  12.079
41943W        W14269  19.720  33.000  10.584
41944W        W14270  25.198  30.205   1.705
41945W        W14271  16.195   1.247  14.857
41946W        W14272  12.234  34.880  10.160
41947W        W14273  18.787  17.081  10.166
41948W        W14274  10.864  28.908  13.004
41949W        W14275  15.281  20.758   4.783
41950W        W14276  11.910  32.195  13.984
41951W        W14277  24.993  31.360  14.803
41952W        W14278   2.835  29.352   0.729
41953W        W14279  26.118  43.778  11.238
41954W        W14280  44.515   0.341   4.074
41955W        W14281  19.019   8.275   1.487
41956W        W14282  18.813  43.364   1.667
41957W        W14283  31.108  38.337  11.478
41958W        W14284  44.967  27.137   4.371
41959W        W14285  11.202  25.613  13.990
41960W        W14286   8.369  25.936   2.434
41961W        W14287  42.326  28.947  13.497
41962W        W14288  33.974   5.987   4.392
41963W        W14289  17.554  14.053   1.254
41964W        W14290  28.651  33.429   3.368
41965W        W14291  11.915   3.140  11.977
41966W        W14292   8.337  43.469   0.756
41967W        W14293   8.129  17.220   3.228
41968W        W14294  24.106  34.922  14.826
41969W        W14295  37.186   9.822  13.055
41970W        W14296  13.516  38.586   1.784
41971W        W14297  16.250  23.839  12.043
41972W        W14298  44.313  32.013  13.507
41973W        W14299  38.951  32.934  12.649
41974W        W14300  44.573  21.982   3.726
41975W        W14301  40.421  29.167   1.493
41976W        W14302   4.607  41.872   3.168
41977W        W14303  26.007  32.352   4.109
41978W        W14304  34.416  11.850  10.627
41979W        W14305   1.286  29.617   3.860
41980W        W14306  30.738   7.267  12.908
41981W        W14307   0.897  21.318   3.817
41982W        W14308   4.351  29.867   1.819
41983W        W14309  44.366  14.567   1.614
41984W        W14310   0.004  27.935  14.795
41985W        W14311  32.886   0.307  12.901
41986W        W14312   5.233  19.060   4.888
41987W        W14313  28.496   7.618   3.664
41988W        W14314  27.565  20.991   2.709
41989W        W14315  11.055   0.236   0.766
41990W        W14316  33.478  31.741   0.051
41991W        W14317  44.567  17.051  11.023
41992W        W14318   0.235  16.200  11.572
41993W        W14319  21.989  12.236   2.528
41994W        W14320  29.750  32.235   3.722
41995W        W14321  16.610  37.976   1.405
41996W        W14322   8.864  13.409   4.942
41997W        W14323  41.033  15.052  11.656
41998W        W14324  14.157  28.676   0.411
41999W        W14325  40.477  38.228   2.899
42000W        W14326  32.949  21.706   0.074
42001W        W14327  18.614  22.631  14.438
42002W        W14328  23.481  31.905   0.168
42003W        W14329  30.237   5.852   0.923
42004W        W14330  38.550  33.931  14.357
42005W        W14331   3.339  10.337  12.382
42006W        W14332  19.637  27.417   1.937
42007W        W14333  28.744  19.219  10.768
42008W        W14334  43.860  26.117   3.287
42009W        W14335  23.093  15.214   1.696
42010W        W14336  25.599  38.587   4.525
42011W        W14337  17.949   1.734  11.055
42012W        W14338  12.574  22.274   3.115
42013W        W14339   3.231  10.731   2.245
42014W        W14340  36.553  37.658  11.955
42015W        W14341  35.910  40.338   0.903
42016W        W14342  13.298  17.022  10.996
42017W        W14343   8.943  40.379   5.147
42018W        W14344  44.875   3.434  13.525
42019W        W14345  42.057  19.958  14.389
42020W        W14346   2.259  24.988   2.278
42021W        W14347  33.970   8.818   1.646
42022W        W14348  25.379  31.753   0.247
42023W        W14349   3.931   5.255   1.962
42024W        W14350  12.746   5.671   4.692
42025W        W14351  35.530  27.017   2.399
42026W        W14352  38.020  10.994  14.359
42027W        W14353  23.660  36.621  11.882
42028W        W14354  36.081   5.462   2.262
42029W        W14355  20.566   7.955   4.314
42030W        W14356  37.347  14.300  11.646
42031W        W14357  29.113  43.806   0.850
42032W        W14358   2.790  37.914  13.983
42033W        W14359  16.283  31.993  10.113
42034W        W14360  13.684  16.649   3.772
42035W        W14361  10.577  27.973  14.233
42036W        W14362   6.994  17.540  11.033
42037W        W14363  34.338  16.662  10.662
42038W        W14364   6.215  42.918   0.046
42039W        W14365   6.702  21.759   0.989
42040W        W14366  24.630  34.019   2.371
42041W        W14367  43.033  31.166   2.820
42042W        W14368  34.490  34.928  10.881
42043W        W14369  37.326  41.983  12.719
42044W        W14370  18.780  29.723   3.975
42045W        W14371  13.360  16.201  11.595
42046W        W14372   9.709   6.314   2.601
42047W        W14373   7.340  32.530   2.733
42048W        W14374   0.773   9.576   4.697
42049W        W14375  42.212  15.734  11.547
42050W        W14376   5.343  15.735  10.710
42051W        W14377  31.402  28.046  10.700
42052W        W14378  39.938   1.658  11.972
42053W        W14379  34.989  28.165   3.867
42054W        W14380  33.959  33.895  13.512
42055W        W14381  39.266  23.700  10.436
42056W        W14382  39.656  22.683  14.534
42057W        W14383  22.661   6.575  13.081
42058W        W14384   8.674   5.717   2.259
42059W        W14385  22.569  36.269   2.802
42060W        W14386  43.056  11.339  11.673
42061W        W14387  18.843  38.713  10.100
42062W        W14388   1.742  21.683  10.606
42063W        W14389  38.930   8.138  11.274
42064W        W14390  18.688  44.248   0.376
42065W        W14391  30.437   6.167   3.921
42066W        W14392  28.748  36.367  14.867
42067W        W14393  29.271  36.340   1.456
42068W        W14394  23.781  11.246   4.090
42069W        W14395  44.869  39.238  14.472
42070W        W14396   8.782  27.578  14.659
42071W        W14397  12.191   7.666   0.410
42072W        W14398  33.449   5.269  12.844
42073W        W14399  19.266  17.943   3.725
42074W        W14400  15.286  17.215  10.657
42075W        W14401  23.913  33.580  13.285
42076W        W14402  40.614  29.378  14.388
42077W        W14403  10.210  43.044   0.982
42078W        W14404  17.067  19.394   4.478
42079W        W14405  15.775   6.647  13.587
42080W        W14406  15.824  29.366   5.081
42081W        W14407  23.716  32.916   1.841
42082W        W14408  40.858  12.072  12.941
42083W        W14409  30.709  14.209   2.341
42084W        W14410  41.533   1.091   5.014
42085W        W14411  27.459  16.205   0.413
42086W        W14412  26.788   0.220   0.386
42087W        W14413  16.715   6.413  13.022
42088W        W14414  35.956  40.427  14.530
42089W        W14415  20.689  33.087   2.192
42090W        W14416   3.665  19.546  14.102
42091W        W14417  44.573  36.896  14.314
42092W        W14418  12.733  39.029  14.859
42093W        W14419  32.350  23.536   3.250
42094W        W14420  19.277   0.325   0.017
42095W        W14421  24.715  41.564   2.715
42096W        W14422  29.470  11.031  13.751
42097W        W14423  35.053  28.360   2.590
42098W        W14424   0.432  17.377  14.072
42099W        W14425  11.913  28.511  12.901
42100W        W14426  42.598  35.577   1.931
42101W        W14427  28.897  28.617  10.142
42102W        W14428  36.381   3.829  12.825
42103W        W14429  28.127  34.761  14.341
42104W        W14430  34.982  39.078   1.309
42105W        W14431  22.071  15.505   1.841
42106W        W14432  43.950  41.566  11.609
42107W        W14433  17.886  42.585  12.401
42108W        W14434  39.839  19.216   3.566
42109W        W14435  22.738  26.435   4.567
42110W        W14436   6.868  26.122   1.165
42111W        W14437  39.721  42.749  14.936
42112W        W14438  28.659  40.606   1.329
42113W        W14439   5.712  34.502  13.497
42114W        W14440   3.815  41.993  14.864
42115W        W14441   3.692  24.146   3.989
42116W        W14442  15.552  12.616  12.480
42117W        W14443  11.107  14.133   2.395
42118W        W14444  37.892  32.387  14.443
42119W        W14445   9.207  26.160   1.729
42120W        W14446  41.989  39.356   0.328
42121W        W14447  22.141  33.568   0.914
42122W        W14448  20.660  40.242   2.932
42123W        W14449   4.210  42.709  11.460
42124W        W14450   1.086  22.961   0.350
42125W        W14451  42.898  37.282  11.701
42126W        W14452  22.677  23.689  14.179
42127W        W14453  11.872   3.642  11.940
42128W        W14454   9.026  17.868  13.421
42129W        W14455   5.926   0.296   2.472
42130W        W14456  32.990   3.465  12.061
42131W        W14457  31.604   7.711  10.876
42132W        W14458   6.674   5.201  14.359
42133W        W14459  18.856   3.415   3.139
42134W        W14460  24.255  43.822  12.159
42135W        W14461  21.701  36.872  10.474
42136W        W14462  14.600   9.783   2.846
42137W        W14463  20.035   9.184  14.363
42138W        W14464  21.700  26.392   4.103
42139W        W14465  37.829   2.425   3.648
42140W        W14466  16.437  10.346  13.984
42141W        W14467  19.313  33.725  10.958
42142W        W14468  34.815  22.783  15.000
42143W        W14469  37.489  28.574  10.526
42144W        W14470  26.092  34.308  11.135
42145W        W14471  12.412  33.833   4.979
42146W        W14472  28.052  12.845  13.882
42147W        W14473   8.140  20.632   0.851
42148W        W14474  44.917  28.243   3.675
42149W        W14475  30.541  22.320   3.239
42150W        W14476  30.010  35.025   3.931
42151W        W14477   6.393   9.814  13.392
42152W        W14478   4.103  32.262   0.881
42153W        W14479  34.905  44.871  12.426
42154W        W14480   0.829   7.407   1.856
42155W        W14481   5.142   6.859  13.104
42156W        W14482  24.205  30.305  10.663
42157W        W14483  27.943  42.550   1.291
42158W        W14484  39.944  21.322   0.939
42159W        W14485   6.778  26.069   1.666
42160W        W14486   2.182  40.577   3.265
42161W        W14487  22.156   5.951   1.229
42162W        W14488  27.425  17.745   1.666
42163W        W14489  15.177  18.191   0.050
42164W        W14490  22.869   9.094  13.527
42165W        W14491  30.571  23.991  13.865
42166W        W14492  44.386  15.655  11.361
42167W        W14493  33.654  19.758  14.492
42168W        W14494  41.805   0.093   3.328
42169W        W14495   4.484  32.662   4.887
42170W        W14496  27.178  16.851   0.807
42171W        W14497  13.637  17.301   3.688
42172W        W14498  25.393  18.157  11.968
42173W        W14499  31.913  44.490   2.906
42174W        W14500  31.923  23.983   4.164
42175W        W14501  30.289  18.705   1.262
42176W        W14502  36.480  40.908   3.246
42177W        W14503  35.055  30.429  11.580
42178W        W14504  17.184   0.588  11.521
42179W        W14505  31.546   7.792  12.880
42180W        W14506  31.440  43.024   0.569
42181W        W14507   6.290  26.012   1.884
42182W        W14508  40.567  34.469  14.630
42183W        W14509  39.810  36.154   0.662
42184W        W14510   9.281  12.599   0.817
42185W        W14511  19.736  21.534  14.811
42186W        W14512   1.166  20.031  12.110
42187W        W14513   6.839  40.729  12.960
42188W        W14514  33.028   7.617  13.978
42189W        W14515  12.549  40.846  14.628
42190W        W14516  29.537   1.209   3.103
42191W        W14517  10.307   0.286   2.769
42192W        W14518  15.191   4.972  13.415
42193W        W14519  42.993   6.026  11.918
42194W        W14520  17.107   3.176   3.654
42195W        W14521  19.619  35.844   0.992
42196W        W14522   7.323   5.305  11.706
42197W        W14523   2.366  22.761   4.366
42198W        W14524  18.105  23.524   2.717
42199W        W14525  29.665  22.611   0.372
42200W        W14526  26.018  17.250   2.352
42201W        W14527  14.711  28.559  12.498
42202W        W14528  43.473  15.163   3.697
42203W        W14529  39.516   1.975   0.212
42204W        W14530   3.067  19.236   1.236
42205W        W14531  13.790  12.542   0.710
42206W        W14532   9.453   6.962   1.420
42207W        W14533  41.796   3.206   0.948
42208W        W14534  36.146   0.764  10.731
42209W        W14535  43.915  39.228  12.584
42210W        W14536  29.466   1.297   4.395
42211W        W14537  24.057  14.543   0.997
42212W        W14538  20.281  29.575  12.828
42213W        W14539   2.613  19.747  11.607
42214W        W14540  27.883  36.854   1.203
42215W        W14541  15.222  12.727   0.947
42216W        W14542   8.568   3.402  12.964
42217W        W14543  16.717  44.805   1.825
42218W        W14544  29.175  39.442  12.179
42219W        W14545  42.203   3.145   1.767
42220W        W14546   2.260  17.470   4.757
42221W        W14547   7.253  12.299  14.894
42222W        W14548  23.093  19.309   4.442
42223W        W14549  20.977  18.831  14.902
42224W        W14550  38.324  43.802   3.297
42225W        W14551   1.971  14.585  13.665
42226W        W14552  15.165  26.529   2.360
42227W        W14553  24.991  17.908   3.755
42228W        W14554   1.426   5.950   0.997
42229W        W14555  12.776  21.074   3.776
42230W        W14556  21.341  10.522  11.922
42231W        W14557  42.078  39.913   3.675
42232W        W14558  14.746  34.475  11.057
42233W        W14559  31.367  20.994   4.201
42234W        W14560  40.104  19.894  13.806
42235W        W14561  17.719   7.270  14.668
42236W        W14562  13.130  34.707   3.175
42237W        W14563  36.547  10.046   3.524
42238W        W14564   1.902  39.294   1.167
42239W        W14565  43.921  36.566   2.287
42240W        W14566   1.470  42.916   0.678
42241W        W14567  10.330   8.954   5.008
42242W        W14568  25.049  27.439   0.765
42243W        W14569  43.858   2.366   4.178
42244W        W14570  32.093  44.574  11.419
42245W        W14571   5.593  14.294   3.291
42246W        W14572  31.108  43.047   4.689
42247W        W14573  22.314  14.785   4.345
42248W        W14574  29.149   3.575   2.349
42249W        W14575  23.043  21.767  12.486
42250W        W14576  16.153  24.597   3.782
42251W        W14577  26.247  30.758   0.447
42252W        W14578   4.874  10.829  13.343
42253W        W14579  36.757   4.133   0.399
42254W        W14580   6.709  43.381  11.801
42255W        W14581  34.455  29.228  14.965
42256W        W14582   7.548  44.014   1.669
42257W        W14583   8.893  32.536  12.001
42258W        W14584  44.818  32.153  13.616
42259W        W14585  26.191  43.282  10.954
42260W        W14586   5.060  36.583   1.371
42261W        W14587  12.777  43.282  14.305
42262W        W14588  25.106  35.416  13.768
42263W        W14589  24.505   6.429   2.728
42264W        W14590   4.125  31.021  14.409
42265W        W14591  25.399   2.014  12.968
42266W        W14592  33.335  43.268  10.069
42267W        W14593  22.505  32.704   2.887
42268W        W14594  24.620  38.425   5.461
42269W        W14595  22.088  13.719  11.936
42270W        W14596  25.460  32.941  11.748
42271W        W14597  27.572  17.070  12.305
42272W        W14598  43.865   2.852   4.982
42273W        W14599  39.028  32.451   0.738
42274W        W14600  25.282  37.697  13.483
42275W        W14601  31.189  42.545   2.281
42276W        W14602  43.545  42.863   0.058
42277W        W14603   2.992  32.819  13.421
42278W        W14604  27.263   1.835  11.458
42279W        W14605  24.115  12.910   3.346
42280W        W14606  13.863  35.772   2.979
42281W        W14607   8.427  19.805  12.386
42282W        W14608  36.159  31.586  14.415
42283W        W14609   4.238  43.252  11.534
42284W        W14610  10.849  36.864   0.554
42285W        W14611  41.964   1.883   2.365
42286W        W14612   4.294  25.124   2.208
42287W        W14613  10.445  10.831  13.047
42288W        W14614  23.533  15.365  10.216
42289W        W14615  30.714   2.400   2.615
42290W        W14616  32.475  18.218   4.346
42291W        W14617  29.767  23.995  14.100
42292W        W14618  10.152  27.160  12.944
42293W        W14619  24.985   4.796   0.282
42294W        W14620  39.458  30.102  11.772
42295W        W14621  36.100  19.277   1.837
42296W        W14622  17.248  33.514  11.483
42297W        W14623  22.314  22.573  10.445
42298W        W14624  33.181  17.139   0.835
42299W        W14625  42.895  32.767  14.754
42300W        W14626  33.953  27.955  13.370
42301W        W14627   1.436   0.464   4.120
42302W        W14628  26.519  14.305   1.444
42303W        W14629  25.617  36.758  12.617
42304W        W14630  21.671   3.724  10.747
42305W        W14631  33.115  22.235  12.006
42306W        W14632   1.821   4.879   3.226
42307W        W14633   7.420   1.665   4.546
42308W        W14634  43.985  17.906  10.874
42309W        W14635  10.900   4.499   1.761
42310W        W14636  22.689  14.599   0.388
42311W        W14637  21.083  17.989   1.719
42312W        W14638  33.476  43.746   1.468
42313W        W14639  26.727  27.663  11.915
42314W        W14640  37.529  33.530   5.185
42315W        W14641  17.801  28.021   2.151
42316W        W14642  42.772  29.459  11.792
42317W        W14643   0.658  28.910   2.905
42318W        W14644   5.417  15.282   2.293
42319W        W14645  15.246  29.551  10.776
42320W        W14646  35.041  37.520  10.587
42321W        W14647   9.935  18.175   3.632
42322W        W14648  38.877   5.124   4.462
42323W        W14649  14.402   4.330   2.699
42324W        W14650  16.140  42.914   1.943
42325W        W14651   4.314  29.701  10.655
42326W        W14652   2.982  40.542   1.514
42327W        W14653  21.410  37.148   9.796
42328W        W14654  12.832   2.686   1.188
42329W        W14655  31.281   8.846   1.383
42330W        W14656  19.238  20.222   3.236
42331W        W14657   7.153  25.740  14.934
42332W        W14658  31.083  26.599   3.573
42333W        W14659  11.742  40.351   2.881
42334W        W14660  12.660  18.311  12.886
42335W        W14661  44.724  34.618   4.654
42336W        W14662  18.410   8.091  12.026
42337W        W14663  13.975  25.458   5.101
42338W        W14664  26.032  24.640  14.243
42339W        W14665  44.386  19.171   0.538
42340W        W14666   4.720  44.360  11.158
42341W        W14667  36.173  20.598  13.702
42342W        W14668  37.857   8.748   0.378
42343W        W14669  44.008  21.562   2.351
42344W        W14670  20.727  32.629   1.413
42345W        W14671   4.760  13.843  14.409
42346W        W14672  20.607  36.968   4.399
42347W        W14673  17.447  35.014  14.802
42348W        W14674   8.842  44.053  11.076
42349W        W14675  30.351  18.959   0.431
42350W        W14676  15.236  37.760   0.042
42351W        W14677  21.828  36.068  11.140
42352W        W14678  39.864  28.716   4.548
42353W        W14679  23.648  14.677  10.668
42354W        W14680  40.264   3.454  13.544
42355W        W14681  39.408  38.604  10.513
42356W        W14682  36.293  33.757   9.802
42357W        W14683  35.332  13.298   3.291
42358W        W14684  13.224  39.579  12.594
42359W        W14685   4.758  24.968  13.941
42360W        W14686  33.943  13.026  11.456
42361W        W14687  42.656   0.521   3.171
42362W        W14688   6.345   3.790   4.018
42363W        W14689  16.765  12.145   1.994
42364W        W14690   0.877  35.574   3.546
42365W        W14691  14.358  35.082   2.401
42366W        W14692  40.041  13.884  11.990
42367W        W14693  12.896   3.668   0.272
42368W        W14694   3.121   3.317   4.881
42369W        W14695   6.207  23.249   0.247
42370W        W14696  11.074  39.455   0.336
42371W        W14697  28.760  22.186   2.142
42372W        W14698  21.585   9.890  12.756
42373W        W14699  43.007  37.855   3.187
42374W        W14700  27.777  43.094  13.428
42375W        W14701  21.491  32.825   0.875
42376W        W14702  18.207  35.007   3.708
42377W        W14703  32.094  35.488   4.337
42378W        W14704  36.882  27.113   2.944
42379W        W14705  31.710   3.732  14.097
42380W        W14706  34.335  37.885   0.327
42381W        W14707  37.682   9.916  13.068
42382W        W14708  26.690  10.237  13.740
42383W        W14709  35.291   4.268   4.513
42384W        W14710   8.887   6.905  13.720
42385W        W14711  33.328  43.821   2.348
42386W        W14712  29.224  21.914  14.873
42387W        W14713   7.359   2.959  11.633
42388W        W14714   0.916  32.033  14.038
42389W        W14715  15.426   4.284   4.793
42390W        W14716   7.671   9.651  10.753
42391W        W14717  25.869   7.740  12.963
42392W        W14718  43.534  41.822  13.509
42393W        W14719  36.063  33.931   1.436
42394W        W14720  19.616  24.287   1.337
42395W        W14721   9.416  19.191   2.181
42396W        W14722  10.528  25.212  10.560
42397W        W14723  28.155  10.399   1.317
42398W        W14724  14.564  22.654   4.201
42399W        W14725   2.441   5.981   1.828
42400W        W14726  36.118   5.186   0.674
42401W        W14727  15.821   1.286   0.288
42402W        W14728  34.312  13.091  13.764
42403W        W14729   9.027  31.661  12.291
42404W        W14730  26.959   1.395  10.729
42405W        W14731  23.946  17.328  11.409
42406W        W14732  43.597  31.818  14.378
42407W        W14733  38.135  31.992  13.397
42408W        W14734  26.600  32.659  11.594
42409W        W14735  26.177  18.545  13.987
42410W        W14736  33.172  40.979  12.894
42411W        W14737  25.708  29.612  14.033
42412W        W14738  16.569  24.728   1.803
42413W        W14739  28.145  38.532  13.000
42414W        W14740  38.176  10.426   0.966
42415W        W14741  21.720  11.227  13.102
42416W        W14742  13.885  32.941   1.226
42417W        W14743  12.780  35.812  11.576
42418W        W14744  15.158  25.613   1.908
42419W        W14745  11.823  20.354  14.483
42420W        W14746   8.109  32.129  13.610
42421W        W14747  25.987  11.319   4.946
42422W        W14748  33.411  25.486  10.644
42423W        W14749  26.119   6.474  13.132
42424W        W14750  40.344  42.863  10.686
42425W        W14751  20.095  20.030   3.827
42426W        W14752   0.231  35.320   2.807
42427W        W14753  42.272  19.257  13.566
42428W        W14754  12.547   3.287   2.531
42429W        W14755  10.585   1.470   4.098
42430W        W14756   1.749  18.102   2.444
42431W        W14757  36.484   2.579   4.332
42432W        W14758  21.978  38.850   4.114
42433W        W14759  39.013  29.722   4.144
42434W        W14760  43.987   8.590   2.011
42435W        W14761  36.814  10.003   1.305
42436W        W14762   1.385  20.744   2.901
42437W        W14763   9.219  44.269  14.400
42438W        W14764  19.134  15.618   4.610
42439W        W14765  34.455  42.422  14.741
42440W        W14766  22.241   5.941  14.316
42441W        W14767  28.972  36.456  11.206
42442W        W14768   7.148  36.915   1.001
42443W        W14769  31.910  29.820   1.635
42444W        W14770  44.493  17.116   2.699
42445W        W14771  18.672  27.668  13.021
42446W        W14772  16.642  13.314  12.994
42447W        W14773  34.520   2.642   3.684
42448W        W14774  40.570  29.000   3.635
42449W        W14775  16.494  31.248  11.899
42450W        W14776  37.136  23.597   0.929
42451W        W14777   1.735  40.869   4.790
42452W        W14778   6.208  32.157   3.778
42453W        W14779   2.840  26.603   1.462
42454W        W14780  16.108   7.549  10.434
42455W        W14781  28.945  42.627   2.385
42456W        W14782  19.071  25.223  12.083
42457W        W14783  28.858  14.737  11.095
42458W        W14784  33.779  37.328  10.916
42459W        W14785  24.863  17.575  12.528
42460W        W14786  42.708  38.325   2.662
42461W        W14787  13.109  27.353   4.631
42462W        W14788   4.669  26.884   4.209
42463W        W14789  36.552  28.103   4.683
42464W        W14790  18.278  29.594  10.408
42465W        W14791  23.643  38.359   1.470
42466W        W14792  41.059  32.077  12.113
42467W        W14793  43.598   0.193   1.763
42468W        W14794  33.039  19.004  14.221
42469W        W14795   0.683  40.948   1.839
42470W        W14796   0.788  33.683   1.314
42471W        W14797  37.928  33.052   1.962
42472W        W14798  38.779  44.328   4.003
42473W        W14799  31.994  17.693   1.458
42474W        W14800  36.006  27.623   1.247
42475W        W14801  34.174  17.241  14.356
42476W        W14802   3.299  23.118  12.431
42477W        W14803  38.881  38.224   4.390
42478W        W14804  28.127  40.486  13.274
42479W        W14805  13.571  43.295   2.616
42480W        W14806  21.014  22.144   3.429
42481W        W14807  30.535   8.244  12.598
42482W        W14808  32.963  32.048   3.551
42483W        W14809  35.330  12.154  12.095
42484W        W14810   8.475  31.582  12.433
42485W        W14811  25.610   8.271  14.878
42486W        W14812  39.022  20.785  14.082
42487W        W14813   8.793  30.420   3.632
42488W        W14814  29.790   4.233   1.371
42489W        W14815   8.855   9.820   4.746
42490W        W14816  28.684  40.999  14.245
42491W        W14817  19.810  36.119  10.661
42492W        W14818  20.498  30.697   2.696
42493W        W14819   1.344  26.559   3.619
42494W        W14820  23.121  42.396   1.533
42495W        W14821  41.564   9.423   0.079
42496W        W14822  25.140  16.036  12.512
42497W        W14823  17.620  25.916   3.426
42498W        W14824  33.023  10.685   1.410
42499W        W14825   5.100  15.153   4.622
42500W        W14826   7.348  11.348  14.513
42501W        W14827  28.195   3.044   1.366
42502W        W14828   4.872  37.074  14.806
42503W        W14829  25.022  43.801  14.404
42504W        W14830  38.374   1.051   4.604
42505W        W14831  32.686  34.070  13.065
42506W        W14832  33.483  16.871  11.725
42507W        W14833  38.603  38.745   2.970
42508W        W14834  38.456  16.717  11.885
42509W        W14835  26.941   5.730   4.284
42510W        W14836   3.769  41.903  11.588
42511W        W14837  35.973   4.295  13.830
42512W        W14838  10.220   1.309  10.619
42513W        W14839  39.689  44.869  11.978
42514W        W14840   3.255   5.281   3.033
42515W        W14841  22.994  18.764  12.636
42516W        W14842  18.479   3.619  12.527
42517W        W14843  28.822  31.124   2.899
42518W        W14844  15.765  44.145  11.549
42519W        W14845   7.493   6.730   4.432
42520W        W14846  15.644   2.402  11.817
42521W        W14847   3.046  15.352   3.804
42522W        W14848   8.294  10.088   3.609
42523W        W14849  36.848   5.240  12.468
42524W        W14850  28.929  44.588   1.263
42525W        W14851  23.647  24.094  12.743
42526W        W14852  19.794  26.443   1.726
42527W        W14853  44.466  12.164   4.107
42528W        W14854   5.947  30.619  14.850
42529W        W14855  20.237   9.117   3.759
42530W        W14856  18.098  24.988  11.207
42531W        W14857  38.168  12.579  11.945
42532W        W14858   8.940   3.346   2.170
42533W        W14859  18.010  20.228   4.570
42534W        W14860  28.539  15.087  11.306
42535W        W14861  36.795  28.454   2.734
42536W        W14862  24.808   0.800  13.537
42537W        W14863  14.129   1.221  10.965
42538W        W14864  16.210  34.930   3.350
42539W        W14865  12.511  15.894  13.082
42540W        W14866  41.544  36.346   3.566
42541W        W14867  21.672  35.947   5.070
42542W        W14868  38.441  43.993   1.256
42543W        W14869  14.666   6.065   2.288
42544W        W14870  26.030   6.482  12.612
42545W        W14871  36.495   5.185   0.291
42546W        W14872  31.850  44.367  13.356
42547W        W14873  26.194  21.522  14.113
42548W        W14874  37.611   8.149  14.550
42549W        W14875  21.318   2.678  13.598
42550W        W14876   6.764  40.361   2.374
42551W        W14877  38.509  32.843  12.149
42552W        W14878  14.723  11.614  14.151
42553W        W14879   7.824  40.197  14.867
42554W        W14880   9.116  42.030   1.316
42555W        W14881  30.101  14.299  11.181
42556W        W14882  30.637  40.774  12.135
42557W        W14883  20.689  29.683  13.581
42558W        W14884  34.678   1.842  14.396
42559W        W14885  30.224  22.739   3.249
42560W        W14886   1.867  29.720  14.863
42561W        W14887  10.389  23.028  10.639
42562W        W14888  23.241  26.947   4.206
42563W        W14889  40.974   8.492  13.521
42564W        W14890   0.438  24.029   4.921
42565W        W14891  28.461  28.008   0.333
42566W        W14892   2.412   7.153  14.387
42567W        W14893  39.055  10.317   1.845
42568W        W14894  26.503  10.274  10.428
42569W        W14895  23.243  19.725  11.555
42570W        W14896   1.716  29.595  11.937
42571W        W14897  23.002  17.565  11.608
42572W        W14898  28.858  27.150  10.097
42573W        W14899  39.079  32.126   3.244
42574W        W14900  21.270  34.526  11.866
42575W        W14901  34.836  31.113  10.581
42576W        W14902  33.906  10.323   3.258
42577W        W14903  34.613   5.159  14.886
42578W        W14904  22.737  29.190  14.370
42579W        W14905   6.108  43.370  14.031
42580W        W14906  31.395   2.633   3.275
42581W        W14907  11.648   0.215   2.219
42582W        W14908  41.998  20.651   4.667
42583W        W14909  21.278   5.784  11.553
42584W        W14910  14.269  34.038   5.061
42585W        W14911  17.276  18.013  14.294
42586W        W14912  10.867  34.125   2.181
42587W        W14913  22.102  42.526   2.731
42588W        W14914   0.852  44.688   4.172
42589W        W14915  16.803   9.792   2.355
42590W        W14916  21.254  17.382   1.670
42591W        W14917   1.923  22.886   4.594
42592W        W14918  16.065   3.556   3.135
42593W        W14919  31.519   9.907  14.820
42594W        W14920   3.885  19.070   2.793
42595W        W14921  28.078   8.548   0.976
42596W        W14922   8.232  37.020   1.592
42597W        W14923   8.158  18.915  13.487
42598W        W14924  28.198  35.492   0.805
42599W        W14925  40.277  18.726  11.246
42600W        W14926  31.494   3.826   0.456
42601W        W14927  11.889  20.650   3.743
42602W        W14928  33.611   2.500   2.264
42603W        W14929   9.891  25.494  14.849
42604W        W14930  24.955  19.553   1.855
42605W        W14931  18.837  25.132  14.042
42606W        W14932   3.693  22.545  13.963
42607W        W14933  20.985  34.084   1.046
42608W        W14934   7.347  42.312  13.407
42609W        W14935   0.085   9.872   1.441
42610W        W14936  41.648   5.291   1.143
42611W        W14937  36.860  10.279   3.098
42612W        W14938  26.533   2.894   2.871
42613W        W14939  13.525   5.296   4.952
42614W        W14940  36.634   5.370  13.429
42615W        W14941  42.973   4.296  14.731
42616W        W14942   9.753  26.162  14.357
42617W        W14943   6.001  17.677  14.064
42618W        W14944  38.181  33.779  12.043
42619W        W14945   6.668  30.375  12.585
42620W        W14946  26.644  29.503   4.808
42621W        W14947   0.979   4.844   0.291
42622W        W14948  21.753  18.697   4.631
42623W        W14949  29.967  38.625  12.404
42624W        W14950  23.742  28.556  13.779
42625W        W14951  13.324  16.342  13.367
42626W        W14952   4.641  10.650  12.385
42627W        W14953  23.585  21.578  10.615
42628W        W14954  17.718  35.888  13.568
42629W        W14955   8.153  41.818   3.652
42630W        W14956  38.946  43.071   3.126
42631W        W14957  38.457  10.866  13.976
42632W        W14958   2.954  12.145  14.991
42633W        W14959  24.116  24.538   0.859
42634W        W14960   2.015  14.722   3.211
42635W        W14961  31.359   3.552   1.643
42636W        W14962  24.801  13.225  12.669
42637W        W14963  17.099  22.248  12.025
42638W        W14964  34.891  26.397  14.791
42639W        W14965  33.032  23.499   0.348
42640W        W14966  28.081  32.007  11.210
42641W        W14967   4.231  23.841   2.495
42642W        W14968  23.116  17.264  10.508
42643W        W14969  22.846  39.408   4.657
42644W        W14970  43.277  29.484  11.707
42645W        W14971  17.136  28.305   0.357
42646W        W14972  18.215  19.483  13.839
42647W        W14973  42.359  29.910   3.719
42648W        W14974  16.559   7.018   3.256
42649W        W14975  42.493  44.848   4.731
42650W        W14976  17.538  32.638   3.236
42651W        W14977  33.607  39.720  14.492
42652W        W14978  33.192  40.824  11.980
42653W        W14979  39.846  38.405  13.287
42654W        W14980  11.112   5.509   4.591
42655W        W14981  20.052  26.559   3.825
42656W        W14982  32.496   6.279  10.918
42657W        W14983  36.482  33.008   2.897
42658W        W14984  23.676  41.001   0.731
42659W        W14985  34.666   1.815  10.806
42660W        W14986   0.244   7.470  13.062
42661W        W14987  35.260   0.160  12.150
42662W        W14988  35.630  37.963  12.075
42663W        W14989  26.478  43.199  11.526
42664W        W14990  35.894   0.490   0.956
42665W        W14991   4.461   6.263   0.333
42666W        W14992  16.054   0.534  11.707
42667W        W14993  21.919   9.455  13.412
42668W        W14994  29.879  26.154  10.128
42669W        W14995  26.990  38.993  14.958
42670W        W14996  22.052  18.188  11.206
42671W        W14997   6.620  34.181   1.847
42672W        W14998  44.950  11.787  10.639
42673W        W14999   6.723  41.816   3.371
42674W        W15000  22.795  26.718   0.408
42675W        W15001   6.109  31.141   4.759
42676W        W15002  15.713  38.807  12.432
42677W        W15003   5.663   2.828  14.037
42678W        W15004  30.941  22.611   4.764
42679W        W15005  35.136  44.448   3.472
42680W        W15006  33.670   3.255  14.914
42681W        W15007  14.425  44.441   0.752
42682W        W15008  17.787  25.002   1.314
42683W        W15009  43.846   0.027   2.273
42684W        W15010  24.281  35.395  12.514
42685W        W15011  16.775  34.127  12.041
42686W        W15012   3.386  22.551   2.276
42687W        W15013  34.792  21.963   4.832
42688W        W15014  38.032  20.422  14.911
42689W        W15015  35.037  15.283   4.231
42690W        W15016  42.812   9.916  11.514
42691W        W15017   7.193  38.262  11.549
42692W        W15018   9.544  35.555  11.213
42693W        W15019  40.524  13.888   3.290
42694W        W15020  29.183  37.327  11.243
42695W        W15021  28.692   0.212  12.960
42696W        W15022  16.643   5.345   3.751
42697W        W15023  11.315   4.131  12.575
42698W        W15024  31.985  26.705   0.162
42699W        W15025   3.462   4.098  11.095
42700W        W15026  41.445  38.127  10.694
42701W        W15027   9.397  16.690   0.900
42702W        W15028  26.627  31.474   3.151
42703W        W15029  10.079  14.595  13.398
42704W        W15030  40.290  41.401   0.514
42705W        W15031   1.945  28.695   0.033
42706W        W15032  11.254   5.774   3.723
42707W        W15033   0.402  12.416   2.327
42708W        W15034  17.129  17.300  11.967
42709W        W15035  37.764  38.990  13.413
42710W        W15036  23.588   6.549  14.320
42711W        W15037  13.359  43.377  14.875
42712W        W15038  23.139  41.780   2.224
42713W        W15039  36.860  21.234   0.767
42714W        W15040   4.303  21.055  12.034
42715W        W15041  38.431   1.872  10.838
42716W        W15042  10.680  41.997   3.298
42717W        W15043  32.113  34.800  10.800
42718W        W15044   1.237  29.947   2.828
42719W        W15045  28.387  26.495   2.229
42720W        W15046   4.685  11.900   1.819
42721W        W15047   7.734  35.109  14.630
42722W        W15048  35.560   0.278  13.465
42723W        W15049  25.439   4.983   4.588
42724W        W15050  40.640  22.452   5.082
42725W        W15051  33.482  41.881   1.881
42726W        W15052  12.820  35.950  10.727
42727W        W15053  21.053  20.244  11.542
42728W        W15054  33.974   3.221  10.459
42729W        W15055  19.612  12.085  12.949
42730W        W15056  21.652  15.995   2.727
42731W        W15057   8.495  24.570   4.425
42732W        W15058  14.378  12.771  14.547
42733W        W15059   5.766  44.970   1.772
42734W        W15060  13.826  30.663   3.800
42735W        W15061  40.412  34.997   4.631
42736W        W15062  44.258   0.080  11.547
42737W        W15063  41.420  14.338   3.613
42738W        W15064  32.942  26.680  13.832
42739W        W15065  22.216   6.534  12.707
42740W        W15066   3.575  36.843  11.122
42741W        W15067   8.300  33.969   0.285
42742W        W15068  20.112   8.875   2.758
42743W        W15069   2.868   1.895  10.675
42744W        W15070  39.997  35.522  14.040
42745W        W15071   1.838  17.758  11.686
42746W        W15072  29.926  15.645  14.335
42747W        W15073  24.014  18.066   2.829
42748W        W15074  14.578  28.022  11.113
42749W        W15075  35.427  25.479  13.791
42750W        W15076  10.148  20.234   3.989
42751W        W15077  37.965  29.069  14.233
42752W        W15078  26.465  34.422   0.290
42753W        W15079   8.107  40.138   4.682
42754W        W15080   4.007   4.179  12.968
42755W        W15081  37.288  16.092  13.800
42756W        W15082  30.509  12.775   2.317
42757W        W15083  24.217   9.190   1.174
42758W        W15084  41.575  20.687   2.006
42759W        W15085  42.464  38.699  14.447
42760W        W15086  25.447  38.971  14.835
42761W        W15087  34.491  30.136  14.037
42762W        W15088  42.972  40.401  14.354
42763W        W15089   3.969  36.315   0.500
42764W        W15090   2.344  42.408  10.685
42765W        W15091  43.065  42.871  14.786
42766W        W15092  22.984  32.031  14.962
42767W        W15093  23.449   3.167   1.309
42768W        W15094  42.699   0.263  13.849
42769W        W15095   6.337  15.273   0.962
42770W        W15096  35.069  35.665   9.837
42771W        W15097  11.663  26.503   4.994
42772W        W15098   3.761  21.994  13.101
42773W        W15099  44.662  23.224  12.374
42774W        W15100  26.451  35.316  14.456
42775W        W15101  35.900  20.153  14.561
42776W        W15102   9.906  35.291  11.442
42777W        W15103  42.358  10.452   2.202
42778W        W15104  32.299  38.098   4.106
42779W        W15105  31.205  11.744  13.582
42780W        W15106   3.855  19.542   1.892
42781W        W15107   9.117  15.353   1.307
42782W        W15108  26.954   2.309   2.416
42783W        W15109   0.228  38.996  13.000
42784W        W15110  16.626  39.295   3.671
42785W        W15111  42.264   2.259  13.400
42786W        W15112  40.054  17.787   3.746
42787W        W15113  42.823   2.780  13.959
42788W        W15114   3.756  18.317  10.341
42789W        W15115  35.378  23.409   1.146
42790W        W15116  30.119  29.999   1.029
42791W        W15117  29.987  38.143   4.239
42792W        W15118   1.846   4.942  14.582
42793W        W15119  12.391   2.874  12.876
42794W        W15120  20.059  13.711   4.887
42795W        W15121  11.679  30.332  13.427
42796W        W15122  37.528  26.730   3.392
42797W        W15123  20.263  34.492   2.772
42798W        W15124  22.568  11.346  14.798
42799W        W15125  19.120  25.146   1.853
42800W        W15126  17.955  26.199  10.519
42801W        W15127  22.511  18.321   1.834
42802W        W15128  32.188  22.777   3.254
42803W        W15129  31.611  38.777  13.341
42804W        W15130  34.144  26.386  13.404
42805W        W15131   8.777  28.976  10.802
42806W        W15132  38.818  34.587   3.180
42807W        W15133  22.624   9.219   1.873
42808W        W15134  11.725  42.485   3.395
42809W        W15135  21.731  17.166   0.811
42810W        W15136  28.066  14.573   4.641
42811W        W15137  29.042  35.232  13.060
42812W        W15138  13.948  22.181  11.200
42813W        W15139  22.209  16.040   5.065
42814W        W15140   3.275  38.898  14.917
42815W        W15141  41.717  28.415  14.408
42816W        W15142  24.514  21.878   2.829
42817W        W15143  35.583   2.346   2.667
42818W        W15144  17.188  42.088   4.524
42819W        W15145  22.419  10.402   5.070
42820W        W15146  39.118  33.458   5.094
42821W        W15147  20.502  37.577  14.447
42822W        W15148  13.168  36.287  12.755
42823W        W15149   3.784  18.138   1.493
42824W        W15150  35.178  27.159   2.049
42825W        W15151  20.793  29.638  12.641
42826W        W15152  38.459  22.946  12.476
42827W        W15153   3.674  24.413  10.503
42828W        W15154  29.854  12.368   1.594
42829W        W15155   6.725  34.090  12.198
42830W        W15156   5.948  20.613  13.092
42831W        W15157  36.973  37.253   1.298
42832W        W15158  23.742  37.093   2.860
42833W        W15159  30.489  11.504  13.334
42834W        W15160  32.140  21.006   1.895
42835W        W15161  12.326  39.932   0.695
42836W        W15162  24.114  25.471   1.866
42837W        W15163  26.490  13.742   2.308
42838W        W15164  23.747  33.614  14.552
42839W        W15165   7.651   0.475  14.472
42840W        W15166   3.180  23.319  11.025
42841W        W15167  44.403  19.730   1.625
42842W        W15168   4.918  21.722   4.961
42843W        W15169  21.202  44.002   3.173
42844W        W15170  12.113  27.447  10.347
42845W        W15171  22.536  44.308  11.480
42846W        W15172  33.542  41.842  10.767
42847W        W15173   5.299   3.436   2.714
42848W        W15174  31.924  19.862   4.149
42849W        W15175  13.263  33.396   0.739
42850W        W15176   1.982  24.175   2.719
42851W        W15177  23.425   9.845   0.298
42852W        W15178  26.946  22.510  13.531
42853W        W15179  37.939   4.728  13.437
42854W        W15180  10.603   7.733   3.308
42855W        W15181  38.345  31.358   0.826
42856W        W15182  32.088  42.574  13.421
42857W        W15183   1.912  31.523  14.381
42858W        W15184  14.616   8.641   1.011
42859W        W15185  11.516  24.631   5.605
42860W        W15186  34.861   0.156  14.354
42861W        W15187  17.296  21.231   2.679
42862W        W15188  12.775  33.198  14.068
42863W        W15189   1.428  38.532   3.833
42864W        W15190  34.071   7.532  13.872
42865W        W15191  41.613  31.743  14.378
42866W        W15192   3.171  27.999  10.715
42867W        W15193   1.929   5.156   4.941
42868W        W15194  21.202  14.345   2.886
42869W        W15195  38.684  20.795  11.565
42870W        W15196  38.811  18.702   3.245
42871W        W15197  10.097  41.961  11.059
42872W        W15198  14.246  39.359   3.117
42873W        W15199  23.816  29.531  12.183
42874W        W15200  38.382  25.547  14.857
42875W        W15201  44.721  33.998   2.483
42876W        W15202  16.815  29.435  12.542
42877W        W15203  28.073  22.248   4.304
42878W        W15204  20.153  38.161   1.908
42879W        W15205  43.444  35.147  13.443
42880W        W15206  20.206  11.808   4.620
42881W        W15207  38.547  33.155  13.421
42882W        W15208  25.703  19.291  13.678
42883W        W15209  26.718  29.974   3.482
42884W        W15210  38.374   6.439  14.754
42885W        W15211   7.797  16.078   3.629
42886W        W15212  20.495  19.678   2.633
42887W        W15213  38.975  23.111   2.382
42888W        W15214  31.684  33.987  11.163
42889W        W15215   5.813   8.865   3.205
42890W        W15216  30.413  22.819  11.149
42891W        W15217  37.534  19.902  13.746
42892W        W15218  19.346  31.726   2.365
42893W        W15219  13.126  29.469  12.072
42894W        W15220   2.292  36.052  12.747
42895W        W15221  14.266  30.700   3.339
42896W        W15222  39.892  34.981   3.705
42897W        W15223  19.175  29.154  10.545
42898W        W15224   7.099  44.308  13.763
42899W        W15225  20.916   8.567   4.879
42900W        W15226  34.108  28.419  14.885
42901W        W15227  33.479  18.106  11.352
42902W        W15228   5.925  11.265  11.119
42903W        W15229  20.488  16.555   0.283
42904W        W15230  20.093  25.257   4.295
42905W        W15231  42.375  10.327   4.502
42906W        W15232  38.074   3.179   3.055
42907W        W15233  12.673  23.583  13.357
42908W        W15234  21.615  31.694  12.022
42909W        W15235  39.775  33.607  10.929
42910W        W15236  39.659   5.518   3.595
42911W        W15237  23.742  19.245  13.483
42912W        W15238   0.204  43.373   0.650
42913W        W15239  23.432  32.658   4.119
42914W        W15240   2.551   3.162  10.611
42915W        W15241   4.965  19.080  10.705
42916W        W15242  40.861  38.402   1.639
42917W        W15243   7.083   2.467   2.720
42918W        W15244  41.877  30.113  10.791
42919W        W15245   2.690  40.921  11.093
42920W        W15246  24.081  27.494  10.762
42921W        W15247  21.494  41.812  13.037
42922W        W15248   4.217  16.117  14.033
42923W        W15249  31.000  16.016   3.673
42924W        W15250   0.952  31.514   3.217
42925W        W15251  22.067  31.047   3.309
42926W        W15252   2.066  23.792   5.492
42927W        W15253  16.542  33.957   2.165
42928W        W15254  37.528  20.733  13.058
42929W        W15255  34.412  39.098   4.652
42930W        W15256  40.387  28.032   4.043
42931W        W15257  38.074  31.528  11.410
42932W        W15258  20.321  14.793   0.834
42933W        W15259  43.551   2.509   3.766
42934W        W15260  23.354  30.944   1.153
42935W        W15261  33.706   9.251   1.819
42936W        W15262  43.262   8.218   3.481
42937W        W15263  43.056   6.263   3.679
42938W        W15264  35.379  34.492   1.430
42939W        W15265  25.201  17.986  14.841
42940W        W15266  24.745  39.159   0.435
42941W        W15267  41.358  23.315  13.993
42942W        W15268   7.859  13.080  13.509
42943W        W15269  23.023  29.177   2.858
42944W        W15270  35.927  33.108  11.020
42945W        W15271  29.146   2.678   1.474
42946W        W15272   1.961  30.963   2.116
42947W        W15273   7.217  31.357   4.196
42948W        W15274  39.593   4.481  12.667
42949W        W15275  22.172  22.617   0.246
42950W        W15276  30.734  29.544   1.933
42951W        W15277  30.997  44.341  11.165
42952W        W15278  39.428   6.157  14.572
42953W        W15279  17.085  42.483  11.428
42954W        W15280   9.668  24.783   2.219
42955W        W15281  21.679  26.868  13.450
42956W        W15282  43.790  40.054   0.402
42957W        W15283  14.381  28.428  14.985
42958W        W15284  29.897   8.265   3.714
42959W        W15285  28.566  11.273  12.008
42960W        W15286  20.119  33.562  12.132
42961W        W15287   6.790  24.507  14.513
42962W        W15288   7.908  11.574  10.736
42963W        W15289  42.027  31.392   0.341
42964W        W15290  11.305  17.709  13.543
42965W        W15291   7.766  28.093  13.773
42966W        W15292  11.148  31.262  12.859
42967W        W15293  22.462  37.943  13.615
42968W        W15294   1.217  44.228   0.370
42969W        W15295  21.997  25.172   2.155
42970W        W15296  42.767  28.108  13.568
42971W        W15297  43.330  27.675   2.362
42972W        W15298   6.871  42.796   1.274
42973W        W15299  19.258   5.903  13.285
42974W        W15300  43.752   9.881  14.536
42975W        W15301  43.757   6.941   4.374
42976W        W15302  40.257  10.256   5.138
42977W        W15303  20.099  33.410   5.090
42978W        W15304  41.917  31.979  11.496
42979W        W15305  20.638   2.550   1.042
42980W        W15306  33.545  34.803  14.430
42981W        W15307  32.973   9.841   4.436
42982W        W15308  37.407  31.401   4.880
42983W        W15309   8.201  22.652   4.341
42984W        W15310  34.315  22.535   0.858
42985W        W15311   6.610  20.632   1.838
42986W        W15312  22.131  21.069   1.289
42987W        W15313  28.112  34.818   2.859
42988W        W15314   6.382  13.035  14.328
42989W        W15315  25.210  33.618  10.318
42990W        W15316  29.921  44.855   4.121
42991W        W15317  36.359  32.015  14.151
42992W        W15318  12.498  27.059   1.860
42993W        W15319  44.047  28.955   3.602
42994W        W15320  41.568  33.037   0.765
42995W        W15321   6.278  36.675   1.466
42996W        W15322  40.300  33.957  14.841
42997W        W15323   6.198  26.179  14.786
42998W        W15324  33.935  27.325   1.871
42999W        W15325  17.594  12.277   4.651
43000W        W15326   2.789  26.122  12.471
43001W        W15327  44.833  24.094   1.828
43002W        W15328   1.903  37.899   2.517
43003W        W15329  37.185   6.345   3.802
43004W        W15330  17.886  17.566   0.022
43005W        W15331   5.915  44.803   2.727
43006W        W15332  33.933   4.004  13.302
43007W        W15333   4.013  43.007   0.420
43008W        W15334  29.963  33.819  13.815
43009W        W15335  24.590  20.640   4.530
43010W        W15336   3.216  15.129   2.157
43011W        W15337   7.570  35.924   0.187
43012W        W15338  36.467  36.660  12.047
43013W        W15339  39.519  33.060  14.017
43014W        W15340  25.426  38.995   4.757
43015W        W15341   2.663  22.640  11.420
43016W        W15342   1.056  33.670   0.888
43017W        W15343   0.520  42.526  12.172
43018W        W15344  35.306  24.002   1.400
43019W        W15345  17.822  31.700  11.069
43020W        W15346  11.304  43.008  11.427
43021W        W15347  27.061  23.572  13.865
43022W        W15348  17.624  16.541  12.044
43023W        W15349  13.967  25.565   9.909
43024W        W15350  34.947  35.889   4.945
43025W        W15351  34.294  16.524  11.147
43026W        W15352  41.913  20.507  13.632
43027W        W15353  40.360  36.863   2.202
43028W        W15354  40.529  40.086  12.880
43029W        W15355  36.075  16.105  14.519
43030W        W15356   1.755  38.647   1.757
43031W        W15357  39.978  35.343   3.354
43032W        W15358  38.041   5.917   0.202
43033W        W15359  16.674  34.615   4.137
43034W        W15360  20.732  11.694  11.773
43035W        W15361  13.148  23.122   1.558
43036W        W15362  34.993  44.645  14.434
43037W        W15363   3.138   2.075   1.293
43038W        W15364   1.056  16.366  14.355
43039W        W15365  28.886  14.356  10.649
43040W        W15366  43.025  29.008  11.736
43041W        W15367  38.363   7.745  10.953
43042W        W15368  43.826  43.992  13.852
43043W        W15369  17.664  35.038   2.797
43044W        W15370  27.814  41.426  10.187
43045W        W15371  17.279  42.362  11.926
43046W        W15372  10.203  21.751   2.330
43047W        W15373   7.283  38.318  10.517
43048W        W15374  30.913  37.064  13.818
43049W        W15375  36.548  13.615   1.246
43050W        W15376  33.857  43.970  12.029
43051W        W15377  30.555  24.090  14.801
43052W        W15378  25.580  32.711   0.637
43053W        W15379  36.035  23.087   0.692
43054W        W15380  37.018  30.277  12.473
43055W        W15381  24.933  33.725  14.387
43056W        W15382  42.241  10.545   1.315
43057W        W15383  44.271  37.543  13.116
43058W        W15384   2.135  19.508  11.482
43059W        W15385  25.364   1.670  13.814
43060W        W15386  33.927  38.578  12.409
43061W        W15387   9.740  32.496  10.756
43062W        W15388  35.788   4.149  10.425
43063W        W15389  40.045  22.943   0.021
43064W        W15390  19.245  26.445  14.880
43065W        W15391   7.984  35.902   4.210
43066W        W15392  39.739  15.883   3.860
43067W        W15393  32.930  16.750  10.593
43068W        W15394  37.374  34.568  11.174
43069W        W15395  43.098  19.169   0.762
43070W        W15396   2.415  41.880   3.565
43071W        W15397  39.556  12.042  12.893
43072W        W15398   6.895  20.742  10.699
43073W        W15399  12.739  40.849   1.088
43074W        W15400   6.781  28.035  13.861
43075W        W15401   6.847   6.177   3.655
43076W        W15402  19.620  35.570  12.886
43077W        W15403  17.807  34.060  12.087
43078W        W15404  39.317  34.880   0.099
43079W        W15405  41.229  34.210  14.445
43080W        W15406  26.111  16.189  11.465
43081W        W15407   2.310   2.483   3.881
43082W        W15408  21.500  23.664  11.954
43083W        W15409  26.586  11.185  11.558
43084W        W15410  12.637  36.984   0.460
43085W        W15411  24.165   8.962   2.570
43086W        W15412  39.929  33.135   4.145
43087W        W15413  22.149  39.103   1.120
43088W        W15414  36.659  11.058  13.931
43089W        W15415   8.270  31.173   0.215
43090W        W15416  15.229   0.268   3.047
43091W        W15417  33.762  17.559   9.900
43092W        W15418  15.345  13.145   2.765
43093W        W15419  27.891  26.084  10.412
43094W        W15420  34.929   1.853   3.720
43095W        W15421   0.405  34.333   0.740
43096W        W15422  21.000   2.715   1.509
43097W        W15423  15.423  12.354  12.901
43098W        W15424  26.932  12.374  11.004
43099W        W15425  37.373  19.187   3.903
43100W        W15426  35.439   7.655   3.055
43101W        W15427  31.002  24.725   0.224
43102W        W15428  30.624  39.922   2.711
43103W        W15429  25.949  36.473   0.812
43104W        W15430   6.207  13.906  12.015
43105W        W15431  41.447  17.844   3.675
43106W        W15432  18.535  16.256   4.664
43107W        W15433  10.770   7.294  10.674
43108W        W15434   6.799  28.657   4.270
43109W        W15435  39.055  22.471   0.835
43110W        W15436  33.099  43.067   3.739
43111W        W15437  15.285  23.719   0.370
43112W        W15438  11.098  16.062   1.492
43113W        W15439  12.296   0.560  13.461
43114W        W15440  12.178  15.306  14.464
43115W        W15441   7.645  16.739  12.789
43116W        W15442  30.758  39.611   4.108
43117W        W15443  29.578  43.184  11.566
43118W        W15444  24.226  14.156   3.839
43119W        W15445  13.314  12.297  12.679
43120W        W15446  34.425  36.847  10.247
43121W        W15447   5.558   9.312   4.073
43122W        W15448  38.666  31.838   3.147
43123W        W15449   3.480  43.805   0.912
43124W        W15450  28.361  44.049   1.350
43125W        W15451   0.656  39.331  11.639
43126W        W15452   7.622  16.342   1.468
43127W        W15453  11.158  19.005   1.487
43128W        W15454   1.508   9.708   1.193
43129W        W15455  30.934   8.447   3.102
43130W        W15456  33.389  44.252   1.437
43131W        W15457   8.166  15.661  10.675
43132W        W15458  30.605  41.472  11.470
43133W        W15459  38.689  24.800   3.123
43134W        W15460  33.665  30.836   5.015
43135W        W15461  15.360   3.855   3.574
43136W        W15462  42.966  40.010  14.720
43137W        W15463  39.129  26.985  12.828
43138W        W15464  37.376  30.490   1.307
43139W        W15465  22.217   8.826  11.077
43140W        W15466  30.463  40.749   0.430
43141W        W15467  37.365   2.677   4.171
43142W        W15468  24.613  30.308  10.982
43143W        W15469  19.201   7.851   1.232
43144W        W15470  29.838   1.724   4.177
43145W        W15471  38.856  44.502   0.865
43146W        W15472  35.692   6.788  14.614
43147W        W15473   1.449  44.257  14.799
43148W        W15474  36.181  15.808  12.028
43149W        W15475   9.529  17.087  12.966
43150W        W15476  30.674  17.808   1.178
43151W        W15477  37.621   7.263   1.736
43152W        W15478  41.504  42.290  14.351
43153W        W15479  24.501  14.105   0.293
43154W        W15480   0.910  43.514   4.562
43155W        W15481  17.134  21.263  12.573
43156W        W15482   8.823  22.135  13.854
43157W        W15483  32.768  23.864  13.446
43158W        W15484   8.504  19.700  13.716
43159W        W15485  21.757  33.609   1.287
43160W        W15486   4.941  13.936  10.750
43161W        W15487   8.166  18.473  13.070
43162W        W15488  39.493  24.683  14.351
43163W        W15489   7.881  21.770  14.625
43164W        W15490  14.814  12.676   4.184
43165W        W15491  35.603  35.536   4.553
43166W        W15492   3.460   1.299  11.041
43167W        W15493  40.849  18.478  14.479
43168W        W15494  27.385  31.753  13.172
43169W        W15495  25.526   7.300   0.213
43170W        W15496   6.308   8.245  14.338
43171W        W15497  35.995   3.802   0.837
43172W        W15498  38.948   5.198  11.188
43173W        W15499  35.775  24.749   2.119
43174W        W15500  31.622  31.679  12.642
43175W        W15501   6.700  11.803  13.031
43176W        W15502  43.966  38.956   4.593
43177W        W15503   5.228  27.426  11.057
43178W        W15504  32.902  12.815   3.407
43179W        W15505   3.138  13.541  11.681
43180W        W15506  20.481   6.744   2.671
43181W        W15507  13.523  35.709  12.117
43182W        W15508   8.763  41.360   2.357
43183W        W15509   7.764  27.309  14.435
43184W        W15510  23.526   9.941   3.783
43185W        W15511  31.544  26.630   0.402
43186W        W15512   4.991  36.397  14.166
43187W        W15513  35.561   3.159   1.320
43188W        W15514  28.481   7.801   4.562
43189W        W15515   4.012   1.179  14.713
43190W        W15516  31.850   3.903  10.468
43191W        W15517  19.755  12.901  12.476
43192W        W15518  20.802  13.665   2.442
43193W        W15519  32.151  26.096   0.030
43194W        W15520  26.197  32.136  11.447
43195W        W15521   6.265   3.269   0.320
43196W        W15522  20.639  32.023   4.432
43197W        W15523  37.067  23.452  12.973
43198W        W15524  18.779  33.096  13.596
43199W        W15525  44.783  16.024  11.999
43200W        W15526  33.709   8.741   3.159
43201W        W15527  32.615  36.812  11.978
43202W        W15528  16.965   7.248   3.493
43203W        W15529  29.656  27.860   4.047
43204W        W15530  19.588  35.019   4.083
43205W        W15531  37.452   0.815  10.677
43206W        W15532  35.871   9.304  12.148
43207W        W15533  34.894  31.961   0.373
43208W        W15534  20.217   4.417  10.880
43209W        W15535  19.483  13.905  11.070
43210W        W15536  23.643   5.894   0.724
43211W        W15537  35.660  44.441   0.183
43212W        W15538  26.026  22.307   1.582
43213W        W15539  32.348   0.510  14.966
43214W        W15540  22.171  16.817  11.075
43215W        W15541   5.239   8.691  11.459
43216W        W15542  26.745   3.368   2.804
43217W        W15543  38.114  44.563  12.815
43218W        W15544  19.069  29.101   2.638
43219W        W15545  30.638  14.760  12.769
43220W        W15546  28.139  19.452  11.792
43221W        W15547  27.063  36.544  11.148
43222W        W15548  11.410  15.632   9.877
43223W        W15549  30.568  19.384   0.221
43224W        W15550  10.363   7.669   1.668
43225W        W15551  30.911  26.594  11.121
43226W        W15552  41.379  29.024   2.339
43227W        W15553  36.512  28.602  12.134
43228W        W15554  41.218   6.970   0.747
43229W        W15555  34.374  42.513  10.819
43230W        W15556  30.558  41.632   1.485
43231W        W15557  31.983  29.474   0.401
43232W        W15558  17.896   0.829  12.056
43233W        W15559  22.059  41.522  14.265
43234W        W15560  21.440   6.637   0.469
43235W        W15561  31.366  26.629   1.279
43236W        W15562  17.271   7.496   0.344
43237W        W15563  41.159  31.936  10.986
43238W        W15564   7.147  44.347   1.765
43239W        W15565  10.581  17.971   0.828
43240W        W15566  20.231  17.269   0.825
43241W        W15567  31.588   2.736  10.701
43242W        W15568  11.250  44.284  14.928
43243W        W15569   5.225   5.326   2.345
43244W        W15570  11.880  37.174  11.922
43245W        W15571  15.676  41.802   3.377
43246W        W15572  23.805  43.478   3.158
43247W        W15573  36.060  43.031   2.026
43248W        W15574   8.883  13.424  13.913
43249W        W15575  44.327  25.824   3.510
43250W        W15576  26.399   1.922   1.853
43251W        W15577  42.463  27.167  14.721
43252W        W15578  37.971  39.112   9.609
43253W        W15579  33.926  25.436   2.723
43254W        W15580  32.724  22.488  10.311
43255W        W15581  22.089  44.906   1.090
43256W        W15582  12.368   5.195  13.546
43257W        W15583  36.295   9.812   1.444
43258W        W15584   7.195  41.944  12.996
43259W        W15585  17.093  42.315  13.384
43260W        W15586   7.119   1.782  11.293
43261W        W15587  11.275   9.386  11.935
43262W        W15588   6.729  27.087   4.121
43263W        W15589  35.352  35.854  12.093
43264W        W15590   6.709  16.294  12.981
43265W        W15591  31.522  10.463   0.224
43266W        W15592  38.887  11.401  11.349
43267W        W15593   0.380  19.961  12.154
43268W        W15594  10.337  29.104   4.729
43269W        W15595  10.893  43.811   0.772
43270W        W15596  41.095  14.706   3.245
43271W        W15597  29.171  29.611   2.108
43272W        W15598  25.701   1.440  13.053
43273W        W15599   6.351  14.842  11.205
43274W        W15600  29.127  11.400   1.425
43275W        W15601   2.408   0.326   3.768
43276W        W15602  15.457  12.199  11.586
43277W        W15603  42.302  15.541  10.695
43278W        W15604   1.948  29.240   0.070
43279W        W15605  34.078  13.468   0.551
43280W        W15606  12.042  11.251   0.785
43281W        W15607   2.289   9.673  14.960
43282W        W15608  39.381  23.022   2.053
43283W        W15609  39.326  43.938   2.368
43284W        W15610  11.839  39.426  12.444
43285W        W15611  11.269  20.225  12.420
43286W        W15612  40.900  20.026   2.321
43287W        W15613   6.021  23.024  11.245
43288W        W15614   5.652  14.626  11.072
43289W        W15615  38.521  38.444   2.129
43290W        W15616  39.465  15.809  11.642
43291W        W15617  30.150   3.449  11.578
43292W        W15618   1.483   5.095  12.410
43293W        W15619   5.456  10.175   2.962
43294W        W15620  16.309  30.980   3.108
43295W        W15621   5.943  31.582   3.211
43296W        W15622   9.091  28.429   0.665
43297W        W15623  42.956   8.719  12.285
43298W        W15624   1.683  22.490   0.782
43299W        W15625  29.753   0.911   4.580
43300W        W15626  23.672  42.386  13.409
43301W        W15627  37.384   7.669   0.966
43302W        W15628   0.473  28.572  12.624
43303W        W15629  25.719  13.851  11.198
43304W        W15630  12.256  19.381  13.602
43305W        W15631  26.972   2.901  14.872
43306W        W15632  12.727   0.298  12.865
43307W        W15633  34.437   1.818  14.866
43308W        W15634  11.022  44.773  11.883
43309W        W15635  23.985  14.828  12.590
43310W        W15636   2.865  31.134   1.446
43311W        W15637  28.432  11.291   4.037
43312W        W15638  38.762  12.807   3.439
43313W        W15639  28.782  38.765   2.383
43314W        W15640  32.593   3.816  14.259
43315W        W15641  25.034  31.438  12.580
43316W        W15642  41.976  43.503   2.369
43317W        W15643   2.242  21.054  13.862
43318W        W15644  43.060  11.901   1.889
43319W        W15645  42.723   4.140  12.567
43320W        W15646   7.324  13.578  12.914
43321W        W15647  13.718   1.897   1.645
43322W        W15648  33.912  33.434  11.685
43323W        W15649  28.667  44.355  12.460
43324W        W15650  21.770   2.223   2.733
43325W        W15651  37.864   6.151  12.569
43326W        W15652  26.901  27.108  10.742
43327W        W15653  40.063  10.126   1.876
43328W        W15654  12.375  33.169  12.892
43329W        W15655   7.224  14.289   2.441
43330W        W15656  40.383   3.264   3.712
43331W        W15657  23.695  29.044   3.673
43332W        W15658  40.345   1.505  10.710
43333W        W15659  15.743  21.618  10.901
43334W        W15660  19.792  22.167   4.695
43335W        W15661   1.483  37.886   3.320
43336W        W15662  28.654  24.527   3.476
43337W        W15663  24.759   6.845  12.017
43338W        W15664  31.085  29.043  14.879
43339W        W15665  14.568  41.855   0.886
43340W        W15666  34.125   9.136  12.004
43341W        W15667  31.948  10.863  11.774
43342W        W15668  22.293   8.835   2.758
43343W        W15669  36.159  24.511  12.886
43344W        W15670   7.896  38.420   4.307
43345W        W15671  12.879   8.219   3.360
43346W        W15672  21.011  41.568  14.827
43347W        W15673  35.106  11.371  12.476
43348W        W15674  16.982  13.158   3.781
43349W        W15675   6.317   2.328  14.350
43350W        W15676   7.169  32.968   3.636
43351W        W15677  43.574  43.291  14.309
43352W        W15678  40.982  22.233  10.669
43353W        W15679  31.027  32.214   0.225
43354W        W15680  15.126   3.962  12.510
43355W        W15681  16.476  32.451   3.541
43356W        W15682  17.319  30.046  12.839
43357W        W15683  31.387  15.619  12.838
43358W        W15684  16.257  27.190   2.221
43359W        W15685  18.757  35.281  12.763
43360W        W15686  20.121  15.047  10.618
43361W        W15687  27.967  22.608   1.908
43362W        W15688   0.895   5.472  13.882
43363W        W15689  41.852  41.294  14.396
43364W        W15690  34.344  27.948   4.774
43365W        W15691  24.191  25.983   4.502
43366W        W15692  10.818  40.912  13.102
43367W        W15693   0.556  17.274   4.694
43368W        W15694   3.008  29.221  13.390
43369W        W15695  19.943   0.314   0.830
43370W        W15696  38.432  30.666   3.644
43371W        W15697  40.300  37.771  12.507
43372W        W15698  40.049  35.554  13.533
43373W        W15699  28.962  11.611  12.727
43374W        W15700  38.499  35.792  14.997
43375W        W15701  34.776  11.489  10.785
43376W        W15702   9.740  26.452  13.877
43377W        W15703  33.801  24.357   4.085
43378W        W15704  33.200  13.148  11.879
43379W        W15705  28.145  40.387  13.875
43380W        W15706   8.772  11.687  13.977
43381W        W15707  10.904  21.986  12.915
43382W        W15708  25.394  35.787   1.562
43383W        W15709   4.746  29.735  11.642
43384W        W15710  25.689  28.585   4.418
43385W        W15711   6.253  31.427  12.940
43386W        W15712  22.083  21.201  12.498
43387W        W15713   5.216  43.747  12.531
43388W        W15714  16.336   6.357  10.610
43389W        W15715  27.008  22.912  12.358
43390W        W15716  26.429  25.539   5.212
43391W        W15717  40.863  22.112   3.877
43392W        W15718  39.965  11.797  14.045
43393W        W15719   5.987  18.721   1.205
43394W        W15720  31.886  11.370  11.861
43395W        W15721  42.327  26.351  11.366
43396W        W15722   8.596  27.920   3.302
43397W        W15723  19.767  44.486  11.965
43398W        W15724   9.156  18.986  14.326
43399W        W15725  19.245  25.122  14.360
43400W        W15726  38.218  25.430  14.385
43401W        W15727   6.218  11.350  11.556
43402W        W15728   8.698  36.316   2.701
43403W        W15729  22.685  28.589   0.550
43404W        W15730   4.337  43.953  14.472
43405W        W15731  22.068  24.698  13.465
43406W        W15732   9.416  36.123   1.706
43407W        W15733  29.727   9.158   0.347
43408W        W15734  11.344  38.954  11.341
43409W        W15735  30.501  33.040  12.906
43410W        W15736  40.820  39.841  10.930
43411W        W15737  15.886  36.632   0.923
43412W        W15738  16.372  43.079  14.554
43413W        W15739  10.906   9.578  13.041
43414W        W15740  19.542  33.761   3.585
43415W        W15741  27.337  38.474  11.102
43416W        W15742  13.031  37.197   0.752
43417W        W15743  10.453  10.770   4.966
43418W        W15744   9.866  30.107  10.678
43419W        W15745  29.176  43.862   3.398
43420W        W15746   6.607   2.271  12.560
43421W        W15747  14.233  33.443  14.112
43422W        W15748  32.093  44.524   3.857
43423W        W15749  13.616   4.753  11.897
43424W        W15750  22.009  44.454  12.450
43425W        W15751  37.456   7.152  14.392
43426W        W15752   5.443   9.187  14.495
43427W        W15753  16.001   0.943  14.317
43428W        W15754   1.881   9.329   4.154
43429W        W15755  17.315  37.988   2.117
43430W        W15756  18.816  19.032   3.303
43431W        W15757  41.241  40.557   1.402
43432W        W15758   7.391  33.445   0.789
43433W        W15759  15.082  17.770  13.033
43434W        W15760   2.963  10.761  14.928
43435W        W15761  27.994   4.230   1.774
43436W        W15762  36.912   2.719   2.736
43437W        W15763  44.492  23.053   2.739
43438W        W15764  39.373   4.349  14.939
43439W        W15765  40.897  10.312   2.756
43440W        W15766   8.452  32.460  12.378
43441W        W15767  28.437  23.708   1.434
43442W        W15768  37.986  26.571   0.308
43443W        W15769  38.845  30.946  14.761
43444W        W15770  36.184  24.689  14.485
43445W        W15771  39.818  34.659  11.933
43446W        W15772   2.439   2.035  12.066
43447W        W15773  18.684  22.742   4.233
43448W        W15774  42.029  28.013   3.547
43449W        W15775  35.397  44.958  14.389
43450W        W15776  26.952   7.120   4.219
43451W        W15777  27.699   5.324   0.456
43452W        W15778  37.463  28.716  13.375
43453W        W15779  38.459  29.540   1.417
43454W        W15780  44.359   7.589   4.605
43455W        W15781  38.914  40.815  12.448
43456W        W15782  10.565  15.167  13.332
43457W        W15783  16.784   1.550  11.583
43458W        W15784  41.740  24.988  14.470
43459W        W15785  22.732  12.589   4.038
43460W        W15786  26.823  11.709   2.810
43461W        W15787  16.208  39.891  10.912
43462W        W15788   9.202  18.231   1.924
43463W        W15789   0.510  44.386   4.975
43464W        W15790  15.279   3.706   1.217
43465W        W15791  30.456  23.315   1.353
43466W        W15792  20.775  39.799  13.776
43467W        W15793  40.736  21.237   2.807
43468W        W15794  38.051  17.808   4.233
43469W        W15795   6.825  35.660   1.108
43470W        W15796  39.594  37.318  13.786
43471W        W15797  39.899  40.308   0.224
43472W        W15798   5.359  14.063   1.910
43473W        W15799   1.584  22.796   0.373
43474W        W15800  28.339  21.267   0.409
43475W        W15801  11.653  13.937   1.416
43476W        W15802  21.491   3.747  14.327
43477W        W15803  11.517  10.081  12.311
43478W        W15804  14.156  27.423   2.739
43479W        W15805  25.606   2.010  14.735
43480W        W15806   2.355  30.542   4.682
43481W        W15807  21.610  24.467  14.561
43482W        W15808  28.211  37.365  13.822
43483W        W15809   6.347  22.999   2.699
43484W        W15810  31.082  10.358   3.900
43485W        W15811  27.909  31.975   3.751
43486W        W15812  22.169  10.807   2.689
43487W        W15813  21.375  36.442  11.649
43488W        W15814  13.259   4.808  13.334
43489W        W15815  31.688   0.332  14.452
43490W        W15816  11.380  34.076  12.954
43491W        W15817   7.078   1.411   1.235
43492W        W15818  44.444  11.857  10.548
43493W        W15819  21.474  13.136  13.107
43494W        W15820  13.133  32.579  12.087
43495W        W15821  27.226  35.407  10.348
43496W        W15822  33.988  25.105   4.497
43497W        W15823  11.597   7.636  14.817
43498W        W15824   7.502  30.065  11.347
43499W        W15825   4.218  29.385  14.222
43500W        W15826  19.675   7.208   0.432
43501W        W15827  35.973  33.550   2.393
43502W        W15828   9.260  24.419   1.265
43503W        W15829  14.376  36.086   4.209
43504W        W15830  16.767   5.044   1.264
43505W        W15831  17.809  33.055   3.810
43506W        W15832  29.450  33.822  14.449
43507W        W15833  14.606  17.701  13.906
43508W        W15834  31.013  30.159   3.018
43509W        W15835  44.308   3.479  14.414
43510W        W15836   1.901  25.136  13.344
43511W        W15837  26.203  20.173  14.049
43512W        W15838  27.875  44.380  12.623
43513W        W15839   4.497   5.494  13.865
43514W        W15840   1.517   0.258   1.813
43515W        W15841  16.614  25.482   4.545
43516W        W15842  36.189  38.758  11.029
43517W        W15843  28.666  18.085   0.365
43518W        W15844   3.726  34.880  14.353
43519W        W15845   2.757  22.208   2.767
43520W        W15846  37.745  31.374  10.476
43521W        W15847   7.694  24.784   0.905
43522W        W15848  12.622  21.953   1.010
43523W        W15849  19.701  14.122  11.577
43524W        W15850  23.322  19.188  11.980
43525W        W15851  40.361  17.741  12.076
43526W        W15852  36.965  13.990   5.011
43527W        W15853  23.289  38.460  14.023
43528W        W15854  33.970  24.811   1.843
43529W        W15855  23.273   0.871  13.384
43530W        W15856  11.618  22.558  11.639
43531W        W15857   2.071  38.761  13.935
43532W        W15858  30.892  21.766  11.004
43533W        W15859  37.005   5.665  12.694
43534W        W15860  35.041   0.044   1.726
43535W        W15861  17.529  36.908  12.075
43536W        W15862  37.613   6.666  14.423
43537W        W15863  33.656  43.029  12.312
43538W        W15864  40.931  34.877  12.115
43539W        W15865  17.491  40.588   4.314
43540W        W15866   2.342   4.836   3.355
43541W        W15867  13.760  13.650  11.593
43542W        W15868   0.959  33.016   3.800
43543W        W15869  33.766  30.957   2.733
43544W        W15870  13.081  22.101  13.551
43545W        W15871   5.833  43.921  12.481
43546W        W15872  17.746  12.673   2.775
43547W        W15873   3.229  33.705  14.208
43548W        W15874  16.010  26.542  14.108
43549W        W15875  29.414   8.251  10.743
43550W        W15876  17.385  14.663  13.426
43551W        W15877  37.816   2.163  11.413
43552W        W15878  43.097  25.129   4.326
43553W        W15879  40.929  42.964   1.594
43554W        W15880   2.852   7.187  12.902
43555W        W15881  15.381  23.157   2.873
43556W        W15882  36.428  38.399  14.646
43557W        W15883   0.061  36.002  14.228
43558W        W15884  16.772   8.321   1.832
43559W        W15885  36.147  40.039  12.811
43560W        W15886  35.598   3.469   4.192
43561W        W15887  31.147  29.330   4.617
43562W        W15888  43.999  31.556   2.744
43563W        W15889  10.111  13.697   0.276
43564W        W15890  37.071  39.149   0.385
43565W        W15891  16.123  28.610   3.685
43566W        W15892  32.123   3.731   0.069
43567W        W15893   1.714  30.219   3.252
43568W        W15894   2.188  43.604   2.759
43569W        W15895  33.601  31.260  14.873
43570W        W15896  31.814   2.347   3.286
43571W        W15897   1.652  16.821  10.740
43572W        W15898  27.539  10.367  14.898
43573W        W15899  41.327  13.196   3.129
43574W        W15900   7.933   0.011   3.710
43575W        W15901   6.614   8.860  11.558
43576W        W15902  35.037   1.164  13.866
43577W        W15903  34.939   5.312   1.407
43578W        W15904   4.385  13.578   1.764
43579W        W15905   2.961  19.346  11.624
43580W        W15906  32.095  32.729  13.692
43581W        W15907  30.402  43.906   0.768
43582W        W15908  16.586   3.711  12.549
43583W        W15909  35.601  15.082  12.318
43584W        W15910  20.210   9.780   0.854
43585W        W15911   7.271  31.588   3.085
43586W        W15912  41.019  27.476  13.443
43587W        W15913  41.915  36.535  13.004
43588W        W15914  22.068  19.628   0.064
43589W        W15915   7.666  29.953   0.455
43590W        W15916  32.719  20.403  11.224
43591W        W15917   1.481  12.368  12.667
43592W        W15918   8.283   7.400  14.724
43593W        W15919  12.328  39.465  11.693
43594W        W15920  42.504  34.376   3.374
43595W        W15921  12.202  11.127  14.396
43596W        W15922   8.939  21.138   1.335
43597W        W15923  19.945  40.374   3.501
43598W        W15924   9.348  32.190  14.396
43599W        W15925  23.444  38.900   3.818
43600W        W15926   9.781  31.996  11.450
43601W        W15927   4.903  14.346  11.198
43602W        W15928  42.444  37.071  11.667
43603W        W15929  30.581  34.340   3.261
43604W        W15930  33.742  11.694  14.858
43605W        W15931   1.739  18.774   0.022
43606W        W15932  38.399  24.239   2.947
43607W        W15933  34.002  38.291   4.584
43608W        W15934  18.159   8.356  13.450
43609W        W15935  37.622   7.472  11.618
43610W        W15936  25.184  37.925   1.595
43611W        W15937  32.092  34.839  12.951
43612W        W15938  37.783  44.901   2.313
43613W        W15939  38.112  18.117   4.639
43614W        W15940  13.911   1.707  11.201
43615W        W15941   6.429  33.984  14.799
43616W        W15942   6.828   5.668   3.675
43617W        W15943  22.068   9.594  12.066
43618W        W15944  24.074  18.049   3.438
43619W        W15945  16.214  20.669  14.254
43620W        W15946  10.200   2.978   1.384
43621W        W15947  33.964  43.037  11.904
43622W        W15948  28.612   7.310  11.099
43623W        W15949  32.710  21.262   3.576
43624W        W15950  30.089  36.902  13.600
43625W        W15951   1.762  14.391   4.522
43626W        W15952  44.461  31.870  10.237
43627W        W15953  17.364  23.684   1.437
43628W        W15954   5.763  17.729   1.051
43629W        W15955   5.734  22.660   1.630
43630W        W15956  12.751  31.116  11.013
43631W        W15957  28.517  42.908   3.634
43632W        W15958  19.574  13.633  13.008
43633W        W15959   7.803  16.081  11.025
43634W        W15960  36.374  12.380   0.206
43635W        W15961  34.595   3.645   2.685
43636W        W15962   2.759  23.433  13.423
43637W        W15963  25.573  35.309  10.523
43638W        W15964  38.789  39.337   0.444
43639W        W15965  33.895  28.927   4.199
43640W        W15966   8.945  35.599  12.954
43641W        W15967   0.639  30.857   0.735
43642W        W15968  15.731  19.812   2.301
43643W        W15969  19.161  38.787   4.111
43644W        W15970  27.732  29.773  11.781
43645W        W15971   2.193  40.026   2.512
43646W        W15972  14.847  16.314   1.441
43647W        W15973  36.583   1.723   1.369
43648W        W15974  39.309   1.013   4.432
43649W        W15975  11.166  10.126  14.234
43650W        W15976  23.693  41.724  14.927
43651W        W15977  14.388  32.426  11.363
43652W        W15978  42.198  31.458  12.931
43653W        W15979  10.802  18.319   1.301
43654W        W15980  32.057  44.408  11.945
43655W        W15981   1.256   6.178  10.751
43656W        W15982  22.581  42.733   2.787
43657W        W15983  11.623  16.767  12.080
43658W        W15984  28.470  26.113   2.650
43659W        W15985  32.950  30.433  12.489
43660W        W15986   9.370  20.747   4.741
43661W        W15987  30.084  22.090  14.530
43662W        W15988   3.927  42.871  12.863
43663W        W15989  28.885   8.222  10.766
43664W        W15990  10.603  18.844  12.485
43665W        W15991   9.348  42.513   1.168
43666W        W15992  40.582  10.180   0.940
43667W        W15993  42.256   2.278   0.372
43668W        W15994   4.812   6.362   4.158
43669W        W15995   8.974   8.013   1.387
43670W        W15996  10.062  14.158   3.559
43671W        W15997  34.057  32.386  14.704
43672W        W15998  36.530  29.552  13.088
43673W        W15999  36.635  16.309  11.964
43674W        W16000  30.832   8.252  12.999
43675W        W16001   5.913  43.277  14.614
43676W        W16002   4.126  36.982  13.397
43677W        W16003  38.486   0.834   0.891
43678W        W16004  42.892  42.980  11.379
43679W        W16005  44.403  42.797  10.798
43680W        W16006   9.367  36.479   3.287
43681W        W16007  18.328  36.678  10.704
43682W        W16008  22.030  41.956   4.032
43683W        W16009  21.674  29.958  11.546
43684W        W16010  23.070  28.018  10.605
43685W        W16011  23.977   6.633   1.418
43686W        W16012   9.625  22.546  10.671
43687W        W16013   6.765   0.943  13.756
43688W        W16014  42.989  17.087   1.431
43689W        W16015   4.917   2.117   5.142
43690W        W16016  28.393  44.469  14.505
43691W        W16017   0.229  21.592   1.964
43692W        W16018  32.812  39.265  14.093
43693W        W16019   5.332  18.806  12.482
43694W        W16020  17.572  10.745   2.828
43695W        W16021   9.921  14.407  14.298
43696W        W16022  19.766  39.205  10.713
43697W        W16023  25.600  23.953  11.153
43698W        W16024  42.576   8.461  10.314
43699W        W16025  21.054  14.585  13.440
43700W        W16026   0.240  40.335  12.876
43701W        W16027  27.040  39.155   2.840
43702W        W16028  15.581  29.077  14.768
43703W        W16029  20.270   8.640   1.380
43704W        W16030  11.770  21.631   0.235
43705W        W16031  32.934  38.976  12.406
43706W        W16032  34.871  41.452  12.733
43707W        W16033  39.066  41.885  13.127
43708W        W16034  24.136   3.189  13.960
43709W        W16035   3.128  19.013   4.220
43710W        W16036  13.895   0.464  14.805
43711W        W16037   8.888  26.675   3.939
43712W        W16038  26.170  40.992  11.563
43713W        W16039  22.441  24.726  13.849
43714W        W16040  44.668   6.849  12.142
43715W        W16041  32.898  18.500  14.172
43716W        W16042  44.911  19.266   0.196
43717W        W16043  44.367  31.388  14.248
43718W        W16044  37.099  37.144  12.583
43719W        W16045  24.275  14.153  11.805
43720W        W16046  24.200  25.647   0.895
43721W        W16047  12.899  40.826  14.253
43722W        W16048  17.162  37.879   2.612
43723W        W16049  17.019   1.640   2.242
43724W        W16050  36.329  21.093  11.134
43725W        W16051  38.780  41.512   3.673
43726W        W16052   3.927   6.293   0.686
43727W        W16053  29.819  36.868   0.342
43728W        W16054   6.804  41.226   2.489
43729W        W16055  41.012  39.935   1.766
43730W        W16056   6.298  24.271  11.145
43731W        W16057   0.706  38.357  13.363
43732W        W16058   5.264  20.812   0.166
43733W        W16059  34.504  14.353  10.729
43734W        W16060   5.839  36.662   3.785
43735W        W16061  24.209  27.181  12.926
43736W        W16062   0.839   4.344  13.548
43737W        W16063  30.558   4.465   1.078
43738W        W16064  28.288  30.901  12.593
43739W        W16065  14.560   9.558  14.213
43740W        W16066   3.319  40.359   3.627
43741W        W16067  36.944  22.965  11.192
43742W        W16068  11.702   6.373   2.234
43743W        W16069   3.096  39.283  13.226
43744W        W16070  37.885  10.371  11.534
43745W        W16071  41.127   2.753  12.822
43746W        W16072  34.627   4.136  13.576
43747W        W16073  38.009   9.198  13.790
43748W        W16074   7.132  38.496   1.289
43749W        W16075  23.857  32.920   2.782
43750W        W16076   0.360  44.802  12.543
43751W        W16077  28.839   4.919  12.579
43752W        W16078   3.100   0.443   1.676
43753W        W16079  15.624  16.617  11.674
43754W        W16080  12.812  22.029  11.574
43755W        W16081  14.484  40.841  14.551
43756W        W16082   8.777  23.047   1.365
43757W        W16083   2.397  25.414  14.678
43758W        W16084  41.119  34.092  11.613
43759W        W16085  37.634  27.559  12.413
43760W        W16086  32.063  42.834  13.879
43761W        W16087  44.787  29.977  14.314
43762W        W16088  44.489  17.852   1.846
43763W        W16089  28.733  23.557   2.835
43764W        W16090  29.982   9.357   4.210
43765W        W16091  40.280  20.329  13.595
43766W        W16092  39.860  31.975  14.292
43767W        W16093  37.377  37.302   0.244
43768W        W16094   5.209  20.798  12.059
43769W        W16095  42.190  20.125  11.367
43770W        W16096  33.171  17.746   4.012
43771W        W16097  33.459  36.564  13.341
43772W        W16098   2.702   1.193   3.664
43773W        W16099  36.469  38.083   1.404
43774W        W16100  21.080  43.291  10.174
43775W        W16101  43.538   6.685  10.453
43776W        W16102  17.663  39.295  10.302
43777W        W16103  32.346  41.861   3.314
43778W        W16104  41.430  17.228  12.559
43779W        W16105   3.999  29.081   1.467
43780W        W16106   5.165   3.198   0.294
43781W        W16107   1.842  13.443  11.230
43782W        W16108  16.722  41.362   3.215
43783W        W16109  18.293   9.149   2.883
43784W        W16110  39.806  23.525  13.301
43785W        W16111  15.236   2.705   0.264
43786W        W16112  40.374   6.878  13.670
43787W        W16113  12.812  17.135  10.768
43788W        W16114   8.570  29.139  11.634
43789W        W16115   8.824  38.308  11.986
43790W        W16116  22.508  12.356  11.458
43791W        W16117  33.860   1.677  12.958
43792W        W16118   7.630   4.611  11.009
43793W        W16119  18.558  12.901   4.493
43794W        W16120  25.212  29.888  14.919
43795W        W16121  37.830  33.503   1.030
43796W        W16122  43.539  36.090   4.922
43797W        W16123  21.932  11.271   3.846
43798W        W16124   0.605  27.935   1.900
43799W        W16125  26.470  44.628   4.985
43800W        W16126  18.669   1.285   2.855
43801W        W16127   2.696  34.374   0.003
43802W        W16128  27.310  19.110  13.680
43803W        W16129   7.133   8.792  11.439
43804W        W16130  15.787  19.964   0.434
43805W        W16131  20.734  17.286  10.823
43806W        W16132   0.291   0.898  13.317
43807W        W16133  31.474  44.206   4.532
43808W        W16134  30.405  29.857  13.505
43809W        W16135  14.175  35.891  14.886
43810W        W16136  17.747  26.793   1.993
43811W        W16137  39.780   5.542  10.951
43812W        W16138   9.404  21.600   3.780
43813W        W16139  11.554   6.464  12.311
43814W        W16140  21.957  28.861   1.921
43815W        W16141  28.439  32.853  12.084
43816W        W16142   3.725  16.049  13.913
43817W        W16143  27.913  36.973   3.432
43818W        W16144  40.105   3.309   2.339
43819W        W16145  35.947  37.040   4.088
43820W        W16146  40.498  17.812   1.055
43821W        W16147   2.877   3.243  14.598
43822W        W16148  30.155  23.244  11.269
43823W        W16149  36.049   5.736  13.077
43824W        W16150  14.426  10.404  11.204
43825W        W16151  30.811  23.447   0.938
43826W        W16152  19.624  42.558   2.812
43827W        W16153  10.485  37.394  11.113
43828W        W16154  15.094  35.254   5.258
43829W        W16155  43.773  11.793   4.338
43830W        W16156  13.874   4.322  12.786
43831W        W16157  23.101  18.549  13.637
43832W        W16158   8.298  38.857  12.948
43833W        W16159  27.815   9.446  12.556
43834W        W16160  25.751  26.473   5.436
43835W        W16161  30.875  35.321   3.746
43836W        W16162  31.125   0.413   1.306
43837W        W16163   9.495  34.655   0.934
43838W        W16164  10.836  44.366  12.137
43839W        W16165  38.413   1.780  11.872
43840W        W16166  20.729  11.918   3.648
43841W        W16167  26.052   1.685   2.679
43842W        W16168  23.645  31.459  12.552
43843W        W16169  36.463  21.273  13.394
43844W        W16170  44.834  30.136  10.633
43845W        W16171  17.893   0.757   0.334
43846W        W16172  38.499  22.589  11.180
43847W        W16173  44.751  25.196  12.480
43848W        W16174  23.331  32.250   1.423
43849W        W16175  10.867  44.315   4.903
43850W        W16176  34.025  19.127  13.104
43851W        W16177  30.509  19.714   0.631
43852W        W16178   2.941  28.125  13.973
43853W        W16179  24.083  35.037  11.378
43854W        W16180   8.005   1.355   1.430
43855W        W16181   7.832  37.999   4.577
43856W        W16182  17.475  21.182   0.593
43857W        W16183  30.174   0.974   2.262
43858W        W16184  31.009  31.958  12.478
43859W        W16185  35.125   6.474  11.549
43860W        W16186  26.327  10.726   0.722
43861W        W16187  42.409  20.952   2.208
43862W        W16188  14.691   6.013  14.364
43863W        W16189  26.382  10.886  14.448
43864W        W16190  22.819  27.246  10.083
43865W        W16191  29.045  23.113  10.699
43866W        W16192  29.929  42.849  14.823
43867W        W16193  16.122  15.267   0.434
43868W        W16194  33.889  43.957   3.181
43869W        W16195  31.016   3.646  11.104
43870W        W16196  33.380   4.255   3.717
43871W        W16197  31.272  25.489   2.234
43872W        W16198  18.211  30.418  11.956
43873W        W16199  14.979  35.807   2.413
43874W        W16200  28.747  25.506   1.693
43875W        W16201  43.905   5.695   0.321
43876W        W16202  16.558  35.956  11.615
43877W        W16203  22.300  13.649  14.442
43878W        W16204  44.633   2.378  12.014
43879W        W16205  44.251   0.398   2.220
43880W        W16206   1.421  25.135  13.546
43881W        W16207   9.889  43.565  13.844
43882W        W16208  20.319  31.854   3.613
43883W        W16209  32.010  17.767   2.420
43884W        W16210  32.923  35.094   5.720
43885W        W16211  27.199  33.646   4.145
43886W        W16212  10.051   0.673  12.117
43887W        W16213  38.400  38.307   4.230
43888W        W16214  38.426  25.770   3.674
43889W        W16215  28.137  41.907  14.481
43890W        W16216  40.840  41.036  14.938
43891W        W16217  20.133  25.501  14.792
43892W        W16218  25.015   3.965  11.164
43893W        W16219  37.689   7.638   3.899
43894W        W16220  10.416  17.323   4.584
43895W        W16221  13.092  12.739  14.770
43896W        W16222  23.266   8.849  11.957
43897W        W16223  39.235   0.833   3.443
43898W        W16224  39.899  36.869  11.631
43899W        W16225  34.780  19.006  11.103
43900W        W16226   1.942  44.245  10.759
43901W        W16227  40.092  37.906  14.484
43902W        W16228  38.955  34.792  14.081
43903W        W16229  35.096  10.197   3.662
43904W        W16230  16.198  27.982  13.145
43905W        W16231  31.676  10.813   1.402
43906W        W16232  30.959   9.479   2.710
43907W        W16233   3.679  33.137  13.863
43908W        W16234   9.927  14.330  10.542
43909W        W16235  18.586  25.468   0.462
43910W        W16236  31.425  11.263   1.493
43911W        W16237  27.042  41.537   3.365
43912W        W16238  12.904   8.078  13.617
43913W        W16239  43.307  11.125   0.365
43914W        W16240  11.318   7.183   0.686
43915W        W16241  34.349  42.300  12.997
43916W        W16242   4.521  13.157   4.160
43917W        W16243  30.903  37.013  11.559
43918W        W16244  23.193   2.516  12.869
43919W        W16245  12.001   3.758   1.263
43920W        W16246  11.829  10.119   1.240
43921W        W16247  36.450  33.710   2.370
43922W        W16248  21.027  23.065  10.573
43923W        W16249   0.898   8.228  13.389
43924W        W16250  17.644   0.848   0.781
43925W        W16251   4.360  11.338  13.912
43926W        W16252  17.279  11.279   3.516
43927W        W16253  32.881  10.616  12.380
43928W        W16254   7.161  44.862   3.254
43929W        W16255  29.281  25.188   5.038
43930W        W16256  12.106   3.992  13.094
43931W        W16257   2.234  39.790  10.730
43932W        W16258  37.326   0.206  11.784
43933W        W16259   0.009   0.077  14.505
43934W        W16260  10.641   0.799  10.167
43935W        W16261  34.178  22.170   2.827
43936W        W16262  44.550   0.360  10.964
43937W        W16263   1.137  38.074  11.110
43938W        W16264   2.489  10.643  11.113
43939W        W16265  41.797  35.017   0.988
43940W        W16266   1.811  24.581  10.567
43941W        W16267  38.375   3.753   0.490
43942W        W16268   0.137  37.319   2.381
43943W        W16269  18.212  18.303   4.186
43944W        W16270   4.348  20.258  10.717
43945W        W16271  32.886  42.060   0.289
43946W        W16272   1.002  30.459  11.463
43947W        W16273  20.347  10.666  11.693
43948W        W16274  15.676  19.476   0.548
43949W        W16275  30.116   9.092   4.646
43950W        W16276  22.003  43.898   4.557
43951W        W16277  21.133  41.564  13.877
43952W        W16278  44.847  23.248  13.838
43953W        W16279  25.621  42.061  12.497
43954W        W16280  24.958  15.076  12.532
43955W        W16281  18.679  39.434   3.111
43956W        W16282  43.771  34.443  13.118
43957W        W16283  36.908   6.915  13.083
43958W        W16284   9.305  44.126  12.947
43959W        W16285  42.526  37.752  12.945
43960W        W16286   9.978  24.065  12.838
43961W        W16287  12.915   7.282   4.831
43962W        W16288   7.810  16.527  12.365
43963W        W16289  39.194  28.374  12.928
43964W        W16290  18.787  25.626   4.590
43965W        W16291  17.318  33.583   1.721
43966W        W16292  42.394  36.809   0.749
43967W        W16293  41.935  19.532  14.101
43968W        W16294   6.932   1.328   3.151
43969W        W16295  10.224  24.443  14.581
43970W        W16296  15.198  34.635  13.975
43971W        W16297  37.988  14.115  12.607
43972W        W16298  29.169  24.507  13.449
43973W        W16299  32.297   3.861  11.657
43974W        W16300   1.349  35.346   2.128
43975W        W16301  43.141  32.311  10.130
43976W        W16302  22.891  26.395   2.707
43977W        W16303  44.775  35.957   5.022
43978W        W16304  13.733   8.974  14.364
43979W        W16305  25.722  27.029   4.186
43980W        W16306   4.733  30.280   9.906
43981W        W16307   6.315  32.891  10.354
43982W        W16308   7.601  16.838  10.685
43983W        W16309   8.842  12.847  10.186
43984W        W16310   2.812  43.381   4.565
43985W        W16311  44.541  31.701   2.079
43986W        W16312   1.250  22.293   1.429
43987W        W16313  42.557  22.468   1.751
43988W        W16314  25.459  31.501  11.223
43989W        W16315  28.022  33.317   2.697
43990W        W16316  23.964   8.899  10.738
43991W        W16317  34.631  13.204   2.879
43992W        W16318  26.972   6.374   2.273
43993W        W16319  26.403  29.970   1.285
43994W        W16320  33.652  23.088  14.459
43995W        W16321  17.219  28.825   3.133
43996W        W16322  30.066  22.974   2.397
43997W        W16323  15.043  15.095   2.288
43998W        W16324  22.938  18.011   1.894
43999W        W16325  21.670  32.132   3.621
44000W        W16326  41.520   4.230   4.399
44001W        W16327  19.271  42.468   1.790
44002W        W16328  30.072  21.715  13.261
44003W        W16329  13.346  31.770  11.551
44004W        W16330  18.928  26.623  12.597
44005W        W16331  38.310  31.924   4.330
44006W        W16332   5.190  20.820  13.343
44007W        W16333   2.356  12.328   4.796
44008W        W16334  37.485  21.967   1.267
44009W        W16335  39.814   5.135   1.914
44010W        W16336  27.396  13.725  13.272
44011W        W16337   5.856  35.666   3.591
44012W        W16338   6.094  15.555  11.568
44013W        W16339  23.669   5.332   0.188
44014W        W16340  28.080  38.488   1.892
44015W        W16341  44.079  15.349   2.680
44016W        W16342   9.690  32.656   3.359
44017W        W16343  18.272  28.367  12.461
44018W        W16344   3.950  39.509   2.849
44019W        W16345  20.009   1.567  12.818
44020W        W16346  20.306   6.338  14.881
44021W        W16347   1.998  24.492  14.193
44022W        W16348  43.388  38.438  12.870
44023W        W16349   8.040  33.139  11.299
44024W        W16350  28.930  41.361  13.406
44025W        W16351  10.660  30.627   1.496
44026W        W16352  35.995  27.506   3.824
44027W        W16353  14.611  37.168  11.091
44028W        W16354   4.531   7.385   5.000
44029W        W16355   2.930   1.741   2.828
44030W        W16356  25.581  13.961  12.411
44031W        W16357   0.310  40.029  14.084
44032W        W16358   1.626  26.997   2.623
44033W        W16359  13.870  33.819   4.591
44034W        W16360  24.263   4.956  10.504
44035W        W16361   4.964  18.255  12.434
44036W        W16362  29.163  14.283   4.115
44037W        W16363   8.722  30.347   1.116
44038W        W16364  19.154   7.906  13.430
44039W        W16365   3.836  36.174   1.788
44040W        W16366  35.882  42.854   4.655
44041W        W16367  11.627  11.059  12.394
44042W        W16368  36.709  30.417  13.797
44043W        W16369  20.661  40.043   4.615
44044W        W16370  13.840  25.275   1.282
44045W        W16371  27.915  26.706   0.532
44046W        W16372  34.400  24.525  14.782
44047W        W16373  31.077  14.126  10.888
44048W        W16374  29.384   3.510   1.824
44049W        W16375   5.397  40.961   4.602
44050W        W16376  37.459  17.189   3.642
44051W        W16377  36.559  14.671  11.498
44052W        W16378   0.748  37.440  10.173
44053W        W16379  34.485  27.535  13.049
44054W        W16380  43.039  34.479  13.922
44055W        W16381  13.526  13.530  12.448
44056W        W16382  10.109  40.053   2.719
44057W        W16383  31.376  22.688  11.144
44058W        W16384  28.127   3.092   0.529
44059W        W16385  27.410   8.623   4.245
44060W        W16386  36.675  28.573  11.653
44061W        W16387  12.324  37.466  14.011
44062W        W16388  14.696  26.653   5.552
44063W        W16389  31.619  22.957   0.490
44064W        W16390  28.643  39.818  13.912
44065W        W16391  39.776  25.972   4.580
44066W        W16392  20.288   0.651  13.527
44067W        W16393  42.386   6.333   3.394
44068W        W16394  18.593  24.971  14.988
44069W        W16395  38.105  14.164   0.818
44070W        W16396  33.889  35.909  10.356
44071W        W16397  10.784  17.419   0.921
44072W        W16398  24.092  29.972  13.371
44073W        W16399   7.823  33.395   4.987
44074W        W16400  30.230  22.080   0.017
44075W        W16401  38.072  44.482  10.542
44076W        W16402   0.921  23.791   3.278
44077W        W16403   6.856  11.573   2.336
44078W        W16404  26.625   3.292   4.077
44079W        W16405  26.731  44.462  13.862
44080W        W16406  36.881  38.165  13.231
44081W        W16407   0.837  43.135  14.952
44082W        W16408   2.933  26.162   0.650
44083W        W16409  27.473  26.524   4.509
44084W        W16410  36.582   1.845  13.551
44085W        W16411  32.080  24.768  14.520
44086W        W16412  14.704   5.981   0.213
44087W        W16413  34.526   0.796   4.998
44088W        W16414  33.318   0.539  13.031
44089W        W16415  28.559  21.189  11.423
44090W        W16416  30.432  30.488   1.855
44091W        W16417  30.471  37.368  13.432
44092W        W16418  20.788  32.338  11.174
44093W        W16419   9.826  39.822  13.387
44094W        W16420  20.816  44.285  13.511
44095W        W16421  36.485  10.017  11.936
44096W        W16422  19.087  16.271  11.747
44097W        W16423  42.456   7.745  13.035
44098W        W16424  30.052   6.470   2.706
44099W        W16425  40.653  40.570  14.309
44100W        W16426   4.756  11.028  14.010
44101W        W16427   7.704  41.274   0.859
44102W        W16428  13.339  27.829  10.717
44103W        W16429  15.503  27.416   2.220
44104W        W16430  25.455  14.863  14.949
44105W        W16431  28.166  34.870   1.427
44106W        W16432  26.109   4.942   2.201
44107W        W16433   3.271  22.060   3.837
44108W        W16434  35.642  24.586  12.861
44109W        W16435   0.505  14.101  12.868
44110W        W16436   1.995   5.186  12.488
44111W        W16437  37.925  36.092  11.050
44112W        W16438   1.821  11.647   2.935
44113W        W16439  23.144  25.889  12.503
44114W        W16440  16.503  18.226  14.468
44115W        W16441   5.073  21.428  12.544
44116W        W16442   9.193   6.737  11.021
44117W        W16443  30.250  18.419  12.560
44118W        W16444  31.016   3.899   1.816
44119W        W16445  36.194  35.450  14.479
44120W        W16446  29.708  33.041  12.486
44121W        W16447   4.266  36.289  14.519
44122W        W16448  41.917   8.962   2.073
44123W        W16449  11.434  12.142   1.035
44124W        W16450  32.026  16.741   3.164
44125W        W16451  16.912   7.167   1.563
44126W        W16452   6.447  15.158   1.469
44127W        W16453  44.737  39.002  12.130
44128W        W16454  22.840   8.738   0.641
44129W        W16455  30.058  44.007  13.460
44130W        W16456  35.334  12.016   1.908
44131W        W16457   1.729  16.962   4.151
44132W        W16458  35.180  29.114   4.343
44133W        W16459  13.611  19.696  11.539
44134W        W16460  29.493  15.391   0.012
44135W        W16461  40.305   8.343   0.786
44136W        W16462  21.599  25.438   1.436
44137W        W16463  39.482  34.304  13.362
44138W        W16464  16.582  43.359   0.698
44139W        W16465  42.608  10.210   0.238
44140W        W16466   6.309  20.127   3.534
44141W        W16467  20.907  39.440   0.760
44142W        W16468  24.215  28.079  14.283
44143W        W16469  20.133   2.216  14.320
44144W        W16470  44.454  19.667  13.046
44145W        W16471  15.408   4.748   3.691
44146W        W16472  15.841   1.950  11.108
44147W        W16473  25.794   2.989  10.459
44148W        W16474  30.223  42.067  14.218
44149W        W16475  28.969  38.405  14.824
44150W        W16476  17.923  11.458  12.914
44151W        W16477  16.538   4.274   1.788
44152W        W16478  15.158   0.180   4.128
44153W        W16479   4.134  32.626  11.277
44154W        W16480   3.868  34.994   0.728
44155W        W16481  23.947  33.898  11.433
44156W        W16482  30.587  36.794  11.192
44157W        W16483  17.802  35.858   4.880
44158W        W16484  32.832   5.375   2.736
44159W        W16485  30.097  15.002  10.591
44160W        W16486   4.345  30.609  11.559
44161W        W16487  38.553  14.100  10.503
44162W        W16488  11.213  43.572  12.159
44163W        W16489  27.687  30.914  13.108
44164W        W16490  25.557  10.913   3.842
44165W        W16491  13.732  33.018  11.899
44166W        W16492  26.761   9.339  13.425
44167W        W16493   6.819  21.545   0.003
44168W        W16494  42.463   4.998   0.301
44169W        W16495   4.477   4.962   3.691
44170W        W16496  15.526  38.323   4.315
44171W        W16497  30.489  30.358  13.421
44172W        W16498   2.285  17.130  12.169
44173W        W16499  34.434  17.725   0.344
44174W        W16500  28.474   2.237  12.969
44175W        W16501   4.868  12.813   0.257
44176W        W16502  25.540  31.452   3.435
44177W        W16503  42.812  19.765   1.399
44178W        W16504   5.454  35.458  14.008
44179W        W16505  32.115  36.072   0.221
44180W        W16506   1.461  44.759   4.775
44181W        W16507  15.248  41.924   3.080
44182W        W16508  20.665   1.640   1.800
44183W        W16509  11.808  42.105  11.162
44184W        W16510  24.673   9.695  11.590
44185W        W16511  28.018   8.903  14.620
44186W        W16512   1.504   9.792  10.087
44187W        W16513  44.197   9.744  14.941
44188W        W16514  28.053  34.374   1.274
44189W        W16515  31.327  34.050  12.561
44190W        W16516   1.858  28.554  11.283
44191W        W16517  13.885  28.447  13.368
44192W        W16518   8.712  13.262   3.346
44193W        W16519  36.251  14.278   0.442
44194W        W16520  11.277  29.897   3.259
44195W        W16521  12.443  21.407  11.074
44196W        W16522  11.726  43.729  13.411
44197W        W16523  41.875  44.313  14.461
44198W        W16524   7.962  43.319   2.249
44199W        W16525  17.066  41.565  12.841
44200W        W16526  40.043  34.536   3.530
44201W        W16527  10.227  28.436  12.410
44202W        W16528  13.172  18.705   3.931
44203W        W16529  24.075   8.756   3.865
44204W        W16530   1.235  15.243   3.259
44205W        W16531  23.196   1.194  14.329
44206W        W16532  35.085   7.782  10.952
44207W        W16533  12.645   9.784  13.018
44208W        W16534  17.305  19.078  14.533
44209W        W16535   5.185  19.747   1.435
44210W        W16536  27.896   9.255  10.582
44211W        W16537   2.354  39.558   3.349
44212W        W16538  31.158  32.813   2.200
44213W        W16539  27.286  41.987  12.859
44214W        W16540   3.325   4.675  11.929
44215W        W16541   2.874  44.382   2.102
44216W        W16542   3.278  42.002   1.863
44217W        W16543  33.498  25.235   4.571
44218W        W16544  17.044   9.654  11.703
44219W        W16545  27.091  40.380   2.395
44220W        W16546  18.802  29.224   4.082
44221W        W16547   7.417  44.389  11.226
44222W        W16548  38.354  19.542  13.347
44223W        W16549  33.496  40.425  13.800
44224W        W16550   6.820  18.194  10.555
44225W        W16551  35.889  31.829   3.271
44226W        W16552   9.346   4.391  12.506
44227W        W16553   1.968  37.960   1.999
44228W        W16554  40.467  43.255  13.110
44229W        W16555  18.927   1.727  14.340
44230W        W16556   7.278   8.133   4.908
44231W        W16557  17.752  35.445   4.556
44232W        W16558  28.191  13.064   2.016
44233W        W16559  18.177  16.804   1.573
44234W        W16560  13.763  44.593  12.199
44235W        W16561  15.095   7.181  12.040
44236W        W16562  20.760  26.444   1.434
44237W        W16563  40.209  41.289  10.804
44238W        W16564  11.176   9.223   1.784
44239W        W16565  42.438  39.132  12.656
44240W        W16566   7.685  24.619  13.462
44241W        W16567  35.434  40.732   4.148
44242W        W16568  12.888   3.364  13.464
44243W        W16569  30.643   5.302  10.627
44244W        W16570  38.889   4.659  12.109
44245W        W16571  21.657  18.020  14.307
44246W        W16572   6.109  42.052   0.307
44247W        W16573  32.468  21.435   4.098
44248W        W16574  43.325  15.223   4.559
44249W        W16575  17.061  10.840   3.711
44250W        W16576   0.952  21.970  13.058
44251W        W16577  31.653  19.274   2.368
44252W        W16578  24.223  12.412   3.204
44253W        W16579  29.003  21.205   1.275
44254W        W16580  15.414  18.203  13.001
44255W        W16581   7.981   4.546   9.744
44256W        W16582  38.635  14.747  12.353
44257W        W16583  21.774  43.249  14.527
44258W        W16584  32.630  34.384  13.541
44259W        W16585  17.592  30.231  13.280
44260W        W16586  32.640  32.244   0.896
44261W        W16587  28.068  36.070  10.375
44262W        W16588  16.155  29.715   2.642
44263W        W16589  19.015  37.636   1.794
44264W        W16590   1.849   1.269  14.139
44265W        W16591  28.010   2.676   1.721
44266W        W16592  32.314  33.693   4.197
44267W        W16593  21.018  17.201  12.614
44268W        W16594   5.172  42.238  11.730
44269W        W16595  14.240   1.394  14.928
44270W        W16596  41.283  31.957  14.788
44271W        W16597  30.530  20.554  13.454
44272W        W16598  16.744  44.199  12.450
44273W        W16599  16.369  44.318   0.009
44274W        W16600  11.407  26.099   3.330
44275W        W16601   8.790  29.176  13.071
44276W        W16602  37.407  37.337   3.677
44277W        W16603   5.421  13.865   4.715
44278W        W16604  34.561   8.988  11.218
44279W        W16605   6.730  38.511   2.329
44280W        W16606   6.693  44.436   0.423
44281W        W16607   8.778  33.078   3.963
44282W        W16608  22.291  27.233   0.703
44283W        W16609   8.359  44.776   3.818
44284W        W16610  18.828  31.669   3.744
44285W        W16611  18.359  24.624  10.962
44286W        W16612  19.127  36.798   3.717
44287W        W16613  43.102  28.195  12.174
44288W        W16614  14.440   4.792   1.213
44289W        W16615   7.151   4.935   3.338
44290W        W16616  14.163  16.128   2.345
44291W        W16617  19.676  22.148   2.744
44292W        W16618  41.517  34.221   4.758
44293W        W16619  42.334  24.076   4.485
44294W        W16620   5.752   9.380   3.264
44295W        W16621  23.729  15.274   3.299
44296W        W16622  38.320  36.661   1.230
44297W        W16623  14.333  25.987   2.742
44298W        W16624  18.527  38.989   0.835
44299W        W16625  21.215   1.823  12.443
44300W        W16626   1.340  30.473  10.965
44301W        W16627  33.108  44.844  14.777
44302W        W16628  39.867  42.323  11.857
44303W        W16629  39.295  21.943  12.098
44304W        W16630  37.378  44.919   1.403
44305W        W16631  35.997   4.516   1.358
44306W        W16632   2.304  35.993   4.998
44307W        W16633   3.496  26.792   2.838
44308W        W16634  15.829   0.500  10.604
44309W        W16635  16.374  41.922   1.204
44310W        W16636  20.088  31.098  14.339
44311W        W16637   3.378  40.643  12.109
44312W        W16638  26.296  27.564  13.779
44313W        W16639  32.011  22.942  12.544
44314W        W16640  36.489   9.217  11.580
44315W        W16641  14.697  29.124  10.199
44316W        W16642  38.383  27.983   0.386
44317W        W16643  11.390  24.440   1.805
44318W        W16644  18.521  22.730   2.764
44319W        W16645  28.693   0.483   4.085
44320W        W16646  31.047   8.828  13.457
44321W        W16647  33.960  31.510   3.859
44322W        W16648  25.215  13.577   4.227
44323W        W16649  20.158  18.958  13.880
44324W        W16650  43.337  12.166   2.732
44325W        W16651   3.291  39.127   3.296
44326W        W16652  29.879  36.781   0.843
44327W        W16653   4.821  22.289  12.369
44328W        W16654   0.376  38.132  12.132
44329W        W16655  31.961  33.851   2.412
44330W        W16656  32.774  34.758  11.029
44331W        W16657  36.442  34.158  12.610
44332W        W16658   1.283  44.807   2.947
44333W        W16659  23.529  32.197  11.180
44334W        W16660  14.199  12.344  10.408
44335W        W16661  43.730   6.425   1.789
44336W        W16662  26.419  18.328   3.829
44337W        W16663  34.825  40.113  12.913
44338W        W16664  17.503   4.170   2.769
44339W        W16665  20.540  14.573  13.376
44340W        W16666  36.825  14.839   0.877
44341W        W16667   4.950  14.319   1.679
44342W        W16668  32.906  11.203   4.754
44343W        W16669  39.841  24.698  13.941
44344W        W16670  20.569   3.151  14.102
44345W        W16671  37.031  41.030   0.709
44346W        W16672  13.585  32.606   4.985
44347W        W16673  33.158  27.513   2.818
44348W        W16674  22.935   7.280  14.331
44349W        W16675  12.386  10.044  10.827
44350W        W16676  13.678   2.175   0.803
44351W        W16677  35.563  40.169  12.092
44352W        W16678  31.497   5.354  12.201
44353W        W16679  31.593  15.101  13.464
44354W        W16680   3.892  11.321  10.923
44355W        W16681  12.310  19.128  13.164
44356W        W16682  18.473  34.019  12.840
44357W        W16683  27.481  31.370   0.811
44358W        W16684  23.680  20.804   0.314
44359W        W16685  24.060  13.661  12.058
44360W        W16686   7.901  26.132   4.347
44361W        W16687  44.416   6.698   1.706
44362W        W16688  18.583  26.048  13.371
44363W        W16689   9.799  39.263  10.471
44364W        W16690  44.418  12.911   3.932
44365W        W16691  13.559  29.457  13.732
44366W        W16692  40.627  21.759   4.210
44367W        W16693   6.862   4.575  10.318
44368W        W16694  40.584  37.593  12.910
44369W        W16695  14.837   3.538  13.899
44370W        W16696  29.373  39.339   1.805
44371W        W16697   3.966  11.062   0.626
44372W        W16698  24.904   8.937  10.567
44373W        W16699   1.163  44.284   2.975
44374W        W16700   9.165  25.151   4.370
44375W        W16701  43.297   0.448   4.567
44376W        W16702   7.728  19.769   1.754
44377W        W16703   1.960  27.072   0.853
44378W        W16704  43.369  38.677  14.272
44379W        W16705   2.387  24.238  13.951
44380W        W16706  30.521  29.351  13.507
44381W        W16707  35.668  13.237   1.406
44382W        W16708  24.037  30.483  12.575
44383W        W16709   5.219   1.070   3.742
44384W        W16710  12.608  35.729  13.381
44385W        W16711  36.836  32.754  13.170
44386W        W16712  37.529   3.746   3.438
44387W        W16713   4.843   1.672  11.615
44388W        W16714   8.665  26.679  14.796
44389W        W16715  34.259   8.116  14.422
44390W        W16716  34.052  43.559   3.714
44391W        W16717  33.078  43.912  12.446
44392W        W16718  43.722  33.012   1.587
44393W        W16719   4.732  39.778   0.269
44394W        W16720  41.859   3.821  14.407
44395W        W16721   2.868  14.858  13.353
44396W        W16722  38.320  34.482   4.079
44397W        W16723  26.266  31.536   2.774
44398W        W16724  35.447  41.240   4.136
44399W        W16725  11.812  28.084  13.156
44400W        W16726   2.442  43.298  10.711
44401W        W16727  43.025  13.755  13.502
44402W        W16728   0.990  24.918   3.501
44403W        W16729  38.534   3.173  10.523
44404W        W16730  43.031  23.703  12.346
44405W        W16731  26.737  24.702   4.907
44406W        W16732  16.594   3.397  11.556
44407W        W16733   2.550  11.554  12.880
44408W        W16734   7.233   6.893   1.955
44409W        W16735   8.224  21.752   4.436
44410W        W16736  26.163  39.576   3.629
44411W        W16737  30.056  38.513  14.762
44412W        W16738  38.122   1.897   0.265
44413W        W16739   9.420  16.688   1.451
44414W        W16740  23.245  16.153   4.193
44415W        W16741  22.660   3.363  12.050
44416W        W16742  37.488  18.544   0.497
44417W        W16743  24.008  34.988  11.877
44418W        W16744  13.697  33.573  11.504
44419W        W16745  27.942  26.241   9.601
44420W        W16746  15.431  13.122  10.718
44421W        W16747  11.264  30.008  13.439
44422W        W16748  43.454   2.109  14.910
44423W        W16749  29.474  43.805  14.102
44424W        W16750  36.801  31.043   4.215
44425W        W16751  25.265   8.893   4.905
44426W        W16752  37.183   8.817  11.645
44427W        W16753  37.739  32.973  10.690
44428W        W16754  34.440  14.142  12.454
44429W        W16755  15.792  28.115  14.500
44430W        W16756   3.974  28.550  12.158
44431W        W16757  37.847  42.660   0.668
44432W        W16758  12.852  27.440   1.090
44433W        W16759  39.841  40.871   2.368
44434W        W16760  43.388   1.051   3.695
44435W        W16761   9.748  37.775  13.574
44436W        W16762  24.998  19.212   4.581
44437W        W16763   4.780  13.456   3.615
44438W        W16764  35.447   0.373   1.666
44439W        W16765  18.282  16.990  12.445
44440W        W16766  39.415  16.130   2.203
44441W        W16767  26.926  42.964  13.034
44442W        W16768  31.825  35.199   0.407
44443W        W16769   7.857  21.083   4.182
44444W        W16770  35.838   1.786  13.956
44445W        W16771  11.697  19.604   2.688
44446W        W16772   7.108  13.107  12.422
44447W        W16773  34.623   1.826   0.782
44448W        W16774  12.621  37.021   1.526
44449W        W16775   6.715  13.129   0.535
44450W        W16776  38.912  12.425  14.425
44451W        W16777  13.531   5.893  10.401
44452W        W16778  21.660   2.817  14.532
44453W        W16779  27.457  21.988   3.025
44454W        W16780  19.703  43.333   3.787
44455W        W16781  24.941  30.161   3.077
44456W        W16782  22.170  40.506  12.286
44457W        W16783   7.440  34.639  12.010
44458W        W16784   8.982  26.650   4.461
44459W        W16785  31.352  44.431  13.523
44460W        W16786  15.774  31.597   0.366
44461W        W16787  15.853  22.754  12.096
44462W        W16788  11.041  12.063   3.314
44463W        W16789  27.575   9.623   2.794
44464W        W16790  17.594   7.726   4.642
44465W        W16791  20.228  35.363   1.452
44466W        W16792  37.065  19.168  13.346
44467W        W16793  25.263  25.062  12.211
44468W        W16794  40.882  24.970   1.434
44469W        W16795  40.911  18.202  12.887
44470W        W16796  39.603  38.084  10.595
44471W        W16797  35.050  14.702  10.643
44472W        W16798  21.104  35.127   1.893
44473W        W16799  26.776  39.182  10.470
44474W        W16800  35.649   5.502   1.981
44475W        W16801  26.175  42.550  14.337
44476W        W16802   6.648   2.719   4.569
44477W        W16803  28.529  31.075  13.825
44478W        W16804  17.460  33.795  14.411
44479W        W16805   4.803   8.253   3.224
44480W        W16806  10.135   1.079   0.374
44481W        W16807  22.385  25.928  12.016
44482W        W16808  17.270  39.089  10.034
44483W        W16809  40.275  35.623   0.823
44484W        W16810  10.935   5.355  14.494
44485W        W16811   5.710  23.363  13.055
44486W        W16812  20.697   9.886   3.427
44487W        W16813  10.906  37.551   2.257
44488W        W16814   8.850  41.870  12.516
44489W        W16815  37.986  35.590  13.766
44490W        W16816   0.549  30.708   1.233
44491W        W16817   5.183  23.922  10.755
44492W        W16818  16.803   5.799  11.218
44493W        W16819  31.632   1.848   3.734
44494W        W16820   7.285  36.695   2.034
44495W        W16821  31.387  12.322  14.516
44496W        W16822   0.959  10.379   4.281
44497W        W16823  33.682  21.169   0.445
44498W        W16824  18.287  42.529  11.174
44499W        W16825  42.978  29.133  14.922
44500W        W16826   8.668  30.006  13.867
44501W        W16827   6.225  28.074   1.364
44502W        W16828   8.251  41.258   1.690
44503W        W16829  31.601   4.165  10.984
44504W        W16830   6.221  39.430   4.321
44505W        W16831   8.960  31.841   0.068
44506W        W16832  13.164   2.955   0.868
44507W        W16833  16.670  33.906   4.322
44508W        W16834  27.785  25.581   2.779
44509W        W16835  30.898  44.549  12.612
44510W        W16836  33.101  37.946   3.798
44511W        W16837  29.489  33.570   4.541
44512W        W16838  39.330  29.570  11.889
44513W        W16839   5.803  33.489   3.123
44514W        W16840  41.716   3.807  12.604
44515W        W16841  37.779   3.260   1.614
44516W        W16842  30.302  37.080   0.428
44517W        W16843  23.097  42.798   2.470
44518W        W16844   8.916  10.278  10.662
44519W        W16845  27.284   1.724  10.959
44520W        W16846  29.589   2.488   1.790
44521W        W16847   8.355  34.611   3.669
44522W        W16848  32.039  40.370   1.988
44523W        W16849   5.279  32.932  13.867
44524W        W16850  29.502   4.959   0.315
44525W        W16851  25.660  38.305   0.776
44526W        W16852  10.911  43.445   1.588
44527W        W16853  13.033  11.734   5.106
44528W        W16854  30.527  33.938   4.464
44529W        W16855  33.343  33.894  12.346
44530W        W16856  12.820   9.288  12.992
44531W        W16857   7.282  29.527   2.893
44532W        W16858  41.840  27.224   0.912
44533W        W16859  10.760  16.983  13.607
44534W        W16860  31.090  19.312  11.536
44535W        W16861  41.818  14.569  14.016
44536W        W16862   8.735  35.405   0.711
44537W        W16863  10.103  36.059   2.141
44538W        W16864  18.013  31.056   3.868
44539W        W16865  38.866  40.046   3.398
44540W        W16866   0.869   8.412   2.037
44541W        W16867  38.070  41.292  14.797
44542W        W16868  39.880  27.878   4.131
44543W        W16869  26.562   6.360   0.409
44544W        W16870   8.239  22.714  12.438
44545W        W16871   5.937   7.913   3.057
44546W        W16872  21.074   2.348   2.907
44547W        W16873   3.848  34.474   2.654
44548W        W16874  22.973  22.270   0.276
44549W        W16875  24.826  30.504  14.446
44550W        W16876  30.997  24.671  14.354
44551W        W16877  38.947  20.770  12.043
44552W        W16878  40.785  42.971  12.450
44553W        W16879  14.592   0.947  14.309
44554W        W16880  32.828   9.091   3.111
44555W        W16881  32.988  40.003  12.470
44556W        W16882  10.078  11.768   1.783
44557W        W16883  18.937   4.453  14.045
44558W        W16884  14.043  44.368  13.007
44559W        W16885  17.213   6.234  12.935
44560W        W16886   5.039  35.612  13.756
44561W        W16887  13.715  29.365  12.754
44562W        W16888  23.683   3.706  11.243
44563W        W16889  43.006   8.718   5.206
44564W        W16890   4.713   1.810  11.138
44565W        W16891  13.322  33.923   2.242
44566W        W16892  16.150  30.995  14.451
44567W        W16893  39.803   7.664   0.836
44568W        W16894  22.832  19.615  12.671
44569W        W16895  40.584  29.240  11.960
44570W        W16896  20.128  38.223   0.880
44571W        W16897  17.662   5.366   2.261
44572W        W16898   6.233  40.098  11.203
44573W        W16899   0.276  21.554  13.523
44574W        W16900   8.899   4.701   4.532
44575W        W16901  24.275  41.740  12.931
44576W        W16902   6.757  17.144  14.752
44577W        W16903  29.564  20.851   1.412
44578W        W16904  18.855  11.771   4.630
44579W        W16905  22.512  20.228   0.560
44580W        W16906  16.583  42.536  11.773
44581W        W16907  36.130  19.012   4.156
44582W        W16908  44.884  38.700   1.789
44583W        W16909  22.058  42.017   2.585
44584W        W16910  44.545  35.106  14.380
44585W        W16911  10.574   3.621  11.553
44586W        W16912   0.897  31.725  11.079
44587W        W16913   1.254  15.608  11.699
44588W        W16914  16.338  37.507   4.193
44589W        W16915  39.805  30.634   1.073
44590W        W16916  23.535  14.570  11.575
44591W        W16917  34.690  36.925  12.087
44592W        W16918  15.134  43.705  12.309
44593W        W16919  10.755  12.545  13.042
44594W        W16920  27.943  44.984  11.504
44595W        W16921  29.535  13.319   1.756
44596W        W16922  31.590  25.989  10.742
44597W        W16923  30.655  12.796  14.843
44598W        W16924   6.967  38.123  13.959
44599W        W16925  31.211  39.855   1.891
44600W        W16926   8.281   4.333   4.101
44601W        W16927  37.895  36.671  11.017
44602W        W16928  26.724  13.280   2.228
44603W        W16929   7.346  20.774   4.165
44604W        W16930  41.839  22.165  11.929
44605W        W16931  28.809  13.017  10.857
44606W        W16932  19.549  21.045   3.147
44607W        W16933  31.495   2.960  14.071
44608W        W16934  10.851   1.398  12.477
44609W        W16935  37.949  28.679  13.550
44610W        W16936  26.632   1.568   3.738
44611W        W16937  25.556  16.669   2.715
44612W        W16938  10.449  27.154  13.823
44613W        W16939  34.597   2.877  14.997
44614W        W16940  17.789  36.568   0.868
44615W        W16941  23.301  36.636  11.497
44616W        W16942   6.340   7.405  11.788
44617W        W16943  18.679  12.570   4.144
44618W        W16944  42.773  31.763   1.064
44619W        W16945   9.865  13.125   0.244
44620W        W16946   4.756  35.114  12.917
44621W        W16947  32.658  28.159   1.263
44622W        W16948  37.914  43.935  12.830
44623W        W16949  35.994  24.279   2.678
44624W        W16950  20.604   8.770   2.634
44625W        W16951  21.309  11.793   0.020
44626W        W16952  41.783  26.778   1.857
44627W        W16953  35.573  41.874   2.444
44628W        W16954  38.052  30.564   0.019
44629W        W16955  20.644  27.630  14.163
44630W        W16956  36.111  41.297  14.847
44631W        W16957  25.805   6.331   4.468
44632W        W16958   1.377  15.205   4.035
44633W        W16959  40.073  42.554   4.087
44634W        W16960   5.070  41.612  13.597
44635W        W16961   1.481  10.421  14.891
44636W        W16962  40.941   5.409  11.779
44637W        W16963  18.288  19.098   1.221
44638W        W16964  13.998   4.560  13.987
44639W        W16965  16.168   5.618  10.983
44640W        W16966  40.113  35.380   1.819
44641W        W16967  27.688  23.719  11.550
44642W        W16968  19.935  22.585   2.710
44643W        W16969  23.126  18.830   4.645
44644W        W16970  43.726  29.518   1.619
44645W        W16971  43.387  12.324   1.838
44646W        W16972   6.338   7.624   3.788
44647W        W16973  21.133  26.453  13.140
44648W        W16974  11.129  13.271   4.350
44649W        W16975  34.289   4.294   2.272
44650W        W16976  18.347  18.036  11.553
44651W        W16977  21.258  37.319  12.145
44652W        W16978  41.052  12.195  11.359
44653W        W16979  21.666  11.661   4.047
44654W        W16980  19.590  35.453   0.311
44655W        W16981  22.790  17.082   0.704
44656W        W16982  39.228  40.076   2.327
44657W        W16983  11.885  39.077  13.939
44658W        W16984   3.589  21.397   4.554
44659W        W16985  22.629  36.345  12.824
44660W        W16986  35.386  37.806  11.361
44661W        W16987   3.823   1.916  11.670
44662W        W16988  30.138  22.403  10.990
44663W        W16989  43.357   2.436  14.506
44664W        W16990  32.225  44.892  10.739
44665W        W16991   0.311   9.820   4.602
44666W        W16992  29.591  20.689   0.455
44667W        W16993  28.355  42.947  12.086
44668W        W16994   8.587   8.880  12.484
44669W        W16995  44.109  29.448  14.318
44670W        W16996  23.577  16.541  14.336
44671W        W16997  30.114  44.845  10.825
44672W        W16998  18.173  35.082   2.843
44673W        W16999  28.233  10.709  10.466
44674W        W17000  26.203  27.556   1.455
44675W        W17001  44.381  37.501  11.146
44676W        W17002  35.823  35.651  14.821
44677W        W17003  30.542   7.543  13.784
44678W        W17004  29.162  21.807  14.347
44679W        W17005  39.314  42.342  13.135
44680W        W17006  39.657  34.584   4.488
44681W        W17007  30.923  19.130  12.005
44682W        W17008  33.093  26.508   1.689
44683W        W17009  18.293   6.205  14.355
44684W        W17010  34.805  12.035   1.747
44685W        W17011  16.049  25.941  12.376
44686W        W17012  44.558   4.014   1.797
44687W        W17013   9.634   2.808  12.218
44688W        W17014   6.396  19.210   3.533
44689W        W17015  13.684  12.603  12.484
44690W        W17016  25.023   8.762   3.737
44691W        W17017  32.539  43.281   0.044
44692W        W17018  16.199  26.927  11.057
44693W        W17019  42.046  42.716   3.723
44694W        W17020   6.953  18.604  12.116
44695W        W17021  27.993  33.158  13.000
44696W        W17022   1.115  14.497  11.250
44697W        W17023   3.314   4.415   1.160
44698W        W17024  24.108  31.894   4.557
44699W        W17025  38.641  21.629  11.582
44700W        W17026  12.792   9.776  11.586
44701W        W17027   2.360  20.771   5.039
44702W        W17028  21.699  22.066  13.104
44703W        W17029  18.444  30.053  11.673
44704W        W17030  38.755   2.856   2.411
44705W        W17031   4.718  36.398  13.163
44706W        W17032  43.355  21.108   1.849
44707W        W17033   3.248   6.948   3.261
44708W        W17034  27.900  20.801   1.488
44709W        W17035  42.248  12.261   1.788
44710W        W17036  23.452  20.863   0.786
44711W        W17037  37.965  34.283   1.355
44712W        W17038  20.955  13.102  14.452
44713W        W17039   6.976  27.095   2.599
44714W        W17040  23.078   5.696   0.905
44715W        W17041  33.091  12.252   4.641
44716W        W17042   9.135  31.056  11.098
44717W        W17043   9.656   8.143   4.179
44718W        W17044  26.618  12.101  11.838
44719W        W17045  37.998  44.940   0.522
44720W        W17046   0.524  19.191   3.225
44721W        W17047  27.046  36.470   1.406
44722W        W17048  32.966  18.788  13.756
44723W        W17049  22.524  31.006  12.859
44724W        W17050  16.085  34.023   3.589
44725W        W17051   5.539  23.906  13.079
44726W        W17052  16.827  24.748   2.746
44727W        W17053  36.901  39.825   4.410
44728W        W17054  16.661  41.387  14.070
44729W        W17055  17.569  11.161   1.238
44730W        W17056  20.652  17.647  14.159
44731W        W17057   6.389  31.961  12.082
44732W        W17058  37.242  31.370  11.696
44733W        W17059  40.586  15.827  13.925
44734W        W17060  42.321  30.448   0.376
44735W        W17061  15.641   7.824   1.926
44736W        W17062   0.791   9.700  11.696
44737W        W17063  43.792   9.678  12.913
44738W        W17064  29.912  22.685   4.570
44739W        W17065  33.012  44.299  13.798
44740W        W17066   3.971   8.478   3.615
44741W        W17067  41.750  23.685   1.115
44742W        W17068  44.394  38.966   0.170
44743W        W17069  37.874   5.004   1.394
44744W        W17070  41.895  32.124   5.018
44745W        W17071   2.194  40.816   2.794
44746W        W17072  42.016   5.992  14.884
44747W        W17073  39.582  13.665   4.520
44748W        W17074   5.421  21.176   4.425
44749W        W17075   2.211  22.000   0.319
44750W        W17076   6.927  19.177  12.813
44751W        W17077   6.654   6.190   2.828
44752W        W17078   2.524   1.889  12.981
44753W        W17079  12.054   3.257   1.162
44754W        W17080   0.686   2.412  12.046
44755W        W17081  33.244  30.069  11.851
44756W        W17082  41.929  18.653   4.994
44757W        W17083  42.088  32.175   4.025
44758W        W17084  12.737   5.986  10.983
44759W        W17085   3.717   2.506   1.733
44760W        W17086  20.052  23.915   1.779
44761W        W17087   0.833  29.276  13.191
44762W        W17088  33.869   5.697  14.404
44763W        W17089  17.556  21.590  12.782
44764W        W17090   1.735   2.241   9.687
44765W        W17091  30.674  18.213   0.036
44766W        W17092  39.438  42.968  12.337
44767W        W17093  19.057  35.936   4.227
44768W        W17094  44.741  39.763  11.445
44769W        W17095  19.224   8.414   4.096
44770W        W17096  14.335   9.887   1.327
44771W        W17097  39.508  30.434   5.031
44772W        W17098  40.623  15.538   3.644
44773W        W17099  38.340  25.038  14.907
44774W        W17100  26.555  22.099   0.372
44775W        W17101  26.451  44.876  11.697
44776W        W17102  31.074  35.600  14.997
44777W        W17103  40.988  22.574   4.073
44778W        W17104   5.701  21.027   0.377
44779W        W17105   8.404  31.970  10.837
44780W        W17106   5.174  22.135  14.799
44781W        W17107  27.735  26.651   4.088
44782W        W17108  39.269  29.453  12.383
44783W        W17109   9.155  41.866   2.116
44784W        W17110  13.205   4.990  10.319
44785W        W17111  20.686  13.758  12.311
44786W        W17112  24.004  21.650   3.925
44787W        W17113  28.947  38.587   4.688
44788W        W17114  20.531  30.174   2.685
44789W        W17115   7.218  32.983  13.395
44790W        W17116  32.733  16.802   2.819
44791W        W17117  42.894  34.009  11.689
44792W        W17118   9.642  43.542   1.739
44793W        W17119  40.381  13.217  10.920
44794W        W17120  13.562  34.592   0.885
44795W        W17121  41.457  16.587   1.401
44796W        W17122  21.882  21.299  14.414
44797W        W17123  30.452   1.331   4.541
44798W        W17124  20.609  17.699  11.597
44799W        W17125  24.223   7.635   2.258
44800W        W17126  32.411   8.215  14.960
44801W        W17127  27.882  13.085  13.428
44802W        W17128   4.573  36.488   1.460
44803W        W17129  32.184  24.093  11.597
44804W        W17130   5.489  22.590  14.917
44805W        W17131  30.924   1.213  11.581
44806W        W17132  17.823  18.499  11.068
44807W        W17133  29.612  19.847   2.831
44808W        W17134   7.837  19.144   3.875
44809W        W17135  20.302  26.351  12.663
44810W        W17136  12.037  19.826  13.535
44811W        W17137   2.022  26.425   1.920
44812W        W17138   1.425  40.488  14.806
44813W        W17139  12.404  39.049  13.929
44814W        W17140  40.338  43.806   2.758
44815W        W17141   5.326   4.836   4.820
44816W        W17142  30.887  18.086   1.952
44817W        W17143  40.411  34.805  12.171
44818W        W17144  38.389   1.631   1.336
44819W        W17145   7.625   7.807   4.639
44820W        W17146  32.720  17.587  14.379
44821W        W17147  28.435  43.814  11.971
44822W        W17148  13.433  35.964   2.788
44823W        W17149  31.541  17.436  12.706
44824W        W17150   6.671  25.744   4.159
44825W        W17151  14.211  11.425   4.094
44826W        W17152  24.486  44.577  12.382
44827W        W17153  18.060  24.253  10.662
44828W        W17154  22.756  39.503  12.866
44829W        W17155  10.876  13.718   2.075
44830W        W17156   0.178  43.818   2.207
44831W        W17157  39.331  23.794  13.948
44832W        W17158  20.992  19.166   2.392
44833W        W17159  11.733  21.982  10.786
44834W        W17160  38.383  33.674   0.285
44835W        W17161  22.990  44.956  13.517
44836W        W17162  28.961  29.583   3.317
44837W        W17163   8.448  30.038   0.796
44838W        W17164  10.716  24.100   4.074
44839W        W17165   2.372  22.745   3.156
44840W        W17166  38.331  42.867  14.529
44841W        W17167  13.935  21.669  12.835
44842W        W17168  33.164  13.333   4.634
44843W        W17169  37.383   1.435  14.708
44844W        W17170   7.908   7.757  13.614
44845W        W17171  25.915   8.830  10.490
44846W        W17172  23.456  11.211  12.714
44847W        W17173  32.387  10.241  10.578
44848W        W17174  22.488  19.627   1.702
44849W        W17175  25.564  10.619   2.223
44850W        W17176  11.828   0.780   1.236
44851W        W17177   0.733   5.788   1.493
44852W        W17178  24.464  32.559   4.179
44853W        W17179   9.742  35.109   0.653
44854W        W17180  10.263   3.438   1.943
44855W        W17181  12.373  26.681  11.827
44856W        W17182   6.829  18.341   3.148
44857W        W17183   3.268  37.807   3.644
44858W        W17184  36.910   1.499   3.663
44859W        W17185  26.683   0.065   1.202
44860W        W17186  30.515  19.343  12.913
44861W        W17187  35.646  37.980  14.424
44862W        W17188   7.835  35.394   0.419
44863W        W17189  27.554  30.725  14.741
44864W        W17190   4.524   8.043   1.431
44865W        W17191  11.743  21.778  12.045
44866W        W17192  29.584  44.463   4.235
44867W        W17193  34.581  20.074  13.870
44868W        W17194  43.018  31.438   0.017
44869W        W17195  22.652  39.326   3.792
44870W        W17196  22.743  38.123   0.677
44871W        W17197  35.007  32.464   0.325
44872W        W17198  37.002  19.986  13.204
44873W        W17199   4.175  17.925   3.433
44874W        W17200  28.621   8.692   0.936
44875W        W17201  25.406  12.159  11.019
44876W        W17202   9.373  23.652  13.412
44877W        W17203  38.918  44.827   1.711
44878W        W17204   6.199  30.452   2.696
44879W        W17205  29.836  10.469   2.665
44880W        W17206  13.409  13.677   2.632
44881W        W17207  27.480  24.931  14.932
44882W        W17208  17.021  33.683  13.482
44883W        W17209  11.823   9.911   3.783
44884W        W17210  14.313  29.719  12.454
44885W        W17211   5.314  30.142  11.548
44886W        W17212  32.927  11.417  12.795
44887W        W17213  15.804  11.367   3.135
44888W        W17214  33.085  16.784   2.364
44889W        W17215  41.603  26.499   3.378
44890W        W17216  20.519  17.624   0.506
44891W        W17217   4.506  24.483  14.918
44892W        W17218  37.352   4.383  14.064
44893W        W17219  15.624  15.607  11.706
44894W        W17220   0.910   7.959  14.862
44895W        W17221   8.161  31.183  14.668
44896W        W17222  14.292  26.159  12.879
44897W        W17223  41.646   1.368   3.195
44898W        W17224  30.218  29.662  12.029
44899W        W17225  20.696  36.481  11.587
44900W        W17226  33.578  36.514   4.192
44901W        W17227   2.179  11.045  14.975
44902W        W17228   9.246  23.449   4.105
44903W        W17229   1.865  25.161   0.631
44904W        W17230   9.227  30.120   3.669
44905W        W17231  17.632   9.250   2.191
44906W        W17232  43.038  25.330  11.917
44907W        W17233  12.671  34.905  11.912
44908W        W17234  27.982  38.261   0.992
44909W        W17235  20.521  39.790  11.123
44910W        W17236   8.352  18.735  14.472
44911W        W17237   4.535  23.241   9.875
44912W        W17238  25.199  26.322   4.671
44913W        W17239   3.491  25.670   2.360
44914W        W17240  12.817  25.833  13.822
44915W        W17241  23.581   3.757  10.749
44916W        W17242  30.196  21.236   3.758
44917W        W17243  10.192  15.575   0.821
44918W        W17244  23.172   7.797   1.333
44919W        W17245  17.149  10.761  12.820
44920W        W17246  38.121  37.319  14.119
44921W        W17247  35.910  25.990   3.371
44922W        W17248   2.513  29.255  10.512
44923W        W17249  29.043   9.770   4.047
44924W        W17250  22.270  30.960   1.394
44925W        W17251   2.070  28.311  14.065
44926W        W17252  38.461  35.109   0.483
44927W        W17253   0.692  14.705  11.013
44928W        W17254  20.164  17.242  12.627
44929W        W17255  36.421  37.901  11.530
44930W        W17256   9.663  12.481   2.212
44931W        W17257  35.105  34.942   2.408
44932W        W17258  24.064  17.759  10.231
44933W        W17259  25.291  43.667  13.026
44934W        W17260   2.903   1.506  12.031
44935W        W17261  34.657   3.254  12.533
44936W        W17262  29.848  15.097   3.594
44937W        W17263  40.643   9.154   3.511
44938W        W17264   3.275  33.417  10.515
44939W        W17265  22.315  12.801  13.979
44940W        W17266   8.914  32.607   3.792
44941W        W17267  22.439   3.635   4.440
44942W        W17268  42.347  24.492   1.826
44943W        W17269  28.549  16.431  11.478
44944W        W17270  40.739  33.275  10.688
44945W        W17271  30.766   2.673  12.601
44946W        W17272  14.563  19.242   2.300
44947W        W17273  21.821  16.146  10.943
44948W        W17274  13.561  24.528  13.046
44949W        W17275   4.374  29.602   4.589
44950W        W17276  27.546  10.443   4.639
44951W        W17277  11.354  36.856   0.775
44952W        W17278  41.303   9.677   2.448
44953W        W17279   2.469  17.872   1.340
44954W        W17280  42.964  21.652  11.733
44955W        W17281  37.365  37.843   1.988
44956W        W17282  23.092  19.303  14.296
44957W        W17283  19.710   6.932  10.882
44958W        W17284  28.730  34.879   1.789
44959W        W17285  30.778  13.053  13.725
44960W        W17286   3.959   7.192   4.150
44961W        W17287  27.982  21.566   0.692
44962W        W17288   1.460  34.569   0.274
44963W        W17289  41.923  37.419  11.170
44964W        W17290  26.210  17.666  12.548
44965W        W17291  34.029  40.544  11.598
44966W        W17292  25.692   4.492   0.299
44967W        W17293  27.022  15.290  13.995
44968W        W17294  31.943   2.872   2.233
44969W        W17295   8.163  17.704   0.835
44970W        W17296  28.194  23.216  14.964
44971W        W17297  20.109  32.887  11.622
44972W        W17298  20.837   1.447  12.400
44973W        W17299  15.181  18.524  13.406
44974W        W17300  36.498   6.719   3.592
44975W        W17301  34.413  14.779  11.661
44976W        W17302  14.523  33.038  12.933
44977W        W17303   8.660  24.072  14.018
44978W        W17304  38.399  36.158   1.330
44979W        W17305  14.476   1.931   2.164
44980W        W17306   5.392  20.611  11.202
44981W        W17307  15.253  16.251   1.736
44982W        W17308  42.170  14.187   4.675
44983W        W17309   2.947  15.146   0.426
44984W        W17310  39.932  20.866  12.967
44985W        W17311  19.955  22.421  13.992
44986W        W17312  43.219   9.551  11.575
44987W        W17313  41.043  10.100  10.616
44988W        W17314   7.213   5.919   3.937
44989W        W17315  32.986  28.537  12.902
44990W        W17316  44.942   8.968  12.932
44991W        W17317  35.060   5.407  13.858
44992W        W17318  31.214  26.326  10.803
44993W        W17319  30.878  19.206   2.857
44994W        W17320  14.366   1.641  12.162
44995W        W17321  28.082   5.721  12.510
44996W        W17322  32.363   2.353   1.833
44997W        W17323   1.569  23.111  11.445
44998W        W17324  14.364  18.684   3.194
44999W        W17325  38.755  38.375  12.021
45000W        W17326  44.908  18.246   0.696
45001W        W17327  25.102  28.278  14.282
45002W        W17328  22.430   7.159  14.282
45003W        W17329   8.195   7.001  12.584
45004W        W17330   2.336  28.525   2.505
45005W        W17331  25.052  30.700   3.253
45006W        W17332  42.059  23.716  11.961
45007W        W17333  38.665  16.235  13.999
45008W        W17334  37.828  42.251   4.243
45009W        W17335  11.711  23.772   0.015
45010W        W17336  36.658  27.158   1.665
45011W        W17337  21.108  34.233  12.290
45012W        W17338   6.304  28.606   4.404
45013W        W17339   1.366   1.331   0.392
45014W        W17340   5.778  43.443  12.188
45015W        W17341  31.904  30.213  11.605
45016W        W17342  44.299   9.669   4.557
45017W        W17343  39.495  33.057  12.893
45018W        W17344   9.115   9.810  10.634
45019W        W17345  37.641  10.227   4.319
45020W        W17346  41.785  21.633   0.679
45021W        W17347  44.482   0.106   0.355
45022W        W17348  28.129  35.573   1.783
45023W        W17349  33.206  27.218   3.309
45024W        W17350  28.403  11.688   2.708
45025W        W17351  16.550  15.440   3.129
45026W        W17352  31.146   5.248   2.155
45027W        W17353  31.439  39.502  12.596
45028W        W17354  19.438  15.037  13.248
45029W        W17355  37.791  43.233  13.121
45030W        W17356  35.408  28.476  14.139
45031W        W17357  26.198   2.006  13.147
45032W        W17358  30.191  25.301   2.757
45033W        W17359   0.319  10.396   4.547
45034W        W17360   6.768  40.523  11.405
45035W        W17361  44.899  33.012  11.032
45036W        W17362  18.584  28.866  10.682
45037W        W17363  10.394  22.294  10.245
45038W        W17364   8.835  32.735  10.544
45039W        W17365  43.423  11.210   1.424
45040W        W17366  30.617  30.524   2.482
45041W        W17367   1.957  37.032   1.926
45042W        W17368  14.822  38.153  11.204
45043W        W17369  17.582  19.093  12.989
45044W        W17370  29.520  25.937   3.774
45045W        W17371  39.060  34.904  12.610
45046W        W17372  40.914  36.689   3.378
45047W        W17373  29.047   3.411  13.021
45048W        W17374   6.815  43.318  14.826
45049W        W17375  31.417  44.024   0.015
45050W        W17376  23.650   5.607  11.499
45051W        W17377  13.968  19.259   1.665
45052W        W17378  16.677   5.152  14.285
45053W        W17379  16.075   8.797   3.330
45054W        W17380  40.909  17.741  13.170
45055W        W17381   9.700  44.700   1.233
45056W        W17382   7.777  44.341  12.029
45057W        W17383  35.652  36.043   0.929
45058W        W17384  26.435  16.454  14.332
45059W        W17385  30.831  28.756   3.203
45060W        W17386  24.620  13.951   9.948
45061W        W17387  29.333  43.944   2.509
45062W        W17388  12.063  16.914  12.325
45063W        W17389  25.468  39.750   4.176
45064W        W17390  21.528  11.634  11.079
45065W        W17391  30.376  20.542   1.809
45066W        W17392  17.341  38.412   2.408
45067W        W17393  39.744  40.052   2.306
45068W        W17394  44.750   0.329   2.217
45069W        W17395  44.846  11.243   2.683
45070W        W17396  34.334  43.249   3.391
45071W        W17397   9.907   0.250  13.349
45072W        W17398  32.091   6.409   1.449
45073W        W17399  27.513  34.068   2.864
45074W        W17400  20.498  41.916   4.211
45075W        W17401  18.026  29.481  13.110
45076W        W17402  16.087  21.484  13.281
45077W        W17403  41.424  43.283  13.911
45078W        W17404  44.890  31.403  14.195
45079W        W17405  41.872  37.336   2.619
45080W        W17406  20.653  24.417   4.172
45081W        W17407  32.391  43.825   3.679
45082W        W17408  44.966  14.348  14.800
45083W        W17409  26.653  11.551  10.202
45084W        W17410  29.993  34.848  14.823
45085W        W17411  18.097  23.419   0.253
45086W        W17412   6.476  24.950  14.432
45087W        W17413  10.492  26.584   4.568
45088W        W17414  44.443   5.806  13.501
45089W        W17415  44.931  15.115   2.131
45090W        W17416  21.538  34.830   4.241
45091W        W17417  27.958  30.673   2.837
45092W        W17418  36.436  40.304  11.132
45093W        W17419   2.276  31.015   3.338
45094W        W17420  37.986  44.258  13.252
45095W        W17421  15.771  14.692  10.374
45096W        W17422  26.287  42.967   4.583
45097W        W17423   0.593  42.908   1.287
45098W        W17424  43.478  44.979  14.588
45099W        W17425   9.635  34.046  14.078
45100W        W17426  36.569  33.355  11.596
45101W        W17427  26.036  41.836  14.966
45102W        W17428  12.209  19.282   3.815
45103W        W17429  18.589  37.106  10.861
45104W        W17430  41.067  39.107   4.211
45105W        W17431  39.603  39.978   0.941
45106W        W17432   9.101  31.576   1.236
45107W        W17433  18.307  20.665   4.600
45108W        W17434  35.203  34.526  13.397
45109W        W17435   8.117  18.267  14.489
45110W        W17436  44.879  18.815   3.185
45111W        W17437   8.723  16.123   3.172
45112W        W17438  15.655  22.741   3.711
45113W        W17439  27.543  40.505   2.631
45114W        W17440  44.324  35.064  13.316
45115W        W17441   0.920  21.601   4.772
45116W        W17442  25.001   3.906   1.790
45117W        W17443  10.768  29.584   1.339
45118W        W17444   3.327  13.296  14.497
45119W        W17445  39.089  14.714   3.177
45120W        W17446  29.893  36.885   1.740
45121W        W17447  42.386   2.732   3.240
45122W        W17448  11.828  23.535   4.635
45123W        W17449  38.064  30.173   0.946
45124W        W17450  17.333  10.779  13.363
45125W        W17451  11.243  22.201   2.658
45126W        W17452  39.929  26.042   1.100
45127W        W17453  27.802   9.146   2.703
45128W        W17454  15.580  10.471   0.402
45129W        W17455  19.155  30.678   3.056
45130W        W17456   9.279  11.694  14.879
45131W        W17457  10.298  39.845  11.152
45132W        W17458   8.757  14.043  11.035
45133W        W17459   8.159  19.423  13.424
45134W        W17460   2.170  35.949   1.335
45135W        W17461  13.086   6.408  12.462
45136W        W17462  34.016  19.064  11.730
45137W        W17463  40.774  19.560  14.477
45138W        W17464  37.825   3.224  12.464
45139W        W17465  39.275  16.636   3.822
45140W        W17466  21.652  42.955   2.129
45141W        W17467  16.847  15.850   3.147
45142W        W17468   1.406   5.159  10.562
45143W        W17469  24.558  43.180   4.326
45144W        W17470  36.454  21.517  14.446
45145W        W17471  17.201   4.514  14.269
45146W        W17472   8.633  27.194  11.876
45147W        W17473  18.818  15.186  11.087
45148W        W17474  25.701   2.240  11.529
45149W        W17475   3.247  11.252  12.544
45150W        W17476  23.325  27.673   3.168
45151W        W17477  29.195  41.714   3.717
45152W        W17478  35.048  26.524   3.177
45153W        W17479  29.082  16.786   0.436
45154W        W17480  10.774  25.088  14.262
45155W        W17481  35.310   5.973   4.107
45156W        W17482   9.582  17.294  13.462
45157W        W17483  38.036  26.948   4.061
45158W        W17484  20.562  37.373  12.471
45159W        W17485   4.098  11.821   5.512
45160W        W17486   8.237  36.179  14.619
45161W        W17487  40.283  23.677  10.320
45162W        W17488   8.312   4.861  12.580
45163W        W17489  29.207  34.326   4.092
45164W        W17490  23.166   5.407  10.716
45165W        W17491   5.303   9.079   4.452
45166W        W17492  31.727  41.525   1.904
45167W        W17493  43.349  34.899   2.092
45168W        W17494  30.340  11.074   0.503
45169W        W17495  38.594  33.613  11.719
45170W        W17496  35.207  33.158   3.844
45171W        W17497  13.300  35.471   1.608
45172W        W17498  39.800  16.346   0.692
45173W        W17499  24.619  26.937   2.765
45174W        W17500   3.622   0.306  11.995
45175W        W17501  23.034  18.035   0.819
45176W        W17502  23.615  30.572   1.429
45177W        W17503  38.491  23.266  13.077
45178W        W17504  21.142  38.115  12.511
45179W        W17505  26.417  17.664  11.544
45180W        W17506   5.190  16.387   0.898
45181W        W17507  21.953  27.726   3.597
45182W        W17508  16.860  10.247   2.668
45183W        W17509  25.503  41.486   1.169
45184W        W17510  23.078   8.648   4.155
45185W        W17511  30.668  42.942   0.800
45186W        W17512  22.734  35.580  13.550
45187W        W17513  39.947  19.312   0.820
45188W        W17514   0.747  26.197   2.389
45189W        W17515  18.674  32.922   1.500
45190W        W17516  15.302  42.085   2.092
45191W        W17517  35.347  36.830  13.804
45192W        W17518  16.616   3.190  13.421
45193W        W17519   6.240  18.672  12.333
45194W        W17520  12.218  17.826  14.446
45195W        W17521  33.684  40.945  12.932
45196W        W17522  16.140  41.383   2.929
45197W        W17523  36.311   4.501   2.839
45198W        W17524  24.320  11.955  11.582
45199W        W17525  13.205  27.083  11.376
45200W        W17526   2.313  38.494   0.366
45201W        W17527  15.256  24.753   3.629
45202W        W17528  26.220  43.084  14.606
45203W        W17529  22.578  27.059  14.575
45204W        W17530  38.801  23.590   4.167
45205W        W17531  15.804   3.828  11.549
45206W        W17532  21.794  12.615   0.916
45207W        W17533   5.720  32.417  10.727
45208W        W17534  16.069  44.430   4.589
45209W        W17535  27.997   1.394   5.058
45210W        W17536  30.865  23.649  10.611
45211W        W17537  23.088  24.573  10.788
45212W        W17538  23.494   9.359  11.994
45213W        W17539  44.399  15.199  12.122
45214W        W17540  18.281  42.333  12.691
45215W        W17541  19.649  19.777  12.541
45216W        W17542  15.283  22.730   4.599
45217W        W17543  19.209  41.896  12.347
45218W        W17544  11.429  37.610  12.039
45219W        W17545  40.328  34.069  12.845
45220W        W17546  36.457  36.407  13.614
45221W        W17547   3.852  25.728   4.218
45222W        W17548  35.132  14.369   5.220
45223W        W17549  12.820  40.998   2.632
45224W        W17550  18.038  22.961   3.917
45225W        W17551  21.683  27.945  14.460
45226W        W17552  26.606  40.955  12.561
45227W        W17553  43.903   4.280   3.779
45228W        W17554  23.984  37.076   4.233
45229W        W17555  41.004   8.800  13.934
45230W        W17556  15.755   6.271  13.980
45231W        W17557  28.884  39.433  13.528
45232W        W17558  33.392  15.242   2.687
45233W        W17559  39.362   8.446   0.869
45234W        W17560  16.209   3.860   4.511
45235W        W17561  10.593  40.395  14.807
45236W        W17562  37.336   5.473   1.937
45237W        W17563   8.647   4.352  13.875
45238W        W17564   0.484  30.852  11.116
45239W        W17565  12.116  43.077   0.718
45240W        W17566  41.901  41.276  11.300
45241W        W17567   5.406  21.737   0.195
45242W        W17568  26.971  35.038   1.333
45243W        W17569   9.242  11.841  12.898
45244W        W17570  11.351  17.530  14.035
45245W        W17571  18.990  38.202   2.757
45246W        W17572  24.284  30.102  14.735
45247W        W17573   1.302  24.702   1.359
45248W        W17574  23.193   3.131   1.759
45249W        W17575  25.553   5.782  10.648
45250W        W17576   7.218   1.226   4.281
45251W        W17577   7.485   6.914  14.863
45252W        W17578  12.079  27.411  13.036
45253W        W17579  25.734  33.628  10.271
45254W        W17580  27.532  20.194  14.544
45255W        W17581   7.644   5.608   4.220
45256W        W17582  32.389  31.008  11.519
45257W        W17583  42.018  14.804   0.776
45258W        W17584  36.961  19.815   2.858
45259W        W17585  44.898   0.671  14.127
45260W        W17586   1.042  10.287  11.541
45261W        W17587  21.067  30.427   1.506
45262W        W17588  24.214  27.288   4.060
45263W        W17589  15.176   5.768  12.910
45264W        W17590  13.107  31.226   4.263
45265W        W17591   3.217  30.760   2.672
45266W        W17592  33.457  42.797   3.457
45267W        W17593  41.694   2.269  13.458
45268W        W17594   8.933  33.588   4.082
45269W        W17595  35.463   6.757   2.581
45270W        W17596  34.082  26.034   0.889
45271W        W17597  19.290   8.653  10.796
45272W        W17598   4.104  18.818   4.118
45273W        W17599  17.496  43.922  14.746
45274W        W17600   9.347  26.396   1.307
45275W        W17601  38.520  36.083  13.400
45276W        W17602  29.634  21.689   2.390
45277W        W17603  25.222   9.686   0.229
45278W        W17604  25.013  22.526   1.293
45279W        W17605  44.903  43.851  12.540
45280W        W17606   1.791   4.103   3.899
45281W        W17607  36.268  33.395  12.608
45282W        W17608   8.673  33.376  14.047
45283W        W17609   1.247  22.595  10.523
45284W        W17610  29.329  10.133   0.252
45285W        W17611   8.184  16.778  13.478
45286W        W17612   4.378   4.991  13.942
45287W        W17613   4.725  17.915   4.152
45288W        W17614  13.044   6.867  12.983
45289W        W17615  41.374  42.828  10.963
45290W        W17616  40.278  25.200   1.800
45291W        W17617   6.451  30.571  14.971
45292W        W17618  31.649   4.689   3.215
45293W        W17619  22.061  35.315  14.543
45294W        W17620  40.595   6.823   0.565
45295W        W17621  34.125  21.173   1.347
45296W        W17622   7.267  43.300  11.104
45297W        W17623  31.008   2.879   0.972
45298W        W17624  40.900   9.151   4.869
45299W        W17625  18.232  38.366   0.748
45300W        W17626   3.385  29.610  13.425
45301W        W17627  13.285   2.247  13.427
45302W        W17628  18.427  27.499   1.440
45303W        W17629  35.959   2.173  11.406
45304W        W17630   4.014  37.719   0.230
45305W        W17631  18.311  33.120  13.386
45306W        W17632  16.970  35.626  13.973
45307W        W17633  39.101   7.443   1.691
45308W        W17634   1.995  41.482  10.728
45309W        W17635   4.319  16.863   3.707
45310W        W17636   4.723  15.241   4.251
45311W        W17637  13.764  22.525  12.580
45312W        W17638  28.962   8.925   1.283
45313W        W17639  38.276  15.136  13.121
45314W        W17640  13.768  20.253   1.865
45315W        W17641   1.358   3.802   0.336
45316W        W17642  24.590  13.350  10.674
45317W        W17643   3.925  28.198   3.002
45318W        W17644   6.125  20.133  13.932
45319W        W17645  30.067  13.293   1.220
45320W        W17646  31.074  23.081   4.482
45321W        W17647  14.386  22.606  10.574
45322W        W17648  28.687  19.473  12.504
45323W        W17649  21.794  10.917  11.830
45324W        W17650  18.221  28.746  14.329
45325W        W17651  13.110   7.380  11.170
45326W        W17652  29.732   6.193   1.204
45327W        W17653   3.771   8.374  11.630
45328W        W17654  17.298   5.032   4.084
45329W        W17655   8.744  11.553  12.591
45330W        W17656   4.260   2.429   2.457
45331W        W17657  27.580  32.545  11.881
45332W        W17658  18.050   6.831  13.859
45333W        W17659  29.193  26.656   0.026
45334W        W17660  14.769  33.978   5.188
45335W        W17661  40.416  15.812   3.261
45336W        W17662  17.754  25.352  12.550
45337W        W17663  26.004  20.966   1.817
45338W        W17664  22.702  28.450  12.553
45339W        W17665  31.812  39.551  14.294
45340W        W17666  16.209  23.164  10.844
45341W        W17667   8.307   1.847  13.972
45342W        W17668  25.112  15.012  11.225
45343W        W17669  42.492   5.124   0.807
45344W        W17670  11.087  44.345  13.049
45345W        W17671  25.247  24.054  13.514
45346W        W17672  13.755  28.921  12.464
45347W        W17673   8.508  27.068  13.848
45348W        W17674  13.582   5.417   1.771
45349W        W17675   5.718  14.470  13.188
45350W        W17676  43.337   2.340   4.992
45351W        W17677  44.213   3.661   1.713
45352W        W17678   0.325  20.938  11.217
45353W        W17679  17.224  12.325  12.102
45354W        W17680  23.032  19.310   4.970
45355W        W17681  34.110  39.105  14.862
45356W        W17682  35.487   9.364  13.222
45357W        W17683   1.951  39.375  10.640
45358W        W17684  41.913  12.415  14.527
45359W        W17685  27.130  33.493  14.068
45360W        W17686   4.186   2.233   0.376
45361W        W17687  26.046  30.277  11.633
45362W        W17688   0.906   7.467  10.716
45363W        W17689  41.507   1.800   4.701
45364W        W17690  43.118  41.458   2.386
45365W        W17691   4.949  28.923   0.032
45366W        W17692  11.542  23.853  10.191
45367W        W17693  29.570  30.804  10.069
45368W        W17694  19.709  44.788   1.904
45369W        W17695  10.180  30.108   1.781
45370W        W17696  24.071  23.787  11.164
45371W        W17697  30.629   2.873   0.234
45372W        W17698   2.012  23.099  11.665
45373W        W17699   1.225  26.988  13.005
45374W        W17700  16.652  38.342   1.789
45375W        W17701  15.325  25.189   4.642
45376W        W17702  41.397  15.101   4.207
45377W        W17703   1.961  43.976  12.626
45378W        W17704  10.869  30.978   2.258
45379W        W17705   3.261  36.164   4.987
45380W        W17706  13.402   1.593   0.388
45381W        W17707  39.437  23.476   3.345
45382W        W17708  41.844  27.224  13.528
45383W        W17709  37.129  33.947   1.424
45384W        W17710  36.554  40.878  12.383
45385W        W17711  26.535   9.875   4.438
45386W        W17712  28.075  38.308  13.548
45387W        W17713  42.821  30.569   0.270
45388W        W17714  15.953   7.765  14.745
45389W        W17715  41.724  42.460  11.071
45390W        W17716  31.264  34.330  14.517
45391W        W17717  10.089  44.439  13.981
45392W        W17718  30.459  25.065  11.337
45393W        W17719  38.268  39.482  10.373
45394W        W17720  33.468  21.241   2.433
45395W        W17721  34.960  41.415   2.908
45396W        W17722  23.069  33.737   4.880
45397W        W17723  44.445  30.355   3.566
45398W        W17724  14.787   1.828   3.867
45399W        W17725  36.043  23.262  12.491
45400W        W17726  12.024   6.792   0.474
45401W        W17727   9.540  43.950  10.699
45402W        W17728  33.995  11.124  12.529
45403W        W17729  22.958  32.930  13.817
45404W        W17730  25.000  38.342   0.338
45405W        W17731  18.350  28.123   3.346
45406W        W17732   8.149  36.564   1.859
45407W        W17733  17.272  35.642   3.697
45408W        W17734  37.122  18.746   0.887
45409W        W17735   2.686  34.663   3.242
45410W        W17736  27.777  30.981  12.608
45411W        W17737   6.678  22.734  11.442
45412W        W17738  32.742  30.670   0.712
45413W        W17739  33.371  11.660   3.038
45414W        W17740  25.922  36.981   2.159
45415W        W17741  18.132   5.692  11.592
45416W        W17742  16.036  44.716  12.124
45417W        W17743   9.881  37.934  14.929
45418W        W17744  15.220  26.820   1.512
45419W        W17745  44.226  25.069  12.527
45420W        W17746  39.133  33.405  13.943
45421W        W17747   9.701  33.920   3.660
45422W        W17748  44.913   3.298  12.462
45423W        W17749  10.057  25.716  11.180
45424W        W17750  19.019  36.912  11.625
45425W        W17751  36.891  37.472   4.612
45426W        W17752  24.684  17.792  14.828
45427W        W17753  18.081  17.207   3.391
45428W        W17754   6.416  35.422  11.225
45429W        W17755   2.535   3.912  12.946
45430W        W17756  39.994  15.496  14.124
45431W        W17757  14.765  20.586  11.874
45432W        W17758  28.470  28.892   5.164
45433W        W17759  40.846  34.480  11.415
45434W        W17760  12.882  44.055   3.048
45435W        W17761   8.435   8.010  10.541
45436W        W17762  34.346  25.436  13.517
45437W        W17763  39.414  18.803  11.080
45438W        W17764  41.841  43.779   0.330
45439W        W17765  41.971  21.708   1.164
45440W        W17766   2.451  36.847  12.483
45441W        W17767  42.909  40.319   1.700
45442W        W17768  31.635  37.519  13.971
45443W        W17769   0.446  39.131   2.366
45444W        W17770  37.083  19.289   2.638
45445W        W17771  26.586   4.961  12.543
45446W        W17772  33.151  12.224   1.426
45447W        W17773  16.147  27.605  10.499
45448W        W17774  13.790  40.800  10.533
45449W        W17775  19.582  16.532   2.927
45450W        W17776  17.651  33.584   3.074
45451W        W17777  22.965  17.506  13.534
45452W        W17778   3.698  11.369   2.759
45453W        W17779  37.765  12.876  14.497
45454W        W17780  27.962  24.934  11.592
45455W        W17781  16.377  39.923   4.601
45456W        W17782   2.954   8.163   2.465
45457W        W17783  41.882  43.555  13.946
45458W        W17784  41.453  22.602  14.155
45459W        W17785  17.827   0.523   4.267
45460W        W17786  36.345  42.425  12.476
45461W        W17787  13.531  33.820   3.091
45462W        W17788  31.083   1.468   1.379
45463W        W17789   5.387  39.506  13.960
45464W        W17790  43.445  38.508   1.032
45465W        W17791  44.624  31.887  14.464
45466W        W17792  36.977   3.998  14.931
45467W        W17793  18.733  11.264   4.577
45468W        W17794   0.340  39.042  14.989
45469W        W17795  10.248  39.158   4.502
45470W        W17796  36.369  38.412  12.666
45471W        W17797  33.951  35.931   1.011
45472W        W17798  10.260  12.124   2.161
45473W        W17799  41.910   9.745   0.885
45474W        W17800   7.088   5.012  12.648
45475W        W17801  27.622  17.061  10.596
45476W        W17802   6.492  44.726   4.282
45477W        W17803  22.772   7.164  13.444
45478W        W17804  22.251   4.903  11.624
45479W        W17805  16.851  11.907   0.686
45480W        W17806  20.002  36.831  11.703
45481W        W17807  10.031  34.268   0.801
45482W        W17808   3.316  43.313   1.303
45483W        W17809   6.193  26.225  12.963
45484W        W17810  22.221   4.234   1.915
45485W        W17811  19.013  30.671  11.549
45486W        W17812  32.937  12.712   1.386
45487W        W17813   6.578  24.106  11.576
45488W        W17814  36.371  38.299  11.199
45489W        W17815  28.269  40.874  10.497
45490W        W17816  21.704  32.468  12.625
45491W        W17817  41.852  27.616   1.277
45492W        W17818  28.174  42.743  13.233
45493W        W17819   9.774  18.564  14.769
45494W        W17820  30.088  11.058  11.944
45495W        W17821  22.830  19.841  13.908
45496W        W17822  14.155  11.161   0.386
45497W        W17823  29.813  30.427   3.669
45498W        W17824  29.103  13.258   0.807
45499W        W17825  16.342   5.173  11.274
45500W        W17826   6.676   1.779   3.217
45501W        W17827  37.092  26.392   1.354
45502W        W17828   9.841  30.617  10.700
45503W        W17829   4.675  29.935   1.340
45504W        W17830  28.234  37.762   2.773
45505W        W17831  13.222  24.966  11.356
45506W        W17832  15.863   4.877   1.379
45507W        W17833  18.167  16.516  13.302
45508W        W17834  13.223   5.059  12.434
45509W        W17835  29.602  25.162   3.120
45510W        W17836  32.852  19.557   1.755
45511W        W17837  31.171  36.540   3.334
45512W        W17838  27.139  30.718   0.318
45513W        W17839  21.082  44.611  10.708
45514W        W17840  34.841  39.377   4.785
45515W        W17841  30.555  30.163  13.915
45516W        W17842   6.928  16.114   4.890
45517W        W17843  15.727  16.149  12.575
45518W        W17844  13.607  41.787  13.379
45519W        W17845  27.125  17.755   3.073
45520W        W17846  11.803  26.586  14.985
45521W        W17847  30.812  20.640  12.939
45522W        W17848  31.180  14.157   0.967
45523W        W17849  44.088  33.100   2.599
45524W        W17850  38.846  12.079   1.704
45525W        W17851  32.591   1.926   5.272
45526W        W17852  44.799  25.315  10.752
45527W        W17853  42.820  10.905  13.318
45528W        W17854  43.371   8.804  10.850
45529W        W17855  41.058  39.422  14.066
45530W        W17856  28.370   8.789   3.283
45531W        W17857  15.567  37.173   0.883
45532W        W17858  41.448  12.556   1.237
45533W        W17859  14.391   5.988   3.574
45534W        W17860  10.962  19.135  12.228
45535W        W17861  13.651  19.898  13.046
45536W        W17862  31.892  28.348   0.009
45537W        W17863  24.791   4.663  12.420
45538W        W17864   5.485  40.894   4.089
45539W        W17865  14.669  39.094   3.283
45540W        W17866  28.148  39.830   1.990
45541W        W17867   6.850  26.878   1.842
45542W        W17868  44.479  32.003   1.241
45543W        W17869  37.454  39.112   1.494
45544W        W17870  35.123  24.740  12.975
45545W        W17871  41.471  38.098   0.257
45546W        W17872  42.031   4.137   3.676
45547W        W17873  28.131   3.257   0.036
45548W        W17874  41.380  26.148  14.378
45549W        W17875  36.618  26.901   2.099
45550W        W17876  43.471   4.144  14.934
45551W        W17877  20.456  13.269  14.391
45552W        W17878  41.430  35.017   1.448
45553W        W17879  29.963  24.660   1.361
45554W        W17880  25.876  13.864   4.897
45555W        W17881  34.682   0.392  11.028
45556W        W17882   0.738  39.317   3.171
45557W        W17883  32.641  22.284  13.808
45558W        W17884  41.170   7.939  11.508
45559W        W17885   2.419  27.718  13.180
45560W        W17886  38.787  30.226  13.277
45561W        W17887  40.406   9.818  11.110
45562W        W17888  36.939  26.787  12.524
45563W        W17889   6.913   9.693   4.512
45564W        W17890  21.938  16.675   0.818
45565W        W17891  23.672  40.452  10.041
45566W        W17892  41.140   1.422  13.566
45567W        W17893  41.480  11.153   2.286
45568W        W17894  33.435  15.131  14.803
45569W        W17895  41.522  32.008  12.879
45570W        W17896  25.871  24.935  11.042
45571W        W17897  31.909   2.440  13.503
45572W        W17898  22.253  24.732   4.173
45573W        W17899  15.315  35.932   2.036
45574W        W17900   6.183  43.963   3.071
45575W        W17901   9.047  40.740  14.053
45576W        W17902  34.637   5.335  11.850
45577W        W17903   3.483  23.301  13.316
45578W        W17904   8.943  19.976  13.783
45579W        W17905   2.229  28.643  14.430
45580W        W17906  10.758   3.740  12.998
45581W        W17907  19.755  32.986   1.227
45582W        W17908  21.935  27.871  14.004
45583W        W17909  34.507  26.566  13.079
45584W        W17910  32.151  30.065   2.608
45585W        W17911   2.723  29.398  12.943
45586W        W17912  28.409  28.051  11.939
45587W        W17913  43.184   2.856   4.298
45588W        W17914  37.488  37.621  14.834
45589W        W17915  20.677  34.816  12.468
45590W        W17916  43.554  19.522   1.898
45591W        W17917  25.533  26.710  11.604
45592W        W17918   9.647  20.225  12.473
45593W        W17919  41.042  17.292  13.365
45594W        W17920  11.110   4.865  14.325
45595W        W17921  27.592  30.066   0.982
45596W        W17922   3.417  17.991   3.330
45597W        W17923  16.235  28.178   3.964
45598W        W17924   3.179  30.999  13.511
45599W        W17925  11.372  39.913  13.837
45600W        W17926  35.914  12.744   4.561
45601W        W17927  30.518  40.352  10.939
45602W        W17928  10.152  29.087   3.207
45603W        W17929  17.491  16.315  13.460
45604W        W17930  16.749  30.658  14.814
45605W        W17931  18.720   0.226   1.753
45606W        W17932   7.296  10.875  11.890
45607W        W17933   4.474  26.423  12.134
45608W        W17934  21.154  26.928   2.754
45609W        W17935  34.436   5.350   1.372
45610W        W17936  29.045   4.218   2.892
45611W        W17937  32.026  12.195   0.205
45612W        W17938   0.321   4.883   2.810
45613W        W17939   6.354  27.461  14.429
45614W        W17940  34.897  32.714   2.350
45615W        W17941  44.367  24.587  12.379
45616W        W17942  21.080   4.111   3.835
45617W        W17943   4.615  35.915  13.328
45618W        W17944  15.336  39.207  13.372
45619W        W17945  37.374  39.777  13.327
45620W        W17946   3.492  31.448  13.979
45621W        W17947   2.558  19.363   1.243
45622W        W17948  10.588  13.536  12.875
45623W        W17949  41.453   1.269  14.838
45624W        W17950  39.581  36.822   3.587
45625W        W17951  20.928  39.887   0.504
45626W        W17952  38.930   9.495  11.094
45627W        W17953  41.889  18.725   2.814
45628W        W17954  16.181  30.633  10.634
45629W        W17955   5.170  11.823  12.040
45630W        W17956  24.122  20.188   4.195
45631W        W17957   3.814  38.407  13.036
45632W        W17958  28.640  17.755   4.596
45633W        W17959  42.083  12.706   3.260
45634W        W17960  27.616  18.607   0.831
45635W        W17961   5.350  21.093  13.829
45636W        W17962  17.784  43.059  12.612
45637W        W17963   8.281  37.158  14.468
45638W        W17964  36.164   3.757   1.792
45639W        W17965  12.752  23.771   2.221
45640W        W17966  25.258  40.410  14.349
45641W        W17967  10.216  21.960  11.572
45642W        W17968   9.222  36.934   3.487
45643W        W17969  17.939  12.758  12.965
45644W        W17970   5.625  37.487   4.936
45645W        W17971  42.939  18.082  12.432
45646W        W17972   3.465   4.884   1.291
45647W        W17973  21.601  41.501  11.698
45648W        W17974  14.701   2.231  14.967
45649W        W17975  21.187  14.122  11.603
45650W        W17976   5.200  39.886  10.838
45651W        W17977   2.043   3.227  10.620
45652W        W17978  30.500   6.281   3.431
45653W        W17979   2.797   8.233  14.482
45654W        W17980  42.713  41.133   0.435
45655W        W17981  17.575   7.825  12.862
45656W        W17982  12.140   3.194  12.513
45657W        W17983   1.296  24.024   2.687
45658W        W17984  28.301  11.387   0.470
45659W        W17985   1.564  16.208  14.266
45660W        W17986  28.420   5.719  12.085
45661W        W17987   0.502  27.743   2.893
45662W        W17988  42.341  37.676   3.325
45663W        W17989   6.460  11.590   4.431
45664W        W17990  28.688  27.247   1.772
45665W        W17991  26.177   0.950  11.201
45666W        W17992  17.800   7.259  14.150
45667W        W17993  11.683  12.188  14.860
45668W        W17994  23.596  36.388   1.309
45669W        W17995   1.245   1.786   4.731
45670W        W17996  29.981  33.901  12.060
45671W        W17997   0.202  30.144   3.565
45672W        W17998  21.269  42.998  11.996
45673W        W17999  10.246  14.206  11.962
45674W        W18000  15.612   9.763   1.908
45675W        W18001  38.852  25.691  11.979
45676W        W18002  38.312  34.031  13.916
45677W        W18003  40.009  33.134   2.706
45678W        W18004  43.175  44.747  13.756
45679W        W18005   9.548  36.700  11.164
45680W        W18006   3.601  31.435  10.954
45681W        W18007  34.554  40.821  10.882
45682W        W18008  22.083  18.630  11.564
45683W        W18009  16.324  40.700  13.515
45684W        W18010  27.410   1.711   4.282
45685W        W18011  37.637  20.516   4.007
45686W        W18012  11.604  10.000   1.691
45687W        W18013  40.422  28.052  14.056
45688W        W18014  10.279  40.027  10.677
45689W        W18015  11.786   8.909  13.544
45690W        W18016  13.803   1.009   2.466
45691W        W18017   3.396   1.114  13.816
45692W        W18018  43.955  16.390  11.197
45693W        W18019  10.064   7.776  12.892
45694W        W18020   4.628  34.107  12.000
45695W        W18021  27.669  37.935   1.781
45696W        W18022  36.992   3.802   2.831
45697W        W18023   9.983   9.256  11.479
45698W        W18024  23.946  28.115  14.723
45699W        W18025   6.353  42.311   4.265
45700W        W18026  28.874   8.768  13.538
45701W        W18027  15.217  25.131   2.184
45702W        W18028  21.571  13.342  10.804
45703W        W18029   2.586  29.189  11.617
45704W        W18030   3.543   9.314   3.723
45705W        W18031  25.099  29.614   3.199
45706W        W18032  14.610  36.965   2.873
45707W        W18033  39.271  15.673  13.046
45708W        W18034   9.969   2.081  12.594
45709W        W18035  20.827   8.026  14.437
45710W        W18036  22.110  15.294   1.343
45711W        W18037  33.979  12.260   3.423
45712W        W18038  28.573   9.055  11.601
45713W        W18039  21.675  21.131   4.024
45714W        W18040  21.597  27.983  14.999
45715W        W18041  33.545  34.562   4.330
45716W        W18042  25.483  39.641  12.610
45717W        W18043  36.378  34.491  10.207
45718W        W18044  33.978  26.813   1.763
45719W        W18045  13.828  35.344  12.869
45720W        W18046  36.566   4.922  11.642
45721W        W18047  39.027  25.973  12.906
45722W        W18048  17.694  29.542  11.619
45723W        W18049   9.839  17.714   4.445
45724W        W18050   9.869  42.303  12.477
45725W        W18051   0.731  35.111  14.992
45726W        W18052  37.461  11.298   1.488
45727W        W18053  13.939  17.692   0.402
45728W        W18054  26.839  42.377  10.683
45729W        W18055  27.118  38.302   0.679
45730W        W18056  40.389  35.035   0.763
45731W        W18057  38.351   3.255   4.607
45732W        W18058  18.598  32.615  10.597
45733W        W18059  24.021  27.973   1.811
45734W        W18060  33.451  39.748  12.387
45735W        W18061  23.532  18.125  13.804
45736W        W18062  29.364  39.374   0.765
45737W        W18063  24.590   5.433   0.417
45738W        W18064  41.917  34.435  11.886
45739W        W18065  11.323  35.851  10.041
45740W        W18066   5.208  28.696  10.674
45741W        W18067   2.279   1.789  10.252
45742W        W18068  24.761  19.299   3.855
45743W        W18069  31.957  28.464  11.258
45744W        W18070   7.195  28.355  13.498
45745W        W18071   1.553  34.013   1.970
45746W        W18072  41.332   9.805  12.475
45747W        W18073   4.443  31.497  12.442
45748W        W18074  19.598  38.881   2.763
45749W        W18075  19.265   0.843   3.885
45750W        W18076  19.600  11.215   1.450
45751W        W18077  36.638  26.098   4.460
45752W        W18078   6.347  32.533  13.527
45753W        W18079  10.918  15.770   0.073
45754W        W18080  26.109  19.131   3.270
45755W        W18081  15.015  33.932   1.419
45756W        W18082  23.575  30.929  12.006
45757W        W18083  31.417  29.562  12.456
45758W        W18084  37.293  28.415   2.857
45759W        W18085   9.810  14.606   0.237
45760W        W18086  24.504   4.390   3.598
45761W        W18087  35.056   2.117   3.265
45762W        W18088   2.390   6.930  12.467
45763W        W18089  13.642   2.547   2.316
45764W        W18090  40.524   5.808   2.345
45765W        W18091  19.534  22.717  11.110
45766W        W18092  18.702  39.693  13.825
45767W        W18093  42.734   6.413  13.466
45768W        W18094   2.911  14.649   0.727
45769W        W18095  39.947  29.050   0.264
45770W        W18096   6.024  43.790   0.900
45771W        W18097  29.718  39.830  12.941
45772W        W18098  18.741  27.362  13.952
45773W        W18099  25.901  34.552  14.274
45774W        W18100  13.158  24.056  11.127
45775W        W18101  14.777  38.613  11.605
45776W        W18102  42.825   5.209   3.639
45777W        W18103  12.665  37.164  14.962
45778W        W18104  16.670   7.422  12.042
45779W        W18105   5.881  14.089   1.810
45780W        W18106  42.235  17.669  14.150
45781W        W18107  44.322   5.654   3.260
45782W        W18108   4.287  30.829  11.088
45783W        W18109  10.328   4.878   1.403
45784W        W18110   9.802  24.622   2.685
45785W        W18111  31.423  21.070  13.488
45786W        W18112  27.488  28.684  11.033
45787W        W18113   1.317  28.891  13.869
45788W        W18114  28.153  44.841   0.925
45789W        W18115  32.983   2.797   4.046
45790W        W18116  37.799  29.542   0.736
45791W        W18117  15.862  37.454   2.200
45792W        W18118  41.219  34.523  11.874
45793W        W18119  40.107   8.716   1.971
45794W        W18120  29.203   7.166   3.277
45795W        W18121  31.709  22.632   3.118
45796W        W18122  19.167  31.935   2.872
45797W        W18123   4.072  30.506   4.138
45798W        W18124   6.233  37.572   1.930
45799W        W18125   1.071  41.639  13.829
45800W        W18126   0.491  40.200   2.599
45801W        W18127  41.496  37.376  12.604
45802W        W18128  17.888  15.494   1.570
45803W        W18129  42.733  27.191   2.364
45804W        W18130  40.575  12.728  11.103
45805W        W18131   6.849  25.600  11.885
45806W        W18132  29.505  34.077   1.954
45807W        W18133  24.729  13.578   3.194
45808W        W18134  41.824   4.494  14.740
45809W        W18135   6.996  39.944  14.284
45810W        W18136  12.216  44.760  14.907
45811W        W18137  25.645   1.353   2.748
45812W        W18138  29.141  17.645  13.387
45813W        W18139  35.088  30.085  14.897
45814W        W18140  43.356  32.262  14.509
45815W        W18141   1.469  30.660   3.304
45816W        W18142  14.839  20.079  12.026
45817W        W18143  40.487  34.443   1.842
45818W        W18144  31.583   6.273   1.409
45819W        W18145   0.994  27.753   2.230
45820W        W18146   8.948  39.578   3.224
45821W        W18147  13.151  26.603   3.327
45822W        W18148   8.133   9.746   1.325
45823W        W18149  14.331  10.635   4.587
45824W        W18150  35.964  36.906  10.700
45825W        W18151  26.890  17.831   0.754
45826W        W18152  38.109  42.326   0.328
45827W        W18153  44.908  13.884  14.513
45828W        W18154  24.141  29.140   0.394
45829W        W18155  35.359  21.225   0.817
45830W        W18156   6.018   0.338   4.750
45831W        W18157  38.345   5.125   0.482
45832W        W18158  10.600   8.902  12.542
45833W        W18159  25.746  27.151   1.775
45834W        W18160  25.650  37.957   3.351
45835W        W18161  32.464  12.665   1.651
45836W        W18162  16.030  41.106   0.405
45837W        W18163  23.421  44.246   0.707
45838W        W18164   9.290  25.273  10.957
45839W        W18165   1.416  30.169  12.550
45840W        W18166  28.369  21.641   2.757
45841W        W18167  18.029  40.521   2.958
45842W        W18168  13.036  19.901   3.286
45843W        W18169  14.062   4.929  11.065
45844W        W18170  41.487  42.968   0.298
45845W        W18171  12.918  18.144  13.465
45846W        W18172   8.234  29.153   4.338
45847W        W18173  37.307   0.544  14.729
45848W        W18174   4.757  36.425   4.301
45849W        W18175  42.777  37.334  14.776
45850W        W18176  28.586   1.988   3.780
45851W        W18177  17.652  36.880   3.397
45852W        W18178  23.778  37.329  10.326
45853W        W18179  30.484  34.334   2.214
45854W        W18180  40.104  12.816   1.020
45855W        W18181   1.371  29.123   2.250
45856W        W18182   2.716  23.126   1.964
45857W        W18183   3.931  41.315  11.624
45858W        W18184  16.136  27.021   0.870
45859W        W18185  33.155  36.333  10.513
45860W        W18186  41.131   4.537  11.009
45861W        W18187  36.419  10.944  11.559
45862W        W18188  27.429  10.354  14.304
45863W        W18189  19.234  37.909  10.675
45864W        W18190   5.455  21.260   0.879
45865W        W18191  31.910  28.546   0.493
45866W        W18192  33.413  40.404   2.704
45867W        W18193   4.922  29.261  12.561
45868W        W18194  22.450   9.968  10.075
45869W        W18195  22.466  19.777  13.142
45870W        W18196  38.134  33.995   0.943
45871W        W18197  21.583  18.312  11.423
45872W        W18198  19.518   4.586  14.465
45873W        W18199  21.430  35.086  11.941
45874W        W18200   8.712  34.827   4.759
45875W        W18201  11.566  30.115   2.821
45876W        W18202   1.789  34.871  12.853
45877W        W18203  10.174   2.497  13.868
45878W        W18204  44.385   8.683  13.340
45879W        W18205  15.648  16.271   3.623
45880W        W18206  17.875  34.384  11.685
45881W        W18207  14.631   5.146   3.389
45882W        W18208  16.314  34.896  13.933
45883W        W18209  41.859  10.388   2.862
45884W        W18210   7.148  35.416   4.155
45885W        W18211  25.157   3.385  13.142
45886W        W18212  10.147  32.838   0.809
45887W        W18213  36.019  12.867   1.775
45888W        W18214  21.407   2.810   2.799
45889W        W18215  34.019  33.140   5.528
45890W        W18216  33.071  10.010   2.117
45891W        W18217   8.425  33.934  13.320
45892W        W18218  12.237  38.536   4.346
45893W        W18219  43.119   7.434  12.488
45894W        W18220  10.676  44.087   4.481
45895W        W18221  33.355  40.062  11.043
45896W        W18222  23.183  15.693   1.483
45897W        W18223  12.358  19.703   2.298
45898W        W18224  37.996  18.318   1.228
45899W        W18225  28.788  25.664   2.662
45900W        W18226  34.912  35.419   5.663
45901W        W18227  10.075  11.675   5.119
45902W        W18228   2.920  28.137  14.822
45903W        W18229   3.947  10.008   1.511
45904W        W18230  35.021  12.535  13.847
45905W        W18231  21.938  36.787   1.785
45906W        W18232  27.449   9.457   1.281
45907W        W18233   5.813   1.505   4.232
45908W        W18234   8.183   1.676  10.198
45909W        W18235  31.147  39.276   3.926
45910W        W18236  12.112   6.408   3.215
45911W        W18237  36.233  12.894   0.236
45912W        W18238  13.880  11.346   1.418
45913W        W18239  34.155  29.669  13.364
45914W        W18240  27.981  18.984  11.958
45915W        W18241  40.846   5.371   1.782
45916W        W18242  32.288  43.995  10.492
45917W        W18243  18.893   1.563   0.761
45918W        W18244  14.403   1.470   2.817
45919W        W18245  33.953  33.820   0.545
45920W        W18246  11.419  24.643   3.607
45921W        W18247  12.059  28.479  14.822
45922W        W18248   7.225   5.942  14.837
45923W        W18249  42.839   5.642   3.375
45924W        W18250  38.012   2.924  10.616
45925W        W18251  39.622  33.496   0.500
45926W        W18252   2.383  35.779   4.145
45927W        W18253  32.278  18.499  10.437
45928W        W18254   9.267   3.652   3.657
45929W        W18255  26.129  39.285  14.703
45930W        W18256  38.773  10.103   1.388
45931W        W18257  32.663  10.764   2.695
45932W        W18258  15.634   0.382   4.857
45933W        W18259   7.131  25.415  12.272
45934W        W18260  40.836  43.966  13.378
45935W        W18261   5.769   7.756  13.459
45936W        W18262   8.407   4.753   4.632
45937W        W18263  26.533  22.814  13.587
45938W        W18264  12.311  27.061   5.303
45939W        W18265  32.467  39.004   0.284
45940W        W18266  14.879   8.140  10.795
45941W        W18267  20.052  28.445  11.004
45942W        W18268  20.939  15.363   2.887
45943W        W18269  39.946  42.444   1.675
45944W        W18270  39.746   2.438  11.456
45945W        W18271  21.119  31.932   2.841
45946W        W18272   0.724  23.116  13.588
45947W        W18273  16.618   1.853  13.214
45948W        W18274  11.145  13.774   4.095
45949W        W18275  36.944  12.774   3.150
45950W        W18276  23.136  14.784  13.898
45951W        W18277   8.348   2.518   0.839
45952W        W18278  44.082  32.751  14.376
45953W        W18279  36.794  29.877  11.548
45954W        W18280  32.012  29.203   0.844
45955W        W18281  15.074  19.712  10.719
45956W        W18282  22.140   2.956  14.757
45957W        W18283  30.840  27.901  13.314
45958W        W18284  41.778  23.157  12.799
45959W        W18285  39.433  14.242  10.903
45960W        W18286  41.800   7.409   4.752
45961W        W18287  43.371  25.988   1.901
45962W        W18288  17.521  17.081  12.376
45963W        W18289   2.954  38.998   3.690
45964W        W18290  12.112  35.296  10.545
45965W        W18291  36.681   2.027  10.736
45966W        W18292  13.379  33.122   1.303
45967W        W18293  44.776  37.589   4.596
45968W        W18294  39.836  12.388   1.794
45969W        W18295   6.182  44.850   2.234
45970W        W18296   3.626  13.369   0.394
45971W        W18297  34.951  43.165  11.625
45972W        W18298  43.161  41.990  13.868
45973W        W18299  11.745   0.944   2.775
45974W        W18300  12.844  38.575   3.399
45975W        W18301  34.821  12.407  14.739
45976W        W18302  27.707  17.265  13.882
45977W        W18303  35.325  39.939  12.904
45978W        W18304  10.005  27.437   4.470
45979W        W18305  31.677  11.987  12.353
45980W        W18306  26.089  14.125   3.199
45981W        W18307  25.671   0.844   2.715
45982W        W18308   3.880  37.370   3.078
45983W        W18309  18.510   3.212  11.907
45984W        W18310  21.031  20.741   4.292
45985W        W18311   5.368  36.318  13.368
45986W        W18312  30.589  36.582  12.067
45987W        W18313  43.441  20.655  13.289
45988W        W18314  35.586  40.441  10.774
45989W        W18315  16.303  21.090   1.915
45990W        W18316   4.446  12.279   5.906
45991W        W18317  14.028   2.972   1.149
45992W        W18318  30.063  18.811  12.306
45993W        W18319  14.804   8.792   4.967
45994W        W18320   5.182  42.443  14.090
45995W        W18321  37.832  23.947   2.835
45996W        W18322  40.250  40.566   1.449
45997W        W18323  20.789   5.844  12.492
45998W        W18324  24.810  43.549   1.743
45999W        W18325  29.039   3.254  14.091
46000W        W18326  32.859  20.307  12.811
46001W        W18327   9.146  11.251  12.067
46002W        W18328  31.558   3.697   3.103
46003W        W18329  10.305   5.460   3.229
46004W        W18330  37.606  34.518  13.012
46005W        W18331  27.092  30.106   2.441
46006W        W18332   9.659  32.055  10.482
46007W        W18333  39.156   9.312  14.406
46008W        W18334  30.065  28.184   0.286
46009W        W18335   4.441  24.732  14.462
46010W        W18336  23.638  24.495  14.038
46011W        W18337   0.195  18.855  11.081
46012W        W18338  21.665  19.436  12.956
46013W        W18339   0.483   9.918  13.407
46014W        W18340  29.543   5.328   0.663
46015W        W18341  20.276   8.734  14.318
46016W        W18342  39.511   1.292  14.650
46017W        W18343  37.996  10.520  10.709
46018W        W18344   3.362  19.207   3.782
46019W        W18345  39.305   4.340  13.058
46020W        W18346  27.073  38.562   4.773
46021W        W18347  26.013  27.269  13.293
46022W        W18348  27.048   8.251  11.033
46023W        W18349   1.770  23.876  13.559
46024W        W18350  35.301  27.912  10.303
46025W        W18351  17.148  25.930   0.397
46026W        W18352  23.979  36.999   1.744
46027W        W18353  33.725  25.311   4.110
46028W        W18354  17.817  35.193  12.155
46029W        W18355   2.432  40.514  11.722
46030W        W18356  27.847  38.990   0.371
46031W        W18357  24.768   0.976   1.668
46032W        W18358  32.131   3.685  14.434
46033W        W18359  42.879  13.704   0.757
46034W        W18360  20.335   1.303   3.424
46035W        W18361  20.317  23.207  11.066
46036W        W18362  19.041  44.415  13.979
46037W        W18363  22.274  27.258   4.336
46038W        W18364  10.100   3.195   5.054
46039W        W18365  19.541  44.356   3.732
46040W        W18366  33.376  38.598  14.417
46041W        W18367  31.740  44.349   0.304
46042W        W18368  25.612  22.117   1.849
46043W        W18369  36.668  42.298   3.351
46044W        W18370  17.070   9.091   2.705
46045W        W18371  36.468  37.109   4.227
46046W        W18372  33.342   8.471   3.908
46047W        W18373   8.339  37.317  12.523
46048W        W18374   8.476  10.621  13.591
46049W        W18375  12.402  24.945   1.852
46050W        W18376  23.941   1.440   0.826
46051W        W18377  11.856  33.852   0.791
46052W        W18378  42.893   0.929   3.463
46053W        W18379  12.232  13.076   2.040
46054W        W18380  16.807  18.007  10.919
46055W        W18381  40.564   3.428   4.199
46056W        W18382  26.224  27.892   2.672
46057W        W18383  24.709   0.064   4.812
46058W        W18384   3.362  33.096   1.767
46059W        W18385  15.392  28.261   1.942
46060W        W18386  13.037  30.481  12.091
46061W        W18387  28.577   3.414   1.463
46062W        W18388  28.388  39.328   3.131
46063W        W18389   8.673  32.939   2.974
46064W        W18390  24.162  28.366   9.936
46065W        W18391  14.481  34.855  10.738
46066W        W18392   2.363  28.264   3.535
46067W        W18393   4.751   9.812   3.240
46068W        W18394   4.804  33.535  14.003
46069W        W18395   3.383  19.728  12.996
46070W        W18396   5.944  24.449   0.022
46071W        W18397  30.567   3.371   1.223
46072W        W18398   6.249  27.713   0.404
46073W        W18399  33.445  30.574  12.573
46074W        W18400  37.999   4.859   2.796
46075W        W18401  25.548  15.218  10.410
46076W        W18402   2.054  42.010   2.291
46077W        W18403  15.325  20.227   3.591
46078W        W18404  43.648  13.937  11.167
46079W        W18405  42.500  25.438  14.385
46080W        W18406   0.037   0.657   0.960
46081W        W18407  13.498  10.346   4.520
46082W        W18408  40.550  31.729   4.319
46083W        W18409  11.961  34.512  13.859
46084W        W18410  25.267  21.862  11.949
46085W        W18411  29.030  19.820   0.678
46086W        W18412   7.636  36.952  13.732
46087W        W18413   4.978  34.130  11.546
46088W        W18414  19.762   0.911   3.676
46089W        W18415  16.666  22.960   0.392
46090W        W18416   1.146  27.449  14.415
46091W        W18417  35.581  33.983   0.784
46092W        W18418   6.521  13.499  13.910
46093W        W18419  23.982  17.439   4.727
46094W        W18420  16.906  18.185   5.031
46095W        W18421   1.967   2.516  11.238
46096W        W18422  22.978  19.245  11.549
46097W        W18423  31.934  29.689  11.538
46098W        W18424  24.343   6.743  12.799
46099W        W18425  22.112  34.749  12.551
46100W        W18426  40.590  13.629  11.665
46101W        W18427  23.740   0.371   1.306
46102W        W18428  28.608  19.011  14.877
46103W        W18429  29.465  12.353   3.093
46104W        W18430  19.524  11.126   4.906
46105W        W18431   7.386  20.499  13.606
46106W        W18432  11.680  30.693   3.131
46107W        W18433  25.125  26.580  10.739
46108W        W18434   8.954  17.960   2.291
46109W        W18435  23.513   8.670  10.640
46110W        W18436  42.900   2.532   4.042
46111W        W18437  10.301  14.258   1.772
46112W        W18438   3.339  43.924   3.639
46113W        W18439  15.671  38.064  14.987
46114W        W18440  26.590  39.312  14.452
46115W        W18441  11.190  10.311  13.199
46116W        W18442   2.506  24.129   2.790
46117W        W18443  34.147  27.650  14.328
46118W        W18444  16.375  37.923   1.931
46119W        W18445  43.959  36.919   4.634
46120W        W18446  43.267  17.125   2.378
46121W        W18447   0.360   2.364  10.783
46122W        W18448  25.649  33.120   4.426
46123W        W18449  44.663   2.818  12.337
46124W        W18450  18.044  43.777  13.334
46125W        W18451   9.344  38.216   2.727
46126W        W18452  22.028  10.056  11.845
46127W        W18453  11.880  38.635  11.486
46128W        W18454  29.625  24.354   3.685
46129W        W18455   1.500  31.997   2.801
46130W        W18456  13.885  11.883  11.109
46131W        W18457  16.571  28.513  12.605
46132W        W18458   7.356  16.082   0.762
46133W        W18459   0.986  10.276   5.105
46134W        W18460  39.951  35.110   2.231
46135W        W18461   3.383  33.541  11.026
46136W        W18462  37.068  12.254   4.994
46137W        W18463  11.888  42.526  14.861
46138W        W18464  29.214  35.551   0.876
46139W        W18465  38.231  34.324  14.496
46140W        W18466   3.626  19.061   1.927
46141W        W18467  11.176   2.157   2.804
46142W        W18468  29.092  39.785   2.901
46143W        W18469   1.358   6.658  14.725
46144W        W18470  29.178  11.257   0.918
46145W        W18471   0.008  20.764   3.293
46146W        W18472  23.168  33.112  11.556
46147W        W18473  42.024  29.188  13.142
46148W        W18474  10.255  14.871  12.977
46149W        W18475  27.540  10.778  11.669
46150W        W18476   6.710  26.485  12.634
46151W        W18477  18.452  29.538   2.316
46152W        W18478  35.021  20.772  14.901
46153W        W18479   9.802  27.069   4.778
46154W        W18480  20.804  21.306   0.561
46155W        W18481  24.950   0.588   2.877
46156W        W18482  35.051  20.064  14.160
46157W        W18483  11.487   0.547  12.213
46158W        W18484  30.636   2.865   3.691
46159W        W18485  14.056  24.061   1.339
46160W        W18486  27.630  33.994  10.676
46161W        W18487   4.017   4.188   3.426
46162W        W18488  42.862  43.468  11.171
46163W        W18489  40.902  36.751   4.611
46164W        W18490  15.378  37.857  10.670
46165W        W18491  16.905  27.601  13.668
46166W        W18492  37.406  12.371   3.724
46167W        W18493  14.630  24.294  10.053
46168W        W18494  32.517   8.619   0.779
46169W        W18495  19.169  18.135   0.695
46170W        W18496  44.982   8.795   4.753
46171W        W18497  44.658  13.268  13.351
46172W        W18498   5.857   8.497  14.479
46173W        W18499  21.632  28.929   2.310
46174W        W18500  21.138  32.335   5.092
46175W        W18501   9.703   0.239  12.040
46176W        W18502  23.018  28.967  14.949
46177W        W18503  10.516  34.783  11.477
46178W        W18504  22.797  24.270  12.888
46179W        W18505  42.959  33.439   1.928
46180W        W18506  18.173  29.713  14.471
46181W        W18507  32.443   7.813  14.602
46182W        W18508  27.178  26.447  14.815
46183W        W18509  25.674  18.953  11.062
46184W        W18510   5.203  35.860  14.285
46185W        W18511  29.548  10.752   3.320
46186W        W18512  32.940  44.041   1.658
46187W        W18513  12.284  42.875   3.238
46188W        W18514  10.716  42.699  11.928
46189W        W18515  39.999  13.164  14.610
46190W        W18516  31.580  37.118   2.109
46191W        W18517  23.068  37.799   1.883
46192W        W18518  37.615   6.833   1.213
46193W        W18519  16.330  14.821   2.252
46194W        W18520  24.513  12.341   2.745
46195W        W18521   2.947  13.288  11.234
46196W        W18522  21.264  23.521  10.667
46197W        W18523   2.356   1.034   4.022
46198W        W18524  42.969  40.777  13.944
46199W        W18525  12.468  22.184   2.333
46200W        W18526  21.239   0.488   4.433
46201W        W18527  32.668  25.683  11.449
46202W        W18528  44.568  25.284   4.111
46203W        W18529  35.788   0.748  13.419
46204W        W18530   9.702  13.358   2.703
46205W        W18531  15.730   2.165  13.210
46206W        W18532  13.211  23.715   4.353
46207W        W18533  24.541  29.561   3.910
46208W        W18534  34.712  36.077  13.678
46209W        W18535   4.764  33.879  13.271
46210W        W18536  38.039  32.580   2.330
46211W        W18537   4.842  40.111  11.193
46212W        W18538  43.927   8.998  12.051
46213W        W18539  16.698  42.967   2.861
46214W        W18540  11.378   9.398  12.868
46215W        W18541  19.810  23.879  13.402
46216W        W18542  31.145   5.041  12.430
46217W        W18543   3.843  18.276   3.232
46218W        W18544   7.671   9.884  12.522
46219W        W18545  12.070  25.892   2.818
46220W        W18546  41.241  10.149   4.964
46221W        W18547  23.111  17.355   4.990
46222W        W18548  43.245  43.724   4.179
46223W        W18549  40.965  32.969   0.051
46224W        W18550  17.941  21.569  14.005
46225W        W18551   3.720  40.526   3.317
46226W        W18552  12.386  27.614  12.352
46227W        W18553  36.979  40.188   4.788
46228W        W18554  16.065  37.886  11.743
46229W        W18555  19.898  20.537   3.745
46230W        W18556  31.296  33.588  12.009
46231W        W18557   9.859  33.154  14.429
46232W        W18558  23.061  29.620   3.296
46233W        W18559  19.753  31.180   4.957
46234W        W18560  38.079  22.038   3.743
46235W        W18561  44.038  12.209  12.338
46236W        W18562   3.270  29.689   2.202
46237W        W18563   7.742  18.623  11.418
46238W        W18564   0.270  43.334  10.722
46239W        W18565  25.299  33.031  12.485
46240W        W18566  11.364  32.000   0.543
46241W        W18567   9.405  21.628  14.872
46242W        W18568  16.975   5.904  14.254
46243W        W18569  17.807  37.499   0.976
46244W        W18570   4.999   9.949   2.816
46245W        W18571   1.530  40.540   4.431
46246W        W18572  29.964  30.957  13.846
46247W        W18573  28.121  11.174  13.031
46248W        W18574  35.507   8.616   4.609
46249W        W18575   4.251   2.900  11.168
46250W        W18576   9.745   6.366   3.138
46251W        W18577   9.861  41.851  13.361
46252W        W18578  41.946   7.170   4.299
46253W        W18579  31.473  10.819   4.681
46254W        W18580  13.851   1.120  13.401
46255W        W18581   2.504   7.824  12.621
46256W        W18582  18.337  25.616  14.289
46257W        W18583  25.720  35.366   5.063
46258W        W18584   3.036  30.649   1.392
46259W        W18585  15.702  23.702  11.800
46260W        W18586  16.585   8.078  10.652
46261W        W18587  29.512  37.825   1.795
46262W        W18588  38.271  34.096   2.251
46263W        W18589  29.938   6.124  11.734
46264W        W18590  20.232   5.447  14.372
46265W        W18591  44.346  27.717  12.608
46266W        W18592  15.852  24.263  12.887
46267W        W18593  29.395   9.851   3.099
46268W        W18594  17.629  16.312   4.906
46269W        W18595  36.952  11.772   4.841
46270W        W18596  33.447  28.697  10.262
46271W        W18597  17.705  38.314  12.445
46272W        W18598  39.470  20.947   3.680
46273W        W18599   8.642  26.735  12.173
46274W        W18600  27.880  32.633  13.881
46275W        W18601   2.926  31.666   3.136
46276W        W18602  27.208  21.138  10.252
46277W        W18603  44.668   7.919   1.415
46278W        W18604  33.448  18.839  14.484
46279W        W18605  26.691  19.771   2.265
46280W        W18606  23.939  42.995  14.229
46281W        W18607  41.356  29.937  10.787
46282W        W18608  17.171  31.614  10.774
46283W        W18609  21.602  18.598   4.135
46284W        W18610  17.808   0.762   3.194
46285W        W18611   2.771  31.861  12.419
46286W        W18612  18.524  13.281   0.542
46287W        W18613  32.533  12.762  11.563
46288W        W18614  21.493  15.330   0.048
46289W        W18615  25.107  39.416   2.042
46290W        W18616  35.995  26.983  12.066
46291W        W18617  35.550  19.291   3.187
46292W        W18618  13.414  32.523  13.870
46293W        W18619   2.968  30.498  14.163
46294W        W18620  29.378  30.793   5.022
46295W        W18621   0.828  42.403   3.160
46296W        W18622  24.897  28.085   1.904
46297W        W18623  23.086   7.464  11.636
46298W        W18624   1.775   9.639   0.024
46299W        W18625  43.858  29.096  11.125
46300W        W18626  34.819  17.565   3.268
46301W        W18627  11.533  28.054   4.565
46302W        W18628  25.624  27.489   3.440
46303W        W18629  20.095  10.067   2.195
46304W        W18630  29.143  29.449  14.919
46305W        W18631  24.677  34.020   2.869
46306W        W18632  25.934  11.687  11.561
46307W        W18633  40.444  40.211   2.878
46308W        W18634   5.818  30.369  14.409
46309W        W18635   9.352  37.674  11.364
46310W        W18636  24.929  21.674  12.384
46311W        W18637   4.905   2.746  12.504
46312W        W18638  41.826  28.596   2.322
46313W        W18639   6.644  19.628   4.236
46314W        W18640  27.709  44.743  14.774
46315W        W18641   3.622  27.943  12.438
46316W        W18642  13.772  10.879   0.585
46317W        W18643  27.600  41.859  10.575
46318W        W18644   4.460  32.556   1.095
46319W        W18645   8.769   9.664  14.490
46320W        W18646  20.142  20.528   0.949
46321W        W18647  32.877   5.893   0.723
46322W        W18648   0.937   6.375  13.786
46323W        W18649   9.815  21.146  11.646
46324W        W18650  29.586  29.621   3.642
46325W        W18651  15.190  40.782  13.000
46326W        W18652  35.020   5.451   4.220
46327W        W18653  40.476  32.043   1.940
46328W        W18654  10.231  24.788  10.918
46329W        W18655  41.285  21.816   3.961
46330W        W18656  31.605  41.788  12.660
46331W        W18657   6.187  21.723  11.123
46332W        W18658  29.243   0.430  13.961
46333W        W18659  19.992  31.316   2.882
46334W        W18660  27.023  40.629   1.956
46335W        W18661  20.099  34.990   3.426
46336W        W18662  15.309  28.134  10.599
46337W        W18663  27.399  44.378  12.867
46338W        W18664   7.265  28.655   4.073
46339W        W18665  39.433  14.549   2.391
46340W        W18666   7.660   0.885   1.908
46341W        W18667  38.413   3.205  13.824
46342W        W18668  27.004  30.587   2.575
46343W        W18669  13.330  31.664   0.315
46344W        W18670  40.421   3.941   1.185
46345W        W18671   8.139  29.755   0.491
46346W        W18672  25.758  24.770   2.450
46347W        W18673  37.792   6.469   2.421
46348W        W18674  25.190  43.889   1.454
46349W        W18675  43.497  20.224   2.388
46350W        W18676   8.602  44.773   0.034
46351W        W18677  22.560  38.764   2.130
46352W        W18678  41.841  20.573  13.118
46353W        W18679  28.931   2.826  13.795
46354W        W18680  44.544  41.303   4.575
46355W        W18681  23.990   9.799   0.336
46356W        W18682   6.857  12.070   1.243
46357W        W18683  24.379  11.833   3.554
46358W        W18684   9.850  42.559   3.176
46359W        W18685   6.184  31.653   4.620
46360W        W18686  30.234  41.374  14.846
46361W        W18687  34.831  21.725   4.385
46362W        W18688  37.260  41.636   4.619
46363W        W18689  10.985  25.919  12.003
46364W        W18690  31.380   0.143  11.104
46365W        W18691  36.527   4.302   4.649
46366W        W18692   0.269  39.942  12.040
46367W        W18693   4.727  27.643  11.730
46368W        W18694   8.848  43.185  11.342
46369W        W18695  26.553  22.072  10.530
46370W        W18696  35.803  44.959   3.710
46371W        W18697  19.774   9.825   2.521
46372W        W18698  23.003  14.355   3.234
46373W        W18699  16.212  31.037   4.664
46374W        W18700  44.491  16.501   5.275
46375W        W18701  34.803   2.455  14.753
46376W        W18702  27.827  11.157  12.580
46377W        W18703  13.555   7.771   3.123
46378W        W18704  19.091  32.605   3.723
46379W        W18705   7.077  27.620  13.446
46380W        W18706  43.556  26.092   0.081
46381W        W18707   5.657  39.495  11.402
46382W        W18708   3.566  19.230   1.141
46383W        W18709  24.268   0.794  11.678
46384W        W18710  44.032  10.309   2.855
46385W        W18711   2.333  41.107   4.212
46386W        W18712  17.560   8.214  14.122
46387W        W18713  34.542  29.921   1.696
46388W        W18714  33.415  22.582   0.920
46389W        W18715  10.683  17.248  10.656
46390W        W18716  25.594   6.695   1.473
46391W        W18717  23.018  25.020  10.429
46392W        W18718  33.117  29.565  14.610
46393W        W18719  33.587  11.292   2.294
46394W        W18720  28.751  26.641   2.733
46395W        W18721  38.978   7.162   2.112
46396W        W18722   1.333  35.624   3.263
46397W        W18723  41.488   2.092   2.348
46398W        W18724   4.886  27.909   2.482
46399W        W18725   5.345   9.392   3.600
46400W        W18726  16.668  19.649  14.419
46401W        W18727  41.265  11.353   1.773
46402W        W18728  11.599  13.218   4.593
46403W        W18729   4.171  28.172   0.285
46404W        W18730   6.755  26.528   0.507
46405W        W18731  26.624  13.528   4.671
46406W        W18732  14.238  10.683   0.813
46407W        W18733   7.246   9.871   2.950
46408W        W18734  36.375  10.295   4.803
46409W        W18735  37.367  41.937   4.157
46410W        W18736  32.437   8.331   2.475
46411W        W18737  22.635  38.968   0.352
46412W        W18738  32.937  44.807   3.130
46413W        W18739  28.839  42.397  11.498
46414W        W18740  42.080  18.474  10.937
46415W        W18741  37.917  25.312  10.339
46416W        W18742  37.251  22.531   0.435
46417W        W18743  11.675  38.892   2.140
46418W        W18744  20.546  22.060  13.404
46419W        W18745   2.900  24.447   5.077
46420W        W18746  12.665  15.817  13.838
46421W        W18747  23.506   0.765   0.391
46422W        W18748  33.373  12.477   0.623
46423W        W18749  37.089  29.985   0.850
46424W        W18750  10.100   7.599  11.592
46425W        W18751  25.870  31.621   0.078
46426W        W18752  26.232   8.387   2.679
46427W        W18753   9.324  24.930  12.279
46428W        W18754  31.093  31.019   0.378
46429W        W18755  11.588  32.015   3.250
46430W        W18756  37.860   5.636  14.758
46431W        W18757  23.011  32.600  11.622
46432W        W18758  11.858   4.878  11.673
46433W        W18759  39.348  12.916   4.667
46434W        W18760  29.272   9.350   2.926
46435W        W18761  36.903  42.987  13.378
46436W        W18762   1.917  13.651  14.934
46437W        W18763  44.776  27.001   2.915
46438W        W18764   9.213  14.156   0.896
46439W        W18765  12.803  12.330   1.184
46440W        W18766  23.160   2.249   2.212
46441W        W18767   4.189  39.231   0.058
46442W        W18768  36.622  39.251  11.052
46443W        W18769   2.811   2.205   2.582
46444W        W18770  44.267  44.988  13.941
46445W        W18771  32.625  14.312  11.504
46446W        W18772  15.076  38.560   0.890
46447W        W18773  25.625  31.331  14.290
46448W        W18774  14.530  11.731   4.847
46449W        W18775  16.155  43.035   0.549
46450W        W18776  30.973  27.106   2.438
46451W        W18777  21.468  25.253  11.595
46452W        W18778  15.214  32.686   3.324
46453W        W18779  35.543  16.177  10.971
46454W        W18780   1.758  29.091  13.057
46455W        W18781  10.999  39.804  13.500
46456W        W18782  18.571  34.021  13.821
46457W        W18783  23.515  42.589  11.989
46458W        W18784   5.746  26.607   0.492
46459W        W18785  39.008   1.543  13.048
46460W        W18786  38.989  19.935   2.345
46461W        W18787  19.468  30.823  11.712
46462W        W18788  20.645  17.354   2.384
46463W        W18789  14.348  12.356   2.370
46464W        W18790   6.791  34.384  13.749
46465W        W18791  20.929  25.998  13.291
46466W        W18792   6.320   6.377  14.936
46467W        W18793   1.989  31.610   2.916
46468W        W18794   0.328  44.571  13.005
46469W        W18795   3.904  15.679   2.929
46470W        W18796  42.212   8.763  13.590
46471W        W18797   1.084  34.508   2.533
46472W        W18798  26.588  26.461   4.830
46473W        W18799  14.707   6.914   4.728
46474W        W18800  16.223  32.073   1.044
46475W        W18801  16.836   4.384   0.911
46476W        W18802  27.609  26.678  13.338
46477W        W18803  37.874  13.437   4.184
46478W        W18804  11.267  18.336   2.840
46479W        W18805  22.050   5.996  13.317
46480W        W18806  19.777   2.819  11.556
46481W        W18807  42.963  13.807  11.058
46482W        W18808   9.094  43.875   1.423
46483W        W18809  23.678  35.286  13.935
46484W        W18810  25.825  26.230   4.962
46485W        W18811  11.012   8.980   0.918
46486W        W18812  18.062  28.154   0.397
46487W        W18813  36.434  21.377   2.615
46488W        W18814  34.205  18.774  13.436
46489W        W18815  11.159  30.036  12.834
46490W        W18816  14.358  14.879   4.258
46491W        W18817   8.705   8.390  13.014
46492W        W18818  44.278  42.275  13.803
46493W        W18819  30.082  27.066   1.950
46494W        W18820  16.247  31.414   0.303
46495W        W18821  29.627  15.557   2.550
46496W        W18822  10.743  27.584  14.543
46497W        W18823  10.637   2.262  13.928
46498W        W18824  17.140  24.212   2.154
46499W        W18825   3.143  10.691   4.461
46500W        W18826  44.938   7.894  12.321
46501W        W18827  26.440  33.864   4.655
46502W        W18828  40.901  14.620   0.809
46503W        W18829  35.564  27.645  11.428
46504W        W18830  30.934  35.340  12.058
46505W        W18831  20.817  23.200   3.338
46506W        W18832  31.194  39.350  12.184
46507W        W18833   3.468   0.020   4.646
46508W        W18834   4.740   7.751  12.397
46509W        W18835  13.089  38.409   0.135
46510W        W18836  34.844  41.923   0.782
46511W        W18837   3.934   9.334   2.361
46512W        W18838  30.933  18.610   2.732
46513W        W18839  34.748  23.438   1.836
46514W        W18840  19.337  31.980  14.827
46515W        W18841  42.695  19.291  14.596
46516W        W18842  23.361  39.460   4.596
46517W        W18843  18.775  38.330  13.287
46518W        W18844  11.440  10.444   1.502
46519W        W18845   7.857  43.445  14.298
46520W        W18846  33.391  16.346   1.156
46521W        W18847   3.023  15.342  10.502
46522W        W18848  10.102  37.424   1.904
46523W        W18849  43.961  21.183  13.325
46524W        W18850  39.328  16.129  10.560
46525W        W18851  31.538  42.295   3.176
46526W        W18852   4.823  40.079  13.388
46527W        W18853   1.771  15.415  12.130
46528W        W18854  13.823   7.125   4.781
46529W        W18855  28.923  20.140   3.361
46530W        W18856   4.272   8.171   0.279
46531W        W18857  43.965  44.933   0.357
46532W        W18858   6.199  28.785   0.447
46533W        W18859  25.563  37.812  14.800
46534W        W18860  36.508  44.546   4.723
46535W        W18861   4.844   2.191  11.640
46536W        W18862  31.793   8.812  13.653
46537W        W18863   6.225  36.982  14.279
46538W        W18864  37.144  14.580  10.677
46539W        W18865  43.586  33.477  13.873
46540W        W18866   5.450  23.725   3.008
46541W        W18867  11.846   0.825  13.333
46542W        W18868  41.025  43.739  14.175
46543W        W18869  16.172  18.252  12.527
46544W        W18870  24.551  12.376   1.806
46545W        W18871  20.147  11.535   2.418
46546W        W18872  42.140  19.591   3.906
46547W        W18873   0.308  10.917  12.987
46548W        W18874  38.149  27.409   2.257
46549W        W18875  40.004   9.750   1.458
46550W        W18876   6.179  34.942  11.947
46551W        W18877  13.739   0.027   0.836
46552W        W18878  28.247   4.759   0.823
46553W        W18879  18.179  26.601   4.625
46554W        W18880  13.073  19.740  13.832
46555W        W18881  23.698  36.304  11.443
46556W        W18882  34.338  42.083  13.869
46557W        W18883  20.714  37.111  12.961
46558W        W18884  43.480   5.126  13.969
46559W        W18885  38.949  21.527   1.262
46560W        W18886  37.488   8.916  14.954
46561W        W18887  21.992   8.805  11.536
46562W        W18888  34.565  15.327  13.845
46563W        W18889  27.366  21.030  13.548
46564W        W18890  25.757  23.530   2.779
46565W        W18891  17.845  10.774  11.611
46566W        W18892  18.797   4.886  11.217
46567W        W18893  20.006  19.758  14.886
46568W        W18894  15.872   8.792  12.952
46569W        W18895  19.574   1.630   0.772
46570W        W18896  40.422  18.336   3.297
46571W        W18897  39.992   1.487   3.524
46572W        W18898  28.815   1.875   4.262
46573W        W18899   8.960  34.923  11.586
46574W        W18900   0.865  34.158   1.533
46575W        W18901  18.740  21.967   0.974
46576W        W18902   1.757  25.869  13.933
46577W        W18903   3.203  14.268  14.018
46578W        W18904  25.199  12.772   2.781
46579W        W18905  21.269  16.332   2.298
46580W        W18906   4.374   3.938  11.273
46581W        W18907  44.639  13.805  11.004
46582W        W18908  29.108  30.873   0.884
46583W        W18909  41.442  32.422   0.565
46584W        W18910  14.508  36.549   1.487
46585W        W18911  13.018  28.651  14.600
46586W        W18912  26.888  30.644   4.440
46587W        W18913  41.937  36.313   1.809
46588W        W18914  18.303  42.870  10.763
46589W        W18915   7.633  15.666  10.755
46590W        W18916  11.633   4.792   5.293
46591W        W18917  23.732  38.803   3.335
46592W        W18918  34.634  14.755   0.244
46593W        W18919  19.289  38.062   3.301
46594W        W18920  19.685  23.896  12.039
46595W        W18921  12.801  15.346  11.267
46596W        W18922   8.260   5.200  10.763
46597W        W18923  35.315  22.942  11.568
46598W        W18924  34.272  33.561   4.567
46599W        W18925  19.526  38.311  10.813
46600W        W18926  34.380   8.583   0.782
46601W        W18927  20.767  41.336   1.304
46602W        W18928  11.204  17.214  11.589
46603W        W18929  10.112  38.775   1.608
46604W        W18930  31.358  38.276  11.039
46605W        W18931  29.482  34.434  13.092
46606W        W18932  27.352  16.651  13.427
46607W        W18933  19.268  31.045  12.429
46608W        W18934   7.954  21.517  13.828
46609W        W18935  22.689  17.639   3.347
46610W        W18936  29.560  14.650   4.078
46611W        W18937   2.615  19.591   4.753
46612W        W18938   0.452  21.620   3.928
46613W        W18939   0.725  16.703   4.513
46614W        W18940  29.939  37.568  12.893
46615W        W18941   9.084  36.241  13.954
46616W        W18942  25.202   0.371   3.296
46617W        W18943   1.732  33.673   1.166
46618W        W18944  14.502  20.663  14.594
46619W        W18945  35.940  39.398   0.066
46620W        W18946  38.065  15.160   0.247
46621W        W18947   1.975  17.218  10.841
46622W        W18948  38.557  40.491  10.635
46623W        W18949  17.800   3.779  10.592
46624W        W18950  28.707  11.173  13.395
46625W        W18951  30.931  40.343   0.968
46626W        W18952  37.795  19.430  14.867
46627W        W18953   1.529   6.381  11.993
46628W        W18954  26.621  23.929   5.071
46629W        W18955   2.396  34.880   0.515
46630W        W18956  34.441  42.594   1.662
46631W        W18957   1.184   4.261   0.509
46632W        W18958  40.281  33.253  13.494
46633W        W18959   7.953  23.783  14.491
46634W        W18960  41.326  33.401   3.358
46635W        W18961  42.518   0.897  13.813
46636W        W18962   2.995  13.767  14.049
46637W        W18963  28.737  12.462   3.777
46638W        W18964  44.829  19.750  13.978
46639W        W18965  39.793   5.356   0.526
46640W        W18966   8.302   0.051   4.229
46641W        W18967  25.510  32.670   4.113
46642W        W18968   2.819  32.346  13.521
46643W        W18969   6.606  22.983  12.503
46644W        W18970  26.229   5.733   3.323
46645W        W18971  41.895   7.809   0.941
46646W        W18972  35.040  16.004  14.532
46647W        W18973  43.734  36.526   4.358
46648W        W18974  19.213  37.408   2.277
46649W        W18975  27.937  21.035   2.238
46650W        W18976  25.550   4.004   0.386
46651W        W18977  31.927  37.933   3.364
46652W        W18978  37.993   6.324  14.253
46653W        W18979  37.463  33.881  11.775
46654W        W18980  12.505  27.040  12.667
46655W        W18981  19.996  11.349   2.882
46656W        W18982  18.049  26.701   5.132
46657W        W18983  37.296  30.477   4.078
46658W        W18984  20.783  35.421   4.624
46659W        W18985  20.642  22.271   1.404
46660W        W18986  25.631  33.920  12.082
46661W        W18987  34.126  42.887   4.584
46662W        W18988  17.311  33.622   4.051
46663W        W18989   3.908   6.173   1.712
46664W        W18990   1.319  21.744  10.240
46665W        W18991  29.958  30.576   1.662
46666W        W18992  21.122  36.594   5.020
46667W        W18993  41.797  28.861  13.491
46668W        W18994  26.391  36.013   2.403
46669W        W18995   1.871   6.232   1.065
46670W        W18996  33.950  43.983  14.948
46671W        W18997  19.488  15.990  14.826
46672W        W18998   4.313  12.910  14.018
46673W        W18999  34.943  15.304  10.673
46674W        W19000   3.497   4.347  10.215
46675W        W19001  38.336   7.950  12.847
46676W        W19002  29.860   9.155   3.751
46677W        W19003  26.310   8.428   4.005
46678W        W19004  26.144  43.213   0.444
46679W        W19005  40.080   7.824   3.177
46680W        W19006  17.181  35.922   4.145
46681W        W19007  40.436  10.771  11.411
46682W        W19008   9.824  33.087  13.227
46683W        W19009  22.966  19.078   2.781
46684W        W19010  34.173  21.631  13.279
46685W        W19011   2.404  24.098   5.750
46686W        W19012  29.091  32.099   3.865
46687W        W19013   8.971  27.713  12.409
46688W        W19014  30.968  13.882  12.120
46689W        W19015  39.292  25.767  11.023
46690W        W19016   7.334  16.621  14.511
46691W        W19017  33.304  26.713   4.148
46692W        W19018  17.335  18.123   0.792
46693W        W19019  32.162  21.620   1.302
46694W        W19020  42.345  17.277   4.576
46695W        W19021   1.989  21.243   2.349
46696W        W19022  32.625  22.718  11.581
46697W        W19023  21.073  24.524   1.308
46698W        W19024  17.089   2.192  14.803
46699W        W19025  31.967  16.840  10.340
46700W        W19026  12.260  34.145  14.986
46701W        W19027   3.440  40.419   2.870
46702W        W19028  12.160  35.201   0.932
46703W        W19029  28.566   2.558  14.403
46704W        W19030  43.060  13.333   1.097
46705W        W19031  42.979   1.622   4.177
46706W        W19032   5.550   1.827  12.010
46707W        W19033  36.798  16.245  14.872
46708W        W19034  27.102  17.267  12.328
46709W        W19035   7.276  31.058   3.789
46710W        W19036  38.363  18.385  10.568
46711W        W19037  37.406  36.036   3.402
46712W        W19038  18.378  25.142  13.090
46713W        W19039  42.817  17.669  14.027
46714W        W19040  34.424  33.420   3.504
46715W        W19041  24.199   9.643  14.752
46716W        W19042  32.672  34.452   4.972
46717W        W19043  17.311  25.040  12.756
46718W        W19044  42.515  40.475  14.038
46719W        W19045  27.195  10.821   0.506
46720W        W19046  10.740  41.870  11.854
46721W        W19047   0.389   8.077  14.930
46722W        W19048  44.505  15.069  14.359
46723W        W19049   8.593  11.128   3.704
46724W        W19050  16.648  15.171  13.804
46725W        W19051   9.616  44.980  12.516
46726W        W19052  38.452  41.103  12.515
46727W        W19053   9.864  29.129   4.480
46728W        W19054  33.361  33.131   2.765
46729W        W19055  30.493  23.098  14.992
46730W        W19056  24.819  42.926  13.037
46731W        W19057  38.949  26.415   3.328
46732W        W19058   5.357  23.064  11.058
46733W        W19059  39.858   3.194  11.291
46734W        W19060  40.799  37.872  11.693
46735W        W19061  25.880  16.390  13.500
46736W        W19062  44.210  30.474  10.383
46737W        W19063  29.729  32.126   0.432
46738W        W19064  30.748  14.854   3.051
46739W        W19065  39.271   2.034  13.202
46740W        W19066   8.227  33.576  11.662
46741W        W19067  28.427   6.459   0.205
46742W        W19068  27.530  12.235   2.954
46743W        W19069  29.179  40.530   2.208
46744W        W19070  30.901   3.384   5.159
46745W        W19071  44.201  43.956   2.361
46746W        W19072   8.209   8.598  12.961
46747W        W19073   1.465  10.134   1.461
46748W        W19074  10.590  12.406   4.121
46749W        W19075  41.835  11.798   3.858
46750W        W19076  27.829  34.264   4.119
46751W        W19077  44.233  23.079  12.587
46752W        W19078   7.404  34.000  12.361
46753W        W19079   9.165  37.356   4.654
46754W        W19080  43.512  39.590  12.561
46755W        W19081  21.846  14.545  11.891
46756W        W19082  41.969   7.873  13.561
46757W        W19083   3.380  27.899   1.811
46758W        W19084  15.759  20.487   4.595
46759W        W19085  28.215  13.758  12.908
46760W        W19086   5.155  38.860   1.061
46761W        W19087  38.090  37.536   4.938
46762W        W19088   9.078  19.416  13.390
46763W        W19089  17.627  23.277   2.706
46764W        W19090  41.644  31.940   3.644
46765W        W19091  21.798  33.736   0.575
46766W        W19092  34.570  26.077  13.408
46767W        W19093  12.787  17.559   4.127
46768W        W19094  29.831  42.675   4.139
46769W        W19095  14.547  44.212   3.831
46770W        W19096  16.272  36.278  12.938
46771W        W19097   6.398  33.153   3.168
46772W        W19098  35.038   8.709  11.988
46773W        W19099  18.521   9.234  14.418
46774W        W19100  42.015  12.318   2.432
46775W        W19101  29.843  10.450  13.579
46776W        W19102  22.723  32.194   3.656
46777W        W19103   5.211   5.782  13.407
46778W        W19104  39.954  21.767   0.243
46779W        W19105  19.247   7.333  12.613
46780W        W19106   9.932  15.142   3.650
46781W        W19107  36.375  33.206   2.444
46782W        W19108   8.507  40.844  11.613
46783W        W19109  21.719   5.123   2.174
46784W        W19110  31.537  20.565  10.703
46785W        W19111  17.381  31.656   1.706
46786W        W19112  10.221  28.939   1.182
46787W        W19113   3.320  29.671   1.395
46788W        W19114  15.676  15.334  13.016
46789W        W19115  38.797  26.380  11.505
46790W        W19116  23.253  43.205   1.524
46791W        W19117  40.215  20.220   4.670
46792W        W19118  15.490  40.609  13.373
46793W        W19119   6.018  36.273  11.202
46794W        W19120  36.150  36.236  12.128
46795W        W19121  32.800  28.627  14.871
46796W        W19122  29.002  41.002   3.132
46797W        W19123  38.745   2.434  11.565
46798W        W19124  20.187   3.274   1.147
46799W        W19125  37.130   9.305   3.994
46800W        W19126  39.187  24.690   3.065
46801W        W19127  14.300  36.884  11.992
46802W        W19128  11.838  22.284  12.020
46803W        W19129  11.584  23.737  12.000
46804W        W19130   8.602  43.487   3.226
46805W        W19131   1.991  11.617   2.356
46806W        W19132   7.614  27.789  14.652
46807W        W19133  11.695  35.099   3.638
46808W        W19134   6.831  42.574  12.638
46809W        W19135  39.074  40.925   1.866
46810W        W19136   5.221  25.384   3.036
46811W        W19137  41.468  32.502  12.081
46812W        W19138  13.302  24.700  12.254
46813W        W19139  39.972   9.957  13.344
46814W        W19140  30.408   4.943  14.268
46815W        W19141  39.276  30.640   3.767
46816W        W19142  20.624  11.216  11.106
46817W        W19143  21.736   5.473   0.040
46818W        W19144   8.136   5.662  12.220
46819W        W19145   1.749  21.533   0.742
46820W        W19146  16.771  25.535   3.159
46821W        W19147  21.777  28.818  10.900
46822W        W19148  40.859  12.275  12.373
46823W        W19149  15.066  31.598  11.107
46824W        W19150  33.539   7.663  12.407
46825W        W19151  41.999   7.888   1.451
46826W        W19152  14.850  24.810   3.292
46827W        W19153  20.983  13.694   0.711
46828W        W19154  30.878  19.813  13.809
46829W        W19155  24.178   2.027  10.562
46830W        W19156  18.610   7.915   0.626
46831W        W19157   1.988  16.266  12.601
46832W        W19158  18.666  18.531  13.085
46833W        W19159  36.076  43.433  14.793
46834W        W19160  38.823  14.139   2.621
46835W        W19161  20.749  24.240  14.051
46836W        W19162  32.566  42.275  13.545
46837W        W19163   2.763  42.046   0.911
46838W        W19164  19.834  39.746   4.196
46839W        W19165   6.094   1.031  13.022
46840W        W19166  11.126  36.900   3.903
46841W        W19167  33.594   9.745  10.786
46842W        W19168  29.177  35.609  14.596
46843W        W19169  32.342  18.308   2.832
46844W        W19170  11.234  12.073  13.934
46845W        W19171  41.066  17.483   3.715
46846W        W19172  17.680  35.208   0.826
46847W        W19173  31.434  37.362  14.464
46848W        W19174   7.243  19.613  13.537
46849W        W19175  29.766   0.358  10.165
46850W        W19176  36.490  26.725  11.765
46851W        W19177   3.628  24.260  12.537
46852W        W19178  37.302  44.670   3.265
46853W        W19179  30.892  13.751  11.176
46854W        W19180   8.865  16.838  11.588
46855W        W19181  12.559  41.810  12.515
46856W        W19182   7.274   5.959  14.314
46857W        W19183  22.770  38.411  14.862
46858W        W19184  29.031  32.438   1.362
46859W        W19185  21.544   0.292   1.705
46860W        W19186  30.898   7.511   0.476
46861W        W19187  38.421  16.633   4.439
46862W        W19188  12.770  34.981  13.858
46863W        W19189  30.997  36.847   4.157
46864W        W19190  32.267  44.199  11.103
46865W        W19191  14.052  39.558  13.146
46866W        W19192  13.639  19.020  13.852
46867W        W19193   8.896  23.104  10.714
46868W        W19194  38.892  10.359   0.271
46869W        W19195  38.046   7.202  11.427
46870W        W19196  21.165   5.501  14.545
46871W        W19197  14.056  33.506  14.609
46872W        W19198  32.683  20.259  11.705
46873W        W19199  15.616   2.525   4.154
46874W        W19200  28.676  13.565   2.803
46875W        W19201  35.931  35.487  12.657
46876W        W19202  38.134  18.328   2.689
46877W        W19203  25.531  22.135  10.673
46878W        W19204  38.458  19.690  10.395
46879W        W19205   3.377  39.067  12.592
46880W        W19206   1.828  36.882  12.934
46881W        W19207  22.275  40.829   4.164
46882W        W19208  37.190  43.961   3.871
46883W        W19209  11.838  44.728   0.630
46884W        W19210  42.067  19.015  14.011
46885W        W19211  44.495  15.724  12.365
46886W        W19212  19.769   4.857  14.999
46887W        W19213  19.835  10.351  12.170
46888W        W19214   4.889   3.814  11.564
46889W        W19215  18.352  29.955  14.911
46890W        W19216  10.219   5.211  12.381
46891W        W19217  21.561  10.856  12.288
46892W        W19218   4.356  33.792  10.754
46893W        W19219  35.113  12.237   0.130
46894W        W19220   0.360  35.584   0.388
46895W        W19221  35.309  39.820   1.690
46896W        W19222  28.179  17.819   3.271
46897W        W19223  32.819  27.020  11.900
46898W        W19224  24.477   5.717   2.228
46899W        W19225  36.484  43.865   0.251
46900W        W19226   1.963  18.308   1.867
46901W        W19227  24.678  42.558  13.367
46902W        W19228  41.108  30.847  11.558
46903W        W19229  44.721   7.732   5.004
46904W        W19230  14.254  16.169  11.232
46905W        W19231  29.868   4.139   0.491
46906W        W19232  11.772  20.058   0.388
46907W        W19233  14.160  31.719  12.092
46908W        W19234  11.666  30.479  12.569
46909W        W19235  12.699  18.595   1.683
46910W        W19236   1.868   9.726   3.645
46911W        W19237  38.625  37.830  11.318
46912W        W19238  14.702  37.330  12.436
46913W        W19239  14.865   8.345   0.083
46914W        W19240  21.693  20.116   1.367
46915W        W19241  43.416   8.327  10.607
46916W        W19242  30.986  32.937   2.679
46917W        W19243  33.165  11.843  12.596
46918W        W19244  26.970   5.298  12.470
46919W        W19245  17.710  37.124   4.313
46920W        W19246  30.363  11.168  11.090
46921W        W19247   3.745  17.127   3.336
46922W        W19248  36.891  27.235  14.009
46923W        W19249  24.151  22.224   2.933
46924W        W19250  19.246  31.058   4.611
46925W        W19251  32.611  29.452   3.832
46926W        W19252  41.538  44.269  14.864
46927W        W19253   1.759  40.300   2.340
46928W        W19254  17.293  10.864  12.333
46929W        W19255  33.111  14.778   3.344
46930W        W19256  13.548   5.484  13.847
46931W        W19257  11.790  12.229   4.662
46932W        W19258  41.524  14.890  14.944
46933W        W19259  32.574  16.565  12.518
46934W        W19260  16.053  17.528   1.601
46935W        W19261   9.155  34.487  13.504
46936W        W19262   9.174   6.525   0.366
46937W        W19263  16.609  28.620  14.499
46938W        W19264  32.412  21.278   2.701
46939W        W19265  29.948  29.494   0.221
46940W        W19266  21.519  29.204   1.717
46941W        W19267   5.688  10.969   0.615
46942W        W19268  25.035  25.063   2.684
46943W        W19269   4.110   5.675   1.672
46944W        W19270  44.937  42.307   4.587
46945W        W19271  24.472  37.049  10.701
46946W        W19272  11.842  11.278  14.976
46947W        W19273   2.808   0.367  11.655
46948W        W19274  16.326  34.552  13.348
46949W        W19275  25.457  25.904   4.850
46950W        W19276   0.437  26.960  10.916
46951W        W19277  18.746  39.327  12.731
46952W        W19278   9.667  11.067   3.439
46953W        W19279   0.769  37.429  12.593
46954W        W19280  22.471  37.436  14.384
46955W        W19281   3.178  30.145   0.399
46956W        W19282  40.736  27.895   1.343
46957W        W19283  37.652  13.957   3.817
46958W        W19284  13.748  16.783   1.961
46959W        W19285   3.875  17.316   1.478
46960W        W19286  10.693  10.469   4.150
46961W        W19287   8.159  32.429   2.258
46962W        W19288  37.054  43.321  13.005
46963W        W19289   9.356  29.848   4.107
46964W        W19290  37.486  10.015   2.762
46965W        W19291  39.614  39.103  12.614
46966W        W19292   0.349   1.905  14.815
46967W        W19293  37.889  20.568   1.176
46968W        W19294  20.526   7.127  11.542
46969W        W19295  31.348  42.918   0.045
46970W        W19296  39.989  38.020   1.849
46971W        W19297   4.947   0.568  10.551
46972W        W19298  31.403  13.420   3.662
46973W        W19299  37.750  14.027   2.522
46974W        W19300  12.205  30.157   0.410
46975W        W19301  40.555   2.303  12.077
46976W        W19302  25.179  40.527   0.750
46977W        W19303  19.448  30.413  14.334
46978W        W19304  37.793  23.461  10.209
46979W        W19305  16.823  20.260  12.986
46980W        W19306  24.993  13.932   0.316
46981W        W19307  24.117  15.864   1.372
46982W        W19308   7.252  17.458  12.426
46983W        W19309  25.223  10.135   3.777
46984W        W19310  43.661  17.905   3.208
46985W        W19311   4.341  27.043   2.970
46986W        W19312  20.543   1.271  12.903
46987W        W19313  12.861  40.891   3.671
46988W        W19314  15.587  37.516  12.823
46989W        W19315  37.222  25.460   0.374
46990W        W19316  23.317  19.646  12.421
46991W        W19317  23.766  43.745  11.213
46992W        W19318  20.097   3.282   0.633
46993W        W19319  22.064   7.965  12.533
46994W        W19320   8.726  12.203  14.023
46995W        W19321   5.555  30.556   0.222
46996W        W19322  43.941  31.045   2.956
46997W        W19323  16.556  33.662  12.030
46998W        W19324  27.031  11.167   4.625
46999W        W19325  10.401   3.958  13.766
47000W        W19326  38.403   9.590  13.526
47001W        W19327  37.156  13.174   2.862
47002W        W19328   1.751  10.660   4.658
47003W        W19329  40.781   1.136  12.013
47004W        W19330  42.319  38.879  14.926
47005W        W19331  33.329  23.457   1.831
47006W        W19332  20.291  28.143  14.942
47007W        W19333  44.041  35.120  14.350
47008W        W19334  28.928  39.631   1.711
47009W        W19335  29.100  12.699   2.396
47010W        W19336  16.150   6.219   0.902
47011W        W19337  15.694   2.787   2.789
47012W        W19338  39.440  32.751  14.474
47013W        W19339  37.143  36.545   1.919
47014W        W19340   8.775  19.070   0.836
47015W        W19341  13.542  16.545   3.279
47016W        W19342  40.914  21.191  11.880
47017W        W19343  36.874  34.567   2.203
47018W        W19344   4.745  19.019  12.962
47019W        W19345  10.948  24.726   5.162
47020W        W19346  26.236  20.079   2.171
47021W        W19347  41.301  15.860   0.856
47022W        W19348  26.854   8.120  14.745
47023W        W19349  38.713  11.325  10.862
47024W        W19350   4.664  14.362  12.558
47025W        W19351  41.895  24.921  10.435
47026W        W19352  36.572  30.199   0.370
47027W        W19353   9.548  30.944  14.765
47028W        W19354  37.454  21.504   0.289
47029W        W19355  31.534  24.381  11.244
47030W        W19356  31.587  19.642   1.985
47031W        W19357   9.391  37.268  14.130
47032W        W19358  40.536  38.314   0.831
47033W        W19359   0.802  14.796   2.142
47034W        W19360  16.194  33.794   4.140
47035W        W19361  14.256  43.883  12.295
47036W        W19362  21.702   0.705   1.936
47037W        W19363  35.926  37.912   2.672
47038W        W19364  34.437  38.608   4.475
47039W        W19365  21.656   0.187   0.431
47040W        W19366  36.856  10.563  12.074
47041W        W19367  19.070   5.345  14.490
47042W        W19368  35.525  44.769   1.334
47043W        W19369   1.577  15.415   3.617
47044W        W19370   4.620  20.144  11.606
47045W        W19371  10.666  17.733  10.802
47046W        W19372  29.487  16.855   2.074
47047W        W19373  25.786   4.479  11.460
47048W        W19374   3.922  18.966  12.927
47049W        W19375   5.511   8.702  13.579
47050W        W19376   3.895  23.637  11.042
47051W        W19377  27.176  34.366  14.057
47052W        W19378  42.445  26.560   0.769
47053W        W19379  43.016  35.445  11.235
47054W        W19380  28.683  25.688  14.039
47055W        W19381  41.304  19.612  11.106
47056W        W19382  33.869  17.371   2.973
47057W        W19383  36.472  29.417   1.815
47058W        W19384  30.492  13.818   0.716
47059W        W19385   7.460  27.174   1.264
47060W        W19386  13.824  38.579   2.341
47061W        W19387   8.996  24.113  14.409
47062W        W19388  36.377   5.683  13.786
47063W        W19389  24.488  22.583   1.145
47064W        W19390  19.332   7.128  13.950
47065W        W19391  25.033  22.303   2.182
47066W        W19392   5.782  42.033   2.214
47067W        W19393  23.727  39.399  12.487
47068W        W19394  44.989  40.745  12.650
47069W        W19395   2.099  13.914   1.771
47070W        W19396  32.598  35.305  11.542
47071W        W19397  14.772   2.753   0.939
47072W        W19398  18.639  42.856   1.578
47073W        W19399  13.900  41.997  11.164
47074W        W19400  41.493  18.211   0.269
47075W        W19401  32.186   5.437   3.609
47076W        W19402  14.103  28.655  14.428
47077W        W19403  18.968  37.386  12.235
47078W        W19404   7.878   3.011  13.134
47079W        W19405  42.324  19.287   3.540
47080W        W19406  18.901  21.533  14.263
47081W        W19407   5.101  29.716  10.506
47082W        W19408  42.873   3.741  11.440
47083W        W19409  31.361  19.645  12.869
47084W        W19410  28.090  11.920   3.546
47085W        W19411  18.106  32.049  14.190
47086W        W19412  18.091  35.326  11.161
47087W        W19413  27.584   4.699   3.487
47088W        W19414   9.148   5.215   0.061
47089W        W19415  25.754  35.023  12.497
47090W        W19416   8.168  13.249  11.149
47091W        W19417   3.542  34.080  12.485
47092W        W19418  44.338   8.933  11.653
47093W        W19419  44.749  31.962   3.167
47094W        W19420  29.529  14.140   2.865
47095W        W19421   6.146  43.249   1.889
47096W        W19422   1.049   6.729  13.304
47097W        W19423  28.191   4.471   1.289
47098W        W19424  42.824  40.355   3.960
47099W        W19425  33.517  25.507  13.900
47100W        W19426  39.390  12.558   5.054
47101W        W19427  12.117   1.291   0.824
47102W        W19428  15.156   2.984   3.640
47103W        W19429  12.655   8.809  10.569
47104W        W19430  41.534  42.254  11.509
47105W        W19431   1.430  17.833   4.219
47106W        W19432  42.372  35.446   0.339
47107W        W19433  20.401  40.112  13.376
47108W        W19434  23.759  37.057   2.333
47109W        W19435  20.019  39.161  11.209
47110W        W19436  22.218   4.198   3.219
47111W        W19437  21.972  37.766  11.495
47112W        W19438  32.281  12.680  13.903
47113W        W19439  41.877  38.550   2.128
47114W        W19440  39.966  28.097  14.336
47115W        W19441  36.092   2.318  11.864
47116W        W19442  24.066  24.045   4.608
47117W        W19443   7.880  19.215  13.882
47118W        W19444  22.151  41.507   2.638
47119W        W19445  22.081   0.918  12.049
47120W        W19446  34.403  34.009  10.133
47121W        W19447  19.632  17.830   0.203
47122W        W19448   9.275  39.514   0.711
47123W        W19449  32.439   0.037  11.175
47124W        W19450  17.680  40.340   1.646
47125W        W19451  36.066  43.478   0.306
47126W        W19452  32.518   0.336   4.702
47127W        W19453  33.557  43.104   2.603
47128W        W19454  29.642  14.147   3.880
47129W        W19455  14.277  15.805   3.705
47130W        W19456   5.343  16.286   4.069
47131W        W19457  15.162  36.384  10.807
47132W        W19458  44.869  18.576   2.702
47133W        W19459  44.224  11.344  12.385
47134W        W19460   4.174  25.964   1.758
47135W        W19461  18.047  19.261   4.601
47136W        W19462   9.176  43.983  14.868
47137W        W19463  42.385  42.608   0.282
47138W        W19464  22.736  32.942   1.922
47139W        W19465  30.936  20.371  12.505
47140W        W19466  13.597   6.873   0.863
47141W        W19467  44.298   5.259  11.111
47142W        W19468  19.534  13.384  14.600
47143W        W19469  33.089  14.596  10.679
47144W        W19470  24.310   2.809   0.684
47145W        W19471  40.394  40.185  14.561
47146W        W19472  26.738   7.190  13.876
47147W        W19473  10.140  15.702  10.689
47148W        W19474  22.480  13.753  11.487
47149W        W19475  26.079  40.941  12.478
47150W        W19476  13.371   7.761   0.386
47151W        W19477   4.799  19.392   4.164
47152W        W19478  38.937  36.043   1.827
47153W        W19479   8.318  17.085   4.573
47154W        W19480  18.873  38.143   1.609
47155W        W19481   9.807  32.843  12.028
47156W        W19482  23.173   3.461  14.828
47157W        W19483   9.638  15.297  14.347
47158W        W19484  22.924  37.525  11.986
47159W        W19485  42.230  13.939   5.421
47160W        W19486  34.948  27.072  11.330
47161W        W19487  31.639  31.105  13.876
47162W        W19488   8.879  17.176  14.011
47163W        W19489  16.605  19.659   0.432
47164W        W19490   6.189  28.200  13.262
47165W        W19491  43.379  18.621   1.765
47166W        W19492  16.298  23.799  13.473
47167W        W19493  15.586  39.295  10.663
47168W        W19494  27.751   9.905  10.750
47169W        W19495  34.659  32.265  11.378
47170W        W19496  19.150  27.640   2.623
47171W        W19497  42.361   9.683  12.924
47172W        W19498  31.145  42.033   1.455
47173W        W19499   6.434  39.983   3.173
47174W        W19500  26.738  38.347  14.469
47175W        W19501  24.631  17.677   2.216
47176W        W19502  12.532  20.198  14.997
47177W        W19503  28.984  36.393   2.355
47178W        W19504  35.872  39.207   1.583
47179W        W19505  14.316  13.137   1.846
47180W        W19506  37.162  36.092   0.741
47181W        W19507  10.171  14.706  13.900
47182W        W19508  11.114  39.789  12.382
47183W        W19509   8.070  30.643   3.182
47184W        W19510   3.873  36.379   4.297
47185W        W19511  27.772  20.359   4.170
47186W        W19512  37.103  30.877   3.832
47187W        W19513  34.399  43.697   0.157
47188W        W19514  20.527  26.561   3.634
47189W        W19515  38.487   2.729   0.517
47190W        W19516  23.306   4.846  14.271
47191W        W19517  12.638  30.176  12.826
47192W        W19518  29.409  39.341  13.966
47193W        W19519  16.546  44.436  11.155
47194W        W19520  14.320  34.922  14.885
47195W        W19521   4.642  30.015   2.229
47196W        W19522  13.128  34.675   1.196
47197W        W19523  35.472  32.873  14.957
47198W        W19524  29.537  13.949  14.908
47199W        W19525  34.982  20.782   2.558
47200W        W19526  28.355  38.171  12.583
47201W        W19527  33.863   9.401   3.837
47202W        W19528  36.984  29.085   0.763
47203W        W19529  30.147  43.061   3.129
47204W        W19530  43.108  26.251  11.700
47205W        W19531   7.906   8.634   0.385
47206W        W19532  19.337   3.444   3.331
47207W        W19533   7.316  13.378   1.366
47208W        W19534  12.919  35.952   2.867
47209W        W19535  43.261   3.417  14.424
47210W        W19536   0.794  25.314  12.798
47211W        W19537  43.998  40.302   2.887
47212W        W19538   7.366  36.372  11.104
47213W        W19539  40.246  11.113   4.408
47214W        W19540  20.506  20.564   2.880
47215W        W19541  35.070  30.139  12.452
47216W        W19542  37.465  38.821   1.918
47217W        W19543  20.312  16.426  11.244
47218W        W19544  10.192  28.762  14.335
47219W        W19545   2.597   4.532  10.150
47220W        W19546  25.109   5.630  12.366
47221W        W19547   2.436   8.520   3.756
47222W        W19548  21.437  11.319   3.650
47223W        W19549  29.366  31.665  11.974
47224W        W19550  37.413  27.911  13.919
47225W        W19551  38.453   5.656   0.431
47226W        W19552  10.660   2.668  14.837
47227W        W19553  33.157   7.960   3.221
47228W        W19554  23.032   6.203  11.035
47229W        W19555  17.368   4.463   1.211
47230W        W19556  28.161   6.902  11.265
47231W        W19557  36.879  35.495   2.161
47232W        W19558   3.937  27.703   0.307
47233W        W19559  14.825  41.231   0.743
47234W        W19560  34.999  25.935   0.964
47235W        W19561   4.381   9.786   1.313
47236W        W19562  18.678  29.879  10.586
47237W        W19563  10.571  41.860  14.845
47238W        W19564  24.819   8.901   1.785
47239W        W19565  26.166  15.848   2.848
47240W        W19566  13.072  14.553   2.882
47241W        W19567  30.998   3.372  12.442
47242W        W19568  15.160  15.193   0.249
47243W        W19569   3.798  18.491   2.746
47244W        W19570  29.653  18.527   1.887
47245W        W19571  32.202  24.261  14.482
47246W        W19572  25.644  30.026   0.792
47247W        W19573  30.550   7.733   0.159
47248W        W19574  14.308  14.176   4.702
47249W        W19575  29.003   6.776  11.690
47250W        W19576   5.432  12.232   2.355
47251W        W19577   0.250  15.360  13.860
47252W        W19578   6.376   1.408  14.909
47253W        W19579  10.417  25.967   3.244
47254W        W19580  24.696  44.365  14.483
47255W        W19581  41.078  29.128  11.087
47256W        W19582  11.495  34.445   1.994
47257W        W19583  28.068  19.149  13.240
47258W        W19584  15.792  38.810  11.578
47259W        W19585  28.437  22.233   0.262
47260W        W19586  17.251  33.869  11.110
47261W        W19587  16.053   0.340   0.703
47262W        W19588  10.633  21.199   3.650
47263W        W19589   4.953  44.224  11.596
47264W        W19590  32.212  19.100  12.006
47265W        W19591  33.716  16.442   2.954
47266W        W19592  28.939   7.815  13.543
47267W        W19593  12.732  21.523   2.837
47268W        W19594  35.401  43.062   3.704
47269W        W19595  41.308  10.352  13.397
47270W        W19596  38.598  17.820  14.218
47271W        W19597  43.914   4.859  14.087
47272W        W19598  29.546  43.472   2.448
47273W        W19599  37.501   3.020  10.543
47274W        W19600  11.109  27.399   3.673
47275W        W19601  44.277   4.063  14.539
47276W        W19602  37.812  33.494  10.693
47277W        W19603  11.818   9.180   2.785
47278W        W19604  15.082  42.070  10.651
47279W        W19605  18.489  40.237   4.347
47280W        W19606   7.624   3.244   0.566
47281W        W19607  24.076  20.242   0.914
47282W        W19608   7.741  39.799   3.784
47283W        W19609  44.944  36.908  14.733
47284W        W19610   8.259   1.827  12.925
47285W        W19611  24.454   2.932   1.165
47286W        W19612  40.766   6.559  12.486
47287W        W19613  25.070  36.600   2.320
47288W        W19614  35.887  43.634   4.085
47289W        W19615  42.752  10.790  14.506
47290W        W19616  36.772  43.055   4.608
47291W        W19617  12.854   2.809  12.033
47292W        W19618  30.082  26.781   3.869
47293W        W19619   3.800   2.811   4.055
47294W        W19620  34.092   1.443  12.527
47295W        W19621   7.826  44.929  14.044
47296W        W19622  19.158   3.189  14.627
47297W        W19623  26.961   3.632  11.058
47298W        W19624  12.911  33.746   4.996
47299W        W19625  30.603  41.279  10.938
47300W        W19626  28.275  43.604  11.512
47301W        W19627  32.104  15.096  11.720
47302W        W19628  20.173   6.429   2.942
47303W        W19629  43.445  43.514   1.982
47304W        W19630  33.491  41.035   3.089
47305W        W19631  35.837  14.253   3.256
47306W        W19632  19.066  29.117   0.811
47307W        W19633  16.664   8.423   4.896
47308W        W19634  24.924  18.484  12.483
47309W        W19635  17.313  30.716  14.624
47310W        W19636  34.814  18.048   1.775
47311W        W19637  39.024   4.223   4.238
47312W        W19638  39.430   0.338   2.157
47313W        W19639  40.327  39.626  14.529
47314W        W19640  24.520  40.563   0.383
47315W        W19641   6.678  42.399  11.417
47316W        W19642  44.455  39.080   2.179
47317W        W19643  37.037  32.319  14.637
47318W        W19644  17.742  12.745  11.107
47319W        W19645  18.416  30.597  10.241
47320W        W19646  10.231  27.959  13.342
47321W        W19647  27.813   3.295   3.280
47322W        W19648  20.036  37.689   5.060
47323W        W19649   4.292  31.076  13.402
47324W        W19650  19.818   5.288   2.302
47325W        W19651  36.292   7.221  12.366
47326W        W19652  30.191   7.747   2.211
47327W        W19653  14.515  22.146   4.211
47328W        W19654   4.223   9.292  13.692
47329W        W19655   1.383  20.104  14.325
47330W        W19656  23.460  36.584   0.340
47331W        W19657  18.631  15.515   0.921
47332W        W19658  43.725  14.590   3.938
47333W        W19659  44.690   4.250  12.656
47334W        W19660   8.929  36.317   1.602
47335W        W19661  34.981   1.294   1.172
47336W        W19662  29.951  35.834  13.109
47337W        W19663   0.754   2.291  11.101
47338W        W19664  29.936  34.350  14.850
47339W        W19665  42.852   4.809   4.411
47340W        W19666  40.124  16.584  13.091
47341W        W19667  18.064  35.875  11.176
47342W        W19668   0.243  24.221   1.190
47343W        W19669  17.166   5.267   3.454
47344W        W19670  24.470  22.201  12.989
47345W        W19671  24.645  25.621   0.003
47346W        W19672  33.873  27.712   4.464
47347W        W19673  13.080  22.263   3.102
47348W        W19674  26.713  33.496   1.837
47349W        W19675  23.311  28.417   2.893
47350W        W19676   8.856  31.555   1.997
47351W        W19677   1.238   2.255  13.399
47352W        W19678  37.311   9.381   0.674
47353W        W19679  17.771  44.466   4.068
47354W        W19680   6.383  14.234   2.767
47355W        W19681   0.227   7.720  11.671
47356W        W19682  28.505  44.407  13.356
47357W        W19683  29.329  27.934  14.964
47358W        W19684  12.073  36.023  13.302
47359W        W19685   5.317  24.004   4.253
47360W        W19686  17.047  21.723  11.383
47361W        W19687   3.291   5.861  14.924
47362W        W19688  35.230   5.204   3.690
47363W        W19689  13.244  22.920  13.123
47364W        W19690   8.369  28.688   4.175
47365W        W19691  44.787  11.219  13.481
47366W        W19692  31.532  30.170   1.761
47367W        W19693   5.344  33.167  12.405
47368W        W19694  26.576  23.973  10.782
47369W        W19695  23.158  31.075   0.676
47370W        W19696  40.295  16.619   2.859
47371W        W19697  17.338   1.700   3.777
47372W        W19698  40.435  33.632   0.685
47373W        W19699  33.623  13.818  12.967
47374W        W19700  24.063   0.884   2.882
47375W        W19701  40.704  36.035  13.077
47376W        W19702  26.319  24.989   0.253
47377W        W19703   9.738  30.518   1.749
47378W        W19704  12.265  24.974   9.914
47379W        W19705   7.329   5.981   2.413
47380W        W19706  18.676   3.443  11.482
47381W        W19707  39.487  18.777   4.047
47382W        W19708  44.007  38.719  11.178
47383W        W19709   3.470  28.244   2.765
47384W        W19710  25.451   6.891  12.497
47385W        W19711  28.196  13.583   1.929
47386W        W19712  38.457  37.107  10.431
47387W        W19713  15.820  28.030  10.531
47388W        W19714  33.622   9.287  14.957
47389W        W19715  38.301  10.604  12.381
47390W        W19716   0.639  13.054   0.691
47391W        W19717   2.506  21.545  13.834
47392W        W19718   3.935  26.955  10.847
47393W        W19719  20.813   8.203   1.258
47394W        W19720  21.161  14.584   2.396
47395W        W19721  20.777  33.739  13.969
47396W        W19722  33.841   0.330  10.511
47397W        W19723  19.221  44.947   3.788
47398W        W19724  40.239  20.054  11.716
47399W        W19725  14.193  16.862   3.666
47400W        W19726  42.212  41.245   0.490
47401W        W19727  22.513  32.161  12.131
47402W        W19728  36.058   5.506   1.081
47403W        W19729  26.157  41.767   4.534
47404W        W19730  32.409  31.688  14.357
47405W        W19731  22.723  17.877   3.888
47406W        W19732  18.146  19.106   2.250
47407W        W19733   0.860  21.083   4.660
47408W        W19734  16.864  15.663  13.908
47409W        W19735  38.910  18.264   3.529
47410W        W19736  34.457  30.966  14.506
47411W        W19737  26.805  15.720  12.865
47412W        W19738  32.415  11.718  13.929
47413W        W19739  29.383  16.000   2.618
47414W        W19740   1.580  28.440  13.895
47415W        W19741  33.250  35.438  14.970
47416W        W19742  36.812  13.261  14.834
47417W        W19743  11.124  37.548  11.535
47418W        W19744   4.075  21.236   4.585
47419W        W19745  12.696  18.828  14.906
47420W        W19746   3.248   1.459   3.718
47421W        W19747  10.487  17.364  13.840
47422W        W19748  38.621  28.685   3.243
47423W        W19749  21.317  12.334   4.501
47424W        W19750  27.935  43.332   4.154
47425W        W19751  42.802   4.557  11.125
47426W        W19752  41.075  20.768   1.943
47427W        W19753  25.651  40.956   1.733
47428W        W19754   3.000  18.841   3.699
47429W        W19755   4.818   4.607   3.332
47430W        W19756  18.104  14.802   3.080
47431W        W19757  44.977  23.503   2.772
47432W        W19758  24.120  14.872   0.534
47433W        W19759   8.926  19.784  12.409
47434W        W19760  35.776   6.308  14.358
47435W        W19761  33.825  21.591   4.492
47436W        W19762   6.800  37.839  13.495
47437W        W19763   6.959  44.954   0.424
47438W        W19764  43.954  31.897   4.991
47439W        W19765  38.547   1.575  12.815
47440W        W19766   0.965  14.653   4.047
47441W        W19767  33.633  43.049  14.845
47442W        W19768  24.998  17.738  14.409
47443W        W19769  40.158  40.486  14.176
47444W        W19770  42.957  20.161  12.839
47445W        W19771   5.744  30.060  11.970
47446W        W19772  11.846  24.528   1.178
47447W        W19773  10.552  41.310  12.412
47448W        W19774  40.740  17.108   3.554
47449W        W19775   4.681  39.519   2.279
47450W        W19776  32.419   3.644   2.427
47451W        W19777   2.784  34.097   1.876
47452W        W19778   1.831  17.633  11.120
47453W        W19779  43.722  38.490   3.720
47454W        W19780  34.887   5.751   1.854
47455W        W19781  35.111  10.263  13.667
47456W        W19782   1.966  40.268   0.910
47457W        W19783  26.713  32.466  11.112
47458W        W19784  38.483  37.745   3.283
47459W        W19785  25.160  15.587   3.355
47460W        W19786  10.108  44.987  12.330
47461W        W19787   1.279  41.916   2.753
47462W        W19788  20.776  21.063  12.375
47463W        W19789  24.248  39.613  11.163
47464W        W19790  14.544   3.115  13.956
47465W        W19791   0.919  43.312   1.251
47466W        W19792  11.537   2.036  13.947
47467W        W19793   9.815  13.964  14.856
47468W        W19794  31.948   3.295   0.882
47469W        W19795  32.108  22.793   0.568
47470W        W19796  41.808  22.749   4.596
47471W        W19797  35.054   0.355   3.959
47472W        W19798  13.284  21.519  14.411
47473W        W19799  15.894   3.923   0.280
47474W        W19800  16.453  26.091  13.653
47475W        W19801  34.628   0.496   0.268
47476W        W19802  44.283   9.230  11.199
47477W        W19803   8.294  10.229   1.378
47478W        W19804  38.596  21.472   4.564
47479W        W19805   2.802  30.154   0.017
47480W        W19806   9.193  34.564  12.425
47481W        W19807  34.441  38.453   3.196
47482W        W19808  33.236  28.533   0.866
47483W        W19809  25.719  30.978   1.343
47484W        W19810   8.029  17.746  11.214
47485W        W19811  32.092  37.288  13.068
47486W        W19812  39.009   6.229   2.604
47487W        W19813  40.205  30.618  12.364
47488W        W19814  27.856  38.933  14.414
47489W        W19815  13.148  36.285   5.448
47490W        W19816   1.064  19.159  12.156
47491W        W19817  40.806   4.323   4.613
47492W        W19818  35.411  32.048  13.314
47493W        W19819  36.220  12.582  12.363
47494W        W19820  30.766  34.302  14.337
47495W        W19821  10.140   0.992   1.853
47496W        W19822  12.757   0.530  12.110
47497W        W19823  15.113  17.678  10.860
47498W        W19824  44.861  35.290   2.452
47499W        W19825   2.044  15.396   1.832
47500W        W19826  41.960  21.476  10.498
47501W        W19827   5.302  37.077   3.347
47502W        W19828  18.145  30.206   1.243
47503W        W19829   2.722   3.376   2.847
47504W        W19830  14.206   0.873  14.861
47505W        W19831   3.299  25.174  14.834
47506W        W19832  13.355  20.186  12.361
47507W        W19833  39.769  14.098  10.536
47508W        W19834  42.401   8.157   3.720
47509W        W19835  10.658  35.439   0.387
47510W        W19836  18.622  22.547  12.467
47511W        W19837  13.369  41.465   1.020
47512W        W19838  11.689   8.474   1.733
47513W        W19839   7.890   4.545  12.589
47514W        W19840  25.718  42.786  13.927
47515W        W19841  31.985  23.045   0.121
47516W        W19842  38.396  18.671  13.084
47517W        W19843  39.419  43.836   0.980
47518W        W19844  44.481  39.888   1.620
47519W        W19845  28.061   3.328  14.042
47520W        W19846  20.102  31.929   4.153
47521W        W19847  24.213  43.799   1.209
47522W        W19848  24.627  36.810  12.368
47523W        W19849   4.969   4.095   3.302
47524W        W19850  25.160  34.379   3.653
47525W        W19851   5.360  34.090   2.622
47526W        W19852  22.626  24.136   0.932
47527W        W19853   2.682  18.690  14.372
47528W        W19854  11.696  14.840  12.443
47529W        W19855   4.428  32.285  14.877
47530W        W19856  11.823  24.475   4.670
47531W        W19857  38.027  26.191  12.816
47532W        W19858  38.898  33.241   3.227
47533W        W19859  40.447   1.996  13.096
47534W        W19860  24.984   0.574  12.070
47535W        W19861  29.717  41.074  14.379
47536W        W19862  30.513  36.306   0.832
47537W        W19863   6.740   7.245  12.065
47538W        W19864  14.646  15.305   0.373
47539W        W19865   1.425   4.371  14.660
47540W        W19866  20.240   0.298  12.887
47541W        W19867  13.944  29.472   1.759
47542W        W19868  23.169  38.089   1.439
47543W        W19869   9.787  44.936  10.989
47544W        W19870  10.299  29.145   0.408
47545W        W19871  31.631  25.594   2.633
47546W        W19872  21.874  30.391   4.457
47547W        W19873   8.834  40.866   3.932
47548W        W19874   0.931   2.846   1.304
47549W        W19875  37.986   8.257   4.911
47550W        W19876  32.453  11.624  12.904
47551W        W19877   8.791  15.406  10.046
47552W        W19878  40.880  31.485  11.003
47553W        W19879  21.176  31.212  10.755
47554W        W19880  14.105   4.801   4.274
47555W        W19881  35.485  14.004  13.040
47556W        W19882   9.630  28.483   2.324
47557W        W19883  19.035  31.510  12.456
47558W        W19884  15.249  23.728   4.504
47559W        W19885   9.627  25.668   2.290
47560W        W19886  17.174  32.450  11.008
47561W        W19887  30.878   2.087  12.008
47562W        W19888  17.608   3.438   0.654
47563W        W19889  37.170  23.917   1.365
47564W        W19890  40.798  20.260  10.357
47565W        W19891   7.929  36.092   2.333
47566W        W19892   6.149  21.660  12.429
47567W        W19893  13.336  41.047   3.414
47568W        W19894  34.968  40.624  11.600
47569W        W19895  35.422   7.285  10.493
47570W        W19896   1.409  35.093  11.976
47571W        W19897   6.312  10.924   1.803
47572W        W19898  23.767  44.864  12.587
47573W        W19899   1.347  20.054   0.423
47574W        W19900  36.278  30.733  13.854
47575W        W19901  34.917  32.024  13.489
47576W        W19902  37.942  25.652   4.824
47577W        W19903  40.927  22.054   3.381
47578W        W19904  34.010  20.479  11.637
47579W        W19905  42.424   3.940  11.663
47580W        W19906   8.364  12.072   1.920
47581W        W19907  24.002  20.596  13.855
47582W        W19908   5.718  23.441  11.281
47583W        W19909   8.881  41.936  13.403
47584W        W19910  11.783  41.346   0.173
47585W        W19911   9.598   8.185   0.741
47586W        W19912  28.260  26.615   4.148
47587W        W19913  12.255  37.863   1.832
47588W        W19914  14.716  42.718   2.775
47589W        W19915  14.164  19.868  10.758
47590W        W19916   0.926  19.120   2.127
47591W        W19917  23.198  41.032   0.506
47592W        W19918  16.547  32.338  12.417
47593W        W19919  40.357  21.314   3.251
47594W        W19920  37.401  37.123  11.186
47595W        W19921  12.196   8.412  12.130
47596W        W19922  42.817  26.083  13.197
47597W        W19923  28.603  33.660  14.897
47598W        W19924   0.315   0.539   0.308
47599W        W19925  12.645  31.817  12.412
47600W        W19926  26.448  30.560   3.825
47601W        W19927  40.766   2.368   0.956
47602W        W19928  18.267  27.744  13.390
47603W        W19929  22.885  35.565   3.306
47604W        W19930   8.307   0.423  14.443
47605W        W19931  11.315  41.697   1.698
47606W        W19932  17.442  10.352  14.962
47607W        W19933  30.477  15.529  13.465
47608W        W19934  12.283  31.659   3.303
47609W        W19935  11.634  23.045   3.879
47610W        W19936  44.693  32.651  13.499
47611W        W19937  38.399  38.893  13.966
47612W        W19938   0.805  39.364   2.669
47613W        W19939  22.214  13.278  11.471
47614W        W19940  22.094   1.021   1.838
47615W        W19941  42.088  32.974   3.607
47616W        W19942   9.299  32.026  10.859
47617W        W19943   9.864  30.877   2.133
47618W        W19944  38.914  30.024   1.928
47619W        W19945  34.057  38.257  11.423
47620W        W19946   0.884  20.201  11.471
47621W        W19947  38.615  21.979   4.624
47622W        W19948  24.149  12.599  10.607
47623W        W19949   2.909   1.859   0.747
47624W        W19950  42.532  13.373   0.968
47625W        W19951  21.482  10.215  14.091
47626W        W19952  26.685  44.809  10.880
47627W        W19953  12.563  31.318  12.995
47628W        W19954  25.664  37.358  13.468
47629W        W19955  40.660  27.227   2.552
47630W        W19956  30.200  22.697   4.137
47631W        W19957  38.477  35.646   3.584
47632W        W19958   5.919   3.231   2.217
47633W        W19959  34.209  36.101  13.529
47634W        W19960  32.644  13.287   2.760
47635W        W19961  18.614  22.878  11.497
47636W        W19962  10.626   9.802   2.623
47637W        W19963  36.818  38.750  14.570
47638W        W19964  11.708  40.931  12.117
47639W        W19965  43.866  42.832   3.655
47640W        W19966  24.172  16.270  12.224
47641W        W19967  30.615  14.824   0.025
47642W        W19968  24.287  14.695   2.750
47643W        W19969  21.614  14.132  14.024
47644W        W19970  27.769   2.778   3.220
47645W        W19971  16.411  40.911  13.050
47646W        W19972   1.346  43.586   1.311
47647W        W19973  41.477  28.082   0.574
47648W        W19974  35.611  33.785  11.500
47649W        W19975  10.359  33.825   1.867
47650W        W19976  32.684   3.327   1.454
47651W        W19977  18.597  22.116   0.263
47652W        W19978  13.431   4.744   3.718
47653W        W19979  32.373  28.031   2.830
47654W        W19980  25.699  10.023   2.963
47655W        W19981  15.300  17.216  13.007
47656W        W19982  27.913  24.986  13.662
47657W        W19983  37.945  35.825   4.153
47658W        W19984  38.460  23.774  13.024
47659W        W19985   6.697  32.092   0.029
47660W        W19986  43.973  13.861   4.706
47661W        W19987   6.145  36.634   2.905
47662W        W19988  39.365  41.012  14.528
47663W        W19989  24.498  14.416  11.194
47664W        W19990  24.467  37.324   4.645
47665W        W19991  40.887  12.401   2.090
47666W        W19992  24.624  31.080   4.128
47667W        W19993  19.230   6.373  13.522
47668W        W19994  25.179  36.316  13.436
47669W        W19995  21.815  15.856   3.298
47670W        W19996  24.519  11.182   0.896
47671W        W19997  37.072  29.256   2.683
47672W        W19998   6.726  17.326   0.870
47673W        W19999  19.857  42.764   2.399
47674W        W20000  42.038   2.758   0.786
47675W        W20001  13.832  37.088  11.874
47676W        W20002  33.459  40.809  12.479
47677W        W20003   8.575   3.767   1.171
47678W        W20004  39.872   6.761  13.443
47679W        W20005   3.276   8.005  13.860
47680W        W20006   8.919  20.212  10.768
47681W        W20007  22.771  21.366   2.290
47682W        W20008  21.795  26.759  11.806
47683W        W20009  31.967  33.999  13.573
47684W        W20010  33.003  18.688   4.174
47685W        W20011  33.620  31.904  12.043
47686W        W20012  37.105  11.331   4.647
47687W        W20013  41.292  14.130  10.883
47688W        W20014   4.509  39.732   4.272
47689W        W20015  15.779  33.901   1.831
47690W        W20016  34.448  44.718  12.687
47691W        W20017  36.100  29.254  14.879
47692W        W20018  26.309  43.855   4.597
47693W        W20019  18.749  17.972   2.001
47694W        W20020  34.499  27.837  12.170
47695W        W20021  19.490  30.571  12.508
47696W        W20022  39.154  12.467   5.824
47697W        W20023  41.659  14.078   4.761
47698W        W20024  19.239  13.105   3.739
47699W        W20025  11.976   7.663   4.455
47700W        W20026  42.442   4.718   4.745
47701W        W20027  19.077  40.491  13.633
47702W        W20028   1.068   1.251   1.434
47703W        W20029  15.128  36.940  13.358
47704W        W20030   8.280  29.686  11.702
47705W        W20031  38.468  26.066  13.426
47706W        W20032  43.836  31.454   3.247
47707W        W20033  27.233  18.957   4.400
47708W        W20034  23.641  37.504  13.796
47709W        W20035  19.189   0.097   2.733
47710W        W20036  38.431   9.649  14.855
47711W        W20037  40.961  26.119   0.884
47712W        W20038   9.940   2.857  14.556
47713W        W20039  26.561  36.220  12.573
47714W        W20040   4.953  18.722  11.644
47715W        W20041  16.340  28.477   2.014
47716W        W20042   8.424  28.492  13.817
47717W        W20043  13.369  21.097  13.459
47718W        W20044  31.905  23.203  14.605
47719W        W20045   5.214   6.774   4.979
47720W        W20046   1.235  35.435  13.961
47721W        W20047   6.443  43.798  14.026
47722W        W20048  11.261  11.640   0.470
47723W        W20049  11.827  29.010  13.013
47724W        W20050  34.087  10.015  12.620
47725W        W20051  10.460  40.748   2.217
47726W        W20052  21.691  21.072  13.075
47727W        W20053  34.130  20.723  13.371
47728W        W20054  40.507   5.209  11.602
47729W        W20055  19.162  32.458   2.778
47730W        W20056   7.716  35.819  11.621
47731W        W20057  44.201  27.968   2.357
47732W        W20058  32.477  16.483   3.227
47733W        W20059  19.141  18.132   1.696
47734W        W20060   1.699  15.832  13.912
47735W        W20061  20.644  37.711   5.089
47736W        W20062   6.389   2.514  11.856
47737W        W20063  44.471   9.725  12.087
47738W        W20064   6.826  17.783  12.512
47739W        W20065  27.037  42.042   0.464
47740W        W20066  20.241  38.246   3.253
47741W        W20067  25.697  43.352  11.936
47742W        W20068  29.410   8.033   4.278
47743W        W20069  15.652  12.375   3.331
47744W        W20070  15.215  27.176   1.158
47745W        W20071  27.181  23.886   3.264
47746W        W20072  12.390  36.001   2.846
47747W        W20073  18.468  37.373   2.827
47748W        W20074  12.361   7.794  13.034
47749W        W20075  37.425  22.234   1.747
47750W        W20076  32.604  11.807  10.775
47751W        W20077  42.945  16.319  14.853
47752W        W20078   4.182  10.437   4.574
47753W        W20079  42.501   7.436   9.881
47754W        W20080  42.263  20.453  14.903
47755W        W20081  33.727  34.264  12.362
47756W        W20082  24.217  27.408   3.237
47757W        W20083   3.987  30.631   1.843
47758W        W20084  11.843  34.035  13.691
47759W        W20085  14.950  23.453   4.112
47760W        W20086  34.959  23.574   2.292
47761W        W20087  16.056  43.249   3.882
47762W        W20088  13.084  42.536   3.595
47763W        W20089  11.785  16.745   1.343
47764W        W20090  44.581  39.045   1.133
47765W        W20091  12.208   3.151  14.686
47766W        W20092  17.307   4.817  11.100
47767W        W20093  15.151  27.638   1.392
47768W        W20094  25.746   8.892  12.629
47769W        W20095  21.325  15.593   0.905
47770W        W20096  33.420  21.295  11.621
47771W        W20097  33.569   0.784   2.645
47772W        W20098   5.404   1.355   2.232
47773W        W20099  44.376   7.244   1.007
47774W        W20100  39.876   6.855  11.397
47775W        W20101   0.778  10.132   3.509
47776W        W20102  12.217  16.494   4.716
47777W        W20103  37.561  36.929   0.655
47778W        W20104  27.717  24.012   3.289
47779W        W20105  15.301  30.191   0.503
47780W        W20106  35.060  43.995   3.719
47781W        W20107   5.173  31.468  12.931
47782W        W20108   0.753  17.695  13.176
47783W        W20109  13.841  16.157   4.099
47784W        W20110  38.128  30.602  13.595
47785W        W20111   8.822   3.709  10.473
47786W        W20112  29.716  26.266   4.990
47787W        W20113  31.428  26.581  13.847
47788W        W20114  14.016   8.917  10.258
47789W        W20115  30.560  11.010  13.429
47790W        W20116  39.519  29.365  14.563
47791W        W20117  30.651   9.916  14.447
47792W        W20118  13.733  22.106  14.142
47793W        W20119  22.483  11.292   4.672
47794W        W20120  19.146  43.744   4.378
47795W        W20121   8.540  33.586   4.992
47796W        W20122  16.648  31.665   2.900
47797W        W20123  20.482  35.601   2.823
47798W        W20124  43.502  39.009   2.573
47799W        W20125  39.292   5.333  14.488
47800W        W20126  20.061  43.243   2.407
47801W        W20127   7.920  24.010  11.987
47802W        W20128  18.043  44.398  12.718
47803W        W20129  18.384  27.213   2.464
47804W        W20130  16.790  43.868  13.757
47805W        W20131  29.456  19.024   2.743
47806W        W20132   3.860  33.571   3.147
47807W        W20133   5.466  24.784  13.254
47808W        W20134  41.268  22.726   3.297
47809W        W20135   1.495  28.249  14.739
47810W        W20136  16.013  33.291   4.171
47811W        W20137  24.511   7.756  12.430
47812W        W20138  11.890  34.339   1.673
47813W        W20139  28.051  26.772  11.953
47814W        W20140   7.679  39.084   1.759
47815W        W20141   4.710  34.816   0.729
47816W        W20142  15.262  23.684  11.106
47817W        W20143  32.976  24.910   3.835
47818W        W20144  22.182  21.032  14.735
47819W        W20145   5.394   9.459   1.245
47820W        W20146  24.990   3.328   4.617
47821W        W20147  15.748  31.829  12.901
47822W        W20148  15.074  36.829  11.516
47823W        W20149  40.993   2.062  11.854
47824W        W20150  40.009  41.834  10.740
47825W        W20151   6.537  43.465   3.676
47826W        W20152  14.529  20.185   2.344
47827W        W20153  42.006  24.615   3.395
47828W        W20154   6.278  31.237  13.831
47829W        W20155  40.759  30.164   4.561
47830W        W20156   8.140  21.001   3.675
47831W        W20157  28.624  33.906  12.997
47832W        W20158  29.683  42.347   1.644
47833W        W20159  33.403   0.613   4.139
47834W        W20160  12.177  37.281   1.701
47835W        W20161  29.546  26.515  10.858
47836W        W20162  28.020  18.546  14.902
47837W        W20163  13.103  23.523  11.134
47838W        W20164  31.514  29.089   0.812
47839W        W20165  29.214  16.825   1.336
47840W        W20166  30.352  30.955  14.229
47841W        W20167  39.236  42.788   5.003
47842W        W20168  33.167  38.254  12.546
47843W        W20169  22.731  18.092  12.836
47844W        W20170  25.041  35.349   3.919
47845W        W20171   9.706  10.647   1.650
47846W        W20172  30.615   1.271   0.252
47847W        W20173  28.285  23.810   2.842
47848W        W20174  40.130   8.449   0.313
47849W        W20175   3.172  22.266   4.914
47850W        W20176  30.719  38.949   2.368
47851W        W20177  42.972  18.724   2.353
47852W        W20178  38.950  31.421  11.915
47853W        W20179  24.646  10.412   1.909
47854W        W20180   1.703  34.923  11.526
47855W        W20181  27.185  27.585  13.045
47856W        W20182  15.596  19.577  10.717
47857W        W20183  39.048  10.163  13.834
47858W        W20184  10.760  19.617  13.048
47859W        W20185  27.384  33.083   3.057
47860W        W20186  10.875  32.557   1.421
47861W        W20187  40.492  37.931   1.220
47862W        W20188  34.630  20.415   0.020
47863W        W20189   6.237  13.819  11.170
47864W        W20190  33.617   9.295  12.883
47865W        W20191  18.114  13.310   2.675
47866W        W20192  41.003  18.274   4.788
47867W        W20193  10.255   7.451   3.046
47868W        W20194  43.406  17.048   2.872
47869W        W20195  14.658   4.535   1.891
47870W        W20196  28.578  33.386   1.666
47871W        W20197  27.261  35.170  10.995
47872W        W20198  12.490  11.280  13.324
47873W        W20199  12.300   9.154  13.117
47874W        W20200  29.470   5.860  12.934
47875W        W20201  34.902  30.598  10.666
47876W        W20202  15.990  10.041  10.201
47877W        W20203   5.319  23.593   1.973
47878W        W20204  13.742  42.814   2.889
47879W        W20205  33.505  31.691  13.471
47880W        W20206  12.170   5.857   3.712
47881W        W20207  24.655  10.367  14.188
47882W        W20208  33.533  33.063   4.097
47883W        W20209  33.286  18.498   2.731
47884W        W20210  21.008  37.283  11.668
47885W        W20211  14.717   0.133   2.926
47886W        W20212  37.040  38.501  13.743
47887W        W20213   0.916  42.741  13.708
47888W        W20214  14.687   6.587   2.357
47889W        W20215  13.755  39.751  10.564
47890W        W20216  37.410  39.073  10.560
47891W        W20217  13.209  23.520  12.565
47892W        W20218  28.995   2.419  12.878
47893W        W20219   9.251   5.469   1.284
47894W        W20220  29.495  27.526   4.881
47895W        W20221  31.152  44.967   3.656
47896W        W20222  38.454  33.153   0.451
47897W        W20223  17.545  27.744  12.981
47898W        W20224   9.759  22.174   1.470
47899W        W20225  40.051  38.050   0.416
47900W        W20226   9.539  36.422   4.877
47901W        W20227  18.186  32.860   4.626
47902W        W20228   1.088   2.150  10.301
47903W        W20229  23.595  43.808  10.716
47904W        W20230   9.375   6.159  14.163
47905W        W20231  18.047  18.599   2.429
47906W        W20232  31.423   6.871  11.156
47907W        W20233  22.453  25.718   4.175
47908W        W20234   6.444   1.843  13.517
47909W        W20235  23.086  20.088   1.381
47910W        W20236   9.726  23.741   0.662
47911W        W20237  37.413  26.523  13.326
47912W        W20238  42.519   8.699  11.454
47913W        W20239  42.731  43.831   1.273
47914W        W20240   7.361  16.545  14.014
47915W        W20241   1.477  19.935   3.219
47916W        W20242   6.282  31.677  10.431
47917W        W20243  36.032  11.418  11.130
47918W        W20244   0.714  35.383  13.826
47919W        W20245  14.586  21.085   4.148
47920W        W20246  40.832  37.852  10.612
47921W        W20247  39.681  11.383  13.915
47922W        W20248  16.517  33.403   0.350
47923W        W20249   6.686  13.570  11.160
47924W        W20250  44.980  36.907   3.597
47925W        W20251   2.007  10.860   1.359
47926W        W20252  15.345  40.634   2.587
47927W        W20253   8.381  27.023   0.977
47928W        W20254  27.530  16.309   4.570
47929W        W20255  26.490  42.579  13.917
47930W        W20256  41.884  27.069   2.921
47931W        W20257  15.277  19.522   0.894
47932W        W20258  26.985  14.664  11.070
47933W        W20259   0.541  30.464   2.810
47934W        W20260  15.832  44.780   3.734
47935W        W20261   2.416  23.653  14.541
47936W        W20262   2.524  43.591   4.187
47937W        W20263   5.797  11.449   0.478
47938W        W20264  20.783   8.948   4.556
47939W        W20265  26.915  43.376   3.448
47940W        W20266  32.971  25.637  13.166
47941W        W20267  30.548  21.798   3.248
47942W        W20268  34.218  30.721   1.218
47943W        W20269   4.975   0.334   2.195
47944W        W20270  42.967  36.600   2.086
47945W        W20271  33.983  22.758   1.790
47946W        W20272  23.649  20.312   3.207
47947W        W20273  37.925  33.541  10.154
47948W        W20274  23.160  41.543  10.793
47949W        W20275  21.307  39.760   0.874
47950W        W20276   2.223  29.180  14.318
47951W        W20277   4.472  22.050  12.075
47952W        W20278  21.118  15.148  14.724
47953W        W20279  21.277  39.865  13.622
47954W        W20280  36.612  12.042   3.291
47955W        W20281   3.650  35.950  12.089
47956W        W20282  27.206   4.969   2.688
47957W        W20283   4.707  11.413   4.662
47958W        W20284   6.864  32.596   0.888
47959W        W20285  37.137  40.525  14.317
47960W        W20286  33.907  40.644   3.636
47961W        W20287  16.593  16.583   2.798
47962W        W20288  15.328   7.804  13.471
47963W        W20289   2.387   7.619  13.549
47964W        W20290   2.990  43.970   1.800
47965W        W20291  28.505  21.538  13.104
47966W        W20292  33.178  27.066   0.284
47967W        W20293  21.612  13.551   2.747
47968W        W20294   1.853  24.748  12.892
47969W        W20295   2.905  41.557   2.723
47970W        W20296  12.130  41.223   1.133
47971W        W20297  14.276  25.913  14.424
47972W        W20298  41.459  20.294  11.978
47973W        W20299  17.999   6.295   4.058
47974W        W20300   7.373  40.346   0.882
47975W        W20301  16.069  34.381   2.323
47976W        W20302  30.948  43.984  11.993
47977W        W20303  20.604  31.822   1.597
47978W        W20304  19.105  20.766  10.931
47979W        W20305  33.039  20.038   3.816
47980W        W20306   0.934   5.381  14.721
47981W        W20307  34.902  11.019  10.640
47982W        W20308  20.166  36.885  14.273
47983W        W20309  32.557  21.357  14.891
47984W        W20310  25.137  11.559  14.699
47985W        W20311  29.133   8.782   0.801
47986W        W20312  19.583  39.994   4.576
47987W        W20313  41.920  18.719  12.307
47988W        W20314   6.728   3.169   0.882
47989W        W20315  40.273   0.439  11.614
47990W        W20316  32.029  29.316   1.745
47991W        W20317   3.261  42.304   2.906
47992W        W20318  28.260   3.950   3.728
47993W        W20319   1.189   5.347   3.872
47994W        W20320  30.094  16.199  12.434
47995W        W20321  39.710  15.736  11.192
47996W        W20322  19.139  34.016  10.555
47997W        W20323  20.026  26.251   4.220
47998W        W20324  18.980   2.424  13.439
47999W        W20325  18.253  18.819  13.257
48000W        W20326  39.468  37.327  12.847
48001W        W20327  11.708  37.434  14.791
48002W        W20328  19.830  34.107  12.257
48003W        W20329  38.777  40.929   3.577
48004W        W20330  38.773  37.792   2.342
48005W        W20331  35.542  27.533   2.178
48006W        W20332  40.453   9.192  13.435
48007W        W20333  14.835  15.654  12.452
48008W        W20334  25.107   4.425   1.945
48009W        W20335  14.282  26.003   4.109
48010W        W20336  26.746  33.501   0.325
48011W        W20337  36.304  31.152   4.075
48012W        W20338  26.183  25.436   0.020
48013W        W20339  43.688  10.981  13.361
48014W        W20340  38.464  19.206   0.820
48015W        W20341  35.962   6.842   1.797
48016W        W20342  25.968  20.015  13.059
48017W        W20343  13.832  33.878   2.092
48018W        W20344  10.589  37.777  14.483
48019W        W20345   1.315  42.742   3.562
48020W        W20346  19.607  24.004   2.690
48021W        W20347   7.189  39.836  10.664
48022W        W20348  28.093   2.462  11.692
48023W        W20349  29.486  38.565  12.598
48024W        W20350  39.813   0.456  14.946
48025W        W20351  17.440  42.028  13.634
48026W        W20352  40.810  32.477   3.753
48027W        W20353  14.606  10.294  13.247
48028W        W20354  28.878  25.204   2.414
48029W        W20355  42.930  29.643   3.647
48030W        W20356   8.098  40.087  13.877
48031W        W20357  14.086  30.278  11.783
48032W        W20358   4.223  21.753   2.078
48033W        W20359  30.922  13.985   2.753
48034W        W20360  19.975  24.442  12.876
48035W        W20361  20.136  14.462   5.031
48036W        W20362   1.332  26.586  13.341
48037W        W20363  35.846   0.245   1.966
48038W        W20364  23.657   3.620   1.385
48039W        W20365  13.196  15.414   3.722
48040W        W20366  41.988  43.235   3.702
48041W        W20367  36.084   7.316   2.770
48042W        W20368  10.463   9.343  12.324
48043W        W20369   5.853  16.666  12.349
48044W        W20370   7.692  28.585   4.793
48045W        W20371  18.609  33.846   0.972
48046W        W20372  30.999  33.561   3.428
48047W        W20373  14.808   0.491  12.387
48048W        W20374  32.952  12.525  10.682
48049W        W20375   5.260  27.217  10.593
48050W        W20376   4.276   7.277   4.581
48051W        W20377  22.563  22.289  12.017
48052W        W20378  31.074  27.644  10.601
48053W        W20379  32.668   7.334  14.336
48054W        W20380  42.015   1.478  14.085
48055W        W20381  16.972  41.837   3.186
48056W        W20382  14.859  21.107  10.691
48057W        W20383  39.085   2.044   3.023
48058W        W20384   7.874   9.732   3.177
48059W        W20385  35.083  30.108  10.643
48060W        W20386  40.421  30.372  11.450
48061W        W20387  29.961  18.198  12.101
48062W        W20388  29.104   1.743  12.655
48063W        W20389  38.759  34.407  14.357
48064W        W20390  14.716  38.394  12.464
48065W        W20391  33.439  26.213  11.182
48066W        W20392   9.435   8.666   4.884
48067W        W20393  44.477   8.237  10.544
48068W        W20394  27.531   7.286   4.815
48069W        W20395  26.171   4.826   4.160
48070W        W20396  25.685   9.174  11.201
48071W        W20397  10.083  31.617  14.332
48072W        W20398  31.040  17.593   3.668
48073W        W20399  28.454  14.845   4.057
48074W        W20400  31.027  30.845  11.785
48075W        W20401  21.070  25.642  12.908
48076W        W20402  12.669  27.100   4.523
48077W        W20403  14.608  39.065  14.926
48078W        W20404  34.869  14.671  13.371
48079W        W20405  15.614  17.739  11.044
48080W        W20406  17.302  33.815   2.745
48081W        W20407  10.263   9.144   1.788
48082W        W20408  40.408  11.115   0.503
48083W        W20409   3.212  10.329  10.716
48084W        W20410  10.190  20.305  14.841
48085W        W20411  17.393  33.768   9.821
48086W        W20412   7.377  23.712   0.484
48087W        W20413   6.196  38.528   2.322
48088W        W20414  32.275  40.494   0.258
48089W        W20415   9.969   4.963  13.029
48090W        W20416  32.039  19.186  14.847
48091W        W20417   0.242  26.449  11.011
48092W        W20418  25.825  39.220   4.968
48093W        W20419   8.378   2.905   3.329
48094W        W20420  35.820  14.770   3.117
48095W        W20421   0.316  32.407   0.897
48096W        W20422  28.675  11.172  12.511
48097W        W20423  17.810   2.085  14.336
48098W        W20424  37.348  12.977   2.414
48099W        W20425  39.961  44.201  11.638
48100W        W20426   2.303  15.433   0.873
48101W        W20427  19.745   7.273   3.354
48102W        W20428  35.324   8.918   1.982
48103W        W20429  38.961  24.686  13.474
48104W        W20430   0.466   8.710  11.484
48105W        W20431  20.796  15.555  12.632
48106W        W20432  32.489  41.229  14.477
48107W        W20433  30.478   3.974  14.402
48108W        W20434   8.655  38.760   1.781
48109W        W20435  38.097  24.885  14.406
48110W        W20436  41.042  24.624  12.476
48111W        W20437  43.293  26.018  14.620
48112W        W20438  12.237  42.859   2.230
48113W        W20439  35.151   9.743  14.319
48114W        W20440  11.650  30.477   4.580
48115W        W20441  18.043  13.319  12.062
48116W        W20442  13.162  24.913  14.002
48117W        W20443  22.004   2.234  13.350
48118W        W20444  15.298  31.726  10.655
48119W        W20445   5.917  41.828  13.084
48120W        W20446  34.284  40.043  14.773
48121W        W20447  18.433  10.564  11.103
48122W        W20448   2.964  26.741   2.818
48123W        W20449  26.215  22.310  12.328
48124W        W20450   9.752  14.812  10.677
48125W        W20451  24.711  19.117  13.262
48126W        W20452  24.496  38.439  11.933
48127W        W20453  10.156   8.325  13.092
48128W        W20454   1.685   3.145   3.775
48129W        W20455  19.743  30.496  12.962
48130W        W20456  22.092   2.444  14.522
48131W        W20457  15.826   1.375  12.503
48132W        W20458  30.475  11.099   1.227
48133W        W20459  31.604  40.820   1.231
48134W        W20460  16.437  31.799   4.226
48135W        W20461  31.233  27.881  14.192
48136W        W20462  23.424  12.753  11.099
48137W        W20463  31.533  12.400   4.777
48138W        W20464  18.060  30.210  14.442
48139W        W20465  34.290  18.672  14.809
48140W        W20466  39.168  17.855  14.839
48141W        W20467  26.485   5.397  12.833
48142W        W20468  44.889  31.457  12.452
48143W        W20469  16.175  30.014   0.528
48144W        W20470   1.728  27.848   2.323
48145W        W20471  26.866  41.348  14.459
48146W        W20472  25.756  16.029   2.239
48147W        W20473  22.123  26.811   3.410
48148W        W20474  16.417  27.410  13.735
48149W        W20475  25.725  22.237  12.602
48150W        W20476  40.305  22.625   2.601
48151W        W20477  32.606  25.149   1.476
48152W        W20478  38.892   6.527   4.814
48153W        W20479  37.000  37.454  12.059
48154W        W20480  39.556  19.658   3.658
48155W        W20481  38.336  28.451  10.664
48156W        W20482  11.409  44.890   3.810
48157W        W20483  21.471  22.208   3.669
48158W        W20484  12.796  23.521   5.054
48159W        W20485  42.411  29.651   4.147
48160W        W20486   2.913   7.799  14.718
48161W        W20487  17.639   0.262   3.481
48162W        W20488  44.067  13.721  12.074
48163W        W20489  14.109  44.030  11.156
48164W        W20490  24.524  30.540   3.914
48165W        W20491   4.271  31.014   0.345
48166W        W20492  17.824  22.328   3.850
48167W        W20493  25.122  32.699  12.075
48168W        W20494   8.737  37.313  11.900
48169W        W20495  20.715  11.862  10.780
48170W        W20496  44.082  42.691   2.674
48171W        W20497  28.981   7.429  13.916
48172W        W20498   4.336  28.003   2.777
48173W        W20499  15.713   3.279  12.257
48174W        W20500   4.653  33.997  11.157
48175W        W20501  41.942  18.036  11.598
48176W        W20502   6.844   9.961  14.636
48177W        W20503  10.311   0.556   4.676
48178W        W20504   6.735  31.409  12.665
48179W        W20505  21.596  38.343   2.631
48180W        W20506   0.579   0.971   0.351
48181W        W20507  10.659  42.773   2.798
48182W        W20508  24.528  44.943  14.386
48183W        W20509  25.916   0.472   3.822
48184W        W20510  29.588   6.157   4.619
48185W        W20511  39.749   1.912   1.364
48186W        W20512   1.928   2.747  10.370
48187W        W20513  20.513  32.930  12.413
48188W        W20514   2.066   5.079   4.174
48189W        W20515   7.870   7.701  13.114
48190W        W20516  14.845  38.852  10.650
48191W        W20517  28.001  15.891  13.695
48192W        W20518  26.442  32.689   4.132
48193W        W20519  16.144  24.476   2.068
48194W        W20520   4.171  38.795  13.012
48195W        W20521  13.189   7.385  10.238
48196W        W20522  42.509  38.603   1.250
48197W        W20523   7.999  18.179   2.382
48198W        W20524  28.510   5.965   0.267
48199W        W20525  12.853  38.549  12.364
48200W        W20526  20.498  21.218   3.167
48201W        W20527  38.369   8.323   3.344
48202W        W20528  19.527  20.005   4.537
48203W        W20529  36.486  22.091   1.694
48204W        W20530  31.731  40.584   2.414
48205W        W20531   0.670  13.609  14.044
48206W        W20532  37.522   0.885   1.487
48207W        W20533   9.669  40.845   0.863
48208W        W20534  20.743  39.391  14.581
48209W        W20535  17.498  40.921  14.352
48210W        W20536   1.092  13.784   3.170
48211W        W20537  31.657  18.415   0.574
48212W        W20538   0.232  26.176   1.663
48213W        W20539  11.852  16.238  10.653
48214W        W20540  41.452  44.982   4.682
48215W        W20541  35.420  22.997   3.415
48216W        W20542   1.662  24.690  13.380
48217W        W20543  10.278  42.580  12.357
48218W        W20544   1.096  27.622  11.874
48219W        W20545  28.952   0.578  12.683
48220W        W20546  27.309   1.337   2.016
48221W        W20547  31.162  12.619   5.078
48222W        W20548  12.088  38.507   0.032
48223W        W20549  32.589  34.186  14.384
48224W        W20550   7.200   1.229  10.628
48225W        W20551  21.897  10.075  10.574
48226W        W20552  36.356  42.716   0.832
48227W        W20553  10.797  11.074  12.749
48228W        W20554   8.031  21.710   3.958
48229W        W20555  16.240  37.551  11.057
48230W        W20556  15.172  20.484  14.883
48231W        W20557  38.913   4.874   2.604
48232W        W20558  25.714  12.711   2.784
48233W        W20559   5.674  25.693   0.215
48234W        W20560   5.340  32.872   4.332
48235W        W20561   8.340   0.550   4.894
48236W        W20562  12.828  21.782  14.447
48237W        W20563   0.304  33.706  12.829
48238W        W20564  23.364  13.140   3.889
48239W        W20565  36.960  30.159   1.407
48240W        W20566  22.013   6.437   2.647
48241W        W20567  27.179  22.542  14.982
48242W        W20568  27.474  13.123  11.184
48243W        W20569  36.441  21.102   3.044
48244W        W20570  38.547  12.845  14.068
48245W        W20571  24.432  39.560   0.598
48246W        W20572  28.232  25.970   0.673
48247W        W20573  12.712  31.674  14.933
48248W        W20574  30.129  39.949   4.571
48249W        W20575  24.058   0.525  12.092
48250W        W20576  35.373  36.655  12.464
48251W        W20577  39.517  39.530  13.229
48252W        W20578  21.930  36.947  13.979
48253W        W20579  42.852  37.957  14.361
48254W        W20580  21.111  15.730   3.636
48255W        W20581   6.834  18.303   1.746
48256W        W20582   3.900  18.087  14.921
48257W        W20583   9.123  36.062   2.129
48258W        W20584   2.922  30.615   3.406
48259W        W20585  30.436  25.560  11.118
48260W        W20586  23.321  15.324  11.123
48261W        W20587  32.629  14.560  13.560
48262W        W20588  28.893   2.973   4.275
48263W        W20589  38.943  43.808  11.116
48264W        W20590  38.570  12.329  13.036
48265W        W20591   9.878  10.882   0.334
48266W        W20592   8.718   3.412  11.172
48267W        W20593   4.184  22.130   4.148
48268W        W20594  17.324  26.689   3.696
48269W        W20595  28.506  38.835   1.943
48270W        W20596  28.989  29.979  13.226
48271W        W20597  20.114  11.335  12.918
48272W        W20598  15.815  15.253   2.906
48273W        W20599  42.354  43.315  13.332
48274W        W20600   4.222   7.257   3.661
48275W        W20601  33.603  35.291   0.340
48276W        W20602  42.424  41.541   2.893
48277W        W20603  41.475  14.369  14.923
48278W        W20604  13.349   2.438  10.682
48279W        W20605  24.795  33.850   1.915
48280W        W20606   1.010  11.096  12.024
48281W        W20607  33.372  35.811   4.693
48282W        W20608  43.484  44.561   2.783
48283W        W20609   7.945  39.527   3.382
48284W        W20610  38.788  12.749   0.403
48285W        W20611  18.926  29.821  13.405
48286W        W20612  24.078  39.086  10.585
48287W        W20613  23.089   3.666   2.805
48288W        W20614  13.511  20.687  14.375
48289W        W20615  25.207  35.088  11.511
48290W        W20616  20.271  19.900   9.512
48291W        W20617   9.556   0.738  11.953
48292W        W20618  15.173  16.318  11.187
48293W        W20619  21.028  18.646   3.114
48294W        W20620  13.660  43.828   0.539
48295W        W20621  41.919   3.953   4.616
48296W        W20622  39.952  21.650   1.349
48297W        W20623  25.821  39.965  12.834
48298W        W20624  42.115  28.024  10.796
48299W        W20625  11.812   7.400  13.826
48300W        W20626  14.786  41.085   1.506
48301W        W20627   0.151  28.673   3.492
48302W        W20628  28.612   3.534   3.713
48303W        W20629  43.818  13.461  11.136
48304W        W20630  43.128   0.279   2.895
48305W        W20631   3.400  17.011  14.835
48306W        W20632   7.331  16.235  11.167
48307W        W20633  40.424  11.112  14.826
48308W        W20634  39.924  12.536  10.689
48309W        W20635  29.224   0.838  11.916
48310W        W20636  36.126  40.064  13.325
48311W        W20637  31.582  22.917  10.707
48312W        W20638  12.815  28.249   2.499
48313W        W20639   2.647  25.347   3.573
48314W        W20640  40.432  35.971   2.405
48315W        W20641   2.512  27.545  12.393
48316W        W20642  44.469  35.930   3.164
48317W        W20643  31.520   0.481   4.662
48318W        W20644  27.079   0.975  11.653
48319W        W20645  35.860   3.312  10.711
48320W        W20646  28.043  24.185  14.778
48321W        W20647   9.800  18.228   2.165
48322W        W20648  34.432   3.170   2.818
48323W        W20649   5.260   9.300  10.674
48324W        W20650  25.574  32.158  10.594
48325W        W20651   3.234  17.198   4.715
48326W        W20652   8.849  35.031   3.147
48327W        W20653  20.012  28.941  10.777
48328W        W20654   1.634   0.357  14.311
48329W        W20655   1.216   3.862   2.757
48330W        W20656  33.669  38.918   3.218
48331W        W20657  43.593  27.475   3.697
48332W        W20658  21.363  26.138   0.816
48333W        W20659  25.204   5.376  10.706
48334W        W20660   8.245   4.163   1.392
48335W        W20661  44.403  34.531  14.044
48336W        W20662  14.905   7.300  14.089
48337W        W20663  42.880  18.134  13.295
48338W        W20664  30.631  30.468  12.016
48339W        W20665  44.816   6.337   2.732
48340W        W20666  29.951  32.868   0.903
48341W        W20667  20.836   9.313   1.371
48342W        W20668  12.257   5.948  10.775
48343W        W20669  22.436   8.321   4.760
48344W        W20670   7.296   0.670  12.998
48345W        W20671   5.957  39.222  14.995
48346W        W20672  30.191  31.437   3.342
48347W        W20673   1.365   1.687  11.190
48348W        W20674   9.742  11.561   3.346
48349W        W20675  40.429  26.128   1.016
48350W        W20676  42.938  32.409   1.689
48351W        W20677   8.476  25.617   1.218
48352W        W20678  40.431  36.597   4.261
48353W        W20679  28.888  26.663   0.483
48354W        W20680  11.367  44.403   4.008
48355W        W20681   0.486  41.404  11.590
48356W        W20682  16.301  14.823  14.712
48357W        W20683   8.413  15.863  14.692
48358W        W20684  27.140  41.514  12.682
48359W        W20685  30.095   4.654   3.167
48360W        W20686  38.024   8.635  10.652
48361W        W20687   1.805  34.063   1.510
48362W        W20688   1.479  31.561  11.634
48363W        W20689  16.151  16.249   3.752
48364W        W20690  35.044  31.074  13.340
48365W        W20691   3.469  15.630  14.016
48366W        W20692  14.347   8.335  14.598
48367W        W20693  41.563  28.613  13.058
48368W        W20694   4.351  13.568   3.881
48369W        W20695  32.380   1.291   3.654
48370W        W20696  44.364  12.360  10.614
48371W        W20697   3.972   5.456   0.344
48372W        W20698  44.196   0.493  12.532
48373W        W20699  21.462  32.563   1.815
48374W        W20700  27.428  26.429   3.696
48375W        W20701  19.012  18.459  13.846
48376W        W20702  20.434  23.437  10.307
48377W        W20703  39.862  22.079  13.989
48378W        W20704  44.433   2.570   3.187
48379W        W20705  43.049  38.029   1.654
48380W        W20706   8.666   9.221  11.669
48381W        W20707  21.022  38.604  12.417
48382W        W20708  35.613   1.477  13.591
48383W        W20709  14.790  24.975   1.459
48384W        W20710  30.710  39.369  12.074
48385W        W20711  14.692  37.427   3.554
48386W        W20712  44.447  36.620  11.930
48387W        W20713  24.430  12.953  10.959
48388W        W20714  26.291  14.016   0.529
48389W        W20715   6.321  40.064   2.159
48390W        W20716  24.924  19.455   2.805
48391W        W20717  10.559  30.917   3.738
48392W        W20718   6.143  16.227   0.507
48393W        W20719  12.814  21.014   2.833
48394W        W20720  16.019  41.759  10.644
48395W        W20721  28.638  30.872  14.290
48396W        W20722  29.393   8.352  12.989
48397W        W20723  13.369  18.164  10.729
48398W        W20724  32.097  26.100  10.713
48399W        W20725   1.315   7.801  10.969
48400W        W20726  21.084  20.594   0.000
48401W        W20727  35.483  28.191  12.934
48402W        W20728  10.117  24.177   0.897
48403W        W20729  21.331  23.162   4.597
48404W        W20730   9.381   6.903   3.844
48405W        W20731  21.567  15.185   4.064
48406W        W20732  16.901  15.882   2.260
48407W        W20733  44.302  40.662   2.337
48408W        W20734  31.441  42.900  12.431
48409W        W20735  25.070  29.014   3.901
48410W        W20736   0.899   9.068   4.919
48411W        W20737  26.117   4.319   4.364
48412W        W20738  39.785   9.231   4.171
48413W        W20739  27.862  23.508  10.380
48414W        W20740  36.610  25.548  12.988
48415W        W20741  15.762   1.470   1.159
48416W        W20742  43.844  27.739   0.322
48417W        W20743  10.743   6.749  14.522
48418W        W20744  20.222  28.093   2.201
48419W        W20745  40.980  16.903   1.306
48420W        W20746   1.912   8.333  11.501
48421W        W20747  27.524  32.667  13.424
48422W        W20748   0.511   8.715  14.136
48423W        W20749   2.969  10.184   0.833
48424W        W20750  19.335  38.303   4.247
48425W        W20751  27.748   1.256   1.747
48426W        W20752  33.941  25.258   0.402
48427W        W20753  26.376  31.593   1.851
48428W        W20754  19.541  43.262  11.222
48429W        W20755  42.080  17.212   1.277
48430W        W20756  11.785  25.641   4.542
48431W        W20757  42.908   0.924   3.970
48432W        W20758  20.133  19.691  12.333
48433W        W20759  24.216   4.808   3.759
48434W        W20760  27.271  40.885   2.335
48435W        W20761   9.601  28.529   0.831
48436W        W20762  32.382   4.291  13.011
48437W        W20763  23.527   0.475  12.066
48438W        W20764  23.520   7.186  11.642
48439W        W20765  41.476  41.911  13.992
48440W        W20766   9.315  21.015  12.602
48441W        W20767  13.237  27.674   3.378
48442W        W20768  13.363  28.248   0.874
48443W        W20769   7.773   2.759   4.121
48444W        W20770  44.157  24.264  12.004
48445W        W20771  26.181  41.035   0.954
48446W        W20772  27.529  29.212  10.962
48447W        W20773  20.000   8.162   3.277
48448W        W20774  19.633  40.490   4.659
48449W        W20775  17.993   2.489   0.722
48450W        W20776  37.642  18.674   1.003
48451W        W20777  23.098  42.911   4.580
48452W        W20778  11.634   0.761   2.274
48453W        W20779  23.687  38.763  10.686
48454W        W20780  42.366  17.724  13.653
48455W        W20781   6.774  20.632   0.973
48456W        W20782  29.342  44.420   3.327
48457W        W20783  40.884  28.465   0.780
48458W        W20784   3.465  36.926  10.637
48459W        W20785  17.683   0.343   0.955
48460W        W20786   5.475   1.103   0.569
48461W        W20787   6.347  21.511  12.872
48462W        W20788  22.509  40.443  14.504
48463W        W20789  20.096  10.066   3.163
48464W        W20790  26.006   2.149  14.409
48465W        W20791  33.411   2.897   3.150
48466W        W20792  13.576  36.090   9.977
48467W        W20793  26.652   1.535   1.489
48468W        W20794  44.944   7.699  13.441
48469W        W20795  13.366  15.316  13.389
48470W        W20796  18.515   6.773   0.190
48471W        W20797  13.552  38.310   0.383
48472W        W20798   7.871  33.033  12.848
48473W        W20799  12.637   5.670   2.818
48474W        W20800  43.729  37.451   3.811
48475W        W20801  20.071  43.892   0.261
48476W        W20802  23.613  34.349  11.215
48477W        W20803  25.577   3.482   0.194
48478W        W20804  37.623   1.344  11.559
48479W        W20805  13.476  15.367  14.751
48480W        W20806  19.459  40.738  14.554
48481W        W20807  39.104  28.049   2.826
48482W        W20808  24.213  44.767  14.006
48483W        W20809  26.440   4.337   1.650
48484W        W20810  24.523  23.427  11.157
48485W        W20811   3.809   6.991   4.599
48486W        W20812  11.101  18.578   2.395
48487W        W20813   8.425  17.846  14.352
48488W        W20814  21.276  30.916   5.128
48489W        W20815  16.314   7.210   0.369
48490W        W20816  26.716  28.470  11.536
48491W        W20817  31.586   3.271  10.551
48492W        W20818  34.105   0.278   4.706
48493W        W20819  31.116  17.284   4.541
48494W        W20820  22.771  34.851  13.031
48495W        W20821   7.707  41.023  11.183
48496W        W20822  23.902  33.118  10.755
48497W        W20823  40.427   0.201  11.141
48498W        W20824  32.164   6.396  12.230
48499W        W20825  30.368  35.981   4.076
48500W        W20826  23.560  17.738  12.088
48501W        W20827  23.846  29.234   3.210
48502W        W20828  44.240  22.693  10.739
48503W        W20829  36.953  24.598  14.879
48504W        W20830  28.232  26.591   2.724
48505W        W20831   4.913  31.887   1.901
48506W        W20832   0.774  39.823  14.243
48507W        W20833  28.983  19.185  13.480
48508W        W20834  41.910  17.541  13.271
48509W        W20835  10.276  34.971  11.893
48510W        W20836  34.737   1.708   3.272
48511W        W20837   7.031   0.716   0.903
48512W        W20838  15.230  17.730   3.171
48513W        W20839   0.246  33.899  11.526
48514W        W20840  10.769  35.568   3.713
48515W        W20841  12.772  38.407  13.365
48516W        W20842  41.474  35.579   4.136
48517W        W20843   1.538   1.998   0.407
48518W        W20844  14.266  44.790  12.779
48519W        W20845  34.110  24.016  11.739
48520W        W20846  16.641  30.603  13.020
48521W        W20847  27.098  41.996   4.302
48522W        W20848  32.105   5.930   3.302
48523W        W20849   6.383  26.950  14.421
48524W        W20850  25.219  35.633   3.327
48525W        W20851  19.115  10.905   4.533
48526W        W20852   0.944  22.605  13.537
48527W        W20853  40.040   8.871   3.883
48528W        W20854  33.742  38.242  14.311
48529W        W20855  34.944   9.673   1.119
48530W        W20856  12.106  24.126  14.423
48531W        W20857  24.250  29.594  11.231
48532W        W20858   8.273  35.120   1.392
48533W        W20859  28.453   0.408  12.510
48534W        W20860  44.378  15.281  12.638
48535W        W20861   3.983  27.981  12.856
48536W        W20862  20.141  18.667   4.565
48537W        W20863  28.065  33.991   3.733
48538W        W20864  35.422   0.661  12.021
48539W        W20865  26.015  40.366   2.246
48540W        W20866  43.820  18.531   2.733
48541W        W20867  35.518   6.694   1.212
48542W        W20868  21.174  15.845  13.528
48543W        W20869  29.453  10.137   2.664
48544W        W20870  41.825  33.673  13.892
48545W        W20871   1.419   0.825   0.371
48546W        W20872  15.633   1.710  10.698
48547W        W20873  34.665  33.351  10.662
48548W        W20874   9.917  29.050   5.029
48549W        W20875   5.804  18.859  13.540
48550W        W20876  17.823   1.825  13.062
48551W        W20877  41.977  36.855  13.414
48552W        W20878  43.650  22.570  13.034
48553W        W20879   2.631  12.229   0.990
48554W        W20880  29.079  25.549  12.987
48555W        W20881  27.589  31.548   0.320
48556W        W20882  33.523  43.649   4.478
48557W        W20883   2.551  25.140  10.922
48558W        W20884  40.558  20.653  11.334
48559W        W20885  23.910  36.423   0.862
48560W        W20886  25.779   2.675  12.428
48561W        W20887  31.822   9.985   4.642
48562W        W20888  42.747  14.523   0.319
48563W        W20889  43.292  23.215  12.318
48564W        W20890  14.060  27.106  11.963
48565W        W20891  44.332  21.594  13.277
48566W        W20892  10.638  22.269   1.347
48567W        W20893  12.339  22.519  12.878
48568W        W20894   5.926  27.611  14.171
48569W        W20895   8.155  28.430  11.039
48570W        W20896  33.346  20.766  13.864
48571W        W20897  30.780   7.760   1.299
48572W        W20898   9.243  18.108   1.440
48573W        W20899  20.615  21.588  12.293
48574W        W20900   8.636  35.326  10.484
48575W        W20901  33.184  19.075   3.305
48576W        W20902  15.016  41.528   1.151
48577W        W20903  26.997   6.318  12.504
48578W        W20904  28.623  41.857  10.733
48579W        W20905  31.728  40.863  12.957
48580W        W20906   3.809  24.040  14.871
48581W        W20907  16.262  14.852  11.563
48582W        W20908  28.595  38.433  14.444
48583W        W20909  44.206  31.743   1.670
48584W        W20910  21.648  34.731  12.901
48585W        W20911  13.783  10.227  14.169
48586W        W20912  19.706  31.224   4.442
48587W        W20913  35.447  15.839   0.749
48588W        W20914   9.770  30.675   2.627
48589W        W20915  27.609  37.929   4.574
48590W        W20916  17.334  12.633   1.824
48591W        W20917   8.775  13.033  11.643
48592W        W20918   0.987  22.002  10.564
48593W        W20919  26.141   2.560  11.261
48594W        W20920  29.940  22.200   0.425
48595W        W20921   3.529  42.459  12.042
48596W        W20922  44.830  44.542  12.003
48597W        W20923   2.422  23.226   2.848
48598W        W20924  19.248  21.785  13.510
48599W        W20925  25.145  42.559   1.824
48600W        W20926  30.384  42.930   1.580
48601W        W20927  39.376  14.710   4.062
48602W        W20928   3.952  28.490  14.939
48603W        W20929  14.616  28.943   0.720
48604W        W20930  10.098   8.256   3.686
48605W        W20931  10.187  44.711  11.201
48606W        W20932  14.617   5.506   3.752
48607W        W20933  23.753  34.077  13.351
48608W        W20934  19.763  28.056  12.139
48609W        W20935  35.377   2.830  11.427
48610W        W20936  27.749  29.673  10.966
48611W        W20937  41.429  42.981   1.225
48612W        W20938  25.403  42.795   2.822
48613W        W20939  39.550  19.535  11.982
48614W        W20940  33.521  14.706   2.672
48615W        W20941  20.357  28.122   1.302
48616W        W20942  37.627  15.285   4.111
48617W        W20943  20.007   9.683   4.048
48618W        W20944  24.422  29.367  13.862
48619W        W20945  30.056  17.820  13.621
48620W        W20946  23.258  17.294   0.786
48621W        W20947  18.093   3.383  11.609
48622W        W20948  35.568   5.888  10.829
48623W        W20949  41.452  35.477  14.745
48624W        W20950  32.660  13.298   4.743
48625W        W20951  22.041  23.790   0.189
48626W        W20952  19.211  22.133   3.803
48627W        W20953  10.016  35.055  12.423
48628W        W20954  11.597  19.793  11.534
48629W        W20955  30.108   4.287  14.567
48630W        W20956  17.137  21.601  14.444
48631W        W20957  11.322  17.661  11.814
48632W        W20958  41.968  37.254  11.638
48633W        W20959  36.496  43.516  13.978
48634W        W20960  44.473   2.944  13.730
48635W        W20961   1.604  27.862  11.854
48636W        W20962  16.721  15.432   2.097
48637W        W20963  12.574  28.636   3.731
48638W        W20964   7.801  27.994   1.637
48639W        W20965  34.994  23.924  14.261
48640W        W20966   8.268  39.915   1.943
48641W        W20967  21.644   5.426   0.893
48642W        W20968   2.376   2.448   3.368
48643W        W20969  31.186  14.833   2.197
48644W        W20970   9.699   8.869   0.298
48645W        W20971  41.363  24.189   3.343
48646W        W20972  25.105  27.154  13.163
48647W        W20973  44.605  16.099  10.150
48648W        W20974  19.862  22.448   0.982
48649W        W20975  27.217  32.944   1.832
48650W        W20976  27.502  33.955  14.044
48651W        W20977   7.699   9.779   2.699
48652W        W20978  39.424  30.289   1.875
48653W        W20979  36.960  22.247  12.484
48654W        W20980  14.252  13.338   0.468
48655W        W20981  26.936  28.905  11.366
48656W        W20982  18.246   9.852   1.708
48657W        W20983  44.290  37.983  14.238
48658W        W20984  19.501  35.397  13.458
48659W        W20985  15.797  19.185   0.968
48660W        W20986  25.946  36.039   4.237
48661W        W20987  39.455  28.957   0.502
48662W        W20988   0.272  14.569  12.952
48663W        W20989  43.689  32.507  12.337
48664W        W20990  22.058  36.506  12.973
48665W        W20991  13.226   4.586  12.199
48666W        W20992  32.162   4.599   0.301
48667W        W20993  10.109  44.376  10.503
48668W        W20994  40.377  38.355   4.148
48669W        W20995  22.658  34.456   0.893
48670W        W20996   3.648  38.900  12.173
48671W        W20997   5.397   0.847  10.577
48672W        W20998   1.844  32.134  13.954
48673W        W20999  14.926  18.885   2.253
48674W        W21000  35.328  40.441   3.657
48675W        W21001  18.260  10.866  13.793
48676W        W21002   8.895   6.662  11.463
48677W        W21003  28.156  16.745  11.233
48678W        W21004  30.566  13.460   4.899
48679W        W21005  39.813  30.660   0.112
48680W        W21006  18.209  22.645  10.573
48681W        W21007  12.634  23.033   2.570
48682W        W21008  28.646  12.235  12.367
48683W        W21009  15.271  12.062  12.072
48684W        W21010  20.622  29.151  13.629
48685W        W21011  37.616   6.177   0.515
48686W        W21012  21.557  26.612   3.253
48687W        W21013   1.467  24.298  11.109
48688W        W21014  16.865  25.913  14.817
48689W        W21015  37.855  11.379   3.088
48690W        W21016  18.076  10.070   1.256
48691W        W21017  10.919  38.272   3.243
48692W        W21018  34.388  18.650   1.661
48693W        W21019  11.517  42.028   0.859
48694W        W21020  15.672  39.619  14.427
48695W        W21021  41.178  10.660  10.339
48696W        W21022  27.949  12.151   4.775
48697W        W21023  23.476   2.005   3.184
48698W        W21024  42.022  44.982  10.664
48699W        W21025  40.486  17.383   1.983
48700W        W21026  21.733  23.600   4.113
48701W        W21027  42.320  27.228  13.297
48702W        W21028  16.788  29.484   3.695
48703W        W21029  32.137  36.531  11.900
48704W        W21030   6.785   5.847  11.648
48705W        W21031  16.168   6.870  14.061
48706W        W21032  44.187  27.001   2.278
48707W        W21033   3.356  18.780   2.459
48708W        W21034  20.598  40.551   0.696
48709W        W21035  40.816  36.127  12.106
48710W        W21036  12.777  33.839   4.051
48711W        W21037   6.396  15.130   3.910
48712W        W21038  18.113  15.835   3.817
48713W        W21039   4.655  34.948  14.822
48714W        W21040   8.290  28.909  10.952
48715W        W21041  17.457  37.440   4.880
48716W        W21042  28.725  12.415  14.725
48717W        W21043  23.603   9.820   0.773
48718W        W21044   7.744   5.710  12.567
48719W        W21045   9.573  18.124  12.090
48720W        W21046  27.182  11.459   2.027
48721W        W21047  36.370  19.847  12.964
48722W        W21048   6.758  24.011  12.039
48723W        W21049  38.351  17.025   3.176
48724W        W21050  34.550  25.770  13.852
48725W        W21051   4.663  37.731  11.881
48726W        W21052   0.871   7.188   0.455
48727W        W21053  42.784   2.015   4.924
48728W        W21054  13.162  10.237  13.416
48729W        W21055  41.061  23.921   3.698
48730W        W21056  22.330  33.528  11.029
48731W        W21057  37.483  21.468  12.533
48732W        W21058  34.608  22.671   4.125
48733W        W21059   1.892  10.382   4.226
48734W        W21060   5.844   2.311  14.592
48735W        W21061  15.400  28.518  11.191
48736W        W21062  17.797   1.625  13.559
48737W        W21063  40.284  43.772  10.785
48738W        W21064   4.771  20.587   1.451
48739W        W21065  29.912  34.174   1.261
48740W        W21066   9.112   4.943   0.959
48741W        W21067  35.690  41.167   0.910
48742W        W21068  11.255   2.644   3.717
48743W        W21069   0.868   2.794  11.053
48744W        W21070  23.644  19.468   0.237
48745W        W21071  16.554  44.371  12.919
48746W        W21072  16.510  43.848   2.218
48747W        W21073  33.116  25.525   0.765
48748W        W21074  39.284  13.501   1.934
48749W        W21075  25.559  28.093  11.717
48750W        W21076  43.751  42.958   5.147
48751W        W21077  33.447  34.091   4.085
48752W        W21078  37.471  25.628   2.712
48753W        W21079  26.525   5.355  11.223
48754W        W21080  10.688   5.489  12.390
48755W        W21081  31.507   4.714  13.952
48756W        W21082  34.087  38.536  14.961
48757W        W21083  18.574  10.919   1.864
48758W        W21084  42.968  29.177   2.782
48759W        W21085   1.285  20.765   4.748
48760W        W21086  19.644  15.125   1.404
48761W        W21087  32.836  10.863  13.483
48762W        W21088   9.837  15.660  12.038
48763W        W21089   7.512  42.479   1.290
48764W        W21090  32.036  31.422  13.812
48765W        W21091  33.721  31.343  13.155
48766W        W21092  23.714  14.394  13.453
48767W        W21093  33.822  10.358   0.382
48768W        W21094  28.353  26.671  14.075
48769W        W21095  41.480  17.212   4.037
48770W        W21096  44.469  33.857  14.910
48771W        W21097  37.808  24.554  10.740
48772W        W21098  39.306  10.286   2.943
48773W        W21099  13.950  35.778  10.155
48774W        W21100  23.424  26.840  10.763
48775W        W21101   5.888  10.429   3.148
48776W        W21102  32.424  32.557  14.505
48777W        W21103   1.382  19.352   4.235
48778W        W21104  38.414   4.530  14.786
48779W        W21105   4.547  11.511   9.720
48780W        W21106  40.393  23.629   0.416
48781W        W21107  35.766  23.644  10.748
48782W        W21108  41.944   9.318   4.152
48783W        W21109   1.617  29.858   1.784
48784W        W21110  23.656  38.483   2.853
48785W        W21111  33.590  39.191   1.875
48786W        W21112  44.188   2.482  13.485
48787W        W21113  30.518  26.588   4.633
48788W        W21114  20.671  41.314  12.314
48789W        W21115   8.594  15.792  10.391
48790W        W21116   6.650  42.687   1.782
48791W        W21117  21.826  19.784  10.564
48792W        W21118  28.676  26.525  12.610
48793W        W21119   9.889  21.650  14.691
48794W        W21120  41.118  37.551  12.943
48795W        W21121  41.265  26.663   4.390
48796W        W21122   8.204  10.880  13.183
48797W        W21123  29.676  13.164  12.917
48798W        W21124   9.620  13.494  11.109
48799W        W21125  16.166  40.064   2.711
48800W        W21126  35.333  14.773   3.275
48801W        W21127  15.567   5.547  14.210
48802W        W21128  27.422   9.910   4.584
48803W        W21129  12.060  40.324   0.896
48804W        W21130  25.836   4.422   0.816
48805W        W21131  19.828  24.286  14.359
48806W        W21132  43.680   0.397  12.617
48807W        W21133  36.369   3.339  10.598
48808W        W21134  10.704  15.503   0.909
48809W        W21135  35.056   2.545  11.109
48810W        W21136  10.783  11.542  12.958
48811W        W21137   1.995  13.652  14.423
48812W        W21138   5.394   3.270   2.220
48813W        W21139  32.934  13.280   3.176
48814W        W21140  43.427  39.487   2.361
48815W        W21141  23.444  37.621  10.674
48816W        W21142  38.218  10.721   1.483
48817W        W21143  41.331  11.809  10.659
48818W        W21144  26.190   1.261   2.956
48819W        W21145  12.142  18.806  13.573
48820W        W21146  24.148  26.581   1.324
48821W        W21147  33.485  36.598  13.855
48822W        W21148  40.357  12.270   3.762
48823W        W21149  35.362  23.505   1.702
48824W        W21150  23.565  44.250  10.441
48825W        W21151  10.611  32.478  14.152
48826W        W21152  41.891  30.921  14.359
48827W        W21153  27.347  36.018   1.330
48828W        W21154  37.479  22.192   2.645
48829W        W21155   1.204  17.622  12.424
48830W        W21156  18.030  39.356  14.875
48831W        W21157  15.791  26.983   2.213
48832W        W21158  32.880  26.238  12.367
48833W        W21159  14.731  19.728   2.193
48834W        W21160  22.135   2.142   4.567
48835W        W21161  17.626   6.708   0.478
48836W        W21162  28.442  14.623  11.458
48837W        W21163  32.803  15.091  12.820
48838W        W21164   1.426  15.825  12.120
48839W        W21165  34.523   1.801   2.820
48840W        W21166  26.100  35.583   2.422
48841W        W21167   6.469  25.895  13.264
48842W        W21168  19.542  38.595  13.948
48843W        W21169  23.032   2.247  13.276
48844W        W21170  11.851   4.096  11.009
48845W        W21171  35.358  11.135   1.780
48846W        W21172  36.673  22.704  13.354
48847W        W21173  37.646  19.789   1.158
48848W        W21174  44.746  33.428  14.869
48849W        W21175   6.651  14.106   2.339
48850W        W21176   0.957   6.237   3.369
48851W        W21177  18.074  19.600   1.201
48852W        W21178  15.762   8.328  13.585
48853W        W21179  38.632  14.235  12.548
48854W        W21180  25.521  22.590   2.062
48855W        W21181  10.060   9.974   0.848
48856W        W21182  44.912  29.594   1.209
48857W        W21183   1.206  36.347   3.732
48858W        W21184  30.912  14.561  10.614
48859W        W21185  38.094  16.049   2.240
48860W        W21186  34.169  33.504  10.670
48861W        W21187  33.606  23.644   2.704
48862W        W21188  15.782   4.765   0.487
48863W        W21189   9.134  37.421  14.983
48864W        W21190  44.560  37.790   1.756
48865W        W21191  30.973  32.440  13.417
48866W        W21192  24.660  42.022  14.817
48867W        W21193  26.512  20.324  12.293
48868W        W21194  39.534  44.453   4.271
48869W        W21195  39.293  29.976   2.843
48870W        W21196  10.675  10.179  11.181
48871W        W21197  19.700  14.816  10.909
48872W        W21198  25.423  11.170  11.622
48873W        W21199  27.395  22.637   2.790
48874W        W21200  16.772  17.329  13.050
48875W        W21201   6.818  17.056   4.377
48876W        W21202  13.757   6.262   0.732
48877W        W21203  13.314  17.356   4.114
48878W        W21204  30.149  32.435   1.802
48879W        W21205  27.900   6.690   4.224
48880W        W21206  31.120  20.551   1.303
48881W        W21207  24.245   5.292   2.640
48882W        W21208   6.205  34.977  11.048
48883W        W21209   5.033  30.494   0.211
48884W        W21210  40.363  41.947   4.140
48885W        W21211   6.862  17.519   3.486
48886W        W21212  13.337  21.372  11.386
48887W        W21213  20.288  19.292  13.046
48888W        W21214  42.468  43.124   0.296
48889W        W21215  42.443  10.885   4.530
48890W        W21216  27.126  31.226  13.082
48891W        W21217  11.476   0.758   3.205
48892W        W21218   4.139  22.902  13.813
48893W        W21219  28.637  25.436   9.653
48894W        W21220  17.632  30.991  11.530
48895W        W21221   2.451  21.485   3.728
48896W        W21222  28.676  32.417  10.978
48897W        W21223   7.611   2.326  12.585
48898W        W21224  12.174  42.019   1.042
48899W        W21225  21.656  38.852   2.542
48900W        W21226  29.815  13.473  14.958
48901W        W21227  29.436  12.570  11.290
48902W        W21228  22.760  36.118  13.328
48903W        W21229   5.682  21.641  11.087
48904W        W21230  21.089  34.043   5.161
48905W        W21231  38.345  13.362  10.949
48906W        W21232  37.843  13.169  12.955
48907W        W21233  25.293  28.558   4.098
48908W        W21234   1.338  42.371   2.247
48909W        W21235   3.483  24.460  14.865
48910W        W21236  11.095   1.096   0.873
48911W        W21237  31.389  11.102  14.050
48912W        W21238  26.911   1.814   4.159
48913W        W21239  13.646  11.862   0.048
48914W        W21240  39.399  40.962   1.462
48915W        W21241  16.463  15.485  11.504
48916W        W21242  19.033  44.275  14.928
48917W        W21243  23.199  17.168  11.856
48918W        W21244  39.082  30.129   2.398
48919W        W21245  26.018  38.889   1.051
48920W        W21246  22.000  28.900  13.869
48921W        W21247   5.147  21.341  12.026
48922W        W21248   3.885  17.279   0.521
48923W        W21249  33.390  38.187   3.428
48924W        W21250  19.383  20.311   1.276
48925W        W21251   1.365  34.884  14.000
48926W        W21252  17.797   6.275   1.119
48927W        W21253   8.267  35.565   4.816
48928W        W21254  27.984  41.321  13.321
48929W        W21255   1.554  31.984   1.301
48930W        W21256   2.826  20.571   5.130
48931W        W21257  25.229  23.574   1.824
48932W        W21258  23.947  28.016  13.852
48933W        W21259  33.867  32.413  11.866
48934W        W21260  34.873  25.491  13.537
48935W        W21261  10.604  33.915  11.494
48936W        W21262  34.039   8.197   2.300
48937W        W21263  44.721  14.075   4.625
48938W        W21264   3.821   3.270  12.898
48939W        W21265  34.946  39.404  12.572
48940W        W21266  40.020  17.714  14.782
48941W        W21267  33.819  30.919  14.517
48942W        W21268  41.482  21.620   1.901
48943W        W21269  27.707   0.245  13.912
48944W        W21270  15.294   3.190   1.212
48945W        W21271  35.859   2.308   1.027
48946W        W21272  24.723  20.613   0.246
48947W        W21273  39.584   0.665  11.563
48948W        W21274   6.930  25.633   0.954
48949W        W21275  11.220   6.793  13.478
48950W        W21276  23.076  31.067   3.085
48951W        W21277   0.330  28.886   4.116
48952W        W21278   3.726  44.486   1.605
48953W        W21279  38.312   4.277   3.082
48954W        W21280  41.260  31.393   1.766
48955W        W21281  11.244  28.750   0.265
48956W        W21282  27.578   7.975  12.531
48957W        W21283  24.270  13.893   1.719
48958W        W21284   3.332  16.188  10.980
48959W        W21285   3.022  42.842   4.166
48960W        W21286  18.127  44.568   1.900
48961W        W21287  30.445   6.717  13.232
48962W        W21288  38.881  11.978  14.715
48963W        W21289  20.304  27.113  12.088
48964W        W21290  24.885   8.765   0.287
48965W        W21291  12.553  18.208   4.897
48966W        W21292   3.773   0.550  12.434
48967W        W21293  16.826  27.669   4.180
48968W        W21294  23.499   7.410   3.424
48969W        W21295  27.588   5.312   4.625
48970W        W21296  35.153  43.335   0.289
48971W        W21297  14.719   8.195  14.058
48972W        W21298  22.628  11.568  14.346
48973W        W21299   3.501  15.810  12.571
48974W        W21300   9.446  11.388  13.038
48975W        W21301  15.580  36.443   2.219
48976W        W21302   1.786   8.728   3.345
48977W        W21303  21.283   9.501   1.589
48978W        W21304  23.612  43.041   2.386
48979W        W21305  30.508  22.220   2.281
48980W        W21306  16.688  20.660  13.307
48981W        W21307  42.739   7.500   2.922
48982W        W21308  44.977   7.259  11.611
48983W        W21309  42.848  39.909   0.227
48984W        W21310   3.270  33.366   1.345
48985W        W21311   2.235   9.649   9.547
48986W        W21312  23.140  36.482   3.368
48987W        W21313  12.030   7.942   0.813
48988W        W21314  20.716  40.477  11.976
48989W        W21315  36.890  42.928  14.674
48990W        W21316   5.991  17.261  13.414
48991W        W21317  37.302  39.331  14.951
48992W        W21318  31.616  20.787   3.147
48993W        W21319   4.650  38.577  11.381
48994W        W21320  21.841  13.128  11.773
48995W        W21321  15.434  20.145  12.652
48996W        W21322   8.761  38.831   0.918
48997W        W21323  28.638   2.455   1.675
48998W        W21324   3.671  29.716   2.754
48999W        W21325  25.049   2.568   3.811
49000W        W21326  32.892  14.083  14.137
49001W        W21327  22.522  31.898  14.818
49002W        W21328  20.743  11.838   4.540
49003W        W21329  33.406  36.035   2.799
49004W        W21330  21.786  30.333   2.446
49005W        W21331  30.844  38.446  13.007
49006W        W21332  29.237   2.375  14.042
49007W        W21333  11.680  35.863   2.294
49008W        W21334  15.221   6.001   3.200
49009W        W21335  25.505  19.137  14.216
49010W        W21336  42.715  33.581   0.883
49011W        W21337  35.102  24.215   3.808
49012W        W21338   3.225  23.054   2.233
49013W        W21339  29.491   6.967   2.140
49014W        W21340  31.949  11.931  14.039
49015W        W21341   0.811  28.285  12.898
49016W        W21342  12.937  28.615   4.863
49017W        W21343  44.911  17.317  13.853
49018W        W21344  21.714  42.095  13.460
49019W        W21345  36.905  13.408   0.880
49020W        W21346  14.138  26.449  11.351
49021W        W21347  14.507  25.430   9.744
49022W        W21348   1.986  11.138  12.104
49023W        W21349   2.931  32.995   4.464
49024W        W21350   3.901  11.747  11.645
49025W        W21351  39.799   1.901   4.222
49026W        W21352  18.519  27.575  14.879
49027W        W21353   4.033  36.522   2.862
49028W        W21354  25.516  27.958   3.242
49029W        W21355  36.907  31.060  10.400
49030W        W21356  36.806  39.451  12.753
49031W        W21357  39.843  30.762   2.975
49032W        W21358  26.721   6.943  11.137
49033W        W21359  14.161   5.989  11.093
49034W        W21360  12.177  13.118   2.831
49035W        W21361   0.064   3.932   1.808
49036W        W21362  10.085  37.901  11.576
49037W        W21363   1.420  12.861  13.463
49038W        W21364  38.328   4.444   4.080
49039W        W21365  25.104  28.472  13.317
49040W        W21366  32.266   3.449  12.747
49041W        W21367  38.571  38.040  10.471
49042W        W21368  22.948  25.652  13.975
49043W        W21369  26.151  43.953   2.459
49044W        W21370  11.566  29.644  11.286
49045W        W21371  22.024  13.402  12.350
49046W        W21372   7.726  10.192  13.366
49047W        W21373   7.124  28.125   0.269
49048W        W21374  30.294  17.610   0.327
49049W        W21375  11.924  14.335  10.705
49050W        W21376   9.739  10.327   1.200
49051W        W21377  30.923   5.644  13.309
49052W        W21378   2.961  42.737  12.541
49053W        W21379   7.684  35.819  13.381
49054W        W21380  43.211  41.366   0.452
49055W        W21381  27.922  13.649  14.600
49056W        W21382  12.912  17.204  13.248
49057W        W21383  18.820  14.828  14.730
49058W        W21384  29.226  22.070  13.432
49059W        W21385  15.424  41.134  13.880
49060W        W21386   8.317  10.791  10.301
49061W        W21387  12.679  21.214  12.886
49062W        W21388  39.078  27.159   0.802
49063W        W21389  30.683  21.109  12.699
49064W        W21390  42.767   6.470   0.981
49065W        W21391  20.051  32.366  10.795
49066W        W21392  21.008  32.865   2.529
49067W        W21393  20.783  42.860  13.941
49068W        W21394  32.077  23.063  10.750
49069W        W21395  28.619   9.700  14.934
49070W        W21396  21.387   9.022  12.816
49071W        W21397  41.896  27.599  14.954
49072W        W21398  12.770  37.328   2.724
49073W        W21399  30.431  43.778  10.045
49074W        W21400  41.444  22.779   4.241
49075W        W21401  12.289   1.587  12.441
49076W        W21402  43.679   2.530   4.620
49077W        W21403  33.284  25.899   3.377
49078W        W21404   8.264  10.045   2.279
49079W        W21405  33.375  35.456   0.787
49080W        W21406  33.120  22.666   2.290
49081W        W21407  31.879  31.860   3.446
49082W        W21408  14.307   8.744  11.754
49083W        W21409  35.608  17.190  12.007
49084W        W21410  26.166  12.210  10.540
49085W        W21411  12.791  16.276   0.024
49086W        W21412  30.186  17.547  10.405
49087W        W21413  38.970  19.358   4.627
49088W        W21414  38.626  37.981   2.826
49089W        W21415  25.078  13.139  13.530
49090W        W21416   5.654  16.184   0.297
49091W        W21417  24.244   0.888  12.577
49092W        W21418   2.826  32.558   3.647
49093W        W21419  11.254   5.282  11.715
49094W        W21420  34.925  23.273   0.034
49095W        W21421  17.156   5.487  14.009
49096W        W21422  35.155   6.439   0.944
49097W        W21423  19.690  11.062  14.499
49098W        W21424  43.510  16.144   0.737
49099W        W21425   7.673   5.862   4.694
49100W        W21426  29.574  13.180   0.341
49101W        W21427  18.487  38.377   4.488
49102W        W21428  38.912   4.429   0.826
49103W        W21429   5.735  15.118   1.769
49104W        W21430  13.319  26.055   0.394
49105W        W21431  25.652  31.868  14.349
49106W        W21432  40.324  14.823  13.045
49107W        W21433  35.106  17.087   4.677
49108W        W21434  18.945  16.170   4.080
49109W        W21435  11.238  37.077  10.698
49110W        W21436  38.798  16.895   3.736
49111W        W21437  41.276  30.367  12.559
49112W        W21438  35.122  35.291   2.805
49113W        W21439  22.044   6.263   1.811
49114W        W21440  12.598   4.750   2.693
49115W        W21441  22.100  28.043  11.525
49116W        W21442  30.907  15.992   2.816
49117W        W21443  13.303  21.797  13.936
49118W        W21444  22.588  44.840   1.786
49119W        W21445  19.241  28.601   0.841
49120W        W21446  16.133  43.583   0.514
49121W        W21447  16.742  40.539  13.153
49122W        W21448   8.873  28.671   0.257
49123W        W21449  40.895  44.164   4.839
49124W        W21450   1.638  26.662   3.218
49125W        W21451  18.650  26.466  13.985
49126W        W21452  19.922   0.447   1.837
49127W        W21453  18.288   4.190  11.559
49128W        W21454  42.428  29.908  13.896
49129W        W21455   5.337  43.785   3.241
49130W        W21456  20.143  38.986   2.704
49131W        W21457  32.315   7.646  10.328
49132W        W21458  33.074  13.690  14.422
49133W        W21459   1.597  44.384  12.445
49134W        W21460   7.426   4.975   3.809
49135W        W21461  16.865  17.259   1.438
49136W        W21462   3.736  27.149  10.418
49137W        W21463  36.063   8.829   2.632
49138W        W21464  22.002   9.386   0.933
49139W        W21465  14.803  31.838   0.581
49140W        W21466  12.951  20.292  12.025
49141W        W21467  25.118  36.132  14.607
49142W        W21468  42.717  12.642  14.035
49143W        W21469  24.023  26.360   9.998
49144W        W21470  19.626   1.251  11.995
49145W        W21471  31.878  30.442  14.470
49146W        W21472   4.332  42.772  13.180
49147W        W21473  44.924  40.345   3.622
49148W        W21474  13.685  28.969   3.288
49149W        W21475   3.809  27.604   3.686
49150W        W21476  28.062  27.471   3.389
49151W        W21477   4.997  24.902  13.040
49152W        W21478   5.170  39.357  14.816
49153W        W21479  20.076  19.472   5.209
49154W        W21480  42.628  40.617   2.598
49155W        W21481  26.015  28.709   2.210
49156W        W21482  40.559   6.790  11.925
49157W        W21483  10.840  35.912   0.233
49158W        W21484  36.881  20.289   0.630
49159W        W21485  21.294  31.609  11.638
49160W        W21486  11.756  39.914   0.037
49161W        W21487  25.889  39.792   0.900
49162W        W21488  12.215  20.760   4.412
49163W        W21489  25.909  17.037  10.217
49164W        W21490  23.782   1.992  10.919
49165W        W21491  17.815  29.697   3.687
49166W        W21492  14.388   3.887   3.871
49167W        W21493  35.930  29.926   0.386
49168W        W21494  28.390  38.435  11.058
49169W        W21495  19.194  37.582  14.078
49170W        W21496   5.638  37.074  13.788
49171W        W21497  31.448   1.042  14.941
49172W        W21498  44.251   3.877  13.507
49173W        W21499  41.339  27.640   0.297
49174W        W21500  19.911  42.254  14.322
49175W        W21501  42.978  32.143  13.406
49176W        W21502  16.641  17.780  11.795
49177W        W21503  14.779   9.849  11.504
49178W        W21504  17.556  43.282   3.668
49179W        W21505  25.959  42.762   1.115
49180W        W21506  28.022  33.028   2.262
49181W        W21507  41.978   9.976  10.532
49182W        W21508  41.119   3.922   4.714
49183W        W21509  11.805  36.903  11.501
49184W        W21510  16.724  28.678  10.781
49185W        W21511  44.365  44.262  11.967
49186W        W21512   3.655  22.298   4.729
49187W        W21513   7.781  10.573  13.025
49188W        W21514   2.941  30.558  13.645
49189W        W21515  32.335  42.830  14.758
49190W        W21516   7.100  20.562   3.741
49191W        W21517   7.855  26.673   2.203
49192W        W21518  44.310  14.336   3.250
49193W        W21519  16.492   4.457  11.163
49194W        W21520  35.441  25.286   4.206
49195W        W21521   8.209   0.951   1.140
49196W        W21522   0.343   1.972  11.989
49197W        W21523  15.233  19.615   2.387
49198W        W21524  33.114  24.203   2.391
49199W        W21525   9.297  30.357  10.670
49200W        W21526  26.730  38.060   4.475
49201W        W21527  22.213  20.354  12.831
49202W        W21528  17.314   9.784   2.227
49203W        W21529  37.973  14.097  14.541
49204W        W21530  41.050  34.352   3.023
49205W        W21531   4.470  27.119  12.451
49206W        W21532  33.069  43.534  14.473
49207W        W21533  38.210   8.192   1.930
49208W        W21534  44.980   7.407  14.707
49209W        W21535   6.729  37.477   1.762
49210W        W21536  38.170  31.558   2.938
49211W        W21537  13.175   2.495   4.162
49212W        W21538  29.546  27.155   2.154
49213W        W21539  33.339  40.391   4.655
49214W        W21540  11.221  19.068   3.773
49215W        W21541  23.717  33.180   3.238
49216W        W21542  39.885   3.923   4.318
49217W        W21543  13.577  36.498  12.485
49218W        W21544  17.260  43.664   0.113
49219W        W21545   1.774  20.050  11.074
49220W        W21546  18.540  26.210   1.176
49221W        W21547  12.484  35.858  11.154
49222W        W21548   1.004   8.834  11.307
49223W        W21549   8.376  12.184  11.265
49224W        W21550  27.692  44.379   4.832
49225W        W21551  40.795  12.430  13.325
49226W        W21552  42.532  10.839   0.021
49227W        W21553   9.131  30.122  13.701
49228W        W21554   6.640  10.858   1.008
49229W        W21555  10.314  40.776  13.975
49230W        W21556  33.931  26.963   3.421
49231W        W21557  27.307   3.326   3.417
49232W        W21558  22.563  13.337  14.862
49233W        W21559  17.486  21.001  14.347
49234W        W21560   8.656   0.457  12.993
49235W        W21561   5.449  30.647  14.663
49236W        W21562  25.279   1.828   0.750
49237W        W21563  31.548   0.741   0.404
49238W        W21564  42.836  40.948   2.161
49239W        W21565  11.259  30.424   3.263
49240W        W21566  16.734  21.999  14.912
49241W        W21567  35.973  39.127  13.666
49242W        W21568  28.377  15.553   3.111
49243W        W21569  36.827  13.129  10.550
49244W        W21570  26.414  15.734  13.820
49245W        W21571  38.033  10.221  12.843
49246W        W21572  31.515  26.087   2.762
49247W        W21573   9.620  33.512   1.421
49248W        W21574  40.508  20.098  12.138
49249W        W21575  17.436  31.065   2.678
49250W        W21576   5.107   9.278  13.537
49251W        W21577  24.391  40.734   2.420
49252W        W21578  24.428  42.960  14.385
49253W        W21579  28.428  18.223   4.607
49254W        W21580  36.040  43.495  14.270
49255W        W21581  33.402   4.646   2.917
49256W        W21582  17.636  15.544   2.563
49257W        W21583  37.797   6.998   2.248
49258W        W21584  28.023  17.167  11.559
49259W        W21585   2.015  27.421   2.223
49260W        W21586  11.092  38.303   1.861
49261W        W21587  38.178  18.755  11.411
49262W        W21588  30.258  43.231   0.655
49263W        W21589  22.018  21.207   2.497
49264W        W21590   2.995  44.366  12.888
49265W        W21591  28.889  21.570  10.674
49266W        W21592  26.276  28.497  12.527
49267W        W21593  37.071  16.362   3.149
49268W        W21594  18.828  14.587   0.800
49269W        W21595  28.227  38.082  12.078
49270W        W21596   3.277   7.150   3.737
49271W        W21597  35.277  33.127  11.951
49272W        W21598  43.817  15.282   3.279
49273W        W21599  15.249  38.058   3.584
49274W        W21600  23.512  42.786   4.243
49275W        W21601  37.965  27.546   0.584
49276W        W21602  12.873   9.779  14.480
49277W        W21603  23.063  12.668  13.476
49278W        W21604  34.908  14.548   0.682
49279W        W21605  34.925  14.323  12.407
49280W        W21606  40.845   9.948   2.389
49281W        W21607  25.424  19.509   0.752
49282W        W21608   4.056   4.339  13.459
49283W        W21609  26.015  11.850  14.429
49284W        W21610   6.834  16.784  14.390
49285W        W21611  17.204  17.813   4.808
49286W        W21612   0.238  21.015  11.984
49287W        W21613  44.523  26.590  12.175
49288W        W21614  26.269  33.205   1.836
49289W        W21615  10.766  40.398  11.576
49290W        W21616  27.538  24.050  11.940
49291W        W21617  27.991  16.749  14.924
49292W        W21618  15.703   1.508   3.174
49293W        W21619  25.647   9.405   0.314
49294W        W21620  19.206  41.892   1.962
49295W        W21621  29.156  18.327  10.348
49296W        W21622  33.453  39.058   3.703
49297W        W21623  34.258   2.540   4.263
49298W        W21624  39.703  43.319   0.102
49299W        W21625  43.859  26.778   2.656
49300W        W21626   4.288  37.526   4.940
49301W        W21627  41.064  22.451   2.148
49302W        W21628   9.148  15.995  11.119
49303W        W21629  30.032  12.264  13.100
49304W        W21630  26.397  21.208   2.059
49305W        W21631   4.626  22.293  13.357
49306W        W21632  44.387  23.829   1.868
49307W        W21633  17.288   1.423  12.418
49308W        W21634  14.428  38.428  14.604
49309W        W21635  33.024   6.698   0.374
49310W        W21636  21.836  16.258   2.310
49311W        W21637  42.398  25.731  12.551
49312W        W21638  33.722  28.156  11.550
49313W        W21639   2.240  29.227  12.856
49314W        W21640   4.448  33.595   1.949
49315W        W21641  35.019  40.045   1.311
49316W        W21642  32.116  29.996   0.396
49317W        W21643   1.749  17.872   1.652
49318W        W21644  22.795   9.413  13.096
49319W        W21645  29.392   5.639   1.879
49320W        W21646   0.509   0.834   0.848
49321W        W21647   3.244  22.218   4.353
49322W        W21648  27.757  34.986   1.847
49323W        W21649   7.233   3.056  14.829
49324W        W21650  25.147  35.136   3.442
49325W        W21651  33.419  23.573  13.089
49326W        W21652  32.501  30.753  11.944
49327W        W21653  16.220  19.766   4.086
49328W        W21654  10.939  27.515   0.026
49329W        W21655  17.525  19.808  11.563
49330W        W21656  43.232  31.600  11.998
49331W        W21657  10.232  19.097   4.265
49332W        W21658  21.690  10.820   3.689
49333W        W21659  15.074  12.151   2.694
49334W        W21660   5.239  30.127  12.823
49335W        W21661  32.607  39.041  14.791
49336W        W21662  18.680  19.243   0.863
49337W        W21663  43.975  39.890  13.041
49338W        W21664   6.957  22.058  12.607
49339W        W21665  17.752  17.196  13.712
49340W        W21666   8.928  28.580  13.888
49341W        W21667  23.584  40.360   4.217
49342W        W21668  11.083   1.313  11.238
49343W        W21669   7.363   4.451   1.676
49344W        W21670  38.062  34.310   4.494
49345W        W21671  17.107  39.209  10.920
49346W        W21672  43.712  24.156  13.594
49347W        W21673   3.204  41.410   1.352
49348W        W21674  40.952  27.998  12.482
49349W        W21675  29.396   8.718  13.515
49350W        W21676  21.501  39.250   5.329
49351W        W21677  19.751  42.086   4.772
49352W        W21678   4.022  12.678   4.147
49353W        W21679  22.673  29.971   4.436
49354W        W21680  27.448  38.872   3.592
49355W        W21681   8.242  31.008  11.167
49356W        W21682   6.828  23.202  13.807
49357W        W21683  26.552  30.964   4.188
49358W        W21684  15.946  14.531  11.872
49359W        W21685  17.807   7.620   0.314
49360W        W21686  10.160   3.516  13.870
49361W        W21687  10.305  25.669  10.714
49362W        W21688  37.516  35.439  14.949
49363W        W21689  23.321  20.525   1.522
49364W        W21690  19.619  43.164   2.143
49365W        W21691  11.617  15.192   2.082
49366W        W21692  35.219  33.618   0.613
49367W        W21693  38.998  22.072  11.608
49368W        W21694  24.187  28.654   2.459
49369W        W21695  40.966   2.296  13.014
49370W        W21696  23.546  30.871   2.194
49371W        W21697  21.794   3.335  14.552
49372W        W21698  14.661  40.888   3.816
49373W        W21699  12.667  12.592   4.437
49374W        W21700  26.831   0.128   3.688
49375W        W21701  42.486  16.867  14.451
49376W        W21702  24.978  32.986  13.847
49377W        W21703  28.336   6.183  14.785
49378W        W21704  25.906  19.175  12.101
49379W        W21705   7.732  39.859  12.113
49380W        W21706  38.813  41.835  12.073
49381W        W21707  39.972  12.121  13.162
49382W        W21708  14.784  25.895  12.570
49383W        W21709  19.533   4.335   4.627
49384W        W21710   2.881  24.305   1.445
49385W        W21711  44.750  14.664  13.016
49386W        W21712   0.475  14.165   0.633
49387W        W21713  28.337  31.398  11.929
49388W        W21714  38.002  35.532   0.174
49389W        W21715   7.346  29.457   1.733
49390W        W21716  32.387  36.674  13.111
49391W        W21717   2.999  28.185  12.069
49392W        W21718  13.213  34.949   4.268
49393W        W21719  18.953  14.805  13.280
49394W        W21720   9.688  42.035  13.826
49395W        W21721   3.872  20.248  12.517
49396W        W21722  24.226   9.628  10.861
49397W        W21723  40.545  27.063  13.974
49398W        W21724   1.482  11.381  10.241
49399W        W21725  25.208  42.594  12.303
49400W        W21726  11.394  31.550  12.490
49401W        W21727  25.054   1.781   1.744
49402W        W21728  19.787  40.289   3.002
49403W        W21729   7.423  10.047   0.778
49404W        W21730  14.831  23.724   2.314
49405W        W21731  22.383   7.951   2.743
49406W        W21732   2.548  17.882  13.844
49407W        W21733  44.594  31.424  12.910
49408W        W21734  37.169   2.212  10.673
49409W        W21735   9.019  33.150  14.415
49410W        W21736  21.158   1.374   3.799
49411W        W21737  11.228  36.509  10.651
49412W        W21738  33.683   1.967   2.984
49413W        W21739  14.857  13.252   1.225
49414W        W21740  39.507  18.554  14.287
49415W        W21741  14.300   2.777  14.809
49416W        W21742  13.294  32.991   4.823
49417W        W21743  22.691  26.566  14.489
49418W        W21744  26.903  36.673  13.277
49419W        W21745  18.695   1.745   4.651
49420W        W21746  13.644  41.556  11.101
49421W        W21747   8.264  34.099   3.651
49422W        W21748  29.201  18.196   2.909
49423W        W21749  14.832  37.193  13.801
49424W        W21750  17.341  27.669   4.267
49425W        W21751  34.628  32.614   9.897
49426W        W21752  10.690  10.135  12.051
49427W        W21753  15.824   2.966  11.571
49428W        W21754  26.727  20.068  14.954
49429W        W21755   5.900  20.210   4.145
49430W        W21756  39.301  23.632   3.825
49431W        W21757  38.350  44.047  10.627
49432W        W21758  10.694  33.595   0.704
49433W        W21759  32.701  27.556  11.442
49434W        W21760   4.472  36.220   2.758
49435W        W21761   3.193  20.543   2.402
49436W        W21762  20.574  40.549   1.980
49437W        W21763  30.430  16.741  11.003
49438W        W21764   5.036   6.957  14.756
49439W        W21765  14.384   6.808  13.372
49440W        W21766  44.337  15.149   0.911
49441W        W21767  18.584  23.218  10.322
49442W        W21768  10.278  19.822   0.967
49443W        W21769  31.279  17.045  12.491
49444W        W21770  24.960  26.110  11.189
49445W        W21771  30.520  36.294  11.119
49446W        W21772  28.026  29.921   1.731
49447W        W21773  44.836   6.485   3.883
49448W        W21774   7.542  26.866   3.221
49449W        W21775   2.107  38.798  12.469
49450W        W21776  23.211   3.181  11.274
49451W        W21777  39.983  21.648  12.271
49452W        W21778  26.506  44.545  11.295
49453W        W21779  37.910  18.745  12.375
49454W        W21780   8.648  20.492   1.859
49455W        W21781  24.042  10.790   2.379
49456W        W21782  40.314  15.162   1.313
49457W        W21783  29.948   8.289  13.879
49458W        W21784   7.206  29.503  14.715
49459W        W21785   8.516   2.522   1.699
49460W        W21786  12.145  16.543  14.682
49461W        W21787  30.672  37.056   2.095
49462W        W21788  30.064  44.000   4.960
49463W        W21789  25.095  23.799  11.147
49464W        W21790  26.944  39.623   1.896
49465W        W21791  25.579   9.981  11.843
49466W        W21792   9.770  39.375  14.871
49467W        W21793  21.930  34.625   5.069
49468W        W21794   7.811  24.462   3.250
49469W        W21795  41.813  25.866  12.978
49470W        W21796  27.725   7.365   2.992
49471W        W21797  14.242  13.607  13.889
49472W        W21798  19.097  44.867  12.333
49473W        W21799  29.669  37.195   4.525
49474W        W21800   7.767   8.873   1.765
49475W        W21801  23.242  29.639  14.385
49476W        W21802  39.785  34.615  14.471
49477W        W21803  39.855   8.391  11.382
49478W        W21804   2.006  13.123   3.699
49479W        W21805  24.819  39.567   3.556
49480W        W21806   7.578  40.404   3.973
49481W        W21807  35.619  43.311  14.527
49482W        W21808  31.009  39.990   2.348
49483W        W21809  17.484  41.031   1.289
49484W        W21810  37.817  29.397  12.211
49485W        W21811  43.063   9.213  12.004
49486W        W21812  33.166   7.824   1.724
49487W        W21813  16.757  35.013  12.015
49488W        W21814   4.975  26.193  12.634
49489W        W21815  17.053  20.696   2.622
49490W        W21816  42.922   5.959  13.206
49491W        W21817  17.220  26.146   3.656
49492W        W21818  11.811  28.302   1.548
49493W        W21819  33.595  22.186  12.863
49494W        W21820  24.725  35.470   3.322
49495W        W21821  38.497  41.241  13.035
49496W        W21822  24.082  27.411   1.911
49497W        W21823   6.984   2.200  11.048
49498W        W21824  40.946  38.215   1.149
49499W        W21825  10.255  19.656  12.919
49500W        W21826  25.896  16.604   3.248
49501W        W21827  43.081  33.715  10.679
49502W        W21828  36.606  21.785   4.108
49503W        W21829  20.267   6.387  12.150
49504W        W21830   0.847  41.783  11.000
49505W        W21831   1.973  33.925   2.820
49506W        W21832  24.628  29.258   0.627
49507W        W21833  13.511  36.853  13.770
49508W        W21834   7.595  35.514   3.271
49509W        W21835  39.869   9.397  12.248
49510W        W21836  24.388  21.218  13.612
49511W        W21837  42.732  20.977  11.119
49512W        W21838   0.815  17.073   1.528
49513W        W21839  20.892  37.340   3.794
49514W        W21840  32.445   7.673   1.072
49515W        W21841  18.267  34.640  14.256
49516W        W21842  12.062  35.624   0.572
49517W        W21843  36.926  36.802   0.374
49518W        W21844  30.085  25.952  13.273
49519W        W21845  14.685  39.416  12.542
49520W        W21846  12.185  32.495  10.673
49521W        W21847   0.866  10.433  14.261
49522W        W21848  20.674  14.324  10.652
49523W        W21849  16.007  17.774  12.600
49524W        W21850  17.136  23.775  14.468
49525W        W21851  21.548  29.406   2.182
49526W        W21852  17.090   7.802  11.466
49527W        W21853  25.192   3.475  11.114
49528W        W21854   1.504  27.251  12.592
49529W        W21855  12.590  25.311  13.898
49530W        W21856  38.874  38.979  13.773
49531W        W21857  39.542  17.132   0.205
49532W        W21858  15.327  18.900  14.241
49533W        W21859  41.433   2.399   2.749
49534W        W21860  21.127  10.753   0.949
49535W        W21861  37.331  10.152   1.346
49536W        W21862  30.784  36.539  13.837
49537W        W21863  33.629  36.326   0.292
49538W        W21864  20.220  26.706   1.923
49539W        W21865  40.892  42.909   2.112
49540W        W21866  14.518  16.990   9.958
49541W        W21867  16.778  23.013  11.654
49542W        W21868   8.733  26.811  13.435
49543W        W21869  31.725  40.951   3.605
49544W        W21870  23.421  30.606   4.702
49545W        W21871  28.891  25.220   4.672
49546W        W21872  29.453  37.244  10.389
49547W        W21873  36.534  24.090  10.721
49548W        W21874  31.628  10.367   1.804
49549W        W21875  32.876  21.681   3.295
49550W        W21876  28.081   4.329  12.453
49551W        W21877  35.695  25.236   2.870
49552W        W21878  39.889  14.055  11.370
49553W        W21879  15.759   5.742  13.764
49554W        W21880  16.334  26.662   4.574
49555W        W21881  30.503  26.039  12.271
49556W        W21882  17.732  40.911   0.807
49557W        W21883   9.103  42.775   4.645
49558W        W21884  36.831  38.248  11.434
49559W        W21885  15.104  31.144   2.187
49560W        W21886  33.422  32.724  11.924
49561W        W21887  15.617  21.032   0.412
49562W        W21888  33.559  34.435  11.457
49563W        W21889  16.214  39.795   4.109
49564W        W21890  19.015  31.934   0.239
49565W        W21891  26.571  26.820   0.318
49566W        W21892  16.305  39.586   0.408
49567W        W21893   8.028  42.493  14.678
49568W        W21894  18.503   8.727   0.446
49569W        W21895  23.567  20.676   4.823
49570W        W21896  21.343  37.910   2.781
49571W        W21897  32.506  31.161   3.581
49572W        W21898  37.502   5.811   4.061
49573W        W21899  24.182  14.274  10.480
49574W        W21900  41.246  44.524   4.703
49575W        W21901  38.876  22.150   2.421
49576W        W21902  33.120  21.369  13.195
49577W        W21903   9.948   9.616   4.575
49578W        W21904  13.872  18.939   5.181
49579W        W21905  20.725  14.791  10.912
49580W        W21906   7.295  42.045   1.865
49581W        W21907   0.744  16.668   3.998
49582W        W21908  34.826  14.838   4.363
49583W        W21909  34.945   5.945  13.735
49584W        W21910  21.478  19.613   0.208
49585W        W21911  17.366  33.110   4.105
49586W        W21912  20.913   7.890   2.875
49587W        W21913  12.591  41.738   1.261
49588W        W21914  13.709  40.936   4.303
49589W        W21915  44.339   6.535   4.935
49590W        W21916   0.812  39.373   4.582
49591W        W21917   9.671  21.659  13.321
49592W        W21918  22.961   7.172   3.725
49593W        W21919   0.880   5.894  14.965
49594W        W21920   3.684   5.259   3.308
49595W        W21921  26.659  16.963   0.804
49596W        W21922  18.716  21.574   4.374
49597W        W21923  32.095  25.147   1.239
49598W        W21924  41.440  34.977   2.455
49599W        W21925  20.795  29.909   3.652
49600W        W21926  26.760  40.326   5.058
49601W        W21927  17.146  16.523  11.141
49602W        W21928  25.541   6.341   0.190
49603W        W21929  37.285  38.857   3.656
49604W        W21930  25.571  10.571  12.811
49605W        W21931  43.395   9.748  13.256
49606W        W21932   2.219  26.582   2.381
49607W        W21933   5.822  29.034  14.226
49608W        W21934   2.214   3.885   1.217
49609W        W21935  22.233  21.529  12.120
49610W        W21936  17.188  10.386  10.671
49611W        W21937  41.303  35.192   2.905
49612W        W21938   8.312  44.790  14.273
49613W        W21939  35.364   1.591  14.939
49614W        W21940  38.409  22.122   4.162
49615W        W21941   8.240  41.547   0.204
49616W        W21942  22.440  10.392   2.835
49617W        W21943  12.614  28.676  14.261
49618W        W21944  44.189  38.304   5.092
49619W        W21945   6.466  40.790   3.334
49620W        W21946  28.063  32.482   1.009
49621W        W21947  32.168  15.304   1.159
49622W        W21948  27.597  21.538  13.569
49623W        W21949  42.943  24.752   2.279
49624W        W21950  15.553  27.981  12.178
49625W        W21951   9.581   8.606   4.409
49626W        W21952  43.482  27.873  12.317
49627W        W21953  24.658  22.701   2.132
49628W        W21954  11.307  37.375  13.296
49629W        W21955  42.114  32.973   1.813
49630W        W21956  40.778  23.744   0.769
49631W        W21957  37.851   2.307   0.863
49632W        W21958  31.152  26.140   3.826
49633W        W21959   9.213  21.265  10.012
49634W        W21960  25.942  23.280  11.528
49635W        W21961   9.658  10.613   4.290
49636W        W21962  22.570  30.659  13.967
49637W        W21963  30.338  10.584  11.783
49638W        W21964  14.354  42.779  13.670
49639W        W21965  29.306   6.762  12.120
49640W        W21966   8.708  17.140   2.363
49641W        W21967  41.778  10.783   1.357
49642W        W21968  28.917   6.142   1.492
49643W        W21969  26.181  20.068  13.538
49644W        W21970  37.395   2.389  11.617
49645W        W21971  42.512  43.885   0.794
49646W        W21972   1.520  13.202   3.867
49647W        W21973  15.572  16.084  10.947
49648W        W21974  11.745  19.478  13.773
49649W        W21975  25.045  10.168  12.511
49650W        W21976  36.837   1.327   4.680
49651W        W21977  38.936   9.294   0.877
49652W        W21978  42.487   7.842  14.602
49653W        W21979  41.710  34.836  11.640
49654W        W21980  38.412   7.283   4.921
49655W        W21981  11.746   5.339  12.478
49656W        W21982  37.627  31.227  13.927
49657W        W21983  32.835  14.609  11.140
49658W        W21984   7.280  26.516   0.539
49659W        W21985   3.005   6.747   2.858
49660W        W21986  37.998  33.598   4.994
49661W        W21987  21.584  13.614  11.834
49662W        W21988  11.328  15.349  13.465
49663W        W21989  17.814   0.544  12.480
49664W        W21990  29.199  32.553   3.127
49665W        W21991  28.556  25.167  10.083
49666W        W21992  12.755  24.235   1.308
49667W        W21993  11.696  35.106   2.692
49668W        W21994   2.251  14.304  13.305
49669W        W21995  19.559   3.583  12.011
49670W        W21996  14.301  10.197   0.497
49671W        W21997  34.243   4.435  13.339
49672W        W21998  26.009  34.091   1.973
49673W        W21999  20.130  18.973   1.713
49674W        W22000  15.201  16.042   3.727
49675W        W22001   2.200  39.826   0.722
49676W        W22002  14.928   9.112   4.215
49677W        W22003  17.832   4.862  13.294
49678W        W22004   2.755   7.195   2.329
49679W        W22005  37.782  38.006  11.109
49680W        W22006  44.438  32.994   3.729
49681W        W22007  18.677  16.159   2.139
49682W        W22008  43.632  31.623  13.826
49683W        W22009  28.553  20.136   3.732
49684W        W22010  11.856   1.100  14.703
49685W        W22011  22.916   6.379  13.757
49686W        W22012  22.660  11.184   3.259
49687W        W22013  25.717   8.754  14.254
49688W        W22014  38.525  10.941   4.203
49689W        W22015  20.607  25.044  10.935
49690W        W22016  10.394  25.341   0.008
49691W        W22017  29.419  24.588   1.394
49692W        W22018   7.312  30.568  13.343
49693W        W22019  36.133  20.047  12.138
49694W        W22020   9.563   3.472   4.037
49695W        W22021  15.900  27.521  13.776
49696W        W22022   9.918  30.105  11.616
49697W        W22023  44.898  26.244  13.847
49698W        W22024  29.665  22.479   0.882
49699W        W22025  43.856  17.996   0.709
49700W        W22026  25.687   7.780   2.335
49701W        W22027   5.269  31.631  11.547
49702W        W22028  32.571  35.341   4.651
49703W        W22029  26.117  14.488  13.436
49704W        W22030  35.904  42.814  12.629
49705W        W22031   9.148   4.777  11.098
49706W        W22032   8.113  24.951   0.419
49707W        W22033  10.740  35.124  13.408
49708W        W22034  16.050  27.989   2.941
49709W        W22035  37.999  12.527   5.451
49710W        W22036   3.320  12.047   5.019
49711W        W22037  16.654  32.353   1.287
49712W        W22038   5.525  17.231  12.500
49713W        W22039  42.445  18.680  11.219
49714W        W22040  20.508  26.836   3.193
49715W        W22041  25.155  18.719   4.597
49716W        W22042  28.157  17.567   4.530
49717W        W22043  42.519   3.895   3.748
49718W        W22044  43.437  22.720   1.858
49719W        W22045  27.667  20.639  13.345
49720W        W22046  43.746   4.212  11.533
49721W        W22047  12.642   4.730  14.480
49722W        W22048  26.581   3.402  11.461
49723W        W22049  23.968  14.835   1.432
49724W        W22050  12.214   5.683  14.441
49725W        W22051  11.837  41.466  13.351
49726W        W22052  10.827  42.970   0.811
49727W        W22053  32.330  10.972  13.518
49728W        W22054  23.549   4.428   3.874
49729W        W22055  15.483  40.343   1.767
49730W        W22056  42.364  44.588  13.057
49731W        W22057  27.467   8.971  10.686
49732W        W22058  32.537  15.058   2.644
49733W        W22059  11.476  14.452   0.416
49734W        W22060  44.872  44.825   2.308
49735W        W22061  22.645  12.731   4.948
49736W        W22062  11.005  31.448  13.308
49737W        W22063  13.166   9.693   0.958
49738W        W22064  29.037  44.393   0.531
49739W        W22065  44.462  34.568  11.598
49740W        W22066  35.744  19.504   0.751
49741W        W22067  42.828   2.115  11.617
49742W        W22068  27.795  36.767   0.008
49743W        W22069  19.313  20.505   4.567
49744W        W22070  28.409  28.795   0.131
49745W        W22071  21.211  13.390   0.276
49746W        W22072   9.328   0.300   4.619
49747W        W22073  22.859   7.787   0.260
49748W        W22074  29.262  34.574   4.672
49749W        W22075  16.155   0.864   1.346
49750W        W22076  26.490  30.578  11.612
49751W        W22077  28.113  43.033   0.494
49752W        W22078  43.520   1.207  13.921
49753W        W22079  43.210  20.087   2.799
49754W        W22080   2.904  12.653  11.496
49755W        W22081  12.653  32.200  14.974
49756W        W22082  17.669  30.654   0.855
49757W        W22083  19.668   6.018  10.135
49758W        W22084  42.997  41.958  12.475
49759W        W22085   2.485   2.645  12.305
49760W        W22086  17.983  18.739   3.454
49761W        W22087  29.980  27.618   4.622
49762W        W22088  16.622  12.671  14.627
49763W        W22089   8.880  14.526  11.097
49764W        W22090   3.779  11.677   4.190
49765W        W22091  38.824  17.236   3.302
49766W        W22092  28.911  13.146   4.561
49767W        W22093  40.565   8.404   2.797
49768W        W22094  27.047  40.578  10.696
49769W        W22095  37.021  20.768  12.934
49770W        W22096  40.569  27.130   3.616
49771W        W22097  41.289   8.283   3.824
49772W        W22098   1.330  12.830  13.974
49773W        W22099  34.127  21.261   3.609
49774W        W22100  26.498  37.666  10.538
49775W        W22101  40.773   0.210   5.014
49776W        W22102   5.199  27.733  10.652
49777W        W22103   8.741   6.442   4.101
49778W        W22104  31.444  41.778  12.174
49779W        W22105  14.621  34.687   1.942
49780W        W22106  29.695  17.714   3.320
49781W        W22107  35.575  34.942  12.072
49782W        W22108   4.756  35.466   4.448
49783W        W22109  11.787  15.562  11.061
49784W        W22110  41.411  36.584  13.119
49785W        W22111   1.249   8.122   0.357
49786W        W22112   8.130   6.760  13.024
49787W        W22113   4.170   0.766  12.775
49788W        W22114  44.204  24.724   2.329
49789W        W22115  21.924  10.830   3.174
49790W        W22116  29.881  43.004   3.572
49791W        W22117   2.887   4.225   4.425
49792W        W22118  13.700  35.088   0.862
49793W        W22119   0.206  39.515  14.786
49794W        W22120  32.688  33.014  12.002
49795W        W22121   8.400  10.357  10.591
49796W        W22122  13.169  21.480   3.571
49797W        W22123  37.398  14.906   2.902
49798W        W22124  14.089  30.224  10.642
49799W        W22125  12.868  25.170  11.667
49800W        W22126  24.009  34.961  12.385
49801W        W22127  34.516  26.442   1.472
49802W        W22128  40.864  22.035  14.429
49803W        W22129  29.205  17.207  14.910
49804W        W22130  18.248   9.133   1.507
49805W        W22131  11.339  36.583   4.238
49806W        W22132  14.627  24.588   1.173
49807W        W22133  11.874   9.863  13.589
49808W        W22134   1.576   3.969   5.595
49809W        W22135  15.658  12.226   2.815
49810W        W22136  22.202   5.327   0.380
49811W        W22137  24.606  33.617  13.998
49812W        W22138  10.461  19.173   2.320
49813W        W22139  43.915  18.086   3.641
49814W        W22140   2.048  44.486  10.278
49815W        W22141  37.470  39.833  14.982
49816W        W22142  22.980  25.229   2.161
49817W        W22143  27.561   2.251  12.887
49818W        W22144   0.018  37.826   0.296
49819W        W22145  43.366  12.925  12.595
49820W        W22146   0.372  19.648   3.406
49821W        W22147  13.394  39.799   1.306
49822W        W22148   9.220  18.954  11.691
49823W        W22149  16.097  25.728   0.464
49824W        W22150  32.963  14.572  13.965
49825W        W22151  42.730   8.110  10.701
49826W        W22152  21.626  23.611   0.521
49827W        W22153   5.842  24.864  13.985
49828W        W22154  22.259  33.906  12.954
49829W        W22155  32.964  33.429   2.327
49830W        W22156  19.531   7.698   0.516
49831W        W22157  42.374  35.636  13.828
49832W        W22158  32.348   0.510  10.996
49833W        W22159  24.513  44.859   2.591
49834W        W22160  28.024   3.779   3.283
49835W        W22161  19.107   1.330  12.862
49836W        W22162  17.794  18.180   1.481
49837W        W22163  38.005  13.071  10.661
49838W        W22164  27.589  25.189   4.174
49839W        W22165  31.601  13.721  13.806
49840W        W22166  21.336   5.934   3.188
49841W        W22167  36.772  17.176  13.324
49842W        W22168   7.915  13.441   0.879
49843W        W22169  21.098  37.185   0.544
49844W        W22170   8.091   2.462   4.422
49845W        W22171  26.986  13.727   2.152
49846W        W22172  15.624  31.804  14.882
49847W        W22173  31.368  29.572   3.155
49848W        W22174  22.566  17.499  14.401
49849W        W22175   1.806  30.684  14.771
49850W        W22176   8.256  39.496   0.673
49851W        W22177   2.683  41.043  12.672
49852W        W22178  28.617  25.187  11.375
49853W        W22179  32.886   6.453  13.093
49854W        W22180  22.749  30.794   1.772
49855W        W22181  21.739  19.596   4.760
49856W        W22182  43.363  37.721   2.823
49857W        W22183  11.975   6.671  12.095
49858W        W22184  43.836   0.970   1.292
49859W        W22185   6.575  41.324   1.566
49860W        W22186   9.489  16.368  11.034
49861W        W22187  40.366  39.070  13.015
49862W        W22188  24.127  38.044   2.852
49863W        W22189  44.853  34.193   3.345
49864W        W22190  20.776  37.277  11.178
49865W        W22191  36.583  30.903  10.773
49866W        W22192  36.317  33.890   3.678
49867W        W22193  18.619  29.181   4.621
49868W        W22194  44.004  18.995   0.825
49869W        W22195   4.195  28.374  11.735
49870W        W22196  21.215  18.272   1.303
49871W        W22197   8.811  15.595   1.638
49872W        W22198  39.693  35.972  11.156
49873W        W22199  30.091  36.378   4.332
49874W        W22200  16.261  27.033   3.132
49875W        W22201  40.758  25.895   1.324
49876W        W22202  11.903  38.917   1.188
49877W        W22203  42.931  38.379   3.201
49878W        W22204  33.751   7.700  11.084
49879W        W22205  39.756   1.495  11.074
49880W        W22206  30.003  34.362   0.767
49881W        W22207  17.182  19.170  12.172
49882W        W22208  10.330  10.834  11.107
49883W        W22209  37.317  12.211  13.503
49884W        W22210  34.769  21.744   2.272
49885W        W22211   8.815  40.235   4.669
49886W        W22212   5.007  41.594   4.136
49887W        W22213  33.947  44.795   4.581
49888W        W22214   4.247   7.206  11.160
49889W        W22215  20.927   8.656  10.904
49890W        W22216  32.097  40.435   4.403
49891W        W22217  37.120  36.884   2.386
49892W        W22218  11.334  33.876   4.173
49893W        W22219  25.984  35.636  10.667
49894W        W22220  36.545  14.677  13.755
49895W        W22221  18.829   6.768   1.166
49896W        W22222   6.894  37.404   3.189
49897W        W22223  18.818  25.663  10.933
49898W        W22224  11.617  25.661  14.284
49899W        W22225   4.216  16.957   3.212
49900W        W22226  44.374  19.838   5.071
49901W        W22227   8.499  39.618  13.369
49902W        W22228  20.767  40.530  10.472
49903W        W22229  16.668   4.229  13.486
49904W        W22230   9.919  40.815   1.328
49905W        W22231  24.853  29.642  11.149
49906W        W22232  24.496  23.102  14.956
49907W        W22233  30.395   3.686  14.825
49908W        W22234  30.501  17.279   1.190
49909W        W22235  20.140   1.704   0.787
49910W        W22236  43.179   8.778  13.988
49911W        W22237  17.533  43.915   3.200
49912W        W22238   5.347  25.698   1.596
49913W        W22239  18.517  31.100   0.304
49914W        W22240  25.639  28.474   1.882
49915W        W22241  35.812  29.970   3.310
49916W        W22242  21.299  38.331  12.046
49917W        W22243  39.343  33.853  11.177
49918W        W22244  33.337  42.020  12.988
49919W        W22245  22.674   4.271  12.520
49920W        W22246  27.618  28.460  12.339
49921W        W22247   6.405  38.948   3.639
49922W        W22248  31.392  36.941  11.443
49923W        W22249  26.459  33.140   1.343
49924W        W22250  39.056   6.466  10.549
49925W        W22251  39.150  36.347   2.265
49926W        W22252   4.408  28.235  13.010
49927W        W22253  13.222   6.830   2.628
49928W        W22254  15.181   2.841   4.514
49929W        W22255   9.660   2.978   1.761
49930W        W22256  11.933  32.625   3.012
49931W        W22257   9.583  10.100   0.737
49932W        W22258  39.557  31.669   2.390
49933W        W22259  15.094  30.184  14.550
49934W        W22260   6.818  24.773   0.880
49935W        W22261  33.416  28.548   1.396
49936W        W22262  20.160  23.222   4.640
49937W        W22263  12.046  17.159  13.366
49938W        W22264  33.169  20.575   1.897
49939W        W22265  31.622  12.122   4.351
49940W        W22266  26.676  44.605  14.919
49941W        W22267  14.030  34.560  13.402
49942W        W22268  26.264  29.404  10.390
49943W        W22269  19.999  22.668   4.699
49944W        W22270  13.777  38.323   1.395
49945W        W22271  41.844   9.614   4.551
49946W        W22272  22.639  12.822   1.184
49947W        W22273   2.285  42.780   0.254
49948W        W22274  18.288  10.330  12.330
49949W        W22275   0.908  14.337   0.922
49950W        W22276  33.400   0.801  13.455
49951W        W22277  35.402  16.191  13.809
49952W        W22278  24.521  34.645   3.668
49953W        W22279  31.750   5.457   0.311
49954W        W22280  11.388  29.008  14.314
49955W        W22281  10.602  30.450  12.480
49956W        W22282  41.010  35.675   1.543
49957W        W22283  31.047  24.743   4.461
49958W        W22284  30.967  30.646   2.850
49959W        W22285  37.428  17.754  14.445
49960W        W22286   4.016   3.895   2.429
49961W        W22287  41.250  37.500   1.574
49962W        W22288  14.766  17.575   3.339
49963W        W22289  34.394  16.071   1.924
49964W        W22290  22.658  26.405  13.099
49965W        W22291  18.796   7.697  11.008
49966W        W22292  23.824  27.613   4.170
49967W        W22293   5.027   1.013   5.207
49968W        W22294  19.653  30.949  14.093
49969W        W22295  10.692  41.721   3.745
49970W        W22296  44.884  32.928  10.533
49971W        W22297  25.190  26.024   2.762
49972W        W22298  26.638  21.709  13.954
49973W        W22299  17.707  16.062   3.564
49974W        W22300  12.924  31.651  14.360
49975W        W22301  34.509  16.597   1.893
49976W        W22302  37.157  32.966   0.942
49977W        W22303   2.270   6.317   3.712
49978W        W22304  25.072  42.098  12.451
49979W        W22305  33.407  19.554  14.948
49980W        W22306  22.590  16.107   4.714
49981W        W22307  19.312  17.357  10.669
49982W        W22308  17.034  11.631  13.335
49983W        W22309  29.247  37.328  13.923
49984W        W22310   1.655  26.053  12.075
49985W        W22311  28.264   2.861   3.176
49986W        W22312  36.331  30.045  13.021
49987W        W22313  28.694  24.667  13.342
49988W        W22314   3.230   9.308   0.186
49989W        W22315  33.833  31.431  11.916
49990W        W22316  30.646   1.105  12.004
49991W        W22317  10.092  26.504  11.016
49992W        W22318   9.784  30.738  13.443
49993W        W22319  38.516  25.771   2.804
49994W        W22320  16.587   9.371   0.466
49995W        W22321  36.042  34.103  10.107
49996W        W22322  17.328  39.394   1.386
49997W        W22323  23.270  29.983  11.531
49998W        W22324  39.235  12.261  11.221
49999W        W22325  33.431  40.575   2.231
50000W        W22326   3.908   9.828   9.813
50001W        W22327  34.371  42.204  12.127
50002W        W22328  40.552  37.657  13.969
50003W        W22329  36.260   2.130   0.221
50004W        W22330  21.718  43.800  13.444
50005W        W22331  44.785   0.167  14.065
50006W        W22332  14.154  16.992   0.851
50007W        W22333  32.617  29.231  12.030
50008W        W22334  34.867  18.633   4.450
50009W        W22335  40.385   2.978  13.361
50010W        W22336  42.878   6.215   1.424
50011W        W22337  41.776  17.125  13.822
50012W        W22338  23.237  23.021  12.928
50013W        W22339  36.010  40.519  13.566
50014W        W22340  41.825   7.972   3.130
50015W        W22341  25.864  29.735  14.956
50016W        W22342   6.735  15.673  10.975
50017W        W22343  39.840  34.870   3.163
50018W        W22344  37.537  12.069  11.327
50019W        W22345  40.699   8.430  11.445
50020W        W22346  41.505  34.596  13.718
50021W        W22347  21.204  23.677  13.338
50022W        W22348  11.356  24.227   3.275
50023W        W22349  12.768  30.101  13.322
50024W        W22350  11.333  29.637   2.825
50025W        W22351  30.590  12.095  11.863
50026W        W22352   4.965  10.408  12.033
50027W        W22353  18.204  35.118  11.837
50028W        W22354  15.854   6.854  12.211
50029W        W22355  23.658  39.301  10.884
50030W        W22356  36.070   9.432   1.815
50031W        W22357  40.991  26.293  13.964
50032W        W22358  21.096  20.574  12.078
50033W        W22359  10.590  27.929  10.735
50034W        W22360  40.153  43.085   0.866
50035W        W22361  17.537  24.603   2.256
50036W        W22362   9.178  12.718  14.779
50037W        W22363  11.759  19.077   2.708
50038W        W22364  17.616  23.879  13.566
50039W        W22365  30.789  33.501  11.991
50040W        W22366  21.615   8.241  10.766
50041W        W22367   7.805   0.686  13.140
50042W        W22368  30.237  13.203  13.816
50043W        W22369  24.967  37.320  12.976
50044W        W22370  34.504  33.371   5.480
50045W        W22371  25.268  12.891  13.945
50046W        W22372  42.737  16.706  12.572
50047W        W22373  20.605   9.152  14.427
50048W        W22374   1.077  34.007   4.572
50049W        W22375   6.193   2.445  12.316
50050W        W22376  43.492   0.271   4.117
50051W        W22377  25.926  29.449   0.380
50052W        W22378  24.502   7.408   1.436
50053W        W22379  27.314  20.035  11.147
50054W        W22380  29.040  42.324  13.260
50055W        W22381  19.667  16.360   1.662
50056W        W22382  21.842  11.239  11.121
50057W        W22383  29.073  42.586   0.289
50058W        W22384  37.439  43.949  11.478
50059W        W22385  16.500  14.341  13.136
50060W        W22386  20.828   6.371  10.665
50061W        W22387  12.239  17.734   3.088
50062W        W22388  31.060  10.319  13.843
50063W        W22389  18.250  41.019  10.989
50064W        W22390  37.975   6.870   3.950
50065W        W22391  34.537  14.381  11.996
50066W        W22392  21.081  40.116  10.523
50067W        W22393   8.751  12.095   4.076
50068W        W22394   1.810  11.392  13.555
50069W        W22395   0.576  42.599   0.883
50070W        W22396  24.620  24.447   4.113
50071W        W22397   6.676  27.977  10.693
50072W        W22398  39.580  27.440  14.546
50073W        W22399  23.607  11.312  10.810
50074W        W22400  17.289  40.961   2.696
50075W        W22401  12.160   8.132   4.136
50076W        W22402  20.207  41.677  10.089
50077W        W22403  16.081  28.609  14.459
50078W        W22404  25.595  10.806  10.511
50079W        W22405  18.062  20.123   0.912
50080W        W22406  39.918  42.847   3.225
50081W        W22407   8.566  25.611   4.205
50082W        W22408  35.260  15.979   3.719
50083W        W22409   9.338  20.499  14.328
50084W        W22410  26.922   0.464   4.051
50085W        W22411   4.925  11.725  13.443
50086W        W22412   2.872   9.233   4.345
50087W        W22413  15.298   9.118   0.354
50088W        W22414  23.024   2.615  14.181
50089W        W22415  19.678  15.036  11.382
50090W        W22416  11.803  18.614   0.223
50091W        W22417  16.367  29.583   0.272
50092W        W22418   4.192  38.341  12.686
50093W        W22419  11.109  34.560   2.309
50094W        W22420  26.564  37.567   2.208
50095W        W22421  44.448  13.197   0.918
50096W        W22422  24.986  40.969  11.049
50097W        W22423  21.755  30.046  10.690
50098W        W22424   0.956  24.162  13.966
50099W        W22425  14.879  23.064   2.832
50100W        W22426  22.568  26.063  11.169
50101W        W22427   2.375   8.127  13.456
50102W        W22428   4.267   1.455   1.563
50103W        W22429   5.380  10.006   2.061
50104W        W22430  43.407  17.501  11.537
50105W        W22431  33.221  12.700  11.091
50106W        W22432  13.338  37.312  11.628
50107W        W22433  24.096  26.205  11.077
50108W        W22434  29.518  19.291   2.295
50109W        W22435  32.831  19.788  11.162
50110W        W22436  13.772  41.330  14.483
50111W        W22437  44.752  39.359  14.956
50112W        W22438  31.535  39.581  11.578
50113W        W22439   1.795  23.597  11.554
50114W        W22440  34.362  30.063   2.163
50115W        W22441  21.477  22.601  12.751
50116W        W22442  15.930  13.057  10.880
50117W        W22443  14.133  13.523  14.980
50118W        W22444  15.259  22.200  14.480
50119W        W22445  36.348  34.483   2.194
50120W        W22446  16.179  34.466  10.712
50121W        W22447  24.174  32.913   4.423
50122W        W22448  43.933  41.345   1.873
50123W        W22449  36.517  40.796   2.141
50124W        W22450  10.235   7.954   2.852
50125W        W22451  41.843   8.431   4.390
50126W        W22452  42.936  39.499  14.926
50127W        W22453   3.020   2.950   1.168
50128W        W22454  26.220  33.974  12.517
50129W        W22455  19.589  23.721  14.765
50130W        W22456  16.383  37.967  12.150
50131W        W22457  42.234  39.195  14.268
50132W        W22458  27.339  30.921  13.483
50133W        W22459  23.951  38.847  14.750
50134W        W22460  42.484  24.136   2.715
50135W        W22461  40.444  11.999  11.958
50136W        W22462  23.047   0.599   3.670
50137W        W22463  40.587  28.444   4.274
50138W        W22464  20.425  38.367   2.709
50139W        W22465  33.926  11.602  13.693
50140W        W22466  11.369   7.018   2.660
50141W        W22467  34.591  35.539   4.846
50142W        W22468  35.904  31.324   3.415
50143W        W22469  40.317  33.076   4.482
50144W        W22470  43.037  30.827   1.459
50145W        W22471  39.519  30.995   2.638
50146W        W22472   9.792  28.975  12.048
50147W        W22473  32.245  37.004  11.664
50148W        W22474   5.362  30.669  11.562
50149W        W22475  15.592  44.300   0.362
50150W        W22476  39.834  23.006  11.459
50151W        W22477  27.105  31.925  14.337
50152W        W22478  12.748  39.545  11.385
50153W        W22479  39.335   4.764   4.044
50154W        W22480  41.926  30.642  10.851
50155W        W22481   4.208  12.126  11.440
50156W        W22482  43.469   4.230   4.692
50157W        W22483   9.303  32.058   1.220
50158W        W22484  12.199   2.295  14.486
50159W        W22485  15.463   1.240  10.885
50160W        W22486   9.750  14.078   0.381
50161W        W22487  12.878  37.574  13.298
50162W        W22488  31.757  18.364  12.519
50163W        W22489  41.221  28.792   1.468
50164W        W22490  43.621  42.739   0.988
50165W        W22491  12.373  26.555  12.816
50166W        W22492   8.749   8.116  11.580
50167W        W22493  36.314  20.731   2.660
50168W        W22494  14.995  22.934   4.166
50169W        W22495  30.122  15.630   0.391
50170W        W22496  14.643  29.778   2.792
50171W        W22497  31.049  44.923  12.911
50172W        W22498  40.749  29.632  14.833
50173W        W22499   7.116  40.466   4.810
50174W        W22500  31.337   4.874   0.901
50175W        W22501  43.542  24.129  14.540
50176W        W22502  12.471   6.152   2.796
50177W        W22503  14.609  31.403   0.828
50178W        W22504  44.532  31.424  11.579
50179W        W22505  26.205   5.270  14.525
50180W        W22506   8.841   2.756   0.380
50181W        W22507  22.513  22.118  14.263
50182W        W22508   7.280   7.748   0.946
50183W        W22509   4.303  33.183  12.139
50184W        W22510   1.931  36.400   3.301
50185W        W22511   4.771  17.507   2.653
50186W        W22512   3.719  27.980  10.652
50187W        W22513  24.196   6.536   5.065
50188W        W22514  16.269  33.102   0.034
50189W        W22515  23.560  18.894  14.910
50190W        W22516   0.852  31.080   1.419
50191W        W22517   1.950  19.664   3.508
50192W        W22518   3.345  31.549   4.775
50193W        W22519  26.747  38.305  11.939
50194W        W22520  33.794  23.369  10.907
50195W        W22521  22.709  21.786  12.930
50196W        W22522  23.476  25.479   2.229
50197W        W22523  33.449  26.179   3.810
50198W        W22524  32.497  30.917   2.205
50199W        W22525  29.594  27.491   0.857
50200W        W22526  30.190  31.184   0.135
50201W        W22527  15.546  32.829   0.777
50202W        W22528  16.681   8.585  10.515
50203W        W22529  24.003   3.140  11.624
50204W        W22530  11.827  25.788  10.561
50205W        W22531  18.697  21.518   0.711
50206W        W22532  39.569  30.609   4.554
50207W        W22533   4.566  10.705  11.885
50208W        W22534  22.665  24.712   4.988
50209W        W22535  22.782   7.493  11.218
50210W        W22536   6.746  33.023   1.295
50211W        W22537   1.511   2.348  12.357
50212W        W22538  21.665  41.229   2.784
50213W        W22539   9.717  11.864  14.061
50214W        W22540  35.377  44.256   1.174
50215W        W22541  29.517  18.843   4.519
50216W        W22542  17.804  22.970   2.291
50217W        W22543  21.514  21.120   3.180
50218W        W22544  21.579  29.712   1.749
50219W        W22545  26.046  11.738   4.036
50220W        W22546  23.990   7.745  13.928
50221W        W22547  42.021  29.387   0.374
50222W        W22548  28.519  40.244  13.528
50223W        W22549   8.580  37.031   1.203
50224W        W22550  27.617  17.525  12.061
50225W        W22551  18.327   0.558   4.307
50226W        W22552  21.042  11.145  10.734
50227W        W22553  17.736  14.788  13.034
50228W        W22554   7.098  21.921  14.708
50229W        W22555  16.338   7.288   0.952
50230W        W22556  11.183   2.588   4.548
50231W        W22557   4.189  17.314   0.947
50232W        W22558  30.497   9.918  13.606
50233W        W22559  41.107  36.983  12.498
50234W        W22560   3.411  24.457   4.310
50235W        W22561  35.961  41.544   1.158
50236W        W22562   6.289   0.467  14.332
50237W        W22563  39.012  44.163  12.083
50238W        W22564  14.519  20.841   0.979
50239W        W22565  37.931  21.201  13.394
50240W        W22566  37.886  26.552  12.453
50241W        W22567  19.010   8.914   5.083
50242W        W22568   3.244   3.522   0.375
50243W        W22569  26.852  38.912   0.457
50244W        W22570  39.250  13.410   4.862
50245W        W22571   1.719  38.431  12.475
50246W        W22572  12.180  29.207  13.925
50247W        W22573   0.788  13.788   0.893
50248W        W22574  19.160  32.486  11.200
50249W        W22575  20.689  33.425   3.225
50250W        W22576  27.534   4.273  13.377
50251W        W22577   3.153  41.739  11.582
50252W        W22578   5.412  21.194  11.157
50253W        W22579  37.918   5.989  11.181
50254W        W22580  39.796   2.371   1.885
50255W        W22581  15.665  27.850   4.097
50256W        W22582  22.291   9.640   4.392
50257W        W22583  39.312  31.602   0.859
50258W        W22584  26.172  34.609   1.653
50259W        W22585  43.795   5.414   1.724
50260W        W22586  11.244  42.419   3.612
50261W        W22587  16.147  32.779   4.252
50262W        W22588  40.073  16.000  13.947
50263W        W22589  10.353   9.403   1.326
50264W        W22590   6.842  41.754   1.861
50265W        W22591   4.938  42.041  13.890
50266W        W22592  29.928  25.708  11.079
50267W        W22593  38.490  23.722   1.258
50268W        W22594  16.203   8.160  12.397
50269W        W22595  43.404   0.685  10.794
50270W        W22596  21.942  26.527  14.429
50271W        W22597  29.019   6.684   3.264
50272W        W22598  42.794   9.965  14.603
50273W        W22599  11.283   7.384  14.423
50274W        W22600  34.596  36.414  10.003
50275W        W22601  22.780   6.793   3.259
50276W        W22602  24.546  29.117  12.900
50277W        W22603  14.105  34.437  14.888
50278W        W22604  21.767   5.973  14.072
50279W        W22605  19.529  13.652  11.542
50280W        W22606   7.511  18.111   1.146
50281W        W22607  25.139  28.536   2.125
50282W        W22608  26.620  28.126  10.131
50283W        W22609  44.887   3.434  14.979
50284W        W22610  27.191  26.510   4.981
50285W        W22611  32.480  29.739  11.997
50286W        W22612  35.469  19.518  11.203
50287W        W22613  40.894   7.675  11.162
50288W        W22614   4.429  24.821   0.296
50289W        W22615  12.032  31.578   1.719
50290W        W22616  26.646   8.196  13.345
50291W        W22617  20.234  30.593   2.251
50292W        W22618  24.093  17.237  14.405
50293W        W22619  14.233   3.208   4.675
50294W        W22620  33.429  22.168  13.340
50295W        W22621  14.717  26.447  10.129
50296W        W22622  42.964  21.579  12.858
50297W        W22623   4.881  32.439   3.735
50298W        W22624  12.582  21.506   1.907
50299W        W22625  28.526  11.659   0.080
50300W        W22626   5.281  22.677  11.832
50301W        W22627  12.560  22.956  13.888
50302W        W22628  43.818  25.154  10.708
50303W        W22629  42.521   3.458   0.451
50304W        W22630  31.491  35.570   0.307
50305W        W22631   7.361  35.855  11.062
50306W        W22632  13.899   8.109  11.790
50307W        W22633  44.059  33.676  14.087
50308W        W22634  19.677   2.850   4.696
50309W        W22635  19.500   2.991  11.098
50310W        W22636  12.031  24.779  10.715
50311W        W22637   3.936  17.584  13.844
50312W        W22638  41.085   1.344  14.084
50313W        W22639   4.253  15.526   1.359
50314W        W22640   8.258  21.131   0.065
50315W        W22641  44.219  10.329   2.367
50316W        W22642  37.337  34.440   9.903
50317W        W22643  20.161  12.718   0.827
50318W        W22644   0.393   1.769  13.293
50319W        W22645  39.198  31.380  12.446
50320W        W22646   0.879  23.647  14.063
50321W        W22647  31.002  36.247   3.747
50322W        W22648  23.842  29.486  10.929
50323W        W22649  44.875  36.064   0.749
50324W        W22650  24.640  27.501  10.652
50325W        W22651  13.887  27.146  14.333
50326W        W22652  22.627  19.322   4.207
50327W        W22653  39.196  41.193   3.752
50328W        W22654  23.614  32.934   3.684
50329W        W22655  21.637  12.711  11.518
50330W        W22656  28.551  24.987   1.125
50331W        W22657  28.528  32.425   1.238
50332W        W22658   3.256  21.001   4.606
50333W        W22659   2.857   7.336  13.433
50334W        W22660  42.272  44.366   4.573
50335W        W22661  17.148  38.564  12.815
50336W        W22662  28.078  17.466   5.029
50337W        W22663  35.871  23.584   4.613
50338W        W22664   1.963  31.839   1.593
50339W        W22665  39.916  37.677   0.742
50340W        W22666  30.047  32.171   3.313
50341W        W22667  32.166   2.809   2.703
50342W        W22668   7.027  21.603   3.138
50343W        W22669  25.142  33.065   3.242
50344W        W22670   4.558  24.417  11.137
50345W        W22671  11.301  24.003  14.774
50346W        W22672  43.265   8.123   2.372
50347W        W22673   6.203  23.302  12.616
50348W        W22674  44.353  35.899  11.207
50349W        W22675  10.245  42.501   1.964
50350W        W22676  21.685  43.433   1.928
50351W        W22677  39.817  26.507   1.634
50352W        W22678  29.014  28.178   5.022
50353W        W22679  20.649  39.978  12.136
50354W        W22680  29.869  10.132   5.040
50355W        W22681   0.762  37.252  13.601
50356W        W22682  24.597   4.113  12.573
50357W        W22683   4.624  31.291   2.894
50358W        W22684  15.882  43.621  11.448
50359W        W22685  39.338   7.895   4.553
50360W        W22686  27.025  10.748  11.886
50361W        W22687   5.943  19.571  11.445
50362W        W22688  42.369  16.648  13.427
50363W        W22689  12.970   2.736   4.605
50364W        W22690  44.488  33.468  12.015
50365W        W22691  13.596  16.740  12.471
50366W        W22692  29.187  12.320   3.568
50367W        W22693   7.883  16.041   1.882
50368W        W22694  21.474   3.762  12.568
50369W        W22695  43.540  26.190  11.415
50370W        W22696  40.016   6.456   3.660
50371W        W22697   5.652   2.473  12.887
50372W        W22698  32.114  20.186   2.494
50373W        W22699  28.236  27.837  14.902
50374W        W22700  11.777  20.267  12.347
50375W        W22701  27.189  28.562  10.571
50376W        W22702  33.072  33.107   0.027
50377W        W22703  42.498  20.094  12.607
50378W        W22704  40.087   5.458   0.009
50379W        W22705  35.462   7.159   2.236
50380W        W22706  27.899  39.767  14.484
50381W        W22707  39.118   5.300   2.381
50382W        W22708   3.387  41.160  12.772
50383W        W22709  33.636  18.971  10.818
50384W        W22710  20.308  15.341   3.646
50385W        W22711  24.037  42.468   3.641
50386W        W22712  40.322  16.560  11.850
50387W        W22713  40.296   6.560   3.257
50388W        W22714   9.663  43.020   3.276
50389W        W22715   3.752  27.710   3.172
50390W        W22716  44.886  24.742  11.622
50391W        W22717  13.138  28.158   0.392
50392W        W22718  41.272  31.455  10.648
50393W        W22719  36.306  43.745  11.973
50394W        W22720  16.025  24.269   5.037
50395W        W22721  13.719  16.201  10.613
50396W        W22722  36.258  44.450   5.165
50397W        W22723   1.919   0.754   3.872
50398W        W22724  22.762  34.152   4.699
50399W        W22725  16.478  34.980   1.627
50400W        W22726   3.748  22.586  10.211
50401W        W22727  15.659  24.170   0.814
50402W        W22728  32.441  25.540  13.521
50403W        W22729  43.000  28.005  11.149
50404W        W22730  36.941   3.847  13.499
50405W        W22731  13.658  29.933   1.814
50406W        W22732  20.673  39.713   3.104
50407W        W22733  38.485  18.731  10.969
50408W        W22734   4.055  37.695  10.361
50409W        W22735   6.360   7.026  11.455
50410W        W22736  32.055   5.454   3.107
50411W        W22737  13.552  23.281   4.402
50412W        W22738  31.048  15.961  14.541
50413W        W22739  39.511   4.747   3.099
50414W        W22740  27.424   3.952  13.822
50415W        W22741  30.292  31.599  12.940
50416W        W22742  39.107  37.106   3.644
50417W        W22743  36.564  19.033   3.346
50418W        W22744  24.256   6.281   3.601
50419W        W22745  10.258  16.807  11.331
50420W        W22746  31.073  28.413   2.867
50421W        W22747  11.757   5.810  14.754
50422W        W22748   9.816  16.356   0.828
50423W        W22749   4.173   4.210   4.158
50424W        W22750  34.974   8.185  14.976
50425W        W22751  13.295  34.482  12.067
50426W        W22752  32.497  10.300   3.585
50427W        W22753  44.218  44.800  14.896
50428W        W22754   0.070  42.956  11.399
50429W        W22755  42.665  34.389   3.855
50430W        W22756   6.280  23.679  11.491
50431W        W22757  18.313  37.873   2.286
50432W        W22758  19.547   7.784  14.443
50433W        W22759  14.501  19.025   1.796
50434W        W22760  37.812  14.726  11.078
50435W        W22761  10.142  38.538   0.570
50436W        W22762  14.670  32.999   1.651
50437W        W22763   6.117  44.045   2.557
50438W        W22764  29.477   6.632   1.100
50439W        W22765   4.710   0.460   1.773
50440W        W22766   7.884  13.172  14.983
50441W        W22767   9.405   8.488   1.856
50442W        W22768  18.738   2.789  12.862
50443W        W22769  22.199  12.630  14.835
50444W        W22770   2.904  15.012   1.744
50445W        W22771  11.431  19.135  10.454
50446W        W22772  20.983  21.461  14.397
50447W        W22773  15.091   4.769   4.111
50448W        W22774  21.159   3.550   0.903
50449W        W22775  36.057  12.880  10.208
50450W        W22776   0.909  31.110  13.878
50451W        W22777  30.118  44.507  13.525
50452W        W22778  10.422  13.131  12.598
50453W        W22779  12.123  35.149   1.826
50454W        W22780  34.342   6.644  14.318
50455W        W22781   4.899  18.094  11.123
50456W        W22782  23.674  32.755   4.552
50457W        W22783   5.418  37.572  10.660
50458W        W22784  35.001  15.111  13.633
50459W        W22785  11.695   9.610  12.152
50460W        W22786  16.811  33.600   3.911
50461W        W22787  40.448  19.275   2.337
50462W        W22788  25.403   8.809  10.581
50463W        W22789  32.963  12.305  12.884
50464W        W22790  37.774  34.619  10.860
50465W        W22791  24.675  22.862   3.162
50466W        W22792  40.565  24.802  11.277
50467W        W22793  10.258  15.711   1.853
50468W        W22794  29.122  42.867   2.858
50469W        W22795  19.647  33.206  11.960
50470W        W22796  20.609  29.896   0.900
50471W        W22797  17.520  33.651  13.121
50472W        W22798  17.319  16.873   2.396
50473W        W22799  16.807  35.312  10.847
50474W        W22800  23.342  33.847  12.087
50475W        W22801  15.628  39.233   1.394
50476W        W22802  23.267  12.734  11.581
50477W        W22803  12.822  18.301   2.983
50478W        W22804   5.896  24.925  11.162
50479W        W22805  44.170  29.595  12.350
50480W        W22806  25.702  15.259   0.251
50481W        W22807  29.981  44.030  11.697
50482W        W22808  22.613  15.295   2.991
50483W        W22809   0.282   4.985   3.670
50484W        W22810  43.265  34.916  11.260
50485W        W22811  24.678  18.334   5.196
50486W        W22812  18.754   3.710  13.780
50487W        W22813  32.144  10.145   5.000
50488W        W22814  42.944  41.482   2.894
50489W        W22815  20.292  23.033  12.008
50490W        W22816  32.183  39.193   2.470
50491W        W22817  10.418  11.197  12.410
50492W        W22818   6.446   8.875  13.519
50493W        W22819  39.339  36.201  11.873
50494W        W22820   5.303   1.346  14.300
50495W        W22821  15.289  11.271   1.467
50496W        W22822  33.372  19.833   4.173
50497W        W22823  37.113  11.609   0.352
50498W        W22824   8.827   0.252  12.504
50499W        W22825  28.327  31.495  14.035
50500W        W22826  28.997  23.578  11.643
50501W        W22827  30.885  37.547  14.899
50502W        W22828   0.447   7.839  14.207
50503W        W22829  27.103  12.527  12.948
50504W        W22830   1.320  17.927   0.215
50505W        W22831  33.995  25.361  12.558
50506W        W22832  14.077  12.133   1.006
50507W        W22833  37.834   5.750   3.158
50508W        W22834   3.908   4.956   1.543
50509W        W22835  17.453  37.978  14.733
50510W        W22836  34.394  43.511   0.654
50511W        W22837   6.069  30.582   0.345
50512W        W22838  11.265  15.521  11.151
50513W        W22839  42.928  37.615  13.240
50514W        W22840  14.131   0.150  14.438
50515W        W22841  43.982  44.262   3.622
50516W        W22842  39.380  38.191   1.448
50517W        W22843  23.982  23.485   0.870
50518W        W22844  10.607   2.710   2.151
50519W        W22845  38.507   6.897  11.466
50520W        W22846  15.665  40.447  14.078
50521W        W22847   7.346  14.879  14.532
50522W        W22848  14.134  15.872  10.364
50523W        W22849   8.533   4.211  10.567
50524W        W22850  37.950   2.404  13.075
50525W        W22851  44.781  23.703  11.531
50526W        W22852  10.312   8.490  13.592
50527W        W22853  12.897  28.436  12.391
50528W        W22854  19.055  16.600  12.868
50529W        W22855   3.356  26.282   3.567
50530W        W22856   6.318  22.093  10.384
50531W        W22857  11.698  41.802  14.558
50532W        W22858  16.058  44.900   3.255
50533W        W22859  40.259  21.216   4.928
50534W        W22860  36.466  34.257   9.671
50535W        W22861  39.091  38.031  13.899
50536W        W22862  44.761  25.567   2.665
50537W        W22863  42.570  34.342  11.467
50538W        W22864  10.916   0.861  13.033
50539W        W22865  27.273  32.143   0.883
50540W        W22866  17.212   1.253  11.913
50541W        W22867  18.154  31.355  14.880
50542W        W22868   0.960   8.660   4.599
50543W        W22869  24.709  34.284  12.906
50544W        W22870  17.851  15.979  11.184
50545W        W22871  24.901  16.697  14.190
50546W        W22872  10.765  39.458   2.886
50547W        W22873  30.035  33.112  10.675
50548W        W22874  28.519  12.756   3.304
50549W        W22875   3.155  24.489  10.487
50550W        W22876  11.195  32.858  14.864
50551W        W22877  13.390  10.406  11.028
50552W        W22878   8.412  10.729  14.493
50553W        W22879  33.096  14.121  11.429
50554W        W22880  24.976   6.435  14.090
50555W        W22881  18.157  14.223   2.004
50556W        W22882  14.916  14.051   3.689
50557W        W22883  35.184   5.291   1.873
50558W        W22884  16.531  27.686  14.548
50559W        W22885  23.458  41.791   1.818
50560W        W22886  31.125  22.210  13.250
50561W        W22887  22.964  40.252  14.359
50562W        W22888  44.621  34.699  13.058
50563W        W22889   2.040  15.051   0.025
50564W        W22890  13.514  27.110  11.801
50565W        W22891  27.038  26.172   9.724
50566W        W22892  16.114  19.570   0.199
50567W        W22893   0.662  38.389   0.475
50568W        W22894   2.886  34.902   2.830
50569W        W22895  43.243  25.635  13.943
50570W        W22896  29.172  16.135   1.780
50571W        W22897   2.824  10.313   4.309
50572W        W22898   9.358  17.588   1.495
50573W        W22899  32.221  15.534   4.650
50574W        W22900  39.499  41.489  14.710
50575W        W22901  29.235  31.483  10.585
50576W        W22902  28.030  27.428   1.760
50577W        W22903  19.446  20.253  12.354
50578W        W22904  12.059  27.508  14.854
50579W        W22905  13.904   3.448   0.267
50580W        W22906  25.523  20.067   4.553
50581W        W22907  20.134  37.459   1.030
50582W        W22908  30.891  38.867   3.722
50583W        W22909  35.416  18.052   0.324
50584W        W22910  15.304  29.049  14.323
50585W        W22911  32.359  37.401   2.180
50586W        W22912  36.561  30.785  13.427
50587W        W22913  18.576  23.842  11.212
50588W        W22914  29.861  16.282   3.622
50589W        W22915  35.581  29.398  14.527
50590W        W22916  22.115  17.216   3.624
50591W        W22917  16.420  20.112  14.464
50592W        W22918  39.896  43.528   4.026
50593W        W22919  26.075   3.174   2.849
50594W        W22920  34.340   5.464  14.441
50595W        W22921  27.654  40.147   4.035
50596W        W22922  13.664  40.033  12.362
50597W        W22923  25.613  33.277   3.229
50598W        W22924  41.022  39.714   3.564
50599W        W22925  10.454  33.041   2.213
50600W        W22926   7.606  38.476   0.018
50601W        W22927  11.211  42.583   4.093
50602W        W22928  24.420  13.432  11.174
50603W        W22929  30.172   3.786   2.340
50604W        W22930  22.122  24.107  11.563
50605W        W22931  39.852  35.508   3.826
50606W        W22932   3.131  31.420  13.124
50607W        W22933  35.874  11.427   3.999
50608W        W22934  21.254  38.402  14.927
50609W        W22935  11.512  30.639   1.089
50610W        W22936  23.962  15.655   1.849
50611W        W22937  33.973   3.894   1.194
50612W        W22938   3.990  28.949  13.311
50613W        W22939   9.308   2.714  11.632
50614W        W22940  32.390  40.846  10.565
50615W        W22941  22.081   0.409  12.345
50616W        W22942   5.400   0.919  13.555
50617W        W22943  36.359   2.206   1.178
50618W        W22944  36.711   0.506   1.427
50619W        W22945  37.528   9.287  13.983
50620W        W22946   1.490  34.667   2.833
50621W        W22947   2.680  15.273  12.567
50622W        W22948  31.399  35.792  13.826
50623W        W22949   3.834  38.071   3.779
50624W        W22950  19.793  35.327  10.983
50625W        W22951  12.351  30.946   0.786
50626W        W22952  44.610   8.558  12.902
50627W        W22953   6.796  16.809   0.476
50628W        W22954  20.604  35.142   2.627
50629W        W22955  18.711   9.713  13.439
50630W        W22956  34.637  43.106   4.700
50631W        W22957  43.999  38.367   4.148
50632W        W22958  39.698   9.298   1.369
50633W        W22959  19.545  42.425  13.972
50634W        W22960   7.477  31.897  10.355
50635W        W22961  22.628   0.392  13.056
50636W        W22962  11.221  33.226   2.049
50637W        W22963  13.834  13.091  12.978
50638W        W22964  28.266  38.354   1.413
50639W        W22965  24.235   5.744   3.428
50640W        W22966  25.210  12.408  12.966
50641W        W22967  13.187  42.539   0.284
50642W        W22968   2.423  12.750   3.230
50643W        W22969   5.474  17.580  12.998
50644W        W22970  37.109  16.152  14.303
50645W        W22971  44.775  25.266  11.737
50646W        W22972   7.187   5.352   1.335
50647W        W22973  33.369  17.653   3.166
50648W        W22974   3.681   8.477   4.590
50649W        W22975  29.914  21.757   4.952
50650W        W22976  28.426   4.301   2.403
50651W        W22977  37.822  26.655  12.971
50652W        W22978  13.805  43.226   1.615
50653W        W22979  27.038  34.086  12.344
50654W        W22980   2.849   9.197   1.031
50655W        W22981  22.119  13.852  12.970
50656W        W22982  42.922  15.977   0.235
50657W        W22983  17.089  27.392   3.217
50658W        W22984  19.520  23.513   3.290
50659W        W22985   9.654  16.052   5.052
50660W        W22986  19.004  17.663  11.448
50661W        W22987  40.776  34.834  13.895
50662W        W22988  44.846  32.618  12.586
50663W        W22989   0.290   9.067   4.154
50664W        W22990  21.543  33.482  12.621
50665W        W22991  31.089   4.395  13.822
50666W        W22992  32.527   2.915   3.754
50667W        W22993  30.628  23.719  14.310
50668W        W22994  43.035   4.919  13.817
50669W        W22995   9.445  33.629  14.354
50670W        W22996  26.441  40.521  12.374
50671W        W22997  38.890   7.160   0.791
50672W        W22998  19.129  33.868   0.318
50673W        W22999  37.918  36.292   3.237
50674W        W23000  44.324  34.667   0.144
50675W        W23001  39.209   3.397   1.258
50676W        W23002  12.550  20.606  12.343
50677W        W23003  16.817  10.588   4.394
50678W        W23004  35.804  28.213  14.869
50679W        W23005  18.011  30.079   4.659
50680W        W23006  29.571  43.695  11.663
50681W        W23007  16.475   9.346  13.338
50682W        W23008  15.184  31.473  14.934
50683W        W23009  40.649  19.266  11.613
50684W        W23010  42.891  38.419  13.587
50685W        W23011  23.685   4.932   3.796
50686W        W23012  17.182  27.083  14.324
50687W        W23013  44.547   8.763  13.842
50688W        W23014  36.714   5.995  14.039
50689W        W23015  30.107  25.948   9.704
50690W        W23016  36.712  36.472  14.582
50691W        W23017   6.446  17.999  11.695
50692W        W23018  16.998  13.980  10.941
50693W        W23019  12.569  33.446   4.671
50694W        W23020   2.960   9.853  14.527
50695W        W23021  43.266   6.895   3.227
50696W        W23022  12.197  37.175   0.230
50697W        W23023   7.961   3.002   0.244
50698W        W23024   0.519   6.085  14.018
50699W        W23025   3.510  34.543  11.567
50700W        W23026  11.537  17.047  14.009
50701W        W23027  38.727  40.169   4.222
50702W        W23028   6.851   8.383   2.844
50703W        W23029   7.371   1.872  12.522
50704W        W23030  44.219  33.208   0.681
50705W        W23031   5.956  26.381   1.714
50706W        W23032  36.589  25.019  10.007
50707W        W23033  34.444  37.410   1.262
50708W        W23034  17.246  16.111   0.960
50709W        W23035  36.093  12.261   5.121
50710W        W23036   6.567  16.259  13.946
50711W        W23037  18.649   3.331  14.510
50712W        W23038  31.954  21.553   3.816
50713W        W23039  31.031   9.859   4.052
50714W        W23040  39.436  33.765  10.192
50715W        W23041  34.432   8.914   1.407
50716W        W23042  16.826  18.773   0.210
50717W        W23043  15.804   7.014   2.272
50718W        W23044  18.495  43.843  13.540
50719W        W23045  10.144  23.026   1.286
50720W        W23046  25.688   3.849  10.883
50721W        W23047  21.530   8.851  13.892
50722W        W23048  38.979  10.864   0.288
50723W        W23049  11.096  37.928   3.924
50724W        W23050   4.115  42.027   0.352
50725W        W23051  33.793  28.065   4.100
50726W        W23052  24.012  40.894  14.523
50727W        W23053  23.395  35.608   3.297
50728W        W23054   6.704  13.773   2.774
50729W        W23055  26.399  41.887  12.025
50730W        W23056  36.372  10.292  14.422
50731W        W23057  14.671   3.786  10.765
50732W        W23058  42.370  39.938  13.931
50733W        W23059   4.024  39.594   0.420
50734W        W23060   4.022   2.323  11.176
50735W        W23061  17.723  37.880   4.727
50736W        W23062  14.726  43.211   4.718
50737W        W23063  14.227   0.877   3.245
50738W        W23064  13.827   1.344   1.138
50739W        W23065  19.099  26.172   3.877
50740W        W23066  13.078  15.178   1.235
50741W        W23067  31.868  39.952  14.834
50742W        W23068  35.586  40.071   1.335
50743W        W23069  10.292  38.716  12.198
50744W        W23070  27.081  24.539  14.969
50745W        W23071  32.506  14.085   0.950
50746W        W23072  28.485  11.763   4.358
50747W        W23073  34.964  37.314   3.796
50748W        W23074  16.660  18.411  12.426
50749W        W23075  41.432   2.754   1.747
50750W        W23076  17.114  13.743  14.336
50751W        W23077  23.675   6.486   3.766
50752W        W23078   2.407  27.498  10.682
50753W        W23079  21.392  11.973   4.870
50754W        W23080  13.352   3.122  13.493
50755W        W23081   3.720  12.664  14.999
50756W        W23082  23.549  10.147   3.290
50757W        W23083  10.635   6.618   0.549
50758W        W23084  12.326  35.353  13.934
50759W        W23085  44.730  20.650  13.400
50760W        W23086  20.583  35.394  13.491
50761W        W23087  21.299  17.885   4.735
50762W        W23088  36.579  35.393  10.736
50763W        W23089   1.984  40.557  14.947
50764W        W23090  40.481  40.572   3.353
50765W        W23091   1.350   5.883  12.675
50766W        W23092  26.591  36.296   1.612
50767W        W23093  44.833  26.043   2.918
50768W        W23094  24.430  22.053  11.137
50769W        W23095  28.711  41.145  11.200
50770W        W23096  10.722   1.895   2.827
50771W        W23097  26.544  18.111   2.598
50772W        W23098   0.745  15.556  13.919
50773W        W23099  36.884  14.619   2.872
50774W        W23100  41.762  15.825  14.795
50775W        W23101   2.471  14.154  11.565
50776W        W23102  16.907  37.510   5.006
50777W        W23103  16.316  34.495   1.416
50778W        W23104   4.853   0.423   3.099
50779W        W23105   0.764  10.630   4.680
50780W        W23106   9.863  20.662  13.596
50781W        W23107  15.705   8.633  14.684
50782W        W23108  26.667  21.038   1.173
50783W        W23109   8.215  30.537  10.720
50784W        W23110  32.661  37.710   4.105
50785W        W23111  31.348  16.262   2.668
50786W        W23112  17.764  26.250   3.814
50787W        W23113  11.052  25.808  10.178
50788W        W23114  18.994  30.328  13.402
50789W        W23115   4.435  24.245   1.691
50790W        W23116  39.637   4.245   3.206
50791W        W23117  37.038  12.610  10.544
50792W        W23118  24.045  40.616   4.695
50793W        W23119  30.023  39.519  11.470
50794W        W23120  10.776   1.224   2.238
50795W        W23121  23.125  15.369  12.428
50796W        W23122  22.755  23.159  12.033
50797W        W23123   5.643  43.855   3.725
50798W        W23124  20.163  11.168   1.239
50799W        W23125  36.726  16.295  13.423
50800W        W23126  18.155  17.133   4.365
50801W        W23127  39.516  32.532   3.561
50802W        W23128  39.530  26.453   0.761
50803W        W23129  42.531  24.925   0.798
50804W        W23130   6.394  35.399  14.398
50805W        W23131  19.893   5.236   4.081
50806W        W23132  19.406  40.360   2.651
50807W        W23133   1.433  22.741   1.165
50808W        W23134   5.929   6.560  13.470
50809W        W23135  11.979  14.367   0.453
50810W        W23136   6.855   7.436   3.304
50811W        W23137  40.557  20.109  13.975
50812W        W23138   4.758  39.889  14.747
50813W        W23139  25.662  20.441   2.314
50814W        W23140   7.785  30.176   3.773
50815W        W23141  41.608  13.782  10.659
50816W        W23142  21.197  18.788   1.347
50817W        W23143  27.017  12.925   3.257
50818W        W23144  38.583  14.571   1.892
50819W        W23145   3.960  11.626  13.841
50820W        W23146  20.067  13.327   2.638
50821W        W23147  41.804  34.182  13.881
50822W        W23148  30.147  44.718   0.691
50823W        W23149   9.910  17.440  13.085
50824W        W23150  31.018   7.673  13.603
50825W        W23151  12.846  37.587  12.378
50826W        W23152  31.145   2.926   4.336
50827W        W23153   0.237  28.210   3.260
50828W        W23154  22.571  28.633  13.036
50829W        W23155  30.601  34.760  12.570
50830W        W23156  22.912   2.972   4.606
50831W        W23157  24.150  25.478  12.603
50832W        W23158  18.656  21.768  12.092
50833W        W23159   5.886  16.828   2.339
50834W        W23160   5.303  34.171   4.696
50835W        W23161  29.787  31.682  10.108
50836W        W23162  29.427   6.108   1.642
50837W        W23163  15.623  19.663   2.817
50838W        W23164  31.428  18.762   2.621
50839W        W23165  11.046  15.492   4.666
50840W        W23166   6.335  22.941  12.972
50841W        W23167   6.447  13.343   3.180
50842W        W23168  11.775  31.192   4.358
50843W        W23169  31.849  16.602   4.038
50844W        W23170  27.720  32.885   1.868
50845W        W23171   4.632  13.965   3.624
50846W        W23172  40.388  27.721   0.377
50847W        W23173   6.721   4.687  11.639
50848W        W23174  43.527  41.333   3.684
50849W        W23175  12.387  30.084   3.997
50850W        W23176  39.882  21.271   0.409
50851W        W23177  21.863  28.963   3.269
50852W        W23178   7.781  19.708  14.372
50853W        W23179   1.595  33.980   4.656
50854W        W23180  37.309   2.402   3.719
50855W        W23181  15.827   7.774  12.163
50856W        W23182   5.101  38.468  13.892
50857W        W23183   0.996  41.996   2.306
50858W        W23184  35.651  25.660  10.739
50859W        W23185  16.368  19.296   1.824
50860W        W23186  19.054  29.539   0.505
50861W        W23187  34.035  29.213  13.042
50862W        W23188  16.335  13.350  10.736
50863W        W23189   3.654  37.466   2.135
50864W        W23190  42.457  25.438   4.592
50865W        W23191   1.764  18.670   4.111
50866W        W23192  34.462  10.920   1.280
50867W        W23193   8.817  40.492  14.445
50868W        W23194   0.750  32.200   3.169
50869W        W23195  11.534  12.183   3.284
50870W        W23196  20.160  26.373  13.551
50871W        W23197  43.421   9.097   4.172
50872W        W23198   8.553  44.687   1.762
50873W        W23199  44.930  41.350  14.372
50874W        W23200   0.361   0.877   1.398
50875W        W23201  21.216  43.181   1.953
50876W        W23202  28.959  13.586  13.310
50877W        W23203  34.608  42.115   4.852
50878W        W23204   4.795  36.844   3.321
50879W        W23205  33.924   9.515  11.192
50880W        W23206  39.266  37.713   0.780
50881W        W23207  30.889  24.543  10.476
50882W        W23208  40.274   1.432   0.783
50883W        W23209   9.292   1.005   0.318
50884W        W23210   5.943  35.011   4.139
50885W        W23211  18.650  20.605   0.371
50886W        W23212  32.569  44.371  10.723
50887W        W23213  26.189  25.029  11.441
50888W        W23214  43.968   4.377  11.968
50889W        W23215  43.489   7.252   1.840
50890W        W23216  10.345  33.487   3.114
50891W        W23217  34.488  12.142  13.267
50892W        W23218  33.083  38.782  11.108
50893W        W23219   5.672  37.819   2.279
50894W        W23220  22.988  43.997   4.681
50895W        W23221  10.099  43.752   1.393
50896W        W23222  22.379   4.198  12.082
50897W        W23223  15.254   5.286  13.844
50898W        W23224  33.529   8.447  11.922
50899W        W23225  34.328  37.516  11.921
50900W        W23226  40.104  26.056  10.803
50901W        W23227  41.453  29.235  12.806
50902W        W23228  25.557  34.013  13.582
50903W        W23229  24.902  44.948   0.819
50904W        W23230  27.505  41.355  10.678
50905W        W23231  43.931  31.946   2.383
50906W        W23232   4.201  39.996   2.637
50907W        W23233   9.767  21.231  12.506
50908W        W23234  16.935  12.156  13.553
50909W        W23235   4.958  26.581   4.514
50910W        W23236  29.383  43.601   2.930
50911W        W23237  19.024  31.547   4.610
50912W        W23238   3.353   2.770   0.789
50913W        W23239  39.376  39.872   4.670
50914W        W23240  11.207  21.587   2.069
50915W        W23241  41.803  11.757  11.727
50916W        W23242  23.874  40.801   2.241
50917W        W23243   5.904  16.634  12.857
50918W        W23244   9.398  43.559  13.002
50919W        W23245   4.466  10.002  12.969
50920W        W23246  29.105  32.537  10.683
50921W        W23247  11.571  38.567  12.881
50922W        W23248  26.010  36.972  12.922
50923W        W23249   0.366  26.004  13.769
50924W        W23250  33.347  15.701  14.476
50925W        W23251  12.724  14.375   4.066
50926W        W23252   1.348  44.687   1.942
50927W        W23253  31.767   9.987   3.199
50928W        W23254   0.748  18.245   2.277
50929W        W23255   6.854  39.425   1.934
50930W        W23256  16.312  38.489   1.331
50931W        W23257  37.630  32.437   4.099
50932W        W23258  27.536  44.985   2.225
50933W        W23259  15.860  18.236   0.831
50934W        W23260  32.551  24.691   2.834
50935W        W23261  23.448  28.524   2.325
50936W        W23262   7.783  34.795   3.964
50937W        W23263  23.111  21.462   3.411
50938W        W23264  20.552   9.178   0.370
50939W        W23265  26.192  13.214  10.661
50940W        W23266  38.278  32.034  14.502
50941W        W23267   2.203  38.428   4.274
50942W        W23268  42.580  36.451  12.197
50943W        W23269  12.158  43.424   4.495
50944W        W23270  20.700  19.512   1.762
50945W        W23271  18.041  36.395   1.342
50946W        W23272   6.361  28.408   3.027
50947W        W23273   7.136   2.186  13.979
50948W        W23274  20.456  27.021   0.422
50949W        W23275  21.694  14.521  12.369
50950W        W23276  12.701  29.879   3.608
50951W        W23277   4.670  41.960   1.735
50952W        W23278   4.186   7.968  13.796
50953W        W23279  31.903  43.512   2.368
50954W        W23280  10.799  35.014   2.160
50955W        W23281  29.656  44.517   0.766
50956W        W23282   8.511  43.827  10.683
50957W        W23283   7.305  32.857   3.142
50958W        W23284  10.552  39.392   0.309
50959W        W23285  16.562  19.468   4.836
50960W        W23286  25.677  32.080  11.472
50961W        W23287  20.010  28.639  13.734
50962W        W23288  10.563  22.744   1.129
50963W        W23289  38.295  27.147   3.086
50964W        W23290   1.437   4.728   0.512
50965W        W23291  30.008  38.750   0.240
50966W        W23292  37.875  44.528   0.866
50967W        W23293  34.860  39.507   0.127
50968W        W23294  35.553   4.507  14.718
50969W        W23295  14.027  22.510  14.326
50970W        W23296  18.649  40.824   0.319
50971W        W23297  18.017   6.641   0.823
50972W        W23298  20.331  22.514  10.486
50973W        W23299  34.564  36.899   3.695
50974W        W23300  26.193  25.185   3.262
50975W        W23301  10.005   8.290  12.118
50976W        W23302  14.349   0.993  13.507
50977W        W23303  10.624  18.578   2.206
50978W        W23304   8.280  43.703  13.551
50979W        W23305  27.982  31.214   0.375
50980W        W23306  36.113  36.499  11.235
50981W        W23307  36.668  30.437  12.948
50982W        W23308  41.570   6.806  12.852
50983W        W23309  10.584   6.427  12.104
50984W        W23310  25.566  12.244   0.066
50985W        W23311   6.153  35.387   4.469
50986W        W23312  26.539  43.683   3.715
50987W        W23313  40.795  35.990   4.059
50988W        W23314   3.879  36.384   4.810
50989W        W23315   6.233   3.398  12.338
50990W        W23316  10.646   8.600   0.026
50991W        W23317  40.355  30.274  13.515
50992W        W23318  44.014  14.878   1.889
50993W        W23319  14.584  32.471  14.935
50994W        W23320  37.596  29.357   2.628
50995W        W23321  31.436  28.671  12.109
50996W        W23322  12.789  11.940   3.803
50997W        W23323  22.335  29.845   5.105
50998W        W23324  11.664  20.003  10.623
50999W        W23325  30.601  31.575   1.853
51000W        W23326   3.765  20.451  14.770
51001W        W23327  25.004  20.673   0.990
51002W        W23328  11.235   1.217   3.852
51003W        W23329  44.153  36.582  13.212
51004W        W23330   0.711  20.171  14.029
51005W        W23331   1.331  18.771   0.995
51006W        W23332  15.937  36.385   4.968
51007W        W23333  34.138  32.143  10.172
51008W        W23334   9.345  28.057  13.888
51009W        W23335  41.970  21.782  12.342
51010W        W23336  26.872  29.535  14.426
51011W        W23337  27.234  17.251  14.947
51012W        W23338  39.800  19.514   4.529
51013W        W23339   0.946  32.489  11.843
51014W        W23340  24.714  23.819  10.818
51015W        W23341  22.388  20.018  13.615
51016W        W23342  16.676   5.439   3.249
51017W        W23343  10.748  36.149  11.578
51018W        W23344  32.156  20.591  10.688
51019W        W23345  44.232   2.298   2.780
51020W        W23346  20.551  35.145   3.638
51021W        W23347  15.679  41.811  12.353
51022W        W23348  18.105  10.405  12.824
51023W        W23349  32.386   4.250   1.463
51024W        W23350  11.984  15.683   0.883
51025W        W23351  42.752  38.424  11.220
51026W        W23352  27.089   1.743   1.228
51027W        W23353  42.343  28.802   2.300
51028W        W23354  24.216  21.079   2.374
51029W        W23355  23.047   6.452  11.462
51030W        W23356  24.086  30.466  13.513
51031W        W23357  41.260  41.430   1.307
51032W        W23358  22.652   5.320   4.705
51033W        W23359  31.910   5.050  14.031
51034W        W23360   0.785   4.745   2.663
51035W        W23361  36.847  23.249   4.160
51036W        W23362  16.003   5.242   0.514
51037W        W23363   8.956  24.267  12.943
51038W        W23364  14.557  39.471  13.071
51039W        W23365  37.564  28.540  11.913
51040W        W23366  43.808   6.769  13.976
51041W        W23367  27.101  29.507   1.887
51042W        W23368  15.197   6.796  12.874
51043W        W23369  39.929  19.361  13.066
51044W        W23370  24.151  28.943  13.482
51045W        W23371   4.284  13.427  12.452
51046W        W23372  18.437  14.820  11.908
51047W        W23373  27.511   0.001   0.208
51048W        W23374  23.162  31.707   2.247
51049W        W23375  10.233  25.211  14.173
51050W        W23376  15.270  14.781  14.665
51051W        W23377   9.853  31.381   2.249
51052W        W23378  40.442   9.887   4.809
51053W        W23379   7.244   3.904   1.045
51054W        W23380  10.401  13.239   3.129
51055W        W23381  15.598   6.166  13.512
51056W        W23382  32.617  27.523  10.502
51057W        W23383   4.921  39.062   2.074
51058W        W23384  35.828  30.169  12.934
51059W        W23385  10.455  11.220   0.711
51060W        W23386   2.779  33.671  12.895
51061W        W23387  39.559  44.728   3.831
51062W        W23388   2.501  18.373   1.485
51063W        W23389  25.146   1.606   4.611
51064W        W23390  30.685   1.947   9.993
51065W        W23391  24.457  17.198   2.294
51066W        W23392  14.823  20.985  12.667
51067W        W23393  30.439  43.012   2.105
51068W        W23394  26.985  21.956  14.749
51069W        W23395  28.641  35.083   1.249
51070W        W23396  11.825  28.136   3.799
51071W        W23397  11.169  28.968  11.523
51072W        W23398  36.375  22.920   3.011
51073W        W23399  12.392  36.364  11.093
51074W        W23400  40.234  43.460  14.809
51075W        W23401  26.552  25.526   3.382
51076W        W23402  16.644  11.332  12.408
51077W        W23403  40.586   9.405  12.997
51078W        W23404   4.241  24.179   1.202
51079W        W23405  23.259  32.356  14.395
51080W        W23406   0.392  14.464   1.376
51081W        W23407  33.903  35.337  13.690
51082W        W23408  22.070  29.193  12.073
51083W        W23409   8.712  10.755  10.636
51084W        W23410  42.300  39.897   4.607
51085W        W23411   6.667  29.425  10.626
51086W        W23412  29.983  27.685   5.682
51087W        W23413  16.597   2.688  13.419
51088W        W23414   4.335  26.170  12.995
51089W        W23415  21.242   7.698  13.381
51090W        W23416  44.845  12.251  10.908
51091W        W23417  25.812   2.644   4.144
51092W        W23418  42.923  26.889  14.084
51093W        W23419   6.187  33.115  14.959
51094W        W23420  26.224  24.571  11.692
51095W        W23421  21.327  38.517  11.116
51096W        W23422  43.786  14.280   3.364
51097W        W23423  10.637  10.565  10.810
51098W        W23424   0.354  22.371  10.153
51099W        W23425  33.407  21.562   0.241
51100W        W23426   9.975   1.920   0.905
51101W        W23427  23.631   6.487  12.388
51102W        W23428  10.366  26.749   2.769
51103W        W23429  17.732  15.551   3.594
51104W        W23430  27.165   6.939  14.878
51105W        W23431  25.578  35.275   1.694
51106W        W23432   9.394  35.928   5.087
51107W        W23433   8.111   5.342  12.656
51108W        W23434   5.855  18.167  14.002
51109W        W23435   1.464  35.664   1.306
51110W        W23436  34.065  27.758  11.579
51111W        W23437  14.500  30.375   4.280
51112W        W23438  36.585  35.937  13.039
51113W        W23439  27.205  42.524   0.936
51114W        W23440  33.164  43.630   1.884
51115W        W23441  24.847  22.116  13.374
51116W        W23442  41.820   0.412  12.835
51117W        W23443  26.923  20.116   4.176
51118W        W23444  21.193   5.921   3.685
51119W        W23445  38.820  33.502  14.333
51120W        W23446   0.178  18.633   0.313
51121W        W23447  16.120   4.162  13.894
51122W        W23448  35.941   5.060   1.314
51123W        W23449  22.328  15.769   0.973
51124W        W23450  37.083   8.959   0.931
51125W        W23451   8.143   5.361   4.224
51126W        W23452  11.647  41.362  14.203
51127W        W23453  42.678   9.608   4.233
51128W        W23454   1.947  25.840   1.245
51129W        W23455  41.116  44.424   2.924
51130W        W23456   9.931   5.727  10.747
51131W        W23457   2.483  13.654   0.854
51132W        W23458   8.903  38.827   4.669
51133W        W23459  42.853  42.044   0.763
51134W        W23460  29.772  23.185  12.024
51135W        W23461  32.682  42.770  12.539
51136W        W23462  18.707  39.419  14.322
51137W        W23463  27.630  37.810  11.626
51138W        W23464  12.396  21.660   2.369
51139W        W23465  39.996  14.742   1.907
51140W        W23466  44.889  32.920  14.887
51141W        W23467   1.496  40.523   1.673
51142W        W23468  41.255  26.919  10.393
51143W        W23469  33.102  28.660   3.867
51144W        W23470   7.193   6.412   4.147
51145W        W23471  21.270  31.411   0.130
51146W        W23472  22.833  34.498  14.839
51147W        W23473   8.839  43.522   3.679
51148W        W23474  27.833   0.265   0.702
51149W        W23475  24.216  41.820  14.629
51150W        W23476  14.687  35.095   2.819
51151W        W23477  28.427   2.737  12.015
51152W        W23478  10.604  38.395   2.836
51153W        W23479  24.026  33.943   1.191
51154W        W23480  42.831  18.179  10.942
51155W        W23481  29.160  38.885   0.746
51156W        W23482  33.699   3.380  12.382
51157W        W23483   6.166  33.176   2.700
51158W        W23484  36.166   9.784  14.400
51159W        W23485  26.227   9.008  13.493
51160W        W23486  17.902   8.715   4.316
51161W        W23487  26.018  26.537  12.411
51162W        W23488   6.327  30.186   0.548
51163W        W23489   6.876  23.284   0.963
51164W        W23490   5.210  10.168   4.466
51165W        W23491  33.281  29.559  13.690
51166W        W23492  35.673  27.143  13.363
51167W        W23493  15.681  41.466  13.107
51168W        W23494  44.556  16.618  14.316
51169W        W23495  43.949  32.489  14.831
51170W        W23496  23.066  23.577  12.076
51171W        W23497  31.440   7.899  14.333
51172W        W23498  23.786  36.910  11.486
51173W        W23499  17.572  17.021  11.879
51174W        W23500  44.467  19.384   3.876
51175W        W23501  26.556   3.313  10.971
51176W        W23502  39.940  31.925   2.140
51177W        W23503  43.881  30.094   3.356
51178W        W23504  31.282  12.864  13.781
51179W        W23505  16.313  43.409   1.962
51180W        W23506  42.500  22.642  14.762
51181W        W23507   8.710  12.843  13.056
51182W        W23508  41.885   5.274  14.268
51183W        W23509  40.765   2.891   2.416
51184W        W23510  27.958  42.999  12.864
51185W        W23511  22.084  26.696  14.916
51186W        W23512  28.683  14.916   1.669
51187W        W23513   4.293   2.346   1.960
51188W        W23514  43.618   6.496   4.140
51189W        W23515  42.045  37.947  12.842
51190W        W23516  17.696  13.103  11.464
51191W        W23517   9.733  40.782   4.837
51192W        W23518  26.571  34.654   4.772
51193W        W23519  37.277  43.263   0.827
51194W        W23520  39.967  44.970   4.363
51195W        W23521  43.942  39.420   0.205
51196W        W23522  37.564  30.185  11.227
51197W        W23523  44.808  20.930   2.362
51198W        W23524   1.416  41.055   4.398
51199W        W23525  40.782  25.391  11.056
51200W        W23526  43.405   5.588   3.592
51201W        W23527  38.365  42.390   3.333
51202W        W23528  35.424  29.190  11.888
51203W        W23529  37.895  17.165   3.363
51204W        W23530  41.507   7.253  13.103
51205W        W23531  30.962   1.526   3.520
51206W        W23532  25.344  22.753   3.698
51207W        W23533  38.509  26.025   1.016
51208W        W23534  25.825  24.266   0.750
51209W        W23535  34.470  10.839   3.950
51210W        W23536  12.788   8.572   1.131
51211W        W23537  44.656  16.694   2.432
51212W        W23538  12.124  22.247  13.292
51213W        W23539   7.598  15.257   0.454
51214W        W23540  24.083   6.800   3.633
51215W        W23541  12.411  32.090  10.409
51216W        W23542  21.088  22.633  11.176
51217W        W23543  10.910  33.914  12.742
51218W        W23544  44.735   7.909  11.850
51219W        W23545  17.480   9.258  14.419
51220W        W23546   4.211   5.802  10.559
51221W        W23547   3.419  22.202   1.904
51222W        W23548  26.786  14.170   2.294
51223W        W23549  11.337  32.860   2.434
51224W        W23550  22.207  28.712  11.154
51225W        W23551  36.159   4.286   1.802
51226W        W23552  37.769  29.645  13.033
51227W        W23553  24.181   0.279   2.365
51228W        W23554  14.257  43.250  10.624
51229W        W23555   0.027  10.977   4.198
51230W        W23556  21.280   6.903   3.805
51231W        W23557  25.458  25.499  12.051
51232W        W23558  23.154  43.930  12.972
51233W        W23559  31.595  37.842   0.722
51234W        W23560  22.521   3.804  14.378
51235W        W23561   9.742  23.667   2.856
51236W        W23562   6.940  42.817   0.700
51237W        W23563  11.893  31.474  12.514
51238W        W23564   8.985  32.174   3.337
51239W        W23565  25.026   0.968  11.186
51240W        W23566   6.371  21.203  14.105
51241W        W23567  36.603   7.803   4.569
51242W        W23568   8.641  41.927   0.171
51243W        W23569  28.049  11.175   0.866
51244W        W23570  26.468  14.626  10.793
51245W        W23571  27.477  11.543  14.040
51246W        W23572  23.011  15.369   9.574
51247W        W23573  31.207  22.304   3.842
51248W        W23574   3.814  24.722   4.106
51249W        W23575  25.111   9.717  14.718
51250W        W23576  33.676  23.167  11.378
51251W        W23577  30.038  13.140   1.717
51252W        W23578   9.252  30.940   0.947
51253W        W23579  29.409  41.791  14.969
51254W        W23580  15.280  23.885  11.570
51255W        W23581  42.542   1.819   0.217
51256W        W23582  43.561  26.004   3.708
51257W        W23583  43.833  34.556   1.087
51258W        W23584  31.929  15.208   4.370
51259W        W23585   5.437  21.305   1.790
51260W        W23586   6.283  30.682  10.504
51261W        W23587  25.972  33.809  14.437
51262W        W23588  23.790  34.528  10.753
51263W        W23589  41.328   3.231  14.402
51264W        W23590   8.244  21.599  10.742
51265W        W23591  42.717   2.008  13.423
51266W        W23592   5.099  41.919  11.293
51267W        W23593  19.811  26.756   1.306
51268W        W23594  27.553   8.702   0.934
51269W        W23595   8.664  28.948  12.587
51270W        W23596  34.119  25.521   0.809
51271W        W23597  30.734  15.200  11.260
51272W        W23598  17.487  25.839  11.670
51273W        W23599  36.908  39.228   3.582
51274W        W23600  28.459   3.745   2.407
51275W        W23601  19.778   1.009  14.905
51276W        W23602  37.848  32.125  13.807
51277W        W23603  38.106  25.076  13.457
51278W        W23604   8.779   0.737  13.476
51279W        W23605  28.735   4.806   0.907
51280W        W23606  28.534  25.604  12.145
51281W        W23607   8.237  34.505   0.407
51282W        W23608  19.159   3.820  13.407
51283W        W23609  12.827  29.072   0.765
51284W        W23610  33.524   9.184  13.535
51285W        W23611   0.005  41.575  11.540
51286W        W23612  41.618  42.829  13.711
51287W        W23613  10.888   7.212   2.659
51288W        W23614  41.411  34.038   4.290
51289W        W23615  38.927  38.902  11.377
51290W        W23616  15.170  34.825   2.806
51291W        W23617  20.268  33.060   1.884
51292W        W23618  20.682  36.586  12.961
51293W        W23619   1.161   2.937  10.638
51294W        W23620   1.284  16.757  13.004
51295W        W23621  22.953  12.216   3.687
51296W        W23622  14.088  14.448   4.284
51297W        W23623  41.998  29.451   2.832
51298W        W23624  21.732  25.561  12.565
51299W        W23625  26.548  28.090  14.530
51300W        W23626  21.710  32.540   4.569
51301W        W23627  15.062  14.107   4.186
51302W        W23628   4.243  44.710   4.195
51303W        W23629  40.652   2.336  13.451
51304W        W23630  14.616  17.381  12.343
51305W        W23631  33.431  43.537  13.810
51306W        W23632  18.927  20.636   1.974
51307W        W23633  40.900   4.873  13.064
51308W        W23634  16.588   9.859   1.893
51309W        W23635  26.085  34.137   1.466
51310W        W23636  26.102   6.134  14.764
51311W        W23637   5.454   5.373   3.631
51312W        W23638  30.309  28.894  11.393
51313W        W23639   4.231  21.752   0.659
51314W        W23640  23.183  36.630  12.053
51315W        W23641  31.633  38.023   2.111
51316W        W23642   1.943   4.329  14.680
51317W        W23643  43.175  37.497  10.778
51318W        W23644   5.315  32.164   3.781
51319W        W23645  29.967  31.982  14.516
51320W        W23646  37.497  44.766   0.434
51321W        W23647  20.640  15.585  13.526
51322W        W23648  33.880  25.246  10.868
51323W        W23649  26.395   6.525   1.436
51324W        W23650  28.250   8.822   0.562
51325W        W23651  25.610  28.412   2.392
51326W        W23652  39.997  29.953   0.749
51327W        W23653  23.065  23.969   0.747
51328W        W23654  38.874   7.947  14.092
51329W        W23655  33.568  44.063  12.945
51330W        W23656  30.395  17.017   0.281
51331W        W23657  22.559   5.317  11.593
51332W        W23658  12.659  18.236   4.389
51333W        W23659  34.628  39.267   2.783
51334W        W23660  31.977  33.396   2.146
51335W        W23661  32.165  31.616  11.031
51336W        W23662  14.746  28.131   4.579
51337W        W23663  17.215  43.067   4.619
51338W        W23664  24.371  25.559  11.715
51339W        W23665   9.885  26.716  11.832
51340W        W23666   8.397  41.862   4.124
51341W        W23667  33.558   9.873  13.638
51342W        W23668  13.043  21.267   0.759
51343W        W23669  16.132   3.960   1.648
51344W        W23670  30.857   5.287   4.201
51345W        W23671  39.162   0.304   4.780
51346W        W23672  23.143  26.737   2.375
51347W        W23673  14.746  35.595  13.802
51348W        W23674  33.990  13.345   0.042
51349W        W23675   7.811  17.293   1.396
51350W        W23676  34.224  43.490   1.468
51351W        W23677   7.038  11.081   2.355
51352W        W23678  37.876  26.687  11.601
51353W        W23679  24.948  34.869  12.302
51354W        W23680   7.412  17.688  14.391
51355W        W23681   0.318  14.123   1.802
51356W        W23682  15.241   8.886   0.896
51357W        W23683   5.329  39.010   2.381
51358W        W23684  20.074   3.252   2.608
51359W        W23685  16.160  44.044   1.338
51360W        W23686   3.184   8.826   0.411
51361W        W23687  13.206  31.135   1.421
51362W        W23688  35.087   3.943  11.250
51363W        W23689  10.743  28.184  10.318
51364W        W23690  24.194  41.406   2.742
51365W        W23691  39.492  28.230  10.738
51366W        W23692  10.719  11.923  14.006
51367W        W23693  18.758  12.875  14.035
51368W        W23694  22.257  29.416   0.168
51369W        W23695  10.407  38.607  14.596
51370W        W23696  29.779   8.929   5.078
51371W        W23697  39.526  41.718  11.501
51372W        W23698  14.633  40.987  13.610
51373W        W23699   3.510  23.459   2.336
51374W        W23700   1.385  37.103   4.030
51375W        W23701   2.767  27.021  10.721
51376W        W23702  24.003  10.721  12.959
51377W        W23703  33.604  40.246  11.499
51378W        W23704  41.899  28.665  14.833
51379W        W23705  13.479  27.641   1.017
51380W        W23706  29.209  35.055  13.513
51381W        W23707  35.813  23.204   0.221
51382W        W23708  35.970  22.971  14.329
51383W        W23709  31.399  13.108   4.290
51384W        W23710  25.083   4.210  12.459
51385W        W23711  29.357  20.501   1.766
51386W        W23712   3.735   4.167   0.893
51387W        W23713  44.255  26.143  14.448
51388W        W23714  34.149  22.527   2.240
51389W        W23715  25.086  25.667   4.588
51390W        W23716   7.589  23.252  14.426
51391W        W23717  36.517  37.502   1.263
51392W        W23718  15.116  44.561   1.593
51393W        W23719  15.186  38.018   4.563
51394W        W23720  36.447  31.235   4.601
51395W        W23721   4.168  28.605  14.474
51396W        W23722  10.303  36.009   4.341
51397W        W23723  12.066  31.071  12.930
51398W        W23724  31.019   7.676  14.988
51399W        W23725  11.130   3.173   2.825
51400W        W23726  13.660  23.005  10.939
51401W        W23727  37.066   6.218  14.770
51402W        W23728   6.268  43.030   3.606
51403W        W23729  19.184   0.288  14.000
51404W        W23730  38.603  43.090   3.521
51405W        W23731   3.034  25.099   1.759
51406W        W23732   1.359  31.753  10.362
51407W        W23733  15.720  15.600  12.588
51408W        W23734  19.211  39.566  12.628
51409W        W23735  13.984   4.783  11.552
51410W        W23736  19.744  44.225  13.429
51411W        W23737  44.952  39.296   0.845
51412W        W23738  24.677  22.460  11.426
51413W        W23739   8.729  16.624  12.034
51414W        W23740  34.116  34.038  13.020
51415W        W23741  31.109  25.744   3.481
51416W        W23742  42.181  37.848  11.145
51417W        W23743  43.169  21.192  11.498
51418W        W23744  25.969   3.769  13.552
51419W        W23745  42.640  21.311  11.528
51420W        W23746  22.718  17.792   2.370
51421W        W23747  18.694  10.485  10.661
51422W        W23748  43.268  14.968  11.887
51423W        W23749  11.964   8.244   1.350
51424W        W23750  26.060  16.670   0.581
51425W        W23751  41.911  43.008  11.180
51426W        W23752  38.943   5.691  12.061
51427W        W23753  29.192  23.735   0.984
51428W        W23754  38.320   5.466   3.591
51429W        W23755  44.753  28.978   2.393
51430W        W23756  13.617   9.471  14.510
51431W        W23757  34.930   8.195  14.017
51432W        W23758  18.715  18.481  11.133
51433W        W23759  27.489  41.818   3.222
51434W        W23760  24.998   9.342   4.847
51435W        W23761  23.829   3.177   0.382
51436W        W23762  36.554  21.027   0.237
51437W        W23763   2.862  11.146   0.467
51438W        W23764  21.087  13.415  12.121
51439W        W23765  19.550  13.286   0.468
51440W        W23766  33.875   9.720   1.642
51441W        W23767  26.141   4.062   1.078
51442W        W23768  30.539  44.927  12.643
51443W        W23769  29.884  29.488   4.126
51444W        W23770  11.236  12.284  13.099
51445W        W23771  18.363   4.429   0.730
51446W        W23772   1.853  15.142  14.541
51447W        W23773  33.574  28.531   4.127
51448W        W23774  34.857  21.285   2.503
51449W        W23775  24.066  26.388  13.285
51450W        W23776  36.841  14.605  12.859
51451W        W23777   9.794  24.550  12.844
51452W        W23778  29.007   2.218   3.063
51453W        W23779  43.502  33.552   4.153
51454W        W23780  20.294  14.759  14.297
51455W        W23781  25.169  30.619  12.832
51456W        W23782  37.871  28.155   2.293
51457W        W23783  15.029  31.953  13.384
51458W        W23784  41.071  20.562  13.272
51459W        W23785  35.507  41.952  10.674
51460W        W23786  15.757  42.726  11.567
51461W        W23787   7.274  17.046   4.642
51462W        W23788  11.892  37.569   1.329
51463W        W23789  18.537  36.467  13.913
51464W        W23790  44.270  32.832  11.724
51465W        W23791   5.855  25.863  13.868
51466W        W23792  41.007  37.478  12.441
51467W        W23793  43.535   2.934  10.828
51468W        W23794   5.734  11.271   3.739
51469W        W23795  27.590   6.884   3.868
51470W        W23796   6.858  41.129   4.134
51471W        W23797  43.091   4.255   2.623
51472W        W23798  33.905  14.200  12.644
51473W        W23799   1.796  21.569  13.412
51474W        W23800  19.554   0.977  12.990
51475W        W23801  11.149  28.105  12.993
51476W        W23802   3.479   9.311   3.179
51477W        W23803   8.642   4.903  11.115
51478W        W23804  13.450  32.548   2.045
51479W        W23805  32.800  16.385   2.499
51480W        W23806  24.460   1.328  14.900
51481W        W23807  15.725  23.481   0.205
51482W        W23808   4.659   8.545   1.388
51483W        W23809  17.346   0.259   3.062
51484W        W23810  14.731  26.940  10.273
51485W        W23811  42.219  16.841   4.776
51486W        W23812  28.556  28.162  12.872
51487W        W23813  33.555  13.022   2.882
51488W        W23814  28.699   9.734   4.782
51489W        W23815  33.978   3.252   4.664
51490W        W23816  18.225  29.597   1.832
51491W        W23817   3.978  33.966  12.776
51492W        W23818   6.475   4.462   1.814
51493W        W23819   1.976  37.984  12.341
51494W        W23820  21.507  16.505   2.701
51495W        W23821  24.522   7.836  14.305
51496W        W23822  35.114  24.446  14.296
51497W        W23823  33.364  41.927   3.218
51498W        W23824   3.526  26.703  10.627
51499W        W23825  37.610  22.193  13.545
51500W        W23826   0.932  16.232   3.685
51501W        W23827  43.882  23.919  11.599
51502W        W23828  16.965   1.868  13.964
51503W        W23829  25.533  41.381   9.861
51504W        W23830  25.609  11.812  14.783
51505W        W23831  40.446   0.685  12.047
51506W        W23832  26.978  17.609   4.078
51507W        W23833  32.537  29.681  11.160
51508W        W23834  44.544  32.901   2.823
51509W        W23835  41.756  14.177  13.557
51510W        W23836   8.476  35.601   1.206
51511W        W23837   5.683  20.854  13.490
51512W        W23838   6.455  25.292  13.309
51513W        W23839  17.751   1.566  12.573
51514W        W23840  33.026  28.128  10.832
51515W        W23841  12.550  39.463   3.943
51516W        W23842  16.206  18.256   4.575
51517W        W23843  25.056  34.110   3.196
51518W        W23844   7.413  15.857   3.334
51519W        W23845  24.373  40.321   3.739
51520W        W23846  40.729  19.286  12.516
51521W        W23847  23.089   6.935  11.575
51522W        W23848  42.587  15.625  11.109
51523W        W23849  32.479  14.599   0.931
51524W        W23850  19.873   1.615  14.062
51525W        W23851  42.503  38.627  12.503
51526W        W23852   8.736   3.332  13.472
51527W        W23853  44.347   1.753   2.790
51528W        W23854  10.847  44.990  14.484
51529W        W23855   3.244  35.938   1.193
51530W        W23856   0.336  38.662   4.157
51531W        W23857  22.054  11.072  12.250
51532W        W23858  21.595  24.485  13.370
51533W        W23859   9.688   7.867   0.358
51534W        W23860  19.336  21.183   1.405
51535W        W23861  37.304  21.208  12.993
51536W        W23862   9.065   4.101   3.832
51537W        W23863  24.198  22.500   0.724
51538W        W23864  15.225  10.955  11.012
51539W        W23865  19.118  19.499   1.336
51540W        W23866  31.700  12.712  14.713
51541W        W23867  40.857  18.183   1.027
51542W        W23868   4.211  31.162   4.676
51543W        W23869   8.300   0.360   2.473
51544W        W23870   7.539   5.170   2.316
51545W        W23871  26.971  37.329  11.917
51546W        W23872  33.835  30.570  13.411
51547W        W23873  27.754  31.230  10.788
51548W        W23874   2.333  42.115  14.455
51549W        W23875  23.651  35.002  10.577
51550W        W23876  32.033  28.683  14.075
51551W        W23877  34.780  43.118  13.397
51552W        W23878  44.962  12.639   2.164
51553W        W23879  15.100  16.212   2.755
51554W        W23880   8.126  35.585   1.632
51555W        W23881  18.302  35.420  12.972
51556W        W23882  11.769  16.238   4.635
51557W        W23883  21.587  40.438   4.965
51558W        W23884  11.820  17.636   0.185
51559W        W23885   4.298  31.156   3.741
51560W        W23886  29.588  22.221   2.735
51561W        W23887  32.470  33.488  11.422
51562W        W23888  42.791  44.083   0.242
51563W        W23889  11.405  15.445   1.640
51564W        W23890  18.153  20.216  13.389
51565W        W23891  19.034  43.638   3.349
51566W        W23892  18.730   8.925  13.048
51567W        W23893  33.660  22.757   1.373
51568W        W23894   1.005   3.852   4.087
51569W        W23895  12.712   0.009   2.611
51570W        W23896  14.824  42.916   3.296
51571W        W23897  36.583  23.407  14.866
51572W        W23898  36.039  34.484  10.597
51573W        W23899  29.869  44.455   3.747
51574W        W23900  16.448  30.154   2.657
51575W        W23901  29.908  28.632   3.715
51576W        W23902   7.143  19.515   2.848
51577W        W23903  13.212   1.600   3.645
51578W        W23904  44.368   1.434   4.661
51579W        W23905  39.225   0.936   1.933
51580W        W23906  11.644  10.262  14.076
51581W        W23907   8.101  39.940  13.374
51582W        W23908   1.225   2.796  12.571
51583W        W23909  20.936  40.295   3.373
51584W        W23910  25.142  40.059   1.686
51585W        W23911  22.936  26.914   2.840
51586W        W23912  33.059   2.604   2.865
51587W        W23913  22.770  13.039   0.303
51588W        W23914  10.849  35.957   2.623
51589W        W23915   6.445   1.147  11.692
51590W        W23916  19.717  16.881   0.800
51591W        W23917  28.219  32.564  11.252
51592W        W23918  26.659   4.067  10.547
51593W        W23919  29.095  20.001  12.060
51594W        W23920  39.593  40.013  14.901
51595W        W23921  33.388  25.496   0.276
51596W        W23922  32.369  21.074  10.667
51597W        W23923  17.220   4.498  11.564
51598W        W23924  40.743  41.308   3.305
51599W        W23925  29.774  28.632   0.272
51600W        W23926   6.316   7.438  12.327
51601W        W23927   4.612  31.180  14.527
51602W        W23928  13.960  17.547   1.654
51603W        W23929  12.793  28.688  12.827
51604W        W23930   1.766   6.851   2.295
51605W        W23931   7.337  11.296  13.553
51606W        W23932  24.558   5.493  11.480
51607W        W23933  42.957  20.574   0.161
51608W        W23934   3.688  10.600  12.031
51609W        W23935  21.698  22.471   1.401
51610W        W23936  13.861  43.111   5.143
51611W        W23937  26.493  34.691   3.235
51612W        W23938  43.896  42.401   3.935
51613W        W23939  13.845  22.836   1.905
51614W        W23940  15.742  41.246  11.453
51615W        W23941  30.042  11.816   2.877
51616W        W23942  16.249  41.136   1.771
51617W        W23943  13.639  10.840  11.104
51618W        W23944   5.676  13.598   1.860
51619W        W23945  34.531  14.635  12.492
51620W        W23946  34.534  31.578  11.199
51621W        W23947  44.455   8.188   0.589
51622W        W23948  22.084  17.229  13.685
51623W        W23949  28.643  36.589   0.372
51624W        W23950   5.161  34.817   3.372
51625W        W23951   4.397   9.874   9.680
51626W        W23952   8.414  18.316  14.065
51627W        W23953  13.741   6.919   1.802
51628W        W23954   8.822   7.755   2.822
51629W        W23955   7.467  12.428  11.153
51630W        W23956  41.067  20.110  12.351
51631W        W23957   4.182  15.832   1.806
51632W        W23958  38.281  39.075  13.486
51633W        W23959  14.136   1.044   3.774
51634W        W23960  22.244  19.451   3.878
51635W        W23961   5.330  32.153   2.087
51636W        W23962  12.144  24.364   5.052
51637W        W23963  12.780  37.137  13.044
51638W        W23964  24.819  44.648   2.217
51639W        W23965  43.392  11.865   0.670
51640W        W23966   9.437  37.089  12.053
51641W        W23967  43.178  37.954   4.192
51642W        W23968  34.784  24.441   4.158
51643W        W23969  19.058  16.295   3.231
51644W        W23970  30.922  18.638   1.224
51645W        W23971  18.710   8.653  12.610
51646W        W23972  30.864   0.312  12.524
51647W        W23973  12.290  18.435   0.299
51648W        W23974  19.602  15.724  13.983
51649W        W23975   4.758  22.320  10.138
51650W        W23976  29.048  17.737   0.477
51651W        W23977  40.766  22.107   2.898
51652W        W23978  22.485  20.613  14.845
51653W        W23979  23.008   0.974   4.049
51654W        W23980  20.207  25.497  11.292
51655W        W23981  34.013   4.226  10.904
51656W        W23982  36.960  40.860   3.070
51657W        W23983  17.464  43.009   4.159
51658W        W23984  19.839  40.854   3.278
51659W        W23985  36.432  35.243  11.543
51660W        W23986  26.992   7.723   0.452
51661W        W23987  16.265   1.422   4.245
51662W        W23988  24.082   1.049  12.106
51663W        W23989  25.505  43.215   0.773
51664W        W23990  38.437  20.578   4.528
51665W        W23991  34.603  27.591   4.483
51666W        W23992  31.398  23.548  12.705
51667W        W23993   9.539   0.573  10.712
51668W        W23994   4.855  21.295  13.797
51669W        W23995  43.285   8.523  14.442
51670W        W23996  30.761  24.202  14.317
51671W        W23997  20.631  15.695   4.854
51672W        W23998  16.354  26.261   3.670
51673W        W23999  12.850  43.235  12.497
51674W        W24000   0.968  11.700   2.711
51675W        W24001  28.413  23.996   4.101
51676W        W24002   2.270  13.201   1.014
51677W        W24003  40.471  36.461  12.880
51678W        W24004   2.624  15.624   4.592
51679W        W24005  30.774   5.024   2.480
51680W        W24006  17.230  41.404   2.358
51681W        W24007  37.716  38.869   3.347
51682W        W24008  39.921  10.888  12.530
51683W        W24009  11.181   7.732   3.340
51684W        W24010   3.825   6.122  13.042
51685W        W24011  20.570  21.511   3.845
51686W        W24012  42.876   0.939  11.866
51687W        W24013  19.113  28.345  12.628
51688W        W24014   4.188   9.163  10.437
51689W        W24015   1.513  35.986  11.588
51690W        W24016  24.244   3.291  11.127
51691W        W24017  21.332  35.439  10.644
51692W        W24018  18.130   8.216   1.800
51693W        W24019  25.230   8.458   1.898
51694W        W24020   9.233   1.169   2.994
51695W        W24021   3.795  25.199  13.507
51696W        W24022  41.053   3.230  13.053
51697W        W24023  20.106  29.127  13.460
51698W        W24024  42.431   6.692  13.109
51699W        W24025   3.874  41.392  14.054
51700W        W24026  23.872  11.091  11.940
51701W        W24027  40.134  27.403  12.887
51702W        W24028  18.669  21.954   4.758
51703W        W24029   6.876  34.793  10.378
51704W        W24030  35.271  43.463  11.876
51705W        W24031  31.674  23.422   3.669
51706W        W24032  15.251  21.011  14.854
51707W        W24033   5.921   7.958   0.836
51708W        W24034   6.546  35.375   3.035
51709W        W24035  21.749  30.830   4.244
51710W        W24036   4.883  30.431   1.959
51711W        W24037  35.434  19.166   4.666
51712W        W24038  13.135   9.161   0.389
51713W        W24039  38.972   7.029   4.393
51714W        W24040  18.116  23.455   4.134
51715W        W24041   3.044  33.416   4.149
51716W        W24042  20.599  35.496  10.881
51717W        W24043  23.702  34.764  13.898
51718W        W24044  12.221   8.796   2.833
51719W        W24045  33.779  12.888  13.783
51720W        W24046  16.812   6.753   1.907
51721W        W24047  29.280  35.311   1.355
51722W        W24048  32.667   8.258  11.515
51723W        W24049  35.099  26.872   3.553
51724W        W24050  42.434  13.121   3.510
51725W        W24051  11.096  27.765   1.805
51726W        W24052  35.636   2.837   1.793
51727W        W24053  12.432  41.552   1.812
51728W        W24054  20.467  13.668   0.646
51729W        W24055  22.647  26.735  10.250
51730W        W24056  26.852  28.180   5.411
51731W        W24057  39.655   5.808  12.556
51732W        W24058   7.215  27.645   0.482
51733W        W24059  35.471  10.737   5.448
51734W        W24060  32.684  19.578  12.519
51735W        W24061  28.977  11.434   3.320
51736W        W24062  36.072   4.243  11.974
51737W        W24063  12.258  32.017   1.846
51738W        W24064  23.540   0.355  14.475
51739W        W24065  22.879   7.197   4.255
51740W        W24066   2.413  38.067   3.992
51741W        W24067  16.065   1.301   2.888
51742W        W24068  26.270  44.966  11.128
51743W        W24069   0.942  25.740   3.810
51744W        W24070  23.588  40.319   0.083
51745W        W24071  42.964  15.792   1.524
51746W        W24072   0.782  14.578  12.809
51747W        W24073  11.691  30.038  12.866
51748W        W24074   1.434  33.110   0.355
51749W        W24075  21.531  30.943   0.030
51750W        W24076  12.355  44.066   1.666
51751W        W24077  11.712  36.679  14.529
51752W        W24078  13.650  11.558  11.615
51753W        W24079  32.868   6.837  14.480
51754W        W24080  40.444  26.180  11.719
51755W        W24081   2.883   6.204   2.031
51756W        W24082  10.920  42.793  11.172
51757W        W24083  34.361  19.290  14.447
51758W        W24084  40.395   3.690  14.847
51759W        W24085  25.458  26.967  14.620
51760W        W24086   1.183  11.256   5.099
51761W        W24087   1.724  38.401  13.417
51762W        W24088  22.453  43.674  12.942
51763W        W24089   3.030  22.728  12.871
51764W        W24090   0.425  19.791   0.956
51765W        W24091  31.053  11.425  14.921
51766W        W24092  27.981  44.711   2.397
51767W        W24093   5.840  21.829   4.222
51768W        W24094   8.708   6.819   3.114
51769W        W24095   9.551  25.227   0.139
51770W        W24096  24.063   3.553   3.696
51771W        W24097  19.105  18.435   3.648
51772W        W24098  39.888   4.367   0.871
51773W        W24099  42.454   8.223  12.838
51774W        W24100  20.057  42.718  14.480
51775W        W24101  24.636  38.778   2.963
51776W        W24102  20.191  14.022   1.473
51777W        W24103   8.842  26.934  10.393
51778W        W24104  33.099  40.977  13.503
51779W        W24105   7.580  16.062  12.409
51780W        W24106  44.516  19.166   1.540
51781W        W24107  12.837   3.830  13.672
51782W        W24108  33.503  22.184  10.885
51783W        W24109   5.424  12.591   4.632
51784W        W24110  33.490  22.255  11.421
51785W        W24111   8.705  15.885   3.640
51786W        W24112   3.095  20.752  14.049
51787W        W24113  26.899   5.415   2.657
51788W        W24114  27.086  28.695   0.427
51789W        W24115  37.957   6.825   1.750
51790W        W24116  29.104  24.735  13.947
51791W        W24117  17.360   8.620  14.729
51792W        W24118  22.575  44.713   0.342
51793W        W24119   2.866  36.713   3.092
51794W        W24120  25.248  26.122  12.055
51795W        W24121  40.882  27.991  11.422
51796W        W24122  10.268  28.967  13.319
51797W        W24123  44.829  29.566   4.649
51798W        W24124  43.808   1.886  11.726
51799W        W24125   0.043  32.550  11.276
51800W        W24126  18.123  41.003   3.731
51801W        W24127  18.605   9.076  11.685
51802W        W24128  14.594  30.183   3.133
51803W        W24129  20.795  40.999  13.534
51804W        W24130   5.578   9.831   4.088
51805W        W24131  10.592  14.044  12.891
51806W        W24132  11.715  32.904   0.020
51807W        W24133   8.743  11.596  14.887
51808W        W24134  11.280  30.584  11.612
51809W        W24135  14.138  33.075   3.279
51810W        W24136  40.276  23.819   3.462
51811W        W24137  17.053  38.595   3.341
51812W        W24138   8.389  23.160  10.653
51813W        W24139  27.962  44.882   2.900
51814W        W24140  13.179  41.078   0.732
51815W        W24141   0.471  36.527   1.336
51816W        W24142  43.742  18.600  14.296
51817W        W24143  11.601   3.442   2.295
51818W        W24144   5.459  21.676  14.681
51819W        W24145  25.010  12.332   4.688
51820W        W24146  41.879  41.872   2.594
51821W        W24147  15.568  14.283  12.120
51822W        W24148  44.311   9.360   3.836
51823W        W24149  23.330  32.835   3.115
51824W        W24150   8.888  24.129  12.117
51825W        W24151  30.670  21.668   1.421
51826W        W24152  15.539  12.840  12.953
51827W        W24153   6.790   7.837   3.620
51828W        W24154  11.324  33.190   2.844
51829W        W24155  44.105  21.164   4.166
51830W        W24156   7.602  43.863   3.105
51831W        W24157  37.591  39.048  11.051
51832W        W24158  43.323  28.534  14.336
51833W        W24159  34.130  42.345   4.459
51834W        W24160  25.097  39.712  12.274
51835W        W24161  10.236  29.850   1.322
51836W        W24162  37.817  36.756   4.163
51837W        W24163  17.188   1.056   4.586
51838W        W24164  17.167  20.758  14.724
51839W        W24165   9.824  27.173  13.435
51840W        W24166  32.530  20.731   0.954
51841W        W24167  13.629  36.742   2.766
51842W        W24168  17.015  40.227   5.037
51843W        W24169  27.671  38.804  13.810
51844W        W24170  19.258  26.977  14.670
51845W        W24171  35.077  31.893   1.730
51846W        W24172  38.874  17.414   3.781
51847W        W24173  25.564  18.198  13.854
51848W        W24174  31.008  30.441  12.694
51849W        W24175  17.615   3.259   3.714
51850W        W24176  16.263  17.568   3.089
51851W        W24177  23.736  15.888   0.866
51852W        W24178  30.137  36.564  14.353
51853W        W24179  39.018   6.863   0.376
51854W        W24180  44.320  36.547   2.633
51855W        W24181  29.218  19.186  10.585
51856W        W24182  22.004  16.160  10.322
51857W        W24183  44.898  12.126  14.518
51858W        W24184  37.465  29.654   4.466
51859W        W24185   4.318  26.654  13.405
51860W        W24186   5.637  13.775   3.378
51861W        W24187   5.941  13.797  12.446
51862W        W24188   5.688  23.695   4.049
51863W        W24189  17.377   8.308  11.976
51864W        W24190  37.838  43.830   4.357
51865W        W24191  24.698   9.732   0.061
51866W        W24192   4.453  18.226  12.438
51867W        W24193  30.899  10.445  11.056
51868W        W24194  16.521  30.442  12.546
51869W        W24195  25.060  20.507   2.830
51870W        W24196  31.435  19.204  11.968
51871W        W24197  15.197  38.615  12.543
51872W        W24198   7.963  31.568   0.111
51873W        W24199  38.483  25.255   1.386
51874W        W24200  35.899  24.214  13.781
51875W        W24201  33.466   3.712  13.331
51876W        W24202  39.444  24.987  12.424
51877W        W24203   5.683   6.740   4.747
51878W        W24204  23.626   9.085  12.897
51879W        W24205  25.604  20.709  10.047
51880W        W24206  10.862  10.574   4.640
51881W        W24207  22.972  16.604  11.675
51882W        W24208  28.720  23.628   1.894
51883W        W24209   7.202  24.123   4.669
51884W        W24210  36.312   4.856   2.280
51885W        W24211   8.724  15.201   4.132
51886W        W24212  17.669  29.502   1.022
51887W        W24213  41.274   7.173   1.361
51888W        W24214   0.402  29.055  12.423
51889W        W24215   6.809   8.270   3.885
51890W        W24216   7.159  10.384  11.003
51891W        W24217   9.721  17.323  12.546
51892W        W24218  22.323  22.503   2.307
51893W        W24219  35.627  18.840  13.950
51894W        W24220  33.668  24.983   3.280
51895W        W24221  23.739   5.053  14.455
51896W        W24222  38.840   7.373   1.261
51897W        W24223  11.723   6.912  12.519
51898W        W24224  27.707   0.643  10.942
51899W        W24225  38.737  42.434  10.817
51900W        W24226  36.357  28.609  14.423
51901W        W24227  27.378  28.570  14.666
51902W        W24228  24.939  31.665   1.928
51903W        W24229  43.297  26.509  14.882
51904W        W24230   3.534   3.009   1.211
51905W        W24231  13.701   8.349   4.374
51906W        W24232   5.175  44.298   3.266
51907W        W24233  29.061  34.299   0.168
51908W        W24234  11.394  39.041   0.369
51909W        W24235   8.240   8.303   3.170
51910W        W24236   2.670  40.732   2.546
51911W        W24237   4.494  44.873   4.603
51912W        W24238   1.023  35.808  11.503
51913W        W24239  11.589  40.379  13.932
51914W        W24240  27.670  32.938   4.021
51915W        W24241  22.912  22.673  11.998
51916W        W24242  32.924  34.165   0.530
51917W        W24243   0.040  25.194   0.750
51918W        W24244  37.562   6.727   3.668
51919W        W24245  44.242  13.999  13.032
51920W        W24246  35.043  43.477   1.824
51921W        W24247  39.311  36.637   1.248
51922W        W24248  20.242   0.401   0.410
51923W        W24249  21.344  20.616   0.443
51924W        W24250  39.202  41.305  10.770
51925W        W24251  17.622  26.657   4.193
51926W        W24252  28.401  12.188  13.362
51927W        W24253  37.905  15.800   2.665
51928W        W24254  27.631  32.584   3.147
51929W        W24255  32.599  18.946   3.108
51930W        W24256  28.557  24.719  12.042
51931W        W24257  31.561  23.607  14.241
51932W        W24258  43.301  37.926   2.353
51933W        W24259  43.951  27.631  13.390
51934W        W24260   8.896  31.090   3.220
51935W        W24261  24.042  39.585  10.687
51936W        W24262  40.047  10.650   4.276
51937W        W24263  21.282   1.309  13.396
51938W        W24264  25.624  19.244   0.290
51939W        W24265  33.411  44.345  12.511
51940W        W24266   8.748  18.586   0.685
51941W        W24267  10.702  13.069   4.739
51942W        W24268  35.032  19.190   3.127
51943W        W24269   7.331  32.467  14.527
51944W        W24270  16.181  26.122  11.900
51945W        W24271  40.833  19.690  12.174
51946W        W24272  13.569   3.096  12.426
51947W        W24273   6.622  40.033   1.176
51948W        W24274  36.976  34.609   4.545
51949W        W24275  27.151   5.818   2.410
51950W        W24276  26.105   3.773   1.531
51951W        W24277  37.801  35.610  11.199
51952W        W24278  40.298  28.976  14.366
51953W        W24279  30.196  43.963   2.345
51954W        W24280  22.073  34.589   2.608
51955W        W24281  17.418   1.740  11.984
51956W        W24282  19.775  20.685   2.352
51957W        W24283  17.665  23.356  13.569
51958W        W24284  23.567  17.153   4.810
51959W        W24285   3.833   2.811  11.514
51960W        W24286  38.498  38.927  12.039
51961W        W24287   1.363  25.520  13.918
51962W        W24288   7.995  20.175   1.003
51963W        W24289   0.074  11.844  11.141
51964W        W24290  40.508  22.461  10.845
51965W        W24291   2.655   5.992   0.983
51966W        W24292  27.019  18.673  14.806
51967W        W24293  15.598   9.820   3.873
51968W        W24294  17.154  15.274  11.234
51969W        W24295  27.368   7.392   0.556
51970W        W24296  36.635  37.582   4.132
51971W        W24297   2.660  15.568  10.149
51972W        W24298   3.083   4.885  12.359
51973W        W24299  30.149  17.984   2.393
51974W        W24300   9.145  35.320  14.128
51975W        W24301  19.707  12.521   1.740
51976W        W24302  24.171  12.000   1.852
51977W        W24303  35.313  34.408   0.919
51978W        W24304  18.074  14.787  14.440
51979W        W24305  10.337  36.032  12.903
51980W        W24306  19.066  19.396   3.608
51981W        W24307  12.634  31.715  11.164
51982W        W24308  39.836  39.010   4.517
51983W        W24309  24.181  33.903   4.087
51984W        W24310  25.528  25.975  14.464
51985W        W24311  27.055  12.724   3.731
51986W        W24312  15.973   8.232  11.952
51987W        W24313  38.688   7.722   2.198
51988W        W24314   6.986  29.889  13.452
51989W        W24315  20.667  26.202   4.230
51990W        W24316  13.569   2.216  14.877
51991W        W24317   8.388  30.900   4.114
51992W        W24318  34.717  17.620   4.132
51993W        W24319  17.134  34.488   4.364
51994W        W24320  36.066  38.687   3.418
51995W        W24321  10.805  43.983   3.111
51996W        W24322  36.424  35.316  13.983
51997W        W24323  38.132  28.197   4.668
51998W        W24324  37.321   1.422  14.193
51999W        W24325  43.457  32.535   1.982
52000W        W24326  44.360  28.179  11.581
52001W        W24327  40.542  24.132  13.559
52002W        W24328   7.733  17.605  11.627
52003W        W24329   8.768  36.077  12.899
52004W        W24330  11.260   3.139  11.393
52005W        W24331  21.858   8.079   0.261
52006W        W24332  31.970  36.466  14.903
52007W        W24333   6.540  24.485  10.743
52008W        W24334   8.636  10.313  14.313
52009W        W24335   5.703  20.309   0.875
52010W        W24336  42.967  21.097   2.833
52011W        W24337  10.183  16.370  14.944
52012W        W24338  13.748   5.873   0.358
52013W        W24339  10.179  33.639   1.427
52014W        W24340  26.914  18.889  11.550
52015W        W24341  37.524  44.403  11.691
52016W        W24342   0.383  33.051  10.721
52017W        W24343  37.788  29.488   4.080
52018W        W24344  39.412   1.791  11.963
52019W        W24345   3.559  36.356   0.190
52020W        W24346  38.946   6.151  11.833
52021W        W24347  34.026   7.660  12.112
52022W        W24348  36.191  23.044   1.219
52023W        W24349   5.327  10.124  12.816
52024W        W24350   3.034  35.091   4.543
52025W        W24351  34.658  24.036   0.661
52026W        W24352  30.375   4.762   2.105
52027W        W24353  34.194  28.690   1.848
52028W        W24354  29.665  25.425   3.937
52029W        W24355  28.189  41.710  13.002
52030W        W24356   7.303   3.712  11.116
52031W        W24357  22.843   3.932   2.010
52032W        W24358   6.568  10.730  14.022
52033W        W24359   1.733  36.098   2.413
52034W        W24360  21.091  39.817   3.369
52035W        W24361  29.330  36.322  10.482
52036W        W24362  17.305  10.666   2.388
52037W        W24363   4.191  21.738  14.429
52038W        W24364  28.921   4.478  11.287
52039W        W24365  16.788  11.112   4.530
52040W        W24366  31.185  16.234   3.204
52041W        W24367  15.842  43.773  11.933
52042W        W24368  34.443  18.079   4.155
52043W        W24369  30.586   1.885   3.712
52044W        W24370  25.570  17.454  10.988
52045W        W24371  22.999  32.829  11.165
52046W        W24372  19.587   9.288   4.436
52047W        W24373  23.498  15.612  14.768
52048W        W24374  36.890  35.566   0.749
52049W        W24375  41.662  43.392  10.891
52050W        W24376  28.220   0.792  10.922
52051W        W24377  12.133  38.108  12.222
52052W        W24378  31.936  31.041  10.647
52053W        W24379  44.954  39.739   1.764
52054W        W24380  11.736   2.682   4.292
52055W        W24381  27.164  14.697  13.446
52056W        W24382  44.300  25.152  11.582
52057W        W24383  12.129   1.349   1.751
52058W        W24384  33.186  27.567   3.708
52059W        W24385  38.057  26.466  13.930
52060W        W24386  36.594   6.952   4.031
52061W        W24387  30.070  10.526   2.200
52062W        W24388  33.433  36.523   1.699
52063W        W24389   7.117  12.823  11.093
52064W        W24390   1.177  27.925   4.230
52065W        W24391  35.984  20.689   4.853
52066W        W24392  37.924  29.651   1.684
52067W        W24393   7.823  36.118  11.201
52068W        W24394   2.791  27.743   4.049
52069W        W24395  15.866   1.968   0.880
52070W        W24396  28.231  20.165   0.932
52071W        W24397   5.279  32.657   0.786
52072W        W24398  36.000  35.463   5.023
52073W        W24399  24.330  33.557   1.057
52074W        W24400  12.746  11.066  11.570
52075W        W24401   4.317  14.168  14.561
52076W        W24402   2.574  44.220   0.246
52077W        W24403  39.054  35.524  10.770
52078W        W24404  34.971  22.071  11.969
52079W        W24405   9.233   2.511   2.347
52080W        W24406   5.833  10.819  14.757
52081W        W24407  39.632  37.470  11.085
52082W        W24408  36.009  26.442   2.228
52083W        W24409  37.360   1.295   3.820
52084W        W24410  44.545  43.611  14.469
52085W        W24411  21.044  38.978   1.647
52086W        W24412   4.771  17.738  12.413
52087W        W24413  32.642  16.459  13.895
52088W        W24414  15.607   7.376  13.386
52089W        W24415  44.384  18.107  11.117
52090W        W24416   7.977  22.238   1.965
52091W        W24417  36.951  34.031  14.404
52092W        W24418  41.470  31.069  11.268
52093W        W24419   3.416  27.279   3.589
52094W        W24420   1.107   1.483  10.757
52095W        W24421  29.558  22.160   1.706
52096W        W24422  19.760   8.715   4.455
52097W        W24423  33.934  19.550   2.138
52098W        W24424  25.751  15.303   4.647
52099W        W24425  43.238  11.208   3.651
52100W        W24426   4.945  39.943   2.109
52101W        W24427  38.431  29.019  10.567
52102W        W24428  16.761   0.754   0.997
52103W        W24429  13.680   8.196  14.046
52104W        W24430  44.999  20.975   1.190
52105W        W24431  42.233   4.720  14.937
52106W        W24432  42.815   6.937   4.183
52107W        W24433  18.642  20.569  11.069
52108W        W24434  12.267  15.393   4.687
52109W        W24435   3.187  11.104  10.235
52110W        W24436  11.146  42.736  14.808
52111W        W24437  26.714  29.045  12.071
52112W        W24438   7.912  40.790   4.766
52113W        W24439   0.924  22.754   3.439
52114W        W24440  25.926   8.373   1.278
52115W        W24441  10.350  26.789   3.634
52116W        W24442   4.988   1.096  12.687
52117W        W24443  23.365  17.355   2.696
52118W        W24444  27.879  26.517  12.392
52119W        W24445  24.155  35.962   0.764
52120W        W24446  30.916  41.321   3.714
52121W        W24447  21.098  30.061   4.544
52122W        W24448   3.907  24.138   1.602
52123W        W24449  22.512   0.884  12.957
52124W        W24450  27.200  31.954   1.736
52125W        W24451  24.173  26.543  10.703
52126W        W24452  10.303  44.570   3.234
52127W        W24453  16.887   6.772  11.034
52128W        W24454  10.626   1.781  10.762
52129W        W24455  25.946   8.990  14.678
52130W        W24456   3.037  27.462   2.309
52131W        W24457  27.747   4.885   0.825
52132W        W24458  11.216  40.039  14.331
52133W        W24459  28.700   1.939  13.324
52134W        W24460   8.844  24.601  11.358
52135W        W24461  33.988   1.693   2.668
52136W        W24462  21.701  16.639   0.321
52137W        W24463  30.480   4.310   2.818
52138W        W24464  34.466  15.085  14.836
52139W        W24465  31.420   1.161   2.693
52140W        W24466  11.206  35.432  14.422
52141W        W24467  22.544  33.052  12.946
52142W        W24468  39.959  42.389   2.991
52143W        W24469  42.531  43.591  10.823
52144W        W24470  30.038  39.469   4.388
52145W        W24471  16.238  30.611   2.236
52146W        W24472  35.614  34.434   3.743
52147W        W24473  34.445  25.852  11.054
52148W        W24474  26.983  41.522   0.975
52149W        W24475  34.515  31.830  11.654
52150W        W24476  42.264  30.723   2.364
52151W        W24477  22.598  21.976   2.092
52152W        W24478  20.529   3.796  13.658
52153W        W24479  26.213  33.422   0.280
52154W        W24480  40.427  20.309   2.292
52155W        W24481  12.096  10.246   2.087
52156W        W24482  21.616  27.409  12.510
52157W        W24483  16.751  41.903   0.289
52158W        W24484  32.988  28.626   2.341
52159W        W24485  41.973   3.192  13.833
52160W        W24486  13.080   3.456   3.200
52161W        W24487   5.856  38.603  11.522
52162W        W24488  27.409  39.873  12.042
52163W        W24489   1.270   1.173  11.139
52164W        W24490  17.200  16.282  12.086
52165W        W24491  36.466  22.464   2.652
52166W        W24492  32.917   7.093   4.285
52167W        W24493  15.362  22.461  14.913
52168W        W24494  33.608  29.014   1.403
52169W        W24495  31.504  34.885  11.426
52170W        W24496  26.743  13.585   2.711
52171W        W24497  21.472   9.430  11.149
52172W        W24498  20.670  26.466  13.411
52173W        W24499  16.825  28.098  14.499
52174W        W24500  28.439   5.674  14.807
52175W        W24501   2.546  31.560   0.449
52176W        W24502  13.900  32.572  11.490
52177W        W24503  28.657  28.459   3.243
52178W        W24504  12.373  23.380  11.605
52179W        W24505  14.730   5.246   1.197
52180W        W24506   6.165  43.025  13.046
52181W        W24507  36.560  17.771   4.165
52182W        W24508  33.852  32.820   0.500
52183W        W24509  34.431  44.389  11.414
52184W        W24510  22.574  40.404  11.971
52185W        W24511  40.942  32.335   0.663
52186W        W24512  44.289   0.306   4.607
52187W        W24513  11.637  27.099  12.417
52188W        W24514  44.382   5.465  13.941
52189W        W24515  29.050  24.475   3.117
52190W        W24516   4.867  23.841  13.495
52191W        W24517  37.991  25.804   0.773
52192W        W24518  26.197  29.888   4.172
52193W        W24519  36.823  26.700  14.413
52194W        W24520  38.648  41.666  14.940
52195W        W24521  31.129   3.332   1.225
52196W        W24522   9.299   6.768  14.882
52197W        W24523  40.994  44.793   2.441
52198W        W24524  37.236   9.111   2.267
52199W        W24525  39.449  38.182   4.142
52200W        W24526   4.626  22.448   2.774
52201W        W24527  40.521  13.721  10.784
52202W        W24528  25.168  17.265  13.439
52203W        W24529   5.971  11.431   3.301
52204W        W24530   2.975   6.919  10.716
52205W        W24531   7.740   7.589   3.270
52206W        W24532  43.294   3.970   0.404
52207W        W24533  33.375  17.665  10.631
52208W        W24534   3.386  18.321  14.060
52209W        W24535  27.237  11.129  13.079
52210W        W24536  24.095   8.449   2.687
52211W        W24537  15.127   0.630  13.504
52212W        W24538   6.274  44.967   0.018
52213W        W24539  22.609  27.896  11.573
52214W        W24540  22.960  25.069  10.933
52215W        W24541  34.578  34.656   1.991
52216W        W24542  44.218   1.314   1.741
52217W        W24543  23.216  13.536   2.250
52218W        W24544  21.457  19.149   1.124
52219W        W24545  41.585  16.720  12.828
52220W        W24546  17.024  15.349  11.708
52221W        W24547  12.759  36.821   2.821
52222W        W24548   1.772  30.180  10.678
52223W        W24549  10.710  42.305  11.604
52224W        W24550   4.838   1.360   3.981
52225W        W24551  32.546   4.700  14.452
52226W        W24552  10.316   1.439   1.621
52227W        W24553  40.777  29.645  13.935
52228W        W24554  43.935   2.831   3.934
52229W        W24555  37.859  34.846   4.476
52230W        W24556   3.345   5.403  13.068
52231W        W24557  29.044   4.384  14.793
52232W        W24558  32.149  14.185   4.598
52233W        W24559   5.459   2.689  13.336
52234W        W24560   7.805  26.467   1.331
52235W        W24561  19.964  17.067   1.232
52236W        W24562  28.028  11.267  10.701
52237W        W24563  25.709  18.789   3.078
52238W        W24564  33.909  41.369   0.152
52239W        W24565  18.862  41.779   3.132
52240W        W24566   7.178   5.328  14.182
52241W        W24567  42.428   6.163  13.125
52242W        W24568   4.959   4.312  13.462
52243W        W24569   7.552  26.592   4.981
52244W        W24570  44.541  10.733   4.130
52245W        W24571  37.136  26.247   0.812
52246W        W24572   0.220  17.792   3.157
52247W        W24573  42.758  22.453   4.325
52248W        W24574  17.262  35.604  13.452
52249W        W24575   0.633   1.244   1.137
52250W        W24576  27.997   0.062   0.073
52251W        W24577   6.243   4.676  11.427
52252W        W24578  13.132   6.413   0.025
52253W        W24579  37.429   4.845   4.055
52254W        W24580  30.382  39.473   1.853
52255W        W24581  42.729  37.953  12.498
52256W        W24582  17.117  18.575   3.377
52257W        W24583  41.342  25.420   4.121
52258W        W24584  27.267  20.631  11.593
52259W        W24585  15.247   1.024  13.813
52260W        W24586  20.085  10.811  12.079
52261W        W24587  43.954  14.281  14.372
52262W        W24588   2.821  12.389   3.273
52263W        W24589  19.177  40.804   0.017
52264W        W24590  35.139  32.530   2.784
52265W        W24591  40.339  33.331  10.274
52266W        W24592  24.655  18.985  14.316
52267W        W24593  10.394  34.992   0.752
52268W        W24594   0.440  18.611  14.375
52269W        W24595   9.356  22.751  11.975
52270W        W24596  25.205  29.932  10.533
52271W        W24597  37.955  39.574  11.645
52272W        W24598  19.273  43.139  12.791
52273W        W24599   7.125  40.431  12.008
52274W        W24600  22.742  31.437   2.364
52275W        W24601  37.261  16.784   2.885
52276W        W24602  31.441  10.866  12.662
52277W        W24603  36.795  31.717  13.334
52278W        W24604   1.669   5.573  12.340
52279W        W24605  18.703  43.731   0.326
52280W        W24606   3.544  36.803   3.581
52281W        W24607   0.542   1.715  11.555
52282W        W24608  30.217  23.153  12.781
52283W        W24609  16.841  20.452   1.474
52284W        W24610   5.744  13.152  11.199
52285W        W24611  18.495   2.387  11.505
52286W        W24612  13.644   4.274   3.660
52287W        W24613  43.491  13.596  14.380
52288W        W24614  13.352  37.906   2.783
52289W        W24615  27.982  26.569  13.720
52290W        W24616  29.482  27.159  12.863
52291W        W24617  38.850  44.025  14.031
52292W        W24618  24.278  30.878   4.542
52293W        W24619   3.497   2.902  10.327
52294W        W24620  33.050  35.150   5.228
52295W        W24621  41.301  28.256   1.448
52296W        W24622  15.093  28.193  12.430
52297W        W24623   7.159  39.298  10.577
52298W        W24624   0.173  40.315   4.510
52299W        W24625  35.552  44.727   3.322
52300W        W24626   2.187  37.035   2.935
52301W        W24627  35.105   9.144  12.932
52302W        W24628  12.885  16.745  11.125
52303W        W24629  26.583   9.239  11.716
52304W        W24630  39.922  30.358  14.673
52305W        W24631  12.159   2.681  12.455
52306W        W24632  11.885  29.180  14.409
52307W        W24633  32.650  33.523   3.835
52308W        W24634   3.331  35.888   1.702
52309W        W24635  37.782  25.124  12.556
52310W        W24636  34.523  14.029   4.070
52311W        W24637  10.385  43.096  13.522
52312W        W24638  41.721   2.426   4.582
52313W        W24639   0.406  23.003  11.430
52314W        W24640  10.184  26.291   3.586
52315W        W24641  11.286  37.781   1.829
52316W        W24642  18.547  18.195  10.696
52317W        W24643  27.887  34.107   0.704
52318W        W24644   1.651   7.462   1.458
52319W        W24645  44.553  30.452  12.473
52320W        W24646   0.491  10.678   4.161
52321W        W24647  31.047   7.124   2.726
52322W        W24648  22.140   0.691   4.177
52323W        W24649   2.733   4.778   5.186
52324W        W24650  22.453  28.620   4.842
52325W        W24651  25.917  19.375   4.662
52326W        W24652  11.776  20.160   1.870
52327W        W24653   8.917   6.100  13.469
52328W        W24654   7.363  24.996   3.156
52329W        W24655  28.501  24.176  11.677
52330W        W24656   7.986  22.714   3.280
52331W        W24657   0.812  18.503   3.370
52332W        W24658  20.239  39.519   2.863
52333W        W24659   2.958   8.926  11.454
52334W        W24660  39.445  18.088  11.667
52335W        W24661   4.496  22.343   0.432
52336W        W24662   6.687   9.340  13.460
52337W        W24663   9.918   8.980  11.054
52338W        W24664  36.020  13.585  12.454
52339W        W24665  34.974  30.536  12.080
52340W        W24666   0.286  31.645   1.639
52341W        W24667  22.707  24.767   1.911
52342W        W24668  39.136  11.667   1.746
52343W        W24669  29.898   6.341   1.677
52344W        W24670  21.216  37.417  10.224
52345W        W24671  34.050  35.760   5.511
52346W        W24672  18.190  34.824   2.374
52347W        W24673   3.190  16.657   3.288
52348W        W24674   7.826  43.244   1.459
52349W        W24675  13.351   6.779   3.125
52350W        W24676  21.432  37.268   3.688
52351W        W24677  23.176  37.153  12.245
52352W        W24678  16.038   2.171   0.156
52353W        W24679  42.465  17.924  11.682
52354W        W24680  14.267  24.988   4.218
52355W        W24681  19.790  31.520   4.014
52356W        W24682  34.891  42.959   3.840
52357W        W24683  26.449  30.587  13.402
52358W        W24684   0.011  20.525   4.106
52359W        W24685  44.335  31.200   3.302
52360W        W24686  26.268  23.269   0.801
52361W        W24687  37.791  14.598   0.824
52362W        W24688  25.653  44.345   3.149
52363W        W24689  26.640  17.578  12.232
52364W        W24690   9.628  20.996   3.614
52365W        W24691  20.549  16.186   2.663
52366W        W24692   2.334  17.069   1.685
52367W        W24693  14.863  16.658  12.908
52368W        W24694  37.262  20.602  12.506
52369W        W24695   7.749  33.460  13.996
52370W        W24696  15.692  44.022   4.513
52371W        W24697  40.960  40.543  13.559
52372W        W24698  11.841   8.152  11.856
52373W        W24699  30.678  21.704   2.319
52374W        W24700  16.225  14.299  11.487
52375W        W24701   1.307  14.880  14.835
52376W        W24702  17.583  33.499  10.796
52377W        W24703   8.167   8.942  10.696
52378W        W24704  40.911  33.546   1.981
52379W        W24705  42.476  34.551   1.043
52380W        W24706  41.741  10.540   3.838
52381W        W24707   3.613   6.283  12.602
52382W        W24708  39.254  37.989   2.227
52383W        W24709   7.438  18.032  11.641
52384W        W24710  26.873  14.720  11.591
52385W        W24711  25.483  31.728   0.922
52386W        W24712   2.587  21.133   2.850
52387W        W24713  20.090  14.493  14.936
52388W        W24714   3.175  39.774   4.898
52389W        W24715  35.843  19.322  14.403
52390W        W24716  29.043  25.541  13.530
52391W        W24717  39.383  34.115   1.442
52392W        W24718  21.563  32.381  14.363
52393W        W24719  26.764  42.529   2.693
52394W        W24720  17.559  21.348   3.765
52395W        W24721  40.062  43.607  13.077
52396W        W24722  19.662  30.759   0.309
52397W        W24723  36.989  33.620  10.457
52398W        W24724  25.008  40.694   1.228
52399W        W24725  14.711  12.476   0.479
52400W        W24726  15.615  35.071  12.864
52401W        W24727  42.713  31.053  14.834
52402W        W24728   5.428   3.902   4.339
52403W        W24729  41.323  25.006   1.118
52404W        W24730  42.817   4.159  14.261
52405W        W24731   3.624   5.741   4.621
52406W        W24732   8.255  20.738   4.155
52407W        W24733  29.428  18.203  10.766
52408W        W24734   3.567  29.160   0.471
52409W        W24735   0.862  28.750  13.162
52410W        W24736   2.685  29.191   4.230
52411W        W24737   7.858  32.406   2.678
52412W        W24738  38.311  33.007   2.407
52413W        W24739  32.953  44.894   4.048
52414W        W24740  33.224  29.024   1.052
52415W        W24741  30.110  15.749  12.139
52416W        W24742  20.930  19.325  11.653
52417W        W24743   1.995  16.862  11.222
52418W        W24744  30.172   6.477  12.878
52419W        W24745  35.999   4.889   4.318
52420W        W24746  20.667  38.944  12.533
52421W        W24747  39.090  13.179   1.220
52422W        W24748  21.572   3.096   1.388
52423W        W24749   5.345   0.550   1.312
52424W        W24750  34.335  23.790  12.570
52425W        W24751  40.533  37.766   2.691
52426W        W24752  40.003  30.082  11.437
52427W        W24753  41.028  21.841   2.157
52428W        W24754  34.269  28.586  14.434
52429W        W24755  14.656  11.150   2.102
52430W        W24756  29.453   1.724  11.598
52431W        W24757   9.118  28.505   2.164
52432W        W24758  41.547  29.737   2.784
52433W        W24759  27.482  33.975   1.045
52434W        W24760  22.695  20.769   3.391
52435W        W24761  37.976  12.952  14.971
52436W        W24762   4.215  11.748   2.031
52437W        W24763  43.297  42.762   1.852
52438W        W24764  16.871   1.026  11.573
52439W        W24765  17.784  44.654  13.511
52440W        W24766  24.495  27.670  12.530
52441W        W24767  35.807  11.165  14.394
52442W        W24768   9.990  25.732  10.316
52443W        W24769   3.890  42.522  12.426
52444W        W24770  27.806  32.130  10.584
52445W        W24771  39.397  23.397  14.944
52446W        W24772  20.101  34.167  11.065
52447W        W24773  23.998  38.338   3.296
52448W        W24774  20.354  11.317  12.078
52449W        W24775  34.572  24.479   1.298
52450W        W24776  40.764  23.751  11.088
52451W        W24777   4.929  21.170   0.015
52452W        W24778  20.156  20.806  12.405
52453W        W24779  15.832  16.117   4.134
52454W        W24780   3.632  14.404  12.499
52455W        W24781  27.945  37.936  13.953
52456W        W24782   0.145  38.329  14.366
52457W        W24783  31.351  14.158  13.586
52458W        W24784  42.156  24.673   1.304
52459W        W24785  42.523  13.762  11.352
52460W        W24786  11.694  22.918   2.280
52461W        W24787  44.644   2.778  10.669
52462W        W24788  42.812   3.280  14.227
52463W        W24789   7.948  28.558  12.252
52464W        W24790  21.441  33.454   1.740
52465W        W24791  17.237  30.900   3.204
52466W        W24792   8.253   5.750  11.268
52467W        W24793  26.011   2.643   2.837
52468W        W24794  33.985  42.790  11.458
52469W        W24795   9.184  38.591   1.625
52470W        W24796  12.135  23.177   2.662
52471W        W24797  22.291  38.146   1.488
52472W        W24798  38.862  21.085   1.533
52473W        W24799  40.501   8.807   3.151
52474W        W24800   3.988  29.876  11.118
52475W        W24801  15.743  12.212   1.865
52476W        W24802  42.295  41.966   0.782
52477W        W24803  13.131  36.970   1.641
52478W        W24804  37.947  35.134  14.041
52479W        W24805   7.876  19.092   1.374
52480W        W24806  27.010  11.666  12.389
52481W        W24807  17.084  23.176   4.642
52482W        W24808  36.593  36.395   5.225
52483W        W24809  40.429  22.964  10.909
52484W        W24810  43.984  32.954   2.081
52485W        W24811  17.582   7.924  11.414
52486W        W24812  38.686  13.312  13.233
52487W        W24813  19.155  27.700  13.864
52488W        W24814  23.750   5.938  11.126
52489W        W24815  34.318   1.970   2.374
52490W        W24816   4.189  27.036   0.179
52491W        W24817   0.017   2.530  12.580
52492W        W24818  29.378  14.294  10.837
52493W        W24819  36.106  24.045  11.012
52494W        W24820  12.921  39.754  14.406
52495W        W24821  35.841  15.081   3.727
52496W        W24822  20.672  18.059   1.405
52497W        W24823  23.059  23.745   1.218
52498W        W24824  23.236   0.730  12.473
52499W        W24825  39.287   9.249   4.386
52500W        W24826   7.940   9.347   1.067
52501W        W24827  13.013   4.263   0.295
52502W        W24828  35.285  10.835  14.922
52503W        W24829  20.618  33.229  12.904
52504W        W24830  26.785  39.972  11.644
52505W        W24831  27.477  20.508   1.327
52506W        W24832  32.214  26.607  10.808
52507W        W24833  34.536  30.391   4.390
52508W        W24834  12.838  38.829   4.582
52509W        W24835  23.506  42.570  12.896
52510W        W24836  19.986   4.984  14.394
52511W        W24837   5.115  19.991   2.900
52512W        W24838  17.189  16.735  13.055
52513W        W24839  37.139  25.566  12.897
52514W        W24840  33.218  11.734   4.695
52515W        W24841  43.304  26.199  12.606
52516W        W24842   9.618   4.925   4.145
52517W        W24843   0.756   3.163  10.085
52518W        W24844  12.380  31.656   0.388
52519W        W24845  18.513  42.913  13.543
52520W        W24846  29.965  43.481  12.903
52521W        W24847   1.385  33.364   3.199
52522W        W24848  28.076  16.292   2.814
52523W        W24849  22.609   2.923  14.454
52524W        W24850  26.520   6.149   2.452
52525W        W24851  36.581  30.456  11.593
52526W        W24852  43.408  36.956   4.442
52527W        W24853  38.535  11.978   4.135
52528W        W24854  34.397  24.656   3.820
52529W        W24855   2.237   1.167  14.873
52530W        W24856  25.431  21.121  12.026
52531W        W24857  26.747  30.568   3.392
52532W        W24858  13.841  18.341   3.937
52533W        W24859  23.200  34.010   4.461
52534W        W24860  39.416   8.714   2.619
52535W        W24861  30.435  16.646  14.276
52536W        W24862  20.462   5.856  11.196
52537W        W24863  29.072  40.909   1.132
52538W        W24864  30.204  31.001   0.931
52539W        W24865  19.873  31.098  14.984
52540W        W24866  26.846  18.646   3.695
52541W        W24867  13.825   6.873   3.296
52542W        W24868   5.328  28.467   4.479
52543W        W24869  43.532  12.129  11.603
52544W        W24870  14.142  23.152   1.187
52545W        W24871  21.070  13.789  13.871
52546W        W24872   9.067  16.653  10.710
52547W        W24873  23.709  15.358  11.992
52548W        W24874   9.959  14.080  13.366
52549W        W24875  25.243  17.293   4.691
52550W        W24876  39.395  18.639   0.200
52551W        W24877   9.213  40.363   2.907
52552W        W24878   4.344   7.858   0.709
52553W        W24879  44.025  24.417   0.497
52554W        W24880  19.291   7.615   2.647
52555W        W24881   0.362  28.184  10.569
52556W        W24882  33.483  10.431   1.478
52557W        W24883  30.092  25.547   0.966
52558W        W24884  26.726  41.239  11.330
52559W        W24885   5.255  30.649   2.339
52560W        W24886  36.380  21.204   0.868
52561W        W24887   8.646   0.778  10.713
52562W        W24888  39.804  15.076  13.031
52563W        W24889  43.090  17.770   1.882
52564W        W24890  14.991  13.297  14.908
52565W        W24891  16.726  36.472  14.920
52566W        W24892  20.667  37.312  13.444
52567W        W24893   3.349  35.537  14.779
52568W        W24894  22.556  14.247   1.608
52569W        W24895  37.344  42.157   4.654
52570W        W24896  28.109  24.947  14.153
52571W        W24897  35.275  15.862   2.054
52572W        W24898  13.934  37.867  13.088
52573W        W24899  34.117  23.016   1.308
52574W        W24900  30.150  36.496  11.509
52575W        W24901   2.668   8.322   1.582
52576W        W24902  21.097  23.956   3.970
52577W        W24903  15.238   3.848   1.719
52578W        W24904   3.407  20.564   3.360
52579W        W24905   2.813   0.867   0.480
52580W        W24906   3.784  10.183  14.557
52581W        W24907  41.054  25.775   4.884
52582W        W24908  10.119  12.206   4.240
52583W        W24909   8.981  10.398   1.942
52584W        W24910   2.338   3.671  10.582
52585W        W24911  38.435   5.400   4.561
52586W        W24912   9.477  21.249   2.237
52587W        W24913   7.770  42.925  11.189
52588W        W24914  11.296   4.243  14.532
52589W        W24915  44.126  22.067  12.955
52590W        W24916  38.557   3.579  12.914
52591W        W24917  33.026  20.522   4.686
52592W        W24918  43.398  30.574   3.405
52593W        W24919   6.723  36.947   1.340
52594W        W24920   4.470  28.877   0.760
52595W        W24921  35.015  32.848  10.132
52596W        W24922   8.805  22.719   5.065
52597W        W24923  36.811  36.592   4.136
52598W        W24924  12.134  35.913   1.449
52599W        W24925  39.593  31.497   1.286
52600W        W24926  38.857   4.939  12.959
52601W        W24927  28.913  15.636   2.269
52602W        W24928  15.103  30.653  13.827
52603W        W24929  44.185  18.658  12.256
52604W        W24930  40.292  14.297   3.057
52605W        W24931  30.790  40.135  11.641
52606W        W24932  21.026  17.112  13.115
52607W        W24933  26.122  24.075  11.974
52608W        W24934  31.991  41.314   4.721
52609W        W24935  30.926   3.818  14.800
52610W        W24936  23.253  21.019   3.668
52611W        W24937  32.330  37.786   3.693
52612W        W24938   8.818  22.024   1.047
52613W        W24939  14.556   6.483  11.142
52614W        W24940  25.303  44.706  14.820
52615W        W24941  35.146  27.701   3.759
52616W        W24942  12.228  37.559  14.845
52617W        W24943  43.199  19.338  13.352
52618W        W24944  23.216  40.558  11.114
52619W        W24945  11.751  17.744  13.280
52620W        W24946  25.149  10.686   0.261
52621W        W24947  33.570  16.248   4.566
52622W        W24948   1.891  26.888  12.490
52623W        W24949  13.343  41.366  12.565
52624W        W24950  35.564  21.185   4.932
52625W        W24951  27.032  15.793  14.777
52626W        W24952  11.725  20.683   3.257
52627W        W24953  33.491  33.950  14.231
52628W        W24954  18.410  34.808  11.043
52629W        W24955  25.725  10.547   1.735
52630W        W24956  42.902   6.179   2.326
52631W        W24957  43.900  27.537  12.394
52632W        W24958  31.391  24.414   0.425
52633W        W24959   6.905  35.048  13.078
52634W        W24960  14.255  43.213  11.481
52635W        W24961  22.095  34.348   0.368
52636W        W24962   5.208  43.630   4.925
52637W        W24963   5.927  23.914  11.217
52638W        W24964  10.527  38.530  12.639
52639W        W24965  40.048  14.604  11.411
52640W        W24966  29.939  26.747  11.176
52641W        W24967  22.590  43.695  13.793
52642W        W24968  19.485  19.651   2.875
52643W        W24969  21.132   9.566   3.502
52644W        W24970  38.370  29.422  13.864
52645W        W24971  29.235  28.220   1.890
52646W        W24972  42.765  11.592   2.826
52647W        W24973  37.882  18.775  11.843
52648W        W24974  36.210  27.489  11.178
52649W        W24975  19.057  39.539  12.143
52650W        W24976  16.061  11.162   2.270
52651W        W24977  21.184   2.307   3.393
52652W        W24978  11.747  22.285   1.048
52653W        W24979  11.541  20.765  14.712
52654W        W24980   1.372  26.061  11.151
52655W        W24981  11.621  34.844  14.828
52656W        W24982   6.174  29.615   1.282
52657W        W24983   7.845  20.810   0.004
52658W        W24984  26.457  25.134   3.697
52659W        W24985  13.700  15.260   3.142
52660W        W24986  31.957  11.886  11.932
52661W        W24987   4.514   1.758  12.014
52662W        W24988  18.030  20.791  12.961
52663W        W24989  42.308  28.218   4.259
52664W        W24990  31.465  43.925  11.630
52665W        W24991  28.485  22.000   1.274
52666W        W24992   4.418  19.218  11.564
52667W        W24993  38.235  28.001  10.954
52668W        W24994  39.033  37.602  14.822
52669W        W24995  10.341  14.126   4.600
52670W        W24996  42.505  19.346   1.299
52671W        W24997  14.220  39.146  13.431
52672W        W24998  17.702   4.009   2.333
52673W        W24999  14.714  16.688  13.466
52674W        W25000   2.501  32.016  14.915
52675W        W25001   0.444  23.774  11.079
52676W        W25002  41.985  32.688  12.164
52677W        W25003  34.401  29.464   4.642
52678W        W25004  42.738   0.926  12.855
52679W        W25005   6.295  18.137  10.677
52680W        W25006  35.900   9.449  14.777
52681W        W25007  18.754   8.325   2.759
52682W        W25008   6.654  40.952  11.128
52683W        W25009   3.058   5.891   0.561
52684W        W25010  12.485  27.826  10.276
52685W        W25011  30.027  25.086   0.274
52686W        W25012  36.015  31.589  12.038
52687W        W25013  39.698  37.125  10.657
52688W        W25014  33.827   8.659  11.551
52689W        W25015   3.851  15.235  13.355
52690W        W25016   9.821  29.585  11.644
52691W        W25017  26.245   7.894  11.900
52692W        W25018  11.891   7.927  14.511
52693W        W25019  35.676   4.018  14.843
52694W        W25020  12.240   5.238  12.666
52695W        W25021  25.992  23.189   0.341
52696W        W25022  42.019  39.917   1.345
52697W        W25023  17.609  37.920   1.259
52698W        W25024  19.718   7.915   2.825
52699W        W25025  20.496  20.630  11.494
52700W        W25026  17.609  42.465  13.408
52701W        W25027  25.670  41.937   1.333
52702W        W25028   3.634  33.654  13.875
52703W        W25029  14.771  42.970  13.408
52704W        W25030  37.981  16.101   9.967
52705W        W25031  43.700  43.957   2.372
52706W        W25032  30.630  37.589   2.652
52707W        W25033  17.791  29.494  12.164
52708W        W25034   2.944  31.606   1.716
52709W        W25035  41.392  11.121  12.704
52710W        W25036  16.043  11.725   4.247
52711W        W25037  23.424   1.969  11.331
52712W        W25038   6.022  21.117  14.946
52713W        W25039  42.386  44.281   3.214
52714W        W25040  25.027   6.864   4.041
52715W        W25041  16.079  33.085   1.445
52716W        W25042  42.885  26.393  13.993
52717W        W25043  35.950  43.980  10.498
52718W        W25044  27.598  23.407  11.126
52719W        W25045  26.558  40.510  10.897
52720W        W25046   9.968  24.852  13.217
52721W        W25047  22.086  33.382  13.871
52722W        W25048  29.153   6.312  12.839
52723W        W25049   1.168  13.312  13.443
52724W        W25050  30.686  43.299   3.381
52725W        W25051  14.193  19.246   3.669
52726W        W25052   4.714  29.889  14.806
52727W        W25053  37.784  22.733  14.347
52728W        W25054   7.791  33.326   3.645
52729W        W25055  29.719  12.802   3.793
52730W        W25056  25.974  30.338   4.076
52731W        W25057  29.028  38.779  10.901
52732W        W25058  31.344  22.629  13.938
52733W        W25059  37.455  44.493   2.368
52734W        W25060  33.809  11.242   1.758
52735W        W25061  31.030  27.964   4.402
52736W        W25062  20.405   5.452   1.657
52737W        W25063  36.871   9.324   2.564
52738W        W25064  36.007   9.828  12.057
52739W        W25065  19.606  32.388   3.431
52740W        W25066  12.559  28.695   1.000
52741W        W25067   7.443  40.487   2.949
52742W        W25068  25.937  38.377   1.228
52743W        W25069  16.655  41.767   3.612
52744W        W25070  13.018  32.323  12.579
52745W        W25071  36.948   4.683  12.915
52746W        W25072  25.591  23.540   1.048
52747W        W25073  18.742   6.943   4.652
52748W        W25074   8.240  38.318   2.485
52749W        W25075  21.699  13.025   2.744
52750W        W25076  23.305  17.188  13.250
52751W        W25077  33.767  35.490  14.864
52752W        W25078  38.968   8.082   3.144
52753W        W25079  32.331   5.286   4.087
52754W        W25080  43.414  37.078   0.875
52755W        W25081  44.576  10.288   2.770
52756W        W25082  27.303  13.240   4.553
52757W        W25083   7.557   0.764   5.010
52758W        W25084  25.001   2.325   3.331
52759W        W25085  38.477   9.163   4.364
52760W        W25086  38.929  31.068   1.852
52761W        W25087   6.653  33.318  13.408
52762W        W25088  38.572  28.043   3.732
52763W        W25089  25.540  43.882  11.905
52764W        W25090  12.834   7.376  13.011
52765W        W25091  41.057  18.679   0.965
52766W        W25092  38.446   9.690   4.661
52767W        W25093  11.406  43.844   0.840
52768W        W25094  42.776   0.543   2.656
52769W        W25095  23.059  25.736  12.996
52770W        W25096  34.406  41.270   0.328
52771W        W25097  39.868   1.234   0.527
52772W        W25098  33.566  34.184   5.183
52773W        W25099   9.825   3.495   2.765
52774W        W25100  31.437   4.205  10.392
52775W        W25101   9.780  27.961  13.048
52776W        W25102  19.602  25.413   4.203
52777W        W25103  38.996  25.069   0.315
52778W        W25104  38.500   9.677  10.751
52779W        W25105  17.258  31.840  11.595
52780W        W25106  36.788   0.947  13.255
52781W        W25107  20.861  30.523  14.581
52782W        W25108  18.583   0.292   0.253
52783W        W25109  27.960   4.683   3.158
52784W        W25110   4.790  16.116   2.586
52785W        W25111  12.568  10.741  12.020
52786W        W25112   1.348   9.357   0.002
52787W        W25113  32.652   9.347  12.101
52788W        W25114  17.786   4.441   0.377
52789W        W25115  34.910  44.144  11.245
52790W        W25116  39.908  14.074   3.326
52791W        W25117   5.667   1.953  12.899
52792W        W25118  17.210  14.227   1.635
52793W        W25119   2.915  11.609   4.583
52794W        W25120  17.712  41.754  13.979
52795W        W25121  24.558  32.604  12.523
52796W        W25122  30.460  18.172  12.037
52797W        W25123   2.375  26.280  11.116
52798W        W25124  12.403  18.640  11.614
52799W        W25125  15.291  42.464   4.857
52800W        W25126  16.041  15.808  11.482
52801W        W25127   6.873  11.449  13.363
52802W        W25128   5.102  15.066  13.115
52803W        W25129  26.413  21.214   0.221
52804W        W25130  25.280  33.466   3.609
52805W        W25131  23.980  26.433   2.882
52806W        W25132   6.874   5.876   0.493
52807W        W25133   2.885  20.748   1.767
52808W        W25134  17.645  40.685  12.614
52809W        W25135  34.663  25.191   1.677
52810W        W25136  37.794  27.571   3.563
52811W        W25137  14.269  10.416  11.985
52812W        W25138  42.541  33.699  11.509
52813W        W25139  21.114  25.585   3.658
52814W        W25140  37.617   3.936   4.317
52815W        W25141  36.831  13.048  11.943
52816W        W25142  36.464  40.764  13.272
52817W        W25143  26.358   8.977   5.132
52818W        W25144  34.172  43.242  12.981
52819W        W25145  14.665  27.946  12.270
52820W        W25146   7.810  29.625   3.337
52821W        W25147  38.756  34.872   0.057
52822W        W25148  13.048  10.267   4.811
52823W        W25149  44.850  19.204   0.712
52824W        W25150  18.285  15.143   1.558
52825W        W25151  11.387   4.850  11.436
52826W        W25152  12.546  12.856   3.454
52827W        W25153  33.063   2.757  12.767
52828W        W25154  19.265  11.789  14.763
52829W        W25155  27.212  38.790  13.050
52830W        W25156   8.718  19.172   3.691
52831W        W25157  22.549  44.819  11.257
52832W        W25158  19.286   1.839  14.813
52833W        W25159   2.550   3.155  12.345
52834W        W25160  26.928  40.788  12.065
52835W        W25161  23.606  28.629   0.950
52836W        W25162   3.461  18.038  11.261
52837W        W25163  27.205  40.656  13.411
52838W        W25164  17.746  12.442   0.974
52839W        W25165  34.633   8.325  13.128
52840W        W25166  18.954  15.575  14.796
52841W        W25167  29.950  36.425  11.040
52842W        W25168  17.021   4.789   5.055
52843W        W25169  10.456  42.045   0.700
52844W        W25170  26.900  13.838   0.222
52845W        W25171   8.531  22.820  12.872
52846W        W25172  42.738  18.066   2.145
52847W        W25173  18.465  37.560  10.672
52848W        W25174  33.202  29.439  10.605
52849W        W25175  25.198   5.710   2.958
52850W        W25176  35.408  31.543   0.009
52851W        W25177  16.933  20.615  12.059
52852W        W25178  35.619  37.063   4.481
52853W        W25179  20.231  28.364   5.013
52854W        W25180   9.179   9.790   1.384
52855W        W25181  11.514  12.406  11.621
52856W        W25182   1.581  22.221   1.817
52857W        W25183   5.923  13.262  13.132
52858W        W25184  36.629   4.881  14.377
52859W        W25185  14.288  16.712  11.210
52860W        W25186  10.086  24.016   4.056
52861W        W25187  33.995  18.210   2.334
52862W        W25188  24.993  44.297  14.961
52863W        W25189  34.133  36.533  14.346
52864W        W25190  28.636   3.784   1.029
52865W        W25191   0.790  34.609   0.007
52866W        W25192   4.133  39.726  12.332
52867W        W25193  20.101  34.136   4.244
52868W        W25194  14.103  20.931   4.084
52869W        W25195   0.677  26.627  11.216
52870W        W25196  22.047   7.408   3.596
52871W        W25197  42.941   4.986  12.933
52872W        W25198  39.347  34.119   1.947
52873W        W25199  15.227  13.649   0.239
52874W        W25200  15.714  13.788  12.991
52875W        W25201  33.639  27.550  14.866
52876W        W25202  33.611  19.696   4.621
52877W        W25203  44.250  18.886  13.489
52878W        W25204  38.903   3.722   4.032
52879W        W25205   5.863  14.104   2.759
52880W        W25206  39.938  30.429  14.131
52881W        W25207   8.972  19.543   4.437
52882W        W25208  16.185  33.181  10.823
52883W        W25209  10.316   9.768   2.224
52884W        W25210   1.350  13.542  10.908
52885W        W25211  25.950  44.839  10.743
52886W        W25212   3.348  14.570   4.188
52887W        W25213  23.066   3.460   3.593
52888W        W25214  17.284  18.221   3.057
52889W        W25215  28.599  22.956  14.747
52890W        W25216  27.149  21.524  11.908
52891W        W25217  20.692   6.181  14.529
52892W        W25218  21.744  29.075   2.779
52893W        W25219  44.208  15.604  10.855
52894W        W25220  30.715  29.247  12.007
52895W        W25221   3.126  14.416  12.593
52896W        W25222  26.049  32.050   1.049
52897W        W25223  29.093  27.985   0.883
52898W        W25224  11.179  40.786   0.682
52899W        W25225   3.274   6.479   2.204
52900W        W25226   6.596  32.157   0.880
52901W        W25227  37.577  41.527  10.428
52902W        W25228  38.510  38.518  14.307
52903W        W25229  24.503  26.675   1.748
52904W        W25230  22.613   2.506   4.585
52905W        W25231   9.159  10.745   4.342
52906W        W25232  35.832  12.365   9.847
52907W        W25233  19.683  16.558   2.421
52908W        W25234  28.103  14.709   2.356
52909W        W25235  37.194   3.874   4.662
52910W        W25236   7.724   9.355   3.749
52911W        W25237  28.042   0.921   1.323
52912W        W25238  32.051  27.717  13.758
52913W        W25239   1.019  38.914   4.692
52914W        W25240  24.078  44.806   1.289
52915W        W25241  14.306  20.036   1.898
52916W        W25242   7.124  34.188  14.090
52917W        W25243  29.463   0.369  12.572
52918W        W25244  13.061   1.369   1.835
52919W        W25245  42.367  32.098  11.713
52920W        W25246  37.849  26.474   3.727
52921W        W25247   4.659  10.204  14.560
52922W        W25248   8.228  30.306  12.005
52923W        W25249  22.541  21.830  13.826
52924W        W25250   2.661   6.981   1.813
52925W        W25251  44.605  34.386   3.785
52926W        W25252  28.750  30.003  12.777
52927W        W25253  37.068  35.033   2.346
52928W        W25254  25.563  37.014   1.323
52929W        W25255  35.022  28.655   0.901
52930W        W25256  20.219  40.241  11.989
52931W        W25257  11.893  28.355   3.332
52932W        W25258  33.969   7.678  14.356
52933W        W25259  43.060  18.648  10.732
52934W        W25260   0.477   0.025   4.144
52935W        W25261   0.607  14.760   4.489
52936W        W25262   0.653  31.601  13.842
52937W        W25263  43.112  27.987   1.433
52938W        W25264  17.954   6.214  12.481
52939W        W25265  42.777   2.084   4.223
52940W        W25266  38.103  18.216  13.946
52941W        W25267  18.377  11.617   3.464
52942W        W25268  40.117  37.399  13.767
52943W        W25269  11.203   5.532   1.438
52944W        W25270   7.180  42.311   4.584
52945W        W25271   9.341   3.862  10.611
52946W        W25272   0.028  16.547  13.436
52947W        W25273   8.081  41.249   1.204
52948W        W25274  10.085  29.671  14.367
52949W        W25275   2.960  21.998  14.595
52950W        W25276  39.088  28.412   4.127
52951W        W25277   1.010   6.517   2.128
52952W        W25278  29.552  21.753   4.154
52953W        W25279  27.583  33.017   0.034
52954W        W25280  10.489  22.808   3.331
52955W        W25281   5.054  27.411  13.204
52956W        W25282  10.824  31.845   2.847
52957W        W25283  33.945  28.573   1.404
52958W        W25284  15.574  44.450  12.012
52959W        W25285  27.689  36.481  12.066
52960W        W25286  44.807  31.081   3.572
52961W        W25287  43.424  28.170  11.404
52962W        W25288  14.007  18.165   4.703
52963W        W25289  32.077  41.829  12.829
52964W        W25290  35.920  31.891   0.368
52965W        W25291   8.885   2.931   2.456
52966W        W25292   2.862   9.801   4.466
52967W        W25293   3.487  15.335   4.654
52968W        W25294  12.043  28.661   3.756
52969W        W25295   6.672  37.989   2.269
52970W        W25296  30.541  31.478  14.250
52971W        W25297  17.801   2.321   4.728
52972W        W25298  17.287  44.031   2.737
52973W        W25299  35.657  11.405   1.464
52974W        W25300  42.782  13.345  10.880
52975W        W25301   1.172   1.812   3.690
52976W        W25302   5.823  20.852  11.068
52977W        W25303  26.770  14.802  12.563
52978W        W25304  43.517   4.263  10.384
52979W        W25305  41.780  11.319   1.465
52980W        W25306  33.244  37.025  13.552
52981W        W25307   8.266  17.856   1.728
52982W        W25308  25.521  21.738   3.607
52983W        W25309  38.127  37.783  14.416
52984W        W25310   2.443  12.004  13.935
52985W        W25311  11.917  21.316  12.174
52986W        W25312  14.414  21.284   1.272
52987W        W25313  36.117   2.161   1.962
52988W        W25314  44.025  20.540   0.705
52989W        W25315   7.813  11.576   1.265
52990W        W25316  20.344  13.161  10.171
52991W        W25317  21.020  26.039  14.323
52992W        W25318  37.243  32.950   3.968
52993W        W25319  38.500   7.284  11.126
52994W        W25320  34.919   7.760  13.281
52995W        W25321  27.226  25.060  14.271
52996W        W25322  27.999  28.141   3.747
52997W        W25323  32.700  10.720   4.676
52998W        W25324  37.430  31.400   0.741
52999W        W25325  13.803  43.329   4.237
53000W        W25326  10.113  33.827  12.760
53001W        W25327  33.477  20.729   0.685
53002W        W25328  32.657  10.684  11.059
53003W        W25329   8.742  30.524  11.627
53004W        W25330  41.339  11.677   2.731
53005W        W25331  44.939  13.625  12.571
53006W        W25332  10.374   8.211   4.615
53007W        W25333  25.393   3.041  14.844
53008W        W25334  18.145  18.476  14.618
53009W        W25335  12.312  17.309   4.198
53010W        W25336   3.197  25.160  12.838
53011W        W25337  10.648  15.208  12.435
53012W        W25338  16.253  24.770   0.349
53013W        W25339  33.185  12.165  13.325
53014W        W25340  18.623  40.074   2.636
53015W        W25341  16.101  27.888   4.403
53016W        W25342   6.917  43.972   0.517
53017W        W25343   9.301  31.666   1.742
53018W        W25344  13.758  37.090  10.062
53019W        W25345  13.215  20.331  10.954
53020W        W25346  33.992  20.925  13.841
53021W        W25347   9.397  16.175   1.762
53022W        W25348  22.304  37.495   4.070
53023W        W25349  20.884  10.618   3.151
53024W        W25350  42.253  29.924   1.736
53025W        W25351  29.577  21.255   3.209
53026W        W25352  32.151  12.817  11.896
53027W        W25353  11.080  17.934  11.018
53028W        W25354   3.802  33.507  12.964
53029W        W25355   3.523  25.109  11.023
53030W        W25356  33.534  23.724   4.032
53031W        W25357  32.068  44.243   1.869
53032W        W25358  28.846  33.791  13.854
53033W        W25359   6.313  26.434  13.533
53034W        W25360  16.163  16.571   1.717
53035W        W25361  15.784  15.834  12.145
53036W        W25362  32.859  33.943   2.391
53037W        W25363  34.564  11.444   2.868
53038W        W25364  18.063  32.419  13.511
53039W        W25365   0.678  36.790  10.976
53040W        W25366  16.308  31.905   3.379
53041W        W25367  18.875  30.373   3.393
53042W        W25368  24.242  30.915   3.623
53043W        W25369   1.497   5.310  14.745
53044W        W25370  18.289  27.976   4.104
53045W        W25371   3.643  25.015   0.791
53046W        W25372  42.760   8.183  13.270
53047W        W25373  18.480  24.652   2.163
53048W        W25374  42.846  12.131   0.970
53049W        W25375  34.534  41.963   3.341
53050W        W25376  34.065  17.748   3.724
53051W        W25377  36.986  15.818  14.670
53052W        W25378   3.720  40.003   0.227
53053W        W25379  40.863  28.949  12.362
53054W        W25380  23.062   7.121  12.488
53055W        W25381  24.989  36.902  11.978
53056W        W25382  27.032  36.864   0.469
53057W        W25383  16.377  23.439   2.292
53058W        W25384  23.336  39.488  14.975
53059W        W25385  39.787  36.761   0.446
53060W        W25386  40.288  19.238   3.819
53061W        W25387  20.460  22.631   2.719
53062W        W25388  40.350   9.912  13.897
53063W        W25389  31.262  12.294  12.408
53064W        W25390  12.176  33.623   0.253
53065W        W25391   5.877   0.528  14.016
53066W        W25392  19.333  41.370  13.447
53067W        W25393  28.721  25.369   0.540
53068W        W25394   0.631   7.895   4.062
53069W        W25395  22.797  30.989   1.267
53070W        W25396  23.007  30.451  13.493
53071W        W25397  20.239  31.031  12.632
53072W        W25398  38.584  21.892   3.717
53073W        W25399  11.392  18.709   0.535
53074W        W25400  40.511  14.619   4.861
53075W        W25401   8.703  14.228   3.646
53076W        W25402  36.323  42.903   3.948
53077W        W25403  39.097  18.995  13.641
53078W        W25404  32.058   7.279   0.372
53079W        W25405   4.798  11.780  12.945
53080W        W25406  44.078  44.516   3.176
53081W        W25407  42.883  37.629   2.197
53082W        W25408  43.343  38.059   1.219
53083W        W25409   9.774  44.850   2.438
53084W        W25410   9.562  44.391   4.948
53085W        W25411  14.283  32.808   4.549
53086W        W25412  23.061  20.496  12.038
53087W        W25413  17.092  12.844  13.923
53088W        W25414  24.534  29.237   3.086
53089W        W25415  23.235  35.206  11.132
53090W        W25416  29.727  39.028  12.670
53091W        W25417   8.159  43.352   0.289
53092W        W25418  25.105  19.800   4.336
53093W        W25419  28.152  29.901  14.785
53094W        W25420  28.544   4.858   1.384
53095W        W25421  19.811  40.902   1.917
53096W        W25422  11.299  25.088   5.730
53097W        W25423   2.418  25.936   1.438
53098W        W25424  33.123   1.025  12.983
53099W        W25425  33.367   3.519   4.965
53100W        W25426  38.556  31.038  10.364
53101W        W25427  18.824  19.718   2.199
53102W        W25428  28.251  33.477  11.244
53103W        W25429  34.051   8.380   4.100
53104W        W25430  18.258   0.996   3.001
53105W        W25431  12.781  33.638  14.376
53106W        W25432  16.267   8.785  11.984
53107W        W25433  32.499  21.760   2.931
53108W        W25434  40.599  14.332   1.299
53109W        W25435   1.315  33.549   4.552
53110W        W25436  13.586  19.774  14.924
53111W        W25437  30.548  14.512  13.778
53112W        W25438  32.672  42.022   2.409
53113W        W25439   2.186   4.182   0.775
53114W        W25440  11.592  24.314   0.770
53115W        W25441  19.564  32.129   2.617
53116W        W25442  10.581  17.025  14.416
53117W        W25443  36.296  16.640  11.775
53118W        W25444   7.906  41.526  12.442
53119W        W25445   7.457  28.199  10.690
53120W        W25446   5.832  40.355  11.896
53121W        W25447  19.559   8.850   0.471
53122W        W25448  37.520  41.974   3.146
53123W        W25449   3.511   9.938   2.789
53124W        W25450   3.985  37.922   0.859
53125W        W25451  33.053  25.194  14.948
53126W        W25452   8.249  36.486   2.386
53127W        W25453  24.600  37.032   0.004
53128W        W25454   3.837  37.054  11.940
53129W        W25455   5.445   6.256   0.063
53130W        W25456  40.960  21.699  11.968
53131W        W25457   3.528  31.599  10.465
53132W        W25458  29.488  16.529   1.648
53133W        W25459  11.621  17.022   3.282
53134W        W25460  37.689   3.782   4.822
53135W        W25461  25.844  36.153   3.259
53136W        W25462  30.622  28.178   4.654
53137W        W25463   2.896  35.394   2.745
53138W        W25464  25.120   2.296   2.449
53139W        W25465  18.255   0.513   2.814
53140W        W25466  41.253  17.651   3.245
53141W        W25467  25.915   9.882   0.887
53142W        W25468  37.593  28.164   4.630
53143W        W25469  39.590  11.576   4.080
53144W        W25470  40.809  19.761  11.149
53145W        W25471  13.340   9.644   3.083
53146W        W25472  26.676   4.911   3.885
53147W        W25473  20.697  13.293   0.957
53148W        W25474  26.449   0.037   1.711
53149W        W25475  36.593  30.382  10.733
53150W        W25476  41.839   9.670  12.524
53151W        W25477  12.570  21.023  14.457
53152W        W25478  44.689  28.554   4.919
53153W        W25479  35.129  29.924  11.549
53154W        W25480  25.178   9.205   0.453
53155W        W25481  14.355  14.846  13.159
53156W        W25482   5.647  43.969   2.364
53157W        W25483   3.197  38.099  14.281
53158W        W25484  25.380  40.953  12.007
53159W        W25485  40.008  11.290   0.898
53160W        W25486  32.147  37.834  14.275
53161W        W25487  20.341  22.232   4.634
53162W        W25488  18.335  16.433  12.392
53163W        W25489  43.156  26.719   0.888
53164W        W25490  18.031   8.636  13.037
53165W        W25491  34.837   1.884  12.085
53166W        W25492  14.749  27.069   5.206
53167W        W25493  41.275  13.521   0.348
53168W        W25494  23.064  28.995   0.488
53169W        W25495  38.285   6.694  12.355
53170W        W25496  25.582  32.530  12.289
53171W        W25497   8.367  31.731   1.274
53172W        W25498   8.070  11.738  11.183
53173W        W25499  35.453  24.623   0.247
53174W        W25500  12.831  33.581   0.352
53175W        W25501  30.283  32.489   4.532
53176W        W25502  37.647   2.950  12.884
53177W        W25503   8.241  21.548  14.285
53178W        W25504  10.835   8.323  10.730
53179W        W25505  23.296  41.968   4.185
53180W        W25506  44.295  28.982  10.578
53181W        W25507   1.351   1.710  11.726
53182W        W25508  26.584  36.925  13.632
53183W        W25509  22.478  39.767   2.220
53184W        W25510  32.896  34.907   4.790
53185W        W25511  30.907   9.675   0.560
53186W        W25512   4.419  32.280   2.508
53187W        W25513  40.469  40.770  13.811
53188W        W25514  36.540  43.000  13.009
53189W        W25515  31.276   2.519   0.205
53190W        W25516  28.074   3.166   1.856
53191W        W25517  43.272  31.824  14.789
53192W        W25518  14.586  13.890  14.157
53193W        W25519  42.461  42.285  13.415
53194W        W25520  20.209  13.305  11.191
53195W        W25521   6.365  26.423   2.405
53196W        W25522  34.570   8.779   2.843
53197W        W25523  28.062  40.482   2.222
53198W        W25524   1.354  30.660   0.049
53199W        W25525   4.883   0.850  13.521
53200W        W25526  15.646  33.411  11.779
53201W        W25527  37.387  26.448   1.927
53202W        W25528   0.350   0.456  14.282
53203W        W25529  29.340  34.272  11.493
53204W        W25530   3.786  40.033  10.832
53205W        W25531  26.067   1.482  12.059
53206W        W25532  29.872  27.215  12.005
53207W        W25533  42.320  34.570   4.180
53208W        W25534  34.146   7.281   4.604
53209W        W25535  12.070  31.177   3.318
53210W        W25536   1.850  10.580  14.068
53211W        W25537   3.516  38.398   4.749
53212W        W25538  25.740  33.090  13.568
53213W        W25539  24.116  14.202  13.197
53214W        W25540  44.017  15.300  11.300
53215W        W25541   6.451  16.169  10.867
53216W        W25542   6.463   2.284  11.016
53217W        W25543  38.545  40.548  11.580
53218W        W25544  41.936  37.542  13.866
53219W        W25545  22.721  26.582  11.271
53220W        W25546  30.624  42.853   4.523
53221W        W25547  34.449  12.737   2.734
53222W        W25548  10.921  43.260  13.050
53223W        W25549  30.912  24.719   3.244
53224W        W25550  43.904  14.760   1.405
53225W        W25551  10.547   1.375   0.472
53226W        W25552  31.020  20.730   4.542
53227W        W25553  30.594   6.221   4.407
53228W        W25554  34.398  20.665   0.402
53229W        W25555  11.677  38.626   2.715
53230W        W25556  32.529  12.342   0.849
53231W        W25557  32.001  37.370  12.475
53232W        W25558  16.702   2.914  14.796
53233W        W25559  11.283  11.100  13.878
53234W        W25560  11.212  37.022  11.545
53235W        W25561  37.627  16.367  11.463
53236W        W25562  40.976  11.790  11.039
53237W        W25563  42.057  43.020  10.281
53238W        W25564  37.021   2.964  14.153
53239W        W25565  16.983  31.097  12.005
53240W        W25566  23.575  27.705  12.541
53241W        W25567  14.877   6.419  13.045
53242W        W25568   9.842  28.380   4.241
53243W        W25569  27.927  24.583   0.574
53244W        W25570   7.339  39.818   1.996
53245W        W25571  11.857   0.950   0.198
53246W        W25572  18.860  19.349  13.555
53247W        W25573  30.557  28.954  14.871
53248W        W25574   2.530  41.375  11.505
53249W        W25575   7.655   0.975  10.783
53250W        W25576   5.890  36.403   1.911
53251W        W25577  23.010  41.009   2.852
53252W        W25578  41.202   1.837  13.868
53253W        W25579  34.419  26.693  10.635
53254W        W25580   0.983  43.625   0.441
53255W        W25581  34.224  11.357  12.071
53256W        W25582  19.603  35.021  14.971
53257W        W25583  20.553  10.218  12.863
53258W        W25584  16.605  26.073   0.225
53259W        W25585  31.139  30.872  14.764
53260W        W25586   4.302  34.016  14.504
53261W        W25587  11.158  25.507  12.976
53262W        W25588  17.238   2.681   2.183
53263W        W25589  25.193  31.204   1.346
53264W        W25590   6.622  18.685  10.687
53265W        W25591   4.393   2.212  14.388
53266W        W25592  12.849   0.053  11.177
53267W        W25593  31.045  18.584   1.822
53268W        W25594  19.149  44.513   0.364
53269W        W25595  44.568  24.316   3.822
53270W        W25596  16.225  25.187  13.683
53271W        W25597  29.377  41.814  12.685
53272W        W25598   4.739  18.107   1.765
53273W        W25599  29.100  36.963   3.661
53274W        W25600  39.627  43.238  11.449
53275W        W25601  29.570  22.137  14.433
53276W        W25602   4.738  30.061   0.315
53277W        W25603   1.347  30.825  14.005
53278W        W25604  38.378  16.826  10.911
53279W        W25605  19.954  31.897  13.886
53280W        W25606  34.899  36.838  12.550
53281W        W25607  32.568   0.848   3.365
53282W        W25608   6.266  19.295  13.622
53283W        W25609  20.451   4.121   1.661
53284W        W25610  41.944  37.847   0.245
53285W        W25611   6.058  18.968  14.404
53286W        W25612  19.360  33.580  13.962
53287W        W25613  22.929  15.269  13.910
53288W        W25614  29.587   2.896   3.707
53289W        W25615  44.408  18.484  10.766
53290W        W25616   0.698  28.209  12.350
53291W        W25617  14.286  43.931  12.820
53292W        W25618  27.844   9.616  13.496
53293W        W25619  25.076   0.437  14.995
53294W        W25620   4.064  41.932   2.267
53295W        W25621  15.730  30.917   3.733
53296W        W25622  10.599  30.702  13.301
53297W        W25623  17.027  37.084   0.729
53298W        W25624   5.042  18.708   1.285
53299W        W25625  19.411  13.328   4.149
53300W        W25626   3.475  38.486   1.109
53301W        W25627  14.797  33.547   4.900
53302W        W25628  34.848   7.518   2.258
53303W        W25629  22.801   4.883   2.234
53304W        W25630  43.392  22.701   0.873
53305W        W25631  18.714  30.600  12.850
53306W        W25632  21.000  15.275  14.249
53307W        W25633   5.830  33.962   3.428
53308W        W25634   4.648  14.100  11.635
53309W        W25635  40.477  14.252   4.078
53310W        W25636  26.495  13.640  10.694
53311W        W25637  19.040   1.087  11.407
53312W        W25638  39.652  19.323   2.740
53313W        W25639   5.284  31.611   0.036
53314W        W25640   8.551  30.538  13.897
53315W        W25641  37.341  18.082   0.300
53316W        W25642  22.329  20.816   2.342
53317W        W25643  37.368  21.726  13.569
53318W        W25644  25.051  39.290   1.226
53319W        W25645  35.627  32.152   0.814
53320W        W25646  18.146  34.579   4.633
53321W        W25647  44.783  32.359   4.771
53322W        W25648   6.928  41.849   4.715
53323W        W25649  26.079  15.147  13.018
53324W        W25650  20.179   4.472  10.371
53325W        W25651  28.780   9.378   2.665
53326W        W25652   5.667  27.522  10.792
53327W        W25653  14.164  22.556   2.424
53328W        W25654  17.608  36.014   2.358
53329W        W25655  38.012  24.154   2.057
53330W        W25656   0.178  14.842  12.132
53331W        W25657  13.816  43.507  10.705
53332W        W25658  23.970  43.788   3.584
53333W        W25659  37.376  40.878  11.241
53334W        W25660   0.738   6.323  13.307
53335W        W25661  44.787  11.812  12.707
53336W        W25662  14.399  21.267   4.821
53337W        W25663   1.686  15.488  13.051
53338W        W25664  31.399  20.280  11.632
53339W        W25665   4.009   8.708  10.751
53340W        W25666  12.816  25.701  11.509
53341W        W25667  11.825  27.488  13.506
53342W        W25668   7.262  26.769  10.564
53343W        W25669  37.901  11.175  12.908
53344W        W25670  10.824  29.527   2.688
53345W        W25671  11.772  22.131   4.405
53346W        W25672  23.586   0.219  11.613
53347W        W25673  31.134  35.603  13.420
53348W        W25674  25.520  29.185   0.870
53349W        W25675   1.499  23.302   0.277
53350W        W25676  24.729   1.369  12.869
53351W        W25677  21.988   3.384   0.556
53352W        W25678   5.863  18.677  11.295
53353W        W25679   5.379  14.153  14.328
53354W        W25680  37.526  39.893   3.856
53355W        W25681  31.928  26.707  13.833
53356W        W25682   8.356  40.753  14.530
53357W        W25683  16.221  21.117   2.420
53358W        W25684  27.457  28.950  12.923
53359W        W25685  11.672  18.534  11.051
53360W        W25686  37.594   4.036  11.405
53361W        W25687   7.852  20.463   1.432
53362W        W25688  39.554  10.163  14.531
53363W        W25689  22.995  44.901  10.899
53364W        W25690  30.594  28.316   3.158
53365W        W25691  29.437  32.625   0.153
53366W        W25692  27.280  13.084   1.501
53367W        W25693  15.155   9.201   2.760
53368W        W25694  18.262  21.137   4.086
53369W        W25695  32.488  31.966  13.401
53370W        W25696  16.680  13.446   4.502
53371W        W25697   4.337  38.309  13.180
53372W        W25698  18.541  12.850  14.948
53373W        W25699  26.089  25.569   0.527
53374W        W25700  44.565  44.798   1.843
53375W        W25701   6.838  35.636   3.807
53376W        W25702  40.000   5.259  11.557
53377W        W25703  22.235  36.010  12.941
53378W        W25704  21.050  10.643  10.637
53379W        W25705  28.526  16.785  13.450
53380W        W25706   8.820  38.999   4.185
53381W        W25707  32.004  27.199  13.955
53382W        W25708  37.847  32.952  11.477
53383W        W25709  32.876  16.655  12.950
53384W        W25710  13.191  34.047   2.746
53385W        W25711   1.910  35.858   3.245
53386W        W25712  30.093  25.654  11.976
53387W        W25713  13.199   2.048  14.011
53388W        W25714  22.574  17.385   3.795
53389W        W25715  23.746   5.868   0.211
53390W        W25716   2.116   9.620   4.600
53391W        W25717  35.032  34.628   1.774
53392W        W25718  19.716  18.275   3.788
53393W        W25719  26.239  35.145   4.139
53394W        W25720  26.356  38.263  11.099
53395W        W25721  28.789  31.041  10.654
53396W        W25722  27.457  26.966   0.442
53397W        W25723  13.606  17.211  13.888
53398W        W25724  13.746  21.005  13.843
53399W        W25725  43.773  42.891  14.584
53400W        W25726  18.653  18.565   4.293
53401W        W25727   0.009  13.423  11.038
53402W        W25728  25.615   1.218  11.865
53403W        W25729  11.992  14.675   2.788
53404W        W25730  35.757   0.307  14.531
53405W        W25731   6.504  29.581  14.429
53406W        W25732   3.217  33.395   3.667
53407W        W25733  17.431   7.412  11.543
53408W        W25734   8.771   9.305  14.133
53409W        W25735  38.627  20.537   0.688
53410W        W25736   4.337   9.435   4.611
53411W        W25737   8.681  21.745   3.239
53412W        W25738  24.691  18.277   9.769
53413W        W25739  30.619  40.772   4.761
53414W        W25740   0.916   4.648   2.167
53415W        W25741  38.359  16.185   3.648
53416W        W25742  12.502  33.988   0.419
53417W        W25743   8.685  32.415   4.239
53418W        W25744  15.213   3.880   4.567
53419W        W25745  17.351  36.470  12.448
53420W        W25746   6.266   2.380   0.398
53421W        W25747   0.607   1.243   1.684
53422W        W25748  17.007  40.246  10.166
53423W        W25749   9.299  44.604   2.668
53424W        W25750   9.587  19.273  13.451
53425W        W25751  15.155  31.031  13.255
53426W        W25752  33.981   2.549  14.719
53427W        W25753  35.739  15.145   1.479
53428W        W25754  14.320   9.769   0.198
53429W        W25755  42.465  18.097   0.010
53430W        W25756  21.653  31.973   0.707
53431W        W25757  20.737  30.051  10.991
53432W        W25758  23.517   2.204   1.789
53433W        W25759  27.031   4.912  10.729
53434W        W25760  16.075  37.883   0.254
53435W        W25761  16.577  13.657  11.086
53436W        W25762  38.139   5.204   0.974
53437W        W25763   2.844  33.458  14.592
53438W        W25764  25.460  12.851   2.318
53439W        W25765  38.369   6.839   3.584
53440W        W25766  11.713  35.445  10.192
53441W        W25767  18.627  40.820   4.253
53442W        W25768  43.442   8.529   4.990
53443W        W25769  22.677  18.536   4.606
53444W        W25770  15.689   4.289   3.857
53445W        W25771  32.505  34.189  10.676
53446W        W25772  20.739  41.435   4.065
53447W        W25773   6.388  33.747   0.285
53448W        W25774   0.522  13.597   4.580
53449W        W25775   8.248  44.804  13.212
53450W        W25776  18.093   2.249  14.778
53451W        W25777  41.885  20.722   1.052
53452W        W25778  11.219  36.844  12.431
53453W        W25779  22.630  37.631   0.454
53454W        W25780  19.717  11.231   2.422
53455W        W25781   2.239   4.782   2.821
53456W        W25782   4.186  37.449   0.829
53457W        W25783  16.579  41.605  11.628
53458W        W25784  22.715  25.737   3.725
53459W        W25785  25.155  23.515  13.460
53460W        W25786  24.158  11.264   0.400
53461W        W25787  33.809  15.031  11.905
53462W        W25788  16.532  38.371   4.573
53463W        W25789  19.275  34.393   0.358
53464W        W25790  35.334  36.336  13.946
53465W        W25791  10.040  22.941  11.408
53466W        W25792  17.925  13.052  12.521
53467W        W25793  36.852  16.358  13.925
53468W        W25794   8.275   4.104   1.965
53469W        W25795  17.645  31.182   1.761
53470W        W25796   0.705  13.691  13.173
53471W        W25797   2.254  29.848  12.167
53472W        W25798   8.242  33.634   4.589
53473W        W25799   3.551  21.387  11.039
53474W        W25800  16.660  33.114  14.209
53475W        W25801  26.965  32.059  13.354
53476W        W25802  39.087  23.486   2.831
53477W        W25803  36.027  33.288   9.725
53478W        W25804  37.874  41.720  11.141
53479W        W25805  37.975  17.234  12.010
53480W        W25806  23.971  39.067  14.285
53481W        W25807  29.919  28.545   4.232
53482W        W25808   5.362  12.364  13.868
53483W        W25809  36.361   6.970   2.092
53484W        W25810   2.228   3.962  14.893
53485W        W25811  38.766   2.376   4.068
53486W        W25812  40.055  10.106  12.832
53487W        W25813   7.622  19.051   4.661
53488W        W25814  28.559  26.192   4.804
53489W        W25815  23.220  28.943  11.551
53490W        W25816  22.602  17.238   4.591
53491W        W25817  18.400  22.732  11.047
53492W        W25818  16.970   7.277  10.870
53493W        W25819  15.019  30.035   2.536
53494W        W25820   9.735  11.661  11.658
53495W        W25821  31.552  16.766   1.754
53496W        W25822   6.190  24.065   1.707
53497W        W25823  36.565   4.474  13.231
53498W        W25824   0.233  16.006   4.146
53499W        W25825  14.207  14.793   1.721
53500W        W25826  29.858  15.426   4.022
53501W        W25827  40.428  44.491  14.679
53502W        W25828   3.269  35.056  14.537
53503W        W25829  10.922  19.597   1.738
53504W        W25830   5.879  11.582  10.717
53505W        W25831  25.840  32.433   2.771
53506W        W25832  38.010   0.035  14.997
53507W        W25833  42.106  21.387  11.469
53508W        W25834  27.002  43.322  13.422
53509W        W25835  21.832  34.148  13.797
53510W        W25836   2.931   8.694  14.251
53511W        W25837  14.512  35.370  12.146
53512W        W25838  11.310  35.925   3.751
53513W        W25839  13.618   5.327  11.627
53514W        W25840   3.805   7.593  12.641
53515W        W25841  33.964  25.566   3.227
53516W        W25842  18.867  16.140  10.917
53517W        W25843  39.859  41.389   1.771
53518W        W25844  18.736  42.548  10.700
53519W        W25845  25.056  21.961   0.594
53520W        W25846  35.391  39.274  10.774
53521W        W25847   6.496  12.350  12.990
53522W        W25848  43.361  27.274   3.190
53523W        W25849  17.151  41.940   3.649
53524W        W25850  41.229   2.530   3.738
53525W        W25851  35.398   8.832  12.490
53526W        W25852  24.628  23.752   2.120
53527W        W25853   2.152   2.797  14.969
53528W        W25854  20.767  20.671   3.303
53529W        W25855   9.229  42.818  10.615
53530W        W25856  42.985  14.602   1.746
53531W        W25857  22.622  37.834   2.146
53532W        W25858  28.416   7.030  12.482
53533W        W25859  13.259  15.138   4.243
53534W        W25860  24.579  42.833   0.416
53535W        W25861  26.541   3.350   0.672
53536W        W25862  33.740   2.461   4.229
53537W        W25863  17.287  27.561  14.031
53538W        W25864   1.362  39.016  13.412
53539W        W25865  12.274  23.848  12.565
53540W        W25866   4.270  27.018  14.225
53541W        W25867   6.621  13.945   4.349
53542W        W25868   1.389  11.742   9.806
53543W        W25869   3.982  20.058   1.935
53544W        W25870  41.795   8.288   4.882
53545W        W25871   1.193  11.346  11.615
53546W        W25872  33.095  33.469  13.810
53547W        W25873  41.944  17.842   0.054
53548W        W25874  37.015  26.072  12.987
53549W        W25875  32.463  35.944   0.994
53550W        W25876  20.218  28.666  14.828
53551W        W25877   9.858  27.434   2.471
53552W        W25878  18.154  21.939  12.004
53553W        W25879   8.583   5.000   4.200
53554W        W25880  37.707  34.288  14.434
53555W        W25881  20.862  22.218   4.535
53556W        W25882  26.088   9.874   0.033
53557W        W25883   7.332  34.787   2.375
53558W        W25884  26.123  35.061   3.292
53559W        W25885  28.164  30.065   2.237
53560W        W25886  41.098  36.321   2.212
53561W        W25887  33.037  36.961  13.063
53562W        W25888   4.574  25.263  10.909
53563W        W25889  38.112  15.265   1.248
53564W        W25890  13.628   0.945  10.432
53565W        W25891  11.495  43.902  12.449
53566W        W25892  31.387  25.949  11.698
53567W        W25893  43.464  41.632  13.009
53568W        W25894  19.260   4.804  14.941
53569W        W25895  17.610  19.592  13.760
53570W        W25896  44.421  26.405  10.745
53571W        W25897  26.264  44.712  12.350
53572W        W25898   5.419  10.787   2.480
53573W        W25899  43.229   1.368   3.283
53574W        W25900  10.445  10.076   9.942
53575W        W25901  35.302  20.166   1.512
53576W        W25902  30.380  29.103  13.073
53577W        W25903  27.041  22.043   4.636
53578W        W25904  28.593  42.319  12.467
53579W        W25905   4.049   2.124   9.944
53580W        W25906  39.411  44.167  13.048
53581W        W25907  42.921  28.665   0.658
53582W        W25908  24.585  23.610  12.912
53583W        W25909   6.305  29.495   4.866
53584W        W25910  29.846   7.314   4.076
53585W        W25911  28.609   3.321  14.842
53586W        W25912  30.206  36.559   0.482
53587W        W25913  10.092  10.118   3.699
53588W        W25914   2.253  16.139  14.434
53589W        W25915   1.679   9.608  14.006
53590W        W25916   7.158  16.189   0.297
53591W        W25917  38.171  11.065  12.122
53592W        W25918  44.057   2.221  13.923
53593W        W25919   8.290  29.089   1.108
53594W        W25920  18.115  18.335   4.716
53595W        W25921  44.773   8.864   1.707
53596W        W25922  20.100  42.844   5.443
53597W        W25923   4.429   2.352  13.899
53598W        W25924  38.575  16.292  11.610
53599W        W25925  35.490   3.106   0.008
53600W        W25926   3.214  37.228   2.279
53601W        W25927  42.029  34.591   3.285
53602W        W25928   3.173   4.718  10.414
53603W        W25929   2.075  20.451  14.488
53604W        W25930   7.779   4.682   2.204
53605W        W25931   5.712  38.889  11.091
53606W        W25932   1.678  27.738   4.980
53607W        W25933   7.411  33.144   2.163
53608W        W25934  29.998  25.930  11.539
53609W        W25935  17.051   5.436  14.529
53610W        W25936  12.217   0.594  14.442
53611W        W25937  23.674  24.051  11.393
53612W        W25938  43.896   0.277   3.623
53613W        W25939  11.701  28.492  13.466
53614W        W25940  40.778  33.132  13.527
53615W        W25941  28.328   3.735   0.068
53616W        W25942  28.661  13.271   4.135
53617W        W25943  19.118  34.330  13.048
53618W        W25944  33.532   0.065  13.949
53619W        W25945  28.187   4.835  11.665
53620W        W25946  33.689   5.435  10.825
53621W        W25947  18.785  13.063   0.935
53622W        W25948  38.012   9.199   0.637
53623W        W25949  22.234   8.147   3.349
53624W        W25950  36.777  36.640   3.633
53625W        W25951  36.058   7.777   3.668
53626W        W25952   3.239  23.173  13.743
53627W        W25953  30.973  43.893  10.586
53628W        W25954   1.680  15.862   3.850
53629W        W25955   0.449  19.500  10.629
53630W        W25956  23.272  12.774  12.535
53631W        W25957  36.449  33.131  14.741
53632W        W25958   6.337  21.698  14.255
53633W        W25959  31.881  24.285  12.009
53634W        W25960  36.955  31.628  12.024
53635W        W25961  22.525  43.818  11.682
53636W        W25962  28.596   4.151  14.939
53637W        W25963  12.012  33.308   1.092
53638W        W25964   2.215  38.385   1.726
53639W        W25965  44.431  34.093  14.387
53640W        W25966  36.225   5.751   4.466
53641W        W25967  36.680  17.491   4.624
53642W        W25968  13.710  32.986   2.114
53643W        W25969   7.351   8.596   1.612
53644W        W25970   0.748  19.886  12.541
53645W        W25971  38.945   0.771  13.515
53646W        W25972   0.054  14.848   0.022
53647W        W25973  36.084  14.085   2.829
53648W        W25974  11.340  39.986   0.340
53649W        W25975   9.742   3.884   3.713
53650W        W25976  15.761  26.113  12.903
53651W        W25977  20.115   3.020  12.957
53652W        W25978   2.468  11.202   3.702
53653W        W25979  27.212  28.497  13.097
53654W        W25980   6.637  39.432  14.994
53655W        W25981  40.075  22.045   4.836
53656W        W25982  27.017  24.482  11.526
53657W        W25983  22.211   6.946  11.554
53658W        W25984   2.690  31.508  14.078
53659W        W25985   7.390   6.858   0.941
53660W        W25986  29.193   8.437   4.556
53661W        W25987  15.867  18.642  12.065
53662W        W25988  10.932  36.355   2.051
53663W        W25989   4.036  44.091   1.404
53664W        W25990  37.342   3.925  12.313
53665W        W25991  30.458  16.819  14.775
53666W        W25992  18.459   2.503   0.955
53667W        W25993  10.306   4.498   4.153
53668W        W25994  25.113  27.180  12.042
53669W        W25995   2.231  27.933   2.219
53670W        W25996  36.087  17.478  12.932
53671W        W25997   1.880   4.998  10.798
53672W        W25998  25.417  18.264  14.347
53673W        W25999  40.552  36.051  11.441
53674W        W26000  26.704  32.487   4.731
53675W        W26001   7.801  41.247   4.535
53676W        W26002  41.430  37.504  11.071
53677W        W26003  43.289  10.105  14.404
53678W        W26004  32.554  10.162  14.837
53679W        W26005   8.219  10.290   0.179
53680W        W26006  37.628  20.039   3.796
53681W        W26007  30.878  24.137  12.012
53682W        W26008   6.497  38.007   1.757
53683W        W26009   2.977  14.411   3.311
53684W        W26010  35.395  17.048   3.655
53685W        W26011  22.944  21.584  14.745
53686W        W26012  23.599  29.714  12.600
53687W        W26013  12.160  33.984   4.557
53688W        W26014  21.155  33.728  13.406
53689W        W26015  30.367  25.132  11.873
53690W        W26016  41.122  21.613  13.281
53691W        W26017  18.107  43.792  10.544
53692W        W26018   7.843  36.667   0.819
53693W        W26019  18.454  13.087   3.453
53694W        W26020  27.870   9.708   3.204
53695W        W26021   3.281   8.569  11.211
53696W        W26022   8.686  15.589   2.154
53697W        W26023  22.003  39.023  14.675
53698W        W26024  29.085  17.495  11.971
53699W        W26025  43.977  14.237  11.434
53700W        W26026  32.694  17.737   4.226
53701W        W26027  34.559  30.051   4.767
53702W        W26028  19.517   2.256   1.423
53703W        W26029  20.216   3.341   1.668
53704W        W26030  14.269   7.159   0.509
53705W        W26031   1.784  37.791  13.798
53706W        W26032  23.255   8.631   0.934
53707W        W26033  36.279   5.403   2.762
53708W        W26034  15.604  30.509  13.890
53709W        W26035  42.355  22.567   2.643
53710W        W26036  11.656  21.173   3.486
53711W        W26037  27.550  23.138  10.580
53712W        W26038  26.412  17.714   1.739
53713W        W26039  27.963  36.242   2.774
53714W        W26040  23.992  12.819  11.855
53715W        W26041  34.586  31.191   0.799
53716W        W26042   4.271   9.716  13.363
53717W        W26043  11.257   5.030   4.702
53718W        W26044  21.442  24.514   0.432
53719W        W26045   6.720   0.488  10.449
53720W        W26046  16.838  16.582   3.653
53721W        W26047   9.032   3.831   2.340
53722W        W26048  25.717  42.587  11.415
53723W        W26049  31.916  21.249   3.373
53724W        W26050  39.833  38.000   4.456
53725W        W26051  13.737   0.396   1.346
53726W        W26052  14.024   6.629   4.220
53727W        W26053  11.181  21.323   0.371
53728W        W26054  35.621  25.670   4.537
53729W        W26055  31.415  35.709  12.190
53730W        W26056  44.754   5.950   2.364
53731W        W26057  28.554  13.171   0.211
53732W        W26058  22.941  20.624   4.456
53733W        W26059  40.366  26.764   3.254
53734W        W26060  34.199  17.172   1.958
53735W        W26061   7.344  10.394   4.242
53736W        W26062  44.250  37.564   3.779
53737W        W26063   9.841  35.986   0.384
53738W        W26064  18.668  36.423   0.398
53739W        W26065   5.250  31.780   1.123
53740W        W26066  25.655  26.576  10.700
53741W        W26067  11.596  16.011   0.729
53742W        W26068  42.869  20.800  11.613
53743W        W26069  28.853  20.459  12.122
53744W        W26070  15.843  13.043  12.588
53745W        W26071   4.590   5.685   2.009
53746W        W26072   7.942   4.856   3.694
53747W        W26073   3.469   8.841  11.618
53748W        W26074  28.114  29.872  13.341
53749W        W26075  27.548  30.211   3.137
53750W        W26076  26.635  39.405  11.840
53751W        W26077  26.161  32.480  14.729
53752W        W26078  43.248  36.472   0.810
53753W        W26079  19.385  15.319  11.052
53754W        W26080  13.158  17.524  13.926
53755W        W26081   2.432  33.224   0.836
53756W        W26082  24.752  34.384  11.475
53757W        W26083  16.792  10.044  10.691
53758W        W26084   8.486  15.406  14.944
53759W        W26085   7.749  37.555   1.030
53760W        W26086  36.099  19.808   1.731
53761W        W26087   3.868  41.098   0.379
53762W        W26088  32.408   1.203   4.707
53763W        W26089  19.241  14.734  10.658
53764W        W26090  42.912   2.827  13.011
53765W        W26091  16.818  11.861  11.533
53766W        W26092  36.598   2.453   1.900
53767W        W26093  29.960  28.456   2.581
53768W        W26094   5.792  18.286   3.324
53769W        W26095  20.613  37.819  13.514
53770W        W26096  29.448  23.782  11.896
53771W        W26097  17.298  24.954   2.660
53772W        W26098   4.806  30.379   3.646
53773W        W26099   1.637  15.547   4.628
53774W        W26100   4.432  28.420  14.041
53775W        W26101   1.264   8.554  13.596
53776W        W26102  11.873  27.413   4.196
53777W        W26103  16.201  23.468  13.046
53778W        W26104  15.191  24.118   2.192
53779W        W26105  18.326  11.670  12.328
53780W        W26106   3.429   0.017   1.702
53781W        W26107   0.919   6.270  14.409
53782W        W26108  10.512  22.508   4.909
53783W        W26109  32.694   9.725  13.983
53784W        W26110  40.358   6.372  10.200
53785W        W26111   4.464  42.030   1.239
53786W        W26112  35.580  36.839   2.270
53787W        W26113   0.423   1.608   5.433
53788W        W26114   9.264  15.363   0.462
53789W        W26115   9.451  21.029   0.931
53790W        W26116  35.600  12.786  11.605
53791W        W26117  39.091  27.215   2.221
53792W        W26118  29.950   2.948   1.775
53793W        W26119  33.842  20.527   3.664
53794W        W26120  29.894   4.393   0.027
53795W        W26121  22.620  25.263   0.449
53796W        W26122  19.511  32.053  10.695
53797W        W26123  34.136  23.359   5.052
53798W        W26124   4.010  33.156   2.804
53799W        W26125  14.362  37.498  14.039
53800W        W26126  11.678  32.564   4.483
53801W        W26127  28.970  17.771   1.861
53802W        W26128  21.963  10.813   2.211
53803W        W26129  24.310  23.472  12.505
53804W        W26130  39.068  13.411   0.230
53805W        W26131  32.021  41.452   0.854
53806W        W26132  20.194  14.923  11.674
53807W        W26133  41.486   9.626  14.090
53808W        W26134  40.413  22.809   3.340
53809W        W26135  42.017  32.648   1.415
53810W        W26136   4.559  34.289   0.732
53811W        W26137  28.826  28.932   5.553
53812W        W26138  13.821  38.675  13.335
53813W        W26139  33.584  18.196  13.569
53814W        W26140   6.314  43.414  11.473
53815W        W26141   2.672  43.971   2.338
53816W        W26142  29.078  10.132   2.279
53817W        W26143   1.926   2.941   1.877
53818W        W26144  39.596   7.762  12.471
53819W        W26145  10.867  26.913  11.387
53820W        W26146  14.700  26.591  10.658
53821W        W26147  28.974  23.493   0.551
53822W        W26148  41.208  34.892  12.528
53823W        W26149  42.289  23.592   0.293
53824W        W26150  14.384  43.299  13.583
53825W        W26151  31.421  33.613   1.241
53826W        W26152  13.327  33.038   4.318
53827W        W26153  41.542  31.460   1.173
53828W        W26154   2.469   1.062  11.190
53829W        W26155  30.686  32.863  14.595
53830W        W26156  41.865  19.203   3.728
53831W        W26157  34.201  40.872   0.730
53832W        W26158  34.806  13.569   0.883
53833W        W26159   7.411   5.465   1.788
53834W        W26160  16.467  40.972   1.297
53835W        W26161  19.168  11.237  12.983
53836W        W26162  13.533  37.212   5.551
53837W        W26163   3.438  28.423  13.028
53838W        W26164  21.018   4.552  12.819
53839W        W26165  42.470  22.698  12.416
53840W        W26166  28.074  23.146   1.928
53841W        W26167   9.988  36.352   4.573
53842W        W26168  21.979  36.555  11.158
53843W        W26169  44.835  33.827   4.742
53844W        W26170  42.591  43.039  10.682
53845W        W26171   6.236  37.098   0.524
53846W        W26172  38.613  34.093  13.504
53847W        W26173  30.106   1.308   3.299
53848W        W26174   1.907   3.733  11.404
53849W        W26175  13.389   8.548  13.753
53850W        W26176  32.510  11.709   3.759
53851W        W26177   9.637  18.721   2.202
53852W        W26178  39.789  22.784  12.004
53853W        W26179   0.389  17.799   3.718
53854W        W26180  10.935  15.274  14.897
53855W        W26181   6.101  33.399  13.388
53856W        W26182  14.165   7.898   1.267
53857W        W26183   2.536  38.037   3.166
53858W        W26184  43.535  38.118  12.049
53859W        W26185  41.394  13.073  14.394
53860W        W26186   1.554  18.061  13.967
53861W        W26187  37.850   3.959  12.201
53862W        W26188  14.064  10.214  13.241
53863W        W26189   4.266   8.154  10.754
53864W        W26190  10.866  11.779   1.329
53865W        W26191   4.325   6.826   3.387
53866W        W26192  44.221  13.626   1.368
53867W        W26193  33.192  26.080   1.977
53868W        W26194   5.838  25.179  12.598
53869W        W26195  38.794   0.745  14.657
53870W        W26196   6.665   5.404   1.392
53871W        W26197  11.454  39.444  11.579
53872W        W26198   5.992   9.030   4.561
53873W        W26199  25.576   4.966  11.447
53874W        W26200   3.217  22.715  14.017
53875W        W26201  42.223   2.871   1.273
53876W        W26202   6.638  22.769  10.876
53877W        W26203  33.947  41.128   3.948
53878W        W26204  20.186  34.906  12.528
53879W        W26205  14.315  40.411   1.073
53880W        W26206   6.207  11.572   0.202
53881W        W26207   6.432  34.987   2.649
53882W        W26208  36.432  27.533   0.915
53883W        W26209  17.303  24.191  10.226
53884W        W26210  24.168  12.806   0.467
53885W        W26211  31.345   1.295  14.021
53886W        W26212  34.918  21.070  12.837
53887W        W26213  15.799  37.339  11.290
53888W        W26214   3.771  43.297  11.053
53889W        W26215  42.062   3.470   1.300
53890W        W26216   5.391  32.687  14.799
53891W        W26217  11.249  37.340   0.026
53892W        W26218   1.285   2.713  14.430
53893W        W26219  38.053  23.203  10.656
53894W        W26220  34.412   5.846  13.593
53895W        W26221  11.878   0.781   4.151
53896W        W26222  15.721  14.817  13.879
53897W        W26223  30.912  40.910   0.959
53898W        W26224   8.785  29.985   3.383
53899W        W26225   0.877   1.964  11.874
53900W        W26226   2.725  36.050  11.998
53901W        W26227   1.343  41.497  14.313
53902W        W26228   3.017  35.826  10.687
53903W        W26229   7.303  24.373  11.155
53904W        W26230  30.210  18.063   4.070
53905W        W26231   1.398  40.043  13.066
53906W        W26232   9.828  33.883   1.762
53907W        W26233  30.967   6.598  12.415
53908W        W26234  27.302  31.802  13.870
53909W        W26235  16.473   1.413  14.440
53910W        W26236  20.990  11.298  11.507
53911W        W26237   3.230   9.387   0.701
53912W        W26238  22.316   4.608  10.824
53913W        W26239  14.768  17.185   4.129
53914W        W26240  25.188  37.892  11.876
53915W        W26241   1.480  44.551   3.335
53916W        W26242   7.395   2.338   1.759
53917W        W26243  32.907  28.618  13.797
53918W        W26244  33.346  40.504  12.898
53919W        W26245  28.452  23.604   2.397
53920W        W26246   9.645   1.509   0.882
53921W        W26247   7.509  36.117  12.093
53922W        W26248  12.901  22.574   1.792
53923W        W26249  30.954  29.538  14.328
53924W        W26250  25.070  33.553   2.290
53925W        W26251  29.031  28.169   1.390
53926W        W26252  36.592  38.965   0.432
53927W        W26253   2.940  25.224   4.772
53928W        W26254  14.157  26.659   0.389
53929W        W26255  11.671  32.053  14.940
53930W        W26256  23.517  21.081   4.128
53931W        W26257  19.998  17.572   0.485
53932W        W26258  15.061   5.752  11.489
53933W        W26259  40.073  28.422  13.945
53934W        W26260   9.892  39.781   4.651
53935W        W26261  37.137  38.568  11.147
53936W        W26262  34.111  39.353   2.840
53937W        W26263  39.493   8.253   2.329
53938W        W26264  15.641  39.949  11.079
53939W        W26265   6.003  40.978  14.369
53940W        W26266  43.791  34.953  11.104
53941W        W26267   2.967   0.455  14.930
53942W        W26268  43.512  23.236  11.822
53943W        W26269   8.388  25.639  10.600
53944W        W26270  37.184  24.717   0.323
53945W        W26271  29.358   3.456   0.913
53946W        W26272  29.413  24.201  13.047
53947W        W26273  27.826  24.168   4.909
53948W        W26274  26.897  10.173  11.205
53949W        W26275  30.653  27.615  12.917
53950W        W26276  32.601  19.742   4.618
53951W        W26277  37.864   4.881  12.015
53952W        W26278  26.228   5.318  10.786
53953W        W26279  32.535   6.190   1.244
53954W        W26280  18.104   7.362   3.285
53955W        W26281  39.064  16.730   3.322
53956W        W26282   2.239   3.468   0.308
53957W        W26283  17.052  43.270   1.423
53958W        W26284   0.040  13.319   1.880
53959W        W26285   7.301  14.073  13.039
53960W        W26286  35.430  13.315  13.782
53961W        W26287  42.457  37.432   3.792
53962W        W26288  44.355  19.557   0.208
53963W        W26289  11.707  12.135   2.776
53964W        W26290   1.316   2.772   0.304
53965W        W26291   1.679  35.996   0.962
53966W        W26292  30.845  25.243  10.983
53967W        W26293  33.917  25.662   1.276
53968W        W26294  31.609  24.187  10.780
53969W        W26295  10.831   2.985  14.421
53970W        W26296  39.293   9.753   4.129
53971W        W26297  43.931  26.169  13.485
53972W        W26298   5.323   0.533  11.594
53973W        W26299  12.385  32.036   3.649
53974W        W26300  24.695  22.611  12.790
53975W        W26301  21.514  42.941  11.077
53976W        W26302  13.163  29.598  14.505
53977W        W26303  13.578  33.452   2.336
53978W        W26304  25.259  24.586   3.732
53979W        W26305  34.547   0.510   2.622
53980W        W26306  37.310   8.499  14.302
53981W        W26307  29.094  30.959  13.001
53982W        W26308  18.452  19.769  11.658
53983W        W26309   5.664  21.745   1.982
53984W        W26310  20.014  18.779   3.081
53985W        W26311  40.493  35.837  12.377
53986W        W26312  10.732  26.121   1.846
53987W        W26313  34.144   2.175   2.821
53988W        W26314  11.799   7.423  14.368
53989W        W26315  37.988  22.543   1.245
53990W        W26316   1.514  41.551   4.262
53991W        W26317  28.934  23.943   2.542
53992W        W26318  10.252  41.302  10.743
53993W        W26319  31.393  30.160   0.831
53994W        W26320  13.855  42.435   4.797
53995W        W26321  24.043   3.795   4.271
53996W        W26322  41.299  11.040   0.444
53997W        W26323  39.188  13.912  10.575
53998W        W26324  43.840  16.183   1.542
53999W        W26325  44.390   8.452  11.500
54000W        W26326  15.211   2.203   4.297
54001W        W26327  15.256  34.342   4.653
54002W        W26328  33.740  43.473  12.071
54003W        W26329  42.783   9.593   4.808
54004W        W26330  36.821  19.753  12.684
54005W        W26331  31.531   5.655  13.739
54006W        W26332  29.838  25.040  10.618
54007W        W26333  41.874   8.891   3.284
54008W        W26334  16.690  10.229  12.648
54009W        W26335   5.282  14.689  14.366
54010W        W26336  28.205   4.658   5.041
54011W        W26337   0.944  16.241  14.909
54012W        W26338  12.889  23.498   2.659
54013W        W26339  19.142  43.124  13.706
54014W        W26340  43.886   1.350  11.162
54015W        W26341  19.735   4.915   3.368
54016W        W26342   9.787  19.253   1.211
54017W        W26343  41.870  24.265   1.846
54018W        W26344  31.129  31.452  12.598
54019W        W26345  25.289   3.344  12.632
54020W        W26346   6.822   8.609  14.825
54021W        W26347   1.967  15.160   1.371
54022W        W26348  18.542  37.772  11.657
54023W        W26349  34.080  38.502  10.599
54024W        W26350  31.661  44.536  13.929
54025W        W26351  24.037  21.711   4.438
54026W        W26352  16.570   3.915   0.809
54027W        W26353  17.638  25.654   0.698
54028W        W26354  22.285  26.623   0.434
54029W        W26355  43.333  19.595  11.046
54030W        W26356   5.498  34.917   2.537
54031W        W26357  22.754   2.956   2.665
54032W        W26358  36.605  35.874   4.681
54033W        W26359  14.276  13.904  12.893
54034W        W26360  37.341  37.923  13.125
54035W        W26361   8.857  22.035   1.549
54036W        W26362  37.354  37.394   2.291
54037W        W26363  29.978   6.258  12.464
54038W        W26364  11.450  37.558   2.269
54039W        W26365  12.288  25.564  10.594
54040W        W26366  20.818  41.253  11.041
54041W        W26367   6.366  29.662   2.387
54042W        W26368  25.377  41.968  12.049
54043W        W26369  37.541  20.706  12.117
54044W        W26370  39.376  24.312  14.007
54045W        W26371  24.680  38.161   1.669
54046W        W26372  33.393   9.588  14.499
54047W        W26373  20.731  43.519   0.671
54048W        W26374  40.179   8.265  13.457
54049W        W26375  26.784   6.764  14.537
54050W        W26376  25.476  30.217  12.383
54051W        W26377  22.533  30.621   4.591
54052W        W26378  40.864  10.639   4.539
54053W        W26379  17.273  28.886  13.532
54054W        W26380  35.593  31.963   2.194
54055W        W26381   6.654   7.095  12.535
54056W        W26382  36.634  38.871  12.008
54057W        W26383  40.971  30.594  14.510
54058W        W26384  13.215   1.258   3.255
54059W        W26385  16.775  41.813  12.081
54060W        W26386  33.606  11.729   1.694
54061W        W26387  24.694  27.103   0.279
54062W        W26388  35.605  17.673  13.099
54063W        W26389  10.869   8.824   2.754
54064W        W26390  20.775  38.789   1.239
54065W        W26391   0.235   6.455   0.289
54066W        W26392  41.961   4.503   4.612
54067W        W26393  27.872  10.651  12.568
54068W        W26394   1.761  22.584  14.880
54069W        W26395   6.423  13.664   0.167
54070W        W26396  44.085  28.175  10.992
54071W        W26397  16.599  25.404  11.539
54072W        W26398  11.804   0.441   0.282
54073W        W26399  34.285  34.638   0.658
54074W        W26400   1.859  12.756   2.844
54075W        W26401  36.476   0.382   4.351
54076W        W26402  37.930   0.833  12.555
54077W        W26403   9.299   7.226  12.865
54078W        W26404  34.457  18.289   4.658
54079W        W26405  14.772  16.475   1.932
54080W        W26406   7.427  33.476   1.725
54081W        W26407  16.820   1.244  12.533
54082W        W26408  41.605  12.169  13.437
54083W        W26409  16.940  25.649   3.639
54084W        W26410  39.145   7.791   1.302
54085W        W26411  32.419  14.739   1.771
54086W        W26412  29.992  28.555  14.280
54087W        W26413  10.877   6.474   3.898
54088W        W26414  15.714   5.225   0.077
54089W        W26415   8.210  16.059  11.612
54090W        W26416  17.202  32.132  14.064
54091W        W26417  21.100   8.462  10.412
54092W        W26418  33.815   4.547  13.690
54093W        W26419  13.387   2.929   4.381
54094W        W26420  38.436  15.542  12.834
54095W        W26421  20.594  29.680   2.724
54096W        W26422  38.340   9.156  14.651
54097W        W26423  18.296  16.949  10.685
54098W        W26424  36.158  17.467   4.059
54099W        W26425   6.815  29.595  13.890
54100W        W26426  44.906  29.033   4.842
54101W        W26427  27.946  44.400   1.285
54102W        W26428  16.820  10.216   4.772
54103W        W26429   2.397  23.430  13.030
54104W        W26430  24.941  25.994   2.296
54105W        W26431  29.927  28.011  14.117
54106W        W26432  41.388  12.292   0.785
54107W        W26433  14.209  19.820  10.244
54108W        W26434  30.339  17.917  11.613
54109W        W26435  35.613  12.494   1.845
54110W        W26436  10.140  34.991   0.312
54111W        W26437  38.916  41.855   5.022
54112W        W26438  21.895  42.677   4.152
54113W        W26439   7.532  39.048  14.419
54114W        W26440  10.686  20.475   3.233
54115W        W26441  28.934  39.076   1.709
54116W        W26442  42.953  19.756   4.771
54117W        W26443   1.251  10.741  10.483
54118W        W26444  36.026  18.259  13.532
54119W        W26445  23.609  37.859   1.240
54120W        W26446  20.448  15.085  13.453
54121W        W26447  17.257   5.939  10.342
54122W        W26448  15.275   8.083  14.312
54123W        W26449   4.740  20.223   3.678
54124W        W26450  24.997   0.329  12.525
54125W        W26451  14.298   2.277  11.513
54126W        W26452   1.983  35.301   0.042
54127W        W26453  19.626  44.347  11.500
54128W        W26454  12.639   9.304   1.930
54129W        W26455  36.232  10.487   4.323
54130W        W26456  23.720  30.432   1.957
54131W        W26457  32.186  24.071  13.993
54132W        W26458  24.847  40.332   5.150
54133W        W26459  27.749  28.750   3.300
54134W        W26460  28.018  43.151  12.393
54135W        W26461  34.959  31.830  11.389
54136W        W26462  12.322  31.596   2.208
54137W        W26463  33.847  18.162  13.113
54138W        W26464   8.094  13.564   2.293
54139W        W26465   1.772  17.132  12.014
54140W        W26466  26.945  23.435   4.522
54141W        W26467   4.170  11.201  12.474
54142W        W26468  28.170  41.742   1.451
54143W        W26469  35.531  10.680  14.459
54144W        W26470   6.745  29.606  14.894
54145W        W26471  10.935  13.291  12.558
54146W        W26472   9.345  37.897  14.958
54147W        W26473  34.515  15.854  13.776
54148W        W26474  24.084  31.357  13.983
54149W        W26475  15.614  28.453   2.392
54150W        W26476   9.181  20.851   2.275
54151W        W26477  11.991  10.173  14.538
54152W        W26478  13.657  43.787  11.103
54153W        W26479   7.819  10.854   4.566
54154W        W26480  42.239  28.311   2.325
54155W        W26481  26.077  32.763  11.062
54156W        W26482  16.362  37.456   2.182
54157W        W26483  27.612  37.675  13.021
54158W        W26484  35.085  41.917  12.610
54159W        W26485   4.532  11.655   2.432
54160W        W26486  15.595  32.084  14.409
54161W        W26487  31.847   4.802  13.571
54162W        W26488  18.578  32.497   1.837
54163W        W26489  35.941  28.474  12.865
54164W        W26490   9.251  36.556   1.929
54165W        W26491  17.635  11.272  11.615
54166W        W26492  11.890  23.548  11.620
54167W        W26493  15.219  42.304  12.812
54168W        W26494   7.322  16.054  12.836
54169W        W26495   5.716   4.855   0.546
54170W        W26496  27.478   5.214   4.117
54171W        W26497  16.162   8.944   4.515
54172W        W26498  20.093  39.273   4.922
54173W        W26499  35.396  37.838  13.986
54174W        W26500  33.374  19.547   1.822
54175W        W26501  11.667  31.932  12.717
54176W        W26502   6.399   4.996   4.535
54177W        W26503  22.183  35.422  14.028
54178W        W26504  21.174  38.300   1.250
54179W        W26505  20.853  17.039  14.856
54180W        W26506   5.455  10.374  14.817
54181W        W26507  22.991  12.847  12.979
54182W        W26508   6.777  43.578   4.138
54183W        W26509  25.991  41.327  14.965
54184W        W26510  30.964  20.735   3.757
54185W        W26511   6.696  41.393  14.895
54186W        W26512  17.161  29.772   2.607
54187W        W26513  29.680  17.991   2.842
54188W        W26514  18.577   1.478  10.660
54189W        W26515  42.348  21.650   2.969
54190W        W26516   1.006  36.036   3.337
54191W        W26517  28.594  42.263  14.878
54192W        W26518  38.059  23.190   1.982
54193W        W26519  32.068  28.867  10.969
54194W        W26520  13.467   0.755  12.569
54195W        W26521   0.054  14.869   0.904
54196W        W26522  28.963   5.374   3.333
54197W        W26523   4.794  14.793   0.346
54198W        W26524   8.869  26.320  13.363
54199W        W26525  27.818  41.210   0.436
54200W        W26526   2.095   0.365  13.320
54201W        W26527   4.808  25.314   2.156
54202W        W26528   2.899  16.120  11.269
54203W        W26529  19.652  26.518   0.227
54204W        W26530  13.036   9.558  11.956
54205W        W26531  16.376  31.576  11.516
54206W        W26532  15.252  21.068  12.421
54207W        W26533   1.724   9.024   5.246
54208W        W26534  21.518  21.725   0.916
54209W        W26535   7.973  24.212   1.802
54210W        W26536   6.100  25.825  11.210
54211W        W26537  31.836  43.888  12.034
54212W        W26538  31.791  27.723   4.844
54213W        W26539   3.732  24.270  13.407
54214W        W26540  38.326  30.949   0.521
54215W        W26541  18.756  17.242   0.343
54216W        W26542  30.648  23.227  11.421
54217W        W26543  25.905  15.787  13.886
54218W        W26544  36.588   4.421  12.116
54219W        W26545  29.594  17.620   4.084
54220W        W26546  43.688  33.039  14.131
54221W        W26547  40.541  23.022   2.858
54222W        W26548  30.872  13.197   2.223
54223W        W26549  17.802  44.893   1.673
54224W        W26550  13.374  18.218   0.863
54225W        W26551   7.194   7.148  11.830
54226W        W26552  44.233  34.145  11.348
54227W        W26553  44.930  24.651   2.827
54228W        W26554  17.293  16.803   3.822
54229W        W26555   7.151  14.727   2.729
54230W        W26556  15.518  30.891   0.724
54231W        W26557  24.365  36.752   4.186
54232W        W26558   8.680  21.269  14.326
54233W        W26559  23.515  11.705   0.471
54234W        W26560  44.756   2.770   3.549
54235W        W26561  36.013  29.935  10.956
54236W        W26562   0.902  10.535   5.548
54237W        W26563   9.843  18.180   4.671
54238W        W26564  42.426   6.721  11.680
54239W        W26565  42.751   3.847  10.930
54240W        W26566   6.096  29.974  14.575
54241W        W26567  18.566  16.641   2.849
54242W        W26568   4.302  37.544   4.378
54243W        W26569  29.695   3.928   1.785
54244W        W26570  42.668  21.900  10.997
54245W        W26571  44.409  33.633   3.187
54246W        W26572  15.175  44.934  12.894
54247W        W26573  36.778   2.303  12.438
54248W        W26574  19.950  18.647   2.074
54249W        W26575  17.796   7.327   2.892
54250W        W26576  26.765  26.387   2.373
54251W        W26577   0.517   5.329  10.935
54252W        W26578   8.291  12.919   3.330
54253W        W26579  33.423  36.118  12.973
54254W        W26580  40.375  13.848  14.066
54255W        W26581  12.858  20.165  14.049
54256W        W26582  23.497  27.951   1.762
54257W        W26583  22.630   1.556   2.667
54258W        W26584  19.426   6.290  12.569
54259W        W26585  41.300  33.972   2.241
54260W        W26586  14.548  44.371  12.847
54261W        W26587  41.423  23.116   4.643
54262W        W26588  27.632   1.419   1.270
54263W        W26589   1.757  19.609  12.428
54264W        W26590  36.552  17.563  14.321
54265W        W26591  38.435  21.780   1.319
54266W        W26592  24.521   2.911  14.763
54267W        W26593  28.117  35.171   4.192
54268W        W26594  44.329  39.985  11.221
54269W        W26595  12.847  15.321  10.760
54270W        W26596  17.277  14.832   2.149
54271W        W26597   6.006  26.028  13.403
54272W        W26598  28.561  10.917   0.499
54273W        W26599  30.623   0.712  13.101
54274W        W26600  16.726  33.384  12.425
54275W        W26601  18.299  33.911  11.155
54276W        W26602  28.684  21.308  12.397
54277W        W26603  17.733  21.452  10.593
54278W        W26604  19.338  12.112  11.610
54279W        W26605  42.809  18.247   3.090
54280W        W26606  21.169  26.692   0.048
54281W        W26607  24.737  21.937  11.531
54282W        W26608   1.146   0.381  12.409
54283W        W26609   9.819   1.961  12.124
54284W        W26610  43.076  33.555  12.370
54285W        W26611  35.287  40.494   1.353
54286W        W26612  17.183  21.608   0.416
54287W        W26613  20.765   9.946   1.018
54288W        W26614  12.297  13.528  11.450
54289W        W26615  16.567  18.575  13.754
54290W        W26616   8.049  20.695  12.946
54291W        W26617  30.877  12.471  11.473
54292W        W26618  35.305  33.158   5.526
54293W        W26619  13.689  32.531   3.869
54294W        W26620  21.541  22.008   0.491
54295W        W26621  34.344  37.111   4.595
54296W        W26622  12.892  34.145  14.411
54297W        W26623   0.777   6.683   3.106
54298W        W26624   5.400  26.033   2.307
54299W        W26625  25.452   7.361  10.809
54300W        W26626  11.596  15.787  11.499
54301W        W26627  21.065  36.642   0.311
54302W        W26628  31.197  19.700   3.880
54303W        W26629  27.481   0.689  13.809
54304W        W26630  37.278   2.731   2.372
54305W        W26631  17.038  28.619   4.052
54306W        W26632  29.993  30.328  11.643
54307W        W26633   0.930  15.691   3.268
54308W        W26634  41.119  28.277  13.067
54309W        W26635  25.701  10.887   4.857
54310W        W26636  34.952  11.114   4.585
54311W        W26637  31.215  29.961  14.530
54312W        W26638  25.442  43.248  10.645
54313W        W26639  43.965  38.302   3.295
54314W        W26640  17.709  10.147   4.703
54315W        W26641  41.959  15.290   2.685
54316W        W26642   6.812  37.624  13.957
54317W        W26643  34.910  35.596   4.027
54318W        W26644  14.548  23.956  12.381
54319W        W26645   8.874  26.951  12.935
54320W        W26646  17.732   2.875   2.464
54321W        W26647  10.897  17.343  11.134
54322W        W26648  43.764  41.064  14.513
54323W        W26649  30.220   0.895   0.937
54324W        W26650  36.315  30.013  11.640
54325W        W26651  20.128  28.582   1.376
54326W        W26652  41.013   9.687  11.050
54327W        W26653  37.047  17.118  10.681
54328W        W26654  40.522  35.462   2.171
54329W        W26655  42.213  17.599   3.394
54330W        W26656  17.828  39.673   3.733
54331W        W26657   4.028  39.024  14.320
54332W        W26658  37.586   6.418   2.901
54333W        W26659  36.151  13.095  12.423
54334W        W26660  25.753  27.653  14.201
54335W        W26661  26.690  26.255  13.847
54336W        W26662  18.472  37.385   3.834
54337W        W26663   6.605  13.192  12.557
54338W        W26664  27.139  20.929   3.877
54339W        W26665   2.125  17.766  14.809
54340W        W26666  16.529  13.273   3.512
54341W        W26667  22.145   7.798  10.538
54342W        W26668  28.127   0.721   0.853
54343W        W26669  28.949  42.317  13.769
54344W        W26670  30.896  33.053   1.831
54345W        W26671  44.253  15.770   1.713
54346W        W26672  34.616  21.226   1.207
54347W        W26673  24.165  41.990   3.795
54348W        W26674  31.677  15.368  11.547
54349W        W26675  37.121   5.800   2.613
54350W        W26676  14.125  15.502   2.391
54351W        W26677  19.673   7.620  12.626
54352W        W26678  35.421  23.788   4.749
54353W        W26679  23.255   3.282   4.331
54354W        W26680  33.248  32.653  14.823
54355W        W26681  14.674  43.239  14.880
54356W        W26682  42.733  11.243  14.752
54357W        W26683   5.838  24.481   2.775
54358W        W26684  37.537   2.267  13.946
54359W        W26685  12.587  38.181   1.507
54360W        W26686   9.624  10.714  12.522
54361W        W26687   3.701  18.113  11.713
54362W        W26688  42.944  37.508  11.262
54363W        W26689  28.689  16.255  14.779
54364W        W26690  10.001  26.213  12.046
54365W        W26691   9.663   4.450   2.676
54366W        W26692  14.151   4.552   0.679
54367W        W26693   2.349   7.728   1.034
54368W        W26694  41.976  42.099  13.220
54369W        W26695  16.090  41.813  13.057
54370W        W26696  21.469  32.094   4.114
54371W        W26697  40.952   8.402  14.510
54372W        W26698  29.501  24.678   3.308
54373W        W26699  23.438   5.574   3.694
54374W        W26700   3.398   4.030   3.692
54375W        W26701  44.027   1.014   4.708
54376W        W26702  29.598   9.093  12.600
54377W        W26703  21.205  21.993   4.888
54378W        W26704  19.641  42.309   3.913
54379W        W26705  37.568  23.984   0.264
54380W        W26706  39.887  25.122   2.803
54381W        W26707  33.683  33.440   2.495
54382W        W26708  10.851  36.614  14.559
54383W        W26709  15.687  29.525   4.598
54384W        W26710  39.378   9.345  13.084
54385W        W26711  21.037  23.604   3.098
54386W        W26712  16.774  16.572  12.369
54387W        W26713  33.849   5.966   0.960
54388W        W26714  28.826  34.395   4.443
54389W        W26715  25.987  44.947  11.983
54390W        W26716  27.605   4.322  11.082
54391W        W26717  27.615  30.683  14.230
54392W        W26718  10.164   4.205  14.340
54393W        W26719  22.587  26.597  12.623
54394W        W26720  40.950   0.649  11.950
54395W        W26721  14.396  16.335  14.387
54396W        W26722  44.248  35.607  14.601
54397W        W26723  43.805  10.898  14.436
54398W        W26724  13.379   7.871  11.036
54399W        W26725  16.278  13.379   0.307
54400W        W26726  37.144  44.133  14.457
54401W        W26727  21.648  40.593   3.919
54402W        W26728  43.784  39.828  13.954
54403W        W26729  44.030  43.104   1.406
54404W        W26730  18.357  12.175  13.468
54405W        W26731  26.683  25.078   4.147
54406W        W26732   5.200  36.131   4.973
54407W        W26733  33.057  20.222  10.538
54408W        W26734  28.970   3.387  12.106
54409W        W26735  21.701  44.538  14.817
54410W        W26736   9.338  22.201   1.767
54411W        W26737   0.959  44.139  14.866
54412W        W26738  26.492  28.538  14.851
54413W        W26739   9.971  40.512   1.804
54414W        W26740  12.660  34.873  11.388
54415W        W26741  35.894  34.565   3.316
54416W        W26742  43.434  39.772  14.489
54417W        W26743  19.509   5.501  14.921
54418W        W26744   1.610  44.650  10.697
54419W        W26745  29.649  34.465   4.314
54420W        W26746   9.798  37.318  14.473
54421W        W26747  18.028  21.670   1.482
54422W        W26748  29.876   8.599   0.988
54423W        W26749   5.898  34.509  11.721
54424W        W26750  27.072  19.458  13.377
54425W        W26751  18.487   5.796  13.105
54426W        W26752  22.186   7.296  14.717
54427W        W26753  22.678  17.114  12.399
54428W        W26754  41.630   5.808  11.191
54429W        W26755  10.237  44.905  14.692
54430W        W26756  33.527  13.119  14.958
54431W        W26757  13.259  38.142   4.109
54432W        W26758  23.162  40.031   0.078
54433W        W26759  10.387  13.523  14.853
54434W        W26760   5.355  17.140   1.829
54435W        W26761  30.487  40.847   3.119
54436W        W26762  23.767  25.955   2.805
54437W        W26763  31.868  34.571   1.127
54438W        W26764  35.833  17.224  13.325
54439W        W26765  13.615   9.455   1.798
54440W        W26766   5.173  25.850  12.275
54441W        W26767  39.316   9.261   3.878
54442W        W26768  14.073  24.102  14.958
54443W        W26769  11.292   9.991   1.257
54444W        W26770   6.051   1.339   1.416
54445W        W26771   3.425   0.428  11.508
54446W        W26772   8.127  38.921  11.543
54447W        W26773  29.957  42.272  12.662
54448W        W26774  27.987  28.680   2.407
54449W        W26775   7.305  18.743   2.402
54450W        W26776  31.908   7.828   5.022
54451W        W26777   1.044   6.182   1.303
54452W        W26778  44.744  13.221  11.512
54453W        W26779  14.844   8.916   0.573
54454W        W26780  32.650  26.324  14.097
54455W        W26781  43.948  33.164  11.542
54456W        W26782  13.094   1.366   1.279
54457W        W26783   5.430  28.123  12.125
54458W        W26784  12.101  43.397   3.147
54459W        W26785  36.607  26.049   2.177
54460W        W26786  14.842  19.543  12.045
54461W        W26787  22.976  31.555   3.277
54462W        W26788  34.453  36.947  14.055
54463W        W26789   3.838  41.347   2.613
54464W        W26790   5.813  30.153   4.692
54465W        W26791  41.085  21.143  14.483
54466W        W26792   4.764  12.333   4.511
54467W        W26793  30.067  21.044  11.992
54468W        W26794  37.260  33.467   2.902
54469W        W26795  39.627  35.538  12.129
54470W        W26796  14.743  39.567   2.362
54471W        W26797  44.362  35.023  11.213
54472W        W26798   1.472  19.170   4.734
54473W        W26799   0.837  34.372   0.455
54474W        W26800  37.475  22.041   4.294
54475W        W26801  23.987  31.127  13.189
54476W        W26802  14.702  30.171   4.988
54477W        W26803  19.638  43.095  14.390
54478W        W26804  13.651   6.640   4.724
54479W        W26805  30.111  20.044  14.866
54480W        W26806  40.022  12.863   1.764
54481W        W26807  44.947  34.619   4.152
54482W        W26808  43.496   0.734  11.741
54483W        W26809  12.183   8.698  11.483
54484W        W26810  25.414  32.530   1.565
54485W        W26811   0.804  42.441   1.356
54486W        W26812  16.329   9.760   0.249
54487W        W26813  31.700  17.185  14.274
54488W        W26814  19.680  19.725   3.888
54489W        W26815  41.090   8.430   2.827
54490W        W26816  16.557  21.267   4.765
54491W        W26817  19.351  33.345   1.215
54492W        W26818  13.323   9.180  12.155
54493W        W26819   2.775  25.449  13.536
54494W        W26820  29.248  29.508   2.628
54495W        W26821  24.546  12.659   3.535
54496W        W26822  41.759  26.602   2.750
54497W        W26823  44.051   9.462  11.904
54498W        W26824  28.528   1.058   1.543
54499W        W26825  27.074  11.856   2.360
54500W        W26826  36.455  33.259  11.086
54501W        W26827  14.033  31.398  13.896
54502W        W26828  29.539  25.979   9.718
54503W        W26829   1.842  41.587   3.549
54504W        W26830  32.147   7.152   1.851
54505W        W26831  24.881  36.897   4.147
54506W        W26832   5.847  13.223   3.755
54507W        W26833  25.332   1.758  11.574
54508W        W26834  17.129   2.392   3.238
54509W        W26835  29.285  10.871   4.155
54510W        W26836   0.383  27.902  13.226
54511W        W26837  40.055   0.213  10.778
54512W        W26838  36.090  41.952  12.563
54513W        W26839  33.645  26.730  11.189
54514W        W26840  16.109  30.702  12.393
54515W        W26841   0.375  29.469  11.524
54516W        W26842  23.264   6.222  13.375
54517W        W26843  27.451  13.598   3.740
54518W        W26844   4.436  33.029  13.426
54519W        W26845  43.330  18.151  11.083
54520W        W26846   7.908   6.568   3.461
54521W        W26847   7.452   7.421  12.920
54522W        W26848  21.689   7.702  10.972
54523W        W26849  10.725   7.763  13.681
54524W        W26850  23.577  38.007   0.729
54525W        W26851  21.533  30.687   1.427
54526W        W26852   7.509   8.452  11.190
54527W        W26853  23.974  42.312   0.398
54528W        W26854  26.405  31.203  13.359
54529W        W26855  32.572  13.708  13.946
54530W        W26856  42.424  40.383   1.899
54531W        W26857  29.152  20.228   0.977
54532W        W26858  16.155  34.703   1.916
54533W        W26859  14.571  34.108  11.386
54534W        W26860  17.927  33.317   0.421
54535W        W26861  42.858  16.251  13.977
54536W        W26862  26.517  25.550  12.170
54537W        W26863  35.447   7.610  12.137
54538W        W26864   6.151   2.920   1.871
54539W        W26865   6.367  14.060   0.521
54540W        W26866   5.837  26.011  10.550
54541W        W26867  40.117  37.309  11.499
54542W        W26868  39.422   5.321  12.629
54543W        W26869  38.868  43.967   2.651
54544W        W26870  39.912  44.946   1.636
54545W        W26871  11.246  36.585  12.895
54546W        W26872  30.453   1.784  11.339
54547W        W26873  35.340  13.788   0.955
54548W        W26874   0.243  44.317   0.401
54549W        W26875  37.050  15.237   1.190
54550W        W26876   2.484  26.961   1.206
54551W        W26877   3.798  44.470   0.260
54552W        W26878  42.298  24.779   3.821
54553W        W26879  17.349  10.362   1.687
54554W        W26880   3.313  24.032   5.093
54555W        W26881  36.417  32.062   2.784
54556W        W26882  44.420  24.029   2.360
54557W        W26883  27.924   0.840   4.945
54558W        W26884  42.765  16.245   1.707
54559W        W26885  11.909  19.920  11.069
54560W        W26886   4.858  21.354  11.106
54561W        W26887   9.827  10.390  13.975
54562W        W26888  30.544  39.230   1.419
54563W        W26889  25.669  13.123  10.646
54564W        W26890  38.081  40.521  13.457
54565W        W26891  17.092  21.025   2.232
54566W        W26892  25.527  36.307   4.138
54567W        W26893   5.689  42.324  14.971
54568W        W26894   1.425   8.434   4.531
54569W        W26895  42.318  12.660  14.362
54570W        W26896   2.198  24.127   0.937
54571W        W26897  15.842   2.491   0.883
54572W        W26898   5.448  42.589   1.243
54573W        W26899  22.957   2.285  12.462
54574W        W26900   7.303   8.137   2.666
54575W        W26901  13.096  35.882   9.898
54576W        W26902  20.306   5.246   2.162
54577W        W26903  19.691  18.527  12.605
54578W        W26904  26.008  43.993   3.793
54579W        W26905   4.481  12.699  13.575
54580W        W26906  29.547  34.105   4.681
54581W        W26907   7.671  42.721   3.707
54582W        W26908  32.914  39.281  11.101
54583W        W26909  12.657  11.578   0.240
54584W        W26910   8.277  26.302  11.216
54585W        W26911  15.344  43.829   2.709
54586W        W26912  24.724  26.629  14.384
54587W        W26913  28.569  40.967   2.787
54588W        W26914   6.532  43.838  13.131
54589W        W26915  32.494  25.311  10.621
54590W        W26916   1.114   2.004   2.230
54591W        W26917  35.860  32.884   1.290
54592W        W26918  39.421  42.788  11.300
54593W        W26919  34.799  13.445  14.906
54594W        W26920  11.348  15.730   1.165
54595W        W26921  31.562  43.209   1.046
54596W        W26922  10.101  11.342   1.393
54597W        W26923  25.021  43.381   5.035
54598W        W26924  12.160  29.629  14.377
54599W        W26925  23.704  40.126   1.096
54600W        W26926  43.309   2.714   1.468
54601W        W26927  26.376  28.967  13.021
54602W        W26928  23.284  13.228  12.258
54603W        W26929   0.536   9.646   2.320
54604W        W26930   7.269   8.776  12.980
54605W        W26931  13.594  29.427  14.233
54606W        W26932  40.812  38.423  12.827
54607W        W26933  38.064  27.487   1.096
54608W        W26934  14.321  22.076   0.019
54609W        W26935  19.150  34.715  11.064
54610W        W26936  19.908   1.211   0.798
54611W        W26937  16.673  40.621   0.963
54612W        W26938  10.096   1.836   2.357
54613W        W26939  25.536  41.781  13.831
54614W        W26940  22.503  34.224   3.869
54615W        W26941  27.398  35.331  14.265
54616W        W26942  11.798  21.957  12.965
54617W        W26943  33.970  41.311   0.678
54618W        W26944  32.728  22.624  10.797
54619W        W26945  42.435  21.365   5.052
54620W        W26946   1.201   9.876   4.694
54621W        W26947  22.969  14.711  13.342
54622W        W26948   7.405  11.888  12.010
54623W        W26949  39.966  21.794   0.764
54624W        W26950  19.080  43.380   0.063
54625W        W26951  33.450  12.032   4.274
54626W        W26952  39.105  28.236  11.097
54627W        W26953   4.240  27.383   1.880
54628W        W26954  38.034  20.851  13.009
54629W        W26955  43.256  35.655   1.473
54630W        W26956  35.051  44.359   0.756
54631W        W26957  28.323  43.999  13.636
54632W        W26958  30.631  35.795  11.107
54633W        W26959   7.832  37.435  14.507
54634W        W26960  16.823   7.220  14.041
54635W        W26961   0.385  14.345  13.734
54636W        W26962   8.685  25.865  14.128
54637W        W26963  37.633  41.064   1.270
54638W        W26964  37.065  37.015   0.835
54639W        W26965  29.300  41.950  13.976
54640W        W26966  29.051  28.063  13.029
54641W        W26967  19.539  27.573  11.930
54642W        W26968  33.787   0.808  14.342
54643W        W26969  19.557   6.834   2.257
54644W        W26970  40.567  19.068  13.001
54645W        W26971  44.857  21.622  14.502
54646W        W26972  43.786  18.834  11.960
54647W        W26973   5.296  38.281  13.438
54648W        W26974  27.227   3.161   4.646
54649W        W26975  35.909  11.482   5.233
54650W        W26976  17.968  38.385   4.505
54651W        W26977   9.833  44.205   1.370
54652W        W26978  17.118   1.907  12.392
54653W        W26979  15.031   2.244  14.324
54654W        W26980  42.539  18.534  10.703
54655W        W26981  27.642  30.265   1.757
54656W        W26982  42.537  22.833   0.248
54657W        W26983   4.397  23.819   2.008
54658W        W26984   5.339  33.120   1.004
54659W        W26985  28.646  39.754  11.577
54660W        W26986  34.053  11.442   0.495
54661W        W26987  23.303  37.807   4.108
54662W        W26988   1.871  22.013   3.287
54663W        W26989  18.710  39.813   2.176
54664W        W26990  40.529  43.545  13.504
54665W        W26991  37.102   1.920  13.426
54666W        W26992  41.354  38.805  14.947
54667W        W26993   5.101  15.017   1.334
54668W        W26994  37.052  15.117  14.280
54669W        W26995  18.881  15.110  11.916
54670W        W26996  18.817  26.126  11.652
54671W        W26997  13.812  17.617  13.330
54672W        W26998  25.481  13.785   3.767
54673W        W26999  32.524  30.493  13.750
54674W        W27000  11.267   4.426  14.032
54675W        W27001  11.066  32.589   0.747
54676W        W27002   7.880  10.922  11.110
54677W        W27003  30.263  11.665  12.918
54678W        W27004   4.428  10.954  13.128
54679W        W27005  29.154  22.540   2.256
54680W        W27006  16.713  38.099   0.871
54681W        W27007  13.689  14.628  14.866
54682W        W27008  35.218  20.210   2.079
54683W        W27009  36.049  38.349   3.839
54684W        W27010   8.873   1.264   2.661
54685W        W27011  13.626  32.467  11.930
54686W        W27012  30.910   5.222   2.950
54687W        W27013  41.111  33.545  12.788
54688W        W27014  17.680  37.941   0.735
54689W        W27015  14.828   3.004   0.454
54690W        W27016  10.923   0.320  12.505
54691W        W27017   3.822  23.830   0.337
54692W        W27018  26.690   3.361   1.674
54693W        W27019  38.594  27.007   1.563
54694W        W27020  35.608   5.167   0.863
54695W        W27021  14.091  41.175   1.362
54696W        W27022  18.980  16.055  14.945
54697W        W27023  40.891  30.124  10.912
54698W        W27024  42.027  23.677   4.927
54699W        W27025  21.221  22.724  14.852
54700W        W27026   1.361  15.867  10.631
54701W        W27027  20.262  22.834   3.799
54702W        W27028  19.697  24.563   0.875
54703W        W27029  42.016  39.025   1.906
54704W        W27030  20.061  17.364   0.006
54705W        W27031  31.040  32.063   4.360
54706W        W27032  24.001   5.811   1.947
54707W        W27033  36.925  34.564  14.417
54708W        W27034   7.281   3.183  11.169
54709W        W27035  18.272  25.218   1.418
54710W        W27036  34.184  38.595   1.052
54711W        W27037  40.511  43.928   4.566
54712W        W27038  17.898  13.304   4.116
54713W        W27039  18.181  18.774   4.418
54714W        W27040  34.554   5.655  11.455
54715W        W27041  27.538  44.775  10.761
54716W        W27042  22.094  29.977  13.862
54717W        W27043   3.766  42.368   2.780
54718W        W27044  33.669  26.608  13.340
54719W        W27045  21.172  39.633  12.239
54720W        W27046   7.925  39.930   0.357
54721W        W27047   0.493  33.508  12.397
54722W        W27048  40.907  44.365   3.384
54723W        W27049  30.611   9.189  11.148
54724W        W27050   9.662  34.471   1.386
54725W        W27051  38.752  44.785   3.183
54726W        W27052   4.386  33.389   3.236
54727W        W27053  36.840  32.034  11.168
54728W        W27054  33.586  35.506   2.953
54729W        W27055  15.345  17.833   4.079
54730W        W27056   1.143  33.478   3.668
54731W        W27057  19.237  38.149  14.014
54732W        W27058   8.280   0.913  13.965
54733W        W27059  33.025   4.594   1.688
54734W        W27060  43.016   7.860  12.235
54735W        W27061  29.343  30.397   0.924
54736W        W27062   2.542  18.388  12.543
54737W        W27063  25.256   1.377   2.391
54738W        W27064  27.000  29.251  12.513
54739W        W27065   6.423  37.358  13.403
54740W        W27066  31.137   0.943   1.257
54741W        W27067  43.217  38.295   4.597
54742W        W27068  32.647  21.506  13.384
54743W        W27069  44.250  13.249  14.195
54744W        W27070  32.550  37.811   4.897
54745W        W27071   2.750   6.207   3.517
54746W        W27072   3.633  29.618   1.828
54747W        W27073  40.938  26.908   3.352
54748W        W27074  25.479   9.224  14.860
54749W        W27075  14.127  34.355  11.512
54750W        W27076   1.388  42.319  14.370
54751W        W27077   3.373   0.804  11.116
54752W        W27078  19.264   7.238  14.847
54753W        W27079  24.747   1.914   3.582
54754W        W27080  17.785  11.074  13.363
54755W        W27081  23.449  36.937   4.177
54756W        W27082  25.790  37.603   4.716
54757W        W27083  16.680   8.028   3.371
54758W        W27084  28.726   8.985  12.091
54759W        W27085   1.339  33.191  10.368
54760W        W27086  17.761  21.758   4.711
54761W        W27087  34.865  25.485   2.577
54762W        W27088  43.554  16.121  12.559
54763W        W27089  11.075  27.066  13.006
54764W        W27090  44.935  16.238   2.343
54765W        W27091  19.005  11.762  11.028
54766W        W27092   6.800  17.142  10.737
54767W        W27093  37.357   8.751   9.784
54768W        W27094  27.229  41.906  10.945
54769W        W27095  31.908  18.232  11.567
54770W        W27096  29.832   4.855  13.400
54771W        W27097  18.314  15.098  11.067
54772W        W27098   5.035   2.342   3.709
54773W        W27099   2.190  35.595  11.914
54774W        W27100   0.277  34.705   4.557
54775W        W27101  16.230  38.778   0.864
54776W        W27102  18.099  39.040   0.276
54777W        W27103   0.520  29.137   1.619
54778W        W27104  41.379  14.097   4.097
54779W        W27105   0.279   4.607   0.236
54780W        W27106   3.784  35.804   3.049
54781W        W27107  44.937  11.590   3.462
54782W        W27108  34.408  38.897  10.699
54783W        W27109  25.288  14.657   1.937
54784W        W27110  20.530  18.531  11.126
54785W        W27111  43.149  39.448   1.356
54786W        W27112  44.396  28.692   2.726
54787W        W27113  43.377  38.560  12.373
54788W        W27114  24.675  21.213  12.316
54789W        W27115  41.537   1.924   0.901
54790W        W27116   7.681  36.456   2.703
54791W        W27117  19.605  39.299  12.807
54792W        W27118  32.932  19.633  14.734
54793W        W27119  18.982  37.370   2.825
54794W        W27120  24.961   8.711   2.280
54795W        W27121  36.599  36.860   2.422
54796W        W27122  24.806  38.979   2.153
54797W        W27123  22.136  34.576   0.973
54798W        W27124  34.859   8.661  11.507
54799W        W27125  36.513  28.383  13.517
54800W        W27126  43.965  11.402   0.384
54801W        W27127  42.324  32.399   1.887
54802W        W27128  35.423  18.115  10.981
54803W        W27129  28.086  11.412   1.344
54804W        W27130  30.237  29.713   1.973
54805W        W27131  28.151  28.833   4.259
54806W        W27132  44.374  41.259   0.970
54807W        W27133  16.777  16.160  11.154
54808W        W27134  44.200  37.949   2.654
54809W        W27135  25.164  16.403   0.940
54810W        W27136  17.082   1.675   4.623
54811W        W27137  32.553   6.187   4.127
54812W        W27138  22.617  34.056  11.467
54813W        W27139   9.903  43.090  11.190
54814W        W27140  38.497  30.833   4.158
54815W        W27141  38.793  43.756  13.577
54816W        W27142  23.977  24.041  14.812
54817W        W27143  20.064  22.060  10.515
54818W        W27144  18.784  42.306   0.877
54819W        W27145  44.426  15.198  11.603
54820W        W27146  35.144  33.919  10.675
54821W        W27147  41.935  31.505   3.856
54822W        W27148  32.658  34.580   4.460
54823W        W27149  32.926  32.128  12.514
54824W        W27150  11.805  32.179   2.764
54825W        W27151   1.435  36.510  11.593
54826W        W27152  34.472  16.306  14.009
54827W        W27153  44.183  36.873  10.110
54828W        W27154  28.489  27.979   2.288
54829W        W27155   5.683  12.797   3.202
54830W        W27156   4.596  41.482   9.849
54831W        W27157   2.100  44.461   0.354
54832W        W27158  26.576  35.780   1.594
54833W        W27159   5.774  24.395  13.073
54834W        W27160  10.049  32.460  12.733
54835W        W27161  41.458   8.769   2.181
54836W        W27162  32.848  32.573  12.851
54837W        W27163  10.853  29.989   4.512
54838W        W27164  35.291   6.171  11.154
54839W        W27165  30.144  40.049  13.801
54840W        W27166   7.812  22.216   1.494
54841W        W27167  11.861   6.057   4.966
54842W        W27168  33.553   4.923  11.522
54843W        W27169  21.191  14.383   4.685
54844W        W27170   6.818  40.446   0.944
54845W        W27171  40.946  37.929   2.984
54846W        W27172   8.377  39.738  14.551
54847W        W27173   8.992  10.565   5.043
54848W        W27174  29.010  25.116   1.930
54849W        W27175  29.176  24.077   3.412
54850W        W27176  44.041  16.903  12.005
54851W        W27177  19.607  22.212   1.442
54852W        W27178  17.210  29.045   3.614
54853W        W27179  16.600  42.533  11.271
54854W        W27180  27.901  19.314  13.747
54855W        W27181   1.694  30.521  14.281
54856W        W27182  16.128   4.150  10.481
54857W        W27183   3.795  12.396   0.417
54858W        W27184  34.584   4.671   2.421
54859W        W27185  44.154   7.187   4.164
54860W        W27186  41.419  33.457   1.944
54861W        W27187  21.051  36.834  11.430
54862W        W27188  29.949  16.690  12.539
54863W        W27189  44.466  19.623   3.416
54864W        W27190  17.764  43.460   3.214
54865W        W27191  19.915  44.281   4.887
54866W        W27192  10.246  39.639  12.836
54867W        W27193  22.264  34.632   4.083
54868W        W27194  18.536  16.333  14.978
54869W        W27195  10.956   1.299  14.322
54870W        W27196  43.279   7.925   1.783
54871W        W27197  23.735  18.451   3.621
54872W        W27198  11.162  36.389   0.865
54873W        W27199  40.281  37.800  11.707
54874W        W27200  25.996  36.829  12.281
54875W        W27201  42.573   4.851  14.140
54876W        W27202  21.733   9.225   0.226
54877W        W27203   0.319  37.285  12.345
54878W        W27204   4.238  32.701  13.037
54879W        W27205  43.670  16.872   2.130
54880W        W27206  30.925  32.451   2.897
54881W        W27207  27.346  37.321  12.775
54882W        W27208   5.266  12.172   4.342
54883W        W27209  29.002  30.341  12.441
54884W        W27210  25.636   1.657   4.447
54885W        W27211  41.435  35.512   1.281
54886W        W27212   9.711  33.330  10.776
54887W        W27213  34.281  32.805  12.013
54888W        W27214  21.212  24.020   1.287
54889W        W27215  30.793   8.662   1.325
54890W        W27216  26.193  25.091  12.471
54891W        W27217  44.766  40.573   1.117
54892W        W27218  14.783   2.791  10.815
54893W        W27219  19.649  20.741   0.307
54894W        W27220  16.179   0.009  11.708
54895W        W27221  12.828  19.793   0.229
54896W        W27222  32.125  28.365  14.522
54897W        W27223   8.270  22.227   4.630
54898W        W27224   6.422  44.964  14.518
54899W        W27225   8.411  15.402   0.664
54900W        W27226  17.102   7.663  13.090
54901W        W27227  14.696  38.181  11.876
54902W        W27228  35.856   7.811  14.137
54903W        W27229  25.561  43.572  12.577
54904W        W27230  19.098  22.952   1.696
54905W        W27231  10.260   7.348   3.528
54906W        W27232  20.437   3.021  11.997
54907W        W27233  29.114  29.515  10.593
54908W        W27234  23.617  33.207   2.270
54909W        W27235  23.703  36.862   4.613
54910W        W27236   9.191  21.990  14.164
54911W        W27237  23.355  34.618   1.253
54912W        W27238  41.448   2.324  13.917
54913W        W27239  43.997  44.974  12.594
54914W        W27240  27.362  19.659  12.913
54915W        W27241  15.300  30.794  11.448
54916W        W27242  28.679  37.515  10.998
54917W        W27243  42.054  17.048  13.360
54918W        W27244  26.720   2.730   4.002
54919W        W27245  33.385  19.864   0.381
54920W        W27246   7.110  35.491  12.427
54921W        W27247  38.288  10.163  14.453
54922W        W27248   5.658  15.033   2.725
54923W        W27249  31.753  29.706   4.226
54924W        W27250   3.248  14.504  13.518
54925W        W27251  36.332  12.650  13.604
54926W        W27252  10.332  27.574   4.943
54927W        W27253  14.862  40.067  13.987
54928W        W27254  15.588  13.509  13.468
54929W        W27255   5.327  28.192  12.890
54930W        W27256  43.018  25.107   3.733
54931W        W27257  25.551  24.716  14.005
54932W        W27258  12.350   9.687   2.138
54933W        W27259   1.967  37.468   2.219
54934W        W27260  36.472  36.339  11.616
54935W        W27261  36.064  15.697   1.533
54936W        W27262  24.327  39.856   4.188
54937W        W27263   9.340  38.014  13.347
54938W        W27264  44.376  42.794  12.155
54939W        W27265  38.974  14.807  10.424
54940W        W27266  32.969   8.384   0.839
54941W        W27267  14.147  41.680   1.198
54942W        W27268  12.201  17.016   4.598
54943W        W27269  38.773  44.336   0.374
54944W        W27270  28.232  36.487   1.304
54945W        W27271   1.465  26.402  10.760
54946W        W27272  39.864   4.733   4.313
54947W        W27273  23.085   5.934   2.762
54948W        W27274  27.847  38.778   5.057
54949W        W27275  23.748  41.808   3.457
54950W        W27276  40.514  22.265  11.601
54951W        W27277   1.453  22.100  13.028
54952W        W27278  26.206  22.723  14.055
54953W        W27279  36.084  29.056   3.360
54954W        W27280  36.937  21.055   3.645
54955W        W27281  26.472  35.201   2.330
54956W        W27282  10.684  14.801   4.013
54957W        W27283  14.867  13.315  14.066
54958W        W27284   8.129   3.935  14.441
54959W        W27285  11.641  23.545   0.481
54960W        W27286  26.901  26.515   0.819
54961W        W27287   7.945  35.749  14.738
54962W        W27288  26.914  37.418   4.501
54963W        W27289  24.563  31.591  11.570
54964W        W27290   9.649  18.193   3.201
54965W        W27291  34.116   9.808  10.807
54966W        W27292  42.569  19.729   0.495
54967W        W27293  23.555  17.985   3.593
54968W        W27294  38.730  26.654  13.043
54969W        W27295  33.126  34.459   4.615
54970W        W27296  16.054   9.740   0.694
54971W        W27297  42.528  15.843  13.937
54972W        W27298   9.604   7.412   1.223
54973W        W27299  40.450   0.488  14.296
54974W        W27300  11.511  41.489  12.938
54975W        W27301  25.456  34.955   3.816
54976W        W27302   0.456   3.950   3.805
54977W        W27303  13.379  31.593  10.702
54978W        W27304  33.970  17.107   1.481
54979W        W27305  43.239  34.104   1.803
54980W        W27306  35.965  15.503   2.455
54981W        W27307  25.610   7.005  14.568
54982W        W27308  27.660  38.413   3.729
54983W        W27309   1.455  21.964   2.255
54984W        W27310  37.837   2.778   2.846
54985W        W27311  29.911  23.935  11.568
54986W        W27312  21.262   2.107   5.145
54987W        W27313  35.468  21.183   3.904
54988W        W27314  18.893   7.377   4.878
54989W        W27315  44.159  14.281   3.752
54990W        W27316   7.851   3.898  13.993
54991W        W27317   2.252  19.258  14.859
54992W        W27318  44.903  33.959  14.077
54993W        W27319   3.797  21.482  13.162
54994W        W27320  14.558  32.424  13.041
54995W        W27321  29.816  22.095  11.714
54996W        W27322  14.785  29.491   0.440
54997W        W27323  10.812  17.793   1.270
54998W        W27324  37.377  14.333   4.989
54999W        W27325  17.179   7.894  10.237
55000W        W27326  10.268  10.639   0.071
55001W        W27327  36.544  40.068  10.695
55002W        W27328   9.211   0.072   3.763
55003W        W27329  27.181  38.316   1.238
55004W        W27330   9.084  21.232  11.736
55005W        W27331  27.647  42.582   2.761
55006W        W27332  24.277  21.089   4.585
55007W        W27333  26.649  28.542   3.338
55008W        W27334  42.149  15.322   1.128
55009W        W27335  11.855  24.524   3.868
55010W        W27336  36.357   5.860  14.998
55011W        W27337  16.301  10.667   1.475
55012W        W27338  20.800  26.953   1.413
55013W        W27339  25.541  19.138  10.320
55014W        W27340  37.081  14.426  14.896
55015W        W27341   9.126  40.252  13.956
55016W        W27342  21.130  30.095   0.746
55017W        W27343  12.878  11.076   2.280
55018W        W27344   2.677  40.387   3.389
55019W        W27345  25.490  41.517   3.176
55020W        W27346   6.193  41.327   0.679
55021W        W27347  30.492  38.641  14.488
55022W        W27348  32.059  25.243   2.478
55023W        W27349  38.578  17.915   4.836
55024W        W27350  33.892  30.668   0.434
55025W        W27351   5.941  10.265  14.893
55026W        W27352  30.974  15.583  14.189
55027W        W27353   3.657   5.883   1.358
55028W        W27354  34.886  17.737  10.701
55029W        W27355  13.583  32.791  12.386
55030W        W27356  27.045  18.788  13.368
55031W        W27357  24.573   0.483   4.105
55032W        W27358  18.333  17.691  14.008
55033W        W27359  22.466  26.735   2.788
55034W        W27360  38.881  11.143  13.825
55035W        W27361  15.679  41.926  13.383
55036W        W27362   3.601   6.609   1.820
55037W        W27363  23.793   4.030  12.971
55038W        W27364  25.351  18.817  10.694
55039W        W27365  32.577  24.092  12.632
55040W        W27366  12.822  29.127  14.743
55041W        W27367   1.183   0.983  13.960
55042W        W27368   4.244  33.570  11.191
55043W        W27369  23.842  15.136  10.536
55044W        W27370  36.436  20.571   4.542
55045W        W27371  24.747  32.618   0.021
55046W        W27372   6.801  44.429   4.593
55047W        W27373  40.973   7.780  12.004
55048W        W27374   7.749  15.587  11.251
55049W        W27375  39.844  18.089   1.230
55050W        W27376  39.615  16.577  12.968
55051W        W27377  10.901  21.702  14.651
55052W        W27378  14.636  27.450  14.220
55053W        W27379  39.092  29.005  13.025
55054W        W27380  39.314  39.521  10.520
55055W        W27381  35.757  43.297   1.005
55056W        W27382   3.735  41.896  13.447
55057W        W27383  43.527  44.242  14.988
55058W        W27384  11.256  34.822   9.778
55059W        W27385  15.750  21.498   4.477
55060W        W27386  23.034  15.042  14.362
55061W        W27387  13.640  38.650  11.940
55062W        W27388  31.079   2.990  13.768
55063W        W27389  44.582   0.923   0.968
55064W        W27390  28.978  36.545  14.426
55065W        W27391  31.802  30.575   3.425
55066W        W27392  38.519  39.846  12.992
55067W        W27393   7.392  32.498   0.911
55068W        W27394  13.150   3.460  13.945
55069W        W27395   6.582   9.783   1.290
55070W        W27396  22.116  16.060  11.608
55071W        W27397  23.450  35.839  10.731
55072W        W27398  11.980  10.389   4.658
55073W        W27399   3.141  19.257   2.052
55074W        W27400  33.091  26.758   0.734
55075W        W27401  40.092  18.977   2.648
55076W        W27402   4.134  17.773   1.764
55077W        W27403   2.233  12.514   5.603
55078W        W27404  33.913  23.608  10.477
55079W        W27405  42.461  28.031   0.318
55080W        W27406  35.359  38.365   3.171
55081W        W27407  19.012  12.940  11.228
55082W        W27408  11.378  38.513  13.359
55083W        W27409   3.389  37.980   1.967
55084W        W27410  44.134  13.892  11.013
55085W        W27411  37.393  34.877  11.598
55086W        W27412  43.685  18.562  12.389
55087W        W27413  25.892   0.474  13.733
55088W        W27414  24.703   4.137   3.174
55089W        W27415   5.793   0.260   3.763
55090W        W27416   1.767   4.634  11.148
55091W        W27417   6.760  22.357  11.122
55092W        W27418   7.360  18.968  11.521
55093W        W27419   9.135  28.366   3.680
55094W        W27420  44.802  27.931   3.270
55095W        W27421  10.026  24.273   3.603
55096W        W27422  11.588  21.409   1.769
55097W        W27423  16.504   8.930   0.182
55098W        W27424  10.880  42.805  12.401
55099W        W27425  40.136  24.936   3.245
55100W        W27426   1.149  29.367   0.566
55101W        W27427  36.057  29.691  12.330
55102W        W27428  32.420  15.976  13.976
55103W        W27429   8.485  18.768  11.022
55104W        W27430   1.480   6.756  10.750
55105W        W27431  41.096  33.103   1.726
55106W        W27432   2.320   2.371   4.372
55107W        W27433   9.946  28.226  11.589
55108W        W27434  39.848   4.480  14.020
55109W        W27435  44.471  16.548  11.092
55110W        W27436  19.200  28.826  12.762
55111W        W27437   7.991  44.841   0.238
55112W        W27438   8.265  28.821  11.940
55113W        W27439  18.772  43.888  13.127
55114W        W27440  28.189  32.086   0.669
55115W        W27441  28.021  25.110  14.858
55116W        W27442  35.514  38.901   1.285
55117W        W27443  18.381   2.015  14.404
55118W        W27444   9.462  16.213  13.477
55119W        W27445  27.363   9.964   1.153
55120W        W27446  14.062  43.249   2.111
55121W        W27447  11.286  29.635  11.708
55122W        W27448  36.097   1.852   2.916
55123W        W27449  10.306  40.106  11.613
55124W        W27450  34.581  41.183  11.299
55125W        W27451  15.670   2.185  10.485
55126W        W27452  32.013  32.549  12.313
55127W        W27453  42.087  43.931   1.883
55128W        W27454  39.750  19.659   1.752
55129W        W27455  16.243   0.480  14.344
55130W        W27456  39.428  35.990  12.359
55131W        W27457   3.189  13.737  13.141
55132W        W27458  44.732  44.222   4.136
55133W        W27459  31.446  34.674   2.932
55134W        W27460  10.893  10.582  12.824
55135W        W27461  23.703  44.529  12.985
55136W        W27462  33.456  14.642  13.806
55137W        W27463  20.240  36.058  14.260
55138W        W27464   3.460   4.307   1.648
55139W        W27465  24.521  42.994  14.911
55140W        W27466  38.876  37.338   3.239
55141W        W27467  32.532   3.586   4.667
55142W        W27468   3.780   9.824   2.376
55143W        W27469  11.564  23.284   1.909
55144W        W27470  26.792   6.173   1.362
55145W        W27471  23.224  14.349  10.703
55146W        W27472  34.920  33.353   5.181
55147W        W27473  36.058   5.864   2.753
55148W        W27474  26.353  25.434   1.971
55149W        W27475  44.527  42.802   3.247
55150W        W27476  14.290  42.963  11.039
55151W        W27477  31.731  22.654   0.929
55152W        W27478  12.515   7.800   3.257
55153W        W27479   8.861  14.123  12.449
55154W        W27480  27.376   4.982  14.036
55155W        W27481   8.401  26.655   3.762
55156W        W27482  43.695  13.415  11.891
55157W        W27483  13.542  21.597  12.521
55158W        W27484  39.671  11.225   4.765
55159W        W27485   8.678   7.620  11.542
55160W        W27486  19.065   4.725   2.617
55161W        W27487   6.371  27.285  11.219
55162W        W27488   4.251   8.551  11.558
55163W        W27489  31.643  32.936   2.785
55164W        W27490  30.902  40.024  10.508
55165W        W27491  42.012   1.368  13.082
55166W        W27492  33.080  32.845   4.114
55167W        W27493   2.539  43.235   1.895
55168W        W27494   0.344  30.364  13.869
55169W        W27495  20.943  38.849  14.884
55170W        W27496  35.444  29.882  11.119
55171W        W27497  29.535  17.735  10.955
55172W        W27498  13.651  12.233  14.226
55173W        W27499  17.048  18.560  11.538
55174W        W27500  36.774  26.244   3.238
55175W        W27501  14.123  30.862  13.952
55176W        W27502  15.554  39.224   2.390
55177W        W27503  26.714  17.448  13.419
55178W        W27504  32.122  32.520   3.782
55179W        W27505  35.895   8.652  11.188
55180W        W27506   9.705  23.226  12.265
55181W        W27507  31.065  25.741  12.383
55182W        W27508   2.289  27.557   2.781
55183W        W27509  38.355   0.947   1.933
55184W        W27510  21.722  35.901   1.803
55185W        W27511   6.261  21.738   0.711
55186W        W27512  35.910   6.320   2.589
55187W        W27513  16.235  43.955  11.611
55188W        W27514  16.169  17.540   2.107
55189W        W27515   8.743  35.358  13.345
55190W        W27516   3.351  38.859   4.575
55191W        W27517  31.961   3.283  14.131
55192W        W27518  37.628  13.214  13.439
55193W        W27519   2.264  42.805   1.879
55194W        W27520   6.189  35.659  10.249
55195W        W27521  30.575  36.828  13.465
55196W        W27522   4.727  32.866   2.340
55197W        W27523  33.337  44.299  13.391
55198W        W27524  33.816  17.620  11.526
55199W        W27525  39.610  14.316  13.398
55200W        W27526   3.270   9.995   2.305
55201W        W27527   9.715  17.990   0.632
55202W        W27528  27.126  22.208   2.676
55203W        W27529  14.904  40.440   3.730
55204W        W27530  34.837  31.976  10.921
55205W        W27531  23.103  23.503  13.079
55206W        W27532  24.056   5.208   1.581
55207W        W27533  43.516  12.393  13.838
55208W        W27534  33.100  14.276   4.591
55209W        W27535  35.117  20.199   0.090
55210W        W27536  16.520  15.008  13.334
55211W        W27537  40.083   2.650  11.985
55212W        W27538  37.791   3.873  13.536
55213W        W27539   8.798   3.338  10.059
55214W        W27540  34.491   7.908   2.384
55215W        W27541  39.053  21.409   0.739
55216W        W27542  27.465   9.960  13.455
55217W        W27543  31.924  10.330   0.532
55218W        W27544  31.491  20.105  13.533
55219W        W27545  36.401  25.700   1.168
55220W        W27546  41.608   5.401  13.813
55221W        W27547  14.153  10.413   2.340
55222W        W27548  27.142  18.199   3.386
55223W        W27549  32.906  15.403   2.780
55224W        W27550   1.656  41.418   2.146
55225W        W27551  33.443  30.156   3.750
55226W        W27552  16.739  14.783  14.960
55227W        W27553  15.784  30.419   3.105
55228W        W27554  44.990  28.225  13.138
55229W        W27555  23.943  24.694   0.400
55230W        W27556  28.181   8.210   4.385
55231W        W27557  10.795  20.445   0.465
55232W        W27558   0.027  40.935  10.683
55233W        W27559  41.567   5.658  14.964
55234W        W27560  12.036   9.640  10.944
55235W        W27561  12.327   0.257   3.017
55236W        W27562  31.177  19.339   3.285
55237W        W27563  38.565   6.181   1.665
55238W        W27564  37.954  38.270   0.255
55239W        W27565   7.649  24.316   2.762
55240W        W27566  31.534   4.845   1.402
55241W        W27567  26.142  16.975   1.443
55242W        W27568  39.499  31.489   2.881
55243W        W27569  18.118  28.169  12.007
55244W        W27570  44.085  43.376  14.457
55245W        W27571  12.742  25.487  13.436
55246W        W27572   3.747  17.163   4.764
55247W        W27573  37.933  32.542  12.382
55248W        W27574   2.079  23.447   9.791
55249W        W27575  38.922  17.146   2.138
55250W        W27576  32.854  15.419   1.861
55251W        W27577  14.351  34.252   2.887
55252W        W27578  29.410  21.555   1.092
55253W        W27579  36.302  26.509  13.590
55254W        W27580  36.990  19.198   1.775
55255W        W27581  11.850  30.527   5.266
55256W        W27582  17.663  28.667   3.422
55257W        W27583  22.887  39.480   0.428
55258W        W27584   1.921  32.275   2.325
55259W        W27585   2.427   4.779   4.368
55260W        W27586  42.011   8.359  11.135
55261W        W27587   3.391  37.295   3.668
55262W        W27588  35.174  31.916   5.016
55263W        W27589   8.746  25.903   1.576
55264W        W27590   5.737  19.562   0.161
55265W        W27591  38.321  27.598   3.613
55266W        W27592  36.445   2.169   3.195
55267W        W27593  15.696  39.043  11.130
55268W        W27594  28.937  43.799   4.429
55269W        W27595   9.336  34.911  13.271
55270W        W27596  19.526  30.106   4.113
55271W        W27597   1.027   8.898  14.984
55272W        W27598   0.400   3.739  12.908
55273W        W27599  44.365  21.695   1.382
55274W        W27600  17.598  17.720  10.567
55275W        W27601  43.456  24.477  10.577
55276W        W27602  15.635  42.525   4.141
55277W        W27603  21.079  16.375  14.122
55278W        W27604   0.832  42.116  11.899
55279W        W27605  24.720  31.116   4.650
55280W        W27606  22.995  43.371  12.548
55281W        W27607  41.111  33.144   0.518
55282W        W27608  34.159  34.884  11.258
55283W        W27609  36.905   3.394  10.613
55284W        W27610   8.774   9.130  14.624
55285W        W27611   5.419   5.428   1.830
55286W        W27612  28.596  14.459   2.566
55287W        W27613  35.920  39.479  14.517
55288W        W27614   0.014  20.069   2.698
55289W        W27615   7.632   4.050   1.396
55290W        W27616   2.756  26.664  12.394
55291W        W27617   4.894   0.394  13.848
55292W        W27618   1.427  25.890  10.677
55293W        W27619  18.136   8.730  11.538
55294W        W27620  11.010  16.655   2.218
55295W        W27621  40.581  20.670  13.347
55296W        W27622  39.069  15.304   1.889
55297W        W27623  10.965  13.822   3.611
55298W        W27624  33.176  29.956  10.602
55299W        W27625  20.612  12.337   3.280
55300W        W27626  38.359  13.779  12.554
55301W        W27627  22.611  24.285  11.536
55302W        W27628   9.899  34.238   4.558
55303W        W27629  38.808  16.689   1.905
55304W        W27630  28.068  24.496  13.905
55305W        W27631   3.166   9.138   2.440
55306W        W27632  32.741  10.640   0.052
55307W        W27633   3.695  39.220   4.299
55308W        W27634  41.575  30.023   2.331
55309W        W27635  16.767  14.707   0.858
55310W        W27636  12.810  34.862  14.948
55311W        W27637  30.076  16.272   4.076
55312W        W27638   2.371   7.108  13.493
55313W        W27639  16.858   9.319   0.899
55314W        W27640  24.703  11.435   3.588
55315W        W27641  21.701  40.197   3.090
55316W        W27642  22.724   0.744  11.607
55317W        W27643  43.404   1.885   3.238
55318W        W27644  43.294  13.260   1.906
55319W        W27645  30.433   0.446  13.491
55320W        W27646  32.433  33.692  12.734
55321W        W27647   9.494   3.555   3.211
55322W        W27648   3.088   7.668   2.299
55323W        W27649  35.957  26.051  12.064
55324W        W27650  40.580  19.662   3.614
55325W        W27651   1.539   0.981   4.157
55326W        W27652   7.921  38.092  12.751
55327W        W27653  25.681   0.233  13.314
55328W        W27654  13.823   7.456   0.356
55329W        W27655   6.770  41.993  11.098
55330W        W27656  11.704   3.469  12.393
55331W        W27657  28.063   8.336   2.344
55332W        W27658   6.445  12.527  14.419
55333W        W27659  26.895   9.801  14.561
55334W        W27660  19.182  12.338  13.032
55335W        W27661   5.262  21.448   1.322
55336W        W27662  27.482  32.823   0.513
55337W        W27663   4.690  16.210  14.808
55338W        W27664  41.992  28.435   2.808
55339W        W27665  39.318  43.126  14.793
55340W        W27666  13.769  12.859  11.131
55341W        W27667  18.311   0.522   1.643
55342W        W27668   1.801   4.981  14.060
55343W        W27669   2.910  39.014   4.813
55344W        W27670  17.207  19.646  12.322
55345W        W27671  43.568  44.803  14.099
55346W        W27672   6.196  37.791  13.534
55347W        W27673   8.406   2.699  14.310
55348W        W27674  16.558  17.840   0.451
55349W        W27675  29.974  42.352  11.634
55350W        W27676  31.637   2.517   0.996
55351W        W27677   0.770  11.576   5.250
55352W        W27678   0.472   7.476   4.347
55353W        W27679  30.648  11.391   0.765
55354W        W27680   9.976  12.308   0.350
55355W        W27681  15.309  33.308   0.807
55356W        W27682   8.371  44.199  13.488
55357W        W27683  34.263  11.615  14.804
55358W        W27684  13.218   2.453   0.731
55359W        W27685  19.036  27.162  10.817
55360W        W27686  10.953  40.097   0.011
55361W        W27687   7.141   6.390   2.704
55362W        W27688  30.489  14.640  13.274
55363W        W27689   9.352   0.397  12.415
55364W        W27690  28.985  21.616  13.326
55365W        W27691  19.569   8.442   2.667
55366W        W27692   1.685  31.668  14.852
55367W        W27693  23.557  23.288   2.407
55368W        W27694  18.816  32.588   2.360
55369W        W27695   8.133   0.066  10.911
55370W        W27696   8.743  42.377   4.822
55371W        W27697  13.787   2.858  12.028
55372W        W27698  17.580  29.647  11.133
55373W        W27699  41.049  24.599  13.347
55374W        W27700   3.893  25.149   4.649
55375W        W27701  30.584  32.579   4.960
55376W        W27702  20.624  39.547  10.645
55377W        W27703  14.793  28.939  14.238
55378W        W27704  24.473   1.012  11.242
55379W        W27705   7.748  43.424  11.008
55380W        W27706   6.947  36.534  12.637
55381W        W27707  26.181  19.029  11.125
55382W        W27708   3.171  19.584  12.477
55383W        W27709  23.133  31.045   4.079
55384W        W27710  12.151  37.303  11.455
55385W        W27711  44.018   0.760  14.916
55386W        W27712  30.994  21.249   1.491
55387W        W27713  12.309   8.081   2.273
55388W        W27714  28.454   7.563  12.358
55389W        W27715  39.061  20.384   0.944
55390W        W27716  44.032  23.986  14.100
55391W        W27717  25.501  11.043   1.933
55392W        W27718   1.518   6.218   4.845
55393W        W27719  28.697   6.292  11.924
55394W        W27720   8.687  38.329   4.674
55395W        W27721  33.882   4.379   1.373
55396W        W27722  21.831  30.735  11.216
55397W        W27723  14.555  25.130  11.023
55398W        W27724  14.281   6.043   1.034
55399W        W27725   3.045  22.170   0.117
55400W        W27726  32.058   4.295  10.753
55401W        W27727  29.510   2.289  11.590
55402W        W27728  20.276  23.759   1.222
55403W        W27729   4.951   3.926   0.229
55404W        W27730  30.385  29.875  12.508
55405W        W27731  41.231   2.859   2.634
55406W        W27732  27.242  39.975   1.338
55407W        W27733  23.447   3.527  14.341
55408W        W27734   8.150  42.035   2.311
55409W        W27735  41.933  26.283  12.083
55410W        W27736   5.387  37.536  11.177
55411W        W27737  34.374  10.798  12.393
55412W        W27738   0.894   1.464  11.956
55413W        W27739  39.969  42.077   1.286
55414W        W27740  14.279  26.721   4.565
55415W        W27741   1.743  42.378  13.370
55416W        W27742  20.249   4.882  13.872
55417W        W27743  36.070  32.113   3.685
55418W        W27744  31.006   9.533  11.208
55419W        W27745  13.367   5.417  11.072
55420W        W27746   3.453   8.650  12.088
55421W        W27747   3.901  17.380   4.301
55422W        W27748   7.670  34.497   0.403
55423W        W27749  19.567  29.683  14.394
55424W        W27750   3.449   3.508   3.705
55425W        W27751  40.548   6.710   3.712
55426W        W27752  40.775  15.375   1.249
55427W        W27753   0.558  28.673  12.089
55428W        W27754  34.159  24.229  14.052
55429W        W27755  20.994  23.440  13.783
55430W        W27756  44.275  24.237  10.611
55431W        W27757  19.541  44.086  10.743
55432W        W27758  13.298  19.150   0.722
55433W        W27759  44.884  27.203  12.877
55434W        W27760   7.121  21.649   3.667
55435W        W27761  34.081   1.373  11.639
55436W        W27762  10.748   2.789  13.946
55437W        W27763   9.337  16.121   0.867
55438W        W27764   5.450  24.495   4.134
55439W        W27765  16.615  20.794   2.368
55440W        W27766  22.960  33.650  12.401
55441W        W27767  22.164  43.047   2.690
55442W        W27768   8.689  17.678   0.763
55443W        W27769   1.066   1.786   0.397
55444W        W27770  36.099   3.104  11.123
55445W        W27771  33.027  12.078  14.203
55446W        W27772  34.927  42.729  12.504
55447W        W27773  12.765   7.980  14.365
55448W        W27774  40.163  18.219  13.546
55449W        W27775  21.740   8.706  13.032
55450W        W27776   7.712  19.154  11.128
55451W        W27777  40.041  40.263  11.681
55452W        W27778   4.105  21.186  10.611
55453W        W27779   0.317  15.872  13.844
55454W        W27780   7.113  14.675   0.886
55455W        W27781  39.033  20.687  13.100
55456W        W27782  31.417  35.480   1.262
55457W        W27783  44.002   8.880   3.956
55458W        W27784  15.164  17.739  11.370
55459W        W27785  10.707   7.041  12.508
55460W        W27786  13.505  22.229   3.381
55461W        W27787  40.763   0.323  13.916
55462W        W27788  27.644   5.926   0.368
55463W        W27789  30.614  20.324   1.336
55464W        W27790  13.270  34.126  14.028
55465W        W27791  29.064   3.052   0.615
55466W        W27792   9.232  11.203   2.180
55467W        W27793  13.497   0.236   4.402
55468W        W27794  13.795  38.153  14.849
55469W        W27795  39.223  20.164   2.735
55470W        W27796  14.863  36.489   3.145
55471W        W27797  23.691  21.504   2.164
55472W        W27798   1.670  34.849   1.474
55473W        W27799   4.304  32.008   1.309
55474W        W27800  34.047  36.553  12.054
55475W        W27801   7.139  19.172   4.594
55476W        W27802   9.130  14.493   3.714
55477W        W27803  41.523  25.473   1.477
55478W        W27804  38.929  39.718   4.421
55479W        W27805  11.716   3.858  14.548
55480W        W27806  10.748  26.551  13.870
55481W        W27807  20.104   3.501   4.099
55482W        W27808  30.507  34.007   0.025
55483W        W27809  32.474   2.622  11.164
55484W        W27810  34.537  39.776   0.455
55485W        W27811  39.238  31.843   1.824
55486W        W27812  11.095   4.354   0.583
55487W        W27813  42.396  13.597  12.396
55488W        W27814  11.425  10.117  10.570
55489W        W27815  42.014   8.340   1.733
55490W        W27816  38.453  43.336   4.184
55491W        W27817  25.220   9.342  11.936
55492W        W27818  36.214  42.884   2.743
55493W        W27819   6.717  27.105   3.594
55494W        W27820  16.104  25.489   2.312
55495W        W27821  21.684   9.221   1.735
55496W        W27822  37.625  37.342  13.957
55497W        W27823  25.188   1.060  13.310
55498W        W27824  17.560  29.403   2.744
55499W        W27825   1.247  36.458  12.075
55500W        W27826   1.045  16.133  12.460
55501W        W27827  30.478   7.310  11.553
55502W        W27828  23.511   1.067  11.162
55503W        W27829  31.482  29.639   0.908
55504W        W27830  13.552  39.266  14.575
55505W        W27831  30.960  30.587  13.470
55506W        W27832  40.548  44.719  12.844
55507W        W27833   7.923  14.727   1.352
55508W        W27834   3.375  23.190   0.751
55509W        W27835  29.693  22.484   4.995
55510W        W27836  39.917   9.867  14.774
55511W        W27837  31.476   0.407  13.485
55512W        W27838  28.008  14.301  13.940
55513W        W27839   5.785  19.183   4.177
55514W        W27840  19.844  28.101   1.222
55515W        W27841  17.190   6.805   4.535
55516W        W27842   5.762  27.929  13.084
55517W        W27843   0.372  23.735  11.967
55518W        W27844  18.385  14.835   3.802
55519W        W27845  37.123  27.446  13.318
55520W        W27846  43.074  32.866   0.229
55521W        W27847   0.681  30.092   4.351
55522W        W27848  43.741  18.615   4.518
55523W        W27849  42.365  36.040  12.404
55524W        W27850  17.280  18.983   0.423
55525W        W27851  30.056  17.135  12.145
55526W        W27852  42.876  27.206  10.795
55527W        W27853  43.876  15.339   0.214
55528W        W27854  43.501   2.521   0.912
55529W        W27855   3.739  15.530  11.989
55530W        W27856   2.998  20.185  13.210
55531W        W27857  42.573  43.860  12.454
55532W        W27858  32.736  15.898  11.527
55533W        W27859  42.092  30.254   3.181
55534W        W27860  37.945  18.492  12.841
55535W        W27861   5.465  42.717  12.475
55536W        W27862  27.970  43.968   2.586
55537W        W27863  23.711   1.241   0.390
55538W        W27864  11.837  44.885   4.760
55539W        W27865   0.787  43.459   2.346
55540W        W27866   0.138  21.299  11.577
55541W        W27867  40.718  26.857  10.272
55542W        W27868   0.747   7.094   2.280
55543W        W27869  26.762   2.762   0.363
55544W        W27870  41.970  15.711  11.031
55545W        W27871  19.680   8.469   3.641
55546W        W27872  13.500  44.033  14.563
55547W        W27873   6.858  42.989  11.114
55548W        W27874  39.992  13.181   1.359
55549W        W27875  32.002   9.385  11.579
55550W        W27876  27.684  22.578   1.443
55551W        W27877  39.057  18.059   2.592
55552W        W27878  16.586  37.403  13.528
55553W        W27879  34.983   6.379   3.242
55554W        W27880  43.741  44.268  12.990
55555W        W27881  16.014   7.104   1.386
55556W        W27882  35.459  43.756   1.871
55557W        W27883   3.353  20.990   0.371
55558W        W27884   1.837  20.295  10.629
55559W        W27885  12.062  42.391  11.938
55560W        W27886  11.882   0.330   1.766
55561W        W27887   1.261   0.556   3.129
55562W        W27888  22.462   6.106   4.987
55563W        W27889   0.050  18.289  14.222
55564W        W27890  13.092  11.667  10.811
55565W        W27891  19.358  22.582   0.226
55566W        W27892  15.886  42.060  11.944
55567W        W27893  11.277  16.768   0.878
55568W        W27894  11.206  27.395   2.316
55569W        W27895  37.734  21.483   2.279
55570W        W27896  26.847  16.319   3.751
55571W        W27897  37.305  14.079   0.227
55572W        W27898   3.173  35.142  12.628
55573W        W27899   2.211  25.095   3.668
55574W        W27900  43.088  40.032   3.649
55575W        W27901   7.361  21.430   1.714
55576W        W27902  19.080  13.091  14.412
55577W        W27903  39.986  11.364   2.702
55578W        W27904  21.157  23.009   4.142
55579W        W27905  33.334  42.858   0.226
55580W        W27906  30.099  37.402  13.781
55581W        W27907  43.521   2.130   1.873
55582W        W27908  23.547  18.555   0.301
55583W        W27909  37.890  33.612   1.916
55584W        W27910  15.061  36.333   2.232
55585W        W27911  40.320   1.792   4.291
55586W        W27912  21.128  33.651   3.371
55587W        W27913   6.603  35.848   4.673
55588W        W27914  25.026  19.938  12.753
55589W        W27915  27.118  41.235   3.797
55590W        W27916  15.271  44.504   1.104
55591W        W27917  38.480  36.360  12.052
55592W        W27918   1.465  30.390   1.964
55593W        W27919  33.858   7.437   2.631
55594W        W27920  17.157  37.996  10.410
55595W        W27921  40.069  27.955   4.610
55596W        W27922  35.522  18.818  11.944
55597W        W27923   3.721  42.905   1.986
55598W        W27924  36.473   0.950   4.548
55599W        W27925  36.605  33.992   1.370
55600W        W27926   7.322   4.497   4.014
55601W        W27927  14.856  18.044   0.943
55602W        W27928  44.946  28.992  13.090
55603W        W27929  20.668   1.893  11.241
55604W        W27930  31.488   7.657  14.812
55605W        W27931  36.502  13.112  10.084
55606W        W27932  43.810  25.489  12.574
55607W        W27933  18.858  24.032   3.805
55608W        W27934   6.391  10.358   1.750
55609W        W27935  25.282   4.342   2.431
55610W        W27936  23.218  32.106  11.624
55611W        W27937   2.147  29.426   2.796
55612W        W27938   7.595  23.943   4.005
55613W        W27939  37.613   5.885   1.712
55614W        W27940   0.630  18.892   3.662
55615W        W27941   1.772   1.992  10.553
55616W        W27942  36.818   3.836   3.751
55617W        W27943   5.950  32.971  11.144
55618W        W27944  11.861  13.087  13.675
55619W        W27945   1.720   1.959  12.017
55620W        W27946   8.543  17.521   4.343
55621W        W27947  10.276   3.707   3.809
55622W        W27948  20.030   9.301  12.905
55623W        W27949  42.472   4.196  12.130
55624W        W27950  10.241   7.363   4.505
55625W        W27951   0.359   4.654   3.302
55626W        W27952  30.353  17.571   4.161
55627W        W27953   6.343  13.803  12.844
55628W        W27954  30.062   8.330  12.459
55629W        W27955  41.463  30.432  10.676
55630W        W27956   2.607  22.733   2.698
55631W        W27957  20.270  34.365  12.413
55632W        W27958  29.783  10.800  14.894
55633W        W27959  42.856  28.438   4.536
55634W        W27960  24.928  37.363   0.761
55635W        W27961   9.156   4.418  13.877
55636W        W27962  12.637  43.573   0.965
55637W        W27963  43.268  43.706  14.314
55638W        W27964  25.700  33.348  14.389
55639W        W27965   7.743  22.569  12.481
55640W        W27966  10.865  17.584  11.576
55641W        W27967  39.784  21.946  11.151
55642W        W27968  10.010  19.466   9.518
55643W        W27969  18.194  13.828  12.113
55644W        W27970  13.010   7.585   0.854
55645W        W27971  24.304   6.132   3.097
55646W        W27972  22.548  35.652  10.221
55647W        W27973  31.040  41.374  14.298
55648W        W27974  30.205  18.109  12.972
55649W        W27975  16.250   1.218   2.251
55650W        W27976  26.960  33.994   3.799
55651W        W27977  21.270  26.616   2.352
55652W        W27978  31.459   5.921   0.428
55653W        W27979  36.035  27.744  11.605
55654W        W27980  31.948  32.498   2.820
55655W        W27981  26.716  26.704  13.093
55656W        W27982  44.599   2.285   3.658
55657W        W27983  27.753  37.499  10.585
55658W        W27984  40.423  18.315  11.570
55659W        W27985  35.736   4.018   1.688
55660W        W27986  23.538  33.891  14.967
55661W        W27987  10.528  12.850  12.160
55662W        W27988   7.004  18.300  12.552
55663W        W27989   9.092  37.780   0.425
55664W        W27990  25.000  42.501   0.932
55665W        W27991  19.511  29.201  12.650
55666W        W27992  16.305  27.582   1.859
55667W        W27993  37.861  34.561  14.886
55668W        W27994  13.388  44.318   4.694
55669W        W27995  30.699  20.556   4.159
55670W        W27996  11.130  31.548   0.479
55671W        W27997   1.229  31.578   1.192
55672W        W27998  10.221  17.599  12.720
55673W        W27999  14.255  28.025   4.792
55674W        W28000  39.107  31.671   1.339
55675W        W28001  23.057  13.188   4.725
55676W        W28002  27.294   6.118   4.020
55677W        W28003  21.595  31.490  11.200
55678W        W28004   4.908  33.907   0.635
55679W        W28005  16.732   6.815   3.700
55680W        W28006  34.038  15.054   3.390
55681W        W28007   4.294  23.648   0.465
55682W        W28008  43.335  25.280  12.388
55683W        W28009  20.034  19.469  14.003
55684W        W28010  36.373   9.448  12.039
55685W        W28011  35.471  21.639  13.598
55686W        W28012  16.590  23.249  12.646
55687W        W28013  38.080  14.935   4.165
55688W        W28014  23.974  17.744  11.735
55689W        W28015  41.457  40.039   1.398
55690W        W28016   5.645   6.666   1.737
55691W        W28017   2.840   1.488  12.869
55692W        W28018   8.409  18.790  12.153
55693W        W28019   1.641  32.596   4.849
55694W        W28020  41.059   4.291  11.520
55695W        W28021  27.631   7.514   3.467
55696W        W28022   5.932   8.681   1.795
55697W        W28023  36.841  31.611  12.501
55698W        W28024  43.695  19.137  11.159
55699W        W28025  11.694  36.163  14.358
55700W        W28026  42.311  25.927  12.088
55701W        W28027  33.559   1.193  14.980
55702W        W28028  44.736   5.115   2.566
55703W        W28029  11.651  31.547  10.286
55704W        W28030  44.299  32.154   4.724
55705W        W28031  33.696  10.848   2.574
55706W        W28032  25.749  39.636   0.430
55707W        W28033  39.261  31.906   4.689
55708W        W28034   7.383   9.395   2.781
55709W        W28035   3.173  26.226  13.906
55710W        W28036  35.675  25.995  14.380
55711W        W28037   8.726   6.494  12.039
55712W        W28038  31.968   4.929  14.843
55713W        W28039  16.264   6.154   2.298
55714W        W28040  42.876  18.098   4.579
55715W        W28041   5.864  11.185  13.317
55716W        W28042  42.744  32.413  11.491
55717W        W28043   0.110  27.531  13.490
55718W        W28044  33.833  34.521   0.942
55719W        W28045  44.609  36.144   1.212
55720W        W28046  29.189  32.966   1.506
55721W        W28047  28.073  14.922   3.698
55722W        W28048  43.849  23.822   4.849
55723W        W28049   3.807  22.058  14.022
55724W        W28050  34.084  36.586   0.342
55725W        W28051  27.949  17.316   3.192
55726W        W28052  14.154  29.363  14.838
55727W        W28053  40.942  31.436   2.273
55728W        W28054  40.373  41.864  12.460
55729W        W28055  36.883  24.033  12.006
55730W        W28056  25.997  14.557  12.895
55731W        W28057   6.312  18.001   4.529
55732W        W28058  31.067   5.579  12.320
55733W        W28059  39.777  14.648  10.576
55734W        W28060  27.026   9.125  13.040
55735W        W28061  36.614  27.632  14.255
55736W        W28062  27.965   7.629  11.614
55737W        W28063   4.211  25.030  11.720
55738W        W28064  33.240   3.650   2.748
55739W        W28065  35.416  30.612  10.589
55740W        W28066   5.191  26.703  10.612
55741W        W28067   9.284  14.262  13.982
55742W        W28068  41.497   6.320  11.220
55743W        W28069   1.103  11.859   4.988
55744W        W28070   4.410  37.349   0.384
55745W        W28071  28.331  44.340  12.861
55746W        W28072  34.982  35.407   5.151
55747W        W28073   3.126  14.279   1.752
55748W        W28074  39.441  19.113   4.484
55749W        W28075  11.940  31.141   3.847
55750W        W28076  43.783  29.052  10.604
55751W        W28077  20.151  44.344   0.505
55752W        W28078  23.204  19.145   3.456
55753W        W28079  18.234  34.257   0.258
55754W        W28080  18.359  39.309  13.957
55755W        W28081  24.724  34.584  10.438
55756W        W28082  21.932   6.796   0.413
55757W        W28083   5.503  22.706   2.789
55758W        W28084  21.514  18.357   3.627
55759W        W28085  36.506  38.940   1.829
55760W        W28086  40.616  35.609  12.812
55761W        W28087  37.351  23.014  14.415
55762W        W28088  10.788  15.678   1.861
55763W        W28089  33.367  11.117  12.847
55764W        W28090  16.515   8.752  10.969
55765W        W28091  10.182  21.309  14.972
55766W        W28092  24.431  40.874  14.216
55767W        W28093  12.111  15.761  10.584
55768W        W28094  17.732  37.638   4.267
55769W        W28095  26.439  21.546  11.177
55770W        W28096  34.035  36.821   4.920
55771W        W28097   8.339  21.346   3.158
55772W        W28098  14.479  43.677   2.975
55773W        W28099   4.343  40.335   0.777
55774W        W28100   5.246  15.618   4.409
55775W        W28101  41.283  17.661   2.300
55776W        W28102  34.425  16.857   2.342
55777W        W28103  13.625  23.242  14.823
55778W        W28104   4.471  19.570   0.707
55779W        W28105  32.576   6.371   0.742
55780W        W28106  11.527  11.546  13.713
55781W        W28107  11.577   7.751   4.800
55782W        W28108  18.156  37.908  10.890
55783W        W28109  27.050  21.984   3.759
55784W        W28110  33.824  24.383  11.053
55785W        W28111  30.592   4.255  12.468
55786W        W28112  41.277  41.830  11.239
55787W        W28113  14.174   6.749  13.861
55788W        W28114  43.946  11.831  13.067
55789W        W28115  33.455   8.339  14.930
55790W        W28116   1.725  18.782   1.831
55791W        W28117  39.102  27.483   3.270
55792W        W28118  22.536  41.032  13.835
55793W        W28119  10.503  43.867  10.931
55794W        W28120  10.771   4.743  13.846
55795W        W28121  35.803  41.761  11.110
55796W        W28122  23.969   4.289   1.217
55797W        W28123  31.433   0.797   3.113
55798W        W28124  25.913  27.921   1.220
55799W        W28125  20.189   8.840  14.823
55800W        W28126   1.870  30.991   1.232
55801W        W28127   0.551  17.090  11.204
55802W        W28128  43.955   8.229  11.332
55803W        W28129  20.715   7.432   5.123
55804W        W28130  28.716  44.315   1.651
55805W        W28131  21.809  17.684   0.714
55806W        W28132  40.812  32.004   0.049
55807W        W28133  15.715   2.278   3.672
55808W        W28134  35.393  34.901   3.711
55809W        W28135  24.486  36.472   5.045
55810W        W28136  20.383  26.648   4.206
55811W        W28137  24.042  19.694   4.321
55812W        W28138  39.360  16.613  12.068
55813W        W28139  43.308  24.988  10.707
55814W        W28140   5.307  28.934  12.445
55815W        W28141   1.748  17.343   1.942
55816W        W28142  26.244  23.178  11.116
55817W        W28143  32.073  10.791   0.350
55818W        W28144   5.357  29.309   1.272
55819W        W28145  15.653  20.175  13.998
55820W        W28146  35.052  35.152   1.943
55821W        W28147  20.602  21.235   1.035
55822W        W28148  32.117  40.934   4.231
55823W        W28149  34.130   5.884  11.642
55824W        W28150  20.911  38.134  10.644
55825W        W28151  29.154   5.366   0.231
55826W        W28152   1.185  26.864  12.475
55827W        W28153   1.144  11.435   5.584
55828W        W28154  23.055  44.066   1.776
55829W        W28155  33.908  16.673  11.904
55830W        W28156  43.267  29.518   2.325
55831W        W28157  44.809   5.256   0.841
55832W        W28158  38.994  16.664  11.673
55833W        W28159  21.822  35.602   1.379
55834W        W28160  39.563   3.668  13.870
55835W        W28161  40.031  23.641  11.535
55836W        W28162  38.779  17.501  13.871
55837W        W28163  27.521  43.911  13.060
55838W        W28164  29.526   6.196  13.789
55839W        W28165  38.110  21.129   1.966
55840W        W28166  25.416  24.622  11.957
55841W        W28167  38.977  41.461   2.189
55842W        W28168  27.221   3.805   3.644
55843W        W28169  23.948  37.511  13.394
55844W        W28170   9.228   9.315  14.445
55845W        W28171  43.572   1.909   0.385
55846W        W28172  36.021  28.016  10.646
55847W        W28173  18.054  40.929   2.199
55848W        W28174  38.006  20.203   3.404
55849W        W28175  37.579  23.450   3.350
55850W        W28176  28.869   7.271  12.482
55851W        W28177  11.103  14.102  11.165
55852W        W28178   3.367  17.052   2.989
55853W        W28179  42.788  26.095  12.679
55854W        W28180   9.309   7.222  14.433
55855W        W28181  21.022  18.295   3.487
55856W        W28182  10.285   2.961   4.284
55857W        W28183   2.938  37.132  14.489
55858W        W28184   0.286  25.356  14.980
55859W        W28185   1.078  25.444  12.164
55860W        W28186  29.206  44.509   1.711
55861W        W28187  40.223   1.189  11.100
55862W        W28188  34.982  22.158  10.961
55863W        W28189  35.897  22.125   0.865
55864W        W28190  28.478  44.482   4.843
55865W        W28191  31.659  39.039   2.392
55866W        W28192  35.970  42.926  11.627
55867W        W28193  11.467  25.422  10.175
55868W        W28194  28.507  39.530   3.937
55869W        W28195  21.527  27.607   4.540
55870W        W28196  29.947   0.709  10.979
55871W        W28197  43.757   3.301  11.100
55872W        W28198   5.821  31.030   0.434
55873W        W28199  14.616  37.435   2.608
55874W        W28200   7.578  35.263  12.429
55875W        W28201   7.418   8.848  10.443
55876W        W28202   9.862  21.611  11.094
55877W        W28203  30.603   0.546  12.029
55878W        W28204  31.191  35.442   4.142
55879W        W28205  43.949  44.532  13.866
55880W        W28206  14.176  11.181   1.852
55881W        W28207  13.232  20.243  10.451
55882W        W28208   0.593   2.241  14.522
55883W        W28209  10.840  13.398   3.359
55884W        W28210  36.340   1.096  12.984
55885W        W28211  40.204  33.550   4.325
55886W        W28212  32.648  27.596   2.822
55887W        W28213  17.142  14.730   2.631
55888W        W28214  18.646  23.074  14.729
55889W        W28215  41.913  15.534  12.399
55890W        W28216  16.333  15.780   3.588
55891W        W28217  19.470  31.352   3.241
55892W        W28218   9.613  12.670  13.499
55893W        W28219  19.352  42.749   2.292
55894W        W28220  35.076  28.680  13.450
55895W        W28221   8.285   4.732  12.062
55896W        W28222  26.735  37.476  14.407
55897W        W28223  43.940  13.883   1.715
55898W        W28224  19.271  12.621   3.568
55899W        W28225   3.942  43.763   1.805
55900W        W28226  34.189   7.042  13.742
55901W        W28227  28.506  44.196  14.927
55902W        W28228  20.075  12.902  12.949
55903W        W28229  23.106   4.196   4.092
55904W        W28230   7.910  30.122  11.644
55905W        W28231  35.034  42.981   1.890
55906W        W28232  13.820   0.600   4.246
55907W        W28233  14.406  14.797   0.400
55908W        W28234  40.410  12.053   0.639
55909W        W28235  35.840  13.170   3.291
55910W        W28236  30.004  10.955   1.893
55911W        W28237   3.763  37.639   3.534
55912W        W28238  40.991  44.905  11.581
55913W        W28239  25.144  32.582   3.457
55914W        W28240  28.925  10.228   2.810
55915W        W28241  38.292  42.903   4.511
55916W        W28242  34.329  13.556   4.049
55917W        W28243  10.780  19.071   0.777
55918W        W28244  31.290  12.831  11.550
55919W        W28245  10.648  11.450   1.655
55920W        W28246   9.248  21.819  10.901
55921W        W28247  22.459  42.823   1.433
55922W        W28248  11.367   3.963  10.308
55923W        W28249  33.722  19.148  12.154
55924W        W28250   0.039  10.829  11.233
55925W        W28251  36.002  13.399   1.817
55926W        W28252  13.112   5.507  10.254
55927W        W28253  36.471  29.848  12.089
55928W        W28254  34.954  34.679  14.857
55929W        W28255  41.942  42.553  14.992
55930W        W28256   1.965  29.462  13.957
55931W        W28257  38.391  23.517   1.738
55932W        W28258  14.850  20.338   0.359
55933W        W28259  31.947   8.429  10.469
55934W        W28260  41.369  10.799  14.973
55935W        W28261  33.874  39.907  12.957
55936W        W28262  37.457  10.091  13.514
55937W        W28263  10.392   8.651   3.893
55938W        W28264  31.098  27.501   3.673
55939W        W28265  16.904  34.979   3.509
55940W        W28266  15.427  30.069   2.874
55941W        W28267  36.412  44.300   2.120
55942W        W28268   9.132   3.500  11.457
55943W        W28269  28.474  42.586  10.728
55944W        W28270  35.896  18.608   0.882
55945W        W28271  35.053  28.852  14.668
55946W        W28272  13.323  21.791   3.177
55947W        W28273  14.581  28.414   1.352
55948W        W28274  11.684  13.165   0.156
55949W        W28275  43.277   2.050  10.794
55950W        W28276   6.653  29.863   1.305
55951W        W28277  27.276  23.123  14.895
55952W        W28278  13.598  14.758  10.822
55953W        W28279  19.562  31.532  10.645
55954W        W28280  36.479   0.149  11.939
55955W        W28281  18.472  21.612   2.906
55956W        W28282  35.436  38.412  13.163
55957W        W28283  27.464  21.656   3.859
55958W        W28284  27.164   5.625   4.747
55959W        W28285  10.377  11.027  14.495
55960W        W28286  18.587  16.439  11.210
55961W        W28287  26.457  18.737   4.177
55962W        W28288  40.587   4.398   4.156
55963W        W28289  34.124   9.116   0.258
55964W        W28290  16.101   9.646   1.226
55965W        W28291   7.834  33.369   2.621
55966W        W28292  22.468  21.742  10.666
55967W        W28293  13.609  18.337  14.856
55968W        W28294  17.161  30.467  13.103
55969W        W28295  30.877  35.885   4.127
55970W        W28296  29.110  43.051   0.027
55971W        W28297  32.456  22.385  14.743
55972W        W28298  20.205  42.574  14.967
55973W        W28299  40.651  26.025  13.138
55974W        W28300   4.119  29.459   2.753
55975W        W28301  21.234  29.551   1.385
55976W        W28302  13.264  36.069   3.684
55977W        W28303  24.206  43.507   2.796
55978W        W28304  32.684   5.073   2.314
55979W        W28305   4.677   7.376  14.807
55980W        W28306  43.456  34.567   0.747
55981W        W28307  25.294  23.237  14.503
55982W        W28308  13.458  36.496   5.065
55983W        W28309  20.173  21.646  14.536
55984W        W28310  36.451  34.085   0.118
55985W        W28311   0.843  32.313   2.692
55986W        W28312   0.535  32.960   1.159
55987W        W28313  39.353  12.348  13.923
55988W        W28314  35.013  14.115   3.715
55989W        W28315  43.306  14.382  13.070
55990W        W28316  40.734  19.255   1.871
55991W        W28317  24.964   5.132   0.727
55992W        W28318   3.120  40.464  14.306
55993W        W28319  35.406  35.547  13.464
55994W        W28320   8.398  13.391  11.578
55995W        W28321  22.123   3.432   2.732
55996W        W28322   6.837  40.831   4.544
55997W        W28323  25.708  15.828   1.100
55998W        W28324  19.045  40.075  12.167
55999W        W28325  35.496  17.456   4.668
56000W        W28326   9.903   9.986  13.023
56001W        W28327  15.638   3.696  12.554
56002W        W28328  33.422  42.205  12.027
56003W        W28329  11.623   1.722  10.684
56004W        W28330  40.253  38.533   0.447
56005W        W28331  14.825  23.108  13.454
56006W        W28332  27.678  31.648   2.284
56007W        W28333  22.687   7.910  11.849
56008W        W28334  15.690  12.674   0.687
56009W        W28335  16.521  38.474   3.290
56010W        W28336  40.290  15.695   1.860
56011W        W28337   0.215  35.964  11.403
56012W        W28338   9.770  19.430   4.068
56013W        W28339  23.714   2.433  12.050
56014W        W28340  39.996  39.589   1.926
56015W        W28341  42.593  13.668  11.878
56016W        W28342  33.421  19.854   0.899
56017W        W28343   3.660   9.701   4.104
56018W        W28344  41.975  21.985  10.538
56019W        W28345  34.884  16.877  13.340
56020W        W28346   6.469   8.463  12.489
56021W        W28347   1.658  43.917  13.063
56022W        W28348   4.644  43.487  10.956
56023W        W28349  42.500  43.899   3.789
56024W        W28350   5.336  16.519   3.603
56025W        W28351  31.551   4.401  14.519
56026W        W28352  25.298   2.466  12.135
56027W        W28353  24.423   3.931  14.270
56028W        W28354   2.113   8.267   3.429
56029W        W28355  21.414  21.589  10.321
56030W        W28356  19.497  35.470   1.776
56031W        W28357  38.621  37.551   0.291
56032W        W28358   3.320  22.767   4.900
56033W        W28359  38.631  35.449  11.057
56034W        W28360  19.259  33.336  12.874
56035W        W28361  31.438  37.792   4.238
56036W        W28362  38.376  11.320  11.264
56037W        W28363  28.290  13.473  11.127
56038W        W28364  25.992  41.513   0.959
56039W        W28365  40.228  21.182   2.778
56040W        W28366  41.020  29.958  12.419
56041W        W28367  43.206   8.812  14.878
56042W        W28368  20.253   1.287   1.727
56043W        W28369  20.828  29.936  10.500
56044W        W28370  28.895   3.459   4.149
56045W        W28371  36.477   1.710   3.854
56046W        W28372  35.583  11.767  12.930
56047W        W28373  42.849  24.677  12.619
56048W        W28374   8.956  17.349  13.539
56049W        W28375  19.467  15.474  14.805
56050W        W28376  32.110  36.916  12.700
56051W        W28377   8.023  41.361   3.050
56052W        W28378   9.348  15.563  11.308
56053W        W28379   1.381   7.330   0.434
56054W        W28380   8.265   7.552  12.772
56055W        W28381  43.960  20.617   4.163
56056W        W28382  24.476  44.707  10.654
56057W        W28383  41.562   0.566   2.307
56058W        W28384  13.738   1.966   0.297
56059W        W28385  11.738   7.291   3.212
56060W        W28386   2.406  19.178   4.520
56061W        W28387   6.709  41.532  10.898
56062W        W28388  17.566  30.410  14.942
56063W        W28389  24.193   9.706  11.382
56064W        W28390  38.789  39.456  10.468
56065W        W28391  37.804  44.728   4.598
56066W        W28392  28.963  42.335  14.273
56067W        W28393  32.105  22.038  11.497
56068W        W28394  40.376  11.323  13.503
56069W        W28395   7.617  29.665   2.142
56070W        W28396  30.775  42.920  14.258
56071W        W28397  23.261  31.521  12.919
56072W        W28398  36.379   3.242   2.287
56073W        W28399   8.337  13.898  11.710
56074W        W28400  44.371  26.554   4.563
56075W        W28401  20.230  31.469   1.471
56076W        W28402  13.966  11.081  12.546
56077W        W28403  30.424  20.599   0.932
56078W        W28404  19.032  12.232  14.733
56079W        W28405  23.473  34.664   0.334
56080W        W28406  26.648   4.768   1.968
56081W        W28407  20.124   0.033   2.151
56082W        W28408   2.643  27.961  10.796
56083W        W28409  33.191  29.933   1.455
56084W        W28410  30.669   3.347   3.829
56085W        W28411  15.830  22.201   3.743
56086W        W28412  17.155  32.131  10.593
56087W        W28413  23.689  41.622  12.956
56088W        W28414  15.561   1.982  11.537
56089W        W28415   6.224  16.347  14.960
56090W        W28416  39.726  17.475  10.940
56091W        W28417  18.452   1.299   0.798
56092W        W28418  33.506  32.398   3.303
56093W        W28419  10.843  11.666  14.929
56094W        W28420  19.721  12.377   0.854
56095W        W28421  13.828   7.267  13.155
56096W        W28422  38.381   8.134  13.966
56097W        W28423  23.901  19.737  14.864
56098W        W28424  33.135  42.289   4.594
56099W        W28425  26.116  44.341   3.411
56100W        W28426  35.877   4.119  10.944
56101W        W28427  40.822   6.627  13.355
56102W        W28428  37.517  29.950  10.785
56103W        W28429  18.571  26.659   3.261
56104W        W28430  32.949   0.097   3.565
56105W        W28431   1.173  32.911  12.556
56106W        W28432  30.182  15.067  14.859
56107W        W28433  23.087  40.393   2.249
56108W        W28434   8.632  42.994  11.907
56109W        W28435  34.492  18.035   3.215
56110W        W28436  32.215  19.233   0.843
56111W        W28437  41.817  35.785   1.533
56112W        W28438  29.610  16.313  10.763
56113W        W28439  29.720  40.464   2.304
56114W        W28440  36.366  36.355   3.833
56115W        W28441  18.743  37.922   4.573
56116W        W28442   4.650  29.510  12.939
56117W        W28443  37.711  13.702   3.329
56118W        W28444  15.059  28.256   2.947
56119W        W28445  15.314   3.684  11.392
56120W        W28446  30.175  15.829   3.839
56121W        W28447  17.078  34.997  10.550
56122W        W28448   4.951  14.159  13.987
56123W        W28449  33.135  10.424   0.972
56124W        W28450  25.140  34.092   2.291
56125W        W28451   9.127  29.547   0.450
56126W        W28452  13.443   2.915  12.907
56127W        W28453   9.602  23.993   3.659
56128W        W28454  22.401  27.971  13.814
56129W        W28455  37.934   6.238   3.321
56130W        W28456   8.033  23.987   2.705
56131W        W28457  33.721  31.042  14.024
56132W        W28458  25.145  28.974  10.703
56133W        W28459  31.090  30.534   0.146
56134W        W28460  40.032  15.906   0.483
56135W        W28461  42.723  23.395  11.333
56136W        W28462  17.162  12.397   4.936
56137W        W28463   0.376  37.365   1.874
56138W        W28464  28.524   6.323   3.345
56139W        W28465  42.283  15.274   3.922
56140W        W28466   4.180  21.193  14.429
56141W        W28467  29.592  36.751   2.773
56142W        W28468   9.900  44.313   3.841
56143W        W28469  24.728  23.937   4.013
56144W        W28470  30.527  27.006   2.215
56145W        W28471   0.347  14.918   2.369
56146W        W28472  42.285   0.953  13.359
56147W        W28473  16.900  29.949  11.375
56148W        W28474   1.909  24.499   3.195
56149W        W28475   5.839   4.308   1.473
56150W        W28476  18.322  35.274  14.714
56151W        W28477  29.435  27.919  10.691
56152W        W28478   1.798  34.488   1.842
56153W        W28479   0.180  31.460   2.855
56154W        W28480  14.823  43.789   1.020
56155W        W28481  19.313  36.936  12.935
56156W        W28482   4.469   5.637   4.548
56157W        W28483  42.359  41.734   4.249
56158W        W28484   7.739  33.109  13.356
56159W        W28485  27.511  32.922   3.532
56160W        W28486  19.237  21.068   2.745
56161W        W28487  34.474  16.071   3.274
56162W        W28488  38.493   1.773  13.454
56163W        W28489  18.559  37.859   3.591
56164W        W28490  24.252  29.944  10.292
56165W        W28491   9.308  39.978  14.361
56166W        W28492  20.959   3.213  11.120
56167W        W28493  14.224  15.176  11.929
56168W        W28494   9.431  15.290   3.679
56169W        W28495  23.252  30.651   1.799
56170W        W28496  10.072  38.305   2.804
56171W        W28497  40.914  25.495   2.139
56172W        W28498   1.594  28.014  12.906
56173W        W28499   4.513  32.413   1.587
56174W        W28500   9.891  29.359   2.842
56175W        W28501  34.215   8.873   4.230
56176W        W28502  30.490  12.616  14.369
56177W        W28503   0.745  36.967   1.283
56178W        W28504  28.440  20.360  11.443
56179W        W28505  43.413  32.157  12.594
56180W        W28506  40.583   0.267   3.680
56181W        W28507  16.851  25.423   1.361
56182W        W28508   1.443  37.970  13.390
56183W        W28509  28.595  37.047  11.884
56184W        W28510   8.112   1.867  11.095
56185W        W28511   5.123  14.426  10.718
56186W        W28512  20.593  44.294   0.813
56187W        W28513   0.601  28.202   1.454
56188W        W28514  26.490  18.513  10.956
56189W        W28515  42.276  30.483  13.015
56190W        W28516  31.715  33.595   0.314
56191W        W28517   0.334  32.613  12.407
56192W        W28518  16.291  24.579  12.549
56193W        W28519  25.033  27.940   3.656
56194W        W28520   9.754   5.354  12.111
56195W        W28521  30.949  22.585   3.510
56196W        W28522   9.225  42.030   3.631
56197W        W28523  36.442   2.640   1.456
56198W        W28524  40.248  32.002  13.903
56199W        W28525  35.351  10.030   2.318
56200W        W28526   6.457  20.518  10.552
56201W        W28527  22.983  27.419  12.410
56202W        W28528  12.656  24.442   5.046
56203W        W28529  44.987  17.947   1.291
56204W        W28530  18.100  20.239   3.201
56205W        W28531  22.130   4.126  10.964
56206W        W28532   6.918  33.192   3.236
56207W        W28533  28.437   2.733  12.887
56208W        W28534   2.133  16.332   1.871
56209W        W28535  15.328  30.445   3.315
56210W        W28536   8.240  18.643   3.907
56211W        W28537  23.728  31.977  12.559
56212W        W28538  30.909   0.835   3.157
56213W        W28539  23.188  27.693  11.035
56214W        W28540  27.780  36.538   3.195
56215W        W28541  17.070  22.740   1.325
56216W        W28542  41.203  33.574  11.736
56217W        W28543  23.072  28.587  13.233
56218W        W28544  21.165  26.155   1.307
56219W        W28545  23.570  11.711   3.188
56220W        W28546  35.381   7.264   3.395
56221W        W28547  44.007  37.869   0.333
56222W        W28548  43.851  27.192  14.451
56223W        W28549  28.322   6.371   2.288
56224W        W28550  43.464   0.454  10.334
56225W        W28551  35.011  20.518   4.520
56226W        W28552  19.752  33.557   1.446
56227W        W28553  12.826   9.309   2.417
56228W        W28554  34.488  41.343  13.101
56229W        W28555  39.377   6.471   1.190
56230W        W28556   7.206  29.561   2.404
56231W        W28557   8.259  35.961  12.772
56232W        W28558  36.554  13.318   1.695
56233W        W28559  12.059  37.600  13.100
56234W        W28560  19.771  11.376   0.354
56235W        W28561  33.937  17.833  13.529
56236W        W28562  43.509  31.496   3.624
56237W        W28563  31.384   5.810  10.267
56238W        W28564   7.723  36.695  11.308
56239W        W28565  44.080  42.788   4.572
56240W        W28566  17.387  29.473  10.601
56241W        W28567  31.338  27.195   0.006
56242W        W28568  13.208  22.522  12.695
56243W        W28569  34.140  19.761   1.299
56244W        W28570  37.494   5.347  10.909
56245W        W28571  28.577  21.543   3.593
56246W        W28572  11.126  17.261   3.357
56247W        W28573  10.082   3.442   4.200
56248W        W28574   5.222  17.152   3.273
56249W        W28575  25.878  26.679   1.020
56250W        W28576  42.857  44.063   4.098
56251W        W28577  23.132  37.881   0.967
56252W        W28578   9.953   5.429   0.124
56253W        W28579  11.847  37.534   4.111
56254W        W28580  11.216  41.832  12.133
56255W        W28581  40.076  29.081   1.889
56256W        W28582  13.152  11.699   4.597
56257W        W28583  12.608  17.731   3.620
56258W        W28584  36.593  19.223   4.906
56259W        W28585   3.703   5.172   0.006
56260W        W28586   0.045  24.121   0.027
56261W        W28587  10.883  41.237   3.667
56262W        W28588  40.074  43.309  10.675
56263W        W28589  37.102  33.388   3.663
56264W        W28590  19.420  43.760  12.566
56265W        W28591  10.197  24.771   2.285
56266W        W28592   7.267   5.944   3.430
56267W        W28593  10.583   6.106   0.448
56268W        W28594  28.613   3.278   4.593
56269W        W28595  16.325  35.432  10.649
56270W        W28596  10.005   7.862   2.374
56271W        W28597  36.161  22.824  13.450
56272W        W28598  44.837  13.613   2.288
56273W        W28599  29.557  33.411  10.088
56274W        W28600  41.436  32.542   4.500
56275W        W28601  16.845  33.016   0.202
56276W        W28602  18.599  26.968  11.693
56277W        W28603  32.092   1.373   2.301
56278W        W28604  28.608   5.451   0.245
56279W        W28605  12.784  35.983   0.209
56280W        W28606  28.802  16.858  12.388
56281W        W28607  13.755  24.737   1.280
56282W        W28608  31.931   7.932  14.115
56283W        W28609  34.426   3.792  14.529
56284W        W28610  13.359  37.175  12.116
56285W        W28611  32.489  43.880   3.188
56286W        W28612  35.076  33.619   4.745
56287W        W28613  38.855   7.641  11.155
56288W        W28614  29.484  11.271   3.247
56289W        W28615   9.266  13.263   1.497
56290W        W28616  12.238  18.062  13.784
56291W        W28617  38.906   2.271  12.413
56292W        W28618  15.347  20.507  11.060
56293W        W28619  34.957   7.486   3.143
56294W        W28620  36.051  14.675   1.370
56295W        W28621  35.635  34.602  12.592
56296W        W28622  29.210  29.080   1.419
56297W        W28623  36.823   6.560  11.166
56298W        W28624   1.821  22.661  11.396
56299W        W28625  24.144  37.148   0.331
56300W        W28626  22.996  44.308  13.299
56301W        W28627  37.226  21.543   2.385
56302W        W28628  41.325  37.066  12.957
56303W        W28629  41.064   2.513  12.116
56304W        W28630  44.695  10.685  13.606
56305W        W28631  42.582  12.469  13.292
56306W        W28632  38.493  38.082   0.202
56307W        W28633   3.079  41.574  12.865
56308W        W28634  32.576  44.012  12.925
56309W        W28635  20.154  10.561   4.573
56310W        W28636  42.955  25.580   4.556
56311W        W28637  18.219   9.854  13.567
56312W        W28638  25.148  17.617   4.195
56313W        W28639  42.787  23.251  12.275
56314W        W28640  25.482  22.522   1.547
56315W        W28641   3.919  17.144  14.732
56316W        W28642  24.182  18.577  13.551
56317W        W28643  42.181   4.623   1.750
56318W        W28644  28.505  16.787   3.662
56319W        W28645  25.046  41.286   2.370
56320W        W28646   8.265  20.515  13.416
56321W        W28647  19.130  40.283   0.897
56322W        W28648  29.849  21.518  11.902
56323W        W28649  34.579  27.638  11.662
56324W        W28650  27.043  23.328   1.476
56325W        W28651  31.575  22.612  12.512
56326W        W28652  22.051   2.864   1.395
56327W        W28653  43.543   8.627   4.001
56328W        W28654  28.778  19.329  13.943
56329W        W28655  13.256  36.492  13.313
56330W        W28656  39.154  10.225  14.843
56331W        W28657   9.736  30.123   1.381
56332W        W28658  28.820  15.941  11.144
56333W        W28659  28.750  16.056   4.035
56334W        W28660  24.872   1.951  12.966
56335W        W28661  22.649  32.361   1.218
56336W        W28662  37.650  12.467   4.165
56337W        W28663  33.883  41.533  12.355
56338W        W28664  19.985  24.158  11.624
56339W        W28665  12.249  26.450   0.243
56340W        W28666  44.501   3.301  10.645
56341W        W28667  11.880  34.010  13.163
56342W        W28668  11.791   9.623   1.333
56343W        W28669   6.306   6.084  13.357
56344W        W28670  19.878  17.213   4.583
56345W        W28671   3.330   2.561   1.354
56346W        W28672   4.391  15.587  11.530
56347W        W28673  40.239   8.218   3.779
56348W        W28674  41.822   1.576   0.041
56349W        W28675  32.588  27.230   4.155
56350W        W28676  29.598   2.588   0.888
56351W        W28677  42.231  26.194   0.425
56352W        W28678  36.852  19.128  12.869
56353W        W28679  36.042  25.590   3.037
56354W        W28680  19.835  18.589  14.449
56355W        W28681   9.297  32.639  13.507
56356W        W28682  37.596  15.660   4.812
56357W        W28683  38.364  27.508   2.719
56358W        W28684  37.548  31.620  10.881
56359W        W28685  37.455  12.575  11.516
56360W        W28686   1.471  21.672   4.655
56361W        W28687   1.878  44.032   3.680
56362W        W28688   7.590  24.058  12.410
56363W        W28689  16.347  23.252   1.704
56364W        W28690   3.309  10.276  14.729
56365W        W28691  11.462  12.226  14.377
56366W        W28692  39.334   3.750   0.565
56367W        W28693  29.961   8.350   0.310
56368W        W28694  40.051  12.749  14.962
56369W        W28695  33.226   8.786   2.929
56370W        W28696  36.617  20.756  11.887
56371W        W28697   6.921   9.790  10.603
56372W        W28698  15.662  22.942  13.521
56373W        W28699  44.470   0.476  13.811
56374W        W28700   1.229   4.940   2.824
56375W        W28701   6.785   2.984  10.984
56376W        W28702  32.664  11.397  13.538
56377W        W28703  25.680   0.291  14.634
56378W        W28704  36.539  22.263  10.866
56379W        W28705  42.658  12.329  12.336
56380W        W28706  25.298   6.346   4.665
56381W        W28707  36.375  19.334  12.856
56382W        W28708  10.814  37.307  14.676
56383W        W28709  37.404  15.768  14.978
56384W        W28710  13.134  26.884  10.909
56385W        W28711  37.307  43.351  12.530
56386W        W28712  21.481  16.575  13.226
56387W        W28713  14.343   9.296  13.001
56388W        W28714   4.965  44.989   4.439
56389W        W28715  18.103  40.473   2.450
56390W        W28716   6.582  40.331   0.490
56391W        W28717   1.366  30.599   4.210
56392W        W28718  13.120  15.277   0.321
56393W        W28719  34.499  38.841   1.450
56394W        W28720   1.978   4.307   5.496
56395W        W28721  30.338  38.828   4.388
56396W        W28722  34.813  33.574   2.076
56397W        W28723  31.906  29.975   3.807
56398W        W28724   8.396  13.190   0.895
56399W        W28725  37.565   6.368  11.112
56400W        W28726  36.984  14.825   0.299
56401W        W28727   2.249  32.543   2.657
56402W        W28728  22.617   1.510  11.395
56403W        W28729  41.967  41.580  13.077
56404W        W28730  14.140  43.440  12.912
56405W        W28731  11.805   7.541  11.004
56406W        W28732   8.428  33.808  12.404
56407W        W28733  10.148  23.514  13.860
56408W        W28734  34.537  15.048   3.168
56409W        W28735  40.861  16.846  11.200
56410W        W28736   7.369  30.521   2.642
56411W        W28737  43.454  29.053  11.449
56412W        W28738  12.764  40.325  14.410
56413W        W28739  37.032  14.793  13.864
56414W        W28740  18.563  33.517  10.667
56415W        W28741  26.533  18.359   0.667
56416W        W28742   6.426   3.337  10.400
56417W        W28743  37.824  18.172  13.503
56418W        W28744  25.544   3.754   3.608
56419W        W28745  43.144  29.399   3.208
56420W        W28746   1.428  39.444   1.363
56421W        W28747   1.809  21.449  14.381
56422W        W28748  18.380  15.212  12.810
56423W        W28749  27.273  43.021   4.774
56424W        W28750  40.379   4.234  14.815
56425W        W28751   4.218   8.210  11.948
56426W        W28752  14.392  22.946   2.686
56427W        W28753  34.622  33.801   1.658
56428W        W28754   1.127  38.979  13.865
56429W        W28755  42.808  23.651  13.723
56430W        W28756   4.470   4.814   2.399
56431W        W28757  38.623  40.492  14.448
56432W        W28758  44.465  23.584   2.794
56433W        W28759  40.737  28.893   4.111
56434W        W28760   8.972   0.451   1.407
56435W        W28761  19.538   9.392   1.559
56436W        W28762  19.373  21.564  13.990
56437W        W28763  25.628   9.213   2.668
56438W        W28764   0.020  40.597  11.597
56439W        W28765  27.564  31.086  12.153
56440W        W28766   6.711  37.167   0.771
56441W        W28767  42.796  24.646   3.845
56442W        W28768  10.684  12.315  11.143
56443W        W28769  35.405  26.205   4.670
56444W        W28770  10.364   2.243   3.124
56445W        W28771  31.353   6.650   0.774
56446W        W28772  36.965  10.802  13.535
56447W        W28773  37.365  32.018  11.173
56448W        W28774  26.451  35.073  14.990
56449W        W28775  14.638  21.583   4.298
56450W        W28776  11.792  10.731  14.299
56451W        W28777  38.381   6.379   1.183
56452W        W28778  18.668  25.146  13.546
56453W        W28779  15.298  39.570   4.488
56454W        W28780   9.267  34.364   0.257
56455W        W28781  37.142  37.583  11.158
56456W        W28782  33.930  28.710   2.287
56457W        W28783  38.979  41.998   0.317
56458W        W28784  33.012  23.695   0.845
56459W        W28785  30.855  20.286   3.535
56460W        W28786  11.824  41.443   4.613
56461W        W28787  18.282   2.230  11.072
56462W        W28788  40.014  39.246   1.085
56463W        W28789  14.275  31.178   5.101
56464W        W28790  37.262  16.218   1.202
56465W        W28791  41.859  12.056   4.821
56466W        W28792  43.401  21.591  14.352
56467W        W28793  36.968  37.532   2.645
56468W        W28794   1.771  37.268  13.829
56469W        W28795  24.637  32.108  11.574
56470W        W28796   2.950  32.572   2.158
56471W        W28797  41.430  26.036  12.643
56472W        W28798  18.462  21.299  14.410
56473W        W28799  32.560   8.148  12.804
56474W        W28800   7.963  10.248   1.849
56475W        W28801   6.509   6.314  12.553
56476W        W28802  10.962  26.187  10.523
56477W        W28803  23.935   5.329   1.078
56478W        W28804  26.512  36.911  13.039
56479W        W28805  42.232   0.986  12.853
56480W        W28806  33.819  31.773   2.276
56481W        W28807  20.855  42.607   0.657
56482W        W28808  16.347   0.944   1.824
56483W        W28809  25.057  27.640   3.217
56484W        W28810   7.528  31.048  13.459
56485W        W28811  43.838  31.391  14.244
56486W        W28812  17.169  26.477  13.065
56487W        W28813  16.581   2.850  11.178
56488W        W28814  41.804  14.096   1.888
56489W        W28815  13.796  19.773   1.014
56490W        W28816  33.888   3.824  11.547
56491W        W28817  40.478  21.669   2.859
56492W        W28818   6.924  43.019   2.726
56493W        W28819  26.240  22.086  10.991
56494W        W28820   9.225  37.219  11.608
56495W        W28821   5.217   6.234  14.605
56496W        W28822  11.163   1.243   1.688
56497W        W28823  39.335  39.392   3.263
56498W        W28824   3.357  28.215   1.415
56499W        W28825  25.384   4.174   0.891
56500W        W28826  19.840  22.622   3.599
56501W        W28827  14.159  27.438  14.943
56502W        W28828  42.908  31.386  14.501
56503W        W28829  21.127  14.340  12.987
56504W        W28830   9.398   1.203   2.000
56505W        W28831  43.204  29.827  10.431
56506W        W28832  40.959  27.526  12.289
56507W        W28833  25.636  34.111  11.195
56508W        W28834  40.986  31.471  13.853
56509W        W28835  25.174  23.765  14.780
56510W        W28836  28.999  43.986   2.907
56511W        W28837  22.703   9.295   3.594
56512W        W28838   6.934  31.340  11.600
56513W        W28839  41.968  16.252  12.916
56514W        W28840   3.647   1.551  12.355
56515W        W28841  18.620  43.068  11.582
56516W        W28842   6.556  37.192   2.268
56517W        W28843   2.807  40.880  11.606
56518W        W28844  23.546  40.071  13.012
56519W        W28845  18.147  13.295   2.153
56520W        W28846  42.249   0.791   0.270
56521W        W28847  37.951  25.092   4.568
56522W        W28848  15.310  36.150   1.038
56523W        W28849  12.853  22.538  13.337
56524W        W28850   6.199  37.765  10.716
56525W        W28851  38.382  36.014   3.920
56526W        W28852  28.613   1.472  13.506
56527W        W28853  42.809  18.088   1.240
56528W        W28854  43.725  28.199  10.584
56529W        W28855  40.753  23.531   2.344
56530W        W28856  29.372   7.649   0.350
56531W        W28857   1.957   2.917   1.338
56532W        W28858  33.441  42.974   1.125
56533W        W28859  37.438   6.451  12.448
56534W        W28860  15.617   9.851   2.410
56535W        W28861  37.163  30.759  10.069
56536W        W28862  25.911  38.861  14.440
56537W        W28863   9.654  32.660  14.510
56538W        W28864   7.337  42.833  10.894
56539W        W28865  13.852  12.310  13.404
56540W        W28866  14.069  27.844  11.581
56541W        W28867  22.155  18.316  14.445
56542W        W28868  42.790  25.272   1.468
56543W        W28869   3.832  28.086  11.987
56544W        W28870  27.828  38.570   2.399
56545W        W28871  19.337   5.723   4.596
56546W        W28872   2.674  12.523  14.779
56547W        W28873  18.507  41.048   1.300
56548W        W28874  19.967  23.903  12.899
56549W        W28875   6.932  25.545  10.645
56550W        W28876   8.370  28.597  13.324
56551W        W28877   8.265  25.132   1.421
56552W        W28878  10.804   7.407   1.828
56553W        W28879  13.309   7.218  14.075
56554W        W28880   9.594  33.852  10.549
56555W        W28881   9.710  44.932  14.721
56556W        W28882  39.260  43.233  12.807
56557W        W28883  44.956  37.603  12.521
56558W        W28884  31.152  19.310  10.680
56559W        W28885  19.167   0.847  14.220
56560W        W28886  21.673  15.224  13.569
56561W        W28887  25.111  30.880  14.950
56562W        W28888   4.683  36.657  10.802
56563W        W28889  31.673  31.853   5.193
56564W        W28890  26.972  18.208   0.407
56565W        W28891  26.552  23.604  11.161
56566W        W28892  21.269  40.679  12.106
56567W        W28893  38.872  24.433  13.919
56568W        W28894  26.553  38.545   4.638
56569W        W28895  18.464  23.963  10.727
56570W        W28896  35.528  11.548  11.131
56571W        W28897  38.447  11.904   2.455
56572W        W28898  16.527  33.094   1.136
56573W        W28899  34.471  32.055  10.556
56574W        W28900  28.830  11.625   1.050
56575W        W28901   1.953  35.248  13.249
56576W        W28902  27.915  13.380   3.681
56577W        W28903   3.404   0.632   3.434
56578W        W28904  15.757  31.446  10.686
56579W        W28905  34.840  28.261  11.144
56580W        W28906  39.811  17.195   3.190
56581W        W28907  13.134  33.963  12.093
56582W        W28908  21.315  44.917  10.368
56583W        W28909   4.462   5.799   4.065
56584W        W28910  39.806   7.353  12.005
56585W        W28911  40.596  14.874  12.433
56586W        W28912  39.959  41.826   3.611
56587W        W28913   4.807  43.718   3.158
56588W        W28914   9.272  12.524   2.864
56589W        W28915  27.222  17.612  11.108
56590W        W28916   6.207  28.665  13.493
56591W        W28917   3.677   5.369   1.253
56592W        W28918   5.412  41.770   1.942
56593W        W28919   5.780  39.416  10.871
56594W        W28920  33.405   6.803  14.383
56595W        W28921   2.352  23.167  14.748
56596W        W28922  19.763   1.438   3.468
56597W        W28923   9.180  15.470  12.387
56598W        W28924   5.924   0.066  14.464
56599W        W28925  11.712  11.729   0.233
56600W        W28926  41.946  12.794   2.682
56601W        W28927  27.774  42.497  12.881
56602W        W28928  11.664  31.579  14.731
56603W        W28929  33.986  15.986   3.064
56604W        W28930   1.023  38.950   1.250
56605W        W28931   2.757   3.193  10.108
56606W        W28932  34.953  21.576  12.800
56607W        W28933  37.915   4.988   4.209
56608W        W28934  35.506  41.851  14.529
56609W        W28935  27.686  42.123  11.078
56610W        W28936  38.340  13.943   2.683
56611W        W28937   1.559  21.923  11.009
56612W        W28938  43.817   4.437   3.290
56613W        W28939  35.295  34.085  11.818
56614W        W28940  32.005  32.015  10.639
56615W        W28941  19.369   1.149   0.695
56616W        W28942  15.965  41.023   1.347
56617W        W28943  33.405  33.049  13.876
56618W        W28944  20.761  34.902   4.658
56619W        W28945  44.763  27.298  11.551
56620W        W28946  29.754  26.576   2.652
56621W        W28947  40.188  29.166  11.183
56622W        W28948  13.286  21.368   4.492
56623W        W28949  22.251  42.347   0.749
56624W        W28950  26.310  42.484  10.422
56625W        W28951  28.320  18.191   2.507
56626W        W28952  41.846  40.423   3.123
56627W        W28953  19.678  35.934   0.503
56628W        W28954  21.523   4.654   0.385
56629W        W28955  43.082  16.189   2.113
56630W        W28956  36.316  26.611  14.419
56631W        W28957  31.885   4.451  10.284
56632W        W28958  39.860  39.123  13.075
56633W        W28959  43.047  13.666  12.478
56634W        W28960  41.231  41.135   3.181
56635W        W28961  30.918  29.453   4.164
56636W        W28962  15.985  27.114  10.611
56637W        W28963   8.789  41.029  14.413
56638W        W28964   4.932  40.077   4.111
56639W        W28965  32.328  33.909   3.726
56640W        W28966  42.774  13.373   3.220
56641W        W28967  38.505  20.522   3.974
56642W        W28968  22.909   2.287   4.140
56643W        W28969  29.076  44.018   1.392
56644W        W28970   6.090  20.802  14.303
56645W        W28971  28.580  12.897  14.744
56646W        W28972   0.188  24.827  11.162
56647W        W28973   6.331  40.294   4.103
56648W        W28974  35.682  37.161  12.058
56649W        W28975   7.230  16.264   3.605
56650W        W28976  12.769  15.300  13.896
56651W        W28977  12.206   0.076  14.447
56652W        W28978  10.830   6.117  11.707
56653W        W28979  42.016  39.982  14.882
56654W        W28980   1.431  10.883  13.987
56655W        W28981   9.264  32.087  11.869
56656W        W28982  34.164  29.390   2.886
56657W        W28983  20.444  38.998  14.804
56658W        W28984   2.737  35.443  10.908
56659W        W28985  37.163   7.913   4.591
56660W        W28986   4.651  11.614  11.185
56661W        W28987  24.173  10.974  13.373
56662W        W28988  37.155  25.285   4.209
56663W        W28989  41.891  37.018  13.894
56664W        W28990   3.467  20.547   2.852
56665W        W28991  21.100  33.381   3.802
56666W        W28992  37.961  17.742  12.015
56667W        W28993   0.284  34.014  10.641
56668W        W28994  34.380  42.854   3.725
56669W        W28995  24.080  40.272  14.858
56670W        W28996  36.961  23.766   0.031
56671W        W28997  12.167  43.074   4.100
56672W        W28998   8.168  10.426   3.203
56673W        W28999  23.902  14.345  14.161
56674W        W29000   5.956  21.600   2.897
56675W        W29001  26.013  20.022   4.741
56676W        W29002   8.292  21.081  10.641
56677W        W29003   7.761  37.452   1.929
56678W        W29004  41.968  16.555   3.285
56679W        W29005   1.978  43.969   4.569
56680W        W29006  28.409  24.558  14.337
56681W        W29007  36.406  35.957  14.443
56682W        W29008  41.314  16.742  14.520
56683W        W29009  39.088  18.980  11.421
56684W        W29010  36.349   3.381   4.549
56685W        W29011  27.772  31.550  13.865
56686W        W29012   2.451  12.088  11.064
56687W        W29013   9.398  13.796   1.328
56688W        W29014  18.647  13.601  12.150
56689W        W29015   4.947   2.346  13.825
56690W        W29016  18.260  14.077  11.191
56691W        W29017   6.408  35.157   1.647
56692W        W29018  34.176   3.245  13.738
56693W        W29019  43.533  43.263   2.421
56694W        W29020  42.480  26.116   2.928
56695W        W29021  11.166  20.127  10.741
56696W        W29022   3.751  11.435   5.489
56697W        W29023  29.647  30.187  14.383
56698W        W29024   4.764   1.219   3.509
56699W        W29025  43.771  29.617   2.150
56700W        W29026   1.537  26.909  12.046
56701W        W29027  36.514  43.495  14.533
56702W        W29028  11.156  15.249  11.583
56703W        W29029  38.285   4.993  14.950
56704W        W29030  20.082   9.189  10.693
56705W        W29031  30.059   8.674   1.857
56706W        W29032  37.018  23.506   3.287
56707W        W29033  23.516  35.895   2.880
56708W        W29034  35.014   1.004  11.035
56709W        W29035   1.293   8.594  10.231
56710W        W29036  43.748  10.892   0.331
56711W        W29037  40.495  13.553  12.160
56712W        W29038   8.177   0.999   3.142
56713W        W29039  16.780  25.599   1.837
56714W        W29040  24.033  38.095  14.510
56715W        W29041  29.001  20.772  13.779
56716W        W29042  26.589  38.036  12.351
56717W        W29043  31.032  41.058  11.402
56718W        W29044  29.953  29.063  10.452
56719W        W29045  17.684  23.764   4.036
56720W        W29046   5.178  40.897  12.146
56721W        W29047  40.903  37.898   1.559
56722W        W29048  12.311   7.946  11.991
56723W        W29049  32.060  19.434  10.834
56724W        W29050  11.180  35.520  10.935
56725W        W29051   1.360  35.424  11.583
56726W        W29052  33.309  28.170   1.795
56727W        W29053  18.512  32.946  11.499
56728W        W29054  44.587   7.740  14.241
56729W        W29055  11.665  23.145   4.963
56730W        W29056   2.211  38.949  10.444
56731W        W29057  19.973   9.066   4.769
56732W        W29058  44.190  24.795  11.936
56733W        W29059  40.799  30.864   3.603
56734W        W29060  25.252   3.372   5.063
56735W        W29061  14.996  42.800  12.001
56736W        W29062   2.289   7.442  12.288
56737W        W29063  36.034  43.524  13.744
56738W        W29064  30.857  34.850   0.274
56739W        W29065  44.410   1.247  12.970
56740W        W29066  39.398  21.909  13.331
56741W        W29067  41.596  17.759  10.782
56742W        W29068  16.726  26.236  14.435
56743W        W29069  40.421  39.946  11.224
56744W        W29070  19.251  25.118  10.746
56745W        W29071  38.537   0.654  13.258
56746W        W29072   4.910  41.070   0.799
56747W        W29073   7.643  17.080   3.966
56748W        W29074  14.443   5.635  12.147
56749W        W29075  33.011  16.767  13.598
56750W        W29076  14.720  18.080   4.173
56751W        W29077   4.319  19.647   3.172
56752W        W29078  29.846  38.918  10.645
56753W        W29079  32.893  25.221   2.490
56754W        W29080  22.409  16.847  13.570
56755W        W29081   8.147   0.021   2.907
56756W        W29082  24.973  22.371   0.260
56757W        W29083   3.620  13.292  11.583
56758W        W29084   1.939  33.826  13.835
56759W        W29085   1.772   9.220   4.690
56760W        W29086   5.167  30.202  14.728
56761W        W29087  12.090   9.655  11.444
56762W        W29088  16.517  16.010  11.601
56763W        W29089  27.182  41.884  13.875
56764W        W29090  38.013  11.148  13.847
56765W        W29091   7.336  21.891   2.272
56766W        W29092   7.715   5.914  12.061
56767W        W29093   4.168  10.713   2.441
56768W        W29094  30.913   6.249  10.690
56769W        W29095  32.137  16.933  14.113
56770W        W29096  16.770  31.095   2.871
56771W        W29097  10.391  32.187  14.558
56772W        W29098   1.047  10.839  10.986
56773W        W29099  16.340  13.484  13.893
56774W        W29100  21.137  39.773  14.567
56775W        W29101   1.269  12.557   2.227
56776W        W29102  32.957  22.139  14.785
56777W        W29103   1.311  42.260   3.324
56778W        W29104  24.720  18.564   1.150
56779W        W29105  39.142  27.246   4.573
56780W        W29106   1.515   7.835   2.287
56781W        W29107   5.323  32.642  12.490
56782W        W29108  24.841  14.264   1.171
56783W        W29109  34.167   3.968   2.651
56784W        W29110  42.964   7.959  12.844
56785W        W29111  30.987  29.879   0.951
56786W        W29112  35.170  35.408  10.258
56787W        W29113   3.244  31.057  10.984
56788W        W29114  42.016  35.983  13.464
56789W        W29115  23.039   3.865  14.264
56790W        W29116  41.364  41.101   2.272
56791W        W29117  31.544  41.387  11.400
56792W        W29118  14.259  32.558  10.344
56793W        W29119  13.871   0.743   1.771
56794W        W29120  13.153  32.025  13.012
56795W        W29121  38.307  28.912  13.862
56796W        W29122   8.807   6.275  12.489
56797W        W29123  35.116   6.676  12.106
56798W        W29124  12.505  33.390   3.818
56799W        W29125   4.833  35.348   4.967
56800W        W29126  21.964   9.834  14.507
56801W        W29127  12.284   0.258   3.542
56802W        W29128  37.993  15.537  14.242
56803W        W29129  18.146   7.115  12.969
56804W        W29130  22.755  32.091  13.586
56805W        W29131   1.575  10.380   2.466
56806W        W29132   0.976  42.567  14.211
56807W        W29133  37.486   1.750   3.580
56808W        W29134  17.119  37.428  12.149
56809W        W29135  21.097   2.406   4.391
56810W        W29136  16.221  44.595   4.116
56811W        W29137  38.912  39.308   4.124
56812W        W29138  44.783  21.727   1.681
56813W        W29139  40.079  26.979  12.615
56814W        W29140  10.639  35.948   2.151
56815W        W29141  15.074  10.490   2.096
56816W        W29142  12.858   1.047  13.326
56817W        W29143  40.019   2.754  14.788
56818W        W29144  36.568  28.999  14.869
56819W        W29145  14.789  30.432  14.185
56820W        W29146  16.251   2.596   3.483
56821W        W29147  44.910  25.142   2.063
56822W        W29148  24.018  25.063  10.610
56823W        W29149  13.140   0.497   4.761
56824W        W29150  20.761  32.145   1.191
56825W        W29151  40.973  32.514   4.240
56826W        W29152  13.549  12.655   4.109
56827W        W29153  20.220  20.216  13.077
56828W        W29154  20.174  33.085  13.192
56829W        W29155  36.541   8.674  14.685
56830W        W29156  11.845   5.815  13.875
56831W        W29157  40.208   3.898  11.553
56832W        W29158   8.714   7.394  11.069
56833W        W29159  37.941  38.395  10.808
56834W        W29160   5.456  40.936   2.445
56835W        W29161   5.932  13.201  14.543
56836W        W29162  29.898  22.276   4.255
56837W        W29163   0.861  18.794  10.483
56838W        W29164  19.410   4.211  14.816
56839W        W29165  38.011   5.315  11.036
56840W        W29166  29.098   5.202  10.761
56841W        W29167  35.413  26.444   0.883
56842W        W29168   7.709  27.492   0.462
56843W        W29169  32.984  41.899   2.821
56844W        W29170  21.929  31.917   1.125
56845W        W29171  28.157  16.068   0.575
56846W        W29172  29.749  14.364  12.485
56847W        W29173  35.450  23.715  11.974
56848W        W29174  41.379  36.897   4.802
56849W        W29175  44.280  11.569  10.127
56850W        W29176  22.113  39.440  14.965
56851W        W29177   7.991  18.743  11.831
56852W        W29178  22.816  11.810  14.901
56853W        W29179   3.535  19.954   1.630
56854W        W29180   4.767   9.762  12.385
56855W        W29181  35.881  11.817   1.223
56856W        W29182  27.965  25.033  13.143
56857W        W29183  10.788  30.228  13.425
56858W        W29184  12.673  33.512   2.859
56859W        W29185   9.131   2.029  11.042
56860W        W29186   8.433  32.028  13.169
56861W        W29187  14.796   9.120   1.070
56862W        W29188  33.558  13.867  11.638
56863W        W29189  32.822  24.056   4.363
56864W        W29190  36.511  22.524  12.401
56865W        W29191  43.254   7.537  13.757
56866W        W29192  10.411  30.678  11.189
56867W        W29193  14.755  16.301   0.486
56868W        W29194  29.234  36.806   1.240
56869W        W29195  40.376   9.894   3.836
56870W        W29196  21.011  42.837  11.137
56871W        W29197  33.127  18.102  11.747
56872W        W29198  33.816  10.214  10.665
56873W        W29199   4.825  16.670   3.656
56874W        W29200   5.597  12.779   0.692
56875W        W29201  17.754  39.640   0.221
56876W        W29202  32.116  34.614   1.809
56877W        W29203   8.727  10.432  14.829
56878W        W29204  12.867  40.509  14.896
56879W        W29205  36.374  25.455  14.866
56880W        W29206  36.481   7.780  12.887
56881W        W29207  23.264   6.898   3.356
56882W        W29208  36.608  22.991  11.586
56883W        W29209  35.407  26.201   1.786
56884W        W29210   7.120  32.617  12.062
56885W        W29211  18.387  15.225   0.240
56886W        W29212  33.204  10.603  14.331
56887W        W29213  41.774  43.542   4.071
56888W        W29214  34.141   6.904   3.311
56889W        W29215  25.402  15.653  11.172
56890W        W29216  37.139  20.148   2.120
56891W        W29217  32.937  10.187  13.824
56892W        W29218  21.617  11.468   4.534
56893W        W29219  39.902  12.135   2.247
56894W        W29220   4.830  38.900   3.254
56895W        W29221  19.258  14.055   4.487
56896W        W29222   2.890  37.476  12.088
56897W        W29223  38.744   1.765   1.725
56898W        W29224   7.786  34.606  11.023
56899W        W29225  39.384  38.663   4.282
56900W        W29226  39.974  14.552   0.768
56901W        W29227  41.122   1.840   1.667
56902W        W29228   4.707  25.109  11.737
56903W        W29229  39.402   1.517  13.357
56904W        W29230  34.292  28.338  13.541
56905W        W29231  20.760  11.454  13.359
56906W        W29232   1.498   0.321  11.083
56907W        W29233  16.338  23.137   3.928
56908W        W29234  10.666   1.064   1.759
56909W        W29235  31.276  44.750  11.418
56910W        W29236  39.033  18.704  10.084
56911W        W29237  26.096  33.984  11.550
56912W        W29238  17.970  41.339  13.755
56913W        W29239  28.051  18.926   4.971
56914W        W29240  22.854  17.734  13.990
56915W        W29241  15.290  35.142  13.989
56916W        W29242  38.746   1.483  13.968
56917W        W29243  34.674  35.526  10.210
56918W        W29244  24.622  41.044   2.784
56919W        W29245  24.553  38.371  11.417
56920W        W29246  12.490  38.402   0.910
56921W        W29247   8.369  16.128  10.759
56922W        W29248  12.776  37.137  12.102
56923W        W29249  15.726  23.524  10.823
56924W        W29250  27.186  14.849   0.875
56925W        W29251   6.161  26.006   0.902
56926W        W29252  25.184  35.427   5.003
56927W        W29253  14.548  19.097  14.091
56928W        W29254   2.578   7.815   3.214
56929W        W29255   2.899  19.461   4.347
56930W        W29256  30.647  42.351   3.166
56931W        W29257  16.788  10.008  13.157
56932W        W29258  11.159  11.815  14.537
56933W        W29259  15.096  32.858   2.832
56934W        W29260  16.662   2.169   3.399
56935W        W29261  23.647  24.466   4.240
56936W        W29262  12.086  38.980  12.586
56937W        W29263   6.390  31.164  12.370
56938W        W29264  23.534  11.073  14.933
56939W        W29265  38.527  43.097   1.277
56940W        W29266  43.975  23.751   2.172
56941W        W29267   7.596  13.721  13.387
56942W        W29268  13.022  19.266  14.473
56943W        W29269  39.536  36.041   2.996
56944W        W29270  43.441  44.332  13.901
56945W        W29271  40.983  13.614   3.374
56946W        W29272   1.995   0.441   2.579
56947W        W29273   1.288   4.613   5.434
56948W        W29274  22.544  21.006  11.634
56949W        W29275  13.799  37.312   0.215
56950W        W29276  12.713   9.891  12.179
56951W        W29277  27.986  14.717   0.446
56952W        W29278   9.349  33.472   3.776
56953W        W29279  32.737  15.586  13.742
56954W        W29280  41.452  38.348   4.378
56955W        W29281   0.462   3.861   2.148
56956W        W29282  42.922  34.327  14.924
56957W        W29283  43.064  31.869  14.328
56958W        W29284  16.523  30.634   1.654
56959W        W29285   4.253  41.900  13.447
56960W        W29286  32.126  40.530   2.903
56961W        W29287  17.667  11.094  12.083
56962W        W29288  16.724   3.030  10.709
56963W        W29289  11.362  32.899   4.213
56964W        W29290   3.279  18.286   1.406
56965W        W29291   2.656   3.152  13.663
56966W        W29292  28.440  35.616   2.724
56967W        W29293  44.527   1.587  13.350
56968W        W29294  30.422  26.700   1.312
56969W        W29295  19.039  41.512  13.863
56970W        W29296   2.960  25.460  14.529
56971W        W29297  10.726  14.221  11.578
56972W        W29298   8.774  44.570  11.982
56973W        W29299  23.018  13.870   3.497
56974W        W29300   0.441  36.980   4.194
56975W        W29301  25.544  37.156   0.405
56976W        W29302  25.447  22.423   4.109
56977W        W29303  13.637  15.707   2.898
56978W        W29304  32.881   7.170   2.854
56979W        W29305  12.364  44.280   3.101
56980W        W29306  31.139  44.033   3.306
56981W        W29307   5.251   4.471  12.414
56982W        W29308  19.260  27.563   1.613
56983W        W29309  25.997  10.169  11.632
56984W        W29310  34.036   4.180   3.132
56985W        W29311  21.012  38.937   0.799
56986W        W29312  30.158  44.320   2.732
56987W        W29313   6.308  10.534   4.999
56988W        W29314  11.798  30.859  11.905
56989W        W29315  33.062  42.555   3.737
56990W        W29316  26.948   4.775   0.416
56991W        W29317  26.685  17.469  11.123
56992W        W29318  18.762  28.520   1.064
56993W        W29319  23.776  32.001   1.186
56994W        W29320  37.877  19.573  13.543
56995W        W29321  30.955   0.178  11.444
56996W        W29322  40.531   2.420   2.421
56997W        W29323  25.928  10.336   3.307
56998W        W29324  42.216  35.608   2.854
56999W        W29325  23.610   3.185  13.958
57000W        W29326  33.448   1.683   2.587
57001W        W29327  27.354  43.963   0.353
57002W        W29328  21.484  37.805   3.669
57003W        W29329  18.574  13.163   2.441
57004W        W29330  17.751   7.742  13.879
57005W        W29331  44.796  34.482  14.417
57006W        W29332  39.009  17.575   2.917
57007W        W29333  42.057  41.064  13.093
57008W        W29334  22.520  24.946  14.761
57009W        W29335   2.890   0.260   3.060
57010W        W29336   7.186  36.282  13.882
57011W        W29337  14.670  39.908  14.448
57012W        W29338   0.898  35.074   1.293
57013W        W29339  12.682  36.790  14.497
57014W        W29340  22.059  13.626  14.911
57015W        W29341  28.615   7.874  13.956
57016W        W29342   8.768   4.970  12.008
57017W        W29343  39.967  34.892  10.531
57018W        W29344  31.721  28.453  10.803
57019W        W29345  19.768  34.570  12.487
57020W        W29346  10.792   5.970   3.656
57021W        W29347   7.773  43.000  10.668
57022W        W29348  44.466  24.072  12.388
57023W        W29349  15.565  40.183  13.652
57024W        W29350  44.014  17.410  12.271
57025W        W29351   5.370  30.033  12.329
57026W        W29352  29.451   0.873   2.271
57027W        W29353  44.016  25.966  12.873
57028W        W29354  29.428   9.168  13.813
57029W        W29355  24.692   2.761   3.252
57030W        W29356  32.076  18.319   0.239
57031W        W29357  10.138  30.627   0.883
57032W        W29358   1.426  19.088   2.890
57033W        W29359  32.249  12.680  12.399
57034W        W29360   9.664  40.785  12.542
57035W        W29361  41.615  11.234   4.486
57036W        W29362  17.545  29.844  13.624
57037W        W29363  12.771  39.906  13.471
57038W        W29364  24.782  20.988   1.399
57039W        W29365  11.717   4.824   4.749
57040W        W29366   3.479  39.878   1.051
57041W        W29367  23.008  36.532  13.100
57042W        W29368   3.208  25.779  13.580
57043W        W29369   4.336  10.400  13.916
57044W        W29370  25.764  13.350   3.665
57045W        W29371  44.719  42.865   1.896
57046W        W29372  19.143  11.210   4.135
57047W        W29373   8.777  16.161   4.672
57048W        W29374  30.889  38.875   2.850
57049W        W29375  17.798  26.296   1.832
57050W        W29376  26.055   6.980  13.300
57051W        W29377  42.732  34.137   0.831
57052W        W29378  24.086  16.326  13.881
57053W        W29379  35.149  13.246   1.618
57054W        W29380  37.965  17.397   0.875
57055W        W29381  11.550   7.122  14.827
57056W        W29382  13.108   1.125  13.808
57057W        W29383  29.964  18.210   1.596
57058W        W29384   3.152   0.399  14.466
57059W        W29385  28.772   1.647   2.319
57060W        W29386  34.334  36.277   2.798
57061W        W29387  41.757  17.787   3.248
57062W        W29388  27.746  22.132  14.564
57063W        W29389  29.505  38.397  14.017
57064W        W29390  44.493  29.898   1.299
57065W        W29391  31.301   8.136  14.842
57066W        W29392  27.592  21.266  13.073
57067W        W29393   5.477  40.189  12.652
57068W        W29394  42.022  36.414  10.806
57069W        W29395  18.745   7.120  13.412
57070W        W29396   3.370  21.848   4.692
57071W        W29397  36.615  24.667   0.273
57072W        W29398  21.394  31.522  10.374
57073W        W29399  44.880   1.564   4.611
57074W        W29400  13.548  40.599   3.180
57075W        W29401  44.905   2.385   1.464
57076W        W29402  14.458  27.084  10.693
57077W        W29403  35.046  28.461   3.089
57078W        W29404   4.206  23.997   3.933
57079W        W29405  16.691  32.119   0.759
57080W        W29406   9.999  39.590  11.959
57081W        W29407  36.934  15.011  13.167
57082W        W29408  40.621  17.301   5.417
57083W        W29409   2.479  37.823   1.266
57084W        W29410  36.072  29.528  14.407
57085W        W29411  25.304   3.374   1.028
57086W        W29412  34.834  10.248   4.557
57087W        W29413  14.186  34.537  12.501
57088W        W29414  30.144  27.289   3.758
57089W        W29415  38.549  24.786  12.742
57090W        W29416  19.566  27.112  12.659
57091W        W29417  16.474   3.315  14.344
57092W        W29418  34.156  27.414  14.791
57093W        W29419  22.218  16.309   0.538
57094W        W29420  10.487  44.329   0.493
57095W        W29421  30.086  11.837  13.379
57096W        W29422  38.224  35.182  14.492
57097W        W29423  12.199   1.046   3.818
57098W        W29424  37.610  39.678  13.773
57099W        W29425   2.560  39.948   3.696
57100W        W29426  18.964  22.973  12.468
57101W        W29427  19.170   3.943  12.114
57102W        W29428  43.336  11.811   3.583
57103W        W29429  39.340   8.949   0.800
57104W        W29430   4.415  22.640   4.626
57105W        W29431  30.127  39.881   0.963
57106W        W29432  43.011  34.412  12.522
57107W        W29433  37.318  28.685   0.904
57108W        W29434  21.181   8.573  11.973
57109W        W29435   5.896  23.007   2.964
57110W        W29436  24.566  23.512  12.032
57111W        W29437   6.270  32.045  13.457
57112W        W29438  18.624  11.834  14.555
57113W        W29439  10.671  20.143  13.388
57114W        W29440   6.838   6.276   4.508
57115W        W29441  26.464   3.743   0.274
57116W        W29442   6.222  31.455  11.994
57117W        W29443  37.491  11.089  10.160
57118W        W29444   0.772  31.005   3.136
57119W        W29445  11.409  26.004  13.096
57120W        W29446  13.357  34.003   9.884
57121W        W29447  32.291  35.586  11.163
57122W        W29448  40.100  33.966   3.150
57123W        W29449   4.203  41.305  14.782
57124W        W29450  33.430  10.240  13.984
57125W        W29451   6.690   3.898  13.716
57126W        W29452  26.970  30.507   2.055
57127W        W29453  35.302   3.205   4.540
57128W        W29454  20.227  40.022  14.349
57129W        W29455  16.060  28.902  14.907
57130W        W29456  34.837  15.598   5.028
57131W        W29457  25.179  33.503   0.919
57132W        W29458  26.838  10.091   0.715
57133W        W29459  24.248  31.830  14.888
57134W        W29460  35.146   6.662   4.745
57135W        W29461  28.570  37.357  13.443
57136W        W29462  42.986  18.123  13.792
57137W        W29463   2.710  14.407  13.522
57138W        W29464  27.061  36.446   4.527
57139W        W29465  36.103  38.307   2.099
57140W        W29466  30.195  44.790   4.571
57141W        W29467  21.588  18.818  11.454
57142W        W29468  35.088   8.568   1.246
57143W        W29469  40.167  21.062   0.011
57144W        W29470  27.349  10.529   2.983
57145W        W29471   9.856  36.953   2.675
57146W        W29472  17.843  42.084   0.341
57147W        W29473  10.814   6.731   0.073
57148W        W29474  13.047  26.256  14.780
57149W        W29475  32.118  17.534   3.693
57150W        W29476   0.641  23.516   2.317
57151W        W29477  34.936  26.133  13.790
57152W        W29478  24.235  28.827   0.794
57153W        W29479  28.261  36.512  14.978
57154W        W29480  19.303   8.925   2.319
57155W        W29481  24.199  14.649  10.840
57156W        W29482  14.059  30.917   4.271
57157W        W29483  20.223  41.804  14.494
57158W        W29484   2.317  41.824  13.509
57159W        W29485  17.217  30.651   1.450
57160W        W29486   4.363  18.827   1.616
57161W        W29487  38.632  38.914   4.811
57162W        W29488  22.608  39.591  14.866
57163W        W29489  27.063  44.189  14.228
57164W        W29490  20.777   4.891  13.859
57165W        W29491   0.684  44.085  12.098
57166W        W29492   3.639  25.947  13.934
57167W        W29493  42.900  13.876   4.456
57168W        W29494  23.085  41.798  12.862
57169W        W29495   5.034   4.928  14.861
57170W        W29496  30.940  20.608   0.822
57171W        W29497   4.908  22.178  14.328
57172W        W29498  20.321  32.441  12.524
57173W        W29499  39.024  40.036   1.834
57174W        W29500  23.484  12.298  11.795
57175W        W29501  37.625   9.343  12.502
57176W        W29502  12.210  10.693  12.506
57177W        W29503  14.574  11.460   0.346
57178W        W29504   5.509  43.810   0.920
57179W        W29505  22.771   2.484   2.861
57180W        W29506  15.620   7.989   2.445
57181W        W29507  33.359  22.041  14.454
57182W        W29508  32.205  41.599   2.136
57183W        W29509   1.826  13.587  10.712
57184W        W29510  30.377  15.169   0.405
57185W        W29511  37.575  21.821  10.784
57186W        W29512  18.286  10.508   0.178
57187W        W29513  10.120  10.333   3.242
57188W        W29514  14.138   8.239   4.620
57189W        W29515  26.914  32.965   4.728
57190W        W29516  31.356   6.281   4.449
57191W        W29517  23.591  17.579  10.953
57192W        W29518  25.094   9.673  12.316
57193W        W29519   1.402  40.466  14.297
57194W        W29520  29.039   1.007  14.839
57195W        W29521   6.864  29.157   1.739
57196W        W29522  20.320  37.894   2.894
57197W        W29523  44.219   9.201   0.409
57198W        W29524  29.680   5.767   2.369
57199W        W29525  19.537   4.795   1.317
57200W        W29526  44.261  22.097  13.996
57201W        W29527  44.389   4.357  13.619
57202W        W29528  26.638  35.190   3.244
57203W        W29529  21.630  40.328  10.879
57204W        W29530  20.938  29.022   5.025
57205W        W29531   1.903  39.576   4.598
57206W        W29532  30.669  35.048  13.011
57207W        W29533  23.639  37.799  14.713
57208W        W29534  40.338  27.132  14.442
57209W        W29535  34.003  28.475   2.732
57210W        W29536   1.766  43.515  12.434
57211W        W29537  38.943  43.999   1.353
57212W        W29538  10.420  34.984   1.267
57213W        W29539  33.951  30.163   0.357
57214W        W29540  12.602  15.770   0.902
57215W        W29541   6.438  27.555   2.366
57216W        W29542  37.998   9.259   4.052
57217W        W29543  16.995  17.108  12.412
57218W        W29544  30.950  15.665  13.655
57219W        W29545  43.030  13.937  14.359
57220W        W29546  35.356  18.836   3.349
57221W        W29547  35.556  33.779  10.968
57222W        W29548  26.596  30.067   2.620
57223W        W29549  18.631   9.772   4.097
57224W        W29550  24.682  26.215   4.631
57225W        W29551   0.033  20.462   1.324
57226W        W29552  17.910  41.738  11.256
57227W        W29553   7.342  26.817  12.118
57228W        W29554  37.462  20.251  13.368
57229W        W29555  11.687  18.808  14.761
57230W        W29556  19.233  33.863   2.197
57231W        W29557  21.007  39.563   2.270
57232W        W29558   4.324   2.043   2.819
57233W        W29559   6.977  27.912   3.728
57234W        W29560  32.643  33.802  14.743
57235W        W29561  11.079  38.201   0.011
57236W        W29562   4.534  21.196   4.354
57237W        W29563  27.710  25.980   3.713
57238W        W29564  17.837   6.666  13.414
57239W        W29565  13.140  36.595   3.594
57240W        W29566  28.765  29.629   2.795
57241W        W29567  15.011  13.809  11.123
57242W        W29568  43.133   1.952   4.563
57243W        W29569  27.693  28.416  10.660
57244W        W29570  11.848   0.383   3.220
57245W        W29571  41.371  43.244   4.156
57246W        W29572  10.959  25.317  10.294
57247W        W29573  44.908  41.451  10.725
57248W        W29574  19.291  43.923  13.963
57249W        W29575  35.585  34.060   3.308
57250W        W29576  12.880  28.904   1.925
57251W        W29577  33.316   7.318  13.257
57252W        W29578  30.886  27.101  12.205
57253W        W29579  43.440  19.300  10.650
57254W        W29580  43.609  17.618   1.693
57255W        W29581   6.441  16.187   4.766
57256W        W29582  16.146  20.727  14.756
57257W        W29583  19.819  26.748  13.357
57258W        W29584  31.898  13.296  11.950
57259W        W29585  36.723   6.458  13.300
57260W        W29586  33.634  28.873  12.903
57261W        W29587  33.019  22.054   1.291
57262W        W29588   6.442  37.609   9.815
57263W        W29589  14.663  39.339   3.744
57264W        W29590  24.614   1.803  10.751
57265W        W29591  20.029   9.689  10.461
57266W        W29592  44.290   8.629  10.799
57267W        W29593   2.954  13.570   2.727
57268W        W29594   9.862  37.452   2.442
57269W        W29595  10.055   7.181  11.330
57270W        W29596   1.703   4.508  14.248
57271W        W29597  28.080  33.726  14.367
57272W        W29598  24.930  13.539  14.972
57273W        W29599  34.799   6.783   4.395
57274W        W29600  38.061  34.271  12.988
57275W        W29601   4.963  23.722   0.710
57276W        W29602  36.346   9.176   4.726
57277W        W29603  14.412  30.624  13.175
57278W        W29604  20.031  18.597   0.724
57279W        W29605  10.553   5.150  12.762
57280W        W29606  35.092   9.884  12.467
57281W        W29607   1.200  37.730  13.776
57282W        W29608  26.795  35.516  13.492
57283W        W29609  42.268  44.807   4.271
57284W        W29610  38.542   0.464  12.788
57285W        W29611   0.959   8.724   0.813
57286W        W29612  41.578   2.406  12.164
57287W        W29613   7.639   5.100   4.270
57288W        W29614   0.459  31.342   2.426
57289W        W29615  43.727  36.299   0.675
57290W        W29616  41.255  30.083   3.089
57291W        W29617  25.599  14.299   1.718
57292W        W29618   6.296  38.774  14.924
57293W        W29619  24.294  35.020   0.825
57294W        W29620   1.490  10.759  10.045
57295W        W29621   6.327  41.533  12.831
57296W        W29622  16.583  11.370  11.532
57297W        W29623  31.575  41.435  10.364
57298W        W29624  38.540  24.476  12.342
57299W        W29625   5.298  26.458  11.053
57300W        W29626  11.082  31.999  11.437
57301W        W29627  20.125  36.982   1.214
57302W        W29628  28.206  20.287  13.796
57303W        W29629  42.563   4.345   1.487
57304W        W29630  29.688  23.206  13.438
57305W        W29631   2.855  41.038   1.210
57306W        W29632   7.701   3.329  14.944
57307W        W29633  18.641  31.960  14.281
57308W        W29634  31.145   0.020  10.654
57309W        W29635  32.871  34.879   2.441
57310W        W29636  36.303  39.766   9.826
57311W        W29637  39.568  17.226   1.700
57312W        W29638   0.912  24.292   4.950
57313W        W29639  40.999  41.588  11.695
57314W        W29640   4.301  41.498  12.881
57315W        W29641   1.700   6.491   0.084
57316W        W29642  12.394  25.935  13.503
57317W        W29643  33.185  23.598   3.629
57318W        W29644   8.615  22.258   2.328
57319W        W29645  42.126  21.817  10.996
57320W        W29646  36.106  32.041   2.327
57321W        W29647   4.819  25.954   1.185
57322W        W29648  12.836   6.541   0.437
57323W        W29649  19.515  14.201  12.932
57324W        W29650  26.184  42.858  13.585
57325W        W29651  25.236  36.522  13.914
57326W        W29652   8.368  15.226   3.782
57327W        W29653  39.607  30.006  13.002
57328W        W29654  35.411  40.956   3.686
57329W        W29655  38.569  24.241   1.263
57330W        W29656   3.709  25.191   3.016
57331W        W29657   6.943  26.390   4.624
57332W        W29658  21.846  24.540   1.862
57333W        W29659  37.843  42.848  10.451
57334W        W29660  13.274  44.399   2.861
57335W        W29661  21.920   4.363  12.969
57336W        W29662  29.121  37.993   3.722
57337W        W29663  17.697   4.885   1.157
57338W        W29664   3.685   8.704   1.754
57339W        W29665  16.659  34.347  11.009
57340W        W29666  43.274  42.522   1.351
57341W        W29667  29.373  44.818  13.531
57342W        W29668  19.813  38.449  13.124
57343W        W29669  43.234  43.647   1.216
57344W        W29670  13.591  26.183   5.146
57345W        W29671  22.724  25.940  13.333
57346W        W29672  28.614  17.217  12.020
57347W        W29673  21.612  16.065   1.261
57348W        W29674  23.067   8.828   0.189
57349W        W29675  36.045  22.260  10.630
57350W        W29676  22.234  42.302   2.192
57351W        W29677  42.636  10.711  12.014
57352W        W29678   0.946  38.688   1.684
57353W        W29679  17.189   1.208  12.909
57354W        W29680  17.258  29.630   1.322
57355W        W29681  30.381  25.987  14.477
57356W        W29682   6.477  35.598  11.706
57357W        W29683  35.373  14.542   4.781
57358W        W29684   2.871  37.459  12.628
57359W        W29685   8.465  44.452  11.075
57360W        W29686  30.145  40.787  13.071
57361W        W29687  19.565   1.282   1.170
57362W        W29688   9.294   5.772  11.091
57363W        W29689  27.588   7.771  14.051
57364W        W29690  21.078  43.567  12.840
57365W        W29691   4.859  34.654  13.854
57366W        W29692  30.182  20.143   0.792
57367W        W29693  36.581  42.618   4.327
57368W        W29694   0.956   6.558   4.168
57369W        W29695   0.788   9.385   2.685
57370W        W29696  35.880  25.557  11.191
57371W        W29697   5.955   7.725   1.316
57372W        W29698  39.731   3.204   3.106
57373W        W29699   1.666   9.627   3.183
57374W        W29700  15.445   3.249   2.740
57375W        W29701   3.840  38.385   1.495
57376W        W29702   6.223  21.296   3.815
57377W        W29703  27.419  37.441   4.640
57378W        W29704  29.729  23.676   2.761
57379W        W29705   4.854   5.354   0.201
57380W        W29706   6.373  12.247   4.906
57381W        W29707   7.695  17.323  10.532
57382W        W29708   2.645  41.850   0.380
57383W        W29709  24.718  33.209   0.884
57384W        W29710   4.806   3.768  11.047
57385W        W29711   3.408  33.677  14.691
57386W        W29712  10.201  40.205   4.534
57387W        W29713   6.118  25.010   3.834
57388W        W29714  28.615   3.846  10.519
57389W        W29715  43.926  20.248   4.528
57390W        W29716  24.478  15.371   3.862
57391W        W29717   3.889  24.796   2.746
57392W        W29718  25.166  25.003  13.481
57393W        W29719  15.606  28.037   4.568
57394W        W29720  36.877   9.382  10.906
57395W        W29721  35.496  10.362  14.053
57396W        W29722  39.881  21.753   3.903
57397W        W29723  24.451  15.451  13.930
57398W        W29724  33.314  19.364  14.474
57399W        W29725  34.954   0.285   1.264
57400W        W29726  13.789  15.964  11.083
57401W        W29727  24.313   2.122   2.848
57402W        W29728  35.691  29.467  12.594
57403W        W29729  35.593  25.676  11.583
57404W        W29730  33.291  23.102   1.273
57405W        W29731   1.286  18.377  13.083
57406W        W29732  38.432  39.862  11.628
57407W        W29733  14.664  23.939   2.798
57408W        W29734  37.816  41.301  12.471
57409W        W29735  42.589  19.155  13.975
57410W        W29736  40.522  39.366  14.942
57411W        W29737  41.787   0.936   1.915
57412W        W29738   5.685   9.532   0.812
57413W        W29739  34.377  39.561  14.952
57414W        W29740   0.355  18.277   3.911
57415W        W29741  38.166  44.963   1.013
57416W        W29742  20.176  22.514  12.842
57417W        W29743  42.552  38.914   1.992
57418W        W29744  31.506  33.828  11.614
57419W        W29745  29.594  23.010  10.657
57420W        W29746  37.922  12.901   4.128
57421W        W29747   0.349  29.365   0.302
57422W        W29748  15.669  16.553  10.256
57423W        W29749  12.313  21.020   1.685
57424W        W29750  33.612  18.251   4.668
57425W        W29751  29.254  24.145  14.261
57426W        W29752   6.620  17.590  14.982
57427W        W29753   0.488   5.934   3.596
57428W        W29754   9.797  41.799  11.450
57429W        W29755  23.484  18.747   2.340
57430W        W29756  43.478   7.896  13.414
57431W        W29757   3.238   0.804   0.808
57432W        W29758  36.052  15.099   2.798
57433W        W29759  27.763  26.963   1.897
57434W        W29760   7.157  35.619  10.599
57435W        W29761  22.491  44.772  10.746
57436W        W29762  25.071  35.609  11.646
57437W        W29763   8.451  36.410  13.510
57438W        W29764  40.823  12.947  13.155
57439W        W29765  16.987  11.627   2.614
57440W        W29766  35.660   5.037   1.771
57441W        W29767  25.220  33.176  13.412
57442W        W29768   8.759   4.253   0.444
57443W        W29769  19.040   4.035  14.468
57444W        W29770   8.289   2.942   4.285
57445W        W29771  31.633   9.834  10.872
57446W        W29772  14.208  26.219  10.159
57447W        W29773  22.199  40.785   0.445
57448W        W29774   6.625  19.306   1.663
57449W        W29775   7.908  11.911   0.690
57450W        W29776  43.948  11.848  10.722
57451W        W29777  20.540  11.757   1.299
57452W        W29778  15.747  20.993   4.585
57453W        W29779  36.093  38.342   1.092
57454W        W29780  21.023  25.424  11.878
57455W        W29781  18.177   5.528  14.916
57456W        W29782  30.231  33.086  14.722
57457W        W29783  30.074  37.457   3.438
57458W        W29784  14.280  21.749   3.100
57459W        W29785   0.432   2.671   1.784
57460W        W29786  22.994  19.238  12.365
57461W        W29787  18.980  23.535  11.245
57462W        W29788  37.791  35.561  12.021
57463W        W29789   1.018  22.596   5.192
57464W        W29790  22.662  16.999   5.039
57465W        W29791  38.852  33.033   4.982
57466W        W29792  18.477   7.020   2.155
57467W        W29793   3.511  20.294   1.211
57468W        W29794   7.949  25.521  10.855
57469W        W29795  43.722  24.230  13.061
57470W        W29796  22.696  42.063   0.756
57471W        W29797  23.584  27.749   1.224
57472W        W29798   6.958  29.366  13.401
57473W        W29799  43.061  23.465  11.892
57474W        W29800  39.819   6.615   4.117
57475W        W29801   9.097  10.336   0.222
57476W        W29802   9.248  38.091   4.287
57477W        W29803  24.618  10.448  11.972
57478W        W29804  16.427  16.257  10.784
57479W        W29805  26.434   7.243  10.697
57480W        W29806  27.413   3.021   4.175
57481W        W29807  25.970  16.664  10.916
57482W        W29808  21.308  27.618  11.445
57483W        W29809   9.723  25.694   0.301
57484W        W29810   3.947  19.765  11.254
57485W        W29811  19.766  11.342  12.449
57486W        W29812  38.254   0.893  11.231
57487W        W29813  30.346  23.228   2.049
57488W        W29814  29.505  34.045   0.892
57489W        W29815  24.154  32.606  14.299
57490W        W29816  41.818  13.680   3.025
57491W        W29817  28.902  15.501  14.339
57492W        W29818  22.757  32.579  12.876
57493W        W29819  28.681  19.322  11.268
57494W        W29820  20.673  39.351  14.048
57495W        W29821  37.056  10.325  13.307
57496W        W29822  27.609  21.777   0.392
57497W        W29823  11.289  13.569   1.251
57498W        W29824  37.630  32.045   1.127
57499W        W29825  39.116  21.808   1.896
57500W        W29826  34.403  11.857  12.218
57501W        W29827  23.313  12.431  12.947
57502W        W29828   4.283  39.488   3.874
57503W        W29829  25.427  20.483   0.058
57504W        W29830  26.206  15.207   0.387
57505W        W29831  15.799  43.133  12.808
57506W        W29832  13.995  24.599  13.759
57507W        W29833  11.816  40.803   0.890
57508W        W29834  42.931  35.535  10.747
57509W        W29835   0.349  10.514   2.038
57510W        W29836  24.201  38.563   0.735
57511W        W29837  18.014   9.926  12.529
57512W        W29838  11.623  29.581  12.204
57513W        W29839  12.279   9.932   4.024
57514W        W29840  15.117  19.522   3.872
57515W        W29841   4.918  26.288   2.506
57516W        W29842  21.667   5.178   3.614
57517W        W29843   4.508   6.911   2.805
57518W        W29844  35.596   3.275  14.227
57519W        W29845   4.292   2.175  12.964
57520W        W29846  42.182  32.519  12.895
57521W        W29847   8.719   4.451  12.040
57522W        W29848  43.473  30.633  13.840
57523W        W29849  18.829  29.217   2.199
57524W        W29850  18.528  43.506  13.919
57525W        W29851  34.480  20.580   3.268
57526W        W29852  20.274  27.334  14.415
57527W        W29853   7.368  10.146   3.785
57528W        W29854   4.342   8.636   0.018
57529W        W29855   9.957   2.563   3.134
57530W        W29856  41.727  27.504   4.140
57531W        W29857  17.222  17.482  14.384
57532W        W29858  30.851   9.890   1.034
57533W        W29859  44.949  37.826  12.991
57534W        W29860  34.053  29.250   1.515
57535W        W29861  42.279  15.525  14.260
57536W        W29862   4.867  39.559   0.738
57537W        W29863  25.758  20.301   3.759
57538W        W29864  22.138   7.884  11.562
57539W        W29865  21.734  31.286   4.470
57540W        W29866  42.021  33.886  14.823
57541W        W29867  39.247  39.372  12.845
57542W        W29868  11.605  23.815  12.859
57543W        W29869  32.201  36.881  13.550
57544W        W29870  28.027  23.747  12.275
57545W        W29871  43.949  12.173   4.041
57546W        W29872  21.413   8.886   0.429
57547W        W29873  36.390   9.765  13.506
57548W        W29874  24.671   4.649  10.387
57549W        W29875  16.388   6.919  12.215
57550W        W29876  24.964  31.334   3.794
57551W        W29877   9.431  27.413   1.329
57552W        W29878  29.464   2.439   3.149
57553W        W29879  40.402  14.104  11.153
57554W        W29880  17.409  27.217   3.602
57555W        W29881  33.904  12.467   0.762
57556W        W29882  24.144  37.968  14.026
57557W        W29883   2.042   7.184   2.593
57558W        W29884  38.247  33.230   1.176
57559W        W29885  44.997  22.923   2.776
57560W        W29886   8.232  10.325   4.073
57561W        W29887  10.698  38.156   1.364
57562W        W29888  17.208   2.864  10.535
57563W        W29889  19.210   2.223   4.323
57564W        W29890  28.016   2.799   0.944
57565W        W29891  31.943  44.912   0.333
57566W        W29892  33.782   8.364   2.710
57567W        W29893  33.950  16.767  11.407
57568W        W29894   0.424  23.210   2.796
57569W        W29895  36.287  43.227  11.959
57570W        W29896  26.088  15.287   5.037
57571W        W29897  43.389  29.981  14.495
57572W        W29898  24.720   3.279  12.298
57573W        W29899   4.952   7.291   0.895
57574W        W29900  33.635  25.420  11.535
57575W        W29901  21.279  30.105   3.086
57576W        W29902  21.462  44.348  12.329
57577W        W29903   6.990  12.352   4.220
57578W        W29904   2.676   8.649   0.262
57579W        W29905  34.511  11.806   2.451
57580W        W29906   5.112   5.439  12.708
57581W        W29907  13.927  42.884   3.940
57582W        W29908  37.918  25.807  14.795
57583W        W29909  26.032  41.062  10.679
57584W        W29910  43.886  36.723  10.932
57585W        W29911  20.348  26.077   1.727
57586W        W29912  40.479  16.807   3.892
57587W        W29913  21.759  23.752  11.533
57588W        W29914  13.907  26.263  14.507
57589W        W29915  36.012   1.491   3.652
57590W        W29916  31.582   3.917  13.092
57591W        W29917   7.381  23.548  13.274
57592W        W29918  22.099  24.167  14.711
57593W        W29919   6.358  42.557  12.861
57594W        W29920  33.116  13.105   0.301
57595W        W29921  41.756  25.184  10.847
57596W        W29922  28.431  11.688  11.722
57597W        W29923   8.126   8.242  11.944
57598W        W29924   6.634  37.142  13.954
57599W        W29925  29.131   3.929   0.913
57600W        W29926  22.413  19.067   2.809
57601W        W29927   2.761  32.640  13.920
57602W        W29928  35.899  33.970   2.711
57603W        W29929  14.851   7.968  12.021
57604W        W29930   0.210  19.588   4.402
57605W        W29931  12.807  21.602  10.671
57606W        W29932  37.018  39.063  10.198
57607W        W29933   8.751  34.784   1.321
57608W        W29934  32.478   1.387  11.696
57609W        W29935   9.246  18.113  11.645
57610W        W29936   1.273  19.519   2.069
57611W        W29937  16.870  25.353  10.698
57612W        W29938  11.216   9.423  11.021
57613W        W29939  12.636  33.048  10.124
57614W        W29940  13.903   2.721  11.110
57615W        W29941  25.568  41.492   1.676
57616W        W29942  26.142   5.649  13.236
57617W        W29943  31.073  15.104   3.770
57618W        W29944  33.793   0.953  11.694
57619W        W29945  17.274  38.125   1.628
57620W        W29946  19.207   3.827  11.185
57621W        W29947   5.252   8.616   3.145
57622W        W29948   2.724  26.066  14.646
57623W        W29949  40.020  26.571  12.913
57624W        W29950  41.843   0.974  12.066
57625W        W29951  16.897   9.407   1.676
57626W        W29952   9.922   7.159   2.772
57627W        W29953  42.384  37.205  13.937
57628W        W29954  15.332  19.021  13.442
57629W        W29955  25.136   5.896   1.968
57630W        W29956   9.608   7.498  11.110
57631W        W29957  37.921  34.768  14.416
57632W        W29958  25.555  18.154  10.587
57633W        W29959  30.150  37.175  12.646
57634W        W29960  25.736  17.693   3.574
57635W        W29961   1.944  11.247  13.085
57636W        W29962   3.748   1.463   0.391
57637W        W29963  20.149  39.374   4.413
57638W        W29964  39.638  32.602   2.096
57639W        W29965   1.056  19.621   0.391
57640W        W29966  29.042  39.385  11.577
57641W        W29967  25.518  34.312   3.236
57642W        W29968  11.940   6.315   2.745
57643W        W29969  41.331  11.149   4.043
57644W        W29970  38.975   0.250   3.012
57645W        W29971   3.031  37.894  12.406
57646W        W29972  22.639  37.018  13.496
57647W        W29973  22.196  14.288  12.176
57648W        W29974  28.732  43.933   0.518
57649W        W29975  30.501  10.682  13.825
57650W        W29976  31.386  24.071  12.023
57651W        W29977  12.899  13.613  13.136
57652W        W29978   3.180   2.232   4.874
57653W        W29979   3.359  25.894   4.216
57654W        W29980  30.313  10.296  14.523
57655W        W29981  11.750  42.846  13.052
57656W        W29982  42.405  35.238  14.307
57657W        W29983   4.897   9.865   4.776
57658W        W29984  41.865  33.478   0.783
57659W        W29985  19.207  19.930   3.712
57660W        W29986   7.800  40.151   2.227
57661W        W29987   6.213  40.526   5.565
57662W        W29988  43.137  13.617  11.941
57663W        W29989  36.240  33.018   3.698
57664W        W29990  21.341   4.612  12.422
57665W        W29991  33.111  27.757  10.497
57666W        W29992  43.364   7.355  12.030
57667W        W29993   5.514  38.895  13.991
57668W        W29994  16.044   8.705  11.137
57669W        W29995  10.828  25.927   0.364
57670W        W29996  39.614  29.397   2.844
57671W        W29997  42.950   9.738  11.963
57672W        W29998  40.476  21.230  11.622
57673W        W29999  23.696  42.485  14.357
57674W        W30000  27.525  38.285  14.967
57675W        W30001  30.942   7.814   5.032
57676W        W30002   0.026  43.187   4.665
57677W        W30003  28.060  23.689  14.587
57678W        W30004   7.666  28.652  14.820
57679W        W30005  31.660  30.168   1.265
57680W        W30006  21.257  39.995  10.979
57681W        W30007  11.655   4.018   3.616
57682W        W30008  31.565  22.290   0.057
57683W        W30009   8.053  11.668   1.790
57684W        W30010  40.504   9.671   3.367
57685W        W30011  13.151   0.769  10.232
57686W        W30012  11.830  29.679  10.857
57687W        W30013  35.941   0.954   2.724
57688W        W30014  14.273  29.141  10.691
57689W        W30015  40.470  24.194   4.246
57690W        W30016   3.000  13.603   0.845
57691W        W30017  23.620   4.541  14.551
57692W        W30018  34.382  33.514   3.994
57693W        W30019  23.474  27.313  14.325
57694W        W30020   1.237  12.116  10.620
57695W        W30021   4.226  12.373   9.718
57696W        W30022  12.396  19.327   4.292
57697W        W30023  43.332  36.012  12.922
57698W        W30024  34.557   6.305  12.412
57699W        W30025   2.427   0.815  12.380
57700W        W30026   7.374  18.979  14.795
57701W        W30027   4.226  32.679  12.178
57702W        W30028  34.902  20.972   2.055
57703W        W30029  39.817  20.559   1.645
57704W        W30030  41.631  39.012   2.284
57705W        W30031   4.184  27.059   4.316
57706W        W30032  28.106  37.148  12.018
57707W        W30033  20.344  44.345   3.230
57708W        W30034  20.550  22.945   0.047
57709W        W30035  37.544   9.827   9.772
57710W        W30036   2.576   7.706   2.362
57711W        W30037  33.808  39.732   4.667
57712W        W30038  20.994   7.815  12.502
57713W        W30039  20.720  21.327  13.940
57714W        W30040  34.516  34.824  14.274
57715W        W30041  38.316  19.212   2.260
57716W        W30042  36.562  44.560  10.203
57717W        W30043  16.779  19.339   3.159
57718W        W30044  31.556   8.415   1.379
57719W        W30045  19.712  33.079   0.312
57720W        W30046  30.173  23.027  11.734
57721W        W30047  27.234   8.287   2.603
57722W        W30048  11.514  21.323   4.752
57723W        W30049   8.505   0.247  13.430
57724W        W30050  32.562  39.269   2.861
57725W        W30051  29.311  17.935   5.003
57726W        W30052  12.226  19.512   5.139
57727W        W30053  41.018  41.024   3.844
57728W        W30054   8.146   4.294  11.326
57729W        W30055   9.942  33.140   4.877
57730W        W30056  14.060  42.351   3.359
57731W        W30057  38.510  17.569  11.975
57732W        W30058   7.923  16.545   1.855
57733W        W30059  11.802   6.611  11.190
57734W        W30060  34.547   5.914   2.767
57735W        W30061  20.955   1.019  13.103
57736W        W30062  34.691  44.419  11.914
57737W        W30063   8.841  35.278  11.969
57738W        W30064  34.661  44.253  14.472
57739W        W30065  13.833  10.593  10.707
57740W        W30066   1.803  21.923  10.139
57741W        W30067  21.762  33.197  11.843
57742W        W30068   3.271   1.697   4.203
57743W        W30069   4.804  37.039  12.440
57744W        W30070  41.741   5.270   1.652
57745W        W30071   5.729   8.684  12.913
57746W        W30072  28.509  25.321   3.752
57747W        W30073  26.520  31.942  13.151
57748W        W30074  41.057  30.101  11.387
57749W        W30075  10.757  39.921  11.376
57750W        W30076  28.681  33.511   0.757
57751W        W30077  22.597   6.787   2.634
57752W        W30078  15.530  14.333  14.818
57753W        W30079  29.005  36.527  13.185
57754W        W30080  38.247  16.835  13.485
57755W        W30081  37.411  17.813  10.735
57756W        W30082  22.259  36.659  11.635
57757W        W30083  33.527  38.927   1.422
57758W        W30084   8.872  30.800   1.339
57759W        W30085   4.350  23.742   0.965
57760W        W30086  31.492  25.435   0.486
57761W        W30087  36.323  27.178   1.284
57762W        W30088  18.052  24.680  14.140
57763W        W30089   5.536   4.716   2.322
57764W        W30090  18.464   8.240   4.481
57765W        W30091   1.186  35.153  14.396
57766W        W30092   7.683  34.950   0.122
57767W        W30093  36.936  33.101   2.038
57768W        W30094  44.456  12.593   1.976
57769W        W30095  20.620  10.505  13.724
57770W        W30096  27.974  27.974   4.598
57771W        W30097   8.787  15.557   0.352
57772W        W30098  31.598   0.044  13.864
57773W        W30099  26.106   5.266  13.604
57774W        W30100  19.131  14.037  14.846
57775W        W30101  25.558  41.379  12.931
57776W        W30102  26.670  39.117   1.223
57777W        W30103  14.363  12.453   3.246
57778W        W30104  36.987  21.656  13.223
57779W        W30105  42.902   8.803   0.351
57780W        W30106  16.786  23.724  12.748
57781W        W30107  37.608  34.478   2.720
57782W        W30108  13.046  36.425  14.228
57783W        W30109  37.402   0.463  14.211
57784W        W30110  28.635  24.669  11.524
57785W        W30111  25.193  31.729   1.422
57786W        W30112   8.916  17.326   1.379
57787W        W30113  20.103  43.736  11.437
57788W        W30114  29.440  18.966  13.387
57789W        W30115  38.883   8.927  12.333
57790W        W30116  28.411  10.185   4.699
57791W        W30117   4.401  40.588  12.543
57792W        W30118  44.908  35.099   4.511
57793W        W30119  12.667  27.620   4.627
57794W        W30120   2.611   3.839   2.609
57795W        W30121  28.808  25.395   5.155
57796W        W30122  39.148   0.012   1.267
57797W        W30123  34.975   0.399  10.616
57798W        W30124  18.152  11.781   0.760
57799W        W30125  12.636  27.552  14.193
57800W        W30126  12.437   6.445  12.012
57801W        W30127  19.263   8.146  13.889
57802W        W30128  44.884   7.933  10.463
57803W        W30129   1.915  16.162   2.893
57804W        W30130  22.046  41.006   2.530
57805W        W30131  18.814  23.718   4.641
57806W        W30132  39.512  39.381   4.707
57807W        W30133  21.500   0.461   0.835
57808W        W30134  20.676  34.595   1.186
57809W        W30135   0.915  44.408   4.602
57810W        W30136   2.363   3.402  11.030
57811W        W30137  15.620   9.802  10.613
57812W        W30138   4.352  27.374  11.999
57813W        W30139   2.659  28.916  14.356
57814W        W30140   9.307  31.412   3.196
57815W        W30141   4.812   3.946   1.765
57816W        W30142  17.979  11.903  11.026
57817W        W30143  18.173  12.243  10.435
57818W        W30144  25.999  12.689  12.490
57819W        W30145   6.049  13.304   1.480
57820W        W30146  24.741  33.103  10.967
57821W        W30147  35.932   4.946  12.450
57822W        W30148   6.534  40.837  12.535
57823W        W30149  41.378  23.451   2.733
57824W        W30150  28.356   2.527   1.250
57825W        W30151  29.596  36.791  11.203
57826W        W30152  41.089   6.687   2.354
57827W        W30153  36.313  32.090   1.292
57828W        W30154   7.707  36.793   4.056
57829W        W30155   6.374  10.678  10.787
57830W        W30156   2.402  16.576  13.838
57831W        W30157  38.582  43.018  12.297
57832W        W30158   7.714  27.476  13.062
57833W        W30159  21.834  44.417  14.319
57834W        W30160  40.992  14.107   3.481
57835W        W30161  14.215  21.521   0.766
57836W        W30162  32.835  15.891   1.295
57837W        W30163  23.640   1.814  12.374
57838W        W30164  37.550  38.894  14.255
57839W        W30165  41.586  35.945  14.939
57840W        W30166  30.388  12.810   2.848
57841W        W30167   6.449  42.815   0.908
57842W        W30168  21.033  24.108   4.474
57843W        W30169  39.101  40.462  13.417
57844W        W30170  44.957  34.359  13.293
57845W        W30171  38.350  40.073  12.503
57846W        W30172   4.132   0.633  13.910
57847W        W30173  21.549  39.119  12.464
57848W        W30174  29.137   2.221   1.717
57849W        W30175  29.220  23.058  12.486
57850W        W30176  16.032  40.841  14.943
57851W        W30177   9.832  22.507   0.473
57852W        W30178  22.219   9.821  13.603
57853W        W30179   1.712  23.445  14.814
57854W        W30180  31.584  33.073   0.373
57855W        W30181  12.719  25.768  10.425
57856W        W30182  20.147  12.159  14.523
57857W        W30183  34.095  13.530  11.522
57858W        W30184  19.214  19.724   1.829
57859W        W30185  20.854  10.396  11.934
57860W        W30186  14.595  24.145   4.072
57861W        W30187  15.255   0.249   2.224
57862W        W30188  39.934  35.514   0.067
57863W        W30189  31.449  23.440   4.512
57864W        W30190  26.692  18.711  14.431
57865W        W30191  19.181  38.327   3.739
57866W        W30192  10.289  34.596   4.536
57867W        W30193  24.678  19.628   4.559
57868W        W30194  25.688  28.479   3.346
57869W        W30195  10.550   7.137  14.836
57870W        W30196  37.991   7.271  13.519
57871W        W30197   8.308  40.837   3.069
57872W        W30198  29.405  28.238  13.515
57873W        W30199  20.536  29.028  12.132
57874W        W30200  21.990  31.637   4.123
57875W        W30201  37.002  24.030   3.612
57876W        W30202  17.496  44.738  11.922
57877W        W30203  10.902  21.731   0.193
57878W        W30204  40.911  41.425   2.805
57879W        W30205  13.618  41.772  11.567
57880W        W30206   0.314   9.183  11.563
57881W        W30207  20.205  13.583  10.482
57882W        W30208  42.353  18.959  11.628
57883W        W30209   9.474  22.224  11.892
57884W        W30210   3.598  21.376   3.276
57885W        W30211  32.198  27.127   0.383
57886W        W30212  12.697  10.889  13.068
57887W        W30213  38.970  22.111   0.485
57888W        W30214  41.602  43.972  10.701
57889W        W30215  16.150  16.384  12.387
57890W        W30216  17.737  23.322  14.861
57891W        W30217  28.854   8.773  14.935
57892W        W30218   2.722  44.365  14.713
57893W        W30219  29.080  36.840   2.744
57894W        W30220   7.296  39.517  14.443
57895W        W30221  32.233  28.473  11.686
57896W        W30222  15.598   0.347  11.038
57897W        W30223  34.822  12.529  10.075
57898W        W30224  36.583  13.124   2.195
57899W        W30225   0.461  34.195  12.883
57900W        W30226  14.423  40.561  13.345
57901W        W30227  29.277  37.552  14.473
57902W        W30228  19.626  33.539  10.595
57903W        W30229  24.066  40.867   0.023
57904W        W30230  19.095  24.673  14.579
57905W        W30231  39.817   6.798   3.206
57906W        W30232  29.319  27.428  10.781
57907W        W30233  37.518   8.592  13.303
57908W        W30234  39.048  43.415  10.607
57909W        W30235   7.628   9.791   1.822
57910W        W30236  36.018  29.915  13.439
57911W        W30237  20.479  30.416   3.147
57912W        W30238  38.590  39.900  14.769
57913W        W30239  13.804  20.262  14.486
57914W        W30240   6.687   0.981  12.845
57915W        W30241  23.280  36.311   3.824
57916W        W30242  22.504  14.218  11.186
57917W        W30243  30.659  29.166   4.516
57918W        W30244  15.256  26.088  11.656
57919W        W30245   1.189  29.799  13.915
57920W        W30246  14.832   7.827  11.196
57921W        W30247  33.917   0.952  12.565
57922W        W30248   6.354   5.982  13.905
57923W        W30249  29.481  42.822   1.635
57924W        W30250   0.649  16.915   2.416
57925W        W30251  21.616  15.511   1.336
57926W        W30252  15.232   2.164  11.177
57927W        W30253  10.790  13.253   0.039
57928W        W30254   1.315   3.683  12.655
57929W        W30255  15.845   0.504  13.316
57930W        W30256   6.393  18.508   4.380
57931W        W30257  41.484  30.717  14.606
57932W        W30258   4.282   3.572   2.764
57933W        W30259  38.484  32.283  14.938
57934W        W30260  12.360   4.674  13.491
57935W        W30261  22.114  41.376   1.227
57936W        W30262  12.835  38.091  13.957
57937W        W30263  22.197  39.949  14.910
57938W        W30264   2.345  14.772  10.437
57939W        W30265  10.224  34.316  11.453
57940W        W30266   8.833  27.312  14.215
57941W        W30267   9.263  39.280  14.831
57942W        W30268  28.333  26.964  14.875
57943W        W30269  18.496  35.035   1.231
57944W        W30270  39.755  42.018   2.598
57945W        W30271   0.731  11.230  14.643
57946W        W30272  24.583  21.063   3.185
57947W        W30273  18.802  17.457  13.138
57948W        W30274  13.174  10.107   9.635
57949W        W30275  14.418  22.157   2.215
57950W        W30276   4.920  37.111   0.331
57951W        W30277  25.386  17.148  13.901
57952W        W30278  10.395  30.029   2.283
57953W        W30279  29.395  24.037   4.584
57954W        W30280   5.687  31.142  11.106
57955W        W30281  14.087  29.902  14.811
57956W        W30282  13.830  26.563  10.118
57957W        W30283  11.712  10.781  14.826
57958W        W30284   6.821  28.741  11.080
57959W        W30285  32.785  13.110   1.005
57960W        W30286  23.573  10.391   2.840
57961W        W30287  35.926  26.199   0.902
57962W        W30288   3.052   9.633   4.925
57963W        W30289  38.855   9.134   3.136
57964W        W30290  13.584  23.701   2.660
57965W        W30291   6.816  38.367   4.552
57966W        W30292  31.502  38.451   1.834
57967W        W30293  32.909  32.843  11.361
57968W        W30294  25.416   9.686   2.702
57969W        W30295   0.167  43.397  12.545
57970W        W30296   7.619  41.310  13.259
57971W        W30297  26.503  23.514   3.242
57972W        W30298  31.556  38.021  13.000
57973W        W30299  43.047  23.220  14.352
57974W        W30300   9.010   7.206   1.825
57975W        W30301   6.897  22.052   1.385
57976W        W30302  17.333  19.105  13.929
57977W        W30303  43.509  34.405   2.143
57978W        W30304  32.451  41.004   0.269
57979W        W30305   4.972  15.909   4.041
57980W        W30306  32.750  26.723   4.145
57981W        W30307  29.990  33.681  13.324
57982W        W30308  38.304   0.489   3.725
57983W        W30309  19.200  10.112   2.783
57984W        W30310  21.553   1.964   3.220
57985W        W30311  42.088  19.860   0.556
57986W        W30312   0.576  14.678  13.374
57987W        W30313  43.747  43.794   4.158
57988W        W30314  40.782  17.397  14.692
57989W        W30315  26.576  36.344  11.062
57990W        W30316  11.287  18.720  12.122
57991W        W30317   1.438   9.313   0.877
57992W        W30318  39.952  41.757  14.665
57993W        W30319  25.132  42.351  14.431
57994W        W30320  32.003  14.752   3.568
57995W        W30321  14.406  31.510  12.497
57996W        W30322   1.254  31.656  12.375
57997W        W30323  38.588  15.419   1.430
57998W        W30324   0.756  20.059   0.499
57999W        W30325   0.038  17.272   4.643
58000W        W30326  38.764  29.639   0.744
58001W        W30327  16.083  31.623  11.958
58002W        W30328  25.994  11.764  12.972
58003W        W30329   8.586  23.205  14.154
58004W        W30330  36.055  38.880   2.883
58005W        W30331  13.362   4.942  10.818
58006W        W30332   1.260  12.601   0.324
58007W        W30333  38.158  44.170   3.591
58008W        W30334   5.782  15.699  14.975
58009W        W30335  30.441  32.085  13.032
58010W        W30336  20.699   7.580   4.647
58011W        W30337  21.675  34.964  12.422
58012W        W30338   7.739  26.382   3.194
58013W        W30339  41.080   3.322  10.673
58014W        W30340  32.504  22.966   1.492
58015W        W30341  24.585   6.314   0.406
58016W        W30342  13.586  18.639   2.691
58017W        W30343  40.509   1.919   0.808
58018W        W30344  15.221  31.098   3.919
58019W        W30345   0.314   6.606   1.716
58020W        W30346  33.282  28.014   4.064
58021W        W30347  11.925  37.096   2.755
58022W        W30348  16.708   8.367   4.362
58023W        W30349  17.566   2.307  13.112
58024W        W30350  29.505  11.652  14.425
58025W        W30351   1.885   8.169   2.168
58026W        W30352   4.277  23.299   1.297
58027W        W30353   6.379  44.350  13.281
58028W        W30354  17.806  36.011  12.154
58029W        W30355  31.746   4.882  11.523
58030W        W30356   6.684  23.471  14.999
58031W        W30357  24.956   8.970  12.920
58032W        W30358  13.248  41.907   4.552
58033W        W30359  39.086   7.255  13.131
58034W        W30360  41.001   8.166   4.481
58035W        W30361  37.578  37.012   2.613
58036W        W30362  19.624  42.056  12.901
58037W        W30363   6.013  43.832  10.377
58038W        W30364  11.182  42.871   5.030
58039W        W30365  35.492  25.483  14.314
58040W        W30366  36.106  26.703   2.721
58041W        W30367  44.942  33.951  11.971
58042W        W30368  10.911  10.695   1.477
58043W        W30369  35.195  43.139   3.150
58044W        W30370  22.904   1.483  13.998
58045W        W30371   2.012  33.648  11.021
58046W        W30372   2.856  15.379  13.375
58047W        W30373   6.832  13.243  14.216
58048W        W30374  26.321  12.949   1.946
58049W        W30375  42.370   1.266   1.789
58050W        W30376   7.274  37.372  11.445
58051W        W30377  30.962  18.313   4.513
58052W        W30378  36.244  13.525  14.006
58053W        W30379  21.704   1.091  11.752
58054W        W30380  14.870  30.652   5.169
58055W        W30381  32.848  19.101  13.371
58056W        W30382  13.719   1.502   2.410
58057W        W30383   1.904   3.985  10.497
58058W        W30384   4.306  28.933  13.945
58059W        W30385   4.804  43.258   2.810
58060W        W30386  23.676  26.403  10.639
58061W        W30387  24.024  16.162  13.233
58062W        W30388   8.377  41.033   2.151
58063W        W30389   0.165  23.602   4.042
58064W        W30390  30.424  13.903  11.215
58065W        W30391   3.121   3.296  13.484
58066W        W30392  24.638   3.751   0.014
58067W        W30393  36.003  25.121   1.845
58068W        W30394  30.921  26.937   1.447
58069W        W30395  18.295  38.851   4.615
58070W        W30396   0.894  15.382  14.410
58071W        W30397  11.359  17.480  14.952
58072W        W30398   3.829  39.525  14.437
58073W        W30399  16.612  11.711  13.678
58074W        W30400  32.003   9.629   3.944
58075W        W30401  13.349  26.635  14.980
58076W        W30402  26.318   4.148   2.512
58077W        W30403  12.325   0.120  11.146
58078W        W30404   9.869  39.150   1.867
58079W        W30405  30.492  38.428   4.965
58080W        W30406  35.938  40.807  11.096
58081W        W30407  42.370  40.122  13.043
58082W        W30408  42.129  25.074   4.261
58083W        W30409   5.731  17.961  12.174
58084W        W30410  31.129  39.845   0.314
58085W        W30411   4.331   9.882   0.356
58086W        W30412  41.575  28.067  13.139
58087W        W30413  35.993  16.084  11.198
58088W        W30414  11.042  16.822  11.334
58089W        W30415  27.091  28.162   2.308
58090W        W30416  25.791   7.237  12.833
58091W        W30417   3.406  25.781  10.779
58092W        W30418  28.980   2.902  11.151
58093W        W30419   9.396  19.972   1.567
58094W        W30420   4.773  19.614  10.910
58095W        W30421   3.362  43.880  14.888
58096W        W30422  31.056  20.666   2.238
58097W        W30423  22.307  44.376   2.377
58098W        W30424  13.183  19.306   1.745
58099W        W30425  13.823   3.863  12.054
58100W        W30426  31.328  40.393   4.612
58101W        W30427  23.326  23.541  10.724
58102W        W30428  34.529  40.512  14.750
58103W        W30429  24.131  28.091   0.218
58104W        W30430  22.195  10.119   0.314
58105W        W30431  25.092   8.348  14.975
58106W        W30432  13.292  43.900  13.979
58107W        W30433   4.137  12.228  14.425
58108W        W30434  34.543  32.042  12.637
58109W        W30435  19.470  38.850  13.014
58110W        W30436  24.123  17.310  10.437
58111W        W30437  42.438  35.827  12.863
58112W        W30438  42.880  31.930   2.078
58113W        W30439   8.751  26.202   4.680
58114W        W30440  15.968  33.189   3.679
58115W        W30441  31.095  18.296   0.357
58116W        W30442  31.171   0.478   3.442
58117W        W30443  23.154  34.998   1.529
58118W        W30444  35.387  13.794  13.537
58119W        W30445  25.276  34.616   2.233
58120W        W30446  29.591  28.139   2.266
58121W        W30447  43.342  38.664   3.396
58122W        W30448  34.990   7.818  11.961
58123W        W30449  27.281  19.783   0.432
58124W        W30450  28.977  35.296   4.618
58125W        W30451   6.349   5.811   0.348
58126W        W30452  40.751  33.737  11.537
58127W        W30453  30.088  14.750   0.475
58128W        W30454  44.457  21.114   4.575
58129W        W30455  20.698  31.488  11.565
58130W        W30456  39.090  25.458  12.970
58131W        W30457   4.346  38.344   1.357
58132W        W30458   2.946  33.332  10.910
58133W        W30459  35.944   7.889   1.804
58134W        W30460  29.151  22.647  13.848
58135W        W30461   2.045  24.093   3.815
58136W        W30462   2.429  15.935   0.946
58137W        W30463  36.442  44.721   2.452
58138W        W30464  37.079   4.495   0.025
58139W        W30465  24.939  14.862   0.051
58140W        W30466  21.052  25.662   2.084
58141W        W30467  24.788  42.082   2.677
58142W        W30468   5.635  37.463  14.941
58143W        W30469  20.492  24.216  11.639
58144W        W30470  36.307  35.302  12.307
58145W        W30471  34.596  31.161  12.379
58146W        W30472   3.381  30.231  14.017
58147W        W30473   8.587  35.278  14.932
58148W        W30474  35.298  42.130  14.928
58149W        W30475   9.569  36.792   2.273
58150W        W30476  10.324  19.276   0.957
58151W        W30477  13.559  19.750   3.126
58152W        W30478  22.655   3.374  14.749
58153W        W30479  38.419  37.544  10.123
58154W        W30480  25.693  16.116   1.718
58155W        W30481  34.906  22.461   4.617
58156W        W30482  17.300  13.352  13.910
58157W        W30483  22.201  37.656   1.373
58158W        W30484   9.572  12.051  12.567
58159W        W30485  40.101   5.111  13.199
58160W        W30486  31.283  12.244   3.954
58161W        W30487   1.693  12.196  11.516
58162W        W30488  25.634  32.379  14.467
58163W        W30489   8.805  18.451   2.212
58164W        W30490  12.174   5.439  13.971
58165W        W30491   6.637  38.245   3.211
58166W        W30492  38.154  14.529  12.368
58167W        W30493  11.199  14.811  10.683
58168W        W30494  40.349   3.130  11.161
58169W        W30495  30.998  19.305  13.913
58170W        W30496  30.130   6.217  14.395
58171W        W30497  16.625  10.658   0.528
58172W        W30498  44.711  44.002  13.002
58173W        W30499  34.432  14.520   3.171
58174W        W30500  19.182   9.690   1.822
58175W        W30501  29.506  26.394   5.439
58176W        W30502  35.448  22.316  10.784
58177W        W30503  23.971  28.593   3.662
58178W        W30504  11.168   0.384  14.436
58179W        W30505  41.527  39.778   1.881
58180W        W30506  35.288  22.449  11.534
58181W        W30507  10.136  22.754   0.818
58182W        W30508  19.094  10.141  11.534
58183W        W30509   8.361  27.394   1.983
58184W        W30510  17.478  44.409   0.565
58185W        W30511  12.047  41.507  12.896
58186W        W30512  14.152   4.336   4.553
58187W        W30513   0.866  37.141  11.475
58188W        W30514  18.560  17.186  12.055
58189W        W30515   7.738  25.505  13.064
58190W        W30516  41.676  38.092   2.252
58191W        W30517  16.788  36.542   1.791
58192W        W30518   2.770  22.494  14.811
58193W        W30519   3.605   2.443  13.415
58194W        W30520  23.773  20.645   1.243
58195W        W30521  44.045  38.461   2.810
58196W        W30522   0.061  16.645   1.458
58197W        W30523  24.232   7.826   0.268
58198W        W30524  22.953  13.100   0.814
58199W        W30525   0.347  26.658   1.894
58200W        W30526  27.737  18.105  14.945
58201W        W30527   7.934  44.495  12.553
58202W        W30528  42.219  15.204  11.896
58203W        W30529  41.448  39.419   4.366
58204W        W30530   8.642   4.320  12.918
58205W        W30531  34.826   6.722   0.704
58206W        W30532   4.030  14.288   0.513
58207W        W30533  34.131  25.089   3.065
58208W        W30534  23.607  12.716   2.654
58209W        W30535  13.704   6.464   0.244
58210W        W30536  20.192  14.555   3.265
58211W        W30537  24.162  14.574  11.553
58212W        W30538  43.025   2.971   3.766
58213W        W30539   6.789  39.323  11.180
58214W        W30540  31.677  22.421  10.813
58215W        W30541  32.036  42.460   0.258
58216W        W30542  22.787  37.864   3.147
58217W        W30543  32.559  19.521   2.218
58218W        W30544  17.744  24.198   0.416
58219W        W30545  40.828  18.550  13.536
58220W        W30546  26.986  23.908  13.461
58221W        W30547   7.317  42.411   0.264
58222W        W30548  28.992   1.400   4.197
58223W        W30549  37.834  27.621  13.799
58224W        W30550  37.078  44.944   0.766
58225W        W30551  38.791   9.888   0.475
58226W        W30552  12.032  38.429  14.539
58227W        W30553  44.527   9.688  11.181
58228W        W30554  27.149  29.069  11.830
58229W        W30555  15.107   6.732  14.549
58230W        W30556   3.143  10.197   1.423
58231W        W30557  23.673  22.060   3.827
58232W        W30558  13.173  24.502   4.979
58233W        W30559  33.622  43.213  11.549
58234W        W30560  20.505  21.725   1.773
58235W        W30561  30.100  38.818  11.895
58236W        W30562  16.740  28.185   4.060
58237W        W30563  25.539  11.335   4.130
58238W        W30564  18.993  13.738   1.738
58239W        W30565  11.067  37.215   1.038
58240W        W30566   1.695  29.074  11.072
58241W        W30567  10.451  22.701  13.241
58242W        W30568  29.452  37.447  13.106
58243W        W30569  22.527  11.373   2.678
58244W        W30570   5.401  44.276   0.721
58245W        W30571  24.299   7.930   3.569
58246W        W30572   1.453  32.881   0.835
58247W        W30573  16.186  44.874   1.842
58248W        W30574  29.566  32.928   3.893
58249W        W30575  20.504  14.131   4.217
58250W        W30576  37.836  28.206   0.233
58251W        W30577   3.272  13.146  12.536
58252W        W30578  29.171  20.009  12.978
58253W        W30579  35.485  38.338   2.261
58254W        W30580  22.033  14.396  13.851
58255W        W30581   6.618   0.906  14.237
58256W        W30582  16.015   5.911  13.326
58257W        W30583  42.538   9.622  13.397
58258W        W30584  31.492  31.356   0.271
58259W        W30585  11.599   6.408   3.178
58260W        W30586   0.665  41.831  14.637
58261W        W30587  14.197  38.711   0.006
58262W        W30588   8.065  31.384   1.543
58263W        W30589   2.865  22.811   0.456
58264W        W30590  29.493  26.111   3.247
58265W        W30591   5.511  32.345   2.541
58266W        W30592  28.693  18.148   2.150
58267W        W30593  11.081  27.273  12.042
58268W        W30594  13.276  28.032   3.787
58269W        W30595  16.495  19.176   0.222
58270W        W30596   1.471  10.222   1.979
58271W        W30597   9.471  39.868  12.489
58272W        W30598  11.574  44.432   4.654
58273W        W30599  17.579  35.823  14.552
58274W        W30600  44.838  27.158  10.616
58275W        W30601  38.794  42.465  10.310
58276W        W30602  44.004  18.181  12.247
58277W        W30603  16.710  24.636   4.963
58278W        W30604  44.501  27.627   1.424
58279W        W30605   4.776  12.909  10.947
58280W        W30606  12.674  36.503   5.501
58281W        W30607   3.955   5.448   2.858
58282W        W30608   0.745  20.259  11.959
58283W        W30609  25.221  19.343   4.119
58284W        W30610  16.356   3.849  11.677
58285W        W30611  28.658  12.649   4.639
58286W        W30612   5.224   8.091  10.857
58287W        W30613  30.857  36.569  10.809
58288W        W30614  37.676  19.665   2.742
58289W        W30615  18.564  17.011   4.060
58290W        W30616  30.031  12.632   2.451
58291W        W30617  19.547  33.395   0.710
58292W        W30618  38.849  42.865   0.235
58293W        W30619  19.427  44.486   3.243
58294W        W30620  25.474   8.134   1.424
58295W        W30621  31.069   1.349  13.021
58296W        W30622  34.437   5.005  13.082
58297W        W30623  34.368   5.742   3.689
58298W        W30624  22.287  10.358   0.802
58299W        W30625  18.703  17.776   0.240
58300W        W30626   0.178   4.477   4.440
58301W        W30627  21.157  12.579   1.400
58302W        W30628  12.861   5.255   4.402
58303W        W30629  33.842  11.273  13.000
58304W        W30630  43.521  18.126   1.764
58305W        W30631  30.099  42.094  11.195
58306W        W30632   4.244  29.417  11.072
58307W        W30633   8.637  13.817   4.489
58308W        W30634   8.348  24.560   2.954
58309W        W30635  38.396   3.648  14.987
58310W        W30636   6.810  32.590  11.483
58311W        W30637  11.206  32.922  12.493
58312W        W30638  18.320  18.223   2.190
58313W        W30639  13.515   4.404   0.278
58314W        W30640  32.394  13.314  11.511
58315W        W30641  36.437  44.038   4.642
58316W        W30642  28.863  31.024   1.525
58317W        W30643  30.470  42.663  11.542
58318W        W30644  23.331  32.231   2.350
58319W        W30645  11.207  12.763  12.953
58320W        W30646  10.428  27.571   0.144
58321W        W30647  41.600  25.436   0.960
58322W        W30648  44.197  18.622   0.519
58323W        W30649   6.778  22.171  13.095
58324W        W30650  40.099  38.515   3.758
58325W        W30651  34.379  22.047  13.493
58326W        W30652  34.559   3.405   3.396
58327W        W30653  16.593   4.417  14.863
58328W        W30654  18.834   9.907  12.923
58329W        W30655  36.601   5.737   3.605
58330W        W30656  15.192  15.352  13.411
58331W        W30657  41.355  33.531   0.891
58332W        W30658  31.375  17.982  12.569
58333W        W30659  11.436  28.706  12.781
58334W        W30660   0.229  41.201  12.842
58335W        W30661  24.538  39.923   0.955
58336W        W30662  14.124   9.635   1.780
58337W        W30663  20.496   5.350   3.355
58338W        W30664   8.482  26.219  12.587
58339W        W30665  40.891   7.264  13.969
58340W        W30666  31.491  26.958   3.669
58341W        W30667  16.654  12.080   2.493
58342W        W30668   1.492   5.406  12.821
58343W        W30669  16.148  11.922  12.000
58344W        W30670   1.623  29.025   3.344
58345W        W30671  16.047  15.677   1.334
58346W        W30672  27.795  35.432  14.610
58347W        W30673   9.592  35.833   1.268
58348W        W30674  29.653  20.076   0.856
58349W        W30675  42.432  11.605  13.040
58350W        W30676  31.482  43.404  11.599
58351W        W30677  23.797  42.846  12.333
58352W        W30678  44.894  10.740   2.800
58353W        W30679  29.933   2.634   3.258
58354W        W30680   0.880  29.351  11.371
58355W        W30681  23.299  15.772   3.257
58356W        W30682  41.255  30.670  12.997
58357W        W30683  20.091   7.739   1.095
58358W        W30684  10.568   6.013  13.338
58359W        W30685  21.051  35.399   4.182
58360W        W30686   8.206  20.191   4.366
58361W        W30687  43.511  17.015   4.245
58362W        W30688   9.705  28.673  14.451
58363W        W30689  36.315  10.346   2.172
58364W        W30690   3.433  14.961   0.668
58365W        W30691  40.559  32.218   4.190
58366W        W30692   4.920   8.834  13.283
58367W        W30693  38.848  43.483  13.035
58368W        W30694   5.346  37.303  14.500
58369W        W30695   4.513  21.932   2.834
58370W        W30696  17.120  20.254   4.109
58371W        W30697  35.405   2.350   1.704
58372W        W30698  36.406  11.930   1.464
58373W        W30699  30.562  36.069  14.712
58374W        W30700  24.276   0.245   0.515
58375W        W30701  30.540  42.433  14.454
58376W        W30702  13.147  28.874  12.159
58377W        W30703  37.550   9.419  13.031
58378W        W30704  38.891   5.569   4.781
58379W        W30705  40.038  38.516  11.822
58380W        W30706  40.025  21.362  12.833
58381W        W30707   2.265  24.878  11.263
58382W        W30708  25.158   5.691   3.475
58383W        W30709   9.577   8.338  14.411
58384W        W30710  42.718  30.451   2.366
58385W        W30711  16.226  28.866  13.686
58386W        W30712  43.439  16.763   0.372
58387W        W30713  23.005   0.882  11.187
58388W        W30714  27.107   7.942  13.289
58389W        W30715   9.256   7.843  12.406
58390W        W30716  34.089   7.884   2.723
58391W        W30717   3.396  12.284   3.686
58392W        W30718   3.455  10.605  11.111
58393W        W30719  15.039  43.994  14.763
58394W        W30720   0.587  18.361  12.552
58395W        W30721   2.245   6.975   3.040
58396W        W30722  37.250  25.388  14.319
58397W        W30723  28.397   2.810   4.061
58398W        W30724  14.182  21.783  10.930
58399W        W30725   2.834  36.019   0.875
58400W        W30726  14.621  44.396   1.709
58401W        W30727   1.568  29.608  13.454
58402W        W30728  41.275  31.993   0.314
58403W        W30729   2.574   0.137  13.264
58404W        W30730  13.285  29.162  12.550
58405W        W30731  27.169  26.411   2.773
58406W        W30732  25.183  16.822   0.547
58407W        W30733  43.557  42.438  14.383
58408W        W30734  20.616  10.624   2.723
58409W        W30735  15.611   1.847  12.446
58410W        W30736  31.397  14.087  13.062
58411W        W30737  38.376  30.963  14.992
58412W        W30738  36.511  38.927   4.350
58413W        W30739  38.328  18.539  11.852
58414W        W30740  36.204  32.767   3.262
58415W        W30741  24.513  39.774  11.587
58416W        W30742  11.420  23.263   3.322
58417W        W30743  38.883  18.027   1.613
58418W        W30744  31.531   5.207  14.916
58419W        W30745  42.889   9.854  14.118
58420W        W30746  35.364  39.380   2.393
58421W        W30747  37.419  11.616  13.496
58422W        W30748  11.119  32.149   1.909
58423W        W30749  12.177  12.227  13.614
58424W        W30750  19.727  22.384  10.774
58425W        W30751  39.109  22.550   3.126
58426W        W30752  10.032   7.275  10.367
58427W        W30753   5.592   4.834  12.560
58428W        W30754  24.196  32.056  13.483
58429W        W30755  42.471   5.972  10.534
58430W        W30756  11.284  27.140  10.624
58431W        W30757  23.142  22.970   3.158
58432W        W30758  43.686   0.476   1.187
58433W        W30759  36.548  34.962   2.321
58434W        W30760  12.062  37.941  13.501
58435W        W30761  20.049  29.478  11.511
58436W        W30762   9.147   7.503   2.346
58437W        W30763  37.925  16.911  14.109
58438W        W30764   5.998  22.405   2.048
58439W        W30765  24.533  38.102  13.083
58440W        W30766  12.283  37.062   3.881
58441W        W30767   1.485  28.537   0.205
58442W        W30768  13.359  44.514   1.450
58443W        W30769   1.899  14.550   0.986
58444W        W30770   1.846  27.139   3.117
58445W        W30771  43.520  18.813  14.742
58446W        W30772  16.583  43.469  12.921
58447W        W30773  27.678  24.533   1.921
58448W        W30774  43.755  21.127  12.822
58449W        W30775   7.109   2.360  12.503
58450W        W30776  16.233  11.126  11.186
58451W        W30777  17.674  38.550  11.071
58452W        W30778  18.217   3.002   1.805
58453W        W30779  29.933  44.444   2.281
58454W        W30780  22.229  39.624   4.623
58455W        W30781  41.294  27.937   2.442
58456W        W30782   2.979  26.226   2.415
58457W        W30783  42.322  21.740  14.958
58458W        W30784  11.617  21.199  13.485
58459W        W30785  15.159  10.378   4.340
58460W        W30786  13.122  42.856  13.996
58461W        W30787  34.126  31.866  12.008
58462W        W30788   9.364  14.661  11.253
58463W        W30789  15.179  43.076   1.893
58464W        W30790  31.497   4.358   2.284
58465W        W30791  34.754  28.057   5.074
58466W        W30792  39.692   7.815  10.593
58467W        W30793  30.190  25.619   2.331
58468W        W30794  29.924  33.586   1.276
58469W        W30795  21.525  12.205  12.213
58470W        W30796   0.936   3.404   2.820
58471W        W30797  13.428  20.906  11.525
58472W        W30798  41.382  36.453   1.738
58473W        W30799  36.070  38.504   1.585
58474W        W30800  22.540  44.458  12.583
58475W        W30801  12.710   2.396  14.472
58476W        W30802  33.036  29.705  11.036
58477W        W30803  37.051  18.465   1.308
58478W        W30804  33.483  21.560   4.884
58479W        W30805  29.540  15.850  14.782
58480W        W30806  33.059   2.296  13.248
58481W        W30807  14.200  28.608  10.630
58482W        W30808  34.957   2.932   3.687
58483W        W30809  35.301  33.624  14.346
58484W        W30810  33.654  36.073   1.869
58485W        W30811  15.380  25.276   0.646
58486W        W30812  32.389   0.959   2.870
58487W        W30813   9.162  29.482  11.595
58488W        W30814  26.202   7.816   2.272
58489W        W30815  34.602   2.962   0.503
58490W        W30816  42.164  41.358   3.311
58491W        W30817   1.269  17.250   3.234
58492W        W30818   6.176  19.664  11.985
58493W        W30819  20.052  43.382  13.874
58494W        W30820  38.469  18.744   4.203
58495W        W30821   3.705   6.127   3.432
58496W        W30822  30.092   5.338  10.547
58497W        W30823   2.684  27.035  14.730
58498W        W30824  11.170  35.356   0.357
58499W        W30825  15.104  11.354   3.726
58500W        W30826  33.907  18.085   4.105
58501W        W30827  10.239  35.489   0.081
58502W        W30828  32.037  35.064   0.866
58503W        W30829  27.511  30.914   2.804
58504W        W30830  19.164   2.417   2.423
58505W        W30831  14.244   9.206  12.007
58506W        W30832  37.597  42.515   0.237
58507W        W30833  20.481  14.316  14.508
58508W        W30834  13.242  34.054   3.831
58509W        W30835   2.801  20.662  13.070
58510W        W30836  32.706  14.629  12.607
58511W        W30837  29.758  29.891  11.906
58512W        W30838  12.095  28.137  10.155
58513W        W30839  21.776   8.033   4.124
58514W        W30840  10.878  26.425   3.763
58515W        W30841  32.651  20.664  14.453
58516W        W30842  23.435  25.517  13.958
58517W        W30843  26.643  26.084  12.042
58518W        W30844  18.175  28.345  11.119
58519W        W30845  11.294  23.475   0.879
58520W        W30846  42.755  15.294  14.285
58521W        W30847  40.453  26.129   3.963
58522W        W30848  26.463  30.321   0.277
58523W        W30849  16.245  41.991   2.147
58524W        W30850  36.639  35.420   0.302
58525W        W30851  35.668  24.849  10.981
58526W        W30852  34.018  29.586  11.973
58527W        W30853   2.388  36.343   1.876
58528W        W30854  10.675  43.043  11.548
58529W        W30855  32.617  24.682   1.747
58530W        W30856  26.538   2.864   1.407
58531W        W30857  42.500   5.178  14.799
58532W        W30858  37.584  40.158   3.413
58533W        W30859  19.725   0.507  14.773
58534W        W30860   4.934  23.027   3.621
58535W        W30861  12.354  38.076  14.845
58536W        W30862   8.321  13.295  13.405
58537W        W30863   3.988  31.418  14.092
58538W        W30864  27.061  13.262   3.700
58539W        W30865  41.765  15.242   0.662
58540W        W30866  12.841  28.129  10.023
58541W        W30867  16.171  26.735   1.936
58542W        W30868  26.017   8.616   0.622
58543W        W30869   0.302  42.415   3.104
58544W        W30870   3.024  42.735   3.658
58545W        W30871   6.701  32.032  14.100
58546W        W30872  36.788  13.359  13.923
58547W        W30873   2.527   7.456   4.574
58548W        W30874  11.796  43.890  12.894
58549W        W30875  44.935  39.803  14.421
58550W        W30876  24.123  44.192  13.003
58551W        W30877   2.500   9.182   0.051
58552W        W30878  17.021   5.650  10.747
58553W        W30879  44.060  16.912  11.060
58554W        W30880  43.560   8.124   3.903
58555W        W30881  16.048   9.859   2.689
58556W        W30882  33.134  30.056   4.734
58557W        W30883  19.221  27.607  11.524
58558W        W30884   7.455  16.386  12.010
58559W        W30885  10.393  34.050  11.030
58560W        W30886  38.593   8.175   0.373
58561W        W30887  41.424   9.610   1.057
58562W        W30888  29.933  24.935  12.990
58563W        W30889  39.474   4.885  11.019
58564W        W30890   2.445  13.675   3.237
58565W        W30891  23.799  23.559  11.629
58566W        W30892  40.062   1.060  12.036
58567W        W30893  10.973  35.581   4.564
58568W        W30894  36.659  30.324   1.817
58569W        W30895  44.124  37.964  12.816
58570W        W30896  11.297  40.720  12.369
58571W        W30897  28.556  16.397   1.725
58572W        W30898   2.181  35.072  14.591
58573W        W30899  14.369  32.836  13.453
58574W        W30900   1.500  43.090   1.175
58575W        W30901  41.005   6.203   4.521
58576W        W30902  19.340  30.071   0.769
58577W        W30903  11.208  27.738  14.273
58578W        W30904  35.792  22.728  14.787
58579W        W30905  27.712   9.429   4.539
58580W        W30906  18.748  34.383   2.769
58581W        W30907  30.176  27.642  13.826
58582W        W30908  26.947  20.046  12.861
58583W        W30909  26.535   1.909   5.005
58584W        W30910  38.253  18.789   1.902
58585W        W30911  26.859  31.065  13.516
58586W        W30912  25.183  36.844  13.422
58587W        W30913  26.821  18.287  13.599
58588W        W30914  21.302  23.711   2.651
58589W        W30915   8.173  21.238   4.562
58590W        W30916  10.728  35.559  12.423
58591W        W30917  24.104  31.367   4.553
58592W        W30918  13.052  13.261  14.781
58593W        W30919  42.833  10.042   4.498
58594W        W30920   1.449  35.096  13.182
58595W        W30921  17.155  20.764  11.051
58596W        W30922  35.779   8.280  14.380
58597W        W30923  16.210  39.580   3.615
58598W        W30924  27.143   1.841   3.702
58599W        W30925  37.961   1.978   5.372
58600W        W30926   5.248   4.783  11.518
58601W        W30927  13.349  17.271   2.656
58602W        W30928  20.386  35.066  12.056
58603W        W30929   0.022  27.939  13.917
58604W        W30930  14.908  30.066  11.144
58605W        W30931   7.804  31.350   2.863
58606W        W30932   3.481  43.373  14.982
58607W        W30933  22.122   1.880  12.480
58608W        W30934  38.850  27.982   3.282
58609W        W30935   3.919  23.083  14.936
58610W        W30936   9.910   4.915  13.914
58611W        W30937  28.107  14.542  13.410
58612W        W30938  15.328  44.960  14.867
58613W        W30939  28.171  40.884  14.088
58614W        W30940  42.428  30.978   0.235
58615W        W30941  31.357  42.975   3.662
58616W        W30942  30.133  27.566  14.717
58617W        W30943  32.901  27.653   3.271
58618W        W30944  34.567  23.232  11.413
58619W        W30945  19.625  42.748  11.167
58620W        W30946  21.247   6.685  14.901
58621W        W30947  19.198   5.830  12.548
58622W        W30948  35.530  43.422   1.460
58623W        W30949  39.038  13.383   3.703
58624W        W30950  29.572  11.096  11.976
58625W        W30951   1.407  16.817   2.958
58626W        W30952  27.564   3.336  13.832
58627W        W30953  15.352  18.587   2.296
58628W        W30954  18.119  23.104  13.502
58629W        W30955  44.024  18.680  10.450
58630W        W30956  31.414  42.450  14.793
58631W        W30957  14.843  32.804  13.239
58632W        W30958  23.140   6.244   0.274
58633W        W30959  42.829  15.093  13.298
58634W        W30960  11.138  38.596   1.426
58635W        W30961  19.245  41.839   2.470
58636W        W30962  31.011  25.199  14.316
58637W        W30963   0.168   0.207  11.663
58638W        W30964  22.322   7.554  11.907
58639W        W30965  29.815  29.052   9.964
58640W        W30966  42.406  18.269  13.438
58641W        W30967  13.249  14.278   1.126
58642W        W30968   1.147  24.020  11.404
58643W        W30969   3.850  31.453   4.431
58644W        W30970   3.566  35.540   3.864
58645W        W30971  28.222  11.239  11.607
58646W        W30972   8.286  26.634  10.805
58647W        W30973  29.515  10.976   1.646
58648W        W30974  30.706  24.711  11.013
58649W        W30975  12.202  24.517  13.061
58650W        W30976   1.726  17.766   2.857
58651W        W30977  24.278  13.868   3.091
58652W        W30978  19.010   2.408   2.913
58653W        W30979   6.612  34.886  13.518
58654W        W30980  35.171  18.585  13.970
58655W        W30981  15.364   9.143  13.077
58656W        W30982  24.016   7.646   3.196
58657W        W30983  36.987  21.441  12.184
58658W        W30984  33.565  22.025  10.370
58659W        W30985   7.991   3.554  11.785
58660W        W30986  25.485   1.145  14.937
58661W        W30987  37.797  19.144   2.351
58662W        W30988  14.656  19.033   4.154
58663W        W30989  21.564  30.865   3.353
58664W        W30990   3.794  18.601  11.858
58665W        W30991  11.120  37.800   0.374
58666W        W30992  21.207  30.175   0.255
58667W        W30993  19.825  30.002   0.031
58668W        W30994  28.814  35.513  14.967
58669W        W30995   9.888  13.148  13.533
58670W        W30996  34.625   0.341  13.874
58671W        W30997  10.874  38.213  11.683
58672W        W30998  15.793   0.790   4.540
58673W        W30999  32.474  19.202   1.805
58674W        W31000  41.336  33.084  11.595
58675W        W31001  12.724  37.927   4.801
58676W        W31002  33.938  30.598  12.384
58677W        W31003  30.540   2.627  11.347
58678W        W31004  13.183  28.058  13.953
58679W        W31005   4.352  36.417  10.511
58680W        W31006  20.792  14.106  14.165
58681W        W31007  11.047  43.540   0.271
58682W        W31008  26.565  33.018   0.275
58683W        W31009   4.988  16.913   0.912
58684W        W31010  31.619   9.786   1.188
58685W        W31011  34.682   8.757  14.936
58686W        W31012  43.770  12.750  14.735
58687W        W31013   1.509  27.618  14.106
58688W        W31014  40.358   4.853   2.251
58689W        W31015  30.296  15.279  10.991
58690W        W31016  20.032  43.806   4.575
58691W        W31017  15.240  34.573   1.706
58692W        W31018  38.771   0.812   3.650
58693W        W31019   7.809   5.410   2.952
58694W        W31020  42.532  10.033   3.535
58695W        W31021  23.656  40.303  11.109
58696W        W31022  43.871  38.769  14.422
58697W        W31023  19.846  43.375   2.928
58698W        W31024  44.494   0.968  14.006
58699W        W31025  25.978  20.974  12.052
58700W        W31026  30.959  34.356   0.453
58701W        W31027  17.680   6.238   0.151
58702W        W31028   2.319   8.983  12.620
58703W        W31029  19.122  33.098   1.668
58704W        W31030  24.123  12.814   2.848
58705W        W31031   4.331  39.443   1.398
58706W        W31032  11.159  41.956   3.779
58707W        W31033   0.532  27.068   4.027
58708W        W31034  39.497  25.652   1.839
58709W        W31035  22.630  16.145   9.799
58710W        W31036  44.480  24.811   1.864
58711W        W31037  42.145  38.236   1.282
58712W        W31038  39.528  37.807   1.800
58713W        W31039  39.716  16.275  14.788
58714W        W31040  10.731  27.529   2.426
58715W        W31041  42.317  36.537   4.230
58716W        W31042   6.868  27.309   2.140
58717W        W31043  29.769  35.842  13.600
58718W        W31044  30.562  32.083   0.836
58719W        W31045  12.247   8.415   0.755
58720W        W31046   0.331  24.310  11.132
58721W        W31047  13.836  39.611   4.866
58722W        W31048  28.626  30.661  12.282
58723W        W31049   5.919   0.417   4.243
58724W        W31050   6.109  11.993   2.656
58725W        W31051  42.068  27.898  11.614
58726W        W31052  33.597  24.574   3.610
58727W        W31053  10.282  26.029   9.981
58728W        W31054  40.154  24.963  11.854
58729W        W31055   3.997  17.742  11.927
58730W        W31056  10.252   3.471   2.454
58731W        W31057  25.090   4.954  11.059
58732W        W31058  38.971  22.697   3.595
58733W        W31059  31.023  42.094  14.835
58734W        W31060  38.519   7.647  13.801
58735W        W31061   6.942  21.030  11.127
58736W        W31062  24.919  36.951  13.989
58737W        W31063   8.093  30.534  12.457
58738W        W31064  11.169  13.421  13.286
58739W        W31065  33.401  40.581   1.277
58740W        W31066  12.262  20.333   1.160
58741W        W31067  15.204  32.349   2.830
58742W        W31068  29.600  30.463   2.832
58743W        W31069  28.511  21.924  10.452
58744W        W31070   1.028  36.821  13.698
58745W        W31071  34.868  19.633   4.234
58746W        W31072  31.303  33.700  10.312
58747W        W31073  41.057  34.357   2.496
58748W        W31074   5.192   5.806   2.824
58749W        W31075  36.524   3.328  14.719
58750W        W31076  42.788  40.409   0.388
58751W        W31077  38.439   0.172   0.278
58752W        W31078  19.817  12.252  13.408
58753W        W31079   3.181   7.436  13.884
58754W        W31080  25.071  27.230   2.818
58755W        W31081  13.862  40.429  11.476
58756W        W31082  30.355  37.869  13.799
58757W        W31083  17.329  26.174  14.895
58758W        W31084  35.512  28.898  14.420
58759W        W31085   3.749  39.290  11.341
58760W        W31086  41.438  12.369  11.661
58761W        W31087  31.074  19.429   5.013
58762W        W31088  17.476  35.580  13.927
58763W        W31089  36.405   9.621  14.846
58764W        W31090  34.773   0.819   1.151
58765W        W31091   0.614  21.920   1.855
58766W        W31092  42.046  23.976  10.661
58767W        W31093  43.134  17.449   3.335
58768W        W31094   3.685   7.395  10.951
58769W        W31095   1.251  14.220  12.112
58770W        W31096  13.881  19.766   1.760
58771W        W31097   3.681  44.782   2.351
58772W        W31098  38.879  12.584   1.799
58773W        W31099  32.925  36.965   0.312
58774W        W31100   5.651  16.102  13.296
58775W        W31101  31.668   9.130  12.889
58776W        W31102  36.008  23.493  12.038
58777W        W31103  21.570  42.327  13.011
58778W        W31104  29.111  23.974  13.431
58779W        W31105  13.339   7.300  12.964
58780W        W31106   2.431  30.552   3.206
58781W        W31107  35.059  18.779  12.511
58782W        W31108  27.020  14.022   1.358
58783W        W31109  35.359  17.303   2.688
58784W        W31110   6.399   4.297  10.264
58785W        W31111  15.246  38.233   0.263
58786W        W31112   5.321  16.885   2.824
58787W        W31113   8.627  11.106  14.770
58788W        W31114  41.746  14.567   1.177
58789W        W31115  26.960   4.200   3.214
58790W        W31116  24.145  44.821   3.629
58791W        W31117   4.166   3.678   4.204
58792W        W31118  11.757  18.975  13.869
58793W        W31119  34.675  27.988  13.852
58794W        W31120  15.169  27.891   4.806
58795W        W31121  31.994  26.106  13.144
58796W        W31122  27.439   1.470  11.800
58797W        W31123  17.818  23.492   2.272
58798W        W31124  28.182  20.055   2.233
58799W        W31125   4.594  37.817  11.055
58800W        W31126  16.788  40.279  14.971
58801W        W31127   3.265  21.811  11.083
58802W        W31128  39.349  27.966   4.135
58803W        W31129  14.650  24.821   9.810
58804W        W31130  17.487  20.852   3.693
58805W        W31131   4.319   6.288   4.039
58806W        W31132   0.567  24.662  14.332
58807W        W31133  38.899  23.267  14.806
58808W        W31134  36.826  27.129   0.029
58809W        W31135   6.310  19.558  12.481
58810W        W31136  15.158  21.582   3.645
58811W        W31137   1.902  20.798  12.976
58812W        W31138   2.512  41.281   0.792
58813W        W31139  31.169  18.810  11.584
58814W        W31140  34.907   7.226  12.109
58815W        W31141  21.267  35.530   3.129
58816W        W31142  31.607   2.809  11.198
58817W        W31143  39.592   5.241   0.069
58818W        W31144  20.671   5.680  14.330
58819W        W31145  25.637  19.685  10.190
58820W        W31146  27.051  40.479   4.636
58821W        W31147  13.703  26.151  12.623
58822W        W31148  40.665   8.210  13.227
58823W        W31149  41.749  29.504  11.938
58824W        W31150  26.588  29.216  11.137
58825W        W31151  27.121   9.696  11.932
58826W        W31152   4.800   8.009  13.230
58827W        W31153  26.865  22.477   9.998
58828W        W31154   8.242  39.129  12.500
58829W        W31155  44.874  28.205  11.622
58830W        W31156  44.276  37.997  14.772
58831W        W31157  39.958  11.809   3.698
58832W        W31158  42.528  35.911   3.168
58833W        W31159  11.520  34.472  11.543
58834W        W31160  38.312   9.643   0.492
58835W        W31161  38.012  30.458  14.536
58836W        W31162  35.873  39.351  12.083
58837W        W31163   5.951   2.785   3.652
58838W        W31164   8.893  18.291   2.697
58839W        W31165  26.607  10.654  14.873
58840W        W31166  17.502   2.619  11.259
58841W        W31167  19.973  34.396  13.827
58842W        W31168  27.070  28.679   2.436
58843W        W31169  41.656  39.501  13.102
58844W        W31170   8.324  26.510   4.769
58845W        W31171  27.887  40.765   1.777
58846W        W31172  22.960  16.746  10.534
58847W        W31173  11.090  35.021   5.054
58848W        W31174  13.335  10.713   4.831
58849W        W31175  24.066   6.534  13.997
58850W        W31176  21.396  28.867  10.552
58851W        W31177   9.299  35.460   2.370
58852W        W31178  35.842  42.365  12.357
58853W        W31179  11.555   1.415   0.215
58854W        W31180  41.054   2.285   3.308
58855W        W31181   5.700  16.379   0.784
58856W        W31182   3.807  35.636   1.766
58857W        W31183  38.837  27.980   4.161
58858W        W31184  37.876  37.791  13.371
58859W        W31185  32.723   3.271  12.942
58860W        W31186  17.049  43.888  13.317
58861W        W31187  13.313  27.547  11.153
58862W        W31188  35.146  29.005   5.103
58863W        W31189  43.288   3.824   1.382
58864W        W31190  15.096   5.488  13.389
58865W        W31191   5.496  17.514  12.072
58866W        W31192  38.815  13.725  10.188
58867W        W31193  43.046  44.403   3.121
58868W        W31194  27.627  22.063   4.542
58869W        W31195  31.937  30.753  14.886
58870W        W31196  28.904  29.371  12.156
58871W        W31197  20.737  34.388   0.707
58872W        W31198  11.698   8.157   2.705
58873W        W31199  42.579  17.712  11.068
58874W        W31200  24.668  26.008   0.385
58875W        W31201  24.446  40.605  11.291
58876W        W31202  29.388   3.841   4.560
58877W        W31203  14.116  29.126   3.087
58878W        W31204  33.905  35.052   1.556
58879W        W31205  11.247  19.569   2.310
58880W        W31206  22.816  20.077  11.853
58881W        W31207  23.648  39.447   0.805
58882W        W31208  26.453  24.642   3.015
58883W        W31209  31.463  31.446  12.212
58884W        W31210  20.995   1.632   2.367
58885W        W31211  17.607  27.746   3.807
58886W        W31212  23.201   6.730   3.842
58887W        W31213   3.931   4.958   1.023
58888W        W31214   8.345  23.659   4.903
58889W        W31215   9.406  28.586  14.048
58890W        W31216  20.233  24.740   4.350
58891W        W31217  25.464  31.711  12.611
58892W        W31218  14.196  40.986   4.089
58893W        W31219  41.897  11.855  13.767
58894W        W31220  11.860  10.847   3.693
58895W        W31221  40.476  39.377   0.887
58896W        W31222  44.972   5.444  14.751
58897W        W31223  10.685  27.195  12.370
58898W        W31224  40.407  12.880  12.846
58899W        W31225   3.485  32.621  13.485
58900W        W31226  39.626  27.175   3.672
58901W        W31227  20.467  31.213   2.680
58902W        W31228  14.606   1.995  14.493
58903W        W31229  32.972   5.958   4.858
58904W        W31230  33.219  24.213   0.879
58905W        W31231  16.452   5.348   1.839
58906W        W31232  12.558  10.302  14.840
58907W        W31233  27.392  29.133   9.567
58908W        W31234  30.479   6.869   2.875
58909W        W31235  32.088  12.281   4.160
58910W        W31236  28.847  44.140   3.675
58911W        W31237  27.603   4.646   1.723
58912W        W31238  28.644  18.818  11.122
58913W        W31239  16.634   2.473   0.897
58914W        W31240  14.096   9.360   0.442
58915W        W31241  25.596  27.057  14.096
58916W        W31242  33.862  19.485   1.639
58917W        W31243  32.495  22.975   0.227
58918W        W31244  40.858  21.095   3.779
58919W        W31245  27.768   8.673   0.467
58920W        W31246  20.668  28.610   4.817
58921W        W31247   0.932  41.299   2.755
58922W        W31248  27.259   7.780   3.214
58923W        W31249  28.892  33.303   1.218
58924W        W31250   1.036  10.687   9.834
58925W        W31251  43.143  14.153   0.438
58926W        W31252  41.650  44.753  10.931
58927W        W31253  16.130  25.440   0.881
58928W        W31254  38.639  13.656   2.374
58929W        W31255   0.001  14.508   3.300
58930W        W31256  42.887  22.818  13.520
58931W        W31257  33.614  21.262  13.899
58932W        W31258  12.459  12.166   0.163
58933W        W31259  15.966   1.638   2.283
58934W        W31260  20.117   0.843   3.233
58935W        W31261  30.621   6.814   2.380
58936W        W31262  21.025  22.621  13.113
58937W        W31263  42.059   5.555   2.320
58938W        W31264  42.403  18.824   5.187
58939W        W31265  35.530  29.739   2.844
58940W        W31266  44.482  44.039  13.501
58941W        W31267  29.681   1.103  12.016
58942W        W31268  13.735  22.154   0.705
58943W        W31269  15.156  31.981  14.737
58944W        W31270  32.584  34.740  10.562
58945W        W31271  41.230  30.116   0.733
58946W        W31272  26.644  18.083  11.803
58947W        W31273   6.196  33.525   5.456
58948W        W31274  40.539  14.677   1.815
58949W        W31275  33.688  20.477   1.784
58950W        W31276  18.291  25.118  10.190
58951W        W31277  17.490  14.316  12.933
58952W        W31278  34.080   8.628  11.998
58953W        W31279  42.401   5.234  12.097
58954W        W31280   3.450  13.962  11.654
58955W        W31281  10.829  25.680  10.658
58956W        W31282  32.386  29.455   4.854
58957W        W31283  34.135   1.581   0.762
58958W        W31284   9.711   3.866   0.396
58959W        W31285   1.922   0.929   2.349
58960W        W31286  10.523  14.711  12.567
58961W        W31287  30.117  35.664  14.420
58962W        W31288  28.131  15.703  14.162
58963W        W31289  15.616  33.844  12.162
58964W        W31290  26.393  14.860   4.257
58965W        W31291  36.515   6.283   3.276
58966W        W31292  36.293  15.025  12.409
58967W        W31293  24.549  23.934  11.303
58968W        W31294  35.021   6.881   3.389
58969W        W31295  39.450   5.848   0.766
58970W        W31296   4.986  23.355  13.580
58971W        W31297   9.127  11.205  14.721
58972W        W31298  13.297   4.401   4.852
58973W        W31299  42.738  12.299  12.834
58974W        W31300  41.964  40.854   3.435
58975W        W31301   0.723   6.183   2.933
58976W        W31302  34.588  33.399  11.955
58977W        W31303  14.283  43.539  11.076
58978W        W31304  28.860   7.491   0.312
58979W        W31305  29.128  36.423  11.703
58980W        W31306  22.065  18.631   1.812
58981W        W31307  23.180  25.947  13.609
58982W        W31308  12.673  18.842  12.931
58983W        W31309  41.619  19.669   3.806
58984W        W31310  34.132   1.874  11.589
58985W        W31311   6.931  19.755  11.490
58986W        W31312  34.384  12.630   4.240
58987W        W31313  16.231   7.775   1.212
58988W        W31314  29.474  32.049  14.321
58989W        W31315  20.435  32.879  14.252
58990W        W31316  43.754  25.207   3.141
58991W        W31317  38.826  31.054  12.234
58992W        W31318  43.325  21.144   4.711
58993W        W31319  20.571  36.824  11.208
58994W        W31320  39.805  36.434  13.445
58995W        W31321  32.828   4.238   0.366
58996W        W31322  23.430  18.279  13.321
58997W        W31323  44.912  24.682   0.569
58998W        W31324  24.761  17.799   3.286
58999W        W31325   7.363  19.530   1.098
59000W        W31326  43.637  42.796   4.144
59001W        W31327  26.780  21.013   3.503
59002W        W31328  29.055   6.865   4.598
59003W        W31329  27.031  39.482  14.749
59004W        W31330  20.053  39.809   4.677
59005W        W31331   2.339  36.949  14.772
59006W        W31332   7.821   3.939  12.133
59007W        W31333  14.186  24.552  12.796
59008W        W31334  38.849   3.623   3.519
59009W        W31335  14.802   6.152   4.471
59010W        W31336  39.994  32.135   2.954
59011W        W31337  18.841  17.760  14.072
59012W        W31338  22.973  14.248   4.159
59013W        W31339   7.908  26.169  12.539
59014W        W31340  43.258  43.528  12.818
59015W        W31341  11.722   2.211   3.360
59016W        W31342  14.694  36.809   0.595
59017W        W31343  13.686  33.830  12.393
59018W        W31344  14.305  27.030  11.188
59019W        W31345  20.141  28.513   2.472
59020W        W31346  25.397  22.406  11.095
59021W        W31347   4.572  39.501   4.722
59022W        W31348  16.513  21.000  14.496
59023W        W31349  42.495   6.027   4.655
59024W        W31350  28.980  41.923  11.619
59025W        W31351  15.357  37.392  14.318
59026W        W31352   5.357  27.993   1.282
59027W        W31353  31.203  21.137   1.996
59028W        W31354   0.629   2.522   3.697
59029W        W31355  12.376  26.739   3.691
59030W        W31356  38.895  29.942   4.639
59031W        W31357   6.920  27.482  13.916
59032W        W31358  17.796  19.075  11.994
59033W        W31359  24.471  18.523  14.527
59034W        W31360  15.501  36.916  10.063
59035W        W31361  21.667  27.113   3.285
59036W        W31362  29.402  36.411  13.517
59037W        W31363   2.318   8.955   0.483
59038W        W31364   1.239   4.411   1.835
59039W        W31365  32.803  17.172   0.166
59040W        W31366  22.097   0.484   1.706
59041W        W31367  19.531   3.311  11.575
59042W        W31368   2.344  11.894  12.498
59043W        W31369   6.953  44.322   2.280
59044W        W31370  35.943  12.726   1.265
59045W        W31371  36.505  35.518   1.133
59046W        W31372  43.879  24.324   2.814
59047W        W31373  13.113  13.875  12.287
59048W        W31374  10.749   3.117  11.605
59049W        W31375   9.242   8.732   0.977
59050W        W31376  40.423  24.218  14.487
59051W        W31377  19.288  42.817   3.664
59052W        W31378  25.036   1.297  11.630
59053W        W31379   0.657  23.349  10.309
59054W        W31380  29.247  17.216   1.740
59055W        W31381   1.327  29.375  12.965
59056W        W31382  26.983  21.657   1.691
59057W        W31383  12.856  33.211   5.051
59058W        W31384  22.026  27.111  11.487
59059W        W31385   4.968  34.143   3.988
59060W        W31386  24.671   9.452  12.079
59061W        W31387  13.580   9.365   4.711
59062W        W31388   3.256  28.397   0.521
59063W        W31389   2.412  28.452  13.309
59064W        W31390  10.220   5.637  11.158
59065W        W31391  24.909  44.884   1.761
59066W        W31392  31.408  32.141   4.810
59067W        W31393   5.782  29.506  13.926
59068W        W31394  36.995  10.779   1.607
59069W        W31395   2.401  15.790  11.939
59070W        W31396  12.340   9.337   0.858
59071W        W31397  27.742  40.237  11.397
59072W        W31398  20.723  30.509  14.068
59073W        W31399  42.842  35.300   2.363
59074W        W31400  37.073   5.377  14.773
59075W        W31401  13.651   9.726  12.562
59076W        W31402  43.314  18.378   1.306
59077W        W31403  13.696  18.702  11.064
59078W        W31404  33.650  40.377   0.282
59079W        W31405  13.298  13.323   0.287
59080W        W31406  30.249   7.189  13.052
59081W        W31407   8.254  36.883  12.841
59082W        W31408  13.544  26.977   1.687
59083W        W31409  37.915  27.268  10.671
59084W        W31410  14.354  44.867  11.285
59085W        W31411  41.959  43.054   4.191
59086W        W31412  28.260  36.423   3.167
59087W        W31413  33.554  36.792   4.672
59088W        W31414   4.839  16.623  14.109
59089W        W31415  39.917  23.569   0.632
59090W        W31416  29.129  40.929  11.550
59091W        W31417  13.424   9.922   1.379
59092W        W31418  24.929  41.409  11.683
59093W        W31419  14.870  18.367   2.321
59094W        W31420  23.616   1.024   2.391
59095W        W31421  19.306  44.925   4.690
59096W        W31422  38.867  38.040   4.876
59097W        W31423  42.276  30.103  14.923
59098W        W31424  38.816  21.005   1.029
59099W        W31425  29.013  40.590  14.213
59100W        W31426  26.026  41.317   4.355
59101W        W31427  11.369   2.756   1.573
59102W        W31428  13.827  33.184  13.928
59103W        W31429   2.159  16.178   1.371
59104W        W31430  17.737  23.197  11.725
59105W        W31431   8.782   4.456   4.110
59106W        W31432  44.565  13.569   3.200
59107W        W31433  31.810  13.044  10.718
59108W        W31434  44.171  15.137   4.294
59109W        W31435  42.926  32.403  12.400
59110W        W31436  44.508  42.302   0.816
59111W        W31437  24.028  43.324   1.342
59112W        W31438  26.951  43.430   3.946
59113W        W31439  16.180   0.646  13.819
59114W        W31440   4.841  34.975   4.598
59115W        W31441  25.019   1.998  12.112
59116W        W31442  41.572   2.276   3.227
59117W        W31443   4.884   1.775   0.045
59118W        W31444  44.723  21.178  12.839
59119W        W31445  33.412  41.276  11.630
59120W        W31446  16.418  40.170  13.398
59121W        W31447  24.654  25.743  13.582
59122W        W31448  43.293  43.158   1.031
59123W        W31449   1.441  12.779   5.101
59124W        W31450  14.018  18.708  12.942
59125W        W31451  18.845  28.541   0.055
59126W        W31452  44.355  35.066   1.365
59127W        W31453  21.668  31.359  14.272
59128W        W31454  35.906  21.533  14.432
59129W        W31455  14.836   3.798   3.634
59130W        W31456  41.999  18.615  13.339
59131W        W31457  13.671  39.435  11.503
59132W        W31458  23.170  14.865   0.310
59133W        W31459   6.287  34.043   3.172
59134W        W31460  16.567  33.491  13.295
59135W        W31461  38.316   7.282   3.305
59136W        W31462  12.808  42.423  11.601
59137W        W31463  17.709   1.799   4.718
59138W        W31464  17.556   4.454   4.359
59139W        W31465  38.790  24.517   3.654
59140W        W31466   5.778  36.451  11.973
59141W        W31467  42.760  24.979  14.441
59142W        W31468  37.399  21.322   3.710
59143W        W31469  22.131   2.501  12.897
59144W        W31470   9.808  10.621   2.579
59145W        W31471  30.627  14.312  14.294
59146W        W31472  28.005  43.916  12.838
59147W        W31473  43.421   5.897  11.052
59148W        W31474  39.965   3.531   2.783
59149W        W31475   9.873   4.698   4.556
59150W        W31476  19.104   5.306  11.112
59151W        W31477  25.082  14.199  12.581
59152W        W31478  24.275  29.723  12.100
59153W        W31479  12.336  27.396  13.500
59154W        W31480  20.784  23.789  11.601
59155W        W31481  13.812  23.479  13.740
59156W        W31482  13.267  26.607  12.867
59157W        W31483   5.103  39.501   4.924
59158W        W31484   7.054  16.189  13.794
59159W        W31485   7.273  15.573  13.013
59160W        W31486   0.447  12.392   3.260
59161W        W31487  37.448  37.583  13.536
59162W        W31488  18.514   4.278   4.703
59163W        W31489   6.228  44.216  14.321
59164W        W31490  10.885  41.559   2.351
59165W        W31491  14.055  36.051  13.419
59166W        W31492  24.799  14.642  12.781
59167W        W31493  31.258  11.818   4.658
59168W        W31494  15.717  32.121   0.378
59169W        W31495  27.464  35.010   1.049
59170W        W31496  38.296  22.619  14.436
59171W        W31497  22.984   5.710  13.414
59172W        W31498  17.760  25.408   4.940
59173W        W31499   8.859  43.808   4.552
59174W        W31500  16.032   0.076   4.131
59175W        W31501  29.588  42.804   0.249
59176W        W31502  36.126  36.003   0.754
59177W        W31503  39.907  15.850  14.974
59178W        W31504  19.197  21.651  10.692
59179W        W31505  22.134  26.178  12.410
59180W        W31506  28.673  25.670  10.622
59181W        W31507  21.948   0.305  13.352
59182W        W31508  25.303  30.496   2.866
59183W        W31509   3.377  35.526   2.879
59184W        W31510   9.456  32.978  11.544
59185W        W31511   0.830  25.406   2.013
59186W        W31512  31.833  10.745  11.265
59187W        W31513   3.745  10.813   2.141
59188W        W31514  40.860  38.555   2.690
59189W        W31515  15.136   4.348   1.809
59190W        W31516  10.293   8.643   1.917
59191W        W31517  44.168  15.780  10.223
59192W        W31518  24.476   4.830   3.160
59193W        W31519   4.491   5.355   2.792
59194W        W31520  35.409  35.377   2.291
59195W        W31521  44.277  21.336  10.479
59196W        W31522  39.034  40.322   0.374
59197W        W31523   9.195  29.704  12.057
59198W        W31524  42.133  29.928   2.742
59199W        W31525  38.778  21.708   3.225
59200W        W31526   3.680  14.253   1.930
59201W        W31527  20.029  27.368   4.903
59202W        W31528  13.146   7.251   3.184
59203W        W31529  16.549  12.785   3.333
59204W        W31530  25.300  39.163   5.509
59205W        W31531  33.075  37.327  14.048
59206W        W31532  32.592  34.606  12.854
59207W        W31533  25.186  19.717  14.492
59208W        W31534   6.656   2.776   2.737
59209W        W31535  35.865  33.118  11.922
59210W        W31536  17.519   9.739  11.471
59211W        W31537  23.113  34.941  14.707
59212W        W31538  14.112  30.367   2.958
59213W        W31539  15.214  15.278  10.452
59214W        W31540  41.530   6.885  12.129
59215W        W31541  12.871   7.909   0.468
59216W        W31542   4.033  22.512   2.113
59217W        W31543  40.457  10.859  12.820
59218W        W31544  10.653  13.192   1.362
59219W        W31545  32.686  37.010  13.443
59220W        W31546  35.255  26.781  11.085
59221W        W31547   2.938   0.799   4.258
59222W        W31548   9.911  27.858   2.827
59223W        W31549  12.281   4.534  11.975
59224W        W31550  22.617  30.013   2.817
59225W        W31551  29.407  41.549  13.514
59226W        W31552   6.877  33.633  13.035
59227W        W31553  32.403  24.005  13.101
59228W        W31554   5.321   8.145   2.833
59229W        W31555  20.780  43.597   2.904
59230W        W31556  27.714  37.466  13.964
59231W        W31557   7.197   6.164  11.208
59232W        W31558  27.173   0.176   3.288
59233W        W31559  23.729  17.645   2.300
59234W        W31560  36.829   9.835   0.817
59235W        W31561  24.006  41.303   2.240
59236W        W31562   6.282  23.882  11.956
59237W        W31563  11.182   6.575   2.223
59238W        W31564  14.594  34.588  11.576
59239W        W31565  40.324   4.604   2.768
59240W        W31566  27.887  44.774   0.494
59241W        W31567  39.740  39.519   0.743
59242W        W31568  24.599  24.403   1.352
59243W        W31569  28.439  20.983   4.350
59244W        W31570   1.470  25.654   4.050
59245W        W31571  12.617  38.068  12.498
59246W        W31572   3.465  28.692   4.185
59247W        W31573  21.348  24.359  11.169
59248W        W31574  42.585  31.442   0.504
59249W        W31575  24.169  12.290   0.360
59250W        W31576  35.371  12.254  12.936
59251W        W31577   1.881  42.479  14.377
59252W        W31578   4.754  11.298   2.780
59253W        W31579  42.487  30.514   0.994
59254W        W31580  10.696   2.764   4.527
59255W        W31581  34.061  12.476  13.911
59256W        W31582  12.467   1.581  11.160
59257W        W31583  38.122  28.699  13.013
59258W        W31584  10.338  16.635   0.945
59259W        W31585  36.792  30.493   4.028
59260W        W31586  16.040  26.623   3.415
59261W        W31587  10.197  12.596  14.016
59262W        W31588  29.670  16.146  13.812
59263W        W31589  21.209   6.364  11.086
59264W        W31590   7.151  39.410  14.944
59265W        W31591  38.136  34.726  11.218
59266W        W31592  21.755   4.959   3.123
59267W        W31593  17.287  17.951  13.772
59268W        W31594  41.852  33.384  10.828
59269W        W31595  17.055   8.853  10.762
59270W        W31596   9.454   1.366  12.519
59271W        W31597   4.180  16.074   2.274
59272W        W31598  24.477   7.496  11.665
59273W        W31599  44.839   6.427  10.656
59274W        W31600  26.380  37.411  13.004
59275W        W31601   2.857  41.340  14.361
59276W        W31602   7.851   7.418  10.754
59277W        W31603   3.664  19.835  10.361
59278W        W31604  19.482  36.135   1.394
59279W        W31605  30.524  35.503   1.166
59280W        W31606   9.951  23.872  10.013
59281W        W31607  21.654  14.826   0.267
59282W        W31608  24.079  13.016  14.308
59283W        W31609  13.664  25.012   0.845
59284W        W31610  41.495  22.224  11.531
59285W        W31611  17.953  34.917  14.609
59286W        W31612  21.327  23.090  13.919
59287W        W31613   8.332  16.334  14.393
59288W        W31614   2.542   7.090   4.207
59289W        W31615  38.556  11.713   4.616
59290W        W31616  41.612   3.839   3.612
59291W        W31617  32.505  12.910   4.253
59292W        W31618  38.470   8.750  11.004
59293W        W31619   0.680   6.742   0.289
59294W        W31620  14.796   0.318   1.972
59295W        W31621   2.170  24.570   3.641
59296W        W31622  18.570   7.939   3.150
59297W        W31623  29.086  14.841  12.089
59298W        W31624   4.523   6.262  14.421
59299W        W31625  30.418  18.812   3.582
59300W        W31626  13.410   8.053  13.608
59301W        W31627  39.961  31.643  14.744
59302W        W31628  22.666  42.068  14.800
59303W        W31629   4.745   1.493   1.781
59304W        W31630  42.563   8.703   3.929
59305W        W31631  44.267   4.778  13.317
59306W        W31632   3.952  29.286  12.144
59307W        W31633  30.318  42.283   0.893
59308W        W31634  41.826  36.510   3.143
59309W        W31635   1.638  28.557   4.611
59310W        W31636  25.602  10.491  11.806
59311W        W31637  14.326  10.305  12.813
59312W        W31638  29.221   7.378  13.427
59313W        W31639  31.598  24.073  12.488
59314W        W31640  36.709  34.663   4.110
59315W        W31641  38.493  39.971   1.825
59316W        W31642  10.743  24.209   1.815
59317W        W31643  38.522  21.651  14.361
59318W        W31644  11.201  16.277   4.282
59319W        W31645  33.971  19.676  14.920
59320W        W31646  27.731  43.819   3.401
59321W        W31647   4.020   6.854  14.962
59322W        W31648  12.306  43.929  12.783
59323W        W31649  39.060  28.426  14.811
59324W        W31650  35.017  30.345   4.573
59325W        W31651  34.318  36.685   0.856
59326W        W31652  36.607  21.509  11.246
59327W        W31653   4.683  44.756   1.427
59328W        W31654  18.682  30.048  11.096
59329W        W31655   3.249  29.382  12.946
59330W        W31656  15.891  40.952  13.213
59331W        W31657  34.360   9.646   1.858
59332W        W31658  34.516   2.549   1.982
59333W        W31659  27.353  13.932  11.547
59334W        W31660   2.718  11.228  14.973
59335W        W31661  13.294  22.470   3.807
59336W        W31662   5.747  22.491  11.417
59337W        W31663   5.751  39.588   0.982
59338W        W31664  32.142  28.098  12.069
59339W        W31665  15.403  43.849  11.313
59340W        W31666  37.802  35.525   2.726
59341W        W31667  34.783  10.618   3.603
59342W        W31668  14.101  29.268   1.314
59343W        W31669  11.765  17.020   0.876
59344W        W31670   7.940  18.611  12.316
59345W        W31671  43.091   2.410  12.026
59346W        W31672  30.820  27.560  11.939
59347W        W31673  17.852  16.738  11.524
59348W        W31674  12.290   4.935   3.186
59349W        W31675  12.673   2.690   4.167
59350W        W31676  30.219  12.758   3.796
59351W        W31677   4.687  13.545   2.311
59352W        W31678   1.205  10.084  14.461
59353W        W31679  26.670  41.946   0.844
59354W        W31680  29.494  28.664   3.392
59355W        W31681  37.575  42.424   2.866
59356W        W31682  15.834  18.816   2.242
59357W        W31683  36.895  28.602   1.815
59358W        W31684   0.025  40.919  12.046
59359W        W31685  40.361  40.925   2.385
59360W        W31686  20.717  38.130  12.836
59361W        W31687  42.307   9.830  14.767
59362W        W31688  32.960  33.913  11.575
59363W        W31689  24.795  18.364   1.637
59364W        W31690  12.629  38.898  12.033
59365W        W31691   2.335   4.924  12.776
59366W        W31692   4.722  22.539   0.850
59367W        W31693  20.610   7.220  12.051
59368W        W31694   7.577  30.629  13.785
59369W        W31695  17.077  25.481   4.199
59370W        W31696  18.910  17.643  10.851
59371W        W31697  36.067  15.174   4.175
59372W        W31698  16.194  38.633  13.372
59373W        W31699  20.451  36.140   2.841
59374W        W31700  15.712  15.377   2.420
59375W        W31701  17.797   1.699   2.703
59376W        W31702   2.168  28.972  11.398
59377W        W31703  16.404   0.970   2.664
59378W        W31704  41.757  32.882  10.704
59379W        W31705  26.117  12.631   4.384
59380W        W31706   0.897  14.190   5.068
59381W        W31707  39.734   4.043  11.376
59382W        W31708  42.519  42.540   3.612
59383W        W31709  37.319  12.701   4.920
59384W        W31710  41.370  44.554   1.190
59385W        W31711   2.911  42.308   4.132
59386W        W31712  11.740   8.862   3.197
59387W        W31713  19.045   4.906   0.405
59388W        W31714  24.025  19.946  12.458
59389W        W31715  38.476  41.102   1.360
59390W        W31716  29.852  11.187  11.081
59391W        W31717   3.263   9.250   9.811
59392W        W31718  25.450  28.954  12.850
59393W        W31719  25.425  28.855   1.572
59394W        W31720  43.532  12.620  14.303
59395W        W31721  21.222  42.252   0.728
59396W        W31722  38.863  35.902   1.308
59397W        W31723  41.492   3.688   4.469
59398W        W31724  27.156   4.617   1.278
59399W        W31725  27.564  16.790  12.986
59400W        W31726  26.199   9.725   3.624
59401W        W31727   8.887   2.822   1.459
59402W        W31728  35.567  41.337  14.458
59403W        W31729   7.689  44.450   0.453
59404W        W31730  16.307  35.388   0.822
59405W        W31731  33.554  29.062  10.617
59406W        W31732  16.279  16.712  13.371
59407W        W31733  43.963  33.897  14.547
59408W        W31734  42.017  24.461   2.715
59409W        W31735  24.494  17.461  10.109
59410W        W31736  33.585   7.032   1.940
59411W        W31737  44.307  30.676  10.853
59412W        W31738   3.916  34.393  14.434
59413W        W31739  29.630  40.386   3.097
59414W        W31740  35.899  17.633  14.916
59415W        W31741  21.660  36.001   2.305
59416W        W31742   1.251  12.818   3.320
59417W        W31743  21.055  19.016   0.816
59418W        W31744  21.286  33.677  10.988
59419W        W31745  35.273  15.702  10.775
59420W        W31746  33.375  43.786  13.355
59421W        W31747  20.070  34.067   1.818
59422W        W31748   7.790  31.122  11.940
59423W        W31749  39.229   5.755  13.878
59424W        W31750  41.563  29.196   3.717
59425W        W31751  33.857  20.024   2.353
59426W        W31752  39.243  14.612  13.670
59427W        W31753  44.230  13.418  10.825
59428W        W31754  18.765  41.503   1.340
59429W        W31755  42.529  18.459   2.420
59430W        W31756   5.169   9.177   1.627
59431W        W31757  44.420  30.294   9.883
59432W        W31758  31.094  20.986   2.920
59433W        W31759   9.243  13.645  13.282
59434W        W31760   2.346   2.430   2.827
59435W        W31761   0.285  44.929  14.094
59436W        W31762  40.806   6.836   1.926
59437W        W31763  22.077   0.947   3.699
59438W        W31764  32.126  27.918  12.916
59439W        W31765  44.257  44.861   4.345
59440W        W31766  30.693  28.982   4.037
59441W        W31767  21.295   1.914  14.385
59442W        W31768  15.646  37.539  13.891
59443W        W31769  22.238  14.474   1.996
59444W        W31770   7.020  18.104   2.668
59445W        W31771  25.439   1.191   4.571
59446W        W31772  34.348  27.121   0.241
59447W        W31773  15.339  21.463  12.771
59448W        W31774  24.137  20.269  11.587
59449W        W31775  13.793  34.926   2.796
59450W        W31776  36.244   6.156   0.409
59451W        W31777  23.952  24.003   0.742
59452W        W31778  30.056   5.692   3.216
59453W        W31779   7.689  19.447  10.004
59454W        W31780  24.388  26.665   0.319
59455W        W31781  14.174   6.233   0.411
59456W        W31782  14.968  26.191  13.967
59457W        W31783  26.499  40.895   0.573
59458W        W31784  35.185  34.431  12.768
59459W        W31785  19.142   4.384   3.325
59460W        W31786  14.556  40.850  10.730
59461W        W31787   9.642  44.319  10.261
59462W        W31788  35.649  32.412  10.734
59463W        W31789  17.058  43.372   0.934
59464W        W31790  44.025  33.049  13.683
59465W        W31791   0.077  21.860   3.661
59466W        W31792  18.376  13.779  10.771
59467W        W31793   2.415  16.140   2.248
59468W        W31794  31.117  28.699  12.985
59469W        W31795  25.519  24.246  12.307
59470W        W31796  12.199  23.360   3.263
59471W        W31797  15.989  38.447   4.532
59472W        W31798   7.219   5.693  12.436
59473W        W31799  40.283  39.134   3.223
59474W        W31800  23.250  37.077   0.725
59475W        W31801  41.752  38.269  12.439
59476W        W31802  17.778   4.851  13.815
59477W        W31803  39.381  33.699  12.581
59478W        W31804  15.559  15.683   4.104
59479W        W31805   8.260   0.774  12.902
59480W        W31806  19.739  13.125   1.325
59481W        W31807  16.616  35.877   2.943
59482W        W31808  20.750   6.405  13.054
59483W        W31809  30.152   1.364  12.034
59484W        W31810   8.105  31.986  11.258
59485W        W31811   9.326  39.994  10.896
59486W        W31812   9.606  24.185   0.939
59487W        W31813  44.997  26.937   3.367
59488W        W31814  24.465  19.534   3.055
59489W        W31815  25.636   3.087   4.842
59490W        W31816  44.440  34.351   1.762
59491W        W31817  14.612   0.204  12.021
59492W        W31818   4.670  41.117  13.007
59493W        W31819  15.382  27.579   4.443
59494W        W31820  21.196  12.854   2.819
59495W        W31821  42.364  31.433   0.977
59496W        W31822  32.960  28.115   2.581
59497W        W31823   8.653   2.538  13.087
59498W        W31824  11.613  17.618  12.781
59499W        W31825  44.021   1.913  13.533
59500W        W31826   8.443   4.195   0.863
59501W        W31827  28.379  27.338  12.508
59502W        W31828   6.152  43.911  11.290
59503W        W31829  25.480  34.563  13.909
59504W        W31830  17.555   5.269  13.157
59505W        W31831   2.829   3.642  13.695
59506W        W31832   7.470  43.521   2.193
59507W        W31833   8.806  23.084  12.073
59508W        W31834  39.642  21.243  13.873
59509W        W31835  13.291  28.347   4.611
59510W        W31836  11.849  12.402   1.335
59511W        W31837  22.114  15.784   0.497
59512W        W31838  24.904  26.110  10.655
59513W        W31839   1.729  36.329   3.790
59514W        W31840  17.074  18.588  10.686
59515W        W31841   3.389  34.979  13.554
59516W        W31842  13.126  31.569   2.762
59517W        W31843  23.042  38.250  13.089
59518W        W31844  41.083  23.486  11.933
59519W        W31845  25.889  17.779  11.539
59520W        W31846  28.174  20.578  14.242
59521W        W31847   8.793  41.265  11.598
59522W        W31848  18.435   5.717  14.509
59523W        W31849  39.642  42.829   0.802
59524W        W31850  11.320   5.912  10.562
59525W        W31851   9.396  40.992  14.328
59526W        W31852  18.576  11.870  14.030
59527W        W31853  26.429  14.915  13.482
59528W        W31854  15.794  43.836  12.847
59529W        W31855  18.990  41.415   0.833
59530W        W31856   1.865  43.549   0.252
59531W        W31857  22.546  34.544  13.383
59532W        W31858  21.852  20.755   2.108
59533W        W31859  28.404  26.055  10.436
59534W        W31860  12.092  44.469   4.595
59535W        W31861  41.340  15.565   2.226
59536W        W31862  39.009   0.514  13.962
59537W        W31863   6.306  35.564  10.751
59538W        W31864   8.673  32.430  14.361
59539W        W31865  27.071  22.753   4.079
59540W        W31866  44.703   4.604  12.255
59541W        W31867  27.892  21.673  12.454
59542W        W31868  10.278   6.851  13.267
59543W        W31869  30.993  31.906   1.689
59544W        W31870   2.655   3.404   2.332
59545W        W31871  23.201   8.993   2.616
59546W        W31872  24.720   9.320   1.316
59547W        W31873   2.256   5.881   1.338
59548W        W31874  30.303  37.382  14.808
59549W        W31875  15.603  18.658   5.040
59550W        W31876  22.677   4.064   1.238
59551W        W31877  17.595  19.743   0.209
59552W        W31878  36.723  35.504  14.400
59553W        W31879  38.450  11.927  13.914
59554W        W31880  11.369   4.796   0.346
59555W        W31881  37.895   5.511   4.153
59556W        W31882   3.267   1.686   3.229
59557W        W31883  41.239  34.830  11.442
59558W        W31884  17.888  34.925   3.272
59559W        W31885  41.271  32.673  12.930
59560W        W31886  10.730   4.298  11.957
59561W        W31887  35.536  32.667  11.206
59562W        W31888   3.528  20.633  11.066
59563W        W31889  22.362   3.727   0.310
59564W        W31890  17.772  29.048  11.902
59565W        W31891  19.076  36.103   4.951
59566W        W31892  15.570  17.310  14.810
59567W        W31893  26.320  13.994  13.537
59568W        W31894  38.979  31.803  12.260
59569W        W31895  20.383  39.514  14.933
59570W        W31896  22.480  41.657  11.610
59571W        W31897  18.043  41.551   0.721
59572W        W31898  23.942   5.363   3.637
59573W        W31899   8.358  37.010  14.974
59574W        W31900  31.044   2.744   2.394
59575W        W31901   4.362  25.623   0.869
59576W        W31902   9.608  11.329   0.471
59577W        W31903  27.630  23.083  13.413
59578W        W31904  34.413  34.989  10.373
59579W        W31905   2.323  20.511   4.613
59580W        W31906  18.678  12.512   5.106
59581W        W31907  29.854   0.525   3.612
59582W        W31908  38.634  42.401   0.420
59583W        W31909   1.504  15.309   1.643
59584W        W31910  26.103   5.426   0.397
59585W        W31911  37.079   6.446   0.518
59586W        W31912  38.406  21.552   4.077
59587W        W31913   5.304  25.662  14.825
59588W        W31914  27.503  44.988   1.660
59589W        W31915   2.035   4.580   4.047
59590W        W31916  14.291   2.123  12.021
59591W        W31917  10.755  21.489   4.070
59592W        W31918  20.584   2.020  14.505
59593W        W31919  32.991  22.119   3.549
59594W        W31920   0.058  25.979  12.902
59595W        W31921   2.284   1.347   0.428
59596W        W31922   6.221  41.550   4.731
59597W        W31923  23.403  41.909   2.654
59598W        W31924  19.247  35.105   4.503
59599W        W31925  44.237  16.130   2.904
59600W        W31926  35.636  39.763   4.147
59601W        W31927  31.624  31.658   4.710
59602W        W31928  31.230  42.884  14.529
59603W        W31929  43.969  34.360  13.607
59604W        W31930  29.867  22.175   1.268
59605W        W31931  35.730  26.173  11.635
59606W        W31932  39.790  37.838  12.478
59607W        W31933  24.539  29.856   0.552
59608W        W31934  33.121  10.867  14.771
59609W        W31935   9.067  35.704  11.180
59610W        W31936  30.023  39.434  13.155
59611W        W31937  11.895  27.417   1.457
59612W        W31938  35.487  10.991   1.190
59613W        W31939  17.843  18.307   2.020
59614W        W31940  18.490  17.926  14.468
59615W        W31941  39.457  23.258  11.675
59616W        W31942   6.762  13.309  13.426
59617W        W31943   3.445  23.708  14.433
59618W        W31944  14.208  23.514  12.077
59619W        W31945  26.174  43.191   4.139
59620W        W31946  13.385  40.509  12.570
59621W        W31947  41.674   0.426   4.567
59622W        W31948  21.381  32.961  10.430
59623W        W31949   6.430  29.873   1.901
59624W        W31950  44.824  36.137  11.108
59625W        W31951  25.544  34.122   0.775
59626W        W31952  25.128  24.750  14.808
59627W        W31953  13.701   3.188  11.117
59628W        W31954  27.506  40.946   3.592
59629W        W31955  34.479  40.526   1.883
59630W        W31956  16.516  19.144  12.901
59631W        W31957  26.629  24.042   2.343
59632W        W31958  38.906   9.351  12.833
59633W        W31959   4.801  38.104   4.704
59634W        W31960  24.554  19.951   4.971
59635W        W31961  35.663  20.047   1.894
59636W        W31962  18.056  21.372  11.147
59637W        W31963   6.976   4.520  12.458
59638W        W31964  14.741  22.247  12.041
59639W        W31965  32.948  18.024   4.564
59640W        W31966   7.793  35.591  11.180
59641W        W31967  34.994  30.552  14.707
59642W        W31968  20.075   3.475   2.152
59643W        W31969  36.871  23.297   0.284
59644W        W31970  44.711  32.994  11.956
59645W        W31971   6.895   4.171   1.944
59646W        W31972  35.685  13.820  10.790
59647W        W31973  18.999   4.279   3.802
59648W        W31974  42.804  41.884  13.439
59649W        W31975  37.878  42.403   1.943
59650W        W31976   5.017  13.427  14.774
59651W        W31977  33.041   0.070  10.462
59652W        W31978  26.648  20.970  14.839
59653W        W31979  25.847  15.172   0.776
59654W        W31980   5.745  31.622   1.699
59655W        W31981  22.005  35.132  12.872
59656W        W31982   2.065  17.711   0.697
59657W        W31983  10.581  37.489  13.346
59658W        W31984  33.928   6.591   2.250
59659W        W31985  34.586  40.325  10.711
59660W        W31986  35.320  17.557  14.079
59661W        W31987  38.341  16.391  10.583
59662W        W31988  16.000  43.242   2.812
59663W        W31989  12.807  24.154  12.164
59664W        W31990  18.948  26.883  13.779
59665W        W31991  22.950   7.406  12.985
59666W        W31992  36.072  23.939   1.821
59667W        W31993   7.246  34.582   4.640
59668W        W31994   7.609  32.657   2.282
59669W        W31995  37.852   4.143  13.989
59670W        W31996  21.410  10.740   3.249
59671W        W31997  33.049  34.457  14.335
59672W        W31998  18.223  42.008   1.607
59673W        W31999  16.362  38.913   2.247
59674W        W32000  15.188  15.302  10.968
59675W        W32001  15.067   7.840  13.910
59676W        W32002   1.662   9.252   3.659
59677W        W32003  35.743  42.411  10.613
59678W        W32004  44.336  30.727  14.165
59679W        W32005  28.295  13.102  10.768
59680W        W32006  43.966  21.184  10.059
59681W        W32007  40.002  44.321   4.486
59682W        W32008   3.623  39.411  13.444
59683W        W32009  33.901   5.180  14.368
59684W        W32010   5.998  17.218   1.384
59685W        W32011   9.304  17.790  12.453
59686W        W32012  11.182  39.021   3.718
59687W        W32013  39.083  19.785   0.995
59688W        W32014  24.916  27.024   1.564
59689W        W32015   0.381  40.773  14.978
59690W        W32016  15.033  15.714   2.895
59691W        W32017  35.869  10.274   4.667
59692W        W32018  29.083  33.123  12.948
59693W        W32019  25.673   3.495  12.981
59694W        W32020   8.792  43.887  13.451
59695W        W32021   9.437  12.810   4.397
59696W        W32022  20.848  37.587   0.244
59697W        W32023  15.741  39.790   3.559
59698W        W32024  44.044  41.133   4.522
59699W        W32025  12.348  13.514   0.677
59700W        W32026  42.271  39.947  12.041
59701W        W32027  21.498  22.671   1.841
59702W        W32028  44.027  10.067   4.838
59703W        W32029  12.329  10.290   3.194
59704W        W32030   2.678  24.740   0.987
59705W        W32031  34.845  20.646   1.309
59706W        W32032  20.562  37.404  13.960
59707W        W32033  44.982  22.703  11.496
59708W        W32034  17.118  12.591  13.327
59709W        W32035  23.494  22.408   1.405
59710W        W32036  24.489  17.228   3.163
59711W        W32037  10.463  42.705   1.286
59712W        W32038  35.930   6.271  13.845
59713W        W32039  30.789  11.614  12.885
59714W        W32040  25.060  24.199   1.300
59715W        W32041  43.725  16.835  13.871
59716W        W32042  26.686   6.731  12.615
59717W        W32043  26.670  34.535   1.457
59718W        W32044  43.472  30.906  11.852
59719W        W32045  17.638  21.235  12.381
59720W        W32046  36.844  42.506  14.957
59721W        W32047   9.133  18.873   0.452
59722W        W32048  23.821  21.061  12.331
59723W        W32049  14.397  23.662  11.553
59724W        W32050  19.034  17.220  14.275
59725W        W32051  14.953  12.181  11.669
59726W        W32052  44.739  27.951   2.393
59727W        W32053  20.735  17.220   0.746
59728W        W32054  38.021  30.135   1.875
59729W        W32055  10.649   5.183  11.940
59730W        W32056  14.363   9.248   4.116
59731W        W32057   4.203   6.286  10.765
59732W        W32058  20.714   8.873  14.865
59733W        W32059  39.346   4.552   1.694
59734W        W32060  20.196  13.641  12.296
59735W        W32061   7.286  37.512  14.797
59736W        W32062   1.114  35.327   4.158
59737W        W32063  27.707  32.588   2.280
59738W        W32064  24.530  23.198   4.488
59739W        W32065  13.353  39.627  13.407
59740W        W32066  37.506  19.547   0.737
59741W        W32067   9.432  44.609   5.383
59742W        W32068   8.338   0.071   1.495
59743W        W32069  23.527   0.289   2.592
59744W        W32070   2.568  12.882  11.175
59745W        W32071  28.559  25.556   2.204
59746W        W32072  33.255  10.679  13.787
59747W        W32073  18.776  22.772  11.985
59748W        W32074  29.205  37.580   3.357
59749W        W32075  35.970  29.122   1.731
59750W        W32076  26.123  21.258  11.647
59751W        W32077   3.021  26.193   1.178
59752W        W32078   8.422   2.076   4.582
59753W        W32079  39.090  23.079  10.721
59754W        W32080  33.295  14.155  10.428
59755W        W32081  39.353  24.410  14.760
59756W        W32082  22.954  11.796  13.986
59757W        W32083   5.118  24.709   3.808
59758W        W32084  24.545  17.658  10.577
59759W        W32085  41.061  11.209   3.589
59760W        W32086  31.222   8.492   4.031
59761W        W32087   8.187  27.189   3.450
59762W        W32088  18.121  11.524   3.018
59763W        W32089   8.294  41.749  14.332
59764W        W32090  21.992  18.596  14.889
59765W        W32091  26.269  23.534   2.783
59766W        W32092  27.635   5.706  11.555
59767W        W32093  26.595   9.263   4.749
59768W        W32094  11.304  16.286  13.564
59769W        W32095   3.718   8.162   1.786
59770W        W32096  36.919  30.531   2.235
59771W        W32097  39.823   4.422   2.751
59772W        W32098  31.393  15.847  10.771
59773W        W32099  43.043   9.942   1.543
59774W        W32100   8.629  20.203  11.201
59775W        W32101  20.430   0.971  11.475
59776W        W32102  23.800  10.193   1.866
59777W        W32103  34.831  41.436   2.398
59778W        W32104  10.132  42.888   1.639
59779W        W32105   5.726   1.630  11.006
59780W        W32106  13.260   7.947   1.380
59781W        W32107   8.252  33.486  14.882
59782W        W32108  42.992   3.389   2.659
59783W        W32109   3.763  38.478  13.559
59784W        W32110   4.989  28.768  11.489
59785W        W32111  26.665  40.029   3.851
59786W        W32112   3.594  18.700   1.301
59787W        W32113  22.674  16.453   2.266
59788W        W32114   5.358  14.556  12.003
59789W        W32115   2.038   2.064   0.292
59790W        W32116  19.230  41.661  13.008
59791W        W32117   0.792   8.698  12.128
59792W        W32118  17.844  11.639   2.302
59793W        W32119  39.838  32.144   3.706
59794W        W32120   1.739  11.139   3.110
59795W        W32121   6.006   6.864  11.116
59796W        W32122  30.079  24.693   4.594
59797W        W32123   8.944  19.006  12.100
59798W        W32124  37.428  31.894   1.954
59799W        W32125  19.107  14.283   5.234
59800W        W32126  44.463  38.960   1.629
59801W        W32127  12.810  36.567   1.332
59802W        W32128  11.866  36.116  11.940
59803W        W32129  18.165   5.400   2.790
59804W        W32130  38.239  22.553   0.260
59805W        W32131  39.244  16.875  10.442
59806W        W32132  39.937  33.385  11.348
59807W        W32133  20.111  18.066   0.587
59808W        W32134   2.749  11.762   1.157
59809W        W32135   1.416  24.486  12.844
59810W        W32136  38.113   7.357  14.447
59811W        W32137  23.275  24.897  13.467
59812W        W32138  21.559  10.754  13.287
59813W        W32139  26.422  19.562   3.937
59814W        W32140  11.250  32.968  13.884
59815W        W32141  24.123  42.747   0.140
59816W        W32142  30.582   1.878  12.433
59817W        W32143   9.272  38.610  12.060
59818W        W32144  16.720  37.621   2.818
59819W        W32145   5.452  29.631   2.241
59820W        W32146  27.629  16.305  13.139
59821W        W32147  23.011  36.813   0.349
59822W        W32148  35.810  25.043  14.436
59823W        W32149  20.700  34.489  12.061
59824W        W32150  24.078  19.501  13.876
59825W        W32151  22.148  11.788   3.619
59826W        W32152  20.631  39.956   3.611
59827W        W32153  24.076  21.008   3.270
59828W        W32154  38.304   6.015  12.932
59829W        W32155  39.272  23.226   4.755
59830W        W32156  24.757  39.500   4.907
59831W        W32157  15.228  21.764   1.688
59832W        W32158  27.835  26.196   0.432
59833W        W32159  26.138  32.418  12.379
59834W        W32160  30.341  28.001  11.649
59835W        W32161  20.989   8.220   3.584
59836W        W32162  26.028  22.189   0.434
59837W        W32163  39.511  39.083  10.706
59838W        W32164  36.575  16.958   4.610
59839W        W32165  24.920  13.610  13.368
59840W        W32166  43.213  29.030   0.894
59841W        W32167  31.893  41.828   0.462
59842W        W32168  16.825  22.142  11.583
59843W        W32169  25.045  12.826   1.425
59844W        W32170  38.543  22.679  12.042
59845W        W32171  30.591  31.445  13.319
59846W        W32172  31.960  35.985  11.142
59847W        W32173  34.222   7.747  10.856
59848W        W32174  20.922  12.149  14.941
59849W        W32175  24.599  14.271   1.683
59850W        W32176  26.063   6.700   3.698
59851W        W32177  39.149  20.590   3.876
59852W        W32178  18.096  28.552   3.146
59853W        W32179   2.954  41.590   0.738
59854W        W32180  26.234  27.380   5.490
59855W        W32181   7.953  23.526  10.724
59856W        W32182  30.663  33.517   1.780
59857W        W32183  10.937  12.133   0.878
59858W        W32184  34.073  10.092   1.922
59859W        W32185  42.311   9.480  12.427
59860W        W32186  41.319  17.759  12.541
59861W        W32187  39.942  25.434   3.220
59862W        W32188   2.930  14.535  14.823
59863W        W32189   7.812  25.753   0.745
59864W        W32190  10.319  28.720  12.857
59865W        W32191  42.505  17.251  13.984
59866W        W32192   7.241  42.961   3.906
59867W        W32193   4.149  19.652  13.929
59868W        W32194  30.054   0.480   4.838
59869W        W32195  17.788   4.799  14.351
59870W        W32196  18.728  23.798   1.447
59871W        W32197  11.731  11.166  12.934
59872W        W32198  15.648  40.128  14.492
59873W        W32199  20.786  15.379   3.387
59874W        W32200   1.494  36.140   3.323
59875W        W32201  28.604  23.479  12.955
59876W        W32202  33.844  23.407   3.108
59877W        W32203   2.988  18.845  11.758
59878W        W32204  22.756  19.800   0.751
59879W        W32205  40.916   1.204   3.717
59880W        W32206  20.965   6.433   4.550
59881W        W32207   8.366  24.144   1.452
59882W        W32208  24.292  41.549  12.462
59883W        W32209  19.232  37.638  11.819
59884W        W32210  15.710   4.901  10.746
59885W        W32211   6.338  35.343  13.490
59886W        W32212  15.773  32.369   1.705
59887W        W32213  27.633  41.298   1.988
59888W        W32214  21.696  30.727  14.087
59889W        W32215   0.985  43.117   3.248
59890W        W32216  14.986   7.060   0.914
59891W        W32217  38.256  12.723  14.531
59892W        W32218  31.894   1.380   4.911
59893W        W32219  12.167  24.054  14.991
59894W        W32220  16.283   6.470   3.690
59895W        W32221  27.224  27.914   0.884
59896W        W32222  36.171  40.871  12.024
59897W        W32223   6.310  21.294   4.719
59898W        W32224  23.592  21.734  12.895
59899W        W32225  34.590  34.119  12.804
59900W        W32226  44.824   3.335   2.923
59901W        W32227  11.827  30.574   2.128
59902W        W32228   3.669  19.952  14.888
59903W        W32229  10.990  28.640  12.493
59904W        W32230  23.318  14.792  11.061
59905W        W32231  39.298  27.167  13.674
59906W        W32232  24.567  35.066  10.674
59907W        W32233  44.214  10.713  12.951
59908W        W32234  38.534  11.808   1.014
59909W        W32235   6.306  28.633  11.103
59910W        W32236  18.521  23.783   0.162
59911W        W32237  35.282  28.010   4.272
59912W        W32238  28.516   0.623  13.955
59913W        W32239  20.057  18.812  12.868
59914W        W32240  18.849   0.637  14.903
59915W        W32241   3.802   0.293   3.656
59916W        W32242   1.242  26.469  12.820
59917W        W32243  33.601   9.917  10.289
59918W        W32244  13.801  33.501  12.841
59919W        W32245  31.872  31.178   2.798
59920W        W32246  13.198  34.002  10.731
59921W        W32247   9.737  40.052  11.978
59922W        W32248   7.667  39.236  10.697
59923W        W32249   9.704  12.728   0.522
59924W        W32250  19.061  21.598   0.346
59925W        W32251   7.787  11.094  14.878
59926W        W32252   5.475  24.678  10.925
59927W        W32253  44.560   3.382  12.848
59928W        W32254  42.282  33.620  13.279
59929W        W32255  39.891  30.458  13.600
59930W        W32256  31.412  20.117   2.843
59931W        W32257  35.528  22.452   4.382
59932W        W32258  27.643  31.640   3.213
59933W        W32259  36.752  31.416  10.760
59934W        W32260  37.376  43.830   4.877
59935W        W32261  21.132  19.073  12.163
59936W        W32262  30.086  39.411   1.232
59937W        W32263   1.594   5.383  11.002
59938W        W32264  25.157  20.270  13.606
59939W        W32265   7.658  35.482  13.805
59940W        W32266  31.425  26.874  12.793
59941W        W32267  29.862  24.291  13.275
59942W        W32268  32.760   5.273  13.540
59943W        W32269  29.607  15.695   5.073
59944W        W32270  10.429   8.502  11.501
59945W        W32271  37.051  14.105  14.436
59946W        W32272  44.028  16.683  14.279
59947W        W32273  15.306  19.115   4.970
59948W        W32274  13.565  33.677  13.768
59949W        W32275   0.969  36.284  11.674
59950W        W32276   1.357   3.038   4.199
59951W        W32277   7.307   4.387   2.182
59952W        W32278  44.283  20.238   2.836
59953W        W32279   9.903   2.306  13.455
59954W        W32280  41.191  20.445  10.639
59955W        W32281   2.902  29.723  13.282
59956W        W32282  12.778   5.083   0.117
59957W        W32283  33.356  27.052   1.228
59958W        W32284  14.599   1.364   4.669
59959W        W32285  22.454  36.394  11.223
59960W        W32286  23.336  37.093  11.249
59961W        W32287   0.334  40.477  12.000
59962W        W32288  33.170  39.485  14.376
59963W        W32289  41.940  20.985  10.678
59964W        W32290  25.678   3.457  14.664
59965W        W32291   2.031  19.473  14.416
59966W        W32292   8.287  35.516  13.525
59967W        W32293  35.610   5.339  12.371
59968W        W32294  28.452  36.399  11.151
59969W        W32295  26.758  22.482   1.162
59970W        W32296  44.664  14.430   0.214
59971W        W32297  34.808  22.679   0.855
59972W        W32298  14.132  43.212   1.186
59973W        W32299  41.538   6.921  14.788
59974W        W32300   2.757   3.970  10.682
59975W        W32301  16.054  12.745  11.311
59976W        W32302  34.096  40.030  11.567
59977W        W32303  31.511   7.096  13.030
59978W        W32304  41.794  33.426   3.610
59979W        W32305  26.597  32.395  14.373
59980W        W32306  22.377  39.402   0.395
59981W        W32307  24.526  28.869  13.876
59982W        W32308  26.102   6.255   3.986
59983W        W32309  16.904  24.135   3.387
59984W        W32310   3.579  41.874  11.083
59985W        W32311  43.011  27.996   3.836
59986W        W32312  35.907  35.777   9.639
59987W        W32313  27.809  31.518   1.200
59988W        W32314  10.048  37.038   0.828
59989W        W32315  30.848  26.171   3.391
59990W        W32316  40.484  44.022   2.250
59991W        W32317  38.496  43.343   2.562
59992W        W32318  24.065  10.469  13.435
59993W        W32319  37.477  12.739   1.337
59994W        W32320  36.971  32.057   0.480
59995W        W32321   1.442  15.839   2.597
59996W        W32322  12.280   1.565   3.616
59997W        W32323  43.682   8.706   0.704
59998W        W32324  17.807  39.434   4.737
59999W        W32325  44.856  18.290   4.096
60000W        W32326  43.720  22.299   0.948
60001W        W32327   5.728  18.989  12.189
60002W        W32328  41.760  12.745  13.052
60003W        W32329  23.026   9.592  13.534
60004W        W32330  20.731  14.660   2.107
60005W        W32331  31.247  37.185  14.930
60006W        W32332  15.658  10.309   4.602
60007W        W32333  10.805  41.576   1.834
60008W        W32334   1.945  37.334  10.632
60009W        W32335  32.556  31.714  10.730
60010W        W32336  36.788   9.710  13.984
60011W        W32337  38.365   3.953  12.170
60012W        W32338  30.749   8.174  14.914
60013W        W32339  38.238   5.422  11.963
60014W        W32340   4.168  37.953  10.798
60015W        W32341  12.417  40.524   3.946
60016W        W32342  32.032  43.375  13.932
60017W        W32343  15.805  19.167  12.473
60018W        W32344  10.654  10.860   2.735
60019W        W32345  13.250  38.916  13.469
60020W        W32346  19.440  38.384   2.934
60021W        W32347  30.346  41.277   1.187
60022W        W32348   0.924  33.514  10.607
60023W        W32349   6.590  33.026   3.615
60024W        W32350  21.672   1.294   3.713
60025W        W32351   5.949  34.520  11.174
60026W        W32352  35.156   1.675  14.472
60027W        W32353   4.344  14.522  11.523
60028W        W32354  36.081  37.599  13.808
60029W        W32355  20.144   6.688  11.098
60030W        W32356  42.215   4.977  10.831
60031W        W32357   3.912  15.254  11.048
60032W        W32358  18.777  41.012  13.532
60033W        W32359  44.954  31.014   4.607
60034W        W32360   9.979  20.948  12.112
60035W        W32361  20.551  30.627  12.580
60036W        W32362   3.863  23.196   3.629
60037W        W32363  44.335  26.434  14.881
60038W        W32364  39.354  38.326  13.106
60039W        W32365  13.784  32.161  13.800
60040W        W32366  30.500  12.292  14.828
60041W        W32367  23.370  44.040   1.319
60042W        W32368   7.988  33.044  11.824
60043W        W32369  33.534  40.703  13.362
60044W        W32370  39.923  20.103  14.231
60045W        W32371  27.862   4.811  11.221
60046W        W32372   6.494  26.489   1.899
60047W        W32373  32.934  11.353  14.769
60048W        W32374  11.100   3.420   4.086
60049W        W32375  39.592  22.535   2.129
60050W        W32376   5.003  39.285   3.635
60051W        W32377  37.066  40.035   3.292
60052W        W32378  35.606  13.774   3.309
60053W        W32379  32.261   6.782   0.920
60054W        W32380  27.466   7.941  10.728
60055W        W32381   5.877  33.008  14.298
60056W        W32382  19.667  14.795   0.572
60057W        W32383  42.399  33.839   4.722
60058W        W32384  19.614  43.492   4.673
60059W        W32385   9.884  27.666   1.363
60060W        W32386   7.621  38.385   3.868
60061W        W32387  19.054  31.853  12.051
60062W        W32388  21.741  18.322  13.892
60063W        W32389  37.995   7.126  12.437
60064W        W32390  28.375   9.247  14.788
60065W        W32391  44.431   4.620  14.647
60066W        W32392   1.845   1.980   5.331
60067W        W32393   9.835  15.299  10.819
60068W        W32394  30.407  42.280  12.954
60069W        W32395   3.344  19.639   2.374
60070W        W32396  37.783  15.810   1.892
60071W        W32397  23.832  33.098  13.460
60072W        W32398  44.328  36.960  11.007
60073W        W32399  43.928  10.584  11.259
60074W        W32400  41.094  27.791  14.052
60075W        W32401   2.806   1.426  13.775
60076W        W32402  40.866  43.256  14.047
60077W        W32403   0.314  20.506   2.815
60078W        W32404  31.832  16.110   2.802
60079W        W32405  12.335  26.522   1.784
60080W        W32406  32.500  11.273  14.460
60081W        W32407  38.049  41.217  11.239
60082W        W32408  16.710   4.058   4.584
60083W        W32409  19.203  38.529   1.746
60084W        W32410  37.528  20.590  14.331
60085W        W32411  21.228  30.219  14.749
60086W        W32412  19.093  31.211  10.670
60087W        W32413  13.263  39.054  14.961
60088W        W32414  15.259   6.018  12.422
60089W        W32415  13.691   6.725   3.781
60090W        W32416  41.271  29.899  14.797
60091W        W32417  17.602  32.107  12.422
60092W        W32418   6.800  37.976   3.655
60093W        W32419   1.399   1.942  14.049
60094W        W32420   9.566  44.287   0.834
60095W        W32421   3.402  42.531   3.352
60096W        W32422  38.108   8.840   4.564
60097W        W32423  36.156  43.282  12.795
60098W        W32424  39.985   0.335   2.572
60099W        W32425  16.605  12.671  13.123
60100W        W32426  36.408  37.903   1.901
60101W        W32427  28.679   9.253  13.401
60102W        W32428   6.775  21.241  10.674
60103W        W32429  27.606  37.941  14.353
60104W        W32430  42.829  19.982  13.822
60105W        W32431  35.542  28.562  13.645
60106W        W32432   4.671  28.205  12.576
60107W        W32433  27.436  21.214   3.576
60108W        W32434  11.403  18.377  12.514
60109W        W32435   1.404   8.749   4.934
60110W        W32436  35.198  41.089   0.777
60111W        W32437  10.848  13.283   2.867
60112W        W32438  32.438  18.857  14.897
60113W        W32439  23.285  42.757  13.327
60114W        W32440  29.665  33.101   1.383
60115W        W32441  41.767  39.947   2.330
60116W        W32442   1.558  35.852  13.074
60117W        W32443   0.871  12.181   0.928
60118W        W32444  13.114  42.434  11.199
60119W        W32445  31.369  27.173   1.347
60120W        W32446   2.877  20.825  10.172
60121W        W32447   4.410   1.689   4.569
60122W        W32448   5.109  30.911   4.134
60123W        W32449  21.188   7.519   0.185
60124W        W32450  19.954   8.323   1.080
60125W        W32451  34.180  35.412   4.572
60126W        W32452  17.120  38.552   1.934
60127W        W32453  42.881  19.922   3.659
60128W        W32454  14.572  27.131  11.995
60129W        W32455  12.826  37.671  10.944
60130W        W32456   4.782  40.284   0.364
60131W        W32457  10.680  38.807  13.295
60132W        W32458  20.859  38.318  11.117
60133W        W32459  44.481  20.931  12.437
60134W        W32460   2.119  44.805   5.088
60135W        W32461  40.012  14.161  12.565
60136W        W32462   6.799  13.270  10.742
60137W        W32463  13.428   9.162  14.937
60138W        W32464  11.131  17.631  14.500
60139W        W32465   3.941  27.500  10.750
60140W        W32466   1.448  33.060   3.677
60141W        W32467  29.585  29.128   0.214
60142W        W32468  13.647  29.144   0.005
60143W        W32469  16.385   8.666   1.407
60144W        W32470  43.414  44.197  12.148
60145W        W32471   3.407  11.789  11.545
60146W        W32472  11.193  30.383   4.162
60147W        W32473  34.554  26.849  11.114
60148W        W32474  30.916  26.504  13.889
60149W        W32475  24.732  17.443   5.308
60150W        W32476  31.000  30.812   4.317
60151W        W32477  30.744  15.624   4.581
60152W        W32478  22.395   1.412  14.115
60153W        W32479   4.922  40.432  12.449
60154W        W32480   1.262  40.244   4.086
60155W        W32481  20.186  42.790   4.928
60156W        W32482  18.979   5.359   4.393
60157W        W32483  43.928  10.318   1.387
60158W        W32484  20.254  11.886   2.793
60159W        W32485  24.103  34.847  13.352
60160W        W32486   8.641   5.666  13.506
60161W        W32487  18.292   6.655  10.828
60162W        W32488  14.664  34.476   5.149
60163W        W32489   1.823  37.851  10.685
60164W        W32490  32.154  33.394   3.190
60165W        W32491  11.889  37.760  13.970
60166W        W32492   1.423   4.042   9.821
60167W        W32493  37.265  16.743  11.481
60168W        W32494  37.867   0.177   1.834
60169W        W32495  17.677  29.162  10.891
60170W        W32496   9.152  21.512  14.409
60171W        W32497  41.595   4.838  14.357
60172W        W32498   2.170  41.528   2.159
60173W        W32499   5.409  35.436  13.429
60174W        W32500   7.753  23.736  13.559
60175W        W32501  27.469  16.800  14.800
60176W        W32502  24.893  41.819  12.035
60177W        W32503   3.370  32.951  10.297
60178W        W32504  23.170  25.950   2.820
60179W        W32505  26.739  16.304   4.265
60180W        W32506  30.494  30.088   2.730
60181W        W32507  10.657  14.694   2.988
60182W        W32508  15.111  28.903   4.577
60183W        W32509   6.743  32.255  13.253
60184W        W32510  43.857  20.304   3.137
60185W        W32511  22.539   7.605   5.066
60186W        W32512  17.064  33.370  12.952
60187W        W32513  40.839  37.068   2.168
60188W        W32514  30.515  25.759  14.935
60189W        W32515  41.480  13.270  10.751
60190W        W32516  38.977  24.786  12.456
60191W        W32517  11.374  27.451   1.424
60192W        W32518  32.668  15.995   2.186
60193W        W32519  13.128   6.121   4.118
60194W        W32520  22.924  23.146  14.957
60195W        W32521  29.507  43.516  13.093
60196W        W32522  19.556  32.726  14.476
60197W        W32523  18.706  14.998  14.259
60198W        W32524  24.138   7.087   1.230
60199W        W32525  21.212  16.846   2.427
60200W        W32526  40.497  41.851   3.643
60201W        W32527  11.668  26.203   1.926
60202W        W32528  30.530  27.177   0.385
60203W        W32529  41.445  21.494  10.690
60204W        W32530   3.731  36.829   4.055
60205W        W32531  12.159  43.600  13.157
60206W        W32532  35.065   2.400   2.188
60207W        W32533  15.372  32.179   3.279
60208W        W32534  42.558  31.403  12.550
60209W        W32535  11.797  24.418  12.166
60210W        W32536   6.765  35.067  11.037
60211W        W32537  41.428  41.381  11.432
60212W        W32538  19.627  37.095   1.265
60213W        W32539  31.501  43.571   1.419
60214W        W32540  28.983  39.283  10.793
60215W        W32541   1.385  33.328  12.268
60216W        W32542  27.737  31.464   3.721
60217W        W32543  18.352  37.953  12.130
60218W        W32544   6.058  42.976   0.579
60219W        W32545  35.023  37.041   0.544
60220W        W32546   1.340   3.246   4.924
60221W        W32547   4.429  22.844   5.252
60222W        W32548  33.242   5.350  13.337
60223W        W32549  30.442  19.842   1.162
60224W        W32550  10.685  10.816   0.999
60225W        W32551  44.022   7.840  13.414
60226W        W32552  44.854  24.462   1.453
60227W        W32553  39.659  17.679  13.572
60228W        W32554  27.802  19.880   0.430
60229W        W32555  43.527  13.278   0.903
60230W        W32556  37.323  36.590   4.199
60231W        W32557  31.693  21.248  13.903
60232W        W32558  33.019  20.306   2.321
60233W        W32559  31.922  37.818  10.544
60234W        W32560  18.008  21.080   1.277
60235W        W32561  28.065   6.966  12.111
60236W        W32562  30.387  44.176  14.320
60237W        W32563   4.783  24.575   4.686
60238W        W32564  19.672  36.339   0.844
60239W        W32565  41.283  16.222  12.390
60240W        W32566  44.969  24.145   4.126
60241W        W32567   1.231  11.463   4.642
60242W        W32568  17.071  27.084   1.778
60243W        W32569   9.570   3.270  11.531
60244W        W32570   5.356  31.958   1.596
60245W        W32571   2.176   1.871   0.888
60246W        W32572   0.812  44.809   0.875
60247W        W32573  37.023  37.875   4.931
60248W        W32574   9.352  20.305  13.755
60249W        W32575  25.613  17.527  11.903
60250W        W32576  29.975  37.266  13.278
60251W        W32577  43.193  15.187   2.316
60252W        W32578  35.067  17.708   2.798
60253W        W32579   7.436  13.793   0.217
60254W        W32580  28.982  14.253  11.151
60255W        W32581  11.305   9.434   0.794
60256W        W32582  24.687  11.674   1.007
60257W        W32583   2.315  21.310  14.296
60258W        W32584   5.204  41.385  14.992
60259W        W32585  25.467   3.638  13.471
60260W        W32586  33.151  19.845  12.926
60261W        W32587  43.251  23.432  10.570
60262W        W32588  26.500  38.065  13.785
60263W        W32589   1.836  12.040  12.499
60264W        W32590   4.699  17.614  11.070
60265W        W32591  35.848   9.740  13.449
60266W        W32592  38.617  13.712   0.321
60267W        W32593  39.077  25.932   1.663
60268W        W32594  31.061   8.415   0.748
60269W        W32595  14.254   8.089  13.811
60270W        W32596  12.212   7.410  10.697
60271W        W32597   3.444  34.950  13.030
60272W        W32598  15.925   9.334   1.812
60273W        W32599  18.640  30.114  13.064
60274W        W32600   1.739  14.747   3.677
60275W        W32601  20.542  42.529  10.760
60276W        W32602  30.594  18.773   0.839
60277W        W32603  26.552  28.980  12.556
60278W        W32604  40.566  29.000  13.048
60279W        W32605  21.628  44.785   3.926
60280W        W32606  16.358  26.050  14.765
60281W        W32607  39.918  29.504  13.592
60282W        W32608   0.929   0.922  11.465
60283W        W32609  21.800  35.522   2.167
60284W        W32610  21.331  14.430  11.997
60285W        W32611  40.324  41.456   4.587
60286W        W32612   6.352  25.242   2.979
60287W        W32613   7.857   4.677  11.495
60288W        W32614  20.184  16.252  12.455
60289W        W32615  42.311  29.068  14.990
60290W        W32616  35.340  33.379  13.491
60291W        W32617  36.880  25.757   4.126
60292W        W32618  42.521  11.186   2.603
60293W        W32619  15.023  32.164  10.567
60294W        W32620  31.614   6.638   3.200
60295W        W32621   9.651  40.925   1.761
60296W        W32622  44.356  13.610   1.879
60297W        W32623   0.150   7.438   0.187
60298W        W32624  25.690  44.493  14.520
60299W        W32625   1.040   2.020  11.409
60300W        W32626   5.212   9.102  11.148
60301W        W32627  19.555  24.753  12.988
60302W        W32628  15.048  39.631  11.458
60303W        W32629  11.895  42.305  13.332
60304W        W32630  26.224  21.933   3.050
60305W        W32631  12.236   8.685  13.368
60306W        W32632  25.254  34.441  10.763
60307W        W32633  24.991  40.411  12.986
60308W        W32634  39.360   3.258   0.768
60309W        W32635  42.339  15.651  12.121
60310W        W32636  14.048  39.958   4.554
60311W        W32637  15.806  43.121   3.274
60312W        W32638  41.529  27.488  11.057
60313W        W32639  20.666  35.073   0.256
60314W        W32640   0.845   1.319   2.499
60315W        W32641  15.788  29.775  12.376
60316W        W32642  28.806  13.380  11.226
60317W        W32643  17.763  32.815  12.067
60318W        W32644   8.934  16.848  12.442
60319W        W32645   2.777   9.167   4.856
60320W        W32646  30.398  32.943  11.102
60321W        W32647  38.852  28.511   2.783
60322W        W32648  40.776   2.510  12.533
60323W        W32649  39.365  29.078  11.651
60324W        W32650  32.711  17.162   1.067
60325W        W32651  42.425  34.397  10.507
60326W        W32652  29.790   0.013   4.834
60327W        W32653  13.353  25.510   1.603
60328W        W32654  34.025   4.381   9.972
60329W        W32655   3.469  41.874  13.950
60330W        W32656   2.061  35.243   2.350
60331W        W32657  40.382  30.979   4.784
60332W        W32658  39.336   7.568  11.384
60333W        W32659   1.021   9.621   0.330
60334W        W32660  27.028  22.148   3.265
60335W        W32661  29.880  12.682  12.837
60336W        W32662   2.261  12.927  12.599
60337W        W32663   7.296  19.057  13.767
60338W        W32664  21.677   6.472   0.908
60339W        W32665   1.421   6.712   4.043
60340W        W32666  38.834  40.028  13.487
60341W        W32667   0.094  30.403  12.551
60342W        W32668  42.123  20.636  11.998
60343W        W32669  27.568  15.089   2.800
60344W        W32670  20.328  25.435   4.705
60345W        W32671  39.239  37.090  14.938
60346W        W32672  19.272  13.204   0.023
60347W        W32673  23.248  34.991  13.919
60348W        W32674  13.603  39.456   3.871
60349W        W32675  38.643  38.331  11.437
60350W        W32676  29.403  18.594  13.006
60351W        W32677  13.167   9.244  13.623
60352W        W32678  15.679  20.760  14.496
60353W        W32679  39.781  24.559   3.217
60354W        W32680  15.692  28.989   2.616
60355W        W32681  33.456  36.507  11.412
60356W        W32682  19.611  12.150  13.877
60357W        W32683  43.393   9.410   2.336
60358W        W32684  29.915   4.389  13.578
60359W        W32685  35.435  18.531   2.945
60360W        W32686  25.583  22.542   0.709
60361W        W32687   8.270  11.532   2.285
60362W        W32688  20.629   3.203   3.385
60363W        W32689  10.876  35.916  13.773
60364W        W32690  42.687   1.682  12.533
60365W        W32691   7.411  33.337   3.304
60366W        W32692  24.485   3.230  14.334
60367W        W32693  12.833  35.848   3.867
60368W        W32694  36.140  15.001  13.503
60369W        W32695  12.131  34.340   3.518
60370W        W32696  37.301  28.029   2.334
60371W        W32697  24.689  28.445  11.458
60372W        W32698  21.600  30.169   1.976
60373W        W32699  35.048   6.308  14.964
60374W        W32700  18.472  20.956   5.046
60375W        W32701  26.552  30.928  12.486
60376W        W32702  21.587  11.326  11.575
60377W        W32703   8.892  35.284   1.242
60378W        W32704   0.659  11.084   3.884
60379W        W32705  33.614  42.295  14.371
60380W        W32706  15.263  20.948   1.451
60381W        W32707  17.226  37.900   4.966
60382W        W32708  16.262  34.313   4.200
60383W        W32709   5.389  16.625  13.363
60384W        W32710   7.227  38.762  11.439
60385W        W32711   8.731  27.681   4.250
60386W        W32712  36.810  34.773  14.896
60387W        W32713  22.406  16.557   1.771
60388W        W32714  30.470   8.176   2.285
60389W        W32715  42.387  10.109  14.308
60390W        W32716  39.553  15.388  13.440
60391W        W32717  33.954  44.716   0.843
60392W        W32718  34.781  29.634   0.739
60393W        W32719  11.387  40.862   1.676
60394W        W32720  25.982   6.220   1.681
60395W        W32721  15.088  15.795  10.444
60396W        W32722  30.084  39.929  11.124
60397W        W32723  12.553  12.696  14.818
60398W        W32724  28.477  42.244  13.970
60399W        W32725  29.478  25.880   1.769
60400W        W32726  12.661  37.530   3.191
60401W        W32727  23.013  37.828  10.520
60402W        W32728  22.612  10.911  12.434
60403W        W32729  27.894  29.455  14.736
60404W        W32730  28.478  28.676  12.767
60405W        W32731  25.916   8.933   4.225
60406W        W32732  22.169  17.558  10.572
60407W        W32733  18.819  35.567  11.599
60408W        W32734   4.997   3.876  14.282
60409W        W32735  18.613  18.128   3.397
60410W        W32736  14.245  37.074   0.439
60411W        W32737  21.249   3.836   2.693
60412W        W32738  13.216  36.654   0.668
60413W        W32739  33.176   3.811  11.166
60414W        W32740  15.646   9.827  13.071
60415W        W32741   8.157  24.530   0.744
60416W        W32742  17.324  37.562  10.628
60417W        W32743  10.725  14.144   2.770
60418W        W32744  30.256  37.268   4.541
60419W        W32745  38.836  29.212  12.553
60420W        W32746  33.705  34.114   4.582
60421W        W32747  36.428   9.458  12.797
60422W        W32748  10.092  44.841   4.839
60423W        W32749  41.864  26.478  14.456
60424W        W32750   6.779  14.782  11.519
60425W        W32751  14.147   5.020   3.239
60426W        W32752  37.119  42.865   1.817
60427W        W32753   9.885   5.845  12.052
60428W        W32754   6.685  18.460   0.284
60429W        W32755   2.923  11.192  13.017
60430W        W32756  43.746  13.124  14.302
60431W        W32757  29.174  26.199   5.002
60432W        W32758   5.517  42.397  13.351
60433W        W32759  31.894   3.410  13.138
60434W        W32760  28.408  28.981   2.410
60435W        W32761  40.800  14.292   3.042
60436W        W32762  28.112   3.887  10.687
60437W        W32763  21.465  39.618   4.236
60438W        W32764   2.815   2.469   1.216
60439W        W32765  39.756  35.632   0.567
60440W        W32766  11.190  13.882  10.719
60441W        W32767  29.408  36.791  13.879
60442W        W32768  39.843  36.839   4.042
60443W        W32769  24.910  37.453   3.910
60444W        W32770   0.420   2.776  10.075
60445W        W32771   7.974  15.376  13.947
60446W        W32772   0.898  39.452  10.791
60447W        W32773  15.194  12.736  14.371
60448W        W32774   7.480  13.079   1.766
60449W        W32775  28.231  10.059   3.940
60450W        W32776   0.231  12.989  11.896
60451W        W32777  15.493  18.524  10.783
60452W        W32778  20.360  19.583   3.662
60453W        W32779  15.820  39.936  14.024
60454W        W32780   6.933  40.583   3.271
60455W        W32781  11.145  12.555   3.296
60456W        W32782  36.740  34.555  13.399
60457W        W32783  29.096  12.248   0.002
60458W        W32784   7.458   2.892  13.462
60459W        W32785   7.382  31.036   2.790
60460W        W32786  10.729  30.714  14.272
60461W        W32787   2.031  10.293   2.710
60462W        W32788  25.157  36.705   1.255
60463W        W32789  26.235   4.780   3.643
60464W        W32790  23.239  21.893   0.059
60465W        W32791  13.030  32.459   1.778
60466W        W32792  33.151  14.522   0.532
60467W        W32793  30.954  14.988   1.730
60468W        W32794  20.058  28.554  12.087
60469W        W32795  36.016   1.205  13.416
60470W        W32796  27.572  35.097  11.938
60471W        W32797  40.579  31.170   3.244
60472W        W32798  33.827  20.755   1.348
60473W        W32799  18.585  18.578   2.903
60474W        W32800   3.011  17.720   3.584
60475W        W32801   1.636  38.794   2.621
60476W        W32802  33.410  42.511  13.917
60477W        W32803  16.035  33.566   0.360
60478W        W32804  31.099  29.692  12.054
60479W        W32805  12.367   7.719   2.668
60480W        W32806  25.728  36.632  14.179
60481W        W32807   2.349  12.970   4.051
60482W        W32808  20.521  15.980  11.376
60483W        W32809  14.550  40.020   4.675
60484W        W32810   8.179  27.258  11.577
60485W        W32811  11.370  27.881   3.653
60486W        W32812  25.951  17.350  14.468
60487W        W32813   3.937  23.333  13.606
60488W        W32814  22.196  29.831   3.595
60489W        W32815  42.176   0.213  12.508
60490W        W32816  20.701  33.329   4.122
60491W        W32817   2.907  22.521  11.856
60492W        W32818  36.158  10.928  13.941
60493W        W32819   4.142  33.077   3.780
60494W        W32820  26.272  24.666   3.661
60495W        W32821  34.954  39.807  14.304
60496W        W32822  33.965  10.882  12.083
60497W        W32823  10.137  34.165  14.826
60498W        W32824  42.395  30.989   2.789
60499W        W32825   7.881  23.453  13.116
60500W        W32826  43.489  29.063  11.947
60501W        W32827  13.709  28.694  11.967
60502W        W32828  39.967   7.120  12.959
60503W        W32829  12.749  34.188  10.574
60504W        W32830   4.319   3.063   2.926
60505W        W32831  22.277   9.886   4.881
60506W        W32832   1.638  11.732  13.183
60507W        W32833  23.303  44.046  12.005
60508W        W32834  24.966   7.168   1.343
60509W        W32835  19.784  34.545   0.489
60510W        W32836  17.524  16.580   0.970
60511W        W32837  13.357  17.877  13.399
60512W        W32838  20.522  27.021  10.731
60513W        W32839  37.968  17.621   2.264
60514W        W32840  13.111   0.420   0.799
60515W        W32841   3.337  19.630  11.976
60516W        W32842  29.503  32.571   0.655
60517W        W32843  16.403  28.853   1.644
60518W        W32844  38.219  25.003   3.186
60519W        W32845  16.973   1.441   2.741
60520W        W32846   7.211  36.865   4.145
60521W        W32847  44.885   4.450  14.429
60522W        W32848  16.852  36.879   3.904
60523W        W32849  16.476  39.902  12.192
60524W        W32850  44.379  13.873   2.350
60525W        W32851  37.891  14.812   3.686
60526W        W32852  11.211  41.478  11.204
60527W        W32853  40.244  17.327  11.412
60528W        W32854  43.515  38.847   2.054
60529W        W32855   4.290  15.335   0.153
60530W        W32856  39.736  10.790   2.678
60531W        W32857  21.963  10.598  10.648
60532W        W32858   6.738  38.776  11.175
60533W        W32859   6.257  28.106  10.954
60534W        W32860   9.152  21.612   2.353
60535W        W32861   7.165  25.226   2.753
60536W        W32862  20.051  22.564  11.833
60537W        W32863  38.549  26.179  12.908
60538W        W32864  13.178  10.899  11.332
60539W        W32865  10.400  33.055  14.476
60540W        W32866  24.068  13.500   4.389
60541W        W32867  26.709  44.574   1.737
60542W        W32868   9.062  38.948  10.572
60543W        W32869  27.747  11.643  12.411
60544W        W32870  30.055  43.853   1.173
60545W        W32871  42.565  25.949   3.854
60546W        W32872   6.979  23.823   1.830
60547W        W32873  36.571  32.434  12.859
60548W        W32874  19.712  23.578  10.741
60549W        W32875  12.366  24.598  14.432
60550W        W32876  16.329  33.919   3.139
60551W        W32877  24.640  10.768   0.100
60552W        W32878   1.446  29.862  12.990
60553W        W32879  33.565  37.892   1.047
60554W        W32880   1.444  24.078  10.260
60555W        W32881  25.585  23.215  10.695
60556W        W32882   9.183   8.269   4.373
60557W        W32883  38.464  31.100   3.237
60558W        W32884   0.986  17.614   3.995
60559W        W32885  16.234   2.003   4.628
60560W        W32886  38.660  29.089   1.581
60561W        W32887   0.390  34.652   0.330
60562W        W32888   7.886  39.540   2.863
60563W        W32889  35.141  41.635  11.772
60564W        W32890  43.734   7.849  13.875
60565W        W32891  36.613  18.209  14.878
60566W        W32892  19.279  10.403  11.120
60567W        W32893  24.683  36.681   4.592
60568W        W32894   3.848   6.956  13.468
60569W        W32895  19.241  40.412   4.083
60570W        W32896   2.714  19.856  12.527
60571W        W32897  26.468  16.053   0.873
60572W        W32898  37.836  29.106   1.789
60573W        W32899  17.799  22.719   4.801
60574W        W32900  39.893  33.427  11.857
60575W        W32901  18.058   7.874   3.238
60576W        W32902  42.283  11.294  11.017
60577W        W32903  12.323  41.990  14.052
60578W        W32904   5.405  13.073   4.446
60579W        W32905   4.283  41.782   0.795
60580W        W32906  19.817   4.718   4.853
60581W        W32907  23.581  30.200   4.400
60582W        W32908   1.489   3.750  10.296
60583W        W32909  29.179  13.205   4.088
60584W        W32910  33.784  31.975  11.122
60585W        W32911  17.246   5.036   2.270
60586W        W32912   6.371   2.489   0.918
60587W        W32913  31.676  42.117   0.098
60588W        W32914  12.921  33.412   1.664
60589W        W32915  26.011   5.836   2.852
60590W        W32916  17.169  42.857   2.673
60591W        W32917  44.436  17.097  13.057
60592W        W32918  14.905  15.002  12.442
60593W        W32919  11.111   7.128   2.182
60594W        W32920  40.589  38.819   1.774
60595W        W32921  35.606  10.252   3.741
60596W        W32922   2.775  11.677  14.663
60597W        W32923  31.720   5.784  11.567
60598W        W32924   9.772  18.837   2.702
60599W        W32925   4.688  19.739  12.588
60600W        W32926  10.654  18.110  14.053
60601W        W32927  30.631   5.725   2.571
60602W        W32928  32.101  42.510   2.278
60603W        W32929  16.681  15.679  12.516
60604W        W32930  10.373   9.096   4.137
60605W        W32931  14.740  20.752   0.048
60606W        W32932  22.504  18.126   2.711
60607W        W32933  21.557  43.505  14.916
60608W        W32934  41.375   8.640  14.695
60609W        W32935  36.499  40.336  13.560
60610W        W32936   4.851  19.191  13.447
60611W        W32937  18.176   8.550  12.118
60612W        W32938  35.504  36.926   0.735
60613W        W32939  30.965  27.435   0.335
60614W        W32940   7.328  29.853   3.267
60615W        W32941   2.206   8.629  13.520
60616W        W32942  36.962  28.204  13.666
60617W        W32943  44.294  27.423  12.062
60618W        W32944  35.553  32.205   3.678
60619W        W32945  25.702  21.979   4.035
60620W        W32946   7.429   7.778   2.299
60621W        W32947  43.991  22.467  12.150
60622W        W32948  32.379  42.377   3.499
60623W        W32949  26.513  29.658   3.829
60624W        W32950  21.158  35.823  14.939
60625W        W32951  32.211  37.882   2.811
60626W        W32952   5.747  20.589   2.873
60627W        W32953   7.366   3.920   2.947
60628W        W32954  14.574   3.477  14.340
60629W        W32955  12.762  40.690  10.889
60630W        W32956  20.666  10.879   0.073
60631W        W32957   8.354  13.464   4.207
60632W        W32958  44.088  15.636   5.078
60633W        W32959   8.963  43.471  14.772
60634W        W32960  37.488   7.344   4.670
60635W        W32961  41.319  33.784   3.738
60636W        W32962  39.476  22.128  14.390
60637W        W32963   9.491  33.679   0.218
60638W        W32964  35.689  14.780  14.359
60639W        W32965  34.964  19.872  13.318
60640W        W32966  38.723  33.439  12.995
60641W        W32967  38.730  16.054  10.472
60642W        W32968  30.260  33.661   0.423
60643W        W32969  27.951  38.450  14.071
60644W        W32970  27.181  38.129   1.770
60645W        W32971  22.495  41.084  11.448
60646W        W32972  21.216  36.499  10.698
60647W        W32973  44.583  39.481  12.349
60648W        W32974  32.885  32.671   1.598
60649W        W32975   9.874  16.698  13.996
60650W        W32976  28.135   4.693  13.904
60651W        W32977  36.418  13.701   2.902
60652W        W32978  14.062  17.211   3.299
60653W        W32979  34.197  29.061   3.327
60654W        W32980   8.274  32.705   1.845
60655W        W32981  35.330  21.012  14.546
60656W        W32982  37.888  15.061   3.152
60657W        W32983  30.680  32.360   3.341
60658W        W32984  31.649  23.983   3.663
60659W        W32985   0.324   4.032  11.285
60660W        W32986  35.906   1.261  14.125
60661W        W32987  39.551   8.718  12.057
60662W        W32988  35.301   2.124  12.005
60663W        W32989   3.134  24.764   1.249
60664W        W32990  44.955  37.868  14.781
60665W        W32991  23.676   1.697   1.843
60666W        W32992  26.854  23.282  12.014
60667W        W32993  24.604   8.197   0.250
60668W        W32994  22.160  30.619   0.841
60669W        W32995   1.772  38.391   1.272
60670W        W32996  40.864  14.205   4.933
60671W        W32997  27.966  44.892   1.931
60672W        W32998  19.058  26.138   1.433
60673W        W32999  26.814   1.278   1.903
60674W        W33000  28.534  32.605  10.518
60675W        W33001  34.906  29.229  13.178
60676W        W33002   2.387   5.387  13.016
60677W        W33003  30.684  10.137   3.121
60678W        W33004  16.541  23.196   3.410
60679W        W33005  20.090  17.833  11.487
60680W        W33006  22.140  42.543   1.748
60681W        W33007  14.192  10.658   0.279
60682W        W33008  34.958   4.378   3.550
60683W        W33009  24.218  36.072  11.059
60684W        W33010   7.978  24.588   4.275
60685W        W33011  31.283  13.038  10.644
60686W        W33012  15.035  29.946   4.571
60687W        W33013  25.820  16.188   3.613
60688W        W33014  25.170  16.825  11.499
60689W        W33015  33.972  16.999   0.225
60690W        W33016  23.689  32.288  11.692
60691W        W33017  34.846  12.789   2.386
60692W        W33018  25.536  20.985   3.259
60693W        W33019  34.185  13.773  13.826
60694W        W33020   0.863  39.572  13.011
60695W        W33021   5.639   6.459  13.867
60696W        W33022  14.186   1.351   0.749
60697W        W33023  32.510  26.626  14.488
60698W        W33024  34.488  37.436  12.858
60699W        W33025  14.480  15.375   4.274
60700W        W33026  16.177  42.239  10.714
60701W        W33027  42.924  26.996   3.355
60702W        W33028   5.402   0.584   0.471
60703W        W33029  24.205  23.147  12.110
60704W        W33030  39.080  44.415  10.407
60705W        W33031  23.718  12.122   2.324
60706W        W33032   2.307   0.835   0.287
60707W        W33033  16.455   6.051   1.411
60708W        W33034   7.784  22.201   3.243
60709W        W33035  18.723   4.819  14.970
60710W        W33036  23.270  20.557   2.946
60711W        W33037  16.995  23.649  14.971
60712W        W33038  37.822  30.628  11.103
60713W        W33039  26.460  23.556  12.849
60714W        W33040  29.156  32.613  13.129
60715W        W33041  27.879  19.563   3.776
60716W        W33042   7.441  23.089  11.476
60717W        W33043   4.401  26.520   0.980
60718W        W33044  41.982   2.958  12.388
60719W        W33045  25.505  30.710  12.441
60720W        W33046  29.087  15.186  10.889
60721W        W33047  35.925  19.612   3.371
60722W        W33048  20.945  30.388  10.278
60723W        W33049  36.349  29.667  11.227
60724W        W33050   8.841  28.329  13.384
60725W        W33051  23.143  17.711   9.707
60726W        W33052  28.904  20.445  14.912
60727W        W33053  20.373  34.361  11.533
60728W        W33054   0.940   7.433  14.794
60729W        W33055  25.964  35.584  11.535
60730W        W33056  33.965  33.510  11.178
60731W        W33057  27.587  17.674   4.942
60732W        W33058  20.311  41.497  13.230
60733W        W33059  22.656  36.411   4.311
60734W        W33060  11.267   6.435   4.254
60735W        W33061  26.092  40.331   0.009
60736W        W33062   7.361  14.853   1.307
60737W        W33063  25.485  39.427   9.616
60738W        W33064  19.371   7.316   2.224
60739W        W33065   2.432   3.721   0.790
60740W        W33066  39.492  39.105   2.853
60741W        W33067  25.694   1.940   3.507
60742W        W33068  25.701  34.911  11.595
60743W        W33069   8.973  41.756  11.535
60744W        W33070  36.735  20.665  10.490
60745W        W33071  30.361  27.500   2.166
60746W        W33072   5.606  35.436  12.838
60747W        W33073  26.042  23.511  13.265
60748W        W33074  11.111  30.230  13.960
60749W        W33075  38.539  39.075  14.532
60750W        W33076  31.290  15.642  11.739
60751W        W33077  40.553  13.929   4.641
60752W        W33078   1.252  32.431   2.977
60753W        W33079  40.091   8.435  13.985
60754W        W33080  42.264  13.106  14.089
60755W        W33081  21.627  26.954  14.952
60756W        W33082   0.872  37.468  14.875
60757W        W33083  27.014   8.920  14.866
60758W        W33084  12.904  23.652   1.260
60759W        W33085  38.430  26.555   1.762
60760W        W33086  28.724   4.867  11.670
60761W        W33087   6.841  25.069  13.067
60762W        W33088  25.579  23.535  10.264
60763W        W33089  44.520  22.164   1.916
60764W        W33090  39.694   2.382  10.735
60765W        W33091  37.885  11.282   0.919
60766W        W33092  33.068   1.216  14.851
60767W        W33093  37.942  43.295   2.381
60768W        W33094  19.606  23.741   1.259
60769W        W33095  43.581  38.089   1.672
60770W        W33096  20.242  18.240   3.792
60771W        W33097  31.356   1.409   3.845
60772W        W33098  11.397   2.451   0.818
60773W        W33099   7.871  43.980  14.310
60774W        W33100  28.878   2.303   1.244
60775W        W33101  29.074   7.961   1.825
60776W        W33102  42.430   9.027   0.336
60777W        W33103  11.242  23.156   2.359
60778W        W33104   9.896   2.158   4.605
60779W        W33105  34.269  38.355  14.291
60780W        W33106  28.551  20.983  14.710
60781W        W33107  20.938  31.342   4.050
60782W        W33108   5.919  34.433   3.193
60783W        W33109  29.328   4.943  13.495
60784W        W33110  17.807  10.717   0.040
60785W        W33111  41.244   5.828   0.432
60786W        W33112  19.965  44.704  11.192
60787W        W33113  23.534   5.626   1.166
60788W        W33114  28.929  33.806   1.343
60789W        W33115   9.644  42.343   2.732
60790W        W33116  20.178   4.897  11.587
60791W        W33117  19.805  17.539  10.800
60792W        W33118   8.306  39.793  10.765
60793W        W33119  32.361  28.948   2.619
60794W        W33120   6.761  38.773  12.074
60795W        W33121  35.314  42.284   1.536
60796W        W33122  41.999   6.780  11.979
60797W        W33123   8.901  37.808  14.706
60798W        W33124  11.234  11.885  13.443
60799W        W33125  28.975  18.452  14.567
60800W        W33126   2.828   5.714   3.352
60801W        W33127  32.394  27.921  12.486
60802W        W33128  16.883  14.624  13.339
60803W        W33129  12.730  14.638   4.524
60804W        W33130  27.378  38.259   3.339
60805W        W33131  24.222  37.905  10.545
60806W        W33132  33.559  43.340   0.269
60807W        W33133  35.389  23.680  14.837
60808W        W33134  37.698  15.621  11.257
60809W        W33135  29.499   5.168   1.153
60810W        W33136   6.986  25.067  11.918
60811W        W33137  40.975  28.434   3.781
60812W        W33138  37.116  19.068  12.445
60813W        W33139   7.080  13.727  13.365
60814W        W33140  39.030  34.276  13.924
60815W        W33141  35.260  29.435   0.863
60816W        W33142  36.568   9.315  14.305
60817W        W33143  37.425  18.518   4.149
60818W        W33144  15.272  27.373   4.911
60819W        W33145   2.834  40.934  12.170
60820W        W33146  19.809  41.390  11.403
60821W        W33147   9.716   8.683  13.007
60822W        W33148  39.341  35.944   0.391
60823W        W33149  18.622  37.688  10.195
60824W        W33150  16.349   2.263   2.583
60825W        W33151  44.317  15.761  13.380
60826W        W33152  30.683  16.214   3.271
60827W        W33153  23.217  40.649  14.119
60828W        W33154  18.984  40.102  11.641
60829W        W33155   1.234  43.351   0.815
60830W        W33156  14.222   0.212   1.394
60831W        W33157   0.656   1.819   3.142
60832W        W33158  29.621  24.344   0.572
60833W        W33159   2.488  40.282   0.829
60834W        W33160  12.056  30.684  13.521
60835W        W33161  36.986   8.495  10.677
60836W        W33162  33.284  15.534  10.244
60837W        W33163  43.997  22.604   1.246
60838W        W33164  10.161  35.103   4.622
60839W        W33165  36.568  19.111   4.389
60840W        W33166  16.067  35.629  11.953
60841W        W33167  22.446  34.960   3.279
60842W        W33168   0.926  29.160  10.546
60843W        W33169  32.934   7.697   3.609
60844W        W33170  31.263  10.145   3.118
60845W        W33171   4.199   6.930   4.960
60846W        W33172  18.162   2.489  14.328
60847W        W33173   2.971  26.031   3.279
60848W        W33174  36.047  18.522  13.085
60849W        W33175  27.427  43.807   0.943
60850W        W33176  18.759   9.220   1.345
60851W        W33177  22.557  39.551  13.941
60852W        W33178  34.452  16.595  13.371
60853W        W33179  29.410   7.159  12.480
60854W        W33180  30.994  37.728   3.874
60855W        W33181   4.265  28.179   2.308
60856W        W33182   8.966  16.835   1.223
60857W        W33183  33.195   8.815  14.931
60858W        W33184  14.630  37.182   2.145
60859W        W33185  10.195  34.608  12.579
60860W        W33186  44.421  16.208   2.413
60861W        W33187  37.318  24.690   0.935
60862W        W33188  22.793  28.797   1.603
60863W        W33189  16.682  38.785   3.682
60864W        W33190  29.681  15.576  12.996
60865W        W33191  13.327  20.494   0.364
60866W        W33192  15.556  17.084   0.300
60867W        W33193   0.348  18.617  12.987
60868W        W33194  43.909  43.699   0.761
60869W        W33195  40.216  32.126   1.175
60870W        W33196  26.216   6.907  11.049
60871W        W33197   3.904   3.741   4.645
60872W        W33198  35.003  14.941   2.879
60873W        W33199  40.410  41.970  14.482
60874W        W33200  41.405  14.506   2.587
60875W        W33201   9.617  35.976  12.525
60876W        W33202  12.358  39.741   2.220
60877W        W33203  36.480   2.730  12.445
60878W        W33204  41.776  12.405  10.949
60879W        W33205  32.990  19.827   3.331
60880W        W33206  34.575  38.411  12.913
60881W        W33207  40.418   7.055   3.303
60882W        W33208  22.709  31.151  11.546
60883W        W33209  26.393  14.877  11.799
60884W        W33210   2.510  30.445  13.942
60885W        W33211  26.627  14.147  14.871
60886W        W33212  41.508  23.669   3.656
60887W        W33213  26.119   5.390   4.175
60888W        W33214   3.262   9.792  14.946
60889W        W33215  39.818  41.445   0.301
60890W        W33216  44.473  15.536   4.266
60891W        W33217  17.051  13.473  10.951
60892W        W33218  19.170   7.131   0.831
60893W        W33219  33.839  13.758   2.906
60894W        W33220  42.357  36.689   3.304
60895W        W33221  40.271  25.638   0.927
60896W        W33222  31.965  19.349   4.085
60897W        W33223  24.272  14.660   1.821
60898W        W33224  11.505  28.099   1.893
60899W        W33225  38.297  10.530   5.125
60900W        W33226  20.728   4.113  10.646
60901W        W33227   3.787  41.005  14.867
60902W        W33228  37.776  21.092  11.545
60903W        W33229  37.125  32.436   4.192
60904W        W33230  16.966   1.564   0.996
60905W        W33231  33.583  15.800   3.342
60906W        W33232  19.021  43.976  14.438
60907W        W33233  43.792  27.648   4.142
60908W        W33234  17.598  28.150  12.005
60909W        W33235  27.469  23.713   4.134
60910W        W33236  27.357   3.382  10.791
60911W        W33237  29.938   4.882   1.844
60912W        W33238   3.987  41.875  13.908
60913W        W33239  28.672  42.447   1.866
60914W        W33240   2.522  27.227  11.140
60915W        W33241   5.596  31.134   1.831
60916W        W33242   6.689  21.474   0.510
60917W        W33243  26.882  31.562   1.930
60918W        W33244  27.423   1.903   5.023
60919W        W33245  36.106  16.848   1.765
60920W        W33246  35.514  17.560   3.761
60921W        W33247  30.106  20.728   0.362
60922W        W33248  33.027  32.949  13.525
60923W        W33249  22.118  44.162   4.114
60924W        W33250  11.457   3.049   4.612
60925W        W33251  14.551  42.802   0.436
60926W        W33252  44.913   9.322   2.953
60927W        W33253  28.020  32.470   1.839
60928W        W33254  21.764  10.337  12.589
60929W        W33255   7.897  20.151  14.097
60930W        W33256  31.718  37.858   2.622
60931W        W33257   7.990  29.876   2.938
60932W        W33258  10.740  41.424   0.254
60933W        W33259   9.457   7.960   1.662
60934W        W33260  17.795  43.807   3.674
60935W        W33261   3.117  31.980   4.993
60936W        W33262  30.077  26.452   0.105
60937W        W33263  41.144  41.865  12.125
60938W        W33264  34.047  35.422   3.681
60939W        W33265   2.790  43.399   1.158
60940W        W33266  31.763  36.957  11.800
60941W        W33267  33.880  19.170  11.237
60942W        W33268  13.600   9.640   4.279
60943W        W33269   4.259  11.882  10.309
60944W        W33270  25.676  28.999   3.223
60945W        W33271  34.697  12.327  10.568
60946W        W33272  16.817  34.886  13.980
60947W        W33273  19.007   8.427   3.180
60948W        W33274   9.194  28.637  12.031
60949W        W33275  17.047  34.561   3.242
60950W        W33276  40.171  12.113   3.313
60951W        W33277  28.553  32.346  14.375
60952W        W33278  13.047   2.244  14.826
60953W        W33279  22.684  35.810   2.345
60954W        W33280  25.599  29.360   1.653
60955W        W33281  26.401  39.864  11.969
60956W        W33282  17.017   3.988  12.461
60957W        W33283  12.660  20.032   1.911
60958W        W33284  30.517   2.372   4.517
60959W        W33285  16.384  23.679   1.150
60960W        W33286  36.307  17.602  13.851
60961W        W33287  39.151  42.482   0.428
60962W        W33288  40.622  26.591  13.794
60963W        W33289  40.181  17.287  11.928
60964W        W33290  18.588  23.638   4.136
60965W        W33291   2.285   6.238   2.801
60966W        W33292  31.661  28.082   0.472
60967W        W33293  21.234  21.217  10.951
60968W        W33294  35.968   8.885   0.873
60969W        W33295  10.358  36.492  10.841
60970W        W33296  22.054  44.854  13.544
60971W        W33297  21.067  28.080  11.559
60972W        W33298  31.464  12.621  12.025
60973W        W33299  14.285   9.902   2.245
60974W        W33300  17.878   0.597  13.313
60975W        W33301  40.115  19.172   4.303
60976W        W33302  14.637  31.495   3.372
60977W        W33303  23.164   6.932   1.401
60978W        W33304  35.426  19.493  14.661
60979W        W33305  11.299  10.859  14.514
60980W        W33306  24.985   1.510  13.507
60981W        W33307  37.994  21.439  14.767
60982W        W33308  22.051   7.740  13.933
60983W        W33309  26.943  15.761  13.786
60984W        W33310   6.622   7.747   4.620
60985W        W33311  26.414  25.303  13.819
60986W        W33312   6.812  44.210  14.924
60987W        W33313  21.538  23.474  12.835
60988W        W33314  33.638   4.996   4.332
60989W        W33315  44.044  15.564  12.178
60990W        W33316  13.095  40.072  11.548
60991W        W33317  12.535  33.692  11.196
60992W        W33318  36.702  16.705   3.261
60993W        W33319  24.248  37.344   5.579
60994W        W33320   8.849   9.845  11.129
60995W        W33321  13.220  22.660   2.784
60996W        W33322  14.758  25.178  13.102
60997W        W33323  13.169  35.131   0.237
60998W        W33324  27.896  13.580  13.303
60999W        W33325   3.779  44.808  12.972
61000W        W33326  25.585  18.093   0.583
61001W        W33327   7.539  41.541  11.916
61002W        W33328  29.062  20.657   0.367
61003W        W33329  24.587   0.044   3.806
61004W        W33330  22.700  21.794  12.049
61005W        W33331  43.181  30.658   2.330
61006W        W33332  11.078  14.215  12.962
61007W        W33333  15.624  14.293   3.182
61008W        W33334  18.577  23.814  13.338
61009W        W33335  38.826  22.129   2.921
61010W        W33336  39.281   1.470   1.876
61011W        W33337   5.906  15.608   0.945
61012W        W33338  29.906  42.160   4.086
61013W        W33339   4.334   8.156   4.191
61014W        W33340  19.223   3.467  13.777
61015W        W33341  41.424  21.774  14.482
61016W        W33342  26.614  24.152  12.275
61017W        W33343   8.365  26.926   0.481
61018W        W33344  42.943   4.289  13.388
61019W        W33345  12.354  22.687  13.478
61020W        W33346  10.893   0.966  11.627
61021W        W33347  32.970  33.923  14.035
61022W        W33348  37.057   3.174  11.937
61023W        W33349   3.839   7.518   4.558
61024W        W33350   8.375  23.735   1.829
61025W        W33351  34.185  24.690   4.292
61026W        W33352  17.480  20.608  13.818
61027W        W33353  31.952   0.401   4.942
61028W        W33354   3.924   9.696  14.310
61029W        W33355  41.868  19.017   1.301
61030W        W33356  29.882  40.248  14.201
61031W        W33357   3.654  30.285  10.752
61032W        W33358  39.492   4.477  13.518
61033W        W33359  10.260  31.351   0.274
61034W        W33360  14.242  28.751  12.409
61035W        W33361  25.097  25.748  14.667
61036W        W33362  17.050  20.019   0.802
61037W        W33363  10.360  44.422   2.250
61038W        W33364  18.030   9.899   3.248
61039W        W33365  43.502   4.124  14.060
61040W        W33366   4.164  43.890   2.246
61041W        W33367  27.078  12.201  12.356
61042W        W33368  35.396   6.162   1.309
61043W        W33369  32.248  40.833   3.608
61044W        W33370  25.697  19.393  11.293
61045W        W33371  25.412  14.554  14.516
61046W        W33372   5.984  38.037  13.976
61047W        W33373  32.575  16.120  14.466
61048W        W33374  32.119  22.317  11.059
61049W        W33375  23.366  21.990   1.005
61050W        W33376  12.191   4.917   1.779
61051W        W33377  11.708  22.088  12.476
61052W        W33378  25.190  44.528   0.912
61053W        W33379   0.381   1.454  11.976
61054W        W33380  12.768  44.317   0.358
61055W        W33381   1.183  28.117  11.743
61056W        W33382   8.440   3.885   3.285
61057W        W33383   7.697  32.012   3.731
61058W        W33384  41.782  13.322  11.160
61059W        W33385  36.923   9.206  11.904
61060W        W33386  19.450  32.027  13.851
61061W        W33387  10.657  21.355   0.442
61062W        W33388  11.861   9.706   0.392
61063W        W33389   9.731  18.464  13.875
61064W        W33390  44.358  32.555   1.355
61065W        W33391  17.048  44.495   2.787
61066W        W33392  31.650  15.202   0.946
61067W        W33393  34.596   5.839  11.942
61068W        W33394   5.434   8.372   3.788
61069W        W33395  39.916  26.225  13.869
61070W        W33396  26.620  31.299   4.600
61071W        W33397  32.888  30.657   1.747
61072W        W33398   8.977  22.421  12.029
61073W        W33399  30.396   6.300  10.723
61074W        W33400   8.399  15.238  11.984
61075W        W33401  15.105   1.461  12.912
61076W        W33402  19.232  14.162   1.954
61077W        W33403  35.535   3.916   0.627
61078W        W33404  15.034  37.788   0.535
61079W        W33405  38.358   4.586  10.973
61080W        W33406  17.666   0.344  14.300
61081W        W33407  39.085   1.337  12.034
61082W        W33408   5.388  42.099   1.468
61083W        W33409  23.867  16.135   0.437
61084W        W33410  37.516  39.826  12.839
61085W        W33411  31.131  40.850   4.472
61086W        W33412   1.614  41.839   0.076
61087W        W33413  36.396  22.197  14.087
61088W        W33414  11.254  31.851  13.499
61089W        W33415  24.479   3.194   2.335
61090W        W33416  12.308   7.183   0.233
61091W        W33417  42.982   0.761   0.599
61092W        W33418  37.913  13.568  10.732
61093W        W33419  23.552  22.047  14.005
61094W        W33420   6.859  37.332  11.164
61095W        W33421  33.399  25.599   1.257
61096W        W33422  30.913   0.336   0.802
61097W        W33423  32.723  21.284  13.851
61098W        W33424  36.022   8.236  11.825
61099W        W33425  42.493  19.660   1.803
61100W        W33426  17.514   6.536   4.202
61101W        W33427  32.455  37.476   1.256
61102W        W33428  42.508  35.485  13.345
61103W        W33429  34.421  17.863   1.463
61104W        W33430   0.534  10.180  11.619
61105W        W33431  28.419  25.493  13.051
61106W        W33432  31.977  31.653   9.962
61107W        W33433   7.091  35.601   4.630
61108W        W33434   5.455  38.697  12.107
61109W        W33435  25.491  43.871  10.620
61110W        W33436  40.858  28.414  12.131
61111W        W33437  26.358  42.976   2.369
61112W        W33438   5.643  38.938   0.884
61113W        W33439  22.310  12.570   0.875
61114W        W33440  20.147  40.901  13.967
61115W        W33441  42.555  30.093   3.289
61116W        W33442  18.099  44.562   1.359
61117W        W33443  30.957  11.801  10.786
61118W        W33444  24.569   9.922  11.101
61119W        W33445  39.506   3.214  13.096
61120W        W33446  15.379  11.347   0.945
61121W        W33447  16.925  25.086   4.696
61122W        W33448   1.526  19.096   2.283
61123W        W33449  28.588  22.440  10.618
61124W        W33450  40.248  30.075  12.400
61125W        W33451  25.782  14.527  14.160
61126W        W33452   2.739   2.744   2.585
61127W        W33453  41.347  41.290  14.677
61128W        W33454  12.079  14.377  14.897
61129W        W33455   4.681  39.011   2.723
61130W        W33456  36.024  22.751  12.533
61131W        W33457  13.667   8.668  10.580
61132W        W33458  38.850  18.590   1.661
61133W        W33459  31.118   8.696   5.241
61134W        W33460   4.698  24.641  12.052
61135W        W33461  40.059  12.945   0.533
61136W        W33462  38.488   1.522   2.722
61137W        W33463   6.717  31.551  10.726
61138W        W33464   6.302   8.353   2.758
61139W        W33465  43.252  44.223  14.378
61140W        W33466  26.221  31.060  14.243
61141W        W33467  29.303  34.652   3.657
61142W        W33468  34.587  22.556   3.164
61143W        W33469  12.617  11.827  14.792
61144W        W33470  41.414  44.835   0.729
61145W        W33471  41.304  32.632   1.906
61146W        W33472  10.645  21.795  12.506
61147W        W33473  16.234  14.829  12.436
61148W        W33474  17.580  26.447  12.489
61149W        W33475  22.899  43.958   2.696
61150W        W33476  34.890   5.452   2.287
61151W        W33477  20.122  37.817   4.237
61152W        W33478   2.848  23.006  14.954
61153W        W33479  29.952  13.651  13.381
61154W        W33480  20.285   5.498  12.092
61155W        W33481  14.212  41.960   1.629
61156W        W33482  42.267  33.841   1.693
61157W        W33483   3.763  10.371  11.529
61158W        W33484  38.769  36.000   3.272
61159W        W33485   0.957   1.222   3.807
61160W        W33486  38.694   3.662  14.559
61161W        W33487  15.801  23.053  14.312
61162W        W33488  18.281  21.684   1.993
61163W        W33489  25.742  43.557  10.954
61164W        W33490  26.537  44.519   3.141
61165W        W33491  13.618   9.007   5.087
61166W        W33492  33.920  30.124  12.592
61167W        W33493  33.682  11.963  11.285
61168W        W33494  24.522   3.777   1.889
61169W        W33495  19.677  32.950  13.058
61170W        W33496  40.328  24.204   0.016
61171W        W33497  23.014  34.117  11.778
61172W        W33498   1.864  41.372   3.100
61173W        W33499  26.483   5.257   1.821
61174W        W33500  14.399  11.201  14.020
61175W        W33501   3.649  21.091   1.203
61176W        W33502  10.332  29.098   2.700
61177W        W33503  28.093   1.752   2.601
61178W        W33504  44.808  33.844   2.963
61179W        W33505  14.888   2.629   5.052
61180W        W33506  15.346  27.531  11.962
61181W        W33507   1.946   9.021   1.270
61182W        W33508  24.017   2.806  11.184
61183W        W33509   7.702  12.625  14.921
61184W        W33510  33.515  42.279   3.631
61185W        W33511  32.026   5.546  13.900
61186W        W33512  30.610  14.856  10.905
61187W        W33513  20.278  17.763  10.664
61188W        W33514  18.199  21.768   3.324
61189W        W33515   9.937  10.831  14.284
61190W        W33516  43.880  12.653   2.263
61191W        W33517  20.077  21.624  12.375
61192W        W33518  20.514  13.696  10.893
61193W        W33519   5.779  14.785   0.273
61194W        W33520  14.341  27.613  13.835
61195W        W33521  32.910  34.837  13.593
61196W        W33522  35.319   0.988  14.316
61197W        W33523  42.517  34.745  14.209
61198W        W33524  19.764  30.608  12.085
61199W        W33525  20.488  19.087  13.505
61200W        W33526  28.559  42.271   2.341
61201W        W33527  24.887  13.210  11.109
61202W        W33528  10.844  39.872   4.309
61203W        W33529   9.175   0.387  11.912
61204W        W33530  41.806  15.236  10.903
61205W        W33531   6.662  35.986   1.949
61206W        W33532  44.747  14.047   3.245
61207W        W33533  37.844  31.004  13.454
61208W        W33534  27.232  41.417  11.141
61209W        W33535  37.859  25.838  11.919
61210W        W33536  42.868  21.093   0.431
61211W        W33537   8.433   3.326   3.652
61212W        W33538  10.305  39.474  14.818
61213W        W33539  21.071   7.298   0.650
61214W        W33540   7.215  19.586   0.044
61215W        W33541  23.303  36.930  12.993
61216W        W33542   2.948  39.138  11.464
61217W        W33543  20.147  16.279   1.863
61218W        W33544  44.056  44.183   0.813
61219W        W33545  38.896  42.895  10.014
61220W        W33546  27.648   0.152  11.103
61221W        W33547  21.651  11.345  12.095
61222W        W33548  10.085   2.001  13.981
61223W        W33549   2.470  21.251   5.010
61224W        W33550  33.336   0.023   2.889
61225W        W33551  23.006  10.378  11.654
61226W        W33552  18.553  40.276  12.181
61227W        W33553  13.643  33.130  10.374
61228W        W33554  32.168   2.160  11.104
61229W        W33555  26.201  37.138  11.488
61230W        W33556  26.170  19.056   2.385
61231W        W33557  43.376   2.095  12.938
61232W        W33558  32.404  42.077  10.568
61233W        W33559  27.059  40.429  14.763
61234W        W33560  14.218   9.290   2.603
61235W        W33561  38.871  12.192  13.962
61236W        W33562  22.990  40.906  14.500
61237W        W33563  12.149  38.020   0.823
61238W        W33564  37.255  21.670   3.364
61239W        W33565   1.268  15.374  14.783
61240W        W33566  26.657  17.089   5.169
61241W        W33567  10.437  43.248   2.866
61242W        W33568  12.831  39.860   0.685
61243W        W33569  32.142  10.879  14.400
61244W        W33570  26.685  20.996   2.969
61245W        W33571   6.175  30.143   0.054
61246W        W33572  20.921  17.856  13.767
61247W        W33573   5.091  12.734   0.713
61248W        W33574  28.042  32.398  14.728
61249W        W33575  34.684  43.146  14.277
61250W        W33576  27.556  40.459  10.924
61251W        W33577  17.267  15.989  13.815
61252W        W33578   6.093  32.876  12.112
61253W        W33579   3.512  44.200   1.253
61254W        W33580  11.604  38.585  11.062
61255W        W33581  24.168  16.392  11.392
61256W        W33582   3.158  17.532   1.688
61257W        W33583   0.179   5.505   3.657
61258W        W33584  23.182  28.306  14.261
61259W        W33585  16.072  13.203  12.115
61260W        W33586  22.655   6.918   4.681
61261W        W33587   0.809  21.564  13.506
61262W        W33588  44.392  21.239   1.684
61263W        W33589   3.754  22.540   3.724
61264W        W33590   6.739  42.044  12.583
61265W        W33591   5.203  36.763  14.512
61266W        W33592  26.215  14.285  13.968
61267W        W33593  20.040   5.797  10.938
61268W        W33594  14.640  29.770  12.870
61269W        W33595  32.187  43.289   1.728
61270W        W33596  16.618  25.214   0.938
61271W        W33597  24.484  24.467  14.508
61272W        W33598  13.510  10.362  14.632
61273W        W33599  24.000  42.546  13.931
61274W        W33600   7.262  37.408   0.874
61275W        W33601   3.983  36.567  14.868
61276W        W33602  10.840  11.202  14.682
61277W        W33603  36.339  23.060  13.917
61278W        W33604  13.274  43.794   3.684
61279W        W33605  35.947  23.992  12.022
61280W        W33606  21.803  27.251   0.859
61281W        W33607  30.475   7.025   4.189
61282W        W33608  43.288  10.684   2.852
61283W        W33609  19.007  22.727  14.870
61284W        W33610  44.761  19.040   3.651
61285W        W33611  37.723  11.219  11.890
61286W        W33612  27.520   7.901  11.584
61287W        W33613  32.063  27.905  14.757
61288W        W33614  41.758  33.988   1.712
61289W        W33615  22.981  12.356   1.151
61290W        W33616   4.909  36.190  10.716
61291W        W33617  26.007  33.109   2.262
61292W        W33618   8.504  41.460  12.916
61293W        W33619  39.967  12.841  11.936
61294W        W33620   9.415  36.573   3.832
61295W        W33621  29.927  44.522  11.604
61296W        W33622   7.754  25.047   1.358
61297W        W33623  28.202  35.911   2.389
61298W        W33624   2.027   5.390   1.380
61299W        W33625  17.629  23.626  14.457
61300W        W33626  24.201  34.041   3.151
61301W        W33627   5.745  39.337   1.979
61302W        W33628  36.897  44.361   3.661
61303W        W33629  22.233  32.463   4.508
61304W        W33630  10.692  24.608  11.733
61305W        W33631  20.006   9.571   4.602
61306W        W33632   1.330  22.131   0.928
61307W        W33633  10.012  36.335  14.001
61308W        W33634  37.945  19.161   0.741
61309W        W33635   5.773  44.801  14.929
61310W        W33636   7.473  20.801   1.537
61311W        W33637   3.758  40.154  14.192
61312W        W33638  31.220  17.071  14.007
61313W        W33639  28.587  36.082   0.277
61314W        W33640  43.844  30.156  14.326
61315W        W33641  42.790  16.618   2.231
61316W        W33642   4.049  21.718   2.578
61317W        W33643  32.782  29.561   3.336
61318W        W33644  10.299   3.668   2.932
61319W        W33645   5.629  40.717  10.860
61320W        W33646  19.370  16.766  11.461
61321W        W33647  14.706  33.512   3.890
61322W        W33648  13.173  33.496  12.418
61323W        W33649   7.238   5.184  12.191
61324W        W33650  41.291  12.697   3.760
61325W        W33651  39.334  25.994  13.447
61326W        W33652  41.501  18.235  12.155
61327W        W33653  24.078  27.441   1.390
61328W        W33654  27.854   9.942  12.711
61329W        W33655  14.339  39.449   0.721
61330W        W33656  24.475  33.103  14.983
61331W        W33657  29.153   3.927  12.957
61332W        W33658   6.777  43.517   2.777
61333W        W33659  14.385  16.070   0.787
61334W        W33660  30.977  23.006  11.086
61335W        W33661  18.232  29.219  12.136
61336W        W33662  36.971  10.228  13.886
61337W        W33663  21.543  33.860  14.737
61338W        W33664  26.154  39.177  13.265
61339W        W33665   2.780  11.565   2.809
61340W        W33666  14.726  20.184  13.630
61341W        W33667  33.062  41.343   0.774
61342W        W33668  21.066  29.941  12.273
61343W        W33669  26.383  41.436  10.805
61344W        W33670  33.779  18.172   1.872
61345W        W33671  35.396  39.564   3.722
61346W        W33672  13.887  37.592  13.539
61347W        W33673  26.523  22.858  12.589
61348W        W33674  38.520  39.081  12.536
61349W        W33675  16.367  39.129  13.637
61350W        W33676  20.007  35.833  13.085
61351W        W33677  36.541  31.166  12.496
61352W        W33678  21.074  26.374  11.845
61353W        W33679  32.646   8.937  13.469
61354W        W33680  38.004  13.701  11.234
61355W        W33681  26.322  44.455  10.768
61356W        W33682  35.498  14.274   0.879
61357W        W33683   6.395  14.327  11.094
61358W        W33684  30.927  37.167  13.301
61359W        W33685  13.812  16.969  11.089
61360W        W33686   9.965  31.123   3.049
61361W        W33687  11.790  27.089  10.538
61362W        W33688  21.080   7.332   4.041
61363W        W33689  29.717  25.892   2.275
61364W        W33690  26.014  22.454   4.772
61365W        W33691  30.404  21.718   4.756
61366W        W33692   5.947   1.309   2.341
61367W        W33693  12.331  10.827   4.446
61368W        W33694  30.195  34.074   3.074
61369W        W33695  41.952   7.606   2.261
61370W        W33696  14.743  12.989  12.428
61371W        W33697  25.675   6.381   3.571
61372W        W33698  40.455   5.930  11.171
61373W        W33699  27.936  34.569  12.457
61374W        W33700  18.816   2.328  11.058
61375W        W33701  28.674  23.434   3.727
61376W        W33702   9.354  38.768   1.156
61377W        W33703  19.451   4.401  13.988
61378W        W33704  41.018  19.301  12.961
61379W        W33705  20.136  32.077  10.370
61380W        W33706  39.043  31.815  11.585
61381W        W33707  13.198  16.123   3.238
61382W        W33708  31.404  15.252  12.467
61383W        W33709  27.014   6.892   2.515
61384W        W33710  38.996   6.264  13.787
61385W        W33711  31.225  35.627  11.735
61386W        W33712   6.358   4.215  13.476
61387W        W33713  14.802  22.534   9.861
61388W        W33714  19.165  16.172  12.576
61389W        W33715  22.232  33.500   2.210
61390W        W33716  13.812  28.418   1.782
61391W        W33717  14.741  26.697  14.777
61392W        W33718  25.682  36.751   1.758
61393W        W33719  19.112  31.186  11.553
61394W        W33720   7.150  38.569  12.341
61395W        W33721  28.267  44.868  11.924
61396W        W33722   5.370  14.031   2.927
61397W        W33723  20.715  36.552   2.726
61398W        W33724   2.517  10.629  13.300
61399W        W33725  27.652  35.797  14.945
61400W        W33726  42.372  19.111  14.940
61401W        W33727  37.555  21.791  14.882
61402W        W33728  23.051   2.518   0.451
61403W        W33729   1.970  11.078  13.940
61404W        W33730   9.141  37.960  14.279
61405W        W33731  12.698  19.955   4.479
61406W        W33732  17.905  37.280  13.859
61407W        W33733   5.659  29.709   1.200
61408W        W33734  30.654  43.496  12.873
61409W        W33735  32.499  42.564  13.990
61410W        W33736   0.983  35.588   1.133
61411W        W33737  44.552  21.671   2.392
61412W        W33738  43.968  11.642   3.336
61413W        W33739  22.690  27.582   1.847
61414W        W33740   6.252  41.609  12.145
61415W        W33741  10.874  21.845  13.768
61416W        W33742  13.720   0.539  11.857
61417W        W33743  26.468  38.821   2.845
61418W        W33744  25.534   3.392  10.680
61419W        W33745  39.757  44.187  13.828
61420W        W33746  40.891  21.365  12.863
61421W        W33747  41.504   1.758   0.415
61422W        W33748  25.174  10.366  13.090
61423W        W33749  21.153  39.046  13.349
61424W        W33750  38.624  12.433   4.377
61425W        W33751  23.548  31.834   1.630
61426W        W33752   1.129  14.643   1.286
61427W        W33753   8.719  16.823  14.763
61428W        W33754   6.381  16.826   3.759
61429W        W33755   7.634  40.776   0.777
61430W        W33756   1.163   2.976   9.823
61431W        W33757   8.750  34.906   4.271
61432W        W33758  36.767  25.320  13.630
61433W        W33759  30.806   4.639   4.975
61434W        W33760  43.604  23.188   1.660
61435W        W33761  25.374   5.790   0.185
61436W        W33762   5.808  34.422   4.747
61437W        W33763  17.221  40.650   4.809
61438W        W33764  44.205   6.798   2.166
61439W        W33765  15.672  26.066  11.967
61440W        W33766  25.380  31.010  13.902
61441W        W33767   6.174  16.393   2.325
61442W        W33768  17.714  13.358  12.945
61443W        W33769  43.324  43.219   1.557
61444W        W33770   9.695   5.729   4.503
61445W        W33771   0.235  11.122  11.621
61446W        W33772  25.564  32.862   2.927
61447W        W33773  14.732  22.680   1.242
61448W        W33774  15.693  39.260   4.749
61449W        W33775  26.554  16.699   4.563
61450W        W33776   0.038  42.423   2.655
61451W        W33777  26.395  38.776  14.641
61452W        W33778   1.314  10.602   1.621
61453W        W33779  41.041  26.059  14.782
61454W        W33780  11.800   3.580  11.062
61455W        W33781  33.551  29.380  12.895
61456W        W33782  24.621   6.011   1.800
61457W        W33783  25.510  26.028   3.927
61458W        W33784  17.045  44.218   3.627
61459W        W33785  39.352  31.621   3.952
61460W        W33786  26.552  20.514   2.798
61461W        W33787   0.192  29.157  10.658
61462W        W33788   1.857  22.976   0.855
61463W        W33789  44.116   0.712   0.943
61464W        W33790   0.345  32.315  14.935
61465W        W33791  31.121  11.214   3.448
61466W        W33792  26.712  15.082   3.883
61467W        W33793  44.419  18.366   1.865
61468W        W33794   5.699  32.294   5.027
61469W        W33795  16.489  43.940   3.179
61470W        W33796   1.758  32.485  13.131
61471W        W33797  21.377  23.444   1.358
61472W        W33798  36.038  30.912   4.441
61473W        W33799  40.797  42.002   2.227
61474W        W33800   9.153  39.058   3.364
61475W        W33801   2.647  31.546   1.233
61476W        W33802   6.319   2.824   0.071
61477W        W33803   8.435  39.464   3.188
61478W        W33804  30.064   0.396   1.273
61479W        W33805  39.410  37.570  10.630
61480W        W33806  40.999  22.646  10.993
61481W        W33807  36.168  41.481   3.776
61482W        W33808  15.870  22.452   0.304
61483W        W33809   5.825  42.527  11.160
61484W        W33810  18.503  13.857   1.813
61485W        W33811  17.829  10.627   2.402
61486W        W33812  17.411  23.845  14.029
61487W        W33813   1.605  19.704  14.571
61488W        W33814  37.322   4.494  11.535
61489W        W33815  34.452  23.270  11.923
61490W        W33816   8.435  37.556   1.370
61491W        W33817  20.560  28.634  13.859
61492W        W33818  34.660  16.351  14.488
61493W        W33819   3.320  34.128  13.420
61494W        W33820   0.432  24.534   3.641
61495W        W33821  28.326   6.543  12.152
61496W        W33822  42.928   8.643   2.110
61497W        W33823  20.982  26.027  11.071
61498W        W33824   6.375  37.404   4.107
61499W        W33825  10.393  29.526  10.725
61500W        W33826   6.623  25.613  12.339
61501W        W33827  13.153  19.580  12.954
61502W        W33828   9.655   8.777   3.184
61503W        W33829  20.943  39.940  12.587
61504W        W33830  16.979  21.679  12.842
61505W        W33831  36.712  12.639  12.230
61506W        W33832  31.507  41.565   2.834
61507W        W33833  11.492  34.577  10.177
61508W        W33834  14.624   8.108   0.951
61509W        W33835  21.299  21.952   4.384
61510W        W33836  19.271   2.043  11.142
61511W        W33837  23.661  22.135  10.580
61512W        W33838   2.372  36.860   1.670
61513W        W33839  25.901  24.137  12.635
61514W        W33840  39.071  43.523   0.725
61515W        W33841  13.954  13.797  11.123
61516W        W33842  41.037  21.326  13.763
61517W        W33843   8.743  43.005   3.080
61518W        W33844  38.869  14.588   1.208
61519W        W33845  43.520  20.654   4.567
61520W        W33846   5.179  13.651  12.029
61521W        W33847  31.548  34.036   2.691
61522W        W33848  19.273  40.828   0.863
61523W        W33849  29.987  27.738  11.975
61524W        W33850   4.350  19.817  13.080
61525W        W33851  29.427  29.183  13.377
61526W        W33852  28.285  15.184  12.133
61527W        W33853  35.077  36.822   3.697
61528W        W33854  41.287  40.546  11.113
61529W        W33855  39.338   6.683  11.116
61530W        W33856   2.522  23.754   4.062
61531W        W33857  40.861  25.444   0.346
61532W        W33858   8.735  44.645   0.948
61533W        W33859  23.117  12.299   4.194
61534W        W33860   4.964   5.736  13.881
61535W        W33861   0.926  29.574  10.894
61536W        W33862   3.945  43.320   2.633
61537W        W33863   6.559  30.649   0.483
61538W        W33864  37.529  13.813  14.540
61539W        W33865  12.118   4.520   0.772
61540W        W33866  31.964  29.056  13.696
61541W        W33867  26.289  14.666  14.321
61542W        W33868   2.259  32.800   3.344
61543W        W33869  12.294  22.011  12.848
61544W        W33870  37.019  42.336   4.207
61545W        W33871  38.904  15.928   0.769
61546W        W33872  25.322  11.092   0.533
61547W        W33873  36.141  39.992  13.854
61548W        W33874  24.829  43.047  13.529
61549W        W33875   0.542   8.349   3.788
61550W        W33876  39.906  22.628  12.483
61551W        W33877   1.131   8.895   1.278
61552W        W33878  34.722  44.549  11.012
61553W        W33879  18.684  35.348  10.585
61554W        W33880  22.616   1.032   0.629
61555W        W33881  31.690  14.847  12.582
61556W        W33882  22.935   1.219  11.661
61557W        W33883  14.571  41.472   3.232
61558W        W33884  10.990   3.894   4.251
61559W        W33885  42.618  38.822   2.561
61560W        W33886  19.361  12.789   0.359
61561W        W33887  33.477  43.816  14.279
61562W        W33888  16.087  31.157  11.572
61563W        W33889  29.963  17.517  14.492
61564W        W33890  12.927   4.763   3.672
61565W        W33891  40.933   3.931  14.226
61566W        W33892  19.207  41.318   3.859
61567W        W33893   7.043  29.417   1.317
61568W        W33894  15.455  16.755   2.462
61569W        W33895  12.635  26.082   1.121
61570W        W33896  44.904   7.885   0.017
61571W        W33897  22.646  40.941  13.320
61572W        W33898  33.506  27.675  13.445
61573W        W33899  13.922  16.408  13.029
61574W        W33900   4.252  10.624   0.735
61575W        W33901  15.091  33.968  12.283
61576W        W33902   6.715  14.280  11.567
61577W        W33903  33.441  24.520  13.787
61578W        W33904  32.872  31.612   0.597
61579W        W33905  28.566  24.237   4.532
61580W        W33906  37.595  17.916  10.269
61581W        W33907  28.584   6.776   0.988
61582W        W33908  20.054   2.541  12.534
61583W        W33909  16.202  12.656  13.461
61584W        W33910  10.691   7.910  14.464
61585W        W33911  19.840   5.659   4.379
61586W        W33912  41.501   8.085  13.677
61587W        W33913  16.696  32.533  14.534
61588W        W33914  24.862  37.864   0.265
61589W        W33915  43.491   5.622  12.568
61590W        W33916  27.986   4.014  13.267
61591W        W33917  16.848  36.591  11.577
61592W        W33918  35.890   3.405   3.594
61593W        W33919  21.248  22.454   4.298
61594W        W33920  39.288  17.633   1.426
61595W        W33921   1.723  34.641  11.954
61596W        W33922  10.763  41.540  13.812
61597W        W33923  29.844  16.155  11.974
61598W        W33924   6.594   4.921  12.578
61599W        W33925  14.034  12.809   3.734
61600W        W33926  13.020  41.782  14.825
61601W        W33927  43.974  41.469  14.236
61602W        W33928  14.331  36.361  12.040
61603W        W33929   7.970  19.740  13.799
61604W        W33930  16.841  31.299  13.581
61605W        W33931  29.035  25.408   9.990
61606W        W33932  35.965  42.991   0.061
61607W        W33933  38.662  32.020  11.875
61608W        W33934  33.932  43.262  14.503
61609W        W33935  22.095  31.704  11.141
61610W        W33936  14.438  25.108   3.378
61611W        W33937  25.446  19.364  12.217
61612W        W33938  10.264   7.463   2.553
61613W        W33939  14.100  12.150   0.100
61614W        W33940  11.096  20.570  14.959
61615W        W33941  19.107  40.021   0.408
61616W        W33942  20.677  14.598  12.874
61617W        W33943  24.173   6.256   0.028
61618W        W33944  14.562  33.786  13.519
61619W        W33945   6.174  10.132   1.185
61620W        W33946   8.657  40.029  12.079
61621W        W33947  39.537  32.549  13.851
61622W        W33948  34.833   2.626  14.265
61623W        W33949  13.192  34.950   1.641
61624W        W33950  43.376  36.608  10.621
61625W        W33951  34.519  19.101  10.665
61626W        W33952  33.127  21.698  10.496
61627W        W33953   7.502  21.768   3.275
61628W        W33954  14.816  10.824   4.715
61629W        W33955  30.456  38.336  14.072
61630W        W33956  14.594  11.785   9.997
61631W        W33957  24.488  32.153  13.896
61632W        W33958  34.883  34.436   5.082
61633W        W33959  23.538  36.614  10.536
61634W        W33960   6.217  17.691   4.105
61635W        W33961  32.209  40.794  14.832
61636W        W33962  14.172  38.744   4.739
61637W        W33963  37.607   7.638  14.487
61638W        W33964  19.654  24.584   3.173
61639W        W33965   5.989  34.558  14.523
61640W        W33966  20.602  36.845  13.926
61641W        W33967   0.225  28.437  14.533
61642W        W33968   4.790  25.544   3.704
61643W        W33969  30.691  19.112   1.203
61644W        W33970  22.469  12.759  13.007
61645W        W33971  38.664  25.003   4.276
61646W        W33972  22.478  38.005   3.977
61647W        W33973  10.742   6.902  13.035
61648W        W33974  33.411  13.872   1.778
61649W        W33975  15.655  38.038  14.465
61650W        W33976  31.447  14.603  14.856
61651W        W33977  16.181   4.212  12.048
61652W        W33978   9.382   8.723  11.965
61653W        W33979   2.358   7.350  12.806
61654W        W33980  42.082  13.338   0.675
61655W        W33981  10.926  38.089   0.785
61656W        W33982  28.165  29.773   3.092
61657W        W33983   9.646   2.888  14.964
61658W        W33984   7.584  22.610   5.145
61659W        W33985   3.377  11.823  13.265
61660W        W33986  21.714   1.357   0.065
61661W        W33987  24.889  15.711  13.997
61662W        W33988  30.567   6.804  12.748
61663W        W33989  18.157  26.432   0.832
61664W        W33990   1.447   3.928   1.873
61665W        W33991  25.229  26.257   3.233
61666W        W33992   6.458  26.571  11.575
61667W        W33993  31.920  38.826   2.799
61668W        W33994  25.529  14.727  11.160
61669W        W33995  21.084  34.339   4.113
61670W        W33996  39.689  23.745   2.126
61671W        W33997  10.652   2.835  11.182
61672W        W33998  39.738   9.274  13.866
61673W        W33999  22.174   2.921   0.864
61674W        W34000  22.981  38.498   4.510
61675W        W34001   4.044  28.908  11.797
61676W        W34002  32.509  38.452  13.004
61677W        W34003  25.781   2.478  11.964
61678W        W34004  23.064  15.188  10.075
61679W        W34005  24.223  36.290   4.004
61680W        W34006  17.352  10.705   3.302
61681W        W34007  26.054   0.224   4.268
61682W        W34008  42.750   2.936   2.791
61683W        W34009  23.723  21.724  11.559
61684W        W34010   6.455  39.980  14.374
61685W        W34011  24.554   5.907   2.702
61686W        W34012  37.116  26.017   2.309
61687W        W34013  40.378  15.908   0.884
61688W        W34014  44.465  39.397  13.800
61689W        W34015  44.028  21.682  12.601
61690W        W34016   8.367   4.807  13.886
61691W        W34017  16.538  38.927   4.506
61692W        W34018   8.302  23.151   4.583
61693W        W34019   0.608  19.579  14.420
61694W        W34020  44.012   5.817  13.813
61695W        W34021  38.519  35.937   4.432
61696W        W34022  26.493  15.379   3.530
61697W        W34023  14.164   6.045  11.972
61698W        W34024  32.623  41.359  12.297
61699W        W34025  43.943   3.563   0.863
61700W        W34026   3.147  27.712  12.540
61701W        W34027  13.874  27.985   5.313
61702W        W34028  38.430  38.809  11.539
61703W        W34029  35.760  15.826   1.922
61704W        W34030   8.288  19.797  12.871
61705W        W34031  44.055  36.889  14.482
61706W        W34032   3.625   0.845  10.155
61707W        W34033  19.282  43.956   2.368
61708W        W34034   9.118   8.844  13.375
61709W        W34035   2.908  42.074  10.425
61710W        W34036  30.953  44.258  14.026
61711W        W34037  19.850  24.745   2.188
61712W        W34038  39.713  17.571   1.039
61713W        W34039  21.631  36.957  13.550
61714W        W34040  25.095  31.960   0.664
61715W        W34041   1.347  44.159   1.894
61716W        W34042  22.570  13.401  14.044
61717W        W34043   9.601  11.292   1.275
61718W        W34044  38.717  16.425  14.781
61719W        W34045  30.398  23.243   3.205
61720W        W34046  20.929  39.998  11.352
61721W        W34047  30.026   1.687  12.494
61722W        W34048  15.189   7.941   2.169
61723W        W34049   1.583   5.773   2.781
61724W        W34050  26.452   4.427   0.894
61725W        W34051  44.501  20.102  10.597
61726W        W34052  16.487   0.006  12.126
61727W        W34053  11.659  41.250  11.340
61728W        W34054  12.516  11.554  11.686
61729W        W34055  20.924   4.052  10.123
61730W        W34056  36.909   6.411   4.650
61731W        W34057  16.611   5.544   1.292
61732W        W34058   0.835  38.089  13.796
61733W        W34059   2.203  12.635   3.698
61734W        W34060  28.900   3.685   1.898
61735W        W34061  14.115  23.388   4.554
61736W        W34062   1.033  30.832  12.357
61737W        W34063  25.431  36.618   2.706
61738W        W34064  29.124  25.729  14.880
61739W        W34065  38.011   8.334  13.180
61740W        W34066  35.789  28.620   2.842
61741W        W34067  34.047   7.318   1.812
61742W        W34068  27.553   2.477  12.404
61743W        W34069  37.143   4.787  14.384
61744W        W34070  38.277  21.080   3.857
61745W        W34071   4.503   6.872  14.773
61746W        W34072  44.839  29.534  12.360
61747W        W34073  35.633  35.053   3.282
61748W        W34074  13.781  13.338   3.671
61749W        W34075   2.862   5.706   1.972
61750W        W34076  22.600  19.812   3.734
61751W        W34077  20.760  41.311   3.560
61752W        W34078  16.172   9.970   4.544
61753W        W34079   2.042  16.464   2.400
61754W        W34080  23.138   8.399  10.299
61755W        W34081  27.402   3.467   0.670
61756W        W34082   7.686  17.608   4.097
61757W        W34083  34.414  44.798   0.071
61758W        W34084  18.657  35.648   3.348
61759W        W34085  40.045  30.513  11.157
61760W        W34086  28.542  35.908  14.764
61761W        W34087  42.051   0.837  11.617
61762W        W34088  41.561  22.763  13.652
61763W        W34089   0.922  27.464   2.789
61764W        W34090  28.450  13.040  11.391
61765W        W34091   0.365  17.897  12.398
61766W        W34092  34.564  30.111   0.788
61767W        W34093  20.262  40.522   0.209
61768W        W34094  29.584  40.114  10.492
61769W        W34095  31.556  13.756   0.240
61770W        W34096  24.747  22.963   1.395
61771W        W34097   8.698  26.312  11.545
61772W        W34098  17.309  22.559   0.834
61773W        W34099   9.128  18.145   3.168
61774W        W34100   6.579  30.073  14.740
61775W        W34101   1.259  20.022  13.803
61776W        W34102  26.657  29.090  14.247
61777W        W34103  32.647  14.288   1.895
61778W        W34104  14.371  41.899   2.639
61779W        W34105  27.785  23.718   2.823
61780W        W34106  14.132  41.492   4.091
61781W        W34107  28.339  42.266   1.482
61782W        W34108  34.204  34.430  12.448
61783W        W34109  21.150  36.283   3.675
61784W        W34110  13.918  24.280   4.569
61785W        W34111  44.005  27.868   3.659
61786W        W34112  19.264   0.316   3.417
61787W        W34113   9.872   6.781   4.069
61788W        W34114  19.968  29.142  12.959
61789W        W34115  36.353  17.639  10.603
61790W        W34116  15.543  41.254   0.283
61791W        W34117   7.402   6.999   5.006
61792W        W34118  21.584   2.196  11.600
61793W        W34119  39.494  29.987   0.491
61794W        W34120   2.799   1.713   3.692
61795W        W34121  11.983  34.458   2.198
61796W        W34122   1.783  20.021   0.731
61797W        W34123  27.198   6.801   2.989
61798W        W34124  44.360   6.376   3.088
61799W        W34125  32.982  39.382  14.872
61800W        W34126  27.738  24.475   3.608
61801W        W34127  29.120  42.301  14.838
61802W        W34128  32.581  39.901   1.370
61803W        W34129  26.557  31.031  10.858
61804W        W34130  44.344  33.996  12.799
61805W        W34131  12.761  19.610   4.080
61806W        W34132  23.577  43.086   4.694
61807W        W34133  42.832  26.054   3.340
61808W        W34134  41.924  23.995  11.532
61809W        W34135  36.118  37.379  10.869
61810W        W34136   3.212  28.230  12.592
61811W        W34137   4.057  32.938  11.706
61812W        W34138  17.683  12.882   3.300
61813W        W34139  30.856  16.945  14.379
61814W        W34140  29.008  32.547   4.090
61815W        W34141   9.531  37.043   0.814
61816W        W34142  40.972  28.692   3.302
61817W        W34143  41.000   3.682   0.843
61818W        W34144  43.917  36.008  12.585
61819W        W34145  27.547  33.174  13.331
61820W        W34146  25.106  14.933  13.056
61821W        W34147  36.325  21.355   4.233
61822W        W34148   3.250  26.740  11.063
61823W        W34149  23.976  23.532   4.628
61824W        W34150   0.549   9.170   2.097
61825W        W34151  27.365  13.204  13.419
61826W        W34152  38.523  23.152   4.165
61827W        W34153  21.319  10.242   0.886
61828W        W34154  41.956   1.808  12.196
61829W        W34155   2.028  23.606   4.038
61830W        W34156  35.496  35.804   4.992
61831W        W34157  37.442  27.824   1.875
61832W        W34158  14.825  21.672   1.407
61833W        W34159  40.888  12.207   0.699
61834W        W34160   1.438  32.347  11.118
61835W        W34161  41.185  17.742  11.128
61836W        W34162  38.163  35.509   1.774
61837W        W34163  14.666  11.251  11.721
61838W        W34164  24.267   2.400  12.035
61839W        W34165  32.020   1.449  13.930
61840W        W34166  26.185  30.083   2.290
61841W        W34167  21.612  19.163   4.434
61842W        W34168   4.191  10.360   3.719
61843W        W34169   0.902  24.471  12.504
61844W        W34170  13.164  38.895  12.091
61845W        W34171   8.931  41.073   1.316
61846W        W34172  28.663   6.713  14.446
61847W        W34173   5.397  37.488   4.110
61848W        W34174   1.246   6.208  13.361
61849W        W34175   7.716  21.030  13.843
61850W        W34176  37.348  10.251   0.377
61851W        W34177   1.448   7.085  11.709
61852W        W34178   8.305  25.991  14.486
61853W        W34179  39.060  24.030  14.307
61854W        W34180  37.428  39.602  14.501
61855W        W34181  19.999   5.114   1.731
61856W        W34182  29.135   2.746   3.433
61857W        W34183  17.192  24.534   3.529
61858W        W34184  22.949  13.384   3.719
61859W        W34185  14.622   7.696  11.641
61860W        W34186  33.571  42.595   2.459
61861W        W34187   4.686   7.455   2.881
61862W        W34188  41.559  28.553   1.810
61863W        W34189  44.534  33.991   1.397
61864W        W34190   4.201  44.924   0.666
61865W        W34191   8.844  44.030  14.025
61866W        W34192  25.381  44.447  11.659
61867W        W34193  23.829  30.963  12.465
61868W        W34194  21.697   6.208   9.987
61869W        W34195  41.337  40.489   0.841
61870W        W34196  20.474   8.358  13.010
61871W        W34197  11.761  27.087  14.723
61872W        W34198  44.797  15.223   1.273
61873W        W34199  43.126   0.659   2.050
61874W        W34200  24.873  37.491  14.907
61875W        W34201  24.095  23.775   0.304
61876W        W34202  34.585  41.805   1.232
61877W        W34203  13.344  31.623   1.312
61878W        W34204   1.895   2.486   2.153
61879W        W34205  17.149  14.370  10.112
61880W        W34206  22.776  36.628  11.625
61881W        W34207  17.935  41.264  13.216
61882W        W34208   2.347  27.905   0.872
61883W        W34209  34.863  36.007  10.173
61884W        W34210  27.933  30.180   2.713
61885W        W34211  25.984  29.028   0.733
61886W        W34212  16.977  27.489   0.884
61887W        W34213  37.820  35.143   1.741
61888W        W34214   0.696  34.407  14.145
61889W        W34215  34.382  39.624   4.578
61890W        W34216   4.489  24.907  11.285
61891W        W34217  30.033  12.599   3.348
61892W        W34218   4.424   8.405   1.825
61893W        W34219  39.387  41.142  12.304
61894W        W34220  39.929  23.925   0.246
61895W        W34221  32.087   5.825  13.078
61896W        W34222  34.917  27.736  11.104
61897W        W34223  28.417   1.714  12.037
61898W        W34224  30.392   7.434   1.298
61899W        W34225  31.821  34.291  13.965
61900W        W34226  22.586  15.608  12.413
61901W        W34227  25.934  28.885   1.702
61902W        W34228  34.232  38.891  12.135
61903W        W34229  16.789  10.806  12.406
61904W        W34230   6.504   9.988   9.783
61905W        W34231   1.425  35.183   1.127
61906W        W34232  40.138  36.878   2.692
61907W        W34233  34.694   5.184   0.892
61908W        W34234   0.319  39.366   3.755
61909W        W34235   1.474  29.082   3.852
61910W        W34236  12.630  25.590   2.307
61911W        W34237  34.535  35.517  12.462
61912W        W34238   6.946  16.368  12.027
61913W        W34239   8.548  38.192  12.484
61914W        W34240  30.720  29.100   1.687
61915W        W34241  36.429   1.400  11.516
61916W        W34242   3.531  15.272  12.952
61917W        W34243  17.306  16.132   3.117
61918W        W34244   0.347  30.853   2.319
61919W        W34245   8.719  28.534  11.805
61920W        W34246  16.419  21.803  13.548
61921W        W34247  38.801  27.156   0.369
61922W        W34248  13.126  24.583   0.684
61923W        W34249  18.502  40.427   3.182
61924W        W34250  19.230  34.007  11.559
61925W        W34251  42.384  20.689  10.730
61926W        W34252  22.004  39.982  12.127
61927W        W34253  32.327  16.339   4.057
61928W        W34254   1.770   9.290   2.789
61929W        W34255  19.441  24.334  12.042
61930W        W34256  25.147  19.161   0.030
61931W        W34257  29.141  36.379   4.355
61932W        W34258  25.407  25.030   0.779
61933W        W34259  30.511  28.153   3.647
61934W        W34260  43.268  25.003  14.495
61935W        W34261  36.930  27.571   0.693
61936W        W34262   5.767  18.386  10.844
61937W        W34263  35.766  28.131  12.512
61938W        W34264  10.763  35.030   1.655
61939W        W34265   7.213  40.104   2.413
61940W        W34266  34.442  27.995  11.314
61941W        W34267  30.627  15.042   3.503
61942W        W34268  42.349  31.720   2.308
61943W        W34269  29.988  34.247   2.119
61944W        W34270  44.387  29.629   0.849
61945W        W34271  22.315  35.763  14.457
61946W        W34272  14.588  28.520  11.577
61947W        W34273  18.164   9.349   0.454
61948W        W34274  37.956  10.374   4.727
61949W        W34275  41.525   1.779   2.805
61950W        W34276  34.854  40.405   2.252
61951W        W34277  36.329   4.914  14.852
61952W        W34278  39.758  37.826   2.268
61953W        W34279  10.773  35.685  14.280
61954W        W34280  31.119  21.108  13.013
61955W        W34281  29.814   6.833  12.016
61956W        W34282  39.484  36.701  11.885
61957W        W34283  18.508  14.535  14.400
61958W        W34284  11.401  38.978   1.167
61959W        W34285  29.689  33.494  14.090
61960W        W34286   9.882  43.262   2.864
61961W        W34287  33.435  42.811   9.778
61962W        W34288  18.064  12.357  14.838
61963W        W34289   8.473  14.358   2.845
61964W        W34290  28.023   4.694  10.328
61965W        W34291  24.133   7.928   2.697
61966W        W34292  23.594  39.557  13.938
61967W        W34293  23.279   4.208   1.831
61968W        W34294  13.933  24.235   0.466
61969W        W34295  44.434  31.483   1.272
61970W        W34296  12.813  33.328   4.203
61971W        W34297  12.644   0.875   1.923
61972W        W34298  30.692  27.102  11.673
61973W        W34299  40.394  37.500   5.269
61974W        W34300  32.565   3.390  10.720
61975W        W34301  28.040   6.326   3.586
61976W        W34302  43.000  39.168   4.550
61977W        W34303   9.853  24.055   3.168
61978W        W34304  18.189  41.358   0.134
61979W        W34305  10.865  14.190  13.972
61980W        W34306   2.228  36.838   1.149
61981W        W34307  38.324   1.387  11.069
61982W        W34308   5.207  29.984   1.374
61983W        W34309   6.842   7.799  11.204
61984W        W34310  12.920  22.785   3.967
61985W        W34311   7.332  11.869  14.605
61986W        W34312  18.636  11.650   1.289
61987W        W34313  14.678  42.401  12.104
61988W        W34314   6.228  34.040   2.142
61989W        W34315  15.349  40.168   2.282
61990W        W34316  11.773  37.369   5.016
61991W        W34317  37.055   8.888  13.479
61992W        W34318  18.760  29.015   1.242
61993W        W34319   3.677   9.669  12.037
61994W        W34320  26.909  43.873  11.962
61995W        W34321  29.981  30.172  13.418
61996W        W34322  28.451  13.727  13.370
61997W        W34323  23.446  24.120   3.749
61998W        W34324  28.349  41.356   3.474
61999W        W34325  27.914  24.179   0.947
62000W        W34326  41.715   2.347   3.715
62001W        W34327   0.275  42.100  12.672
62002W        W34328  35.977  41.359  13.940
62003W        W34329  15.147   1.858  13.368
62004W        W34330  26.997   3.669   0.926
62005W        W34331  39.994  41.894  11.593
62006W        W34332  42.814  11.831   3.665
62007W        W34333   6.755   3.206   1.795
62008W        W34334  10.887  41.030   2.368
62009W        W34335   8.545  38.075   2.178
62010W        W34336  40.193  35.890   5.248
62011W        W34337  19.839  42.354  12.495
62012W        W34338   1.704  26.981  14.347
62013W        W34339  26.285  19.472  12.345
62014W        W34340  29.405  41.859   4.159
62015W        W34341  23.109  11.260   0.472
62016W        W34342  13.887  42.285  12.594
62017W        W34343  31.333   2.118   3.233
62018W        W34344   8.939  13.861  12.885
62019W        W34345  15.212  12.613   1.905
62020W        W34346  22.537  13.307   1.407
62021W        W34347  31.377  16.792  10.970
62022W        W34348  32.094  33.899   0.463
62023W        W34349  42.357  21.427   1.944
62024W        W34350  10.859   8.801  11.658
62025W        W34351  29.633  43.946   4.169
62026W        W34352  40.022  36.957  13.456
62027W        W34353  25.281  35.892   0.893
62028W        W34354  19.499  22.746  14.151
62029W        W34355   0.692   3.824  14.672
62030W        W34356  14.682  29.403  14.929
62031W        W34357  13.267  22.216  14.884
62032W        W34358  22.588  31.796   1.857
62033W        W34359   1.198  16.679   3.419
62034W        W34360  36.684  34.027  12.172
62035W        W34361  21.242   7.285   4.549
62036W        W34362  24.700  39.390  12.433
62037W        W34363   6.221  21.328  10.752
62038W        W34364   3.263  15.738  12.112
62039W        W34365  28.404  40.493   2.632
62040W        W34366  27.589  22.751  13.816
62041W        W34367  16.780  25.796   2.708
62042W        W34368  25.082  25.198   1.147
62043W        W34369  16.537  33.565   4.792
62044W        W34370  38.444  13.314   4.538
62045W        W34371  37.022  28.447   2.283
62046W        W34372   4.943  25.116  14.416
62047W        W34373  27.491  44.034  13.577
62048W        W34374  12.552  11.901  13.838
62049W        W34375  39.296  27.866  13.044
62050W        W34376  44.321  39.469   3.868
62051W        W34377   4.293  26.363   3.718
62052W        W34378   5.674  29.146  13.284
62053W        W34379  16.781   2.757   1.923
62054W        W34380  19.678  17.528   4.224
62055W        W34381   6.547  26.315   5.000
62056W        W34382  29.949  28.134   5.415
62057W        W34383  27.629  18.876  14.016
62058W        W34384   0.892  38.002  14.769
62059W        W34385  24.226  37.230   2.172
62060W        W34386  16.396  31.409  13.336
62061W        W34387   2.959  16.034   2.250
62062W        W34388   4.860  36.022  14.992
62063W        W34389   0.504   5.106   1.463
62064W        W34390  30.591  15.739   1.965
62065W        W34391  15.628   3.948  11.086
62066W        W34392  19.524  32.889   0.768
62067W        W34393  18.752   3.270   1.208
62068W        W34394  35.476  30.734  14.514
62069W        W34395   8.125  43.868   4.191
62070W        W34396  38.432  17.540   4.505
62071W        W34397  30.900  19.756   3.467
62072W        W34398  14.380  41.320  12.560
62073W        W34399   8.544  39.798   1.011
62074W        W34400  26.572   5.333  13.354
62075W        W34401  31.124  32.473  12.464
62076W        W34402  23.531  13.749  11.987
62077W        W34403  19.524  34.331  13.494
62078W        W34404  40.892  44.887  14.198
62079W        W34405  17.633   7.735  11.910
62080W        W34406  16.911  39.305   4.618
62081W        W34407  18.606   9.367  10.719
62082W        W34408  44.242  33.594  11.468
62083W        W34409  33.722  35.027   0.778
62084W        W34410  30.962  35.849   2.277
62085W        W34411  40.931   5.209  10.813
62086W        W34412   3.849  29.966  14.778
62087W        W34413   3.713  28.696   2.878
62088W        W34414  21.207   8.262  13.700
62089W        W34415  37.073  16.520   2.340
62090W        W34416  37.339   4.462   3.702
62091W        W34417  23.629   4.298  12.574
62092W        W34418   5.889  43.558   4.213
62093W        W34419  28.464  13.627   1.478
62094W        W34420   8.965   4.217   0.935
62095W        W34421  10.050  28.777   0.716
62096W        W34422  19.666  18.013  12.525
62097W        W34423  15.234  33.188   3.205
62098W        W34424  38.531  31.403  14.783
62099W        W34425  17.226  27.688  10.764
62100W        W34426  22.085  32.442  11.982
62101W        W34427  21.686  15.107  11.341
62102W        W34428  29.065  25.502  11.402
62103W        W34429  11.102  38.545  11.053
62104W        W34430  25.148  14.187   3.719
62105W        W34431  42.968  13.274   3.703
62106W        W34432  43.644  41.429   2.378
62107W        W34433  38.068  28.988   4.951
62108W        W34434  16.298  19.671  11.079
62109W        W34435  30.953  11.315   1.239
62110W        W34436  37.144  33.785   3.299
62111W        W34437  29.486   6.629  14.697
62112W        W34438  34.980  19.543  10.327
62113W        W34439  18.214  26.623   1.832
62114W        W34440   2.415  26.071   1.966
62115W        W34441  36.890  43.325   1.760
62116W        W34442  15.549  32.326  14.880
62117W        W34443  36.236  34.499   5.056
62118W        W34444  39.619  43.978  14.590
62119W        W34445  17.226  36.572   0.024
62120W        W34446  35.981  41.636  14.428
62121W        W34447  15.086  14.698   0.988
62122W        W34448  26.117   4.674  13.234
62123W        W34449  35.979  37.838  13.339
62124W        W34450  33.396   3.798   3.367
62125W        W34451  15.406   9.439  12.600
62126W        W34452  18.677  21.663  14.717
62127W        W34453  10.916  13.808   3.085
62128W        W34454   6.975  40.922  14.323
62129W        W34455  27.146   3.908   1.912
62130W        W34456  20.015  41.023   1.424
62131W        W34457  21.727   3.850   2.948
62132W        W34458   8.778   9.614   0.287
62133W        W34459  14.611   5.857  11.718
62134W        W34460  44.282   6.873   3.219
62135W        W34461  21.163  22.446  14.415
62136W        W34462  16.373  20.202  12.656
62137W        W34463  31.072   0.456  12.971
62138W        W34464   9.275  17.465  14.310
62139W        W34465  14.368   8.886   0.287
62140W        W34466  37.623   9.787   0.494
62141W        W34467  35.481   7.562   4.457
62142W        W34468  34.858  44.041   4.923
62143W        W34469  34.473   0.975   3.949
62144W        W34470  29.024  34.512   0.965
62145W        W34471   3.300   2.780   1.879
62146W        W34472   5.668  43.230  13.165
62147W        W34473  29.191  25.788  14.053
62148W        W34474  33.661   0.585  13.853
62149W        W34475  24.557  43.198   2.126
62150W        W34476  42.395  32.027   1.321
62151W        W34477  38.959  28.946  14.845
62152W        W34478  40.896  28.734  10.787
62153W        W34479   3.878   2.861   3.162
62154W        W34480  23.148  31.327  11.099
62155W        W34481  18.594   4.306  14.904
62156W        W34482   0.386  31.838  12.917
62157W        W34483  44.941   6.902  13.990
62158W        W34484  41.906  40.388   2.071
62159W        W34485  27.455  19.973   2.695
62160W        W34486  38.161  20.629   2.146
62161W        W34487   7.780  21.669   2.490
62162W        W34488   9.066  39.826   4.860
62163W        W34489  18.550  21.174  14.908
62164W        W34490  33.597   2.544  13.954
62165W        W34491   2.395  18.125  11.200
62166W        W34492  16.756   8.551   3.409
62167W        W34493  36.437  34.034   2.790
62168W        W34494  20.629  19.320   0.836
62169W        W34495  10.875  16.696   4.007
62170W        W34496   0.855  37.463   1.203
62171W        W34497  25.605  38.442  14.513
62172W        W34498  15.298  35.144  11.096
62173W        W34499  24.068  16.454  10.884
62174W        W34500  42.073   3.690   2.158
62175W        W34501  22.562   3.401  10.365
62176W        W34502   5.375  23.768  13.584
62177W        W34503  29.152  21.422  14.754
62178W        W34504  44.045   6.088  13.320
62179W        W34505  33.180  16.461  10.947
62180W        W34506   5.926  34.609   0.038
62181W        W34507  22.042  38.452   0.377
62182W        W34508  23.761  35.845  11.170
62183W        W34509   6.792  10.906   0.102
62184W        W34510   4.722  36.546  14.586
62185W        W34511   8.281   5.420   2.152
62186W        W34512  13.122   2.245   4.595
62187W        W34513   1.664  35.808   3.677
62188W        W34514  29.473  18.185  12.225
62189W        W34515  22.998   9.232  11.139
62190W        W34516  15.673  22.542  11.239
62191W        W34517  22.269   2.475  13.803
62192W        W34518  25.559   9.610  13.874
62193W        W34519  27.706  37.401   5.104
62194W        W34520  42.508  23.007   4.615
62195W        W34521   0.431  16.664   2.801
62196W        W34522  17.132  13.330   1.790
62197W        W34523  11.721   5.542  14.304
62198W        W34524  12.607  43.715  12.419
62199W        W34525   2.725  23.506  11.128
62200W        W34526   7.996  37.268  13.516
62201W        W34527  44.874  14.219  13.725
62202W        W34528  13.043  21.676   1.739
62203W        W34529  43.227   1.911  14.467
62204W        W34530  36.565  29.289   0.497
62205W        W34531  19.178   7.645  10.597
62206W        W34532  39.027  34.835  11.599
62207W        W34533  17.732  33.977   4.662
62208W        W34534  36.435  42.153   4.531
62209W        W34535   4.623  38.424  12.384
62210W        W34536  40.261  36.015   0.491
62211W        W34537  32.949   9.963   0.804
62212W        W34538  21.703  12.245  13.625
62213W        W34539  13.825  39.077  14.982
62214W        W34540   9.202  19.737   0.435
62215W        W34541   4.688   5.714   1.000
62216W        W34542  20.191   1.019   2.208
62217W        W34543  20.168  38.457   4.867
62218W        W34544  18.273  39.122   3.183
62219W        W34545  12.622  35.877  14.725
62220W        W34546  36.044  19.117   0.939
62221W        W34547  21.959   6.160   3.996
62222W        W34548   6.186  42.615   2.751
62223W        W34549  44.235  41.859   1.852
62224W        W34550  40.306   0.954  14.473
62225W        W34551  21.967  29.225  11.140
62226W        W34552   6.633  23.944  13.378
62227W        W34553  31.889  26.793   3.947
62228W        W34554   2.224  37.329   4.279
62229W        W34555  15.877  32.297   3.345
62230W        W34556  24.573  17.393   1.762
62231W        W34557  15.168  15.045  11.980
62232W        W34558  28.087  43.125  11.532
62233W        W34559  25.496  40.905   2.626
62234W        W34560  18.355  28.540  13.854
62235W        W34561  41.848  44.549   2.400
62236W        W34562  33.059   5.388   2.160
62237W        W34563  13.952  29.075   3.738
62238W        W34564  27.762   1.352   2.712
62239W        W34565   4.202  14.258   3.663
62240W        W34566  12.512  15.911  11.390
62241W        W34567  24.883  36.248  10.596
62242W        W34568  34.454  37.681   0.812
62243W        W34569  38.061   5.034  13.828
62244W        W34570  28.925  29.424  14.422
62245W        W34571  19.887  16.255  12.048
62246W        W34572  35.399  40.428   2.268
62247W        W34573  34.449  23.712   4.128
62248W        W34574  41.411  21.718  11.638
62249W        W34575   3.283  10.850  12.885
62250W        W34576  31.942   3.707   2.771
62251W        W34577  29.819  12.303  11.510
62252W        W34578  43.852   7.485  12.123
62253W        W34579  40.475  26.996  12.978
62254W        W34580  19.232  28.548  14.446
62255W        W34581  26.434  15.648  11.956
62256W        W34582   7.122   8.183  12.076
62257W        W34583  35.365  29.983   3.979
62258W        W34584  20.797   5.228   4.151
62259W        W34585  43.240  29.463   1.442
62260W        W34586   9.794  28.972  11.172
62261W        W34587  37.065   1.918   1.425
62262W        W34588   0.881  11.515   3.686
62263W        W34589  18.524  11.122   3.612
62264W        W34590  36.763  16.077   3.564
62265W        W34591  26.808  41.086   2.346
62266W        W34592  10.271  44.566  12.865
62267W        W34593  19.285   5.669   3.673
62268W        W34594   4.922  41.216  14.408
62269W        W34595   4.171  39.083   2.647
62270W        W34596   0.718  26.981  11.569
62271W        W34597  39.778  11.887   9.789
62272W        W34598  19.064  15.317  10.645
62273W        W34599   9.255  12.742  12.316
62274W        W34600   2.722  25.207  13.024
62275W        W34601  24.483  28.632   1.266
62276W        W34602   7.327  12.275  13.371
62277W        W34603  14.245  12.969   3.297
62278W        W34604  22.761  14.528  12.564
62279W        W34605   6.728  24.133   2.416
62280W        W34606   1.441  37.481  10.758
62281W        W34607   0.779  31.600   1.417
62282W        W34608   5.674  38.408   3.632
62283W        W34609  42.924  31.271   0.873
62284W        W34610  42.106  36.749  12.555
62285W        W34611  38.773  32.073   1.871
62286W        W34612  19.952  12.740  13.428
62287W        W34613   8.725  32.017   2.903
62288W        W34614   0.249  44.731  11.499
62289W        W34615   1.712  28.367  11.731
62290W        W34616  38.232   2.291   4.160
62291W        W34617  25.997  25.459  12.104
62292W        W34618  33.486   2.791   2.652
62293W        W34619  17.633  30.126   3.420
62294W        W34620   5.616   1.023  14.538
62295W        W34621   9.287  12.253  13.528
62296W        W34622  32.004   9.373  10.455
62297W        W34623  43.451  12.105   0.203
62298W        W34624   5.459   7.540  13.094
62299W        W34625  33.613  27.897   0.595
62300W        W34626  11.716  23.256  14.498
62301W        W34627  41.773  11.161   0.982
62302W        W34628  27.418  20.934  11.986
62303W        W34629  18.098  30.182   3.711
62304W        W34630  24.851  43.090  14.050
62305W        W34631  31.921   2.884  13.801
62306W        W34632  33.863  44.875   3.088
62307W        W34633  34.778   9.268   2.760
62308W        W34634  19.177  14.174   0.785
62309W        W34635  23.149  20.607   3.983
62310W        W34636  15.580  15.744  13.953
62311W        W34637  21.257  40.744  13.536
62312W        W34638   5.485   6.165   0.562
62313W        W34639  10.648  38.895   4.747
62314W        W34640   5.688  38.957   4.099
62315W        W34641  15.842  13.502  10.624
62316W        W34642  19.750   7.167   4.784
62317W        W34643  29.231  41.453   2.989
62318W        W34644  12.152  18.142   1.790
62319W        W34645  18.778   3.615  12.086
62320W        W34646  16.283  17.784   0.007
62321W        W34647  16.789   6.304   3.703
62322W        W34648  31.201   5.725  11.545
62323W        W34649  29.031  22.244  12.164
62324W        W34650   9.204  13.165   0.998
62325W        W34651  14.038  12.137   2.832
62326W        W34652  18.863  21.053   1.191
62327W        W34653  15.877  14.733   3.051
62328W        W34654  40.556  31.830   1.457
62329W        W34655  32.268   8.031   1.419
62330W        W34656  37.313  35.873  10.805
62331W        W34657  36.842  13.816  12.589
62332W        W34658  34.482  28.430  14.013
62333W        W34659  31.951  11.573   2.245
62334W        W34660   0.240  20.673  13.408
62335W        W34661  20.395   2.458  14.715
62336W        W34662  18.796  15.714   1.896
62337W        W34663  26.787  22.066   1.448
62338W        W34664  32.112  11.831   3.225
62339W        W34665   2.024  36.952   3.419
62340W        W34666   5.321   9.232  12.174
62341W        W34667  38.473  38.937   0.516
62342W        W34668  34.537   2.455   0.617
62343W        W34669  37.179  20.585   1.831
62344W        W34670  36.889   1.130  14.212
62345W        W34671  25.021  22.788  14.311
62346W        W34672  34.616  11.693   4.189
62347W        W34673  19.647  43.572   2.466
62348W        W34674  21.181  16.221  11.584
62349W        W34675  10.119  26.666   4.903
62350W        W34676  33.408  30.631   1.857
62351W        W34677  29.550  19.322   3.180
62352W        W34678  16.100  16.631  14.768
62353W        W34679  31.900  44.006   3.677
62354W        W34680  25.344  20.011  12.334
62355W        W34681  19.452  21.970   2.309
62356W        W34682  11.770  26.612  12.468
62357W        W34683   9.664  38.686   1.927
62358W        W34684   0.877  43.334   1.797
62359W        W34685  26.677  11.767   0.032
62360W        W34686  12.891  34.587   2.725
62361W        W34687  25.091  37.794  10.466
62362W        W34688  38.920  37.498   2.754
62363W        W34689  30.137   2.762   0.866
62364W        W34690  17.601  37.074   2.911
62365W        W34691  26.596  38.820   1.833
62366W        W34692  37.411   1.630   3.079
62367W        W34693  32.747  37.924   2.822
62368W        W34694   0.972  24.708   2.150
62369W        W34695   7.636  11.357   4.592
62370W        W34696  18.631  43.545   4.557
62371W        W34697  42.137  24.155   2.315
62372W        W34698  34.090   3.487  11.876
62373W        W34699  12.299  11.767   4.514
62374W        W34700  10.071  41.394  13.124
62375W        W34701  17.777  38.353  14.870
62376W        W34702  21.152  38.381   5.164
62377W        W34703  30.885  24.592  13.382
62378W        W34704  41.991  30.668   3.482
62379W        W34705  40.787  23.625  13.834
62380W        W34706  17.730  27.516  12.565
62381W        W34707   0.928   9.320   3.187
62382W        W34708  39.865  20.563  14.479
62383W        W34709   3.331  43.309  10.753
62384W        W34710   5.490   3.312   4.513
62385W        W34711  11.592  27.059   2.253
62386W        W34712  43.315  19.974  14.044
62387W        W34713   6.408   9.751  10.623
62388W        W34714  26.981   2.238   1.014
62389W        W34715  42.822   7.737   2.456
62390W        W34716  10.105   8.947  12.394
62391W        W34717   3.184  25.648   0.361
62392W        W34718  39.437  31.323  11.044
62393W        W34719  36.180  27.467  14.493
62394W        W34720  18.539   2.856  14.310
62395W        W34721  16.270  29.482  11.920
62396W        W34722  26.833  35.299  10.705
62397W        W34723   4.528  44.918   3.380
62398W        W34724  33.472   1.953   4.636
62399W        W34725  24.303  34.174  11.707
62400W        W34726  36.895   7.757   0.782
62401W        W34727  20.549  23.680  11.158
62402W        W34728  42.984  27.596   0.940
62403W        W34729  25.186  36.920   3.695
62404W        W34730  17.292  35.161   3.818
62405W        W34731  24.670  28.981   4.871
62406W        W34732  11.238  21.661   3.944
62407W        W34733  44.988   8.785  14.095
62408W        W34734  10.002  16.174  10.850
62409W        W34735  33.821  39.427   0.941
62410W        W34736  22.505  13.179   3.478
62411W        W34737  43.513  19.803  10.609
62412W        W34738  10.849  42.281  14.577
62413W        W34739  21.574  30.404  12.585
62414W        W34740  16.594   9.073  14.558
62415W        W34741  35.815   5.034   2.325
62416W        W34742  20.236  29.936   3.210
62417W        W34743  25.056  26.219  14.434
62418W        W34744  37.501  10.556  11.117
62419W        W34745   6.816  41.254  13.938
62420W        W34746  16.029  39.900  14.753
62421W        W34747  25.559  30.313  12.895
62422W        W34748  23.202  14.703   0.872
62423W        W34749  40.324  35.742   3.918
62424W        W34750  31.532   4.799   3.695
62425W        W34751  13.866  37.605  11.879
62426W        W34752  28.166   9.223  13.368
62427W        W34753   9.891  27.909  13.957
62428W        W34754   2.683  18.420   3.217
62429W        W34755  24.917   4.098  14.299
62430W        W34756  23.542  39.054  12.974
62431W        W34757  24.447  10.830  10.756
62432W        W34758  39.138   1.543  11.562
62433W        W34759   1.699   8.292   0.171
62434W        W34760  26.626  41.908  10.641
62435W        W34761   8.853   3.717  12.315
62436W        W34762  13.674  13.146   3.218
62437W        W34763  34.499  39.286  12.344
62438W        W34764   9.552   4.852   1.856
62439W        W34765  30.452  31.601   0.009
62440W        W34766  22.655  16.568   4.099
62441W        W34767  36.548  13.750   4.395
62442W        W34768  12.295   7.225  14.368
62443W        W34769  16.715  27.259  12.875
62444W        W34770  22.707  10.268   1.094
62445W        W34771  18.237   2.774  13.026
62446W        W34772  15.304  33.812   0.943
62447W        W34773  37.618  13.746   1.365
62448W        W34774  20.704  19.074   0.386
62449W        W34775  32.072   0.919   4.113
62450W        W34776  10.819  39.127  12.918
62451W        W34777  18.608  34.410   4.485
62452W        W34778  40.386  14.857   0.882
62453W        W34779   7.701  40.182  13.034
62454W        W34780  23.534  31.413   0.377
62455W        W34781  19.010  19.242  12.642
62456W        W34782  22.581  20.501   2.662
62457W        W34783  39.334  21.564   4.059
62458W        W34784  35.582   3.812   2.574
62459W        W34785  31.120  38.389   3.754
62460W        W34786  15.083  14.082  12.019
62461W        W34787   4.390  21.852   5.021
62462W        W34788   6.268  41.427  10.663
62463W        W34789  17.117   5.503   3.899
62464W        W34790  28.126  24.759   1.817
62465W        W34791  39.558  41.788   1.564
62466W        W34792  43.013  11.988  12.493
62467W        W34793   8.282  13.601  12.114
62468W        W34794  34.002  28.589   3.235
62469W        W34795  27.084  30.511  14.821
62470W        W34796  38.040  14.666   4.601
62471W        W34797   1.394   7.015   1.308
62472W        W34798  44.979  37.853   5.014
62473W        W34799  34.066  41.253  10.412
62474W        W34800  17.645   8.278  13.089
62475W        W34801   9.671  31.576  13.095
62476W        W34802  37.637  29.260   4.772
62477W        W34803  14.142   6.287  12.456
62478W        W34804  32.004  26.609  13.339
62479W        W34805  31.667  19.644   2.779
62480W        W34806  31.863   8.191  12.094
62481W        W34807  28.144  41.954  11.224
62482W        W34808  19.534  32.439   1.005
62483W        W34809   3.776  30.124  12.837
62484W        W34810  17.186  14.061  14.762
62485W        W34811  37.610   9.572  14.406
62486W        W34812   1.826  40.291   4.060
62487W        W34813  35.527  28.700   1.407
62488W        W34814  13.320  28.136  12.568
62489W        W34815  26.446  32.846   2.198
62490W        W34816  38.779  36.525   2.623
62491W        W34817  15.289  34.080   1.854
62492W        W34818  28.184   0.775  13.409
62493W        W34819  14.821  19.147  13.441
62494W        W34820  13.214  12.309   3.847
62495W        W34821  23.110  33.638   0.959
62496W        W34822  29.303  36.044   3.173
62497W        W34823  41.423  37.327   4.378
62498W        W34824  23.751   5.689  12.051
62499W        W34825   2.991  36.402   4.623
62500W        W34826   1.648  25.600  13.479
62501W        W34827  25.622   8.644   0.980
62502W        W34828   4.910  30.275   4.536
62503W        W34829  23.619  22.170   4.828
62504W        W34830  21.464  44.789  12.034
62505W        W34831  28.381  15.708   2.206
62506W        W34832  27.762  30.658  11.947
62507W        W34833  19.949  39.049   3.615
62508W        W34834  44.617   9.684   9.748
62509W        W34835  21.763   0.707  12.598
62510W        W34836   5.138  23.097   0.511
62511W        W34837  12.741  42.289   0.393
62512W        W34838  36.434  34.512  14.242
62513W        W34839  35.250   2.426  12.483
62514W        W34840  25.488  32.652  10.423
62515W        W34841  25.248  26.820  12.804
62516W        W34842  34.150  13.239  11.032
62517W        W34843   3.001  38.500   4.742
62518W        W34844  40.202  37.089  10.506
62519W        W34845  35.209  19.679  10.783
62520W        W34846   0.049   1.874   1.404
62521W        W34847  29.954   9.626   4.657
62522W        W34848  23.939  41.737  12.056
62523W        W34849  13.823  32.085   0.728
62524W        W34850  37.034  33.597   4.557
62525W        W34851  16.699  42.047   1.850
62526W        W34852   6.800   0.223   0.917
62527W        W34853  26.420  24.539   2.491
62528W        W34854  25.617   7.358  13.306
62529W        W34855  17.002   4.389   0.271
62530W        W34856   3.991  24.518  14.731
62531W        W34857  44.297   1.221   4.204
62532W        W34858  14.262  21.658  10.424
62533W        W34859  42.159  26.411   1.787
62534W        W34860  41.713  20.965  11.252
62535W        W34861   0.147  27.970   4.081
62536W        W34862  44.675  32.536  11.654
62537W        W34863  22.001  30.441   1.332
62538W        W34864  11.735  32.463  10.424
62539W        W34865  42.146   1.702  12.715
62540W        W34866  21.692  28.493   3.152
62541W        W34867  31.372  35.909   4.277
62542W        W34868   0.992  37.955   1.232
62543W        W34869  36.426  41.531  12.547
62544W        W34870  39.007  24.929   3.873
62545W        W34871   5.423  41.367   4.284
62546W        W34872   4.032   4.463  10.239
62547W        W34873  33.116  34.394  11.717
62548W        W34874  43.416  20.174  12.040
62549W        W34875  25.943   7.937   2.749
62550W        W34876  10.728  17.018   0.582
62551W        W34877  44.000  15.852  14.267
62552W        W34878  19.024  28.053  14.400
62553W        W34879   8.730   0.766  12.593
62554W        W34880  30.976  39.446   0.787
62555W        W34881  23.236  29.942  14.852
62556W        W34882  38.466  40.071   3.782
62557W        W34883  20.126  27.230   1.925
62558W        W34884  29.866  15.080  13.879
62559W        W34885   1.015  34.918   2.873
62560W        W34886  30.369  25.077  10.834
62561W        W34887  31.999  15.724   3.140
62562W        W34888  38.767   5.194  14.510
62563W        W34889  13.896  10.073   4.331
62564W        W34890  30.094   4.646   1.395
62565W        W34891  30.730  22.799   3.104
62566W        W34892  39.777  30.420   0.581
62567W        W34893  42.902  24.042   3.585
62568W        W34894  24.979  42.492  10.946
62569W        W34895  14.580   8.472   0.522
62570W        W34896  30.286  11.598   4.669
62571W        W34897   0.790   8.508  10.844
62572W        W34898  27.283   9.465  13.415
62573W        W34899  10.919  18.160   3.348
62574W        W34900  25.240  32.448  10.858
62575W        W34901  29.887  10.420   0.771
62576W        W34902   5.405  38.046   0.987
62577W        W34903  33.117  15.122   1.439
62578W        W34904  25.825  26.972   4.950
62579W        W34905   1.755   4.324   1.684
62580W        W34906   4.760   2.974  12.972
62581W        W34907  27.144  27.696   2.594
62582W        W34908  33.051  22.209  10.625
62583W        W34909  17.004  17.236   2.172
62584W        W34910  42.945  41.332  12.382
62585W        W34911  42.945  15.193   0.775
62586W        W34912  22.751  36.056  14.384
62587W        W34913  24.952   7.249  10.770
62588W        W34914  13.494  35.291  11.821
62589W        W34915   3.265   2.427  13.000
62590W        W34916  20.303  43.073  14.918
62591W        W34917  44.016  23.739  11.089
62592W        W34918  21.627  13.097   0.976
62593W        W34919  29.003  23.398   4.128
62594W        W34920  40.340  15.389   0.862
62595W        W34921  27.041  37.351   0.775
62596W        W34922  14.301  43.601  14.812
62597W        W34923  14.035   0.945  13.930
62598W        W34924  10.967  19.920  14.302
62599W        W34925   8.282  35.749  11.121
62600W        W34926   4.343  15.789   2.681
62601W        W34927   2.156  11.714  10.185
62602W        W34928   5.888  36.358   2.446
62603W        W34929  27.965  22.163  10.889
62604W        W34930  44.208  40.045  10.159
62605W        W34931   3.209  32.235   0.760
62606W        W34932   8.321  34.911   0.911
62607W        W34933  32.448   0.826  13.521
62608W        W34934  35.887  11.378  13.936
62609W        W34935  23.709  15.826   4.098
62610W        W34936  42.859  24.640   4.355
62611W        W34937  39.195   2.920   2.822
62612W        W34938  23.549  20.287  11.179
62613W        W34939  28.750  16.342   0.281
62614W        W34940  35.560   5.711   1.048
62615W        W34941  10.414   8.203   3.276
62616W        W34942  28.994   7.939   4.585
62617W        W34943  28.506  40.860   4.794
62618W        W34944  44.708   5.972   3.102
62619W        W34945   8.817  26.642   4.952
62620W        W34946  19.571  21.461   4.748
62621W        W34947   2.460  20.497   0.341
62622W        W34948  27.987  22.264   4.854
62623W        W34949  27.888   6.255   2.636
62624W        W34950  40.633  26.569   5.173
62625W        W34951  15.733  32.298   5.002
62626W        W34952  38.259  29.852   2.805
62627W        W34953  30.538   4.318  10.425
62628W        W34954   0.850  39.979   1.318
62629W        W34955  12.436  17.295  13.078
62630W        W34956  15.914  25.930  11.091
62631W        W34957  25.526  27.287   0.949
62632W        W34958   0.319  32.120  11.588
62633W        W34959  29.632  26.680  13.018
62634W        W34960  16.117  21.727  11.245
62635W        W34961  29.967  40.354   3.940
62636W        W34962   3.336  19.731   1.178
62637W        W34963   4.984   6.293  12.466
62638W        W34964  24.082  20.630   3.822
62639W        W34965   1.883   4.895   1.434
62640W        W34966  11.750  39.533   1.736
62641W        W34967  23.997  14.756   3.179
62642W        W34968  17.219  30.456   4.582
62643W        W34969  30.392  14.567   3.286
62644W        W34970  33.124  23.604   1.353
62645W        W34971  35.457  42.849   4.341
62646W        W34972  26.527  22.581   4.132
62647W        W34973   8.375  26.452  13.470
62648W        W34974   4.392  28.071   3.755
62649W        W34975  28.957  14.474  14.379
62650W        W34976  37.777   7.397  14.048
62651W        W34977  12.086  33.600  12.907
62652W        W34978  12.049  40.862  14.754
62653W        W34979  42.751  36.442   0.877
62654W        W34980  10.765  37.318   4.917
62655W        W34981  26.466  32.694  10.707
62656W        W34982  36.056  21.124   5.121
62657W        W34983  27.011   4.281   4.891
62658W        W34984  30.879   7.343  11.899
62659W        W34985  26.608  34.800  10.695
62660W        W34986  13.553   0.255  13.293
62661W        W34987  37.650  24.641   1.357
62662W        W34988  27.521  16.793   4.346
62663W        W34989  29.606  19.347   4.574
62664W        W34990  29.312  39.082  13.515
62665W        W34991  42.935   5.244   4.142
62666W        W34992  28.450  26.531  11.128
62667W        W34993  38.087  38.836  12.424
62668W        W34994  36.031  15.108  11.666
62669W        W34995  24.487  43.900  14.328
62670W        W34996  30.002  22.128  12.963
62671W        W34997  28.856   4.474   2.087
62672W        W34998  11.819  44.204   4.235
62673W        W34999  12.086  23.846   3.334
62674W        W35000  11.420  30.080   3.707
62675W        W35001   2.550  33.034  10.898
62676W        W35002  15.641  25.241   4.240
62677W        W35003  34.046  35.924   1.536
62678W        W35004   2.696  32.974  12.119
62679W        W35005  43.765  17.606  13.542
62680W        W35006  17.697  32.387   4.161
62681W        W35007  20.522  35.600  14.372
62682W        W35008  20.271  34.434  14.763
62683W        W35009  36.498   2.421  14.245
62684W        W35010  42.765  33.600  11.955
62685W        W35011   4.665  39.536  13.499
62686W        W35012  18.818   9.137   2.670
62687W        W35013  15.903  31.596  13.380
62688W        W35014  18.955  29.024  10.990
62689W        W35015  35.681  20.192   0.046
62690W        W35016  28.731  44.228  13.822
62691W        W35017  24.453  31.398   3.268
62692W        W35018  11.514  11.124  13.403
62693W        W35019  11.240   2.871   1.081
62694W        W35020   0.288  24.580  10.706
62695W        W35021   3.251  27.236  13.784
62696W        W35022   9.956  41.957   1.801
62697W        W35023   4.326  34.059  13.497
62698W        W35024  38.963   3.641  11.119
62699W        W35025  42.068   6.243   0.355
62700W        W35026   6.278  14.297   4.487
62701W        W35027  31.399   3.766  12.632
62702W        W35028  12.457   2.422  12.091
62703W        W35029  37.785  35.793   3.157
62704W        W35030  18.140  37.082   3.536
62705W        W35031  23.917   7.827  11.117
62706W        W35032  31.969   0.600  13.621
62707W        W35033   5.203   5.822   0.884
62708W        W35034  10.312  31.469  10.430
62709W        W35035  39.518   1.785  12.841
62710W        W35036   8.143  27.696   3.325
62711W        W35037  39.222  22.838  11.530
62712W        W35038  30.035  26.945  12.430
62713W        W35039  24.195  25.481  13.523
62714W        W35040   8.640  24.646  12.761
62715W        W35041   1.482  15.073   4.518
62716W        W35042  39.879  26.973   3.252
62717W        W35043  25.947   3.927  12.188
62718W        W35044  35.483  20.508   0.452
62719W        W35045   4.194  22.678  11.418
62720W        W35046   2.289  41.878   1.812
62721W        W35047   1.947   2.438   5.549
62722W        W35048  26.937  24.980   3.689
62723W        W35049   4.258  15.238  13.701
62724W        W35050  27.145  11.743  10.128
62725W        W35051   5.254  44.847  12.853
62726W        W35052   6.746  30.561  11.145
62727W        W35053   1.180  29.456   4.343
62728W        W35054   7.152  38.406  14.819
62729W        W35055  17.243  25.767   1.411
62730W        W35056  23.840  18.530  10.680
62731W        W35057  30.139  44.762  13.961
62732W        W35058  25.494  29.546  14.620
62733W        W35059   5.624  43.888  11.339
62734W        W35060  22.732  39.700   0.901
62735W        W35061   6.724  30.818  14.451
62736W        W35062  25.106  18.308  10.849
62737W        W35063  43.868  20.936  11.090
62738W        W35064  43.185   0.530   1.038
62739W        W35065  33.233  32.449  11.453
62740W        W35066  38.994  36.477  10.987
62741W        W35067   3.188  28.284   3.924
62742W        W35068  16.229   7.325  14.823
62743W        W35069   5.495  41.863  13.406
62744W        W35070   4.025  43.857  12.060
62745W        W35071  28.568  27.943   3.186
62746W        W35072   4.348   3.284  12.999
62747W        W35073   8.222   7.199  11.791
62748W        W35074  38.023   4.668   4.609
62749W        W35075   2.824  21.026   3.310
62750W        W35076   8.905   3.912  14.024
62751W        W35077  22.793   6.078  13.124
62752W        W35078  28.130  42.486  11.994
62753W        W35079  35.156   3.324  12.492
62754W        W35080  44.453  31.367  10.122
62755W        W35081  33.651  40.606  14.832
62756W        W35082  36.579   2.413  11.992
62757W        W35083  34.012   7.832  12.593
62758W        W35084  34.886  30.025   0.379
62759W        W35085  23.444  35.967   4.289
62760W        W35086  28.224  32.287  10.818
62761W        W35087  26.767  30.425  12.045
62762W        W35088  29.061  11.311  10.534
62763W        W35089  19.002   7.949  14.321
62764W        W35090   5.097  17.320   2.263
62765W        W35091  11.486  16.788  11.581
62766W        W35092   3.330  39.431  11.595
62767W        W35093  12.253  26.372  13.285
62768W        W35094   3.757  21.176   3.753
62769W        W35095  20.194  14.323   1.004
62770W        W35096  28.967  43.582  11.046
62771W        W35097  23.448   1.303   3.609
62772W        W35098  37.076  27.575  10.716
62773W        W35099  44.966  38.360  14.930
62774W        W35100   4.670   2.968   1.920
62775W        W35101   8.596  33.248   1.251
62776W        W35102  44.807  43.297   2.260
62777W        W35103  28.659  30.406   2.183
62778W        W35104  29.946  10.251  10.823
62779W        W35105  30.395  26.500   2.222
62780W        W35106   2.039  43.766   4.092
62781W        W35107  18.135  24.950   2.416
62782W        W35108  16.987   4.308  11.148
62783W        W35109  24.690  37.973  10.733
62784W        W35110  23.040   0.576  11.956
62785W        W35111  13.623  31.887  12.826
62786W        W35112  31.485  44.681   4.365
62787W        W35113  32.495   9.604  14.821
62788W        W35114   5.903  35.917  12.973
62789W        W35115  13.959  33.652  11.960
62790W        W35116  16.074  19.380   1.383
62791W        W35117   0.790  27.931  14.353
62792W        W35118  11.366  43.522   3.720
62793W        W35119  20.649  29.621   4.637
62794W        W35120   6.811  43.430   4.642
62795W        W35121  34.506   0.921   2.925
62796W        W35122  41.547  42.768  11.450
62797W        W35123  17.277   8.190   0.030
62798W        W35124   8.431  38.890   1.315
62799W        W35125  19.100   3.765   3.689
62800W        W35126  32.146   2.320   2.892
62801W        W35127  29.044  12.591  11.609
62802W        W35128  16.627  23.115  13.982
62803W        W35129  26.101  14.094  12.616
62804W        W35130  44.143  27.003   0.869
62805W        W35131  35.998   7.761  13.112
62806W        W35132  14.409  37.922  10.899
62807W        W35133  26.355  27.604   0.938
62808W        W35134   4.770  42.301   4.442
62809W        W35135  42.269   1.331   2.357
62810W        W35136  20.978  23.184  14.800
62811W        W35137   1.088   4.465   4.941
62812W        W35138  27.552   8.156   1.828
62813W        W35139  43.672  43.981   1.179
62814W        W35140  25.022  17.319   3.206
62815W        W35141  40.294  14.218  14.412
62816W        W35142  35.483  31.982  11.566
62817W        W35143  40.475  44.421   1.282
62818W        W35144   9.574  18.958   4.148
62819W        W35145  38.633  38.993   0.043
62820W        W35146  16.807  10.328   1.696
62821W        W35147  11.567  12.641   1.737
62822W        W35148  31.905  33.927   1.906
62823W        W35149  25.581  12.862   3.734
62824W        W35150  31.639  21.045  12.342
62825W        W35151  32.693   1.232  11.250
62826W        W35152   6.948  17.756   2.307
62827W        W35153  14.318  35.007   4.935
62828W        W35154  10.706  13.245  14.514
62829W        W35155  19.031   7.622  13.010
62830W        W35156  33.131  26.469   1.168
62831W        W35157  19.079   7.095  13.026
62832W        W35158  17.618  14.044   2.122
62833W        W35159  33.103   2.806  13.302
62834W        W35160   3.939   0.422  11.575
62835W        W35161  40.867  25.438  14.502
62836W        W35162   4.840  18.675  13.368
62837W        W35163  24.099  39.121  11.113
62838W        W35164   0.967  28.703  10.795
62839W        W35165   4.375  23.791  12.415
62840W        W35166  23.067  40.321   4.111
62841W        W35167  34.605  41.557   4.567
62842W        W35168  29.470  28.686  14.281
62843W        W35169   9.373  33.130   2.141
62844W        W35170  27.739  18.635   1.338
62845W        W35171  32.632  16.111  13.466
62846W        W35172  42.766  21.960   4.218
62847W        W35173   4.300  24.078  14.697
62848W        W35174  21.937  15.108  14.926
62849W        W35175  21.170  26.433  14.007
62850W        W35176   2.241  37.978  11.890
62851W        W35177  31.153  22.183  13.783
62852W        W35178  16.108  14.693   4.526
62853W        W35179   6.313  38.786   1.331
62854W        W35180  29.472  39.507   3.303
62855W        W35181  40.509  30.440   3.701
62856W        W35182  41.361   3.226  12.607
62857W        W35183  36.084  14.685   4.015
62858W        W35184   6.316   6.458   4.314
62859W        W35185  33.184  21.447  13.686
62860W        W35186  32.631  42.835   3.598
62861W        W35187   5.006  14.383   2.759
62862W        W35188   6.152  15.249  12.008
62863W        W35189  16.247  29.416  13.520
62864W        W35190  39.559  38.952   1.443
62865W        W35191   2.824  14.636  10.692
62866W        W35192  29.959  15.187   0.773
62867W        W35193  13.215  19.046   3.561
62868W        W35194  13.945  33.407   1.958
62869W        W35195  17.364  31.368  11.759
62870W        W35196  24.990  27.694   0.333
62871W        W35197  23.699  10.434   3.694
62872W        W35198  37.032  18.417   2.234
62873W        W35199  41.518   6.348  14.512
62874W        W35200  40.904  10.460   2.261
62875W        W35201  12.169  32.280  12.147
62876W        W35202  37.601  16.271  12.562
62877W        W35203   3.919   3.245  13.946
62878W        W35204   0.844  40.716   3.280
62879W        W35205   9.132  23.914   3.874
62880W        W35206  29.206   0.281  13.023
62881W        W35207  42.432  34.948   2.249
62882W        W35208  28.664  19.705   3.320
62883W        W35209  22.935  17.481   1.834
62884W        W35210   3.556  11.884  12.788
62885W        W35211   3.675  29.073  12.914
62886W        W35212  20.001   7.449  13.000
62887W        W35213   7.978  15.174   0.792
62888W        W35214  18.953  38.985   0.516
62889W        W35215  29.204   5.410  11.957
62890W        W35216   1.373  19.695  11.054
62891W        W35217  14.230  13.445   4.172
62892W        W35218  24.448   8.733  13.890
62893W        W35219   8.383   2.787  11.548
62894W        W35220  39.008   5.740  13.417
62895W        W35221   5.880  30.678   4.690
62896W        W35222  37.563  16.305  10.608
62897W        W35223   3.493  18.068  12.620
62898W        W35224  40.531  27.483  14.772
62899W        W35225  39.754  20.966   1.302
62900W        W35226  20.026  33.016   0.765
62901W        W35227  24.965   0.818   3.361
62902W        W35228   2.417   3.686   1.656
62903W        W35229  43.057  33.135   3.564
62904W        W35230  33.583  24.571   1.575
62905W        W35231  42.584  36.929   2.904
62906W        W35232  30.245  38.288   2.238
62907W        W35233  40.568   0.952   2.207
62908W        W35234  19.123  40.676   4.623
62909W        W35235   4.830  31.701  11.268
62910W        W35236  42.944  25.783  10.809
62911W        W35237  11.104  44.395   4.451
62912W        W35238  21.676  13.111   1.884
62913W        W35239  25.842  17.122   1.867
62914W        W35240  11.248  33.770  10.677
62915W        W35241  15.932   8.456   1.330
62916W        W35242  18.247  32.460   2.917
62917W        W35243   3.000   8.703   5.006
62918W        W35244  10.309  28.853   4.238
62919W        W35245  39.004  43.241   1.418
62920W        W35246  23.233  41.085   1.007
62921W        W35247  19.072   1.196   4.222
62922W        W35248  22.768  34.503   2.306
62923W        W35249   0.203  12.171  13.397
62924W        W35250   4.403  17.713   3.015
62925W        W35251   2.360   6.108   0.364
62926W        W35252  11.616   1.159   0.905
62927W        W35253  24.071  34.405  13.593
62928W        W35254  39.883   9.150   0.855
62929W        W35255  34.386  26.013   4.452
62930W        W35256   7.687  26.261   0.811
62931W        W35257  24.056   4.337  13.299
62932W        W35258  15.393  19.091   2.417
62933W        W35259  24.024  29.145  11.296
62934W        W35260  25.500   1.333  11.382
62935W        W35261  31.580  18.140   2.400
62936W        W35262  19.014   6.914   2.266
62937W        W35263  33.888  19.720   3.299
62938W        W35264  33.003  24.983  11.981
62939W        W35265  28.136  30.496  10.694
62940W        W35266  29.809  23.427   3.627
62941W        W35267  20.536  12.632   1.715
62942W        W35268  20.204  24.667  13.509
62943W        W35269  13.237   1.919   0.765
62944W        W35270  19.591  22.601  13.657
62945W        W35271  12.728   4.931  11.632
62946W        W35272  18.589  18.691  14.021
62947W        W35273  15.864  39.324  11.540
62948W        W35274  32.754  32.762  14.838
62949W        W35275  21.823  40.014   5.100
62950W        W35276  22.506  39.096  14.877
62951W        W35277   6.687  42.025  14.382
62952W        W35278   0.443  33.706  13.972
62953W        W35279  24.513   3.932  11.700
62954W        W35280  25.985  13.616  12.380
62955W        W35281   0.549   5.722   2.733
62956W        W35282   1.461  34.880   0.713
62957W        W35283  22.033   5.378  13.858
62958W        W35284  41.913  36.009   5.177
62959W        W35285  33.968   1.071   0.801
62960W        W35286  44.273  20.820  10.460
62961W        W35287  19.681  41.106  11.816
62962W        W35288  41.869  26.230  11.178
62963W        W35289   4.109  31.859   2.342
62964W        W35290  29.843  31.528   0.454
62965W        W35291  11.597  18.915  12.506
62966W        W35292   0.029  36.995  12.935
62967W        W35293  11.009  26.084  13.951
62968W        W35294  36.103  33.904  11.407
62969W        W35295   7.381  28.880   3.636
62970W        W35296  12.703  12.405   2.504
62971W        W35297  31.776   6.260  11.851
62972W        W35298  41.223  17.225  12.082
62973W        W35299  32.306   2.202   3.376
62974W        W35300  20.833  16.814   4.074
62975W        W35301  20.017  29.398   2.523
62976W        W35302  28.681   4.817   3.968
62977W        W35303  39.086   6.181   1.714
62978W        W35304  14.036  21.560  12.346
62979W        W35305  41.269  26.630  12.515
62980W        W35306  41.140  19.766   0.451
62981W        W35307  27.050  32.134   4.003
62982W        W35308   9.308  13.663  10.469
62983W        W35309   0.033   8.621   0.939
62984W        W35310   7.238  23.100  10.724
62985W        W35311  39.461  14.829   2.827
62986W        W35312   1.213   2.000  10.799
62987W        W35313  28.559   6.219   1.841
62988W        W35314   8.100  37.553   4.670
62989W        W35315  21.459  18.564  14.902
62990W        W35316  12.492   2.424  14.940
62991W        W35317  14.702  35.600   2.815
62992W        W35318   5.724  13.689  12.896
62993W        W35319   1.845  25.137  11.368
62994W        W35320   0.972  27.281   3.730
62995W        W35321  10.058  29.301  10.365
62996W        W35322  16.915  32.327  14.989
62997W        W35323  35.971  14.629  13.135
62998W        W35324  21.627  32.579   1.320
62999W        W35325  42.348  33.182  11.602
63000W        W35326  11.082  14.769  14.928
63001W        W35327  31.390  21.204  11.406
63002W        W35328  35.092  21.065  11.910
63003W        W35329  22.459  34.906   2.240
63004W        W35330  22.501  15.852   3.676
63005W        W35331   9.742  15.266   4.132
63006W        W35332  38.849  42.361   4.288
63007W        W35333   7.138  17.985  11.226
63008W        W35334  18.320  44.104  13.043
63009W        W35335  43.933   6.357   3.766
63010W        W35336  41.574  11.458  11.391
63011W        W35337  29.766  41.381   0.522
63012W        W35338  14.268   2.930  14.326
63013W        W35339  19.096  24.148  11.682
63014W        W35340  17.398  42.454   1.912
63015W        W35341   4.946  15.062   2.238
63016W        W35342  11.660  26.497  11.158
63017W        W35343   4.441  16.081  10.224
63018W        W35344  30.946  14.765   4.432
63019W        W35345  44.674  20.435  11.938
63020W        W35346   2.171  14.393   3.598
63021W        W35347  33.057  10.338  14.803
63022W        W35348  30.200  10.223   3.254
63023W        W35349  28.703  23.190   4.591
63024W        W35350  13.391   2.023  10.357
63025W        W35351   8.907   3.967  14.716
63026W        W35352  29.544  22.256  12.187
63027W        W35353  43.385   4.714  12.812
63028W        W35354  38.091  26.526  10.226
63029W        W35355  33.590  42.020   4.471
63030W        W35356  21.646  15.790  10.629
63031W        W35357  44.543  37.747  10.477
63032W        W35358   5.734  37.305   2.283
63033W        W35359  26.682  35.525  14.875
63034W        W35360   2.858  38.445  10.898
63035W        W35361  31.313  19.987  12.497
63036W        W35362  19.285  33.346  12.307
63037W        W35363   4.374   8.125  14.324
63038W        W35364  20.353  15.755  12.501
63039W        W35365  43.850  30.520   1.745
63040W        W35366  11.779  15.690   2.821
63041W        W35367  42.763  12.628   0.782
63042W        W35368  37.482  31.515  14.895
63043W        W35369  10.068  20.813  14.891
63044W        W35370  24.443  30.336   1.875
63045W        W35371   5.830  19.987   4.631
63046W        W35372   3.998   4.374   1.731
63047W        W35373  28.229  32.206  10.308
63048W        W35374   0.308   1.356   0.118
63049W        W35375   9.692   9.977  10.940
63050W        W35376   3.822  36.486   0.972
63051W        W35377  10.085  43.869  14.506
63052W        W35378  32.682   1.980  13.459
63053W        W35379  10.324  14.094  12.462
63054W        W35380  18.639  19.202  13.998
63055W        W35381  23.488  20.742  14.832
63056W        W35382   9.665  15.751  14.572
63057W        W35383  18.123   3.507   0.467
63058W        W35384  39.986   5.211   1.431
63059W        W35385   4.965   7.074   2.681
63060W        W35386  29.895  20.058  11.511
63061W        W35387  34.887   5.516  12.826
63062W        W35388  40.497   1.739   4.774
63063W        W35389  11.855   1.929   3.784
63064W        W35390  11.851  13.774  11.553
63065W        W35391  14.323   5.713  14.148
63066W        W35392  31.347  19.257   0.520
63067W        W35393  31.337  23.167   2.348
63068W        W35394   0.970   6.929  10.700
63069W        W35395  11.302  12.433   4.689
63070W        W35396  12.755  41.247   0.489
63071W        W35397  34.051  41.184   1.878
63072W        W35398  23.750  24.966   1.311
63073W        W35399  37.978  19.149   3.200
63074W        W35400  39.301  32.084   3.720
63075W        W35401  13.486  34.222   0.437
63076W        W35402  17.734  30.191  11.127
63077W        W35403  28.116  14.578   3.326
63078W        W35404  22.263  39.485  11.486
63079W        W35405  20.195  39.425  13.881
63080W        W35406  14.411  17.860  12.498
63081W        W35407   1.044  21.579   2.178
63082W        W35408  43.082  16.814   3.772
63083W        W35409  20.037  35.932   3.113
63084W        W35410  19.587  37.530  10.649
63085W        W35411   9.866   8.321   1.681
63086W        W35412  24.532  44.481  12.889
63087W        W35413  27.629  27.723  13.344
63088W        W35414  44.286   6.493  13.529
63089W        W35415  17.700  17.999  11.011
63090W        W35416  12.023  39.415   1.298
63091W        W35417  34.019  19.803  12.386
63092W        W35418  30.185  34.158  13.502
63093W        W35419  36.915   6.179   2.919
63094W        W35420  17.506   8.412   4.471
63095W        W35421  22.192  24.496  10.626
63096W        W35422  25.893  32.554  11.497
63097W        W35423  20.741  15.441   4.409
63098W        W35424   7.360  30.904   1.351
63099W        W35425  26.111  15.172   2.038
63100W        W35426  17.219  29.456   4.501
63101W        W35427   5.610  36.014   2.175
63102W        W35428  23.011  17.788   1.414
63103W        W35429  23.482  18.999   4.188
63104W        W35430  34.643   7.549   5.108
63105W        W35431  38.465  23.473  12.553
63106W        W35432  19.396  40.600   3.128
63107W        W35433  39.449   8.201  14.444
63108W        W35434  19.854  23.609   3.689
63109W        W35435   4.174   3.526   1.461
63110W        W35436   5.389   6.885  11.476
63111W        W35437  15.661  15.067   0.258
63112W        W35438  29.554  14.649   4.641
63113W        W35439  29.425  35.354   2.747
63114W        W35440  40.522  32.455  13.851
63115W        W35441  32.493  35.825   0.481
63116W        W35442  12.228  40.509  14.377
63117W        W35443  27.885  35.587  11.518
63118W        W35444  42.252   3.578  13.459
63119W        W35445   9.280  13.158   2.011
63120W        W35446  19.343  25.740   4.686
63121W        W35447  36.234  37.826  11.066
63122W        W35448  24.493  44.425  13.413
63123W        W35449  25.014  32.462   2.146
63124W        W35450  34.340  28.949   4.460
63125W        W35451  16.726   1.320  12.033
63126W        W35452  24.037  37.522  14.460
63127W        W35453  34.028  21.255  14.235
63128W        W35454  24.612  19.903   2.711
63129W        W35455  41.114  22.618  12.004
63130W        W35456  23.304  44.358  14.700
63131W        W35457  33.221  37.913  12.146
63132W        W35458  10.787  12.123  12.120
63133W        W35459  44.336  22.022   2.817
63134W        W35460  36.157  12.248   1.123
63135W        W35461  37.023  35.335   1.196
63136W        W35462   2.258  33.995   4.375
63137W        W35463   1.934   0.357   4.219
63138W        W35464  28.617  19.596   1.462
63139W        W35465  26.223  18.171  11.521
63140W        W35466  23.631   2.151  13.862
63141W        W35467  24.791   4.144   2.261
63142W        W35468  38.060  38.858  14.370
63143W        W35469  22.143  22.274  11.416
63144W        W35470  40.110  43.794  13.900
63145W        W35471  21.621  42.817   2.763
63146W        W35472   2.021   2.842  12.145
63147W        W35473  24.702  17.008   2.753
63148W        W35474  28.992  38.588   1.930
63149W        W35475  18.773  10.507   2.790
63150W        W35476  10.174   2.360   2.159
63151W        W35477  34.334  44.457  10.687
63152W        W35478  20.651  35.614   1.342
63153W        W35479  33.080  41.747   4.614
63154W        W35480  10.047  36.585  11.248
63155W        W35481  21.335  31.962  14.933
63156W        W35482  42.390  13.025   2.458
63157W        W35483   9.330  25.575  13.061
63158W        W35484  17.570  38.418   3.259
63159W        W35485  37.048  15.092  10.687
63160W        W35486   4.104  24.318   0.191
63161W        W35487  20.368  30.606   4.253
63162W        W35488  21.473   5.733  11.069
63163W        W35489   0.256  25.517  10.971
63164W        W35490  44.867   9.150  14.458
63165W        W35491  35.453  17.094  13.857
63166W        W35492  30.509  16.210   3.755
63167W        W35493  22.716  32.639   4.671
63168W        W35494  16.682  21.876   2.177
63169W        W35495  19.996  19.936  14.316
63170W        W35496  20.015  33.017  12.251
63171W        W35497  28.921  23.917   4.332
63172W        W35498  31.106  14.991  14.923
63173W        W35499  35.271  27.080   1.509
63174W        W35500   0.306  44.464  14.316
63175W        W35501  10.243  44.849  10.718
63176W        W35502  41.136  20.737   0.284
63177W        W35503   7.112  43.915   2.911
63178W        W35504  35.918   6.125   1.276
63179W        W35505  21.293  37.555   4.083
63180W        W35506   1.601   1.767  12.561
63181W        W35507  44.819  38.223  13.930
63182W        W35508  14.604  35.594  14.717
63183W        W35509   1.726  18.602   3.112
63184W        W35510   7.160  37.398   2.757
63185W        W35511  27.417  43.935  12.043
63186W        W35512   8.706  42.398   0.408
63187W        W35513   1.180  25.974   4.677
63188W        W35514  14.898   4.259  10.651
63189W        W35515  14.793  38.895   4.239
63190W        W35516  25.306  17.550   2.798
63191W        W35517   9.791  40.635   0.293
63192W        W35518   7.484   7.964  12.921
63193W        W35519  41.706  40.980   3.027
63194W        W35520   2.555  41.388   4.607
63195W        W35521   7.609  11.405   3.756
63196W        W35522  37.833   1.916   2.168
63197W        W35523   8.571   7.138   0.097
63198W        W35524  43.052  24.294   1.351
63199W        W35525  33.473  18.191   2.310
63200W        W35526  35.558  34.865   0.340
63201W        W35527  12.555   1.425  12.009
63202W        W35528  27.836  11.058   3.204
63203W        W35529   3.875   4.684  12.863
63204W        W35530  30.446  12.624  12.892
63205W        W35531  40.265   8.121  11.589
63206W        W35532  44.716  19.953   1.960
63207W        W35533  12.375  28.558  11.199
63208W        W35534   4.375  11.090   0.975
63209W        W35535  31.232  27.403   0.812
63210W        W35536  30.212  17.599   3.283
63211W        W35537  13.357  39.026  11.629
63212W        W35538   7.621  38.721  14.009
63213W        W35539  19.762   0.338  14.216
63214W        W35540   5.415   5.293   4.571
63215W        W35541   1.243  41.444   1.205
63216W        W35542  34.167  38.119  12.551
63217W        W35543  37.306  15.804   5.300
63218W        W35544  40.952   8.925   0.425
63219W        W35545  13.538  35.901   1.356
63220W        W35546   2.406   3.994   5.451
63221W        W35547   2.721  21.586   9.831
63222W        W35548  24.354  17.620  12.622
63223W        W35549   5.706   0.022  13.960
63224W        W35550  40.519   2.621  11.189
63225W        W35551  21.788  29.652   3.845
63226W        W35552  27.953  26.980   3.569
63227W        W35553  42.416  22.133   3.217
63228W        W35554  20.981  12.818  11.140
63229W        W35555  37.032   3.648   3.327
63230W        W35556  12.976  26.449   5.032
63231W        W35557  26.733  28.008   1.056
63232W        W35558  20.611  41.449  14.511
63233W        W35559  11.270  11.955  11.565
63234W        W35560  15.826  30.804  14.874
63235W        W35561  37.922  39.300  10.721
63236W        W35562   5.959   3.563   0.005
63237W        W35563  26.716  11.367   0.335
63238W        W35564  24.600  17.593  13.073
63239W        W35565  38.450   0.449   1.879
63240W        W35566   7.879  43.488  13.272
63241W        W35567  11.074   4.180   1.396
63242W        W35568  31.324  18.200  11.545
63243W        W35569  17.436  41.026  12.954
63244W        W35570   3.664  23.162  11.014
63245W        W35571  29.991  16.063   0.052
63246W        W35572  44.824  43.215  13.265
63247W        W35573   0.203  39.563  11.560
63248W        W35574  23.819  14.066   5.027
63249W        W35575  19.573  31.165  10.989
63250W        W35576  19.078  13.409   2.392
63251W        W35577  43.215  19.921  11.427
63252W        W35578  25.187  44.871  12.356
63253W        W35579  18.145  33.157  14.357
63254W        W35580  15.031  28.693   3.204
63255W        W35581  16.760  17.302  11.608
63256W        W35582  40.342  24.998  12.614
63257W        W35583  18.449   1.547  10.149
63258W        W35584   1.253  34.081   0.345
63259W        W35585   9.848  41.957  14.337
63260W        W35586  20.395  26.506  11.669
63261W        W35587  39.305   2.123  14.705
63262W        W35588  11.750  17.423  13.703
63263W        W35589  25.805  36.325   0.066
63264W        W35590  31.804   5.910  14.614
63265W        W35591   6.889  29.030   0.756
63266W        W35592  39.832   5.374  12.315
63267W        W35593  37.062  40.826  10.642
63268W        W35594  31.628  42.539   3.619
63269W        W35595   7.953  41.309   3.575
63270W        W35596  29.881  12.757   0.866
63271W        W35597  24.160  15.595   0.935
63272W        W35598  15.769  21.235   3.576
63273W        W35599  27.063  30.367   1.008
63274W        W35600   1.773  36.622  13.405
63275W        W35601  33.409   3.195  11.999
63276W        W35602  24.789  38.945  13.474
63277W        W35603  37.041  11.462  13.120
63278W        W35604  27.724  35.010   4.545
63279W        W35605  36.613  34.497   0.411
63280W        W35606  32.084   2.728   3.988
63281W        W35607  44.860  22.200  11.504
63282W        W35608  30.464  22.287   0.419
63283W        W35609  16.212   1.687   3.248
63284W        W35610   4.872  31.368   1.914
63285W        W35611  35.260   5.704   1.498
63286W        W35612  20.169  12.096   1.461
63287W        W35613  11.096  25.020  12.391
63288W        W35614  39.334  10.628  14.378
63289W        W35615  36.096  44.416   4.416
63290W        W35616  24.471  15.678   1.743
63291W        W35617  28.398  34.200  11.084
63292W        W35618  32.438  18.316   3.777
63293W        W35619  22.459  35.078   1.742
63294W        W35620  30.145   9.706  13.946
63295W        W35621   8.670   5.411  11.088
63296W        W35622   4.468   1.027  11.289
63297W        W35623  41.392  29.607  13.158
63298W        W35624  21.408  29.409   4.092
63299W        W35625   9.242  10.783   3.339
63300W        W35626  20.038  43.782   1.614
63301W        W35627  20.497  15.035   4.230
63302W        W35628  43.447  10.855   2.377
63303W        W35629   8.605  22.789   2.343
63304W        W35630   6.375   1.732   2.436
63305W        W35631   6.496  11.327  14.393
63306W        W35632  33.060  33.132   1.468
63307W        W35633  20.256  21.634   3.374
63308W        W35634  14.358  40.735   1.498
63309W        W35635  17.077  26.468   3.269
63310W        W35636   7.156  24.232   2.716
63311W        W35637  17.736  10.352  12.459
63312W        W35638  20.723  42.042   3.210
63313W        W35639  11.352   6.089  14.964
63314W        W35640  29.335   4.466   2.327
63315W        W35641  25.672  41.925  10.727
63316W        W35642  16.157   4.842   2.674
63317W        W35643  23.533  29.484  14.787
63318W        W35644  34.836  17.742   0.926
63319W        W35645  15.037  17.070   2.284
63320W        W35646  11.862  32.039   3.685
63321W        W35647  20.503  19.150  10.632
63322W        W35648  23.133   0.092   3.790
63323W        W35649  13.686  21.178  14.344
63324W        W35650  10.654  21.387  13.551
63325W        W35651  19.620  36.415   0.319
63326W        W35652  17.595  16.838   1.405
63327W        W35653  21.812   3.813  11.241
63328W        W35654  42.886  32.594   2.707
63329W        W35655  20.331  25.151  11.679
63330W        W35656  42.179  20.553   1.437
63331W        W35657  13.427  31.486   4.649
63332W        W35658   2.713  15.620  13.814
63333W        W35659  40.365  40.067   3.353
63334W        W35660  42.105  44.729  11.156
63335W        W35661   7.672  16.065  11.527
63336W        W35662  10.120   2.218   3.599
63337W        W35663   5.049  34.454  14.287
63338W        W35664   7.832  24.040   0.348
63339W        W35665  24.096  29.564   1.360
63340W        W35666   4.581   6.103   2.330
63341W        W35667   9.061  35.978  14.898
63342W        W35668  12.207  39.196  12.121
63343W        W35669   9.253  43.389   1.086
63344W        W35670  35.097  35.458   4.648
63345W        W35671  42.705  38.060  13.307
63346W        W35672  23.200  32.111  12.540
63347W        W35673  11.500   7.836  14.187
63348W        W35674  11.246  31.099   1.816
63349W        W35675  11.746  28.667  14.450
63350W        W35676   8.038  20.058   3.580
63351W        W35677  24.632  27.699   4.831
63352W        W35678  42.386  31.449   3.593
63353W        W35679  17.019  37.911  11.405
63354W        W35680  15.657  42.772   4.605
63355W        W35681  29.444  29.845   4.175
63356W        W35682  31.899  14.867  13.053
63357W        W35683  20.806  22.469   0.035
63358W        W35684   1.956  24.194  10.266
63359W        W35685  24.559  13.665  12.380
63360W        W35686   8.598  32.019  10.350
63361W        W35687  40.046  21.319  10.453
63362W        W35688  12.757  14.407   1.744
63363W        W35689  18.978  29.635  11.574
63364W        W35690  12.622  33.212   2.103
63365W        W35691  24.520  37.424   2.593
63366W        W35692  39.600   4.325   1.305
63367W        W35693  14.730  32.314   0.398
63368W        W35694  24.115  13.331  13.907
63369W        W35695  37.046   2.230  12.877
63370W        W35696  39.468  17.851  12.129
63371W        W35697  28.492   3.244  11.966
63372W        W35698  21.269  27.157   4.522
63373W        W35699  33.580  21.672  10.740
63374W        W35700  27.953  36.923  10.133
63375W        W35701  18.672  17.870  12.620
63376W        W35702   3.630   3.386  13.381
63377W        W35703  14.464  28.078  11.816
63378W        W35704  17.032  43.306   0.404
63379W        W35705   4.824  23.659  12.639
63380W        W35706  38.498  44.683  13.461
63381W        W35707  36.949  32.145   1.905
63382W        W35708   0.276  40.654   0.939
63383W        W35709   1.230  25.082  14.515
63384W        W35710  32.238   5.663  14.379
63385W        W35711   0.285  15.197  12.516
63386W        W35712   6.845  13.109   3.558
63387W        W35713  35.584   2.411   4.162
63388W        W35714   1.791   9.913  11.513
63389W        W35715   4.500   2.234  10.960
63390W        W35716  15.266  33.637  11.018
63391W        W35717  25.484  22.224   0.283
63392W        W35718   7.798  29.050  12.101
63393W        W35719  29.916  17.719  14.992
63394W        W35720   3.490  25.467   4.511
63395W        W35721  37.219  40.528   3.380
63396W        W35722  17.213  25.077  13.253
63397W        W35723  17.109   4.238  13.832
63398W        W35724   8.423  39.539  11.980
63399W        W35725  36.597  36.015  12.011
63400W        W35726  38.916  25.586   3.558
63401W        W35727  41.531  18.619   1.901
63402W        W35728  27.776  22.985  14.771
63403W        W35729   4.591  42.892  10.137
63404W        W35730  42.311  15.040  14.087
63405W        W35731  25.161  37.648  14.499
63406W        W35732  15.076  43.941   2.296
63407W        W35733  20.589   0.016   0.318
63408W        W35734  32.665  33.456   3.315
63409W        W35735  27.929  30.226  11.644
63410W        W35736   5.848   3.463   3.782
63411W        W35737   6.903  32.368  12.485
63412W        W35738  34.923  25.156   3.344
63413W        W35739  26.993  29.416   1.387
63414W        W35740  13.729  23.942   2.214
63415W        W35741   7.902  40.490  14.420
63416W        W35742  34.422  23.759  12.068
63417W        W35743  30.160  13.609   0.352
63418W        W35744  10.533   7.332  13.382
63419W        W35745  22.137  12.317  13.993
63420W        W35746  24.658   0.721  10.866
63421W        W35747  43.615  27.798  12.784
63422W        W35748  32.712  43.418   1.782
63423W        W35749  36.502  35.640  14.856
63424W        W35750   2.871  20.283  14.084
63425W        W35751  27.108   4.722   4.632
63426W        W35752   7.051   9.401   3.172
63427W        W35753   4.864  42.316  12.137
63428W        W35754  12.942  12.812  12.572
63429W        W35755  33.286   3.258  11.119
63430W        W35756   3.706  42.555   4.639
63431W        W35757  20.132  31.432  11.676
63432W        W35758  41.071   2.602  11.205
63433W        W35759   9.856   3.328  11.109
63434W        W35760  31.859  23.563  10.975
63435W        W35761   4.503   9.497  12.859
63436W        W35762  40.265  39.638   3.086
63437W        W35763   3.188   9.740   3.131
63438W        W35764  36.445  24.649   2.730
63439W        W35765  30.943   3.807   4.375
63440W        W35766  31.061  21.498   2.810
63441W        W35767  10.475  38.662  10.762
63442W        W35768  37.932  41.971   2.311
63443W        W35769  27.964  14.836  13.823
63444W        W35770  24.376  27.628   4.398
63445W        W35771  22.035  38.477   2.398
63446W        W35772  22.289   3.643  11.144
63447W        W35773   8.188  37.378   3.796
63448W        W35774  44.393  14.579  14.377
63449W        W35775  14.304  38.331   1.430
63450W        W35776   2.723  15.119   0.901
63451W        W35777  41.567   2.728  12.586
63452W        W35778  42.216  28.519  14.310
63453W        W35779  17.063  35.737  12.473
63454W        W35780  18.599  23.562   3.256
63455W        W35781  29.715  10.058  13.953
63456W        W35782  31.903  20.744  11.964
63457W        W35783  28.841   3.710   0.086
63458W        W35784  22.177  21.482   4.545
63459W        W35785  42.314  17.840   0.451
63460W        W35786   1.430   1.025   3.641
63461W        W35787  18.694  42.062  12.515
63462W        W35788  43.297  34.385   0.288
63463W        W35789  37.044  13.580   4.596
63464W        W35790   4.297  22.046   5.499
63465W        W35791  28.364  20.113   1.760
63466W        W35792  24.703   2.213  13.381
63467W        W35793  15.609  24.093  10.988
63468W        W35794  39.022  42.736  12.118
63469W        W35795   8.235   1.948  12.050
63470W        W35796  14.831  27.573   3.907
63471W        W35797  35.149  20.110   2.576
63472W        W35798  21.128  42.735   4.809
63473W        W35799  41.237  43.014  14.342
63474W        W35800  42.631  25.061   4.126
63475W        W35801  36.154  11.127   3.086
63476W        W35802  25.653  26.035   2.975
63477W        W35803  12.655   2.876  14.740
63478W        W35804  11.890  24.913   3.534
63479W        W35805  12.687  43.382  10.685
63480W        W35806  10.828  16.646   2.708
63481W        W35807  29.643  20.106  10.921
63482W        W35808  43.998  18.068   2.865
63483W        W35809  22.524  29.095  11.109
63484W        W35810  33.966  15.687  11.769
63485W        W35811   1.869  28.984  14.617
63486W        W35812  18.045  39.350  11.091
63487W        W35813  40.982  17.270   2.681
63488W        W35814   8.450  40.040  12.557
63489W        W35815  43.006  15.168  12.794
63490W        W35816  44.719  12.211   2.873
63491W        W35817   3.303  38.288   1.551
63492W        W35818  20.209  24.619   1.023
63493W        W35819  10.785   5.723   3.222
63494W        W35820  41.200  37.916   2.121
63495W        W35821  35.891  14.530   2.635
63496W        W35822  16.216   2.106  12.941
63497W        W35823  31.784  31.983  11.085
63498W        W35824  15.379  43.028   0.044
63499W        W35825  37.327  22.816  11.729
63500W        W35826  38.430  10.111   3.846
63501W        W35827   4.662  44.032   2.222
63502W        W35828  10.800   9.325   4.413
63503W        W35829   6.134  27.464  13.485
63504W        W35830  24.592  38.868  11.680
63505W        W35831  16.607  14.105   2.821
63506W        W35832   6.650  42.839  13.969
63507W        W35833  31.816  28.945  11.406
63508W        W35834  31.173  41.089   1.389
63509W        W35835  15.423  12.632   4.879
63510W        W35836  44.098  31.479   2.174
63511W        W35837  30.147  23.701   1.899
63512W        W35838  17.258   3.504   4.286
63513W        W35839  28.910  24.608   0.415
63514W        W35840  43.905  36.934  13.968
63515W        W35841  32.542  18.304  12.977
63516W        W35842   7.265  14.398  14.358
63517W        W35843   9.127  27.187  12.031
63518W        W35844  28.580  40.512   3.600
63519W        W35845  30.961  37.928  11.179
63520W        W35846  13.589  14.789   2.212
63521W        W35847  37.759  26.050  12.389
63522W        W35848  44.992   2.045   4.823
63523W        W35849   3.860  30.770   4.569
63524W        W35850   9.451   5.008   0.425
63525W        W35851   9.637  42.384  12.947
63526W        W35852  13.880   4.427   2.711
63527W        W35853  40.805  30.239   3.311
63528W        W35854  29.904  16.187   2.722
63529W        W35855   3.848  20.685   3.639
63530W        W35856  40.987  31.406  12.461
63531W        W35857  16.448   0.386   4.064
63532W        W35858  13.531   5.675   1.336
63533W        W35859   8.464  16.183  12.078
63534W        W35860  25.524  42.849  11.955
63535W        W35861   1.799  44.947  13.082
63536W        W35862   0.932  24.616   4.514
63537W        W35863   0.392   3.794   0.776
63538W        W35864   7.281  12.925   2.236
63539W        W35865  39.481  11.843   0.885
63540W        W35866  26.495  26.222  14.326
63541W        W35867  14.728  37.929   3.242
63542W        W35868   0.334  12.298  12.919
63543W        W35869  16.510  32.088  14.761
63544W        W35870   3.361  14.717   2.490
63545W        W35871  28.001  41.055   3.722
63546W        W35872  36.050  19.848   0.253
63547W        W35873  24.187  17.607  14.777
63548W        W35874  18.191  24.393   1.102
63549W        W35875  40.463   6.728   0.096
63550W        W35876  43.826   3.912   1.276
63551W        W35877  18.268  14.703  10.728
63552W        W35878  25.737  44.234  12.260
63553W        W35879   3.418  15.588  11.597
63554W        W35880  15.765  36.789  13.555
63555W        W35881  20.043  11.746   1.031
63556W        W35882   0.560  40.979  11.984
63557W        W35883  27.094  41.274   1.967
63558W        W35884  41.952   0.967   3.442
63559W        W35885   2.639   5.240   1.354
63560W        W35886  11.756  27.980  13.685
63561W        W35887  35.023  16.312  12.448
63562W        W35888  40.148  35.630  12.047
63563W        W35889  19.592  17.714  13.233
63564W        W35890  35.280  32.055   4.134
63565W        W35891  42.761  35.154  12.503
63566W        W35892  15.675  27.014   5.055
63567W        W35893  15.844  30.983  12.718
63568W        W35894   4.392  29.868   0.911
63569W        W35895  28.184  21.814   4.604
63570W        W35896  25.649  39.077   2.689
63571W        W35897  14.283  25.444  14.254
63572W        W35898  34.678   4.878   1.518
63573W        W35899  22.045  43.589  12.421
63574W        W35900  43.998   2.853   3.394
63575W        W35901   3.172  32.896   3.490
63576W        W35902  17.083   2.934  13.387
63577W        W35903  26.619  29.104  10.640
63578W        W35904  36.274  25.079   3.714
63579W        W35905  11.166  34.846  13.436
63580W        W35906  10.225   8.668   3.363
63581W        W35907  35.376  22.887  13.692
63582W        W35908  30.035   9.111   2.486
63583W        W35909  17.631  10.728   0.927
63584W        W35910  35.607  29.040   3.613
63585W        W35911  24.205   4.065   1.616
63586W        W35912   2.629  41.452   3.283
63587W        W35913  30.401  15.696   1.373
63588W        W35914  20.785  24.188  11.221
63589W        W35915  40.360  20.968  10.676
63590W        W35916  29.068  32.660  11.184
63591W        W35917  19.056   7.404  14.372
63592W        W35918  23.545  16.432   2.761
63593W        W35919  44.752  39.050  13.448
63594W        W35920  13.858  33.793  11.003
63595W        W35921  38.588  35.823  12.014
63596W        W35922   0.944  33.671   3.212
63597W        W35923   2.892   0.728  13.158
63598W        W35924  15.845   7.489  13.829
63599W        W35925  33.076  39.580   4.632
63600W        W35926   7.410  14.647  10.436
63601W        W35927   1.698  26.232   1.493
63602W        W35928  34.060  36.883  13.106
63603W        W35929   3.261  42.293   3.777
63604W        W35930  19.209  35.470  10.709
63605W        W35931   4.102  32.143  11.552
63606W        W35932  13.595  41.357  13.970
63607W        W35933  18.640  11.368  14.324
63608W        W35934  44.566  11.836  11.472
63609W        W35935  35.431  33.691  10.304
63610W        W35936  28.489  26.192  14.748
63611W        W35937  16.331  32.960   3.409
63612W        W35938  35.316  39.718   1.040
63613W        W35939   4.176  22.273   1.436
63614W        W35940  36.701  41.495  11.674
63615W        W35941   9.707  12.548  12.557
63616W        W35942  43.451  24.415  11.083
63617W        W35943  28.050  28.247   9.811
63618W        W35944  40.951  21.600  14.727
63619W        W35945  36.834  35.103   4.801
63620W        W35946  16.665  27.611  12.474
63621W        W35947   0.293  39.643   1.041
63622W        W35948  12.731  17.966  14.549
63623W        W35949  37.871  24.689  11.684
63624W        W35950  41.558  25.026   0.658
63625W        W35951  15.635  13.521   1.688
63626W        W35952  25.930  41.251   1.399
63627W        W35953  22.916  37.429   0.873
63628W        W35954  14.870  20.717  11.021
63629W        W35955  18.872  19.544   4.543
63630W        W35956  31.502  21.531  13.284
63631W        W35957  38.978   7.425   4.043
63632W        W35958  35.883  26.717  11.624
63633W        W35959  37.302  13.574   0.007
63634W        W35960  31.986  29.896  12.007
63635W        W35961   7.615   8.301  12.003
63636W        W35962  22.916  39.288  14.518
63637W        W35963  10.144  33.131  11.116
63638W        W35964   8.488  21.404  13.843
63639W        W35965  11.426  33.213   3.776
63640W        W35966  31.953   7.666   2.762
63641W        W35967  19.595  13.128  12.903
63642W        W35968  17.416  42.901   5.091
63643W        W35969  18.674   7.714   1.131
63644W        W35970   4.610  37.440   3.635
63645W        W35971  29.896   1.467  11.613
63646W        W35972   4.107   4.512   0.834
63647W        W35973   2.268  22.652  14.912
63648W        W35974  39.122  29.264   1.368
63649W        W35975   5.868   9.855   2.308
63650W        W35976  28.969   6.425   1.037
63651W        W35977  21.052  13.350   4.666
63652W        W35978  17.698  17.738  14.040
63653W        W35979  17.181  31.849  14.942
63654W        W35980  34.624   2.249  11.211
63655W        W35981  20.680  33.099   3.642
63656W        W35982  23.681  27.516  13.829
63657W        W35983  15.675  24.471   1.687
63658W        W35984  36.471  37.894  13.446
63659W        W35985  22.307   5.469  11.180
63660W        W35986  23.530  21.938  12.411
63661W        W35987  43.037  12.317  11.496
63662W        W35988   7.843  11.163   4.155
63663W        W35989   5.926  40.239  12.400
63664W        W35990  16.774   3.731   2.610
63665W        W35991  30.358  27.256  10.709
63666W        W35992  34.598  43.103   1.588
63667W        W35993  12.120  36.373   3.787
63668W        W35994  24.996  32.673   4.161
63669W        W35995  41.919  36.773   3.565
63670W        W35996  30.062  26.939   2.448
63671W        W35997   3.653  35.878  13.093
63672W        W35998  28.894  35.113  13.915
63673W        W35999   3.021  10.956   4.941
63674W        W36000  24.569   8.962   3.903
63675W        W36001   4.293  29.713  13.798
63676W        W36002  11.248   3.473   1.900
63677W        W36003   4.000   9.703  12.928
63678W        W36004  32.552  35.951   1.573
63679W        W36005  34.447  39.563   3.186
63680W        W36006   7.213  35.365  11.076
63681W        W36007   9.948  23.275   0.865
63682W        W36008   3.073  42.111   3.343
63683W        W36009  37.411  39.414  11.479
63684W        W36010  36.922  33.926  11.651
63685W        W36011  15.629   8.411   3.837
63686W        W36012  15.164  13.883   5.069
63687W        W36013   3.933   3.000   0.350
63688W        W36014  31.075  15.454  14.712
63689W        W36015  41.978  37.417  10.329
63690W        W36016  36.974   0.731  10.923
63691W        W36017   6.053  22.521  14.739
63692W        W36018   3.886  35.383  12.490
63693W        W36019   7.445  24.702   3.584
63694W        W36020  35.091  39.516   2.880
63695W        W36021  22.080  36.910   0.306
63696W        W36022  30.911   0.441   1.796
63697W        W36023  24.045  41.628   4.660
63698W        W36024  22.760  10.834  13.817
63699W        W36025  32.877  10.867   0.941
63700W        W36026  39.389  29.448   3.285
63701W        W36027  11.810   8.384  13.538
63702W        W36028  25.031  29.530   3.723
63703W        W36029  41.085  29.974   4.179
63704W        W36030   5.371  27.397   3.771
63705W        W36031  37.882  11.283  11.398
63706W        W36032  28.169  18.335  13.381
63707W        W36033   4.248  25.588   2.853
63708W        W36034  35.315  39.736  12.010
63709W        W36035  23.083   1.051  12.113
63710W        W36036   5.871  21.987   0.408
63711W        W36037  34.719   3.897   3.521
63712W        W36038  12.638  22.338  10.801
63713W        W36039  23.559  35.813  13.962
63714W        W36040   5.719  17.635   0.547
63715W        W36041  39.320  22.295   2.740
63716W        W36042  18.371  44.619  12.390
63717W        W36043   3.651  34.317   0.410
63718W        W36044   7.363  32.950  14.767
63719W        W36045   7.934   8.125   0.476
63720W        W36046   2.894   1.380  11.144
63721W        W36047   0.603  35.115   0.484
63722W        W36048   6.707  19.829  12.317
63723W        W36049   5.657  43.481  12.701
63724W        W36050   6.762  40.756  13.858
63725W        W36051   4.088   2.301   0.954
63726W        W36052  15.297  31.109   0.303
63727W        W36053  27.176  13.163  11.624
63728W        W36054  29.915   0.226  11.109
63729W        W36055  32.828   7.216   3.422
63730W        W36056   8.242   0.980  10.458
63731W        W36057  11.593   8.122  14.996
63732W        W36058   8.775  26.625   3.414
63733W        W36059  44.360  43.290   1.955
63734W        W36060  22.681   4.251  14.181
63735W        W36061   4.198  31.235   0.800
63736W        W36062  39.094  39.937   0.842
63737W        W36063  13.716  27.695   2.820
63738W        W36064  33.680  11.599   4.516
63739W        W36065  19.716  22.705   1.424
63740W        W36066  33.382  41.300   4.607
63741W        W36067  33.624  17.205  13.062
63742W        W36068   2.743  43.019  12.179
63743W        W36069   6.158  17.930   3.646
63744W        W36070   2.304  13.755  10.890
63745W        W36071  24.053  37.357  12.867
63746W        W36072  10.589  43.498  14.344
63747W        W36073  13.101  15.761  10.059
63748W        W36074   8.965   5.627   0.415
63749W        W36075  23.122  17.650   3.662
63750W        W36076  42.149  39.578  12.919
63751W        W36077  29.937  37.374  10.519
63752W        W36078  31.656  21.813   4.622
63753W        W36079  23.115  38.147   2.834
63754W        W36080   3.854  40.004  14.704
63755W        W36081   2.255  24.688  10.811
63756W        W36082  25.555  38.747  11.494
63757W        W36083  43.654  14.961   2.269
63758W        W36084  25.288   5.686   1.397
63759W        W36085  17.236  10.662   1.268
63760W        W36086  37.611   8.948   4.648
63761W        W36087  21.042   0.542  13.892
63762W        W36088   6.757  29.547   2.735
63763W        W36089  10.285  20.995   2.712
63764W        W36090  35.971   7.248   2.258
63765W        W36091  25.439  35.648   2.858
63766W        W36092  31.190   9.292  11.991
63767W        W36093  36.973  27.053  13.002
63768W        W36094   3.304  18.036   1.880
63769W        W36095  15.725  41.733   4.867
63770W        W36096  13.322  18.067   3.191
63771W        W36097  27.988  40.011   4.791
63772W        W36098  21.013   8.676   1.831
63773W        W36099  32.081  34.851   2.317
63774W        W36100  18.605   0.534   0.752
63775W        W36101  34.523  33.066  12.525
63776W        W36102  25.822  23.200  14.419
63777W        W36103  43.711  41.493   0.140
63778W        W36104  12.497  11.278   1.771
63779W        W36105  39.836  23.644  13.890
63780W        W36106   5.826  11.407  12.832
63781W        W36107  43.781  28.398  12.821
63782W        W36108  26.321   3.647   2.798
63783W        W36109  27.133  20.755   2.458
63784W        W36110  21.661  14.306  13.512
63785W        W36111  17.086  44.840   3.201
63786W        W36112  14.735  21.746  14.957
63787W        W36113  25.063  38.558  14.500
63788W        W36114   2.959  12.869   3.193
63789W        W36115  43.250  41.927  11.214
63790W        W36116  32.429  21.034  13.414
63791W        W36117   9.675   3.654   4.499
63792W        W36118  25.195   1.532  13.021
63793W        W36119  18.946  44.461   2.293
63794W        W36120  39.439  14.918   4.531
63795W        W36121  24.030  29.645   0.496
63796W        W36122  25.718  22.527  13.048
63797W        W36123  40.361  24.254  12.114
63798W        W36124  26.820  11.629   1.098
63799W        W36125   1.850  12.657  14.291
63800W        W36126  32.445  40.058   4.380
63801W        W36127  42.091   3.004  10.572
63802W        W36128   7.256  42.859   4.401
63803W        W36129  11.252   8.717   1.903
63804W        W36130  24.290  27.523  11.637
63805W        W36131   4.686   8.881   4.134
63806W        W36132  26.204  38.432  14.278
63807W        W36133  34.827  41.283   1.906
63808W        W36134   2.353  30.187   0.319
63809W        W36135  41.343  43.271  12.872
63810W        W36136   1.657   8.122   1.695
63811W        W36137  31.979  38.429   3.166
63812W        W36138  43.745  10.529  13.078
63813W        W36139   4.955  29.015   1.888
63814W        W36140  22.265   4.049  11.467
63815W        W36141   7.639  24.178  14.301
63816W        W36142  31.424  20.021   1.606
63817W        W36143  10.200  22.967   3.747
63818W        W36144   4.605  39.485  12.425
63819W        W36145  31.483   3.561   2.505
63820W        W36146  10.075   6.313  12.091
63821W        W36147  38.431   8.663   2.738
63822W        W36148  10.519  13.651  11.410
63823W        W36149  10.769  44.748   4.617
63824W        W36150  32.965   0.832   1.031
63825W        W36151  32.850  38.792   2.948
63826W        W36152   2.230  15.764  14.911
63827W        W36153  24.564  23.990  11.822
63828W        W36154  11.698  10.217  13.072
63829W        W36155  30.249   0.843   4.527
63830W        W36156  17.596  44.783   4.625
63831W        W36157  36.010  25.540  12.094
63832W        W36158  28.231  18.084  14.773
63833W        W36159  40.188  16.719   4.300
63834W        W36160  27.967   9.057   0.157
63835W        W36161  16.078   8.580   2.267
63836W        W36162   7.734  21.695   1.981
63837W        W36163  18.332  41.515  10.849
63838W        W36164  20.684   4.946  12.905
63839W        W36165   8.276   8.707   4.082
63840W        W36166  19.358  11.182  13.538
63841W        W36167  33.938  40.896   4.768
63842W        W36168  18.691  31.009  14.345
63843W        W36169  41.966  23.633  12.995
63844W        W36170  28.898  22.600   2.775
63845W        W36171   4.257  22.719   0.160
63846W        W36172  26.917   9.821  13.525
63847W        W36173  15.300  39.775  10.661
63848W        W36174  29.947  11.905   3.756
63849W        W36175  40.990  36.287  11.164
63850W        W36176  13.440   0.411   0.018
63851W        W36177   8.364  37.981   1.674
63852W        W36178   1.932  23.041   0.047
63853W        W36179  12.281  34.652   1.821
63854W        W36180  39.839  39.386   3.272
63855W        W36181  40.764  39.981   2.236
63856W        W36182  17.270  37.314   0.209
63857W        W36183  21.645  25.068  12.462
63858W        W36184   4.002   6.878   2.811
63859W        W36185   9.040  30.509  12.538
63860W        W36186  43.910  42.477   4.974
63861W        W36187  14.659  33.346  10.695
63862W        W36188  39.954  40.073   1.769
63863W        W36189  17.640  17.112   0.918
63864W        W36190  24.674   6.086  10.691
63865W        W36191  40.831  21.078   3.276
63866W        W36192   6.315  43.843   4.090
63867W        W36193   6.137  13.629   3.565
63868W        W36194  32.376  17.586  10.529
63869W        W36195   0.077  32.620  11.971
63870W        W36196  24.027  11.806   0.554
63871W        W36197  30.405   1.573   2.756
63872W        W36198  23.414  24.962   2.203
63873W        W36199  31.964   9.172   2.302
63874W        W36200  16.521  11.654  14.301
63875W        W36201  40.483  35.538   2.693
63876W        W36202  38.819  12.346   1.235
63877W        W36203  42.399  29.004   0.505
63878W        W36204  21.610  32.464   3.201
63879W        W36205  40.814   3.516   0.090
63880W        W36206  26.498  10.320   4.174
63881W        W36207  25.532   5.684  11.142
63882W        W36208   9.480  30.927   3.085
63883W        W36209  39.020   9.251  11.924
63884W        W36210  14.824  17.576  13.447
63885W        W36211  44.906  17.090   1.698
63886W        W36212  35.135   5.737   3.650
63887W        W36213   1.683  24.048   2.257
63888W        W36214  32.559   2.422   0.392
63889W        W36215  29.018  42.062   0.346
63890W        W36216   1.383  39.476   3.736
63891W        W36217   5.815  21.862   0.938
63892W        W36218   8.322  29.891   2.152
63893W        W36219  32.596   5.343   4.529
63894W        W36220  18.580  20.723   4.123
63895W        W36221  31.068   7.791  13.107
63896W        W36222  44.728  41.509   4.120
63897W        W36223  35.534  20.291  14.120
63898W        W36224   3.533   5.091   3.770
63899W        W36225   6.326  27.392   0.832
63900W        W36226  10.341  44.958  13.198
63901W        W36227  13.611   1.264  12.911
63902W        W36228  30.343   8.212  12.011
63903W        W36229  25.096  27.964  11.541
63904W        W36230  24.928   5.021   4.989
63905W        W36231   3.718  42.315  13.794
63906W        W36232  32.723  10.120   3.145
63907W        W36233  13.824  20.400  12.110
63908W        W36234   4.645  38.383   3.908
63909W        W36235  31.443   1.489  11.523
63910W        W36236  37.931   2.239  12.590
63911W        W36237  28.519  31.495   1.982
63912W        W36238   5.251  38.208  11.985
63913W        W36239  42.075  20.593   1.937
63914W        W36240   6.599  36.437  14.842
63915W        W36241  33.338  34.767   2.253
63916W        W36242   6.655  25.249  14.045
63917W        W36243  31.422  42.070   2.740
63918W        W36244   1.620  32.071   1.919
63919W        W36245  17.613  14.511  14.422
63920W        W36246   4.751  35.341   0.772
63921W        W36247   4.194  44.964  11.607
63922W        W36248   2.877  13.967  12.482
63923W        W36249  44.950  33.543  14.389
63924W        W36250  12.632   5.261   3.398
63925W        W36251  22.962  22.579   4.093
63926W        W36252  38.292   4.704   1.365
63927W        W36253  14.845   9.968   1.365
63928W        W36254  15.827  28.430  14.937
63929W        W36255   4.416   5.345  14.367
63930W        W36256  18.255  19.616   3.404
63931W        W36257  18.774  32.691  12.097
63932W        W36258  34.219  32.539  10.500
63933W        W36259  38.924  40.614   5.000
63934W        W36260  41.912   2.737  13.387
63935W        W36261   0.429   0.308   0.785
63936W        W36262   5.923  27.594   2.437
63937W        W36263  44.849   1.281  11.126
63938W        W36264  43.889  16.428  11.899
63939W        W36265  26.729  24.617   1.933
63940W        W36266  19.129  31.432   2.787
63941W        W36267  42.566   3.289  14.711
63942W        W36268  28.471  40.384  10.651
63943W        W36269   3.311  32.142  13.524
63944W        W36270  22.295  14.641  10.991
63945W        W36271  36.806  14.612  11.054
63946W        W36272  43.669   1.684  10.827
63947W        W36273   4.688  13.711   3.171
63948W        W36274   8.651  40.602   4.337
63949W        W36275   2.124  44.816  11.552
63950W        W36276  23.687  29.579   3.610
63951W        W36277  14.311  12.946  12.701
63952W        W36278   1.937  30.186  14.611
63953W        W36279  36.258  11.806  11.969
63954W        W36280  29.842  33.753   2.819
63955W        W36281  10.653  19.156   1.684
63956W        W36282  22.669  21.109  14.945
63957W        W36283   6.375  18.695   0.848
63958W        W36284   1.345  30.105  11.615
63959W        W36285  15.762  16.637   3.979
63960W        W36286  43.904  38.610  13.476
63961W        W36287   8.154  32.637   0.878
63962W        W36288  13.149  35.634   0.388
63963W        W36289   8.366  37.335  13.061
63964W        W36290  31.409  36.013   2.089
63965W        W36291   4.799  14.603  13.439
63966W        W36292  16.147  35.039   2.851
63967W        W36293  13.630  28.650   0.239
63968W        W36294  26.130  21.529  13.035
63969W        W36295  42.298  18.855   0.392
63970W        W36296  32.475  36.332   3.917
63971W        W36297  29.962  21.968  12.171
63972W        W36298  25.404  26.091  13.590
63973W        W36299  44.909  29.499  12.881
63974W        W36300  26.846  21.078  13.507
63975W        W36301  23.146  13.243  13.259
63976W        W36302  35.413  18.151  12.971
63977W        W36303   4.408  20.285   1.220
63978W        W36304  14.595  27.672  14.697
63979W        W36305  24.188   7.200   4.543
63980W        W36306  32.385  19.641   4.173
63981W        W36307  15.230  18.285  13.895
63982W        W36308  24.881  30.874  14.059
63983W        W36309  17.610  21.741  11.514
63984W        W36310  44.084  42.921   0.013
63985W        W36311   6.409  41.301  14.301
63986W        W36312  25.989  33.888   0.466
63987W        W36313  35.413   1.476  14.071
63988W        W36314  14.992   2.722   1.415
63989W        W36315  29.370   6.279   0.726
63990W        W36316  13.111  23.176   1.042
63991W        W36317  12.681  11.205   3.792
63992W        W36318   8.443   8.938  14.261
63993W        W36319  33.150  23.038  14.320
63994W        W36320  33.291   0.283  12.578
63995W        W36321  14.531  42.249   3.657
63996W        W36322  25.438  39.029  13.770
63997W        W36323  22.115   2.983  13.713
63998W        W36324   7.909  22.985   2.722
63999W        W36325  26.260   4.907  12.159
64000W        W36326  32.614  26.155   0.357
64001W        W36327  42.755  10.990   3.673
64002W        W36328   5.083   2.793   3.998
64003W        W36329  42.409   4.545   4.275
64004W        W36330  28.647  28.055   5.427
64005W        W36331  27.114   6.706  10.912
64006W        W36332   0.930  18.700   2.442
64007W        W36333  42.641  39.498   1.472
64008W        W36334  25.110  33.519  13.865
64009W        W36335  22.635   9.868  13.313
64010W        W36336   1.808  15.356  14.065
64011W        W36337   8.879   2.080   4.227
64012W        W36338  36.164  40.501   2.615
64013W        W36339   2.822  24.081   3.225
64014W        W36340  41.542   3.977  14.025
64015W        W36341  33.594  42.835   1.598
64016W        W36342   2.431   3.336  14.133
64017W        W36343   0.371  41.028   2.246
64018W        W36344  29.763  36.584  14.907
64019W        W36345  27.065  39.201   3.761
64020W        W36346  13.790  19.341   4.899
64021W        W36347  16.764   1.182   2.334
64022W        W36348  29.076  16.996  11.980
64023W        W36349  28.519  42.127   4.617
64024W        W36350   5.792  10.632  13.351
64025W        W36351  43.749  35.426  14.689
64026W        W36352  27.520  26.116   1.927
64027W        W36353  32.508  29.127  11.143
64028W        W36354  35.008  38.117  13.041
64029W        W36355   7.287  42.437  12.914
64030W        W36356  15.125  42.998   2.862
64031W        W36357  20.480   9.262   2.771
64032W        W36358  17.142  31.615   1.244
64033W        W36359   5.778  26.446  14.983
64034W        W36360  16.881  20.029   3.667
64035W        W36361   2.788  41.902   1.822
64036W        W36362   2.415  35.623   4.656
64037W        W36363  31.886  29.261   2.304
64038W        W36364  27.033   3.744  11.566
64039W        W36365  20.554  39.606  13.032
64040W        W36366  22.733  13.576   0.312
64041W        W36367   4.936  40.778   1.285
64042W        W36368  44.583  18.250  11.578
64043W        W36369  16.154  18.153   2.683
64044W        W36370  39.034  10.923  10.670
64045W        W36371  26.855  15.581  11.025
64046W        W36372   9.832  41.263   3.763
64047W        W36373  19.292  34.490  10.629
64048W        W36374  36.280  30.621  11.133
64049W        W36375  26.156   9.357  10.496
64050W        W36376  25.009  28.530   3.625
64051W        W36377  41.770  43.889  12.039
64052W        W36378  13.909   5.441  12.984
64053W        W36379   2.898   7.358   3.258
64054W        W36380  44.564  31.909  11.116
64055W        W36381  19.807  36.973  13.016
64056W        W36382  33.583   8.378   4.910
64057W        W36383  33.231  41.229  11.142
64058W        W36384  11.697  34.529   9.699
64059W        W36385  34.983  14.121  14.268
64060W        W36386  18.539  21.585   0.213
64061W        W36387  23.534  36.081   3.397
64062W        W36388   8.251  16.196   3.370
64063W        W36389   5.788   1.441   1.866
64064W        W36390  34.794  44.779  13.964
64065W        W36391  18.194  23.441  13.035
64066W        W36392  42.357  43.342  11.642
64067W        W36393  21.870  21.547   1.370
64068W        W36394  28.120  13.473   0.885
64069W        W36395  36.180   6.368  13.269
64070W        W36396  10.953  27.039  13.708
64071W        W36397  39.366  41.660   0.213
64072W        W36398   1.946  30.248   1.776
64073W        W36399  28.074  26.882  13.193
64074W        W36400  15.189  20.765   0.312
64075W        W36401  30.030  16.998   2.088
64076W        W36402  23.297  13.765   4.505
64077W        W36403  30.690   3.447   2.867
64078W        W36404  36.041  13.817   4.302
64079W        W36405  26.329  32.028   0.580
64080W        W36406  41.241  42.816   3.417
64081W        W36407  10.728   9.483   0.444
64082W        W36408  43.789   7.727   0.324
64083W        W36409  15.316  35.407  12.518
64084W        W36410  24.573  34.654   2.718
64085W        W36411  38.512  42.410   2.834
64086W        W36412  25.267  32.297   3.848
64087W        W36413   9.719  29.938   0.361
64088W        W36414   9.212   3.371  10.411
64089W        W36415  33.129   2.380  13.755
64090W        W36416  26.869   5.196   4.930
64091W        W36417   6.275  44.528   4.734
64092W        W36418  42.129  43.226  10.748
64093W        W36419  33.521  37.634  14.142
64094W        W36420  43.697  20.363  12.814
64095W        W36421  14.757  23.992   1.867
64096W        W36422  28.191   8.971  11.945
64097W        W36423  21.988  42.792  10.311
64098W        W36424  38.988  15.374   0.708
64099W        W36425  44.004  22.938  13.021
64100W        W36426  44.405   3.365  13.341
64101W        W36427  30.926  10.066  14.878
64102W        W36428  14.531  23.517   4.862
64103W        W36429  26.788  41.897  12.892
64104W        W36430  14.193  26.331   0.767
64105W        W36431   2.802  33.261   0.076
64106W        W36432   4.798  19.172   0.952
64107W        W36433  12.655  31.479  12.030
64108W        W36434  31.067  44.551   1.475
64109W        W36435  17.476  17.669   0.348
64110W        W36436   5.273  24.421  12.911
64111W        W36437   6.137  19.790   2.832
64112W        W36438  26.492  28.988   3.557
64113W        W36439  24.510  33.933   1.420
64114W        W36440  39.979  18.513   1.521
64115W        W36441  21.547   1.472  13.000
64116W        W36442   0.289  37.394   4.674
64117W        W36443  36.843  13.283   3.240
64118W        W36444  23.178   7.804   3.386
64119W        W36445  38.005  44.247  14.819
64120W        W36446  39.303  19.013  14.179
64121W        W36447   5.814  28.700  10.989
64122W        W36448  19.502  40.758   2.303
64123W        W36449  11.344  26.498   0.249
64124W        W36450  35.025   4.824  13.749
64125W        W36451  20.237  13.008  14.796
64126W        W36452   3.001   3.675  11.635
64127W        W36453   9.432  32.159  13.341
64128W        W36454  19.040   8.566  14.851
64129W        W36455  32.951  12.826   2.894
64130W        W36456  29.436  44.610   4.757
64131W        W36457  20.447  12.360  14.898
64132W        W36458  11.191   0.472   2.196
64133W        W36459  44.745   2.252  12.922
64134W        W36460   9.685  41.567  11.924
64135W        W36461  20.745   9.289   2.281
64136W        W36462  33.847  24.962   2.561
64137W        W36463  33.491  39.447   4.958
64138W        W36464  38.373  41.508  10.945
64139W        W36465  24.213  29.371   2.716
64140W        W36466  14.745  10.761  13.440
64141W        W36467  33.610  17.733  12.340
64142W        W36468  29.776  21.583  11.032
64143W        W36469  42.067   0.479  12.034
64144W        W36470   9.395   9.382   3.858
64145W        W36471  14.005  32.147  10.155
64146W        W36472   8.155   6.148  10.957
64147W        W36473  14.618  17.312   0.108
64148W        W36474  31.194  21.139  13.964
64149W        W36475  35.941  12.189  13.456
64150W        W36476  14.662  22.678   2.309
64151W        W36477  44.017  29.093  14.680
64152W        W36478  25.574   7.362  12.378
64153W        W36479  35.686  31.993  14.916
64154W        W36480  24.816   2.739  11.615
64155W        W36481  19.043  32.969  12.566
64156W        W36482  41.464  32.868   0.281
64157W        W36483  11.409   0.349   3.584
64158W        W36484  33.082  19.323  13.811
64159W        W36485  22.295  30.987  13.644
64160W        W36486  15.159  25.625   2.945
64161W        W36487  10.844  42.429   1.567
64162W        W36488  26.865  37.343  10.711
64163W        W36489  30.501  20.634   4.642
64164W        W36490  32.530  25.136   3.719
64165W        W36491  10.585  44.740   1.420
64166W        W36492  17.650  44.213   1.343
64167W        W36493  39.039  10.517  12.876
64168W        W36494  10.672  37.345  12.874
64169W        W36495  10.474  34.564  14.965
64170W        W36496  15.918  22.537   3.319
64171W        W36497   6.926   4.666   3.729
64172W        W36498  10.811  25.534   4.655
64173W        W36499  41.378  39.387  11.462
64174W        W36500  24.638   5.628  13.954
64175W        W36501   1.898  22.782   3.701
64176W        W36502   7.011  16.883   0.941
64177W        W36503  35.502  20.186  13.412
64178W        W36504  26.357  13.332   2.943
64179W        W36505  35.440  35.642  11.613
64180W        W36506   3.502  10.092  11.092
64181W        W36507  43.804   2.346   0.225
64182W        W36508  44.548  24.772   4.173
64183W        W36509  32.992  17.658   3.529
64184W        W36510   1.311  44.708   2.462
64185W        W36511  10.638  39.462  11.171
64186W        W36512  36.336  31.639  12.507
64187W        W36513   0.587  19.258   2.509
64188W        W36514  30.591  38.405  14.946
64189W        W36515   6.518  19.636  12.940
64190W        W36516  15.679  35.057   0.533
64191W        W36517   7.709  44.925  11.179
64192W        W36518  42.215  40.233   0.951
64193W        W36519  10.564  44.564   0.939
64194W        W36520  36.615  41.337   0.850
64195W        W36521  13.122  15.844   2.802
64196W        W36522  25.939   4.763  13.700
64197W        W36523   0.806  32.331   5.157
64198W        W36524   9.733  25.674  10.783
64199W        W36525  12.750  41.612  10.592
64200W        W36526  42.396   5.915  14.497
64201W        W36527   5.355  32.400  12.941
64202W        W36528   4.378  29.081   3.644
64203W        W36529   6.118   9.626   1.102
64204W        W36530  32.757  43.848   2.134
64205W        W36531  14.737  40.969  13.127
64206W        W36532  30.184   0.222   2.713
64207W        W36533  35.522   7.054  11.469
64208W        W36534  27.137   6.202  13.951
64209W        W36535  24.789   2.336  14.611
64210W        W36536  25.609   6.504  13.911
64211W        W36537  39.840  28.597  14.381
64212W        W36538  28.538  39.059   4.135
64213W        W36539  26.736  21.204   1.659
64214W        W36540  33.143  43.263  14.923
64215W        W36541   0.435  11.504  11.961
64216W        W36542  42.255   3.962  10.754
64217W        W36543  22.580   5.694  11.947
64218W        W36544  20.140  35.430   3.799
64219W        W36545  30.604  28.303   2.624
64220W        W36546   2.952   9.004  13.782
64221W        W36547  24.179  36.417  12.203
64222W        W36548  20.213  25.211   2.931
64223W        W36549  10.039  34.481   4.102
64224W        W36550  27.565  26.554   1.604
64225W        W36551  17.602   7.671   1.971
64226W        W36552  10.811  18.111   2.330
64227W        W36553   8.427  17.444  12.047
64228W        W36554  11.785  12.309  13.985
64229W        W36555   4.998  32.171   4.175
64230W        W36556  22.190  29.112   4.686
64231W        W36557  12.762  11.666   4.260
64232W        W36558  41.992   5.035   4.622
64233W        W36559  25.954  35.369   2.873
64234W        W36560  28.235  32.851   2.726
64235W        W36561  38.008   8.326   2.403
64236W        W36562  20.476  32.415   3.223
64237W        W36563  22.199  40.352  12.777
64238W        W36564  11.795  27.838   3.369
64239W        W36565  19.251  12.584  14.414
64240W        W36566  15.413  36.111  13.970
64241W        W36567  15.957   9.519   4.030
64242W        W36568  10.403  43.487  13.849
64243W        W36569  38.047  20.604  14.432
64244W        W36570  14.738   4.012   1.782
64245W        W36571   0.290   9.385  11.100
64246W        W36572  26.961  19.029   1.990
64247W        W36573  32.923  43.329   0.840
64248W        W36574  41.527  21.343  13.535
64249W        W36575  20.961  13.214   3.169
64250W        W36576  26.665  41.433   3.953
64251W        W36577  16.649  34.968   2.597
64252W        W36578  33.978  17.342  14.835
64253W        W36579  39.462  11.754  11.178
64254W        W36580   7.449  38.279  13.033
64255W        W36581  25.682  17.831  14.206
64256W        W36582  25.681  42.882   3.259
64257W        W36583   9.768   0.759   4.736
64258W        W36584   9.221   5.263  10.960
64259W        W36585  27.244   9.023  11.846
64260W        W36586   9.335   2.996   2.179
64261W        W36587  43.448  21.650  13.827
64262W        W36588  22.486  40.881   2.740
64263W        W36589  39.022   9.042   0.416
64264W        W36590  34.310   8.265  12.706
64265W        W36591   8.150   8.956   1.422
64266W        W36592  11.930  21.232   4.452
64267W        W36593  38.347  40.988  14.394
64268W        W36594  12.212   6.394  14.817
64269W        W36595   1.342  31.822  14.254
64270W        W36596   2.426  27.936   1.723
64271W        W36597  29.627  12.473  10.836
64272W        W36598   6.731  36.685   2.276
64273W        W36599  38.122  41.107  12.111
64274W        W36600   9.431   0.923   4.367
64275W        W36601   7.151  31.464   0.472
64276W        W36602   3.424  27.500  14.618
64277W        W36603  14.334  19.443   4.200
64278W        W36604  12.062  30.638   3.753
64279W        W36605  22.193  24.836  11.031
64280W        W36606   7.677   3.668   0.872
64281W        W36607   8.839  42.098   3.968
64282W        W36608  40.082  16.638  13.949
64283W        W36609  24.175  24.946  12.430
64284W        W36610  23.824  43.425  13.951
64285W        W36611   4.074  37.978   4.216
64286W        W36612   9.592  19.334   2.678
64287W        W36613   2.403  38.001  11.391
64288W        W36614   0.309  38.409   4.633
64289W        W36615  41.116  43.148   4.592
64290W        W36616  25.200  18.997   3.738
64291W        W36617  38.605   6.925   1.171
64292W        W36618  43.573  22.828  12.109
64293W        W36619   8.133   5.371   0.273
64294W        W36620  36.044  13.373  11.994
64295W        W36621  31.686  36.473  11.604
64296W        W36622  24.141   5.527  13.892
64297W        W36623   6.285  36.175   2.728
64298W        W36624  21.998   1.948  10.417
64299W        W36625  18.711  10.479  14.030
64300W        W36626  13.625  16.117  12.063
64301W        W36627  27.961  39.309   3.773
64302W        W36628  37.367  21.074  11.214
64303W        W36629  22.664   6.258  12.656
64304W        W36630  30.043  38.560  13.812
64305W        W36631  10.695  29.923  13.009
64306W        W36632  36.717  15.580   2.958
64307W        W36633  22.104  31.875   2.801
64308W        W36634   4.799  34.505  12.484
64309W        W36635  33.449  26.535  10.240
64310W        W36636   4.872  26.678  13.494
64311W        W36637  41.497  33.926   0.355
64312W        W36638   1.952  32.631  14.138
64313W        W36639   8.310  18.784   4.417
64314W        W36640  12.962  23.984   4.934
64315W        W36641  34.345  30.374  14.506
64316W        W36642   8.098  22.968  13.127
64317W        W36643   0.527   6.389   2.149
64318W        W36644  21.566  29.152  12.115
64319W        W36645  23.192  41.037  10.933
64320W        W36646   5.987   4.214  11.317
64321W        W36647  15.748  23.710  11.300
64322W        W36648  24.409   0.007   1.705
64323W        W36649  31.608  36.982   3.590
64324W        W36650  22.255  27.003  11.921
64325W        W36651   4.927  30.703   3.249
64326W        W36652  20.047  41.370  14.708
64327W        W36653   8.975  21.047  12.200
64328W        W36654   0.380   0.466  14.796
64329W        W36655  37.092  16.561  11.927
64330W        W36656  32.569  42.780  13.485
64331W        W36657  36.182  10.454  11.265
64332W        W36658   9.429   1.239  14.396
64333W        W36659  19.034   2.681  14.405
64334W        W36660  24.755  16.157   1.814
64335W        W36661   1.263  35.915   2.296
64336W        W36662   1.848   5.829   2.295
64337W        W36663  18.343  22.717  13.899
64338W        W36664  25.428   8.337  14.349
64339W        W36665  36.814  24.451  13.494
64340W        W36666  18.306  12.843   0.745
64341W        W36667  21.149  40.363  11.698
64342W        W36668  32.902   6.464  11.178
64343W        W36669   5.467  20.138   1.300
64344W        W36670  17.771  12.344   1.927
64345W        W36671  14.637  14.099  11.549
64346W        W36672  29.048  22.038   1.707
64347W        W36673   9.668  34.812   2.657
64348W        W36674  33.822  39.459   1.474
64349W        W36675  25.531   2.355  14.315
64350W        W36676  15.090   1.852  12.491
64351W        W36677  38.765  16.909   2.900
64352W        W36678   2.923  11.753  11.420
64353W        W36679  33.653  25.663  12.012
64354W        W36680  25.457   8.833   2.976
64355W        W36681  38.309  24.022  11.153
64356W        W36682   5.034  42.336   0.986
64357W        W36683  32.846  20.537   1.461
64358W        W36684  15.056  34.879  11.569
64359W        W36685   4.874  38.057   0.654
64360W        W36686  20.682  30.245   1.830
64361W        W36687  34.906  13.604   4.718
64362W        W36688  25.957  38.377   3.289
64363W        W36689  33.448   0.426  11.233
64364W        W36690  27.718  39.849   0.274
64365W        W36691  12.600  28.109   1.276
64366W        W36692  24.423  16.543  14.212
64367W        W36693  12.805  42.813   0.492
64368W        W36694  17.036   6.767   3.232
64369W        W36695  33.352  19.164  11.212
64370W        W36696  33.870  19.419   5.034
64371W        W36697   0.551   2.223  11.587
64372W        W36698   9.707  27.096   4.204
64373W        W36699  19.677   7.338   3.855
64374W        W36700   8.553  27.039   4.780
64375W        W36701  38.116  15.442   4.117
64376W        W36702   1.345  26.775  11.576
64377W        W36703  25.538  23.452  14.912
64378W        W36704  17.319  13.922  13.895
64379W        W36705  27.958   7.127  14.974
64380W        W36706  13.030  10.177   0.829
64381W        W36707  13.721  32.409  10.974
64382W        W36708   1.375  23.168   2.746
64383W        W36709  21.516   1.524  14.087
64384W        W36710  32.559   0.830   3.895
64385W        W36711   4.480  40.461   2.712
64386W        W36712  15.813  40.822   3.697
64387W        W36713  39.893   8.837  11.117
64388W        W36714  38.490  33.005  10.868
64389W        W36715  25.558  12.714   0.273
64390W        W36716  41.247  34.550  10.610
64391W        W36717  17.734   7.383   0.779
64392W        W36718  18.169  38.985   2.135
64393W        W36719  35.823  32.502  12.372
64394W        W36720   2.117  19.663  10.165
64395W        W36721  20.286  19.646  10.519
64396W        W36722  10.917  24.724   1.878
64397W        W36723  39.593  25.040   3.248
64398W        W36724  11.374   1.975   1.052
64399W        W36725  19.762  29.553   2.973
64400W        W36726   7.955   4.012  12.618
64401W        W36727  21.695  29.877  13.537
64402W        W36728  29.504  42.587   2.671
64403W        W36729  38.238  26.797   0.742
64404W        W36730  33.373   1.439   0.413
64405W        W36731  18.035  42.771   2.236
64406W        W36732  30.937  28.422   4.098
64407W        W36733   2.920  40.607   2.061
64408W        W36734  32.139   7.469  11.645
64409W        W36735   9.728  18.204   4.157
64410W        W36736  40.488  11.755  10.772
64411W        W36737   9.816   7.295  13.763
64412W        W36738  34.097  32.651  14.268
64413W        W36739  36.047  24.024  10.492
64414W        W36740  40.223  39.460  11.352
64415W        W36741  28.625   0.414   0.322
64416W        W36742  44.983  23.747  13.719
64417W        W36743  10.908  34.319   1.223
64418W        W36744  13.955   3.434  12.383
64419W        W36745   3.822  41.578  14.522
64420W        W36746  44.969   5.430   4.799
64421W        W36747  36.209  31.433   0.346
64422W        W36748  38.646  44.758  14.376
64423W        W36749  41.787  30.589  11.351
64424W        W36750  40.771  22.035  14.953
64425W        W36751   8.374  15.205  10.625
64426W        W36752   9.065  25.601  12.598
64427W        W36753   0.253  41.909   1.924
64428W        W36754  18.268  25.536   4.164
64429W        W36755  39.820  14.052   4.236
64430W        W36756   8.800  41.752   1.749
64431W        W36757  12.582   0.442   2.322
64432W        W36758  23.552  14.578   1.243
64433W        W36759  13.805  31.613   3.893
64434W        W36760  40.550  24.641  13.434
64435W        W36761  12.835   6.056   0.276
64436W        W36762  38.424   7.706   1.719
64437W        W36763  10.965  13.997   4.560
64438W        W36764  44.725  37.373  14.116
64439W        W36765  29.685  19.646   4.163
64440W        W36766  21.365   1.962   2.189
64441W        W36767  34.601  25.138   3.736
64442W        W36768  13.673  37.803   4.027
64443W        W36769  15.877  15.708   4.543
64444W        W36770  16.837  28.487   1.896
64445W        W36771  34.547   8.123   4.452
64446W        W36772   1.819  34.742  13.340
64447W        W36773  25.447  30.007   3.042
64448W        W36774  29.155   4.885   4.166
64449W        W36775  40.307  30.738   5.319
64450W        W36776  34.759  23.534   0.481
64451W        W36777   7.792  16.112   1.027
64452W        W36778  15.838   1.785   4.902
64453W        W36779   5.985   6.778  14.787
64454W        W36780   0.850  27.544  11.083
64455W        W36781  24.535  22.528  10.930
64456W        W36782   7.398  18.446   3.838
64457W        W36783   3.305   8.210   3.679
64458W        W36784  14.838  26.051   2.959
64459W        W36785  25.708  17.122   3.700
64460W        W36786  32.632  34.673  14.560
64461W        W36787  21.232   2.755  12.390
64462W        W36788  24.653  27.369  11.141
64463W        W36789  33.284  17.665  11.542
64464W        W36790  37.809  27.685   1.496
64465W        W36791  19.969  31.527  12.683
64466W        W36792  25.507  20.675   4.563
64467W        W36793  16.622  19.055   4.522
64468W        W36794  16.839   2.148   4.675
64469W        W36795   5.695   0.213   0.815
64470W        W36796  34.935  31.218   4.518
64471W        W36797  30.969  42.849   2.731
64472W        W36798  37.358  21.236   0.708
64473W        W36799  19.574  38.445   2.448
64474W        W36800  24.373  30.613  13.124
64475W        W36801  44.079  19.402  12.790
64476W        W36802   1.316  30.286  14.012
64477W        W36803  18.409  13.211   4.087
64478W        W36804  44.335  25.767   1.764
64479W        W36805  16.105   3.422  12.547
64480W        W36806  26.605  29.946   4.497
64481W        W36807   5.167  19.260  12.773
64482W        W36808   6.408  27.711   4.532
64483W        W36809   6.965  24.322   3.589
64484W        W36810  28.569  32.101  14.836
64485W        W36811   9.215  39.217   2.684
64486W        W36812  31.617  40.174  14.448
64487W        W36813  22.647  23.180  14.281
64488W        W36814  31.476  16.989  12.991
64489W        W36815  41.027   9.695   1.977
64490W        W36816  14.475  27.628   0.720
64491W        W36817  42.694   1.379   3.291
64492W        W36818  38.535   7.799  13.286
64493W        W36819   1.949  20.980   1.196
64494W        W36820  40.065  23.058   1.315
64495W        W36821  42.518  16.590  14.946
64496W        W36822  20.665  14.917   1.223
64497W        W36823  24.470  24.628  11.950
64498W        W36824  25.628  27.536   1.437
64499W        W36825  34.624  13.260  12.438
64500W        W36826   1.918  12.830  13.310
64501W        W36827  10.970  30.590  12.037
64502W        W36828  18.609  33.144  14.089
64503W        W36829  33.378  10.353   2.345
64504W        W36830  24.499  33.129  14.011
64505W        W36831  34.469  44.874   4.770
64506W        W36832  24.746  12.257   4.249
64507W        W36833  27.241  15.971  13.017
64508W        W36834  23.639   9.145  14.962
64509W        W36835  17.709  26.397   4.851
64510W        W36836  15.904   6.325   1.797
64511W        W36837  30.839   4.617  13.387
64512W        W36838   8.855  35.520  12.451
64513W        W36839  43.924  40.498   0.914
64514W        W36840  25.084   3.739   2.709
64515W        W36841   0.004   6.785   4.333
64516W        W36842   0.486  25.523  14.522
64517W        W36843  14.495  13.168  14.877
64518W        W36844  28.733   4.340   4.165
64519W        W36845  12.020  26.097   4.937
64520W        W36846   9.377  34.140   3.255
64521W        W36847   9.379  24.497  12.549
64522W        W36848  16.953   0.940  13.908
64523W        W36849  33.537  17.091   3.666
64524W        W36850  10.345  22.953   0.359
64525W        W36851   6.414  29.775   0.846
64526W        W36852  24.661   8.187  13.546
64527W        W36853  23.378   8.477   0.403
64528W        W36854  18.264  37.343  11.600
64529W        W36855  32.583  38.925  10.970
64530W        W36856  21.047  12.808  13.287
64531W        W36857   0.436   3.141   4.177
64532W        W36858  38.082  16.257  12.379
64533W        W36859   6.915   6.335  11.627
64534W        W36860  43.524  34.318  13.871
64535W        W36861  22.531   9.788  12.245
64536W        W36862  31.163   4.371   2.695
64537W        W36863  30.472  42.070   1.709
64538W        W36864   9.841   7.351   4.825
64539W        W36865   5.754  44.327  14.052
64540W        W36866   4.435   4.373   9.866
64541W        W36867  25.120  33.830   0.491
64542W        W36868  19.187   4.138  12.678
64543W        W36869   2.675  14.181  13.990
64544W        W36870  42.016   6.595   2.414
64545W        W36871  12.116   9.402   1.747
64546W        W36872  20.979  27.149   4.096
64547W        W36873  24.573   9.097   2.228
64548W        W36874  35.061  31.934   2.292
64549W        W36875   5.754  31.897   3.770
64550W        W36876  35.658  32.554   2.764
64551W        W36877  42.814   1.813  13.924
64552W        W36878  30.094  37.807  14.245
64553W        W36879  30.599  30.073   1.233
64554W        W36880  30.028  13.795   1.410
64555W        W36881  38.877   7.881   2.663
64556W        W36882  20.245  23.708  10.735
64557W        W36883  33.361  39.307   0.725
64558W        W36884  26.204  26.886   4.124
64559W        W36885  35.128  26.526   2.659
64560W        W36886   3.688  31.500  13.107
64561W        W36887  15.908  22.796   4.247
64562W        W36888  18.993  25.861   0.615
64563W        W36889   7.314   6.676  10.452
64564W        W36890  18.353  41.833   3.051
64565W        W36891  20.814  44.580   3.303
64566W        W36892  17.157  17.820  11.943
64567W        W36893  31.539  43.499  14.266
64568W        W36894  31.864  36.918   2.917
64569W        W36895  18.561  32.561  14.930
64570W        W36896   9.857  19.552  11.231
64571W        W36897  42.079  21.117  14.369
64572W        W36898  13.599  29.177   1.404
64573W        W36899  34.525  43.480   1.950
64574W        W36900  14.291  23.475   0.159
64575W        W36901  26.764  28.534  12.399
64576W        W36902  42.883  16.842  13.436
64577W        W36903   2.325   9.193  13.094
64578W        W36904   2.238  26.440   3.256
64579W        W36905  27.889   4.243  11.961
64580W        W36906  33.424  17.171   2.312
64581W        W36907   7.620   2.387  13.924
64582W        W36908  20.555  30.399  10.656
64583W        W36909  16.108  43.534  14.917
64584W        W36910  36.110  28.442  10.940
64585W        W36911  25.086  11.426   2.847
64586W        W36912  33.405  26.471  13.764
64587W        W36913  29.647  27.218   5.264
64588W        W36914   1.651  44.428  11.159
64589W        W36915  44.747  31.960   1.681
64590W        W36916  31.650  39.090   0.106
64591W        W36917   6.600  33.167   1.768
64592W        W36918   6.710  16.614   4.093
64593W        W36919  19.696  19.065   3.374
64594W        W36920   6.614   9.298   0.384
64595W        W36921  19.866  37.779  14.822
64596W        W36922  16.705  36.043  13.080
64597W        W36923  20.756  30.204   0.022
64598W        W36924  36.172  26.120  14.416
64599W        W36925  32.099  41.035   1.186
64600W        W36926  37.373  10.418   3.106
64601W        W36927  23.458  26.024   2.365
64602W        W36928  10.725  39.517   0.827
64603W        W36929  32.009  36.159   3.225
64604W        W36930  31.854  28.003   2.823
64605W        W36931  41.303  40.501   3.734
64606W        W36932  35.422  42.044   3.877
64607W        W36933  10.958  17.177   2.341
64608W        W36934  41.052  34.765   5.022
64609W        W36935  15.880  36.380   2.622
64610W        W36936  44.040  25.789   1.343
64611W        W36937   9.837  19.426  13.935
64612W        W36938  25.495   9.619  10.986
64613W        W36939  22.147  31.147   4.146
64614W        W36940  18.464   2.283   1.420
64615W        W36941   6.219  26.648   2.854
64616W        W36942   4.811  38.086  11.447
64617W        W36943   9.318  17.283   4.630
64618W        W36944  16.362  42.983  14.041
64619W        W36945   6.746  10.870   3.005
64620W        W36946  38.133  10.357  14.941
64621W        W36947  28.952  15.631   3.807
64622W        W36948  33.230  19.252  12.056
64623W        W36949  23.828  33.527  11.072
64624W        W36950  14.023   3.968   4.216
64625W        W36951  10.646  32.942  12.403
64626W        W36952  21.222  31.779   2.354
64627W        W36953  19.183  34.118   4.365
64628W        W36954   7.622  22.196  13.766
64629W        W36955   1.493  33.942   0.783
64630W        W36956  15.059  42.525   1.313
64631W        W36957  32.086  21.619   4.865
64632W        W36958  41.566  20.125  12.478
64633W        W36959  29.131   6.519  13.852
64634W        W36960  27.204  10.498  11.438
64635W        W36961  14.847   2.765  13.131
64636W        W36962   2.351  42.097   2.727
64637W        W36963  17.184  24.996  10.874
64638W        W36964  33.456   9.833   4.656
64639W        W36965  32.474  29.666  14.363
64640W        W36966   7.932  17.108  14.970
64641W        W36967  15.570  33.369   0.368
64642W        W36968  39.427  25.537   3.218
64643W        W36969  15.958  39.011  10.413
64644W        W36970   1.339  18.263   0.841
64645W        W36971  28.927   5.413  12.398
64646W        W36972  40.864  13.067   4.613
64647W        W36973  37.579  44.429   1.511
64648W        W36974   8.243   6.412  13.377
64649W        W36975   8.839  42.466   4.310
64650W        W36976  27.746   2.732   0.501
64651W        W36977  44.285  40.732  13.071
64652W        W36978  24.179  37.064  13.278
64653W        W36979   6.836  15.354   1.741
64654W        W36980  43.354  22.777   4.159
64655W        W36981  11.672  34.670  14.287
64656W        W36982  34.034  22.732  14.489
64657W        W36983  41.459   6.730   1.146
64658W        W36984  36.373  10.826  12.638
64659W        W36985  32.401  24.045  12.071
64660W        W36986  36.042  17.050   2.244
64661W        W36987  43.978  42.067  13.347
64662W        W36988  33.428  24.469  10.703
64663W        W36989  31.515  22.821   1.401
64664W        W36990  21.282   6.199   0.732
64665W        W36991  24.089  23.679  12.085
64666W        W36992  21.178   4.324   2.897
64667W        W36993  15.564  25.728  13.853
64668W        W36994  21.120  10.021   0.466
64669W        W36995  44.376  33.165   4.674
64670W        W36996  25.241  10.284  13.601
64671W        W36997  34.266  43.904  13.646
64672W        W36998  26.946  16.814  14.804
64673W        W36999  21.567  19.883   5.152
64674W        W37000  33.433   7.745  12.920
64675W        W37001   4.946  38.077   0.149
64676W        W37002  17.873  23.616  13.984
64677W        W37003  44.356   5.929   0.407
64678W        W37004  17.216  29.005  11.654
64679W        W37005  39.872   3.334   3.571
64680W        W37006  36.161   7.696  14.528
64681W        W37007  25.508  35.146   2.695
64682W        W37008  30.335   3.807   2.846
64683W        W37009   3.497  29.246  12.459
64684W        W37010   8.702  44.841   4.548
64685W        W37011  28.482  36.503  13.420
64686W        W37012   0.117  27.287  12.096
64687W        W37013  41.860  44.509  13.988
64688W        W37014  20.546  34.503  14.322
64689W        W37015  30.337  44.933   1.148
64690W        W37016  42.230  35.865   0.662
64691W        W37017  12.748  14.816   2.097
64692W        W37018  28.582  28.664  14.616
64693W        W37019  34.958  14.187  10.457
64694W        W37020   6.200  23.915   4.542
64695W        W37021   4.728  16.180  13.301
64696W        W37022   1.790   8.085  10.825
64697W        W37023  34.899  17.807  12.405
64698W        W37024  31.589  34.796  10.889
64699W        W37025  26.369  20.978   4.439
64700W        W37026  29.325   1.999  11.997
64701W        W37027  11.440  21.169  13.975
64702W        W37028   9.294  10.607   2.297
64703W        W37029  43.707  43.807   0.283
64704W        W37030  36.073  25.941   4.626
64705W        W37031   0.422   0.264  10.778
64706W        W37032  15.599  22.998  12.551
64707W        W37033  30.969  21.984  11.950
64708W        W37034  19.784  40.306   4.186
64709W        W37035  34.545  29.716  14.854
64710W        W37036   1.014  42.872   0.931
64711W        W37037  34.442  21.197  14.518
64712W        W37038  17.203  36.101  13.246
64713W        W37039  23.103   1.358   2.673
64714W        W37040  18.254  10.650  13.285
64715W        W37041   8.586   4.706  14.353
64716W        W37042  35.818  20.261   1.439
64717W        W37043  27.500  37.763  14.942
64718W        W37044  24.566  27.240   0.914
64719W        W37045   9.184  26.012   0.743
64720W        W37046  34.340  43.697   3.116
64721W        W37047  16.076   4.416   0.208
64722W        W37048  25.090  12.640   4.123
64723W        W37049  37.854  44.838  12.347
64724W        W37050  44.865  44.021  11.033
64725W        W37051   2.481  43.007   1.367
64726W        W37052   4.888  22.735  12.616
64727W        W37053  18.127   9.676   4.236
64728W        W37054  27.121  29.213   2.332
64729W        W37055   1.829  28.512   2.739
64730W        W37056   4.053  13.782   0.793
64731W        W37057  27.806   8.384   4.693
64732W        W37058  10.640  17.168   1.929
64733W        W37059  15.049  12.124   0.273
64734W        W37060   0.254   6.828   2.180
64735W        W37061  41.935  18.918   4.149
64736W        W37062  38.614  19.201  10.345
64737W        W37063  15.288  40.913  14.979
64738W        W37064   6.168  43.473  12.550
64739W        W37065  28.392  26.419   0.472
64740W        W37066  37.084  35.643   1.684
64741W        W37067  18.999  33.500  13.312
64742W        W37068  42.860  16.811  10.682
64743W        W37069   4.659  21.784  12.487
64744W        W37070   5.258  41.382  11.928
64745W        W37071  26.430  37.364  11.022
64746W        W37072   8.796  40.516   3.165
64747W        W37073  34.578   9.254  14.985
64748W        W37074  36.363  37.347   0.234
64749W        W37075  15.244  25.108  11.996
64750W        W37076  29.206  37.331   1.275
64751W        W37077  44.723  38.572   0.358
64752W        W37078  19.841  24.220  13.832
64753W        W37079  24.245  29.146  10.852
64754W        W37080  40.899  25.192   3.748
64755W        W37081   6.270  38.927  14.075
64756W        W37082  10.053  11.131   3.746
64757W        W37083  12.095   6.457  11.633
64758W        W37084  34.007  23.773   0.750
64759W        W37085  40.805   5.076  12.593
64760W        W37086  38.403   8.471   0.995
64761W        W37087  21.530  42.833  11.597
64762W        W37088   9.354   0.569   3.706
64763W        W37089  39.938  40.356  14.695
64764W        W37090  32.093  13.865   3.253
64765W        W37091  22.319  39.919   5.162
64766W        W37092  21.533  24.653   2.822
64767W        W37093  22.618   1.170  13.699
64768W        W37094  41.560   5.496  12.949
64769W        W37095  36.854  44.327  12.863
64770W        W37096  18.248  28.788  13.406
64771W        W37097  23.066  25.485   2.620
64772W        W37098  41.452  39.522   3.337
64773W        W37099  15.301  13.544  12.805
64774W        W37100  13.547  11.111   1.004
64775W        W37101  40.996   4.291  10.579
64776W        W37102  43.588  23.556   2.449
64777W        W37103  26.616   4.622   0.045
64778W        W37104  31.032  41.875   0.918
64779W        W37105  41.118  16.372  11.128
64780W        W37106  22.212   3.804   0.802
64781W        W37107  40.637  27.804   0.836
64782W        W37108  21.103  16.449   4.334
64783W        W37109   9.668  25.584  12.598
64784W        W37110   0.773  41.492   1.435
64785W        W37111  22.749   0.268   1.405
64786W        W37112   4.332  11.623   1.014
64787W        W37113  29.991  14.001   2.682
64788W        W37114  32.175  32.350  13.291
64789W        W37115  13.250   6.352   4.565
64790W        W37116  29.881   9.811   3.298
64791W        W37117  21.715  18.185   4.545
64792W        W37118  32.867  21.146   0.912
64793W        W37119  42.954  42.265   3.684
64794W        W37120  22.113  37.301  10.913
64795W        W37121  43.904  39.881   3.255
64796W        W37122  41.749   5.988  12.972
64797W        W37123  30.203  22.619  12.905
64798W        W37124  37.572   9.121   3.790
64799W        W37125  13.756   3.922   2.730
64800W        W37126   5.189  35.660   4.708
64801W        W37127  15.049   6.758   4.075
64802W        W37128  22.486  21.219   4.201
64803W        W37129   1.708   4.257  11.484
64804W        W37130  36.521   4.947  13.008
64805W        W37131   5.993  22.772   0.649
64806W        W37132  25.108  32.621   2.956
64807W        W37133  35.676  18.088   3.660
64808W        W37134  13.681  26.349  11.585
64809W        W37135  19.110  30.564  14.850
64810W        W37136  31.498  43.283   4.296
64811W        W37137   1.267  39.998  14.065
64812W        W37138  12.798  11.788   3.127
64813W        W37139  10.149  21.270   4.536
64814W        W37140  29.749  33.825   2.326
64815W        W37141   0.248  17.218  11.631
64816W        W37142  17.123  39.592  13.723
64817W        W37143  38.450  34.966   3.192
64818W        W37144  28.001  30.988  11.194
64819W        W37145  11.163  32.377   3.293
64820W        W37146  26.290  28.715   1.355
64821W        W37147  37.828   4.149   3.236
64822W        W37148   9.418  29.488  13.601
64823W        W37149  34.672   7.184   0.896
64824W        W37150  11.443  25.196  11.002
64825W        W37151  25.124  41.236   3.862
64826W        W37152   3.275  16.245  12.312
64827W        W37153  42.229  33.475  11.185
64828W        W37154  41.255  39.575   1.464
64829W        W37155  22.137  23.398   0.702
64830W        W37156  25.925  38.310  11.571
64831W        W37157  41.302  25.719  11.861
64832W        W37158  23.925  20.210  14.482
64833W        W37159  35.568  44.373   4.342
64834W        W37160   9.100  11.172   1.193
64835W        W37161  38.873  20.009  10.483
64836W        W37162  38.749   7.806   3.630
64837W        W37163  40.969  39.431  10.651
64838W        W37164   2.469  41.315  14.896
64839W        W37165   5.232  37.412   4.599
64840W        W37166  41.488  44.945  11.862
64841W        W37167  32.381  31.141  13.089
64842W        W37168   7.181  36.904  11.156
64843W        W37169  38.716  33.321   0.920
64844W        W37170  29.876  44.928   1.387
64845W        W37171  24.096  15.336   1.464
64846W        W37172  29.530  29.927  13.917
64847W        W37173  44.757  38.478   3.686
64848W        W37174  44.245  34.927  12.429
64849W        W37175  20.127  18.697  12.366
64850W        W37176  31.600  14.161  14.575
64851W        W37177  34.742  15.192  11.657
64852W        W37178  37.515   4.398  12.336
64853W        W37179   1.511  17.362   0.364
64854W        W37180   8.602  44.174   1.753
64855W        W37181  33.855  32.915  11.710
64856W        W37182   0.004  28.065   2.823
64857W        W37183  23.684  10.585  14.019
64858W        W37184   8.871  21.897  12.996
64859W        W37185  37.736  14.582   3.207
64860W        W37186   4.391  32.536  11.715
64861W        W37187  10.059  37.806  14.449
64862W        W37188  37.089  26.184  11.676
64863W        W37189  30.450   3.303  13.488
64864W        W37190  10.610  15.671  10.438
64865W        W37191   4.654  18.062   3.660
64866W        W37192  25.072  23.307  11.912
64867W        W37193  30.052  30.034   2.965
64868W        W37194  17.044  17.615   1.784
64869W        W37195  38.197   7.034  10.061
64870W        W37196   3.013  22.842  14.483
64871W        W37197  31.904   3.756  10.952
64872W        W37198  14.166  33.789  11.403
64873W        W37199  17.563   5.129  12.265
64874W        W37200  24.275  18.878   0.523
64875W        W37201  27.869  35.909  13.590
64876W        W37202  10.040  15.613   2.344
64877W        W37203   5.410  22.235   0.314
64878W        W37204  16.161  43.333   1.016
64879W        W37205  36.908  16.752  13.586
64880W        W37206  33.442  41.695  12.144
64881W        W37207  13.746  37.011   4.564
64882W        W37208  12.866  39.001   9.983
64883W        W37209  10.359   6.805  11.795
64884W        W37210   3.396  35.638   4.753
64885W        W37211  28.925  11.122   2.368
64886W        W37212  31.912   2.935   5.049
64887W        W37213  33.481   2.037  13.952
64888W        W37214  32.206  14.191   0.226
64889W        W37215   2.249  33.325   3.120
64890W        W37216  43.442  15.517   4.121
64891W        W37217  41.012   4.215   3.731
64892W        W37218  20.774  23.678   4.653
64893W        W37219  33.630  11.665   5.028
64894W        W37220  14.422  36.619   4.177
64895W        W37221  10.930  33.083   1.280
64896W        W37222  24.486  26.068  11.396
64897W        W37223  41.833  31.692  13.869
64898W        W37224  18.324  31.637   1.360
64899W        W37225   8.343  20.643   2.716
64900W        W37226  12.292  13.481   0.065
64901W        W37227  30.422   2.160  11.671
64902W        W37228  20.030   4.326   4.579
64903W        W37229  26.061  12.156   3.600
64904W        W37230  36.894   0.923   2.274
64905W        W37231  10.239  43.938  14.023
64906W        W37232  31.848  35.556  14.493
64907W        W37233  20.079  40.047  10.376
64908W        W37234  27.124  32.672   3.240
64909W        W37235  30.202  22.274  12.507
64910W        W37236  36.502  27.067   2.570
64911W        W37237   8.122   4.959  14.422
64912W        W37238   6.879  33.484   1.025
64913W        W37239  11.763  20.507   1.218
64914W        W37240  12.342  25.161   2.329
64915W        W37241  12.386  14.952  14.024
64916W        W37242  36.056   8.131   1.338
64917W        W37243  28.182  26.009   9.990
64918W        W37244  12.586  40.531  13.964
64919W        W37245  37.136  38.903  12.118
64920W        W37246  19.102  24.900   4.769
64921W        W37247  27.175  12.282  13.854
64922W        W37248  33.025   5.920   2.993
64923W        W37249  20.676  12.260   0.724
64924W        W37250  29.443   0.994  14.062
64925W        W37251   2.089  19.576   4.783
64926W        W37252  44.161  16.285  14.570
64927W        W37253  24.809  13.703  11.359
64928W        W37254  10.917  23.114   0.977
64929W        W37255  40.323   6.871   2.829
64930W        W37256  15.418  40.850  14.300
64931W        W37257   7.310  35.292   2.523
64932W        W37258  38.065  43.811   2.347
64933W        W37259  10.098  43.372   1.885
64934W        W37260  26.883  22.494   0.469
64935W        W37261  37.047  30.601  10.627
64936W        W37262   3.196  25.108  11.484
64937W        W37263  35.761   5.423   2.705
64938W        W37264   0.026  20.286   3.179
64939W        W37265  11.766   9.683  13.122
64940W        W37266   9.872  15.238  12.881
64941W        W37267   2.875  20.693   3.719
64942W        W37268  38.591  37.964  13.793
64943W        W37269  41.452  19.015   2.862
64944W        W37270  34.619  22.972  12.813
64945W        W37271  43.323  22.789  11.639
64946W        W37272  23.720  27.977   3.800
64947W        W37273  29.528  38.969  11.038
64948W        W37274  19.765  16.222   0.223
64949W        W37275  21.605  13.352   4.548
64950W        W37276  20.747  13.228   0.445
64951W        W37277   2.829   4.694   3.178
64952W        W37278  15.689  11.886  14.141
64953W        W37279  11.811   7.697  13.283
64954W        W37280  25.687   9.919   3.924
64955W        W37281  20.568   2.978   1.331
64956W        W37282  25.244  10.322   4.657
64957W        W37283  24.970   1.179  14.964
64958W        W37284  34.808  24.623   2.861
64959W        W37285   2.662  35.187   3.207
64960W        W37286  19.659  34.991   3.160
64961W        W37287   4.606  18.828   3.198
64962W        W37288   0.369   7.887   3.607
64963W        W37289  42.204  21.785  11.884
64964W        W37290   0.311   1.651   1.823
64965W        W37291  26.129  22.486  13.598
64966W        W37292  35.205  25.509   1.676
64967W        W37293  11.044  15.053   3.080
64968W        W37294  22.496  12.819  11.077
64969W        W37295   1.325   5.676   0.083
64970W        W37296   4.510  29.065   1.274
64971W        W37297  38.113  31.550   2.424
64972W        W37298  34.288  26.188  10.679
64973W        W37299  39.498  35.494  11.014
64974W        W37300  14.548  29.267  12.916
64975W        W37301  32.940  31.420   2.873
64976W        W37302   2.084   6.326   1.543
64977W        W37303  18.059  39.962  12.329
64978W        W37304  26.768  41.669  11.074
64979W        W37305   6.229  24.804   0.255
64980W        W37306  28.376  44.918   0.382
64981W        W37307   3.829   6.816   1.397
64982W        W37308  22.636   1.974   4.499
64983W        W37309  16.280  20.068   0.386
64984W        W37310  27.892  37.827   1.327
64985W        W37311  26.537  30.951  11.961
64986W        W37312  34.354  19.960  10.621
64987W        W37313  34.086  12.031   2.176
64988W        W37314   0.733  44.096  13.022
64989W        W37315  28.608  15.785   0.941
64990W        W37316  21.509  25.461  12.088
64991W        W37317   0.743  42.996  12.068
64992W        W37318  29.003  39.335   4.193
64993W        W37319  27.056  32.842  12.636
64994W        W37320   7.149   5.512   2.223
64995W        W37321   2.221   8.254   0.247
64996W        W37322  32.153   7.413  13.390
64997W        W37323  35.411  35.942  14.989
64998W        W37324   7.112  10.974  13.221
64999W        W37325  39.980  36.647  10.691
65000W        W37326   7.966  32.064   3.299
65001W        W37327  41.754  26.430  12.546
65002W        W37328  16.345  22.631  13.892
65003W        W37329   8.796  44.920  14.544
65004W        W37330  15.831  17.413   2.824
65005W        W37331  21.508  31.181  12.061
65006W        W37332  39.563  28.897   3.203
65007W        W37333   4.057  40.499   4.643
65008W        W37334  33.299  14.368  14.344
65009W        W37335  40.476   3.767  11.090
65010W        W37336  32.604  22.057  13.157
65011W        W37337  14.828  42.661   3.746
65012W        W37338  29.847   7.072   3.390
65013W        W37339  44.492  27.048  13.853
65014W        W37340  32.625  23.114  11.933
65015W        W37341  20.048   4.748   0.441
65016W        W37342  29.925  30.893   2.881
65017W        W37343  24.506  12.386  12.468
65018W        W37344  33.068  42.539  13.515
65019W        W37345   6.341  21.538  14.744
65020W        W37346  13.782  26.514  13.564
65021W        W37347  41.091  14.070   2.646
65022W        W37348   9.125  16.692  14.018
65023W        W37349  16.167  19.210  14.794
65024W        W37350   8.761   1.911   1.043
65025W        W37351  27.487  34.902  13.066
65026W        W37352   2.690  27.115   2.574
65027W        W37353  35.476  11.959   9.798
65028W        W37354   2.523  12.691   2.307
65029W        W37355  15.597  43.511   4.426
65030W        W37356  12.687  13.885  10.733
65031W        W37357   2.375  15.124  11.253
65032W        W37358  15.677  16.842  10.696
65033W        W37359  33.928  10.013  11.613
65034W        W37360  16.132  14.905  10.691
65035W        W37361  19.520   5.408   1.906
65036W        W37362  11.884  15.317  12.307
65037W        W37363  42.949  22.520   5.395
65038W        W37364  34.068  21.860   4.133
65039W        W37365  44.821   9.466  12.945
65040W        W37366   3.171  39.822   0.429
65041W        W37367   7.207  28.545  14.479
65042W        W37368  11.768  44.543   5.172
65043W        W37369  31.052  23.651  11.983
65044W        W37370  34.073  10.124  14.971
65045W        W37371  41.377  19.770   2.299
65046W        W37372  14.296  11.666   0.794
65047W        W37373   0.140   2.751  10.521
65048W        W37374  15.769   7.750   4.736
65049W        W37375  18.675  17.967  11.164
65050W        W37376  36.647  22.175  13.229
65051W        W37377   2.251  40.017  11.597
65052W        W37378  41.763  31.128   0.798
65053W        W37379  35.054  36.801   2.288
65054W        W37380  35.619  28.694  11.664
65055W        W37381  19.065  43.294  11.433
65056W        W37382  32.970  26.754   3.288
65057W        W37383   8.207   2.438   3.421
65058W        W37384  37.616  35.075  12.029
65059W        W37385  10.134  27.456   0.925
65060W        W37386  19.578  44.736  12.576
65061W        W37387  27.047  34.966  12.771
65062W        W37388  27.535   1.816   0.399
65063W        W37389  14.287  23.016  12.151
65064W        W37390  31.878  21.830   3.350
65065W        W37391   3.699  32.573  10.723
65066W        W37392  25.011   7.710   2.979
65067W        W37393  21.488   2.958  11.076
65068W        W37394  25.621  28.225  14.083
65069W        W37395  17.281  24.273  14.265
65070W        W37396   0.798  44.823   2.392
65071W        W37397   6.273  28.029  14.292
65072W        W37398   2.697  41.593  10.521
65073W        W37399  23.449   1.365  11.594
65074W        W37400  37.162  14.057  12.067
65075W        W37401  23.966  37.216   3.326
65076W        W37402  22.476  25.298  10.814
65077W        W37403  24.481  19.008   1.067
65078W        W37404  42.213  12.133  11.031
65079W        W37405   2.195  40.717  10.950
65080W        W37406  11.306  11.469  12.500
65081W        W37407  18.745  25.388   4.138
65082W        W37408   3.717  28.545   4.631
65083W        W37409   0.251   9.456   1.155
65084W        W37410  32.332  21.625  13.002
65085W        W37411  32.186  34.842   0.394
65086W        W37412  26.497  24.574  14.960
65087W        W37413  27.043  17.275  10.752
65088W        W37414   2.986  34.915  12.217
65089W        W37415  20.040  44.367   3.723
65090W        W37416   1.285   7.360  12.110
65091W        W37417  29.030  40.329   3.809
65092W        W37418  39.095   2.291  11.941
65093W        W37419   0.594  11.935  11.130
65094W        W37420  31.438  14.790   3.576
65095W        W37421  28.071  30.559   3.647
65096W        W37422  42.387  39.013   0.969
65097W        W37423  32.880  29.075   4.125
65098W        W37424   3.890   5.233  10.766
65099W        W37425  18.717   3.705   9.896
65100W        W37426  19.875  44.534   1.451
65101W        W37427  10.250  25.863  14.846
65102W        W37428  30.614   3.573   0.744
65103W        W37429  40.343   4.726   0.757
65104W        W37430  13.290  23.516   3.324
65105W        W37431  15.786  27.666   1.831
65106W        W37432   7.954  15.293   2.547
65107W        W37433   0.323   7.942   4.549
65108W        W37434  15.207  33.348  11.430
65109W        W37435  41.579   0.545   1.438
65110W        W37436  33.434  36.300   4.653
65111W        W37437  38.961  17.148  12.382
65112W        W37438  32.913   9.338   2.111
65113W        W37439  29.544   9.032   4.170
65114W        W37440  28.899  19.706   4.623
65115W        W37441  17.950  38.567  14.436
65116W        W37442  16.619   7.923   4.735
65117W        W37443  43.447  32.532   1.473
65118W        W37444  16.982   1.908   3.070
65119W        W37445   3.781   0.938  10.833
65120W        W37446  10.848   5.307   1.751
65121W        W37447  44.999   3.210   1.034
65122W        W37448  21.908  25.986  12.837
65123W        W37449   0.455  43.456   4.769
65124W        W37450  13.869   6.415   1.927
65125W        W37451  32.539  15.536   2.410
65126W        W37452  13.064   3.392   3.711
65127W        W37453  37.945  11.816  14.711
65128W        W37454  26.726  28.171   2.685
65129W        W37455  17.118  17.812   2.793
65130W        W37456  15.735  30.359  10.783
65131W        W37457  29.209  31.145  11.923
65132W        W37458  38.834  37.623   4.471
65133W        W37459  40.586  21.635  11.111
65134W        W37460  35.616   1.178   3.798
65135W        W37461  24.128  20.658   1.918
65136W        W37462  24.632   9.259   3.280
65137W        W37463  22.637  25.967   3.263
65138W        W37464  34.301  13.108   3.267
65139W        W37465  14.828   7.212  11.616
65140W        W37466  23.274  39.235   3.197
65141W        W37467  10.162   9.824  12.578
65142W        W37468  25.993  25.268   1.580
65143W        W37469  38.066  27.813   1.939
65144W        W37470  10.921  10.191  10.600
65145W        W37471  27.687  18.352  10.343
65146W        W37472  22.207  22.572   0.803
65147W        W37473  23.158  24.546   4.985
65148W        W37474  27.742   8.914  10.167
65149W        W37475  42.373  38.408  12.006
65150W        W37476  14.079   3.704   2.397
65151W        W37477  29.364  10.292   4.947
65152W        W37478  41.326  32.086   3.237
65153W        W37479  19.437  34.926   0.442
65154W        W37480  37.926  20.014  10.958
65155W        W37481   8.144   6.734   3.015
65156W        W37482  35.167   7.161   4.508
65157W        W37483  32.923  42.081  11.457
65158W        W37484  40.561  38.868   4.215
65159W        W37485  30.834  17.350   4.090
65160W        W37486  30.585   0.670   5.132
65161W        W37487  13.201  10.636  12.557
65162W        W37488  42.453  13.547   2.248
65163W        W37489  22.358  25.069   3.613
65164W        W37490  32.058  21.415  12.436
65165W        W37491  30.533   2.840  13.016
65166W        W37492  34.553   0.211   1.620
65167W        W37493  42.400  30.933   3.639
65168W        W37494   2.363  30.132   2.362
65169W        W37495  30.614  20.805  11.596
65170W        W37496   9.199   7.595  13.292
65171W        W37497  33.171  34.042   1.867
65172W        W37498  16.171  24.583   4.647
65173W        W37499  39.326  21.177   0.322
65174W        W37500  31.070  39.725   3.691
65175W        W37501   9.181  44.555   3.713
65176W        W37502  43.895  39.211  11.256
65177W        W37503   9.351  13.932  12.552
65178W        W37504  32.109  18.966  10.616
65179W        W37505  32.538  18.491   0.485
65180W        W37506   8.762  29.876   2.880
65181W        W37507  11.766  23.434  11.113
65182W        W37508  33.625   3.860   2.410
65183W        W37509  17.132  30.196   4.120
65184W        W37510  11.719  10.305   0.446
65185W        W37511   1.853  32.511  11.434
65186W        W37512   2.506  41.613  13.950
65187W        W37513  39.668   4.168   0.433
65188W        W37514  26.091  22.051   2.036
65189W        W37515  22.023  40.435   0.833
65190W        W37516  11.969  10.802   0.323
65191W        W37517  40.876  41.054   2.441
65192W        W37518   0.650  44.303  11.055
65193W        W37519  29.881  37.506   4.891
65194W        W37520  23.013   6.789  14.999
65195W        W37521  30.234  14.765  14.078
65196W        W37522  21.986  35.896   3.137
65197W        W37523  13.451  21.845  12.087
65198W        W37524   6.103  37.845  14.451
65199W        W37525   4.202  39.479   3.357
65200W        W37526  12.238  37.925  10.847
65201W        W37527  41.717  42.317   3.755
65202W        W37528  21.706   7.278  12.439
65203W        W37529  24.234  21.535   0.700
65204W        W37530  21.115   6.813  13.988
65205W        W37531  20.090  15.812   3.675
65206W        W37532   4.202   2.243   1.463
65207W        W37533  16.495  38.625   0.315
65208W        W37534  29.554  31.089  13.202
65209W        W37535  22.649  26.737   1.774
65210W        W37536  28.562  19.765   0.948
65211W        W37537   6.991  20.113  13.588
65212W        W37538  37.554  28.615   3.276
65213W        W37539   5.766  25.372   1.662
65214W        W37540   1.322  16.221   0.267
65215W        W37541  29.566  31.169  14.134
65216W        W37542  21.960  12.309   3.504
65217W        W37543  34.727   7.082   1.446
65218W        W37544   8.299  28.419   2.755
65219W        W37545  26.729   3.274   1.164
65220W        W37546  28.453   4.441   3.718
65221W        W37547  13.836  31.631   2.418
65222W        W37548  44.541  25.730   1.276
65223W        W37549  20.019  30.534  12.528
65224W        W37550  23.082  44.397   1.054
65225W        W37551  32.865   4.308   1.262
65226W        W37552  34.543  28.431   1.270
65227W        W37553  34.435  41.262  13.618
65228W        W37554   3.925  43.496  14.154
65229W        W37555  26.703  42.233  10.177
65230W        W37556  31.137  24.152   0.804
65231W        W37557   9.920  40.559  11.027
65232W        W37558  34.071  15.728   3.522
65233W        W37559  14.780   9.601  14.964
65234W        W37560   8.385  26.256  14.923
65235W        W37561  23.474   2.303  12.482
65236W        W37562  42.788  28.930   1.803
65237W        W37563  29.541  33.346  10.791
65238W        W37564  26.114  40.534  10.648
65239W        W37565  17.108  22.220   4.549
65240W        W37566  10.256  30.503  11.643
65241W        W37567  36.123  35.684   4.572
65242W        W37568  15.294  34.369   2.636
65243W        W37569  20.046   3.092   4.998
65244W        W37570  16.715  41.531  13.583
65245W        W37571  44.787   4.759   0.028
65246W        W37572  28.119  18.717  12.410
65247W        W37573   6.277  15.469  10.331
65248W        W37574  44.770  33.081   1.665
65249W        W37575   2.094  18.569   4.951
65250W        W37576  38.410  19.713   0.468
65251W        W37577  11.476  43.812   2.811
65252W        W37578  15.339  24.127  12.900
65253W        W37579   0.300   2.637  14.341
65254W        W37580  26.486   2.332  10.950
65255W        W37581   3.175  10.177   4.682
65256W        W37582  32.376  33.514   2.746
65257W        W37583   2.565  23.695   5.430
65258W        W37584  41.681   0.291  12.345
65259W        W37585  10.800  36.802  10.770
65260W        W37586  10.635  10.195   2.281
65261W        W37587  22.420  15.578   5.034
65262W        W37588  22.107   4.853  14.448
65263W        W37589  37.448  42.788   2.392
65264W        W37590  27.057  17.274  11.449
65265W        W37591  31.257   8.392  11.152
65266W        W37592  34.431  44.020   0.591
65267W        W37593  15.043  22.425   4.113
65268W        W37594  38.063  24.702  12.569
65269W        W37595   1.798  38.045  14.963
65270W        W37596   2.894  44.918   1.718
65271W        W37597  22.872   4.406  12.046
65272W        W37598  10.627  13.181  11.256
65273W        W37599  44.764  43.720   3.966
65274W        W37600  32.905  27.657   4.128
65275W        W37601  12.648  36.923   0.993
65276W        W37602  36.743   0.088   2.238
65277W        W37603  29.252   2.958   1.071
65278W        W37604  20.961  24.033   0.020
65279W        W37605   4.188  20.690   2.173
65280W        W37606  44.918  32.396   3.407
65281W        W37607  17.202   8.994   1.776
65282W        W37608  35.484  18.578   1.847
65283W        W37609   8.235   9.596   3.781
65284W        W37610  41.445  10.390   3.215
65285W        W37611  43.703  22.089  13.284
65286W        W37612  41.425   7.213  10.784
65287W        W37613  37.980  12.408  12.394
65288W        W37614  36.350  14.226   4.142
65289W        W37615  37.031  17.645  12.891
65290W        W37616  44.804  22.256  12.376
65291W        W37617  30.963   7.040   4.001
65292W        W37618  28.520  33.004  14.522
65293W        W37619  29.461   3.944   3.052
65294W        W37620  14.848  37.408   3.062
65295W        W37621   3.882  37.564  13.941
65296W        W37622   4.425   5.382  10.783
65297W        W37623  41.556   0.249  10.742
65298W        W37624  19.246  32.816   1.254
65299W        W37625  39.484  43.205   2.285
65300W        W37626  34.603  18.566  12.810
65301W        W37627  21.232   8.240  14.218
65302W        W37628   8.638  36.627   0.259
65303W        W37629   9.806   2.878  11.748
65304W        W37630  12.724  20.622  14.759
65305W        W37631   9.667  37.462  14.965
65306W        W37632   0.377  23.023   4.190
65307W        W37633  21.629   5.851  12.894
65308W        W37634  34.162   4.326   0.952
65309W        W37635   4.529  38.385   0.357
65310W        W37636  26.222  19.706  14.387
65311W        W37637  25.765  17.591   3.081
65312W        W37638   5.316   8.295   4.292
65313W        W37639  35.979  22.428  14.413
65314W        W37640  18.255  42.842  12.679
65315W        W37641  31.004   5.890   0.169
65316W        W37642   1.303  24.767   3.887
65317W        W37643  25.706  11.290  10.628
65318W        W37644   5.667  35.890   0.914
65319W        W37645  24.480  24.122  14.943
65320W        W37646  38.864  26.744  14.527
65321W        W37647  36.552  39.137   1.310
65322W        W37648  35.891  32.080   2.809
65323W        W37649  22.229  31.825  12.458
65324W        W37650  42.917  11.084   0.708
65325W        W37651  13.597  27.643  13.600
65326W        W37652  20.594   5.674   2.794
65327W        W37653  30.046  31.023  10.748
65328W        W37654   0.840  22.890   4.350
65329W        W37655  34.200   6.348   4.711
65330W        W37656  39.152  43.755   3.876
65331W        W37657  23.438   3.344  13.470
65332W        W37658  26.094  35.088  10.566
65333W        W37659  14.312  28.106  14.560
65334W        W37660  35.004   9.307   3.221
65335W        W37661   6.258   0.805   3.656
65336W        W37662  27.199   7.672   5.031
65337W        W37663  32.522  30.531   5.153
65338W        W37664   0.256  33.390  14.899
65339W        W37665  25.441   0.396   2.840
65340W        W37666  24.098  37.693   2.427
65341W        W37667  22.632  23.190   2.817
65342W        W37668  14.755  40.790   1.939
65343W        W37669  33.645  37.938  11.313
65344W        W37670   9.789   2.831  14.066
65345W        W37671   1.759  12.452  10.016
65346W        W37672  38.668  14.174   4.557
65347W        W37673  23.913  18.077  13.449
65348W        W37674  38.353  20.774  11.933
65349W        W37675  21.112  23.929  13.807
65350W        W37676   6.082  43.548  13.065
65351W        W37677   0.508  22.714   5.121
65352W        W37678  35.720  10.730  10.522
65353W        W37679   6.647  24.019   1.478
65354W        W37680  30.445  18.433   0.482
65355W        W37681  11.825  12.593  13.489
65356W        W37682  37.664  35.915   2.355
65357W        W37683  15.065   5.924  10.475
65358W        W37684  39.921  29.610  11.219
65359W        W37685  31.215  29.531  14.805
65360W        W37686  13.240  19.217   4.057
65361W        W37687  41.990   0.821   4.395
65362W        W37688  24.317  10.045   1.746
65363W        W37689  17.016  21.134   0.355
65364W        W37690  34.348   8.637  11.556
65365W        W37691  35.395  19.872  13.817
65366W        W37692   7.339  18.154  10.762
65367W        W37693  41.800  30.545   5.009
65368W        W37694  32.436   8.413   4.943
65369W        W37695   8.821  27.670   1.971
65370W        W37696   0.432  34.867   3.040
65371W        W37697  17.138  27.746   1.339
65372W        W37698   5.828  28.917  12.329
65373W        W37699  10.868   8.642   2.262
65374W        W37700   2.732  19.551  14.549
65375W        W37701   8.791  17.343   3.729
65376W        W37702  24.261  15.235   5.303
65377W        W37703  42.756  19.509  13.590
65378W        W37704  29.706  21.496  12.385
65379W        W37705  21.297  15.614  14.517
65380W        W37706  22.874  24.115  13.864
65381W        W37707  13.762  18.627  13.508
65382W        W37708  13.208  17.083   1.678
65383W        W37709  29.556  19.112  13.894
65384W        W37710  35.070   6.801  13.800
65385W        W37711  17.721  18.251  10.552
65386W        W37712   2.981  12.649  13.346
65387W        W37713  15.658   8.255  13.075
65388W        W37714  27.613  28.668   1.270
65389W        W37715  30.167  40.828   1.407
65390W        W37716  33.964  40.524  12.494
65391W        W37717  36.625  14.059  11.005
65392W        W37718   8.394   7.580   2.625
65393W        W37719  26.983  28.468  14.981
65394W        W37720  26.076  30.799   4.274
65395W        W37721  14.114  11.949   4.113
65396W        W37722   1.481  37.298  12.946
65397W        W37723   3.719   0.544   0.554
65398W        W37724  40.727  10.307   4.918
65399W        W37725   8.369  42.262  10.498
65400W        W37726  33.552   8.678  13.623
65401W        W37727  25.740  39.403  13.551
65402W        W37728   6.833   2.195  14.983
65403W        W37729  24.616  13.090   0.489
65404W        W37730  29.588  26.173  11.732
65405W        W37731   4.035  22.545   5.462
65406W        W37732   0.187   2.414  14.797
65407W        W37733  32.536  29.451   4.342
65408W        W37734  12.727  32.314  13.027
65409W        W37735  36.908  25.735  13.355
65410W        W37736  10.145  22.498   1.319
65411W        W37737  27.113  23.741  12.013
65412W        W37738   8.531  34.523  10.737
65413W        W37739  35.109  25.759  12.841
65414W        W37740   7.852  35.342   4.544
65415W        W37741  30.469  44.496  12.337
65416W        W37742  38.471  30.832  11.941
65417W        W37743  10.000  26.001  13.921
65418W        W37744  23.195  43.290  11.633
65419W        W37745   8.754   9.178   4.639
65420W        W37746   5.349   7.581  14.336
65421W        W37747   2.747  34.615   1.905
65422W        W37748  22.689  17.504  12.061
65423W        W37749  12.298  30.361  14.951
65424W        W37750  22.075  17.642   1.615
65425W        W37751  25.110  12.823  14.436
65426W        W37752  30.247  30.534   0.701
65427W        W37753   1.796   5.673  11.403
65428W        W37754   6.902   2.197   1.752
65429W        W37755  41.030  26.160  10.613
65430W        W37756  10.416   7.700  12.010
65431W        W37757  42.383  32.608   4.581
65432W        W37758  39.911  17.581  12.278
65433W        W37759  12.826  11.721  11.278
65434W        W37760   6.929   2.487   2.196
65435W        W37761  34.145  42.388  14.319
65436W        W37762  41.477  12.818   0.763
65437W        W37763  30.314  23.554   3.652
65438W        W37764  13.828   4.377  12.274
65439W        W37765  30.832   2.003   3.282
65440W        W37766  10.413  26.778  14.827
65441W        W37767   5.364  18.719  10.748
65442W        W37768  17.536  28.251  12.916
65443W        W37769  30.871   2.434  14.889
65444W        W37770  21.294  27.084   3.675
65445W        W37771  22.953  23.921  12.483
65446W        W37772  19.604  19.947  11.116
65447W        W37773   8.632  20.584   0.060
65448W        W37774   4.741  41.704  14.445
65449W        W37775   6.280  33.969  11.940
65450W        W37776   3.977  23.587  12.078
65451W        W37777  29.169  35.000   5.016
65452W        W37778  24.107  16.766  12.597
65453W        W37779  23.442  44.827  14.489
65454W        W37780  29.439   2.401   3.670
65455W        W37781  26.819  30.147  11.035
65456W        W37782  15.600  40.645   5.155
65457W        W37783  25.999  13.615   3.188
65458W        W37784  42.274   6.765   4.141
65459W        W37785  33.299   1.572  10.661
65460W        W37786  25.883  27.755   5.353
65461W        W37787  31.121  42.043   4.264
65462W        W37788  42.498  19.665  14.290
65463W        W37789   3.303  25.491   2.840
65464W        W37790   2.287  11.167  13.484
65465W        W37791  17.185   5.233   2.927
65466W        W37792  13.257   8.284   0.540
65467W        W37793  37.095  41.854  10.436
65468W        W37794  27.431  44.501  14.413
65469W        W37795  38.552   6.641   0.275
65470W        W37796   4.142  33.475   0.384
65471W        W37797  24.110  30.970  13.654
65472W        W37798  16.480  31.614  13.812
65473W        W37799  32.886  38.361   1.269
65474W        W37800   2.302  24.731  13.821
65475W        W37801   8.842   2.565  11.478
65476W        W37802  42.515  15.088   1.518
65477W        W37803  17.658   5.384   1.343
65478W        W37804  20.652   1.566   3.802
65479W        W37805  15.703  29.872   2.229
65480W        W37806  41.333  12.140   4.914
65481W        W37807  37.041  30.596  13.381
65482W        W37808  10.440  19.658  13.449
65483W        W37809  41.036  31.960  12.622
65484W        W37810  11.928  44.373  12.187
65485W        W37811  23.745  38.974  13.445
65486W        W37812  29.069  25.989  11.601
65487W        W37813  13.903  43.410  13.391
65488W        W37814  42.531   7.979  12.002
65489W        W37815  43.835  29.633   0.167
65490W        W37816  40.000  33.759   4.742
65491W        W37817  19.820  41.577  10.442
65492W        W37818   2.793  23.947   4.990
65493W        W37819  13.811  27.586  14.053
65494W        W37820  41.977  26.642  13.945
65495W        W37821  37.027   4.483   0.654
65496W        W37822  26.971  11.527  11.476
65497W        W37823  14.614  37.445  10.631
65498W        W37824  28.583  10.318  11.661
65499W        W37825  39.439  39.505  11.023
65500W        W37826  28.745  37.392  13.909
65501W        W37827  36.927  22.349  14.892
65502W        W37828   9.253  38.255   1.228
65503W        W37829  37.414  18.778   2.317
65504W        W37830  26.212  23.135   3.596
65505W        W37831  40.641  16.586   1.623
65506W        W37832   7.882  20.655  11.343
65507W        W37833   5.252  33.956  14.043
65508W        W37834  31.456   2.246   1.852
65509W        W37835  41.029  20.130   3.201
65510W        W37836  13.630  16.819   4.737
65511W        W37837  25.801  24.746  10.228
65512W        W37838  34.151   3.394  14.747
65513W        W37839  35.877  12.325  12.912
65514W        W37840   0.799  15.372  11.703
65515W        W37841  35.395  31.964  10.734
65516W        W37842   8.216  32.691  13.802
65517W        W37843  41.907  29.119  13.956
65518W        W37844  14.226  17.913  13.503
65519W        W37845  14.144  44.536   1.931
65520W        W37846   1.712  31.808   2.371
65521W        W37847  36.088  13.683  12.961
65522W        W37848   0.989   7.169   0.974
65523W        W37849   1.247   9.868  13.859
65524W        W37850  42.036  30.330   1.262
65525W        W37851  42.926  42.009  14.865
65526W        W37852  17.551  39.946  10.638
65527W        W37853   8.293  41.336  11.536
65528W        W37854  35.362  25.450  11.123
65529W        W37855  24.183  25.137   0.204
65530W        W37856  41.045   9.132  12.967
65531W        W37857  35.968   6.192   4.329
65532W        W37858  28.922   9.281  14.779
65533W        W37859  36.485  27.847   1.935
65534W        W37860   2.350  15.866   1.757
65535W        W37861  31.473  36.025   4.778
65536W        W37862  17.921  24.113   3.156
65537W        W37863   0.442  23.740   2.723
65538W        W37864  36.532  24.669   4.196
65539W        W37865  20.176   0.764   0.869
65540W        W37866   5.649  35.481   4.530
65541W        W37867   7.769  11.554  12.034
65542W        W37868   7.159   3.220   3.480
65543W        W37869  24.733  10.899  12.209
65544W        W37870  22.163   6.030  12.809
65545W        W37871  17.496  34.151  12.953
65546W        W37872   7.213  18.121   3.467
65547W        W37873   4.355  18.360   0.018
65548W        W37874  40.057  13.338  11.969
65549W        W37875  36.551  36.929   3.279
65550W        W37876  34.347   1.426   4.158
65551W        W37877  23.100   1.403  11.212
65552W        W37878  33.088  41.282  14.810
65553W        W37879   2.954   0.942  11.441
65554W        W37880  42.763  28.900  12.515
65555W        W37881   8.756  20.701   3.417
65556W        W37882  20.682  29.046  14.182
65557W        W37883  15.913  18.671   0.308
65558W        W37884  39.081  27.687  11.063
65559W        W37885   5.440  31.930  11.998
65560W        W37886  23.962  22.607   1.211
65561W        W37887   6.421   1.930  12.992
65562W        W37888  41.273  36.415   3.125
65563W        W37889   8.764  27.242   2.318
65564W        W37890   4.706  11.533  14.835
65565W        W37891  31.884  31.583  11.905
65566W        W37892   1.841  37.142   0.953
65567W        W37893   5.514  10.177  13.310
65568W        W37894  42.041  34.082   3.269
65569W        W37895  10.340  30.354   3.137
65570W        W37896  40.813  34.838  14.896
65571W        W37897   8.567  42.435  11.053
65572W        W37898  29.577  38.639   0.531
65573W        W37899  37.585  29.468   1.294
65574W        W37900   8.261  26.416   0.410
65575W        W37901  26.622  11.575  11.984
65576W        W37902   6.329  11.356   3.998
65577W        W37903   6.404  12.921  10.629
65578W        W37904  36.259   0.770   1.353
65579W        W37905  13.318  18.714  10.670
65580W        W37906  16.934   8.052  11.903
65581W        W37907   4.758  43.302  13.735
65582W        W37908  24.363   3.186   3.246
65583W        W37909   2.931   1.226   4.562
65584W        W37910   9.623  42.206  11.134
65585W        W37911  30.905  11.651   5.063
65586W        W37912  32.967  18.143   3.270
65587W        W37913  26.647  18.255  10.544
65588W        W37914  35.495  31.726  12.012
65589W        W37915  25.846  18.628  12.820
65590W        W37916  18.590  40.005  10.682
65591W        W37917   0.038  39.997   2.393
65592W        W37918  43.398  11.199   1.943
65593W        W37919   9.107  42.366   2.267
65594W        W37920  42.438  18.443   1.877
65595W        W37921   5.319  28.154  13.808
65596W        W37922   1.757  19.569   2.251
65597W        W37923   2.527   6.630  13.445
65598W        W37924  42.303  20.610  13.317
65599W        W37925  20.332  13.381   0.181
65600W        W37926  14.281  10.292  14.590
65601W        W37927   7.768  27.532   2.702
65602W        W37928  24.502  25.722   2.355
65603W        W37929  11.412  22.981   0.951
65604W        W37930   9.809   9.860   2.130
65605W        W37931  14.028  44.377  13.911
65606W        W37932  23.890   0.849   5.298
65607W        W37933  36.016  11.296   4.633
65608W        W37934  27.957   1.057   3.246
65609W        W37935  35.662   4.528  12.133
65610W        W37936  37.887  29.472   2.185
65611W        W37937  25.732  42.572   1.786
65612W        W37938  14.418   8.274  11.918
65613W        W37939  23.009  42.442  13.982
65614W        W37940  12.222   5.783   4.610
65615W        W37941  43.159  21.084   2.346
65616W        W37942  27.995  28.165  13.986
65617W        W37943   0.118   5.359   2.855
65618W        W37944  17.641  25.791   0.189
65619W        W37945  34.602  19.033  12.579
65620W        W37946  18.500  22.731  10.117
65621W        W37947  22.421  28.473  14.566
65622W        W37948   6.301  20.168   4.529
65623W        W37949  43.736  26.625   0.244
65624W        W37950  36.583  42.540   0.400
65625W        W37951  36.106  38.895  11.959
65626W        W37952  29.919  40.813   0.691
65627W        W37953   8.154   0.928   4.078
65628W        W37954  10.107   4.401   2.367
65629W        W37955  27.217   0.312  13.496
65630W        W37956  32.505  13.546   3.297
65631W        W37957   8.818   6.572  13.294
65632W        W37958   7.077  30.666   3.516
65633W        W37959  10.221  13.121  13.943
65634W        W37960   2.871  12.211   3.745
65635W        W37961  20.290  25.832   3.419
65636W        W37962   6.727  21.047   2.274
65637W        W37963  13.773  22.204  11.845
65638W        W37964  27.008  19.243  10.778
65639W        W37965   2.895  14.302   4.257
65640W        W37966  38.341  42.036  12.011
65641W        W37967  39.046   8.823   3.575
65642W        W37968  21.281  23.577  14.201
65643W        W37969   7.924  24.920  12.182
65644W        W37970  37.622  20.805   0.807
65645W        W37971  15.559   5.914  10.639
65646W        W37972  33.840   1.890   2.198
65647W        W37973   3.782  28.075   2.107
65648W        W37974   1.515  18.059  12.505
65649W        W37975  20.920  16.257   4.795
65650W        W37976  27.973  38.840   2.833
65651W        W37977  27.459  43.545   1.826
65652W        W37978  22.924  32.033  12.986
65653W        W37979   1.159  18.777   0.033
65654W        W37980  25.733  40.249  11.461
65655W        W37981  14.732  35.085   0.645
65656W        W37982  42.518  17.598   0.002
65657W        W37983  17.056  26.744   2.168
65658W        W37984  20.495  23.466   2.229
65659W        W37985   1.426  35.532  12.390
65660W        W37986  21.081  43.933   2.656
65661W        W37987  43.242  14.507  12.113
65662W        W37988   6.894  27.436   4.539
65663W        W37989  21.222  31.096   1.849
65664W        W37990  15.151  29.112  10.471
65665W        W37991  15.320  42.055   2.598
65666W        W37992   2.010  35.937  10.749
65667W        W37993  35.868  44.391   1.358
65668W        W37994  30.436  12.401  11.003
65669W        W37995  36.858  42.037   4.817
65670W        W37996  31.173  41.290   4.181
65671W        W37997  44.733  32.511  10.851
65672W        W37998  25.752  27.082   0.047
65673W        W37999  38.975   1.431   1.418
65674W        W38000  40.081  11.766  12.465
65675W        W38001  26.170  35.511  14.865
65676W        W38002   2.245  25.790  11.018
65677W        W38003  27.033  18.298  12.677
65678W        W38004  20.450  15.729   1.238
65679W        W38005  27.217  33.526   1.164
65680W        W38006   2.895   2.561   3.315
65681W        W38007  16.295  24.087  13.919
65682W        W38008  44.820  41.998  12.936
65683W        W38009  12.751  12.030   4.698
65684W        W38010  11.716  42.849  11.668
65685W        W38011   1.784   5.826  10.823
65686W        W38012   0.226   4.057   5.110
65687W        W38013  19.045   9.920  14.714
65688W        W38014   0.691  10.719  11.399
65689W        W38015   6.435  40.491   1.388
65690W        W38016  41.053   6.605  11.230
65691W        W38017  21.767  23.001  12.972
65692W        W38018  38.487  44.179  14.969
65693W        W38019  32.208  36.553   5.163
65694W        W38020  39.345  34.926  14.540
65695W        W38021  18.539  42.363  14.482
65696W        W38022  36.850   9.895  10.232
65697W        W38023  35.486   5.813  11.663
65698W        W38024  25.486   0.797  13.735
65699W        W38025  19.043  21.639   3.856
65700W        W38026   3.379  41.452  14.256
65701W        W38027  22.985  21.238  12.493
65702W        W38028  23.635  16.079  14.570
65703W        W38029  12.623  12.199   1.637
65704W        W38030   3.757  14.875  10.736
65705W        W38031  26.070  32.342   3.243
65706W        W38032   4.763  24.730   3.204
65707W        W38033  36.553  25.466  11.543
65708W        W38034  13.796  32.535   3.374
65709W        W38035  36.263  10.795   0.750
65710W        W38036  25.098   4.468  12.007
65711W        W38037   7.178   0.407   3.645
65712W        W38038  44.391  12.629   1.488
65713W        W38039  41.028  30.500   4.301
65714W        W38040  29.194   4.234  10.541
65715W        W38041  36.923  17.570  14.683
65716W        W38042   0.875  18.684  12.922
65717W        W38043   4.678  43.803   3.671
65718W        W38044  33.892   4.151  10.415
65719W        W38045  36.662  25.483   0.758
65720W        W38046   1.099  11.779  10.232
65721W        W38047   2.263  16.841   0.483
65722W        W38048  22.036  38.974  10.698
65723W        W38049  44.398   9.341   2.867
65724W        W38050   2.717  35.139  14.411
65725W        W38051  15.588  33.061  10.956
65726W        W38052  10.628  35.447   4.196
65727W        W38053   1.269  12.069   0.346
65728W        W38054  17.438  31.567   4.301
65729W        W38055  23.682  42.902   1.380
65730W        W38056  33.886  15.287  12.806
65731W        W38057  38.729  18.255  13.082
65732W        W38058  15.357   3.768   2.637
65733W        W38059  31.056  41.471  11.097
65734W        W38060  20.509  29.502  14.024
65735W        W38061  13.294  40.527  10.647
65736W        W38062  24.743  44.306  10.856
65737W        W38063  28.474  32.120  13.468
65738W        W38064  18.319  29.732   3.774
65739W        W38065   1.755  42.839   2.020
65740W        W38066  37.583  27.151  13.003
65741W        W38067  16.456  43.864   1.706
65742W        W38068  10.379  24.698   4.531
65743W        W38069  33.869  44.923   4.093
65744W        W38070   4.295   9.708   2.434
65745W        W38071  33.498   2.339   3.777
65746W        W38072  11.419  18.262  10.687
65747W        W38073  21.264   5.683   0.029
65748W        W38074  31.347  34.308   3.681
65749W        W38075   5.643   9.117   1.853
65750W        W38076  24.302  15.857   0.444
65751W        W38077  23.548  21.785   3.372
65752W        W38078  42.044   2.264  11.102
65753W        W38079  13.719  39.516  11.009
65754W        W38080  27.163   3.572  14.091
65755W        W38081  24.691  19.206   1.541
65756W        W38082  25.799  14.734   1.963
65757W        W38083   6.045  17.555  11.198
65758W        W38084  44.491  25.584  14.403
65759W        W38085  36.179  23.111  12.965
65760W        W38086   9.463  21.220   1.411
65761W        W38087  13.824  21.135  12.534
65762W        W38088  44.995  19.178  11.469
65763W        W38089  11.793  15.529  14.798
65764W        W38090  10.783  36.228  10.681
65765W        W38091  33.094  38.349  10.731
65766W        W38092   6.870   3.506  14.011
65767W        W38093  29.542  26.752   5.060
65768W        W38094  13.543  30.869  10.488
65769W        W38095  19.111   2.244  12.065
65770W        W38096   7.393  44.969   1.530
65771W        W38097  42.300  35.080  13.805
65772W        W38098  43.497  11.043   4.060
65773W        W38099   0.645   2.887  10.566
65774W        W38100  38.274  40.985  11.636
65775W        W38101  38.541  26.708   3.270
65776W        W38102   6.870  23.418  12.464
65777W        W38103   5.307   9.641  11.543
65778W        W38104   2.282  43.232  14.955
65779W        W38105  12.873  32.161  14.253
65780W        W38106  28.140   5.349  13.369
65781W        W38107   2.320  34.021  12.324
65782W        W38108  32.663  16.868  12.068
65783W        W38109  43.502  22.468  14.022
65784W        W38110  33.846  23.068  14.963
65785W        W38111  30.560  26.619  11.486
65786W        W38112   2.723  11.150  12.540
65787W        W38113  33.965  28.135   0.297
65788W        W38114  19.546  43.389  14.831
65789W        W38115   3.046  28.722  12.191
65790W        W38116  41.455  39.436  11.964
65791W        W38117  24.876  44.809  10.956
65792W        W38118  38.361  16.382  14.401
65793W        W38119  10.723  31.363   4.672
65794W        W38120  32.074  10.260  13.630
65795W        W38121   2.343  26.328  13.702
65796W        W38122  16.257  25.102  11.846
65797W        W38123  12.775  44.456   3.350
65798W        W38124  12.790  34.369  11.985
65799W        W38125  34.095  42.973   1.465
65800W        W38126  11.775   8.704   0.417
65801W        W38127   7.209  33.060   2.659
65802W        W38128   7.464  38.481  11.930
65803W        W38129  24.296  23.111   1.187
65804W        W38130  15.874   6.086  11.499
65805W        W38131  37.974  41.351  14.270
65806W        W38132  11.689  24.110   4.274
65807W        W38133  32.373  37.600  10.627
65808W        W38134  42.314  27.390   1.400
65809W        W38135  24.287  28.418  13.814
65810W        W38136   3.335  33.609   4.540
65811W        W38137  31.852  11.353   2.708
65812W        W38138  19.627  43.777  11.206
65813W        W38139  13.624  10.063  11.663
65814W        W38140   5.518  21.808   2.712
65815W        W38141  38.362  43.092  14.017
65816W        W38142   2.789  23.170   2.472
65817W        W38143  21.486  29.425  14.784
65818W        W38144   3.794  29.776  10.658
65819W        W38145  43.823  42.567  11.559
65820W        W38146  21.998  14.639  10.571
65821W        W38147  26.410  19.980   1.318
65822W        W38148  16.587  12.549  10.643
65823W        W38149  24.722  44.044  11.294
65824W        W38150  30.058  18.309  13.456
65825W        W38151  10.659  28.630   3.710
65826W        W38152  41.233  20.038   1.849
65827W        W38153   1.560  36.369   2.850
65828W        W38154  14.814  36.178   1.773
65829W        W38155  39.504   3.458   3.896
65830W        W38156   3.334  10.831  13.857
65831W        W38157  18.615  25.543  14.864
65832W        W38158  21.897  21.761  14.667
65833W        W38159  24.116  28.964  12.544
65834W        W38160   2.237   5.979   5.018
65835W        W38161   4.826   2.272   4.183
65836W        W38162   3.657  43.767  12.914
65837W        W38163  42.982  13.889  11.554
65838W        W38164  11.281  37.186   4.922
65839W        W38165  11.381  25.050  12.814
65840W        W38166  34.932  37.639  11.083
65841W        W38167  13.349  30.735   2.286
65842W        W38168  12.847  12.916  12.067
65843W        W38169   5.694  34.114  13.831
65844W        W38170  22.969  19.742   4.142
65845W        W38171  29.949  19.171   4.207
65846W        W38172  35.497   8.028  11.211
65847W        W38173  40.251  21.173   2.262
65848W        W38174  40.945  11.063  12.983
65849W        W38175  22.512  31.665  14.356
65850W        W38176  17.049  14.124   1.137
65851W        W38177  44.321  17.804  12.115
65852W        W38178  40.830  42.996  10.512
65853W        W38179  37.865  15.461  10.379
65854W        W38180   8.436   7.635   0.154
65855W        W38181  34.571  23.240   4.819
65856W        W38182  29.599  30.392  11.036
65857W        W38183  19.528  33.734   4.487
65858W        W38184  31.218  44.952  13.425
65859W        W38185  37.396   3.364   4.951
65860W        W38186  26.974  24.123   1.913
65861W        W38187  10.311   9.474   0.799
65862W        W38188  32.166  33.372   0.424
65863W        W38189  26.129  15.699   3.378
65864W        W38190  37.978  41.785  14.592
65865W        W38191  36.067   7.913   2.723
65866W        W38192   3.370  32.486   4.302
65867W        W38193   4.342   4.462   2.762
65868W        W38194  22.645  41.712  10.777
65869W        W38195   4.535  42.728   4.229
65870W        W38196  44.789   1.839   3.833
65871W        W38197  16.165  26.463   0.038
65872W        W38198  32.929  39.191   0.403
65873W        W38199  42.318  32.645  11.680
65874W        W38200  28.148  13.213   1.513
65875W        W38201  23.721  32.128  14.327
65876W        W38202  36.972  38.888  14.093
65877W        W38203  39.676   4.996  14.322
65878W        W38204   6.180  19.752  13.383
65879W        W38205  20.509   9.307  13.052
65880W        W38206  14.578  21.956   1.768
65881W        W38207  42.852  39.580  12.000
65882W        W38208  34.922  22.093  11.450
65883W        W38209  35.702  17.255   0.232
65884W        W38210  44.015  16.389   4.444
65885W        W38211  43.036  12.451   4.097
65886W        W38212  28.261   1.474   0.461
65887W        W38213  11.573  24.521  10.221
65888W        W38214  15.290   4.188  12.965
65889W        W38215  27.197   0.047   1.166
65890W        W38216  21.079  28.102   2.583
65891W        W38217  26.074  19.047  12.575
65892W        W38218  24.367  16.128  10.614
65893W        W38219  43.562   8.045  11.040
65894W        W38220  29.292  10.681  12.008
65895W        W38221  13.203  40.963   4.447
65896W        W38222  37.938  12.798  13.297
65897W        W38223  15.234  12.082   1.873
65898W        W38224  13.336  31.853   0.809
65899W        W38225   9.097  41.424  10.323
65900W        W38226  23.411   6.833  12.076
65901W        W38227  16.160   6.336  14.316
65902W        W38228   6.761  40.500  13.423
65903W        W38229   7.702  18.714  13.822
65904W        W38230  32.300  22.462   0.215
65905W        W38231  37.041  36.742  10.838
65906W        W38232  21.699  32.664   0.423
65907W        W38233  36.139  38.175   3.355
65908W        W38234  42.841  30.082  10.695
65909W        W38235  33.071  35.121   1.044
65910W        W38236  35.610  25.123  11.415
65911W        W38237   4.281  14.790   3.661
65912W        W38238  43.434  18.203  14.032
65913W        W38239  39.378  18.245  12.469
65914W        W38240   4.961   3.053   2.557
65915W        W38241  12.138   3.770  12.469
65916W        W38242   1.586  38.365   0.786
65917W        W38243  19.726   9.468  14.018
65918W        W38244  25.213  12.852   4.578
65919W        W38245   2.072  21.989  10.917
65920W        W38246  36.309  40.888   4.283
65921W        W38247  18.670  20.545   2.412
65922W        W38248  27.054  34.606  12.361
65923W        W38249  31.551  29.678   3.621
65924W        W38250   5.723  22.768   1.106
65925W        W38251  28.809  16.340   2.720
65926W        W38252  14.747  12.153  12.146
65927W        W38253  12.478  10.124  14.321
65928W        W38254   7.386   9.867  11.925
65929W        W38255  41.941  34.173   0.267
65930W        W38256  25.556  20.622  12.015
65931W        W38257  21.229  30.268   3.563
65932W        W38258  14.099  14.068  13.587
65933W        W38259   4.337   7.782  13.332
65934W        W38260  38.503  30.930   1.056
65935W        W38261  17.703  12.135  12.177
65936W        W38262  31.010  16.353   1.438
65937W        W38263   6.456  40.998   3.806
65938W        W38264  41.228   7.688  13.922
65939W        W38265  32.344  41.505   1.305
65940W        W38266  39.852  25.936  12.528
65941W        W38267  29.329   3.791  11.515
65942W        W38268  44.396  18.093  14.823
65943W        W38269  41.407  31.008   2.797
65944W        W38270   5.239   2.791  12.081
65945W        W38271  20.673  16.274   4.043
65946W        W38272   5.768  29.931  11.474
65947W        W38273   4.684  28.011   2.034
65948W        W38274  38.611  36.824   4.705
65949W        W38275  34.512  29.752   3.150
65950W        W38276   1.303  16.082  11.488
65951W        W38277  20.242  35.462   3.280
65952W        W38278  40.946  23.953   1.652
65953W        W38279  16.973  38.347   4.847
65954W        W38280  20.580  24.979   4.705
65955W        W38281  17.555  28.117  10.726
65956W        W38282  40.029  39.307  14.824
65957W        W38283  26.012   0.826   3.189
65958W        W38284  20.125   0.248  13.822
65959W        W38285  16.807  11.766  14.723
65960W        W38286  13.047  29.687   0.446
65961W        W38287   7.980  31.036   2.219
65962W        W38288  14.829  44.594  14.915
65963W        W38289   5.285  13.121  14.382
65964W        W38290  42.178  29.566  14.870
65965W        W38291  19.236   3.104   4.642
65966W        W38292  31.981  29.505  14.533
65967W        W38293   3.690  25.718  13.428
65968W        W38294  23.697  35.959   4.806
65969W        W38295  22.715   4.330   3.294
65970W        W38296  26.698  12.934  11.544
65971W        W38297   9.753  13.564  12.634
65972W        W38298  22.534  37.443  12.871
65973W        W38299  38.017   5.390   0.181
65974W        W38300  27.602   1.005  11.644
65975W        W38301  38.538   7.740   4.098
65976W        W38302  23.219  15.787   5.441
65977W        W38303   3.323  26.141   0.297
65978W        W38304  40.894  18.758  14.026
65979W        W38305  44.162  25.459  14.026
65980W        W38306  12.863  12.470   3.220
65981W        W38307  11.685  23.836   0.910
65982W        W38308   2.760   8.172   0.496
65983W        W38309  32.119  34.571  11.692
65984W        W38310   5.727  31.567   0.323
65985W        W38311  19.168  36.386   0.557
65986W        W38312  23.736   5.589   4.108
65987W        W38313  30.898  15.829   1.358
65988W        W38314  26.612   8.197  11.678
65989W        W38315   3.477  29.877  14.411
65990W        W38316  21.987  22.592   4.366
65991W        W38317  26.176  16.639   4.230
65992W        W38318   3.696  44.869   0.768
65993W        W38319  24.520  34.752  13.033
65994W        W38320  32.579  22.991   2.004
65995W        W38321  11.813  13.838  12.486
65996W        W38322  39.993  15.551   4.151
65997W        W38323  29.912  20.514  14.915
65998W        W38324  33.992   7.094   2.272
65999W        W38325   7.840  37.285   0.131
66000W        W38326  31.917  27.770   2.337
66001W        W38327  12.800  16.818   1.833
66002W        W38328  21.128  23.914  10.977
66003W        W38329  35.096  12.177   3.726
66004W        W38330  42.743  40.820   1.643
66005W        W38331  44.754  41.135  13.873
66006W        W38332  18.172  27.148   0.369
66007W        W38333  19.025  10.420  14.494
66008W        W38334  14.379  40.005   1.482
66009W        W38335  36.617  13.824  14.326
66010W        W38336  38.294  12.113  11.756
66011W        W38337  43.875  11.769  14.416
66012W        W38338  25.078  27.738   2.719
66013W        W38339   6.810  21.502  14.464
66014W        W38340   6.745   3.496   0.471
66015W        W38341  41.201  10.302  12.369
66016W        W38342  40.320  28.424  10.264
66017W        W38343  29.945  39.115   4.027
66018W        W38344  30.590  11.827   2.149
66019W        W38345  13.204  10.180   1.811
66020W        W38346  26.146  23.939   4.198
66021W        W38347   8.251  21.545  13.405
66022W        W38348  13.300  40.037  13.722
66023W        W38349  11.130   7.796  11.720
66024W        W38350  26.026  32.552   2.118
66025W        W38351  43.934  38.927  13.019
66026W        W38352  15.069   0.329   0.836
66027W        W38353  32.891  27.042   3.739
66028W        W38354  20.849  38.499   9.804
66029W        W38355  17.243  26.226   5.212
66030W        W38356  10.167  34.590   1.476
66031W        W38357  32.509  17.077   0.594
66032W        W38358  13.454  39.336   0.362
66033W        W38359  17.123  23.308   1.165
66034W        W38360  27.061  18.651   2.666
66035W        W38361  28.613  17.706  11.122
66036W        W38362  28.384  39.864  14.369
66037W        W38363  38.022   2.833   3.894
66038W        W38364  37.508   6.172  14.487
66039W        W38365  20.118   2.201   3.154
66040W        W38366   4.176  41.536   2.986
66041W        W38367  23.592  10.274   4.199
66042W        W38368  34.157  37.537  13.294
66043W        W38369   4.497   3.248   1.148
66044W        W38370  42.910   3.012   0.361
66045W        W38371  34.442  36.276   5.541
66046W        W38372   4.985  41.504   3.319
66047W        W38373  11.671  22.058   3.474
66048W        W38374   1.740  19.331  14.897
66049W        W38375   2.923  43.548  14.360
66050W        W38376  37.751   1.330  12.501
66051W        W38377  19.199  15.798  11.582
66052W        W38378  31.028  25.033   2.354
66053W        W38379  31.526  21.536   4.120
66054W        W38380  31.446  38.997   4.610
66055W        W38381  30.617  16.138   0.313
66056W        W38382  32.796  12.494  13.928
66057W        W38383  42.245  23.254   3.664
66058W        W38384  18.231  14.177   1.483
66059W        W38385  17.597  26.653  14.121
66060W        W38386   2.887   4.885   0.343
66061W        W38387   3.209  17.295  13.388
66062W        W38388   1.642  28.221   4.170
66063W        W38389  10.661  11.700   0.830
66064W        W38390  40.938  37.448  10.911
66065W        W38391  36.102  11.894   5.470
66066W        W38392   4.404  12.312  12.127
66067W        W38393  38.863  20.311   4.614
66068W        W38394  42.216  25.304  13.514
66069W        W38395  27.468  30.180  10.116
66070W        W38396  30.067  14.806   4.564
66071W        W38397   5.149  26.590   4.022
66072W        W38398  32.518  33.618  13.921
66073W        W38399  32.444   7.321  13.848
66074W        W38400   1.375  28.345  10.715
66075W        W38401  41.051  24.148  13.613
66076W        W38402   4.804  15.959  12.829
66077W        W38403   8.687  20.626  12.155
66078W        W38404  36.873  39.672  14.629
66079W        W38405  42.277   2.317   0.921
66080W        W38406   8.550  33.385  12.052
66081W        W38407  20.548  29.637   0.022
66082W        W38408  29.203  18.250   4.268
66083W        W38409  23.151  31.532   4.829
66084W        W38410  33.646  37.885  11.868
66085W        W38411  35.518  18.071   3.156
66086W        W38412  36.451  33.531   2.849
66087W        W38413   7.840  21.049   3.233
66088W        W38414  19.881  10.614   4.119
66089W        W38415  24.358   1.729  12.905
66090W        W38416  20.030  39.139   0.105
66091W        W38417  30.679  34.202  11.435
66092W        W38418  24.253  40.114  12.408
66093W        W38419  26.015  17.992   3.889
66094W        W38420  31.197  13.193  12.837
66095W        W38421  10.642   0.434  14.353
66096W        W38422  18.079   3.019   0.326
66097W        W38423  14.944  12.222   1.283
66098W        W38424  11.397  15.009   0.848
66099W        W38425  14.892   9.341   1.962
66100W        W38426  36.044  19.998   2.231
66101W        W38427   9.461  33.636  12.008
66102W        W38428  19.518  41.683  13.836
66103W        W38429  22.669   4.603   1.206
66104W        W38430  30.875  33.021  10.916
66105W        W38431  33.695  24.221   0.643
66106W        W38432  39.926  32.496  12.206
66107W        W38433  15.429  14.577  11.716
66108W        W38434   0.855  41.574  13.339
66109W        W38435  31.000  31.339  14.953
66110W        W38436  27.993  34.113   1.846
66111W        W38437  38.975  30.647  13.503
66112W        W38438  42.090  22.763   1.457
66113W        W38439  12.737  38.178  10.882
66114W        W38440  27.443  35.464   4.564
66115W        W38441  28.296  30.758   3.236
66116W        W38442  34.296  36.713   9.716
66117W        W38443  11.073  40.631  14.822
66118W        W38444   6.153  27.477   1.719
66119W        W38445  42.092  34.195   1.342
66120W        W38446  11.082  41.191  13.530
66121W        W38447  28.540  31.196  13.321
66122W        W38448  22.669   6.854   1.302
66123W        W38449  27.727  12.257   3.441
66124W        W38450  36.615  13.836  13.814
66125W        W38451  16.714  13.707   3.199
66126W        W38452   4.830  17.788   0.610
66127W        W38453  19.725  12.655  13.890
66128W        W38454  24.167  24.429  14.029
66129W        W38455  30.032  40.321   2.778
66130W        W38456  39.780  28.693  10.745
66131W        W38457  29.150   5.858  13.604
66132W        W38458   8.677   6.169   4.546
66133W        W38459  23.115  24.635  13.887
66134W        W38460   5.883  43.040  12.558
66135W        W38461   1.363  12.185  13.115
66136W        W38462  23.088  23.754   3.606
66137W        W38463  18.957  21.525  12.458
66138W        W38464  41.472  12.184   3.873
66139W        W38465  34.579  37.755   4.150
66140W        W38466  32.971  41.096   0.269
66141W        W38467   7.379  21.337  11.239
66142W        W38468  28.978  35.955  10.393
66143W        W38469   6.290   8.127   0.237
66144W        W38470  19.290  16.013   3.595
66145W        W38471   5.624  28.459   2.279
66146W        W38472   4.924  23.056   0.991
66147W        W38473  18.188  25.724   2.810
66148W        W38474  33.471   4.921   1.733
66149W        W38475  30.354  20.016   1.670
66150W        W38476  24.653  18.418   4.085
66151W        W38477  33.488  35.029   3.161
66152W        W38478  10.421  20.483   2.778
66153W        W38479  25.742   1.812   1.073
66154W        W38480  12.222  27.109   0.539
66155W        W38481  12.280  12.237  14.114
66156W        W38482   5.306  16.787  12.355
66157W        W38483  19.193   1.596  11.411
66158W        W38484  44.286  40.917  14.585
66159W        W38485   3.773  34.076   3.413
66160W        W38486  19.821  28.985   1.264
66161W        W38487  39.081  36.035  14.448
66162W        W38488  41.484   4.871   0.183
66163W        W38489   3.143  24.341  11.215
66164W        W38490  41.096  21.308   2.040
66165W        W38491  10.270  33.292   1.812
66166W        W38492  11.068  26.147  14.959
66167W        W38493   2.357   5.314   2.715
66168W        W38494  10.321  17.105  10.285
66169W        W38495  43.115   1.214  11.525
66170W        W38496  21.745  15.271   4.610
66171W        W38497  30.489   6.702   4.601
66172W        W38498  31.857  40.400  11.921
66173W        W38499   7.744  22.478   3.685
66174W        W38500  16.019  18.504  10.735
66175W        W38501  20.021  18.116   1.947
66176W        W38502  35.880   2.095  10.909
66177W        W38503   5.201  17.397  14.888
66178W        W38504  42.880  42.023   4.135
66179W        W38505   7.463  36.503   1.175
66180W        W38506  37.234  31.425  10.521
66181W        W38507  34.508  11.201   4.320
66182W        W38508   0.012  16.594   3.420
66183W        W38509  39.107  15.235  10.707
66184W        W38510   0.325  39.553   4.543
66185W        W38511   6.468  42.065   2.658
66186W        W38512  25.771  30.631   3.013
66187W        W38513  27.484   0.022   2.732
66188W        W38514  15.561  44.845   4.164
66189W        W38515  25.484  18.108   3.780
66190W        W38516   6.260  11.393  12.465
66191W        W38517  35.854  41.910  12.024
66192W        W38518  29.911  13.287  11.556
66193W        W38519  14.275  34.272   1.937
66194W        W38520   8.764   5.160   2.281
66195W        W38521   2.688  25.119  11.426
66196W        W38522  36.020  31.094  11.866
66197W        W38523  29.358   3.482   3.234
66198W        W38524  13.072  27.917   1.173
66199W        W38525  32.795  40.459  12.000
66200W        W38526  37.403  36.092  13.478
66201W        W38527  14.698  43.770  12.049
66202W        W38528  36.424  14.744   1.753
66203W        W38529  26.069  28.856  14.792
66204W        W38530   2.243  10.674   3.926
66205W        W38531   0.576  10.766  10.054
66206W        W38532   8.261   2.418   2.178
66207W        W38533  37.448   6.912  14.870
66208W        W38534  17.114  25.252   2.281
66209W        W38535  10.938  21.633   0.763
66210W        W38536  35.505  33.546   1.045
66211W        W38537  19.039  42.939   1.915
66212W        W38538  15.671  25.757  11.544
66213W        W38539   4.881  11.878   1.263
66214W        W38540  28.170   2.987  11.640
66215W        W38541  24.783  27.529  14.723
66216W        W38542   7.303  18.857   1.344
66217W        W38543  31.427  42.291  11.541
66218W        W38544  30.923  23.701   2.354
66219W        W38545  37.595  35.364  11.597
66220W        W38546  23.159   5.950   1.363
66221W        W38547  27.988  17.644  14.862
66222W        W38548  32.164  29.047   1.310
66223W        W38549  42.357   2.937  13.552
66224W        W38550  30.569  26.154  13.298
66225W        W38551  16.772  41.102   1.703
66226W        W38552  23.740   0.924   3.782
66227W        W38553   2.985   7.210   4.568
66228W        W38554  15.884  43.730   2.879
66229W        W38555  17.121  22.345  14.887
66230W        W38556  44.578  42.292  11.045
66231W        W38557  14.291  43.036   1.667
66232W        W38558  15.421   4.350   2.744
66233W        W38559  24.309  15.820   3.669
66234W        W38560  20.276  23.722   4.493
66235W        W38561   6.589  43.874  14.536
66236W        W38562   8.300  19.669  14.203
66237W        W38563  33.638   1.974  11.550
66238W        W38564  31.808  12.899  12.265
66239W        W38565  17.304  23.063  13.316
66240W        W38566  26.406  31.547  14.963
66241W        W38567  11.216  22.690   2.866
66242W        W38568  13.160  28.115   5.075
66243W        W38569  17.790  20.084   2.693
66244W        W38570  40.899  34.075  13.549
66245W        W38571  31.554  21.495  14.567
66246W        W38572  40.529  39.427  10.954
66247W        W38573  36.778  20.280   1.142
66248W        W38574  42.836  19.652  12.635
66249W        W38575  31.512   2.763   4.708
66250W        W38576  37.504  21.022   4.261
66251W        W38577  41.024  41.883   3.606
66252W        W38578  12.077  40.911  13.423
66253W        W38579  18.285  31.877   0.867
66254W        W38580  14.052   5.730   1.410
66255W        W38581   5.245  32.660   2.209
66256W        W38582  11.415  12.949  13.399
66257W        W38583  35.574  17.675  12.179
66258W        W38584  26.217  31.194  11.631
66259W        W38585   9.281  23.922   0.407
66260W        W38586  32.127  24.280   3.802
66261W        W38587  20.730  42.625  12.054
66262W        W38588   5.411  34.362   4.222
66263W        W38589  43.579   5.286  14.813
66264W        W38590  31.401  28.234   4.041
66265W        W38591  37.009  31.022   1.011
66266W        W38592  23.215  44.437  12.836
66267W        W38593  28.886   4.046   2.402
66268W        W38594  14.273  24.525  14.721
66269W        W38595   2.894   0.750   4.815
66270W        W38596  33.892  16.843   2.241
66271W        W38597  17.214  37.507   2.234
66272W        W38598   2.282  23.090  12.624
66273W        W38599  40.254  42.901   5.056
66274W        W38600   6.498  23.492   4.558
66275W        W38601  37.788  13.672   1.956
66276W        W38602  12.796   8.731   4.579
66277W        W38603  16.542   0.274  11.124
66278W        W38604  34.907  14.023  11.861
66279W        W38605  19.305  32.101   3.725
66280W        W38606   0.800  12.214  10.356
66281W        W38607  12.788  17.699  12.104
66282W        W38608  41.774   6.333  14.060
66283W        W38609   8.309  34.593  14.066
66284W        W38610  17.068  28.807   0.418
66285W        W38611   9.709  29.170  12.578
66286W        W38612   7.136  23.225  14.202
66287W        W38613  23.202  21.027  12.082
66288W        W38614  17.995  19.711  13.423
66289W        W38615  19.109  27.155  11.718
66290W        W38616  29.184  32.968   0.485
66291W        W38617   4.446  27.421   0.966
66292W        W38618  42.051  22.747   0.008
66293W        W38619  23.587  42.788  11.070
66294W        W38620  31.698  17.661  14.471
66295W        W38621  12.019  19.989  13.044
66296W        W38622  26.346  37.159   4.161
66297W        W38623  42.033  41.773  10.795
66298W        W38624   7.060   7.937  10.763
66299W        W38625  27.049  35.509  12.596
66300W        W38626  43.455  22.339  12.124
66301W        W38627  17.026  12.683  12.824
66302W        W38628  35.894  40.588   2.179
66303W        W38629  21.672  12.257  14.242
66304W        W38630  24.194  31.917   2.251
66305W        W38631  24.583  18.016   2.615
66306W        W38632  31.505  17.598  12.217
66307W        W38633   8.729  18.792  10.417
66308W        W38634   6.242   2.768  11.164
66309W        W38635  36.542  43.949   0.798
66310W        W38636  12.864  26.930   2.269
66311W        W38637  41.909  18.912  11.180
66312W        W38638   1.187  40.058   1.724
66313W        W38639   4.253  25.539   1.382
66314W        W38640  36.141  10.624  13.078
66315W        W38641  17.242  41.197  14.726
66316W        W38642  36.573  37.097  12.476
66317W        W38643  28.384  13.072   4.539
66318W        W38644  33.842  25.181   4.975
66319W        W38645   8.210  43.283  10.581
66320W        W38646  20.681   9.747  12.556
66321W        W38647  22.305  39.960   2.674
66322W        W38648  25.054  29.396   0.885
66323W        W38649  44.478  27.097  10.210
66324W        W38650  20.586  33.073  10.573
66325W        W38651  19.079  27.974  12.972
66326W        W38652   9.738  25.998  14.868
66327W        W38653  25.657  31.499   1.357
66328W        W38654  33.776  34.951   3.641
66329W        W38655  37.926  18.384   1.760
66330W        W38656   2.851  21.950   4.622
66331W        W38657  41.803  22.243  11.008
66332W        W38658  33.459  37.500  12.820
66333W        W38659   4.301   2.728  12.936
66334W        W38660  12.108  42.798   4.556
66335W        W38661  15.205  34.443  12.427
66336W        W38662  16.305  31.961   1.543
66337W        W38663  16.645  32.219   3.093
66338W        W38664  12.775  38.103  11.589
66339W        W38665  43.463   7.544  11.031
66340W        W38666  16.785   4.696  14.481
66341W        W38667  13.744   3.305  13.778
66342W        W38668  37.112  29.678   1.277
66343W        W38669  39.147  11.928  10.460
66344W        W38670  32.525  32.167   3.864
66345W        W38671  34.078  32.495   0.198
66346W        W38672  23.652  35.454   4.704
66347W        W38673   5.154  32.146   0.769
66348W        W38674  29.147  14.527  13.377
66349W        W38675   5.870  20.529   0.421
66350W        W38676  41.423  21.420   4.772
66351W        W38677  16.569   9.306   2.607
66352W        W38678  25.670  15.183   1.738
66353W        W38679  18.613  43.843   1.885
66354W        W38680  13.126  38.961  12.606
66355W        W38681  17.625  32.098  14.934
66356W        W38682  16.743  41.102  11.607
66357W        W38683  12.719  42.505  10.629
66358W        W38684  27.857  36.608   4.120
66359W        W38685  30.199   3.389   4.497
66360W        W38686   5.644  33.732   1.633
66361W        W38687  44.267  15.314  14.802
66362W        W38688  32.110  26.436  10.323
66363W        W38689   6.418  44.915   2.710
66364W        W38690  42.213   6.163   5.118
66365W        W38691  21.699  41.633   1.391
66366W        W38692  15.558   3.388  11.781
66367W        W38693   1.991  30.834  11.440
66368W        W38694  10.358  33.293  10.691
66369W        W38695  30.961  28.460   0.604
66370W        W38696  32.986  29.991  13.638
66371W        W38697  34.545  21.919  14.936
66372W        W38698  44.020   9.449  13.340
66373W        W38699   4.765  24.334  13.437
66374W        W38700  31.446  25.732  14.742
66375W        W38701  35.557  15.646   1.407
66376W        W38702  32.495   8.174   3.369
66377W        W38703   6.472   6.859  14.840
66378W        W38704  19.868  11.958   4.254
66379W        W38705  38.845  25.229   4.716
66380W        W38706  19.677   1.778  13.623
66381W        W38707  15.725  11.154  12.798
66382W        W38708   8.611  24.530  11.957
66383W        W38709   2.891  25.070  11.889
66384W        W38710  23.377  35.116   2.234
66385W        W38711   6.791  14.856   3.083
66386W        W38712  12.710  21.308   3.311
66387W        W38713  23.798   7.329   0.911
66388W        W38714  36.097  34.896  14.075
66389W        W38715  40.838  26.984  13.517
66390W        W38716  33.055  43.299  13.084
66391W        W38717  38.547  19.988   3.796
66392W        W38718  29.019  40.875   2.579
66393W        W38719  16.494   6.851  14.844
66394W        W38720  42.788   3.857   2.820
66395W        W38721  22.311  13.850   4.494
66396W        W38722  28.484  16.190   1.267
66397W        W38723  15.141  13.347   2.301
66398W        W38724  10.759   0.404   0.353
66399W        W38725   5.686  41.124  12.638
66400W        W38726  19.040  16.689  11.073
66401W        W38727  22.388  15.320  14.821
66402W        W38728  15.354   4.271  14.399
66403W        W38729  43.341  32.957  11.687
66404W        W38730  26.285  11.103   2.363
66405W        W38731  28.720  11.188  11.514
66406W        W38732  20.822  43.963  12.330
66407W        W38733  30.913  26.548   4.053
66408W        W38734  36.119   6.180  10.669
66409W        W38735  25.827  27.672   4.704
66410W        W38736  31.361  10.180  12.489
66411W        W38737  10.303  27.135   2.416
66412W        W38738  17.029  37.363  14.282
66413W        W38739  11.553  16.324  13.121
66414W        W38740  22.146  30.881  10.764
66415W        W38741  38.305  16.780   1.934
66416W        W38742  35.029  27.596   3.267
66417W        W38743  31.058   7.810  12.056
66418W        W38744  36.502  39.815   4.074
66419W        W38745  27.092  14.016  14.726
66420W        W38746  36.112  22.461  12.054
66421W        W38747  29.449  29.107  10.582
66422W        W38748  38.538   2.201   0.421
66423W        W38749  36.327  11.451  11.583
66424W        W38750  32.954   5.391   4.902
66425W        W38751  24.038  43.269  11.701
66426W        W38752  36.560  22.489   0.248
66427W        W38753  13.056  33.437  11.057
66428W        W38754   5.968  28.594   3.988
66429W        W38755  10.409  34.579   3.632
66430W        W38756  25.211  15.543  12.585
66431W        W38757  27.481  24.579   0.314
66432W        W38758  17.169  29.762   0.270
66433W        W38759  26.627  14.284  12.525
66434W        W38760  41.247  34.410  11.107
66435W        W38761  18.706  20.024  12.984
66436W        W38762  21.416  42.885  13.356
66437W        W38763  14.124  15.665  11.376
66438W        W38764  21.154   2.400  10.717
66439W        W38765  21.293  15.891  10.249
66440W        W38766  20.600  15.112  13.953
66441W        W38767  33.331  38.960   2.802
66442W        W38768  12.925  14.995  11.611
66443W        W38769  12.747  30.123   2.621
66444W        W38770   7.363  21.268  12.009
66445W        W38771  36.162  29.435  10.782
66446W        W38772  10.711  26.249   5.352
66447W        W38773  14.371   7.889  14.328
66448W        W38774   2.477  42.564   4.244
66449W        W38775  15.572  39.179   4.254
66450W        W38776   0.738  29.134   4.298
66451W        W38777  28.695  37.347   4.177
66452W        W38778   0.029  36.175  13.323
66453W        W38779  24.737  19.670  10.587
66454W        W38780  17.572  37.409   3.386
66455W        W38781  18.688  40.269   0.260
66456W        W38782  10.764   3.003   4.074
66457W        W38783  26.045  11.300  14.449
66458W        W38784  37.840  18.994  12.893
66459W        W38785  25.025  31.948  10.684
66460W        W38786  13.982  14.229   0.063
66461W        W38787  13.082  41.003   4.952
66462W        W38788  13.249   4.459  14.838
66463W        W38789  36.361  41.215  10.254
66464W        W38790  33.082  16.118  14.359
66465W        W38791   8.853  20.612   1.367
66466W        W38792   2.968  38.557   1.202
66467W        W38793  28.436  19.252   0.999
66468W        W38794  32.624  26.712   1.797
66469W        W38795  31.017  25.156  11.461
66470W        W38796  11.294  12.186  12.032
66471W        W38797   9.928  25.221   2.291
66472W        W38798  36.460   1.217   3.778
66473W        W38799  19.904  22.048  14.754
66474W        W38800   8.913   5.225   4.543
66475W        W38801  39.802  41.304   4.519
66476W        W38802  35.549  27.431   0.749
66477W        W38803  33.690  13.392  11.195
66478W        W38804  27.769  25.633   1.874
66479W        W38805  26.989  17.266  14.488
66480W        W38806  15.147  37.596  13.883
66481W        W38807  24.087   9.231   1.662
66482W        W38808  39.928   6.908  14.427
66483W        W38809  39.061  25.132   3.307
66484W        W38810  39.790  21.851   2.276
66485W        W38811  17.576  29.086   4.581
66486W        W38812   7.477  22.654   3.141
66487W        W38813   5.609  27.091   0.394
66488W        W38814  31.948  15.262   2.912
66489W        W38815  12.837  37.172  11.082
66490W        W38816  14.760  24.623  14.827
66491W        W38817  10.227  29.169  13.860
66492W        W38818  22.652  39.989  13.388
66493W        W38819  25.138  44.155  12.996
66494W        W38820  39.997  13.334   2.805
66495W        W38821  29.431   9.739  14.517
66496W        W38822  36.786  30.134  13.357
66497W        W38823  32.506   9.845   4.148
66498W        W38824  11.170   5.398  13.595
66499W        W38825   7.035  29.953  11.633
66500W        W38826  34.962   9.723   4.546
66501W        W38827  39.484  34.894  11.062
66502W        W38828   2.205   2.187  13.631
66503W        W38829  10.996  23.264  11.585
66504W        W38830  27.632   8.447   1.404
66505W        W38831  32.417  11.394   0.364
66506W        W38832  32.535  13.101  12.089
66507W        W38833  43.477  24.494   1.586
66508W        W38834  18.589  36.125   3.611
66509W        W38835  28.106   6.091   1.605
66510W        W38836  30.936  35.514   1.476
66511W        W38837   4.616  30.853   1.672
66512W        W38838  44.343   4.758   2.726
66513W        W38839  13.566  21.753   1.764
66514W        W38840  30.096  19.630   3.175
66515W        W38841  37.493  41.826   0.794
66516W        W38842  11.559   9.369   4.528
66517W        W38843  18.737   3.725  11.002
66518W        W38844   2.298  19.607   4.284
66519W        W38845  10.253  27.896   4.565
66520W        W38846   5.180   7.611   1.935
66521W        W38847  12.744  23.685  12.426
66522W        W38848  36.721  12.005   2.024
66523W        W38849  27.918  30.158  10.365
66524W        W38850  21.562   3.447   1.819
66525W        W38851  38.002   8.637  11.170
66526W        W38852  12.094  31.586  14.441
66527W        W38853  37.411   2.273   0.313
66528W        W38854   1.346  32.860  11.419
66529W        W38855  29.970  43.309   1.104
66530W        W38856  28.005   8.764  13.228
66531W        W38857   6.888  26.672  11.253
66532W        W38858  25.831  12.189   4.210
66533W        W38859   5.217  32.297   9.901
66534W        W38860  34.016   4.900  13.360
66535W        W38861  36.845  41.721  10.884
66536W        W38862  13.500   6.704  10.764
66537W        W38863   1.811   1.879  10.046
66538W        W38864  21.634   9.587   2.135
66539W        W38865  35.280   6.203  14.502
66540W        W38866  23.352  13.280  12.766
66541W        W38867  35.978  42.008   1.714
66542W        W38868  18.639  21.500  11.658
66543W        W38869   0.437  11.132  11.145
66544W        W38870  25.895  29.536   0.889
66545W        W38871  36.565  44.552  11.588
66546W        W38872  30.038  21.305   2.841
66547W        W38873  19.554  26.485  11.110
66548W        W38874  30.587  16.115  11.527
66549W        W38875  29.667  17.844  11.822
66550W        W38876  29.463   1.248   4.904
66551W        W38877  14.765   1.070  12.809
66552W        W38878  36.066  14.018  13.351
66553W        W38879  27.237  16.156   4.160
66554W        W38880   7.963  31.885   4.170
66555W        W38881  44.497  33.564  12.538
66556W        W38882   5.728   2.258  13.347
66557W        W38883  19.228  37.927  14.477
66558W        W38884  21.691  15.696   4.276
66559W        W38885  32.858   7.956  11.132
66560W        W38886   2.278  20.921  12.555
66561W        W38887  36.941  23.488  11.184
66562W        W38888  32.492  35.842   4.640
66563W        W38889  43.292  13.380   3.237
66564W        W38890  39.873  18.092  12.370
66565W        W38891  25.678   5.338   1.338
66566W        W38892  41.094  37.547   3.303
66567W        W38893  35.441  26.992   0.466
66568W        W38894  26.136  21.040   0.631
66569W        W38895  13.227  12.554  12.235
66570W        W38896  13.786  37.158   2.202
66571W        W38897  13.908   5.778  12.327
66572W        W38898  24.020  29.033  13.975
66573W        W38899   5.035  24.751  13.548
66574W        W38900   0.705   0.762   3.731
66575W        W38901  27.909  39.277  13.721
66576W        W38902  22.612   5.839   2.523
66577W        W38903   8.857  23.774   2.136
66578W        W38904  11.223  19.585  11.860
66579W        W38905   8.701   1.001  13.047
66580W        W38906  30.836   6.234  13.440
66581W        W38907  16.771  36.886  14.412
66582W        W38908  26.931  33.081   0.797
66583W        W38909  15.394  29.555   3.180
66584W        W38910  30.976  10.650   4.741
66585W        W38911  19.822  25.690  11.019
66586W        W38912   6.219  34.971   0.775
66587W        W38913   7.956  19.624   3.283
66588W        W38914  41.366  20.294   2.276
66589W        W38915  10.786   2.445   4.057
66590W        W38916  14.819  33.384   2.927
66591W        W38917  42.966  35.928  13.593
66592W        W38918  19.694  20.563   3.282
66593W        W38919  41.827  17.187  12.885
66594W        W38920  25.982  38.069   0.418
66595W        W38921  42.838  12.880   2.760
66596W        W38922  29.975   3.755  14.329
66597W        W38923   8.322   4.692   1.439
66598W        W38924  18.248   4.600  13.929
66599W        W38925  43.588   1.775   1.393
66600W        W38926  37.375   0.304   3.877
66601W        W38927  38.826  26.269   4.732
66602W        W38928  33.080  13.784   3.822
66603W        W38929  39.491  26.103  11.628
66604W        W38930  34.677  38.874  11.188
66605W        W38931  36.026  32.542  11.063
66606W        W38932  18.781   1.975  14.761
66607W        W38933  27.617  26.220   1.207
66608W        W38934   7.868   0.592   2.285
66609W        W38935  16.576  11.620  11.978
66610W        W38936   9.898  16.883   0.721
66611W        W38937  15.545   2.871  13.887
66612W        W38938   8.979  30.562   2.327
66613W        W38939  16.734  42.845   1.425
66614W        W38940   8.732  23.300  14.931
66615W        W38941  23.474  17.749   0.912
66616W        W38942  13.777  16.914  11.954
66617W        W38943  34.920  10.883  12.421
66618W        W38944  21.378  21.503  11.709
66619W        W38945   1.747  34.028   3.558
66620W        W38946   3.491  39.740  11.197
66621W        W38947  23.470   4.716   1.902
66622W        W38948  21.986   9.312  11.145
66623W        W38949  16.164  29.850   1.741
66624W        W38950   4.170  22.016  13.437
66625W        W38951  28.599  43.848  12.699
66626W        W38952  21.139   2.530   0.465
66627W        W38953  11.901  17.005  11.069
66628W        W38954  40.305  32.973  12.407
66629W        W38955  13.602  38.344   2.733
66630W        W38956  28.094  36.532   3.662
66631W        W38957  39.062  15.650  14.365
66632W        W38958  20.929  12.147   4.149
66633W        W38959  35.449   7.823   1.183
66634W        W38960  34.307   3.678  13.985
66635W        W38961   7.515   6.168  12.480
66636W        W38962  37.220   3.939   0.781
66637W        W38963  14.619  11.441  13.559
66638W        W38964   5.613  24.057   4.928
66639W        W38965  24.110  34.449   3.434
66640W        W38966  32.129  19.215   1.394
66641W        W38967  17.517  20.554  12.901
66642W        W38968  27.943   1.440  13.956
66643W        W38969   1.234  40.439   3.081
66644W        W38970   8.933  14.707   1.180
66645W        W38971  32.624  15.685   0.266
66646W        W38972   9.330  11.228   4.230
66647W        W38973  14.643   3.980   0.284
66648W        W38974  41.009   6.707   1.441
66649W        W38975   6.577  33.422  11.060
66650W        W38976  23.081  20.006  11.116
66651W        W38977  25.589   9.028  12.125
66652W        W38978  13.578  32.254  14.849
66653W        W38979  20.948  16.534   2.738
66654W        W38980  25.143  16.062  14.355
66655W        W38981  32.418   4.196  14.567
66656W        W38982   6.907  36.066  11.229
66657W        W38983   6.895  10.711   0.588
66658W        W38984  19.227  24.097  11.061
66659W        W38985   0.353  18.527  10.650
66660W        W38986  15.586  27.981   1.467
66661W        W38987   3.550   8.380  14.774
66662W        W38988  14.075  34.785   4.531
66663W        W38989  43.733  28.619   0.116
66664W        W38990   3.457  19.476  11.508
66665W        W38991   7.847  23.979  12.958
66666W        W38992  37.511   9.625   3.769
66667W        W38993  31.450  11.633  12.007
66668W        W38994   2.940  42.326   2.155
66669W        W38995  18.102  14.144  12.506
66670W        W38996  22.712   5.650   1.302
66671W        W38997  11.912   7.826  12.802
66672W        W38998  35.973   2.577  11.082
66673W        W38999   5.655  11.719  11.158
66674W        W39000   9.337  14.092   4.331
66675W        W39001  13.476   9.400   3.761
66676W        W39002  41.364  17.495  12.993
66677W        W39003  16.646  39.590  10.374
66678W        W39004   1.444  31.662  13.426
66679W        W39005  37.436  19.399  11.568
66680W        W39006  39.331  32.666  12.432
66681W        W39007   3.203  35.177   5.062
66682W        W39008  40.546  21.824   1.943
66683W        W39009   6.942  26.174  14.490
66684W        W39010  10.433  32.425  12.366
66685W        W39011   8.423  29.521   0.862
66686W        W39012  40.434  30.060   1.109
66687W        W39013  35.866  13.332   4.195
66688W        W39014  19.793  17.711  14.696
66689W        W39015  42.801  19.021   4.598
66690W        W39016  42.300  25.135  10.720
66691W        W39017  37.065  34.401   0.757
66692W        W39018  19.917  34.641   4.273
66693W        W39019  19.992  11.094   4.606
66694W        W39020  43.269  39.565   3.756
66695W        W39021  41.716   6.343  13.522
66696W        W39022  20.593  31.361  11.013
66697W        W39023  34.407  12.675   0.545
66698W        W39024   6.755  16.998   4.946
66699W        W39025  21.035  35.013  10.729
66700W        W39026   5.150   7.823   0.460
66701W        W39027  19.419  44.301   1.635
66702W        W39028  37.350  37.582  12.535
66703W        W39029  28.017  11.912   1.271
66704W        W39030  40.778   1.781  14.194
66705W        W39031  34.522  32.394  14.439
66706W        W39032  44.845  44.529  11.151
66707W        W39033  33.064  35.490   3.698
66708W        W39034  42.859  21.864   2.295
66709W        W39035   2.545  42.366  11.159
66710W        W39036   9.292  38.471   0.748
66711W        W39037  19.590  15.544  13.459
66712W        W39038   6.631  34.587  12.376
66713W        W39039  39.959  40.771   0.014
66714W        W39040  16.647  14.574   3.669
66715W        W39041  17.980  32.326  12.161
66716W        W39042  23.193  21.844   3.768
66717W        W39043  27.479  30.422   2.667
66718W        W39044  44.977  30.585   3.736
66719W        W39045  38.219  43.487  12.972
66720W        W39046  33.193   0.541   1.741
66721W        W39047  13.173  30.373  14.833
66722W        W39048  41.402  11.685   4.673
66723W        W39049  32.290  11.665   1.862
66724W        W39050  44.369   3.937   2.285
66725W        W39051  12.267  14.608   4.265
66726W        W39052  23.837   1.712  11.515
66727W        W39053  34.405   3.317   0.184
66728W        W39054  31.626  40.358   2.857
66729W        W39055  32.629  32.931   3.230
66730W        W39056  39.943  25.296  14.969
66731W        W39057  39.987  22.307  14.435
66732W        W39058  23.075  22.709   1.326
66733W        W39059  41.483   9.421  11.618
66734W        W39060  14.661  16.336  14.978
66735W        W39061   5.972  17.140   3.812
66736W        W39062   6.457  17.454  13.436
66737W        W39063  12.291   8.680   0.305
66738W        W39064  29.394  14.520  10.375
66739W        W39065   6.386  24.611  14.808
66740W        W39066  25.728  12.586  11.131
66741W        W39067  32.015  26.361  12.094
66742W        W39068   8.343  34.646  13.542
66743W        W39069  15.351   3.386   9.824
66744W        W39070  22.156  39.160  13.479
66745W        W39071   7.985  16.615   0.831
66746W        W39072  11.274   8.371   4.497
66747W        W39073  27.541   9.622   0.779
66748W        W39074  22.568  44.261   1.951
66749W        W39075   1.206   2.378  11.936
66750W        W39076  34.530  14.762   2.723
66751W        W39077  15.361  30.821   2.928
66752W        W39078  21.332  21.490   4.159
66753W        W39079  15.309  15.514   3.666
66754W        W39080  22.768  43.927  12.639
66755W        W39081   7.232  33.513   4.759
66756W        W39082  11.691   3.515   3.727
66757W        W39083  41.268  38.354   2.950
66758W        W39084  15.353  14.101   4.618
66759W        W39085  24.593  36.428   3.259
66760W        W39086  27.768  41.750   4.931
66761W        W39087  35.320  28.813   2.732
66762W        W39088  29.973  16.836  14.965
66763W        W39089   1.584  36.888  10.636
66764W        W39090  32.434   3.945   3.765
66765W        W39091  36.132   1.721   4.252
66766W        W39092  35.607   0.998   4.292
66767W        W39093  17.209  18.459   0.391
66768W        W39094   4.309  25.273  13.531
66769W        W39095  31.254   5.459   0.360
66770W        W39096  41.763   0.387  11.574
66771W        W39097   8.608  32.881  14.138
66772W        W39098  14.132  15.835   2.799
66773W        W39099  14.203  26.538   3.221
66774W        W39100  18.896  34.611   3.210
66775W        W39101   6.870  34.828  14.012
66776W        W39102  33.382  30.628   2.818
66777W        W39103  38.295  10.935   1.009
66778W        W39104  16.750  11.217  11.067
66779W        W39105  41.456  41.280   0.828
66780W        W39106  15.191   8.467   2.215
66781W        W39107  26.589  34.161  14.820
66782W        W39108  28.098  15.980  11.573
66783W        W39109  44.298  30.160   0.897
66784W        W39110  28.961   7.124   2.336
66785W        W39111  18.179  27.591  12.889
66786W        W39112  25.494   8.543   3.712
66787W        W39113  26.759  34.647  14.921
66788W        W39114  38.091   1.715  12.595
66789W        W39115  38.854  15.011   4.621
66790W        W39116  17.212  14.174   4.742
66791W        W39117   1.226  22.099  14.474
66792W        W39118  42.558  14.193   1.277
66793W        W39119  28.243  31.549   3.745
66794W        W39120  24.848   1.988  13.814
66795W        W39121  36.075  40.830   0.882
66796W        W39122  23.958   0.647   3.381
66797W        W39123  43.224  11.209  13.539
66798W        W39124  19.094  42.502   1.271
66799W        W39125   9.391  21.462  12.866
66800W        W39126  35.604  25.941   0.258
66801W        W39127  25.413  18.615   0.515
66802W        W39128  14.803  41.454  11.376
66803W        W39129  24.099   1.867   2.472
66804W        W39130  15.839  20.286  11.177
66805W        W39131  30.426   9.695  11.526
66806W        W39132  37.831  16.646  13.164
66807W        W39133  12.827  29.682  13.605
66808W        W39134  16.461  24.520   4.197
66809W        W39135   4.857  30.929   2.169
66810W        W39136   1.717  40.742   1.008
66811W        W39137   9.327  38.721  12.865
66812W        W39138  32.387   8.616  10.674
66813W        W39139  14.100  11.660   4.546
66814W        W39140  17.529  19.251  11.586
66815W        W39141  35.033  39.985   0.287
66816W        W39142  23.491  43.245  12.429
66817W        W39143  26.974  42.446   4.042
66818W        W39144  14.551  23.092   3.242
66819W        W39145   9.349  26.907   1.323
66820W        W39146  18.887  22.481   0.913
66821W        W39147  20.754  36.797  13.421
66822W        W39148  38.116   1.384   0.398
66823W        W39149  33.283  44.789   2.425
66824W        W39150  44.882   2.271  10.574
66825W        W39151   4.515  44.473   3.817
66826W        W39152  25.764  18.602  10.435
66827W        W39153  31.453  37.476   0.363
66828W        W39154  24.999  25.698   3.162
66829W        W39155  37.479   1.973   0.721
66830W        W39156  43.490  18.639  11.123
66831W        W39157  32.385  33.886   3.216
66832W        W39158  42.790   8.249  12.452
66833W        W39159  22.181  19.549  11.880
66834W        W39160  34.942  26.662  13.851
66835W        W39161  36.637  36.536   1.789
66836W        W39162   6.376  20.681   2.310
66837W        W39163   0.639   0.640  11.078
66838W        W39164  28.570  28.768  13.265
66839W        W39165  42.442  21.442  14.523
66840W        W39166   4.728   5.815  10.589
66841W        W39167  42.746  40.784   3.673
66842W        W39168   7.468  14.769  13.579
66843W        W39169  24.172  44.287   4.969
66844W        W39170  40.315  35.955  14.986
66845W        W39171  32.524   2.919  11.581
66846W        W39172  27.943   7.775  13.484
66847W        W39173  37.029  14.749   1.412
66848W        W39174  39.745  37.961  11.086
66849W        W39175  44.081  20.085  11.242
66850W        W39176  20.947   6.284   3.147
66851W        W39177   2.981  42.376   1.621
66852W        W39178  18.204   8.444   3.628
66853W        W39179  18.823  40.981   1.715
66854W        W39180  31.216  21.603   2.292
66855W        W39181  37.082  32.730  14.940
66856W        W39182  27.944  39.504  14.925
66857W        W39183  41.406  39.266   2.883
66858W        W39184  13.025   3.279   2.708
66859W        W39185  39.896   4.931   2.769
66860W        W39186  23.579   5.159  12.279
66861W        W39187   5.935  19.384  10.691
66862W        W39188  15.009  34.057  12.771
66863W        W39189  44.736   7.220   0.378
66864W        W39190  23.466   7.849   1.782
66865W        W39191   9.421  20.760   2.807
66866W        W39192  36.511  15.299  10.701
66867W        W39193  27.543   5.999   2.955
66868W        W39194  42.439  26.900   3.641
66869W        W39195  24.897  42.056   5.057
66870W        W39196  12.911  11.010  12.296
66871W        W39197  29.173  38.854  13.964
66872W        W39198  39.057  10.593  11.584
66873W        W39199  30.176  24.666   0.868
66874W        W39200   4.835  24.225   3.176
66875W        W39201  36.564   0.343  13.348
66876W        W39202   4.370  20.140  12.490
66877W        W39203  14.121  39.363  11.738
66878W        W39204  19.671  38.717   4.197
66879W        W39205   8.482  32.092   0.029
66880W        W39206  10.332  37.880  11.085
66881W        W39207  40.043  19.238   3.094
66882W        W39208  35.869   0.728   3.917
66883W        W39209  43.905  12.612  10.537
66884W        W39210   6.277  10.183   3.708
66885W        W39211   8.408  25.010  14.300
66886W        W39212  27.992  30.621   4.144
66887W        W39213  29.118   9.759   2.648
66888W        W39214  26.442  21.754   1.729
66889W        W39215  32.704  35.260  10.470
66890W        W39216  14.702  25.398   1.758
66891W        W39217   1.049   7.842   3.240
66892W        W39218  40.044  22.181  10.733
66893W        W39219  25.579  25.700  12.747
66894W        W39220  40.004  10.813  11.122
66895W        W39221   0.568  42.235  14.316
66896W        W39222   0.307  31.135   3.329
66897W        W39223  27.453   5.632  14.779
66898W        W39224   0.258   6.420   3.599
66899W        W39225  21.255  36.052   0.417
66900W        W39226  29.654  33.685   3.676
66901W        W39227   0.319   6.180  10.635
66902W        W39228   6.356  42.555   0.434
66903W        W39229  37.425  35.240  14.002
66904W        W39230  43.836   3.027   0.970
66905W        W39231   3.821  12.865  11.802
66906W        W39232   2.107  27.256  13.372
66907W        W39233  39.568   5.351  11.814
66908W        W39234  16.194   6.702   0.468
66909W        W39235  18.511  16.089  10.555
66910W        W39236  29.939  12.181  14.933
66911W        W39237  43.855  15.163  12.437
66912W        W39238  40.211   4.197   1.836
66913W        W39239  20.113  17.168  13.602
66914W        W39240   2.701  26.193   5.036
66915W        W39241  31.909  13.240   3.764
66916W        W39242  27.542  40.115  14.397
66917W        W39243  14.084  43.280  13.996
66918W        W39244  26.046  38.865  11.588
66919W        W39245  16.378  22.994   0.825
66920W        W39246  26.717  32.981  10.329
66921W        W39247  30.701  29.444  14.780
66922W        W39248  41.926  28.007   4.549
66923W        W39249  44.415  25.186   2.226
66924W        W39250  20.118  44.296  10.645
66925W        W39251   8.686  41.302  13.421
66926W        W39252  25.381  16.267   4.252
66927W        W39253  23.088   0.381  13.259
66928W        W39254  40.604   7.897  14.723
66929W        W39255   9.656  31.089  12.791
66930W        W39256   4.503  27.574   3.697
66931W        W39257  36.471  24.942  12.859
66932W        W39258  44.962   3.541   4.212
66933W        W39259  14.189  38.332  13.181
66934W        W39260  44.734  22.074  14.281
66935W        W39261  36.897  41.740  12.642
66936W        W39262   3.283   8.841  13.417
66937W        W39263  33.915  18.596   4.060
66938W        W39264  42.302   7.662   0.421
66939W        W39265  28.452  30.895   4.152
66940W        W39266   6.200  14.295   1.395
66941W        W39267  29.435  40.468   4.618
66942W        W39268  26.024  44.426   4.758
66943W        W39269  26.127  39.383  11.988
66944W        W39270  31.987  34.077   4.323
66945W        W39271   8.647   7.473   1.298
66946W        W39272  22.513   8.689  13.572
66947W        W39273   9.117  35.806   9.842
66948W        W39274   1.395  28.613   2.107
66949W        W39275  35.048  21.918  13.742
66950W        W39276  43.943  25.062  14.830
66951W        W39277  18.576  17.462  11.230
66952W        W39278  21.506  43.354  13.101
66953W        W39279   7.520  17.758  12.078
66954W        W39280  28.911  19.005  12.092
66955W        W39281  11.614  14.632  14.914
66956W        W39282  13.697  36.115  10.469
66957W        W39283   7.670  38.903  11.135
66958W        W39284   1.013  18.139  11.113
66959W        W39285  18.134  22.984  14.934
66960W        W39286   7.813   1.984   0.283
66961W        W39287  16.318  11.347   0.951
66962W        W39288   8.865  21.556  14.849
66963W        W39289  15.620  41.846   1.752
66964W        W39290  16.587  16.827   0.664
66965W        W39291   4.819  36.808  12.884
66966W        W39292  34.076  10.092   2.840
66967W        W39293  32.483  32.740   0.879
66968W        W39294  34.595  33.729   4.951
66969W        W39295  18.754  43.890   2.384
66970W        W39296   8.464  42.913   0.403
66971W        W39297   0.676  22.035   2.730
66972W        W39298   3.088   1.293  14.194
66973W        W39299   9.187  22.574   4.394
66974W        W39300  18.606  30.416  14.806
66975W        W39301  17.508   7.987   0.551
66976W        W39302  34.518  16.528  12.486
66977W        W39303  34.638  28.514   4.078
66978W        W39304  31.505  21.291   3.078
66979W        W39305  18.240   2.787  14.759
66980W        W39306   1.021  27.407  13.244
66981W        W39307  31.320  14.133   4.062
66982W        W39308  28.039  39.103  13.045
66983W        W39309  38.553   7.692  12.447
66984W        W39310  16.533  36.362  10.767
66985W        W39311  20.232   5.845   4.120
66986W        W39312  26.048   8.955  11.813
66987W        W39313  21.509  41.325   0.412
66988W        W39314  32.331   8.431   2.964
66989W        W39315  26.051  43.840  12.703
66990W        W39316  10.173   9.206  11.943
66991W        W39317  22.427  30.070   1.317
66992W        W39318  42.357   2.665  11.747
66993W        W39319   5.199  28.701  13.769
66994W        W39320   0.406  21.134   3.718
66995W        W39321  30.004  14.562  14.983
66996W        W39322  42.766  30.020   0.869
66997W        W39323  27.392  25.966  12.371
66998W        W39324  38.874  43.434  14.800
66999W        W39325  13.077  12.042   0.870
67000W        W39326  39.783  22.751   0.431
67001W        W39327  16.353  30.472   0.704
67002W        W39328  28.171  38.905  13.981
67003W        W39329   6.691  10.398   3.189
67004W        W39330  19.462  13.204   3.294
67005W        W39331  32.733  19.150  12.084
67006W        W39332  36.095   8.264  13.336
67007W        W39333  10.491  25.494  14.526
67008W        W39334  39.622  13.568  12.185
67009W        W39335  19.960  44.003  11.863
67010W        W39336  33.062   1.627   5.015
67011W        W39337  25.501  35.484  11.354
67012W        W39338  28.026   3.906  11.530
67013W        W39339  29.564  29.451  12.928
67014W        W39340  35.888  18.763   2.878
67015W        W39341   4.939  34.097  12.822
67016W        W39342  13.189  33.003  14.775
67017W        W39343   7.348  32.905  12.886
67018W        W39344  18.822  35.122  11.023
67019W        W39345  30.131   9.489   2.847
67020W        W39346  32.661  34.616  14.018
67021W        W39347  27.995  20.001   4.588
67022W        W39348  14.670  33.998   4.171
67023W        W39349   2.010  18.798   2.733
67024W        W39350  18.147  23.898   0.460
67025W        W39351  23.774  13.808   2.892
67026W        W39352  22.639  32.324   9.775
67027W        W39353   7.020   3.380   1.288
67028W        W39354  19.564   1.205  14.019
67029W        W39355  39.834  20.091   3.838
67030W        W39356  36.983  17.096   0.838
67031W        W39357  11.698   9.104   4.120
67032W        W39358  32.354  29.041   4.081
67033W        W39359  21.137  17.595  11.421
67034W        W39360  41.360   6.986   4.520
67035W        W39361  36.961  37.739  13.502
67036W        W39362   8.754  10.917  12.004
67037W        W39363  33.159  31.233  11.293
67038W        W39364  10.160  10.250  12.081
67039W        W39365  32.991  31.795   2.057
67040W        W39366  15.157  16.833   4.168
67041W        W39367  37.027  24.319  11.507
67042W        W39368  14.303  20.245  14.358
67043W        W39369   7.893  21.479   3.504
67044W        W39370  11.701  38.271   0.685
67045W        W39371  44.263  37.010  12.859
67046W        W39372  38.286  30.081  11.575
67047W        W39373   9.179  13.091  11.947
67048W        W39374   9.321  32.917  10.716
67049W        W39375  30.657  19.361  12.424
67050W        W39376  24.715  21.588  13.445
67051W        W39377  16.328  36.033  13.418
67052W        W39378  30.180  36.325   2.448
67053W        W39379  18.820  15.995  14.446
67054W        W39380  27.960   6.798  13.375
67055W        W39381  12.026  15.329   3.115
67056W        W39382   6.872  34.074  14.550
67057W        W39383  38.137  10.628   4.302
67058W        W39384  17.958  42.056   4.209
67059W        W39385  20.582  30.976   2.230
67060W        W39386   3.011  41.281  11.336
67061W        W39387  42.444  44.961  13.440
67062W        W39388  33.995  29.402  10.551
67063W        W39389  26.151  31.569   4.713
67064W        W39390   1.046  40.626  13.445
67065W        W39391  20.138  42.818   4.411
67066W        W39392   5.758  30.460   4.207
67067W        W39393  22.020  30.203  14.869
67068W        W39394   6.166  17.687   2.757
67069W        W39395  15.191  42.538  10.858
67070W        W39396  37.948   9.118  10.324
67071W        W39397  35.378   8.318  12.601
67072W        W39398  10.828  43.047  14.508
67073W        W39399  43.452  11.687  11.886
67074W        W39400  14.278  42.453   1.783
67075W        W39401  14.228  36.541   0.287
67076W        W39402  32.838  13.509  11.973
67077W        W39403  31.139  17.269   3.254
67078W        W39404  26.844  42.506  14.962
67079W        W39405  23.102  27.710   0.960
67080W        W39406  11.237  17.521   3.779
67081W        W39407   6.145   9.375   0.633
67082W        W39408  11.712   7.508   0.810
67083W        W39409   8.833  17.124   4.561
67084W        W39410   9.248  17.710   0.671
67085W        W39411  10.800   0.820  11.156
67086W        W39412  16.871  29.097   4.025
67087W        W39413  37.213  40.872   2.627
67088W        W39414   6.803  10.548  11.930
67089W        W39415  33.861   5.651  12.660
67090W        W39416  37.386   2.445   2.816
67091W        W39417   0.034  14.092   0.343
67092W        W39418  25.204   7.508   9.910
67093W        W39419  30.055   7.732  11.675
67094W        W39420  24.641  23.895   1.259
67095W        W39421  12.759  36.423   0.803
67096W        W39422  13.051   3.789  12.644
67097W        W39423   5.802   4.832   1.407
67098W        W39424  40.462  26.610   3.753
67099W        W39425   2.786  19.163   1.668
67100W        W39426  19.241  39.343  14.306
67101W        W39427  26.112  44.015   0.010
67102W        W39428   6.694  15.278   4.305
67103W        W39429  29.669  37.070  12.802
67104W        W39430  19.119  18.686  14.457
67105W        W39431  23.091  23.089   4.579
67106W        W39432  29.453  42.455  10.731
67107W        W39433  19.209  28.047  11.261
67108W        W39434  22.696   3.663  10.791
67109W        W39435  41.208  25.642   2.844
67110W        W39436  35.872  32.373   1.246
67111W        W39437  19.154   1.476   4.657
67112W        W39438  20.830   8.733  12.912
67113W        W39439  13.051  42.474   1.361
67114W        W39440  23.214   9.467   1.359
67115W        W39441  35.833  15.459   0.106
67116W        W39442  12.892  38.879   0.330
67117W        W39443  42.575   5.749  12.051
67118W        W39444   3.765  39.117   0.380
67119W        W39445   8.721  24.046   3.257
67120W        W39446  16.651  10.119   3.217
67121W        W39447  26.530  28.393   5.062
67122W        W39448  38.539   7.295   4.358
67123W        W39449  28.466  44.814   2.119
67124W        W39450  36.890  18.537  10.744
67125W        W39451   7.787  20.332  14.564
67126W        W39452  28.993  23.608  12.158
67127W        W39453  26.304  44.146  11.572
67128W        W39454  39.526  15.030  12.141
67129W        W39455  36.606  36.327  14.111
67130W        W39456  18.193  15.765  14.104
67131W        W39457  30.605  38.048  12.816
67132W        W39458  23.980   0.497   0.856
67133W        W39459  28.451   5.342   1.188
67134W        W39460  32.001  33.217   1.319
67135W        W39461  11.799  40.402  11.480
67136W        W39462   4.712   3.736   4.135
67137W        W39463  18.984  44.966  14.379
67138W        W39464  19.815  17.461  11.303
67139W        W39465  24.121   6.674   4.552
67140W        W39466   0.810  19.611  12.121
67141W        W39467  27.556   3.448  12.338
67142W        W39468  15.310  43.275   0.503
67143W        W39469  14.851   7.861   4.604
67144W        W39470   9.167   8.143  14.671
67145W        W39471   8.979  37.844  12.471
67146W        W39472   7.968   8.138   1.852
67147W        W39473  31.740   7.139  11.572
67148W        W39474   5.714   5.476   2.346
67149W        W39475  31.588  21.823  11.537
67150W        W39476  18.667   8.301  10.952
67151W        W39477  41.211   6.326  10.798
67152W        W39478  35.414  21.960   1.101
67153W        W39479  20.751  41.526  13.512
67154W        W39480   5.805  42.796   3.610
67155W        W39481  21.229  26.439   2.886
67156W        W39482  43.907  15.738   1.292
67157W        W39483  41.959  15.842   1.294
67158W        W39484  39.657  13.269   0.429
67159W        W39485  28.150  27.676  10.702
67160W        W39486  20.473  36.062   1.133
67161W        W39487   7.437  38.961  13.585
67162W        W39488  29.602  39.040   3.064
67163W        W39489  36.895   3.311  13.386
67164W        W39490  21.107   8.288   2.594
67165W        W39491  35.317  25.125   1.032
67166W        W39492   2.494  29.117  11.020
67167W        W39493  33.980  24.735  10.712
67168W        W39494  26.011  22.094  13.013
67169W        W39495  16.119  22.747  11.116
67170W        W39496  14.313  31.601   2.210
67171W        W39497  12.816   9.334  14.001
67172W        W39498   6.459  35.942  14.955
67173W        W39499  37.525  15.784  10.697
67174W        W39500   5.384   8.630  10.926
67175W        W39501  43.667  14.515   2.501
67176W        W39502   9.862  23.960  10.569
67177W        W39503  18.297   2.303   4.549
67178W        W39504  21.591  42.648   1.247
67179W        W39505  44.348  23.007   3.672
67180W        W39506  22.496  36.589  13.237
67181W        W39507   2.468  17.400  13.978
67182W        W39508   7.738  17.683  13.932
67183W        W39509  22.690   3.326  13.765
67184W        W39510  12.427  24.943   2.806
67185W        W39511  24.093  34.922   2.595
67186W        W39512   2.964  23.520  12.433
67187W        W39513  13.097   4.870   4.152
67188W        W39514  36.956  21.467  10.765
67189W        W39515  21.733  41.926  14.351
67190W        W39516  11.087   6.396  12.095
67191W        W39517  33.984  18.629  11.410
67192W        W39518  23.573  36.901  12.479
67193W        W39519  41.343   8.794  13.235
67194W        W39520  29.655  27.125  11.006
67195W        W39521   5.764  36.822   4.267
67196W        W39522  10.578  11.821  11.221
67197W        W39523  12.015  19.188  12.199
67198W        W39524  30.675   5.734  11.546
67199W        W39525  25.597  11.557  14.342
67200W        W39526  42.371  37.943   2.863
67201W        W39527   1.754  19.481   1.369
67202W        W39528  18.372  41.451  13.477
67203W        W39529  36.115  22.613  13.939
67204W        W39530  20.866  23.656   1.336
67205W        W39531  22.111  12.598  13.536
67206W        W39532  36.566   4.699   3.755
67207W        W39533  39.399  33.547   3.890
67208W        W39534  26.423  38.510  11.543
67209W        W39535  35.169  15.644  12.043
67210W        W39536  20.051  41.939  13.483
67211W        W39537  33.135  37.022  12.147
67212W        W39538  24.714  38.105   3.777
67213W        W39539  24.903  42.422   0.428
67214W        W39540  14.208  15.791  13.516
67215W        W39541  23.225   3.995  13.791
67216W        W39542  19.903   2.816   2.384
67217W        W39543  40.431  13.606   0.118
67218W        W39544  14.386  40.313   3.847
67219W        W39545  18.370  15.250   2.845
67220W        W39546  21.326   0.379  14.828
67221W        W39547  39.443  36.045   1.939
67222W        W39548  35.326  12.454   9.923
67223W        W39549  30.391  10.604   0.746
67224W        W39550  40.608  39.882  14.906
67225W        W39551   4.133  32.977   1.122
67226W        W39552  29.417  25.214  10.266
67227W        W39553  33.234  24.872  12.436
67228W        W39554  22.530  35.213  14.369
67229W        W39555   0.060  37.057  11.547
67230W        W39556   8.791  22.484   2.756
67231W        W39557  42.369  14.227  14.394
67232W        W39558  22.852  16.574  13.556
67233W        W39559  31.755  13.144   5.159
67234W        W39560  13.174   0.930  14.293
67235W        W39561  15.201  13.734  14.721
67236W        W39562   0.323  35.895   1.793
67237W        W39563  22.250   5.654   2.202
67238W        W39564  39.239  40.126   4.247
67239W        W39565   8.124  41.736   1.424
67240W        W39566  39.306  36.439  13.370
67241W        W39567  28.169   6.431  11.065
67242W        W39568  38.460  40.832   4.416
67243W        W39569  29.702  31.304  11.841
67244W        W39570  43.988  23.440  11.904
67245W        W39571  30.220   3.180  14.862
67246W        W39572  25.616  37.668  13.880
67247W        W39573   6.263   5.056   5.286
67248W        W39574  15.663  32.908   1.743
67249W        W39575   4.811  15.792  11.853
67250W        W39576  11.643  39.532  14.042
67251W        W39577  44.921  38.774   0.836
67252W        W39578   2.800  11.694   1.695
67253W        W39579   7.203  23.942   2.280
67254W        W39580  36.432   1.240   0.124
67255W        W39581   1.356  14.385   3.761
67256W        W39582  32.989  18.190  14.991
67257W        W39583   2.753  25.678   2.895
67258W        W39584  19.080  27.617  13.339
67259W        W39585  35.703  28.442   5.075
67260W        W39586  13.095   2.345  11.126
67261W        W39587  30.571  40.410   2.876
67262W        W39588  31.196  17.280   0.020
67263W        W39589  25.125  10.279   1.778
67264W        W39590  25.773  21.091   2.827
67265W        W39591   2.847  29.600   4.523
67266W        W39592  26.753  39.832   0.477
67267W        W39593  44.291  16.797   4.629
67268W        W39594  41.264  30.513   2.799
67269W        W39595  34.825  30.637  12.561
67270W        W39596  35.907  16.621   1.353
67271W        W39597  25.560  13.632  14.046
67272W        W39598  38.031   0.858   0.670
67273W        W39599   0.670  32.523  13.354
67274W        W39600   8.853  41.886   5.034
67275W        W39601  33.790  26.107   4.670
67276W        W39602   7.178  20.007  12.466
67277W        W39603  29.960  26.458   1.311
67278W        W39604  24.170  35.009  13.843
67279W        W39605  31.500   9.207   3.460
67280W        W39606  29.515  13.857   1.886
67281W        W39607  36.970  35.498  12.477
67282W        W39608  44.748  17.553  13.401
67283W        W39609  17.622  26.725  12.906
67284W        W39610   2.895  26.471   3.757
67285W        W39611   6.263  20.780  11.388
67286W        W39612  19.075  39.491   3.854
67287W        W39613  16.590  24.172  12.611
67288W        W39614  32.833  37.012   1.978
67289W        W39615  14.241   0.858   0.825
67290W        W39616  38.431  37.999   1.360
67291W        W39617  19.528  11.637  13.809
67292W        W39618   1.468   6.900  11.236
67293W        W39619  24.647   5.966  11.664
67294W        W39620  42.087   3.680   0.793
67295W        W39621   2.186  15.612   3.199
67296W        W39622  37.787  40.993  13.359
67297W        W39623  28.480  16.679  14.011
67298W        W39624  40.257  10.792   3.674
67299W        W39625   4.690  15.720   4.440
67300W        W39626   2.285   6.270  10.662
67301W        W39627  19.769  12.743  11.995
67302W        W39628  35.807   4.539   3.544
67303W        W39629  10.282  25.897  12.357
67304W        W39630  24.101  44.013  14.657
67305W        W39631  41.828   3.675   2.698
67306W        W39632   5.397  29.347   0.719
67307W        W39633  27.685   9.206  11.671
67308W        W39634   6.744  34.900   0.822
67309W        W39635   1.220  15.378  12.882
67310W        W39636  44.885  15.173  11.869
67311W        W39637  27.627  24.617   4.112
67312W        W39638  10.115  21.216   3.637
67313W        W39639   3.102  31.634  10.760
67314W        W39640   8.345  31.903  11.706
67315W        W39641  22.343  44.385  14.376
67316W        W39642   2.268  43.712  11.458
67317W        W39643   3.690   6.235  10.649
67318W        W39644  37.661  25.209   2.394
67319W        W39645  13.831  39.555   2.211
67320W        W39646  35.456  41.628   0.007
67321W        W39647  13.606  25.105  12.381
67322W        W39648  19.390  39.266   0.639
67323W        W39649  44.621  23.146   1.418
67324W        W39650  23.472  37.483  11.542
67325W        W39651  30.763  41.388  14.757
67326W        W39652  19.149  38.857  14.650
67327W        W39653  42.254  11.896  14.525
67328W        W39654  43.748  36.022  11.673
67329W        W39655  14.196   1.976  14.105
67330W        W39656   4.828  31.947   1.378
67331W        W39657  15.106   2.432   0.674
67332W        W39658  14.613  13.515   1.624
67333W        W39659  20.266   3.499  13.169
67334W        W39660  40.381  15.564  11.909
67335W        W39661  23.199  32.856  14.271
67336W        W39662   5.146  18.660   2.198
67337W        W39663  13.548  13.999  14.212
67338W        W39664  23.536  17.838   2.736
67339W        W39665  11.060  11.125   2.284
67340W        W39666   1.297   4.412  11.050
67341W        W39667  31.658  35.134  10.529
67342W        W39668  10.595   3.484   4.172
67343W        W39669  22.515  39.459   9.635
67344W        W39670  19.848  38.176  12.015
67345W        W39671  12.303   7.316   4.669
67346W        W39672  20.995  14.591  11.552
67347W        W39673  20.124  41.895  12.959
67348W        W39674  21.232  44.183   1.936
67349W        W39675  33.393  19.015  12.511
67350W        W39676  33.866  36.875   1.918
67351W        W39677  10.043  34.166  12.358
67352W        W39678  13.803  10.298   2.756
67353W        W39679   8.131  13.217   0.445
67354W        W39680  14.624  17.143  13.225
67355W        W39681   5.511  15.810   2.247
67356W        W39682  24.124  16.264  12.728
67357W        W39683  15.012  30.406   2.900
67358W        W39684   7.491  19.580   4.827
67359W        W39685  24.610  32.355   1.825
67360W        W39686   6.772  16.958  12.399
67361W        W39687   8.673  11.033  13.369
67362W        W39688  37.571  11.813  10.592
67363W        W39689  19.207  19.241  11.130
67364W        W39690  29.504  26.111   0.752
67365W        W39691  29.417  23.759  11.376
67366W        W39692  44.452  23.757  11.981
67367W        W39693  17.531   8.119   1.469
67368W        W39694  43.735  20.384   3.709
67369W        W39695  35.713   1.018  10.527
67370W        W39696  13.031  33.990  13.061
67371W        W39697  16.207  26.222   0.507
67372W        W39698  42.896   4.760  11.578
67373W        W39699  36.787  33.415  14.436
67374W        W39700  31.991  23.694  13.074
67375W        W39701  31.718  42.337  12.493
67376W        W39702  29.746  21.985  14.926
67377W        W39703  27.851  25.697   4.140
67378W        W39704  44.978  32.174  12.361
67379W        W39705  15.466  18.169  12.042
67380W        W39706  28.609  26.141  11.435
67381W        W39707  24.256   9.741  10.353
67382W        W39708  43.999  17.267  13.823
67383W        W39709  13.355  19.681  13.415
67384W        W39710  37.542  35.555   1.939
67385W        W39711  37.528  13.274  12.566
67386W        W39712  17.261  31.178  12.449
67387W        W39713  23.955  21.118  14.518
67388W        W39714  19.206   4.208   0.682
67389W        W39715  11.193  35.521   5.124
67390W        W39716  40.416  25.752  14.439
67391W        W39717  29.081  25.714   9.580
67392W        W39718  34.113  24.274   4.582
67393W        W39719  33.092   2.224  12.727
67394W        W39720  12.233   8.242  12.611
67395W        W39721  22.674  19.592  10.681
67396W        W39722  18.892  24.696  13.765
67397W        W39723  33.806   9.781  12.994
67398W        W39724  34.728  26.094  11.479
67399W        W39725  27.647  33.398   1.913
67400W        W39726  32.579  43.517  12.975
67401W        W39727  30.176  35.506   4.267
67402W        W39728  13.643  16.733  10.661
67403W        W39729  14.676  19.050   0.443
67404W        W39730   7.403   7.778  13.386
67405W        W39731  21.238  15.312  12.756
67406W        W39732   9.303  16.264   4.695
67407W        W39733  40.781  13.379  11.203
67408W        W39734  21.816  12.413   4.726
67409W        W39735   9.313  19.042   1.176
67410W        W39736  13.209  33.329  14.364
67411W        W39737  23.188  31.202  13.297
67412W        W39738  24.167  28.116   3.581
67413W        W39739  18.137   3.841   1.369
67414W        W39740  40.916  14.878  11.177
67415W        W39741  30.678  42.118   1.240
67416W        W39742  17.788  26.048   2.956
67417W        W39743  39.515   1.662   2.345
67418W        W39744  14.259   0.531   3.691
67419W        W39745  15.905  42.870   0.980
67420W        W39746  33.743  29.660  12.413
67421W        W39747   1.471  27.088   4.387
67422W        W39748  20.192  20.424   4.158
67423W        W39749  35.963  34.020  12.745
67424W        W39750   1.010  36.864   3.734
67425W        W39751   8.106  14.302  11.475
67426W        W39752  42.054  41.813  12.177
67427W        W39753  14.102  15.426  14.513
67428W        W39754  26.553   6.356   0.930
67429W        W39755  21.792  35.245   3.895
67430W        W39756  35.366  36.470  14.867
67431W        W39757   7.028   8.283  11.149
67432W        W39758  13.742  17.218  12.381
67433W        W39759  26.725  26.072   1.009
67434W        W39760  30.939  15.299   4.220
67435W        W39761   4.520  20.476  11.199
67436W        W39762   0.991   5.106   2.356
67437W        W39763  27.669  28.181  11.136
67438W        W39764  10.656  35.507   2.822
67439W        W39765  41.906  32.143   0.587
67440W        W39766  26.596  42.387  12.081
67441W        W39767  13.840  35.192  14.021
67442W        W39768  35.983   1.780  11.732
67443W        W39769  33.578   0.974   4.504
67444W        W39770   1.884   6.403   4.049
67445W        W39771   9.592  13.767   2.305
67446W        W39772  32.808  18.756   2.688
67447W        W39773  34.750  30.684   1.236
67448W        W39774  43.260  18.792   4.750
67449W        W39775   7.923   7.362   2.728
67450W        W39776   8.462  36.013  11.913
67451W        W39777  22.725   8.789  11.053
67452W        W39778   5.244  40.496   3.855
67453W        W39779   5.850  25.130  13.473
67454W        W39780   8.839   9.100   0.134
67455W        W39781  21.860   9.786   1.251
67456W        W39782  11.209  29.935  14.401
67457W        W39783   3.988  21.595  10.328
67458W        W39784  14.127  27.706   3.179
67459W        W39785  44.904  17.179   0.649
67460W        W39786  23.062  10.375   1.483
67461W        W39787  19.455  19.634  11.512
67462W        W39788  44.352  26.056   0.744
67463W        W39789  41.887  44.817   0.342
67464W        W39790  43.449   9.889  11.954
67465W        W39791  35.106   4.484  12.034
67466W        W39792   6.770   3.895   1.278
67467W        W39793  31.151   1.467  11.971
67468W        W39794  35.683  13.601  11.725
67469W        W39795   3.745  11.725   5.060
67470W        W39796  21.049  17.654   0.684
67471W        W39797  40.412  39.325  12.577
67472W        W39798  41.790   9.627   3.747
67473W        W39799  25.910  15.005  14.363
67474W        W39800  10.405  15.417   2.649
67475W        W39801  41.911  25.926  12.467
67476W        W39802  33.105   8.353   4.664
67477W        W39803  10.721   6.874  13.555
67478W        W39804  33.932   6.808   4.902
67479W        W39805  10.434  10.862  13.563
67480W        W39806  41.338  37.864  12.582
67481W        W39807  31.046  21.659   0.455
67482W        W39808   2.953  18.661   2.799
67483W        W39809  11.635  23.059   4.422
67484W        W39810  12.178  27.538   0.879
67485W        W39811  32.075  38.039   1.183
67486W        W39812  15.777  23.008  10.632
67487W        W39813  11.031  14.847  12.471
67488W        W39814  16.615  39.446  12.923
67489W        W39815  34.340   3.385   2.314
67490W        W39816  10.891  23.018  12.884
67491W        W39817  10.775  21.168   2.696
67492W        W39818   6.481  28.447  11.981
67493W        W39819  37.670  12.242   3.279
67494W        W39820  19.094   7.890   3.239
67495W        W39821  31.577  32.702  12.561
67496W        W39822   9.097  35.122   1.834
67497W        W39823  27.409  17.140  11.804
67498W        W39824  37.595  18.166  11.090
67499W        W39825   4.855  25.418  14.845
67500W        W39826  42.526  11.741  11.136
67501W        W39827  39.667   3.622  10.708
67502W        W39828  13.259   0.702  13.477
67503W        W39829   2.478  22.758  14.456
67504W        W39830  30.386   5.480   1.245
67505W        W39831  18.344  33.083   0.230
67506W        W39832  28.957   0.753   2.161
67507W        W39833  25.004   1.504   3.727
67508W        W39834   2.752   3.825   4.122
67509W        W39835   4.246  12.580  11.689
67510W        W39836  28.221  42.022   3.653
67511W        W39837  15.984  39.396   3.168
67512W        W39838  44.256  24.047   0.245
67513W        W39839  19.767  43.962  14.837
67514W        W39840  41.399  31.121   2.252
67515W        W39841  32.386  11.439   0.901
67516W        W39842   0.903  25.664  10.667
67517W        W39843  31.377  31.096  13.434
67518W        W39844   1.289  32.247  10.556
67519W        W39845   8.629  21.253  11.489
67520W        W39846  24.274  11.720   0.108
67521W        W39847  41.916   6.613   1.371
67522W        W39848   1.190  12.671  11.001
67523W        W39849  28.672  35.090  11.984
67524W        W39850   3.672   7.875  11.152
67525W        W39851  19.443  31.039   1.878
67526W        W39852  42.416   7.263   4.121
67527W        W39853  37.422   5.992  11.446
67528W        W39854  39.789  11.581   0.483
67529W        W39855   9.552  20.125   0.066
67530W        W39856  10.235  31.209   1.881
67531W        W39857  44.133  27.489   1.078
67532W        W39858  28.225  29.499  11.012
67533W        W39859  24.146  15.537   4.232
67534W        W39860  30.973  16.823  14.877
67535W        W39861  33.794  12.219  14.881
67536W        W39862  13.287   0.125   0.410
67537W        W39863  44.143  16.194   1.970
67538W        W39864  28.034  16.147  12.550
67539W        W39865  30.683  28.939  12.421
67540W        W39866  11.161  39.357   4.153
67541W        W39867  15.404   7.695   1.216
67542W        W39868  39.967   5.954   3.675
67543W        W39869   5.755  10.288  13.762
67544W        W39870  22.206  15.856  11.146
67545W        W39871  32.484  33.105  13.769
67546W        W39872  27.908  34.692   0.437
67547W        W39873  39.658   9.724   1.830
67548W        W39874  12.130  44.277  13.975
67549W        W39875   5.962  42.666  13.443
67550W        W39876  42.911   5.298  13.359
67551W        W39877   3.047  42.206  11.167
67552W        W39878  41.087  23.528  11.423
67553W        W39879   7.754  24.234  11.537
67554W        W39880   3.330  13.215  13.982
67555W        W39881  40.772   7.058  12.419
67556W        W39882   2.666  28.376  14.363
67557W        W39883  12.585  41.582   4.180
67558W        W39884  33.888   5.458   4.361
67559W        W39885  23.751   0.225  13.986
67560W        W39886   2.434  14.865  11.911
67561W        W39887  38.593  31.648  14.331
67562W        W39888  23.073  32.977   0.191
67563W        W39889  22.229  11.716   4.131
67564W        W39890  16.200  29.655   4.854
67565W        W39891   6.835  18.687   2.189
67566W        W39892   0.200   3.445   2.036
67567W        W39893  11.158   3.384   1.027
67568W        W39894   8.732  43.140   1.740
67569W        W39895  27.197  22.489  14.013
67570W        W39896  36.730  24.549   4.674
67571W        W39897   1.118   1.908  12.737
67572W        W39898  31.539  35.957  13.349
67573W        W39899   5.477  14.153  12.852
67574W        W39900  31.793  32.117  10.175
67575W        W39901  12.245  34.299  10.556
67576W        W39902  17.427  20.196   1.755
67577W        W39903  13.573  43.290   0.660
67578W        W39904   5.371  38.413   2.715
67579W        W39905  32.645  37.538   1.765
67580W        W39906  32.017  11.151   0.706
67581W        W39907  20.326  24.304   3.291
67582W        W39908  25.405  36.827   4.155
67583W        W39909  34.596  23.668  13.484
67584W        W39910   4.549  25.306   0.281
67585W        W39911  28.478  31.236   3.292
67586W        W39912  28.257  42.998  10.518
67587W        W39913   0.519   6.773   2.634
67588W        W39914   9.171   5.991   1.399
67589W        W39915  39.955   6.945  10.464
67590W        W39916  32.603  12.581  12.043
67591W        W39917   8.055  34.402   2.350
67592W        W39918  15.638   0.389  13.763
67593W        W39919  32.174  26.515  12.879
67594W        W39920  19.618  10.418  10.757
67595W        W39921  23.239   5.263   2.774
67596W        W39922  41.521  15.296  10.455
67597W        W39923  36.949  37.806   1.261
67598W        W39924   3.879   3.926  10.255
67599W        W39925  15.966  26.944  12.427
67600W        W39926  41.198  10.622  14.512
67601W        W39927  16.584  10.846  13.953
67602W        W39928  36.329  36.341   2.723
67603W        W39929  19.763  19.706  10.666
67604W        W39930  32.396  32.988   3.908
67605W        W39931  39.880  34.064  11.106
67606W        W39932  21.311  21.714  13.435
67607W        W39933  28.954  15.587  13.440
67608W        W39934   6.739  19.283  12.351
67609W        W39935  34.006  33.799   4.192
67610W        W39936  29.053   8.956   2.708
67611W        W39937   2.707   2.792   3.752
67612W        W39938  11.683  22.012  11.593
67613W        W39939   1.760   3.394   1.207
67614W        W39940  21.186  11.269  12.339
67615W        W39941  21.730  39.457   4.632
67616W        W39942   8.208  20.520  14.796
67617W        W39943  24.642  11.698   3.123
67618W        W39944  29.101  40.642  12.918
67619W        W39945  21.197  19.172   0.230
67620W        W39946  24.584  42.680   2.025
67621W        W39947   3.431   0.566  13.363
67622W        W39948  10.858  33.457  11.539
67623W        W39949  24.196  18.636   1.314
67624W        W39950  41.701  11.972  14.419
67625W        W39951  28.124   0.499   0.342
67626W        W39952  27.671  30.479  12.816
67627W        W39953  42.872   8.844  14.433
67628W        W39954   6.946  28.615  12.127
67629W        W39955   2.687   4.413   0.301
67630W        W39956  35.858   8.612  12.656
67631W        W39957   1.825  40.582   3.655
67632W        W39958  36.494  43.014  11.492
67633W        W39959  34.324  12.237  14.803
67634W        W39960  29.654  43.756   4.772
67635W        W39961  37.615  20.541   3.133
67636W        W39962  34.357  21.013   0.804
67637W        W39963  29.392  26.233   4.182
67638W        W39964  35.375  20.667   1.323
67639W        W39965  44.078  10.699   3.272
67640W        W39966   4.089   2.426  14.864
67641W        W39967  15.851  41.312  13.643
67642W        W39968   9.638  18.663   4.589
67643W        W39969   5.012  17.180   3.767
67644W        W39970  10.294  36.537  13.054
67645W        W39971  14.869  32.323   3.334
67646W        W39972  30.832  44.471   0.031
67647W        W39973   9.094  24.646  11.840
67648W        W39974  27.494  14.494  11.141
67649W        W39975  24.702  13.156  13.179
67650W        W39976  19.970  30.438   3.315
67651W        W39977  19.829  10.283   1.737
67652W        W39978  43.088  16.373  13.511
67653W        W39979  14.207  21.711  14.191
67654W        W39980  27.440  43.504   4.620
67655W        W39981  29.579  28.942  14.720
67656W        W39982   6.928  10.307   1.743
67657W        W39983   4.462   2.049  14.857
67658W        W39984  12.836  41.897   1.689
67659W        W39985  16.368   4.555   3.059
67660W        W39986  29.232  11.782  10.690
67661W        W39987  14.763   0.553  10.635
67662W        W39988  41.524   2.437  13.008
67663W        W39989  19.275   7.876   4.120
67664W        W39990  16.067  32.457  11.053
67665W        W39991  35.898   2.357   1.537
67666W        W39992  19.210  19.356   0.838
67667W        W39993  41.041  35.767  12.580
67668W        W39994  16.669  38.067   4.162
67669W        W39995  36.663  18.587   2.580
67670W        W39996  39.448  26.043  13.994
67671W        W39997   3.455  29.168   1.397
67672W        W39998  38.331  44.003  14.027
67673W        W39999   5.978  39.956   1.730
67674W        W40000  10.349  29.602  11.604
67675W        W40001   5.816  19.540  14.367
67676W        W40002  43.917  33.425   4.667
67677W        W40003  27.485  44.477   2.216
67678W        W40004   3.812  16.956  12.869
67679W        W40005   7.284  29.792  13.981
67680W        W40006   8.258   3.438  10.916
67681W        W40007   7.815  28.391   2.905
67682W        W40008  34.582  38.449  11.474
67683W        W40009  36.358  10.700   5.535
67684W        W40010  11.448  20.692  13.529
67685W        W40011  33.124  23.075   3.624
67686W        W40012   8.502  26.566   4.280
67687W        W40013  21.982  14.230  11.160
67688W        W40014  10.112  34.488   2.295
67689W        W40015  39.024  39.023   3.105
67690W        W40016  24.784  33.063  12.513
67691W        W40017  33.343  19.037  13.472
67692W        W40018  31.068  16.667   4.476
67693W        W40019  38.051  42.572   2.971
67694W        W40020   8.161  39.331   0.190
67695W        W40021  35.108  15.735  13.283
67696W        W40022  21.799  38.490  12.056
67697W        W40023  44.818  11.196   3.770
67698W        W40024  21.294  12.511   0.020
67699W        W40025  17.727  11.510   3.704
67700W        W40026  24.467   9.909   1.045
67701W        W40027  17.730  18.158   4.347
67702W        W40028  30.646  23.075  12.501
67703W        W40029  29.970  36.875   4.260
67704W        W40030  17.225  19.086  10.699
67705W        W40031  16.212  44.862   0.877
67706W        W40032  24.023  40.282  12.864
67707W        W40033  19.552  39.770   0.520
67708W        W40034  18.056   5.298  12.385
67709W        W40035  39.790   0.689   2.241
67710W        W40036  21.038   3.032  13.873
67711W        W40037   7.630  27.081  10.322
67712W        W40038  21.986  19.002   4.022
67713W        W40039  27.367   6.588   4.257
67714W        W40040  38.416  43.938  12.693
67715W        W40041   6.015  15.903   2.357
67716W        W40042  28.927  36.519   1.843
67717W        W40043  28.949  18.222  12.338
67718W        W40044  17.618  33.442   2.574
67719W        W40045  28.707  27.600  12.848
67720W        W40046  25.245  10.438  10.609
67721W        W40047  31.805   1.657  10.149
67722W        W40048  44.920  18.073   3.621
67723W        W40049  27.093  27.581   4.951
67724W        W40050   0.345   3.184  14.262
67725W        W40051  18.541   9.489  12.981
67726W        W40052   3.787  31.974   1.191
67727W        W40053   1.858  18.595   2.289
67728W        W40054  37.459  24.954   4.453
67729W        W40055   3.052  20.029  12.173
67730W        W40056   1.012  15.987   4.540
67731W        W40057  35.889  14.193   2.203
67732W        W40058  25.215   7.178  11.218
67733W        W40059  43.985   9.273  14.892
67734W        W40060   4.381  30.944   1.215
67735W        W40061  43.277  39.979  12.298
67736W        W40062  40.767  29.983   1.780
67737W        W40063  26.831  23.781  11.549
67738W        W40064  19.690   9.827   1.984
67739W        W40065  22.293  18.101   3.995
67740W        W40066   8.070  15.805  13.063
67741W        W40067  24.790  14.690   1.882
67742W        W40068   0.020   7.885  14.509
67743W        W40069  13.301  32.005   1.844
67744W        W40070  27.352  17.611   0.654
67745W        W40071  29.648  43.422  12.100
67746W        W40072   5.795  23.976  14.971
67747W        W40073  12.834  37.884   4.276
67748W        W40074  11.253  17.991  14.875
67749W        W40075  26.224  23.996  13.007
67750W        W40076  18.287  18.319  11.963
67751W        W40077  36.441  42.843  14.924
67752W        W40078  24.117  43.964   4.055
67753W        W40079  33.028   8.237  13.211
67754W        W40080  29.527  35.381  14.294
67755W        W40081   5.238   2.924   3.434
67756W        W40082  30.995  18.380   3.215
67757W        W40083   3.327  34.481   2.587
67758W        W40084   5.297  28.965  14.224
67759W        W40085  27.422  19.745   1.817
67760W        W40086  18.295  22.906  13.045
67761W        W40087  27.009  39.583  13.687
67762W        W40088  39.411  43.324   3.680
67763W        W40089  28.781  34.662  14.935
67764W        W40090  21.739  13.630   0.339
67765W        W40091  32.458  38.055  10.388
67766W        W40092  20.703  25.023  12.033
67767W        W40093   8.828  30.989  13.818
67768W        W40094  12.426   4.878   3.703
67769W        W40095  41.847   6.931   1.796
67770W        W40096  21.101  17.164  12.113
67771W        W40097  24.553  42.789  11.059
67772W        W40098  19.751  30.082   3.625
67773W        W40099  41.921  44.290  11.414
67774W        W40100   2.675   7.160   2.839
67775W        W40101  44.530  15.294   2.397
67776W        W40102  10.766  44.730   2.386
67777W        W40103  25.113   2.775   4.293
67778W        W40104   6.373  20.019   1.697
67779W        W40105   6.240  32.738   2.420
67780W        W40106  33.304   6.740  11.019
67781W        W40107  28.981  41.526   1.971
67782W        W40108  30.541  40.503  13.481
67783W        W40109  36.114  35.882   3.712
67784W        W40110  33.340  18.208  12.192
67785W        W40111  34.962  25.780  11.149
67786W        W40112   6.407  37.384  10.428
67787W        W40113  40.933   7.377  10.689
67788W        W40114  41.394  12.196   2.718
67789W        W40115  32.515  43.093  13.912
67790W        W40116  24.821  12.816   0.097
67791W        W40117  19.277  38.447  11.327
67792W        W40118   2.463  43.558   3.204
67793W        W40119  35.177  34.787  12.381
67794W        W40120  35.546  24.504  12.359
67795W        W40121  13.343  32.176   0.408
67796W        W40122  43.863  24.022   0.941
67797W        W40123  12.361  19.097   2.890
67798W        W40124  32.988  38.378  12.074
67799W        W40125  31.968   0.889   4.632
67800W        W40126  17.719  12.170   2.952
67801W        W40127   3.908   3.325   3.893
67802W        W40128  36.084   5.663   3.611
67803W        W40129  43.367  18.997  12.479
67804W        W40130  38.297  27.833   1.400
67805W        W40131  26.187  11.731  11.113
67806W        W40132  26.421  16.661  13.857
67807W        W40133  29.452  35.571   4.591
67808W        W40134   6.199  22.674  12.560
67809W        W40135  44.553  38.988   3.702
67810W        W40136  28.892  33.620   4.847
67811W        W40137  11.901   7.750   2.438
67812W        W40138  17.008   9.423  14.530
67813W        W40139   6.162  40.851  14.852
67814W        W40140  39.829  13.720  12.825
67815W        W40141  20.191  43.412  12.832
67816W        W40142  21.542   6.181   2.707
67817W        W40143  17.228  23.595  13.331
67818W        W40144  19.077  38.549  13.721
67819W        W40145  42.354   5.622   0.888
67820W        W40146  37.441  27.054  10.685
67821W        W40147  17.586  23.505  12.207
67822W        W40148  23.164   8.344  10.822
67823W        W40149  41.389   2.710  13.496
67824W        W40150  26.623   2.738  12.154
67825W        W40151   4.023  12.707   1.662
67826W        W40152  25.084  14.650   0.902
67827W        W40153  42.837  26.750   0.493
67828W        W40154   6.398  27.591   1.292
67829W        W40155  42.208   7.452   1.228
67830W        W40156  36.099  43.634   0.802
67831W        W40157  43.350   6.142   2.700
67832W        W40158   5.850   5.249  12.762
67833W        W40159  34.832  37.427  11.989
67834W        W40160   2.303  44.325   3.783
67835W        W40161  26.230  12.125  11.444
67836W        W40162   5.941  40.285   2.790
67837W        W40163  15.707  13.024   4.619
67838W        W40164  26.699  44.418   0.795
67839W        W40165  42.109  44.909   2.115
67840W        W40166  35.375  21.540  14.518
67841W        W40167  22.137  19.046   4.510
67842W        W40168  41.026  14.702   4.787
67843W        W40169  11.171  30.380  11.083
67844W        W40170  40.030  35.577   2.447
67845W        W40171  18.821  23.181   2.287
67846W        W40172   0.362  23.424  13.824
67847W        W40173  22.728  23.464  12.449
67848W        W40174  38.031   9.357   4.538
67849W        W40175  39.875  23.143  12.390
67850W        W40176  15.630  23.800  13.718
67851W        W40177  33.437  22.725  11.239
67852W        W40178  25.625  40.372  10.620
67853W        W40179  22.124   4.477  13.433
67854W        W40180  44.359   0.700   2.810
67855W        W40181  15.160  26.000   4.268
67856W        W40182  39.428  35.870   3.914
67857W        W40183  33.083  28.700  11.943
67858W        W40184  39.909   7.341  12.500
67859W        W40185  36.988  22.173   4.075
67860W        W40186  26.947  43.056   1.506
67861W        W40187  31.486   2.003  14.466
67862W        W40188  42.055  19.564  10.625
67863W        W40189  38.559   2.665   1.386
67864W        W40190  34.987  26.707   0.729
67865W        W40191  43.229  22.240   4.186
67866W        W40192  15.227  10.837   2.441
67867W        W40193  34.547   1.265  12.682
67868W        W40194   4.217   6.907   2.296
67869W        W40195  10.733  30.603   4.082
67870W        W40196  22.143  18.439   4.365
67871W        W40197  16.025  25.958   3.932
67872W        W40198  17.055   9.130   4.678
67873W        W40199  33.765  27.406   3.603
67874W        W40200   5.073   0.497   4.501
67875W        W40201  27.506  22.073  13.604
67876W        W40202   2.205  40.029   1.743
67877W        W40203  29.345   6.175  14.907
67878W        W40204   2.795  22.662   9.974
67879W        W40205  16.784  21.138   2.763
67880W        W40206  38.288  32.082   3.637
67881W        W40207   6.906  20.305  12.148
67882W        W40208  18.203  19.640   2.213
67883W        W40209  37.067  26.774   4.241
67884W        W40210  12.902  13.246  13.555
67885W        W40211  32.069  12.779   3.983
67886W        W40212  24.703  39.606  14.696
67887W        W40213   5.115  30.268  13.763
67888W        W40214  32.566  20.042   2.312
67889W        W40215  37.293  19.611  12.480
67890W        W40216  33.433  34.188  10.164
67891W        W40217   4.771  39.069   5.032
67892W        W40218  38.054  32.005   4.851
67893W        W40219  15.284  14.267   2.346
67894W        W40220  33.185  28.933   0.263
67895W        W40221  25.113  11.753   3.658
67896W        W40222  37.545  25.764  11.517
67897W        W40223   1.381  36.464   2.370
67898W        W40224   3.733  22.954   4.075
67899W        W40225  34.591   4.914   0.441
67900W        W40226  43.511  33.451  11.577
67901W        W40227  34.092   4.736   0.262
67902W        W40228  37.250   6.327   2.516
67903W        W40229  33.248   8.309   2.674
67904W        W40230   1.777  22.729   2.817
67905W        W40231  26.061  10.889  14.854
67906W        W40232  20.558  34.057   4.495
67907W        W40233  26.880  44.449  12.951
67908W        W40234  26.930  38.897  11.190
67909W        W40235  28.156  24.149  12.667
67910W        W40236  28.705  40.422   0.499
67911W        W40237  14.001  30.363   4.180
67912W        W40238   7.142   7.883   0.457
67913W        W40239  25.893  15.059   4.197
67914W        W40240  29.933  23.557  12.598
67915W        W40241  11.255   2.485  10.634
67916W        W40242  40.815   1.866   3.082
67917W        W40243  15.678  28.928   4.192
67918W        W40244  31.779   5.666  12.468
67919W        W40245  25.551  24.014   2.826
67920W        W40246   8.375  12.204   0.438
67921W        W40247   1.070  29.689  13.376
67922W        W40248   7.882  29.127  10.183
67923W        W40249  21.984   8.154   2.453
67924W        W40250  16.114  37.828   1.474
67925W        W40251  17.750  24.352  12.376
67926W        W40252  39.477  14.815  12.655
67927W        W40253  44.325  10.730   2.731
67928W        W40254  37.012   4.855   2.797
67929W        W40255  32.905  19.778   0.252
67930W        W40256  39.749  28.995   4.126
67931W        W40257  21.182  41.369  11.431
67932W        W40258  18.044  23.504   0.786
67933W        W40259   6.246  29.610  12.529
67934W        W40260   1.924  36.384  11.658
67935W        W40261  21.819  29.975  12.422
67936W        W40262  27.284   2.032  14.844
67937W        W40263  37.371  37.387  13.057
67938W        W40264  43.199   1.750  12.533
67939W        W40265  20.800  13.683   0.206
67940W        W40266  13.575  18.343   4.975
67941W        W40267   4.532  38.857  14.258
67942W        W40268  36.936  43.867  11.428
67943W        W40269  41.934  28.892   0.300
67944W        W40270  33.710   0.369   2.911
67945W        W40271  22.696  28.064   3.654
67946W        W40272  33.505   0.740   3.649
67947W        W40273  34.956  36.096  12.855
67948W        W40274  18.010  43.852  11.797
67949W        W40275  25.301  22.680  13.887
67950W        W40276   1.179   6.792  12.044
67951W        W40277  11.912  43.834  10.948
67952W        W40278  17.512   8.786   0.194
67953W        W40279  40.383  37.264  14.951
67954W        W40280  29.436   7.683   1.465
67955W        W40281   3.010  40.263  10.714
67956W        W40282  43.006  39.433  12.479
67957W        W40283  10.316  40.954  12.106
67958W        W40284  27.411  41.995  11.962
67959W        W40285  23.291  15.117  10.628
67960W        W40286  42.783  27.060  13.603
67961W        W40287  30.217  37.683   0.685
67962W        W40288  39.104  28.086   3.709
67963W        W40289  24.001   4.880  14.856
67964W        W40290  29.131   1.192  13.505
67965W        W40291  28.110  15.731   0.177
67966W        W40292   0.029  20.723   0.380
67967W        W40293   4.434  42.397   3.333
67968W        W40294  41.424  35.692   2.826
67969W        W40295  24.043  16.379   2.572
67970W        W40296  36.937  25.998   4.873
67971W        W40297  24.878   3.726   4.929
67972W        W40298  27.233  16.838   2.711
67973W        W40299   9.746  35.494   0.287
67974W        W40300  21.113  41.317  14.376
67975W        W40301  12.148   3.781   3.696
67976W        W40302  36.554  38.380   0.856
67977W        W40303   2.380   5.021  10.177
67978W        W40304   5.841  39.283  14.053
67979W        W40305   0.871  12.872  13.355
67980W        W40306  23.793  29.039   4.465
67981W        W40307  41.087  23.530   3.370
67982W        W40308   8.884  32.038  12.953
67983W        W40309  13.278  10.224  12.890
67984W        W40310   9.020  28.188   3.203
67985W        W40311  43.629  27.851  14.865
67986W        W40312   8.410  23.697  14.268
67987W        W40313  16.585   8.901   0.703
67988W        W40314   3.443  15.613  14.536
67989W        W40315   0.379  44.734  11.003
67990W        W40316  18.826   6.684  10.806
67991W        W40317  15.255  15.265   1.200
67992W        W40318  19.627  29.729   4.898
67993W        W40319  12.163  25.712  11.062
67994W        W40320  23.588  26.481  11.579
67995W        W40321  29.443   4.901  14.354
67996W        W40322  35.556   7.736   3.554
67997W        W40323  22.562  38.004   4.517
67998W        W40324  41.529  32.395   0.039
67999W        W40325  35.946   4.367  14.349
68000W        W40326  10.715  24.748  12.575
68001W        W40327  33.003   1.758   4.520
68002W        W40328  38.870   8.214   0.864
68003W        W40329  24.054  42.391   1.463
68004W        W40330  18.043  20.678  13.632
68005W        W40331  20.010  39.200  12.097
68006W        W40332   2.305  32.866  13.835
68007W        W40333  23.674  40.482  14.288
68008W        W40334  16.506  19.054  11.536
68009W        W40335  44.245  39.888   0.123
68010W        W40336  31.114  40.540   4.061
68011W        W40337  16.373   1.701  11.106
68012W        W40338  12.021   8.880   0.841
68013W        W40339   7.788  12.415   4.727
68014W        W40340   7.019  27.426   3.843
68015W        W40341  37.061  21.969  10.780
68016W        W40342  18.731  12.310   0.441
68017W        W40343  37.036  25.601   4.586
68018W        W40344  34.097  16.701   2.714
68019W        W40345  23.849   9.932  10.654
68020W        W40346  27.454   7.334  11.593
68021W        W40347  37.466  17.160   2.600
68022W        W40348  11.946  26.117   3.283
68023W        W40349  26.334  15.036   0.864
68024W        W40350  21.005  22.459  12.584
68025W        W40351  11.735  39.328   0.854
68026W        W40352  36.735  23.654   1.243
68027W        W40353  11.853   5.022   1.300
68028W        W40354  13.374  33.524  10.623
68029W        W40355   6.748   8.703  11.083
68030W        W40356  10.327   9.311  12.804
68031W        W40357   0.249  19.218   3.675
68032W        W40358   1.002  30.322   2.577
68033W        W40359   4.131   7.714   3.911
68034W        W40360  44.340   9.131  10.691
68035W        W40361   6.297  39.073   0.346
68036W        W40362  26.004   4.863  10.750
68037W        W40363  37.568  37.084  13.460
68038W        W40364   1.427   7.421   0.974
68039W        W40365  31.305  42.683  11.933
68040W        W40366  19.388  16.108  12.124
68041W        W40367   6.961  21.605  12.043
68042W        W40368  20.257  10.202  11.144
68043W        W40369  42.012   0.037   4.672
68044W        W40370   3.144   2.883  13.824
68045W        W40371  19.166  14.750   0.443
68046W        W40372  13.104  40.455   5.095
68047W        W40373  30.464   7.788  14.619
68048W        W40374  19.280  38.095  12.063
68049W        W40375  18.578  38.209   0.218
68050W        W40376   4.637  34.648   0.246
68051W        W40377  44.510  32.094   3.846
68052W        W40378  10.750  33.824   1.176
68053W        W40379  42.993   0.690  13.922
68054W        W40380  32.979  43.896   3.102
68055W        W40381  38.540   7.752   4.631
68056W        W40382  40.529  10.345   3.596
68057W        W40383  24.387   6.609  12.298
68058W        W40384  11.298  27.865   5.007
68059W        W40385  33.840  34.938   2.813
68060W        W40386  17.721  23.635  13.131
68061W        W40387  23.020  35.853   1.614
68062W        W40388   8.188  33.394  12.630
68063W        W40389  37.182  24.997   1.346
68064W        W40390   8.189   4.644   0.893
68065W        W40391   0.396  28.624   0.925
68066W        W40392  13.208   9.327   2.097
68067W        W40393  30.817  31.936  13.378
68068W        W40394   8.693   4.949   2.753
68069W        W40395  15.751   2.989   0.986
68070W        W40396   3.194  27.932   4.345
68071W        W40397   2.338  26.339  13.176
68072W        W40398   0.465  37.606  10.607
68073W        W40399  34.245   2.492   3.276
68074W        W40400  28.653  23.683   0.929
68075W        W40401  44.252  35.451  12.480
68076W        W40402   2.437   3.455   3.699
68077W        W40403  12.271   4.416  14.820
68078W        W40404  35.902   6.771   2.859
68079W        W40405   9.254  28.173  10.398
68080W        W40406  19.306   8.427   0.290
68081W        W40407  33.804  23.884   0.287
68082W        W40408  36.942  39.311  10.653
68083W        W40409  33.179   7.466   4.537
68084W        W40410  36.385  44.936  12.410
68085W        W40411   0.800  11.171   4.724
68086W        W40412  19.776  21.798  13.330
68087W        W40413  29.960   9.622   0.382
68088W        W40414  20.551   5.646  13.442
68089W        W40415  17.668  25.654   2.627
68090W        W40416  41.273  12.862  11.619
68091W        W40417  25.153  13.045  11.523
68092W        W40418   5.205  25.955  11.778
68093W        W40419  40.325  20.114   3.745
68094W        W40420   8.873  27.200  12.483
68095W        W40421  35.664   6.285  13.337
68096W        W40422   6.204   3.032   2.628
68097W        W40423  27.416  32.843  12.268
68098W        W40424  10.660  18.032  12.045
68099W        W40425  11.822   9.390   0.843
68100W        W40426  24.228  10.779  12.145
68101W        W40427   5.366  33.775  11.519
68102W        W40428  16.568   0.048  14.527
68103W        W40429   9.318   9.640  11.068
68104W        W40430  30.842   9.713  13.077
68105W        W40431  18.611  39.299  12.216
68106W        W40432  21.957  14.637   3.461
68107W        W40433  22.463  15.113   3.939
68108W        W40434  24.621  31.130  10.639
68109W        W40435  27.051  19.021  14.120
68110W        W40436  41.856   5.789   0.378
68111W        W40437  42.457  14.795  14.973
68112W        W40438  21.730  34.013   3.372
68113W        W40439   7.877   2.183   2.476
68114W        W40440  17.191  32.648   2.123
68115W        W40441  36.694  28.053  11.437
68116W        W40442   0.962  34.555  13.204
68117W        W40443   8.857   7.625   0.433
68118W        W40444  22.695  14.602   2.719
68119W        W40445  10.241  14.808  10.908
68120W        W40446  21.527  17.854  13.831
68121W        W40447  10.598  23.707   1.681
68122W        W40448  27.489  21.586   4.404
68123W        W40449   0.709   3.836   2.600
68124W        W40450  11.343  15.583   4.254
68125W        W40451  13.132  32.021  14.957
68126W        W40452  23.177  38.073  14.830
68127W        W40453  37.434  12.230  14.523
68128W        W40454  20.748  38.514   5.456
68129W        W40455  27.012  13.574   4.102
68130W        W40456  39.565  34.697   2.739
68131W        W40457  19.034   5.114   1.853
68132W        W40458  31.563   8.447   1.896
68133W        W40459  33.448  44.648   4.801
68134W        W40460  36.539   7.731  10.641
68135W        W40461  38.994  34.978   0.492
68136W        W40462  20.035   8.510   0.478
68137W        W40463  24.326  30.557   1.224
68138W        W40464  44.017  18.161  14.346
68139W        W40465  35.862   2.439  13.371
68140W        W40466  16.654  43.373  14.921
68141W        W40467  17.785   5.758   0.293
68142W        W40468   6.794  30.369  13.465
68143W        W40469  20.269   5.823  12.515
68144W        W40470  23.076  26.452  11.649
68145W        W40471   6.893  32.150  12.002
68146W        W40472  26.242   8.295  13.966
68147W        W40473  24.677   0.485  14.330
68148W        W40474  19.314  44.189   4.168
68149W        W40475  25.176   4.015   3.937
68150W        W40476  29.006  36.099  12.884
68151W        W40477   7.170  40.303   1.926
68152W        W40478  41.479  44.999  11.344
68153W        W40479  20.709   3.144   1.798
68154W        W40480  20.772   4.331  14.473
68155W        W40481   9.409  36.961  14.990
68156W        W40482  23.859  37.029   9.905
68157W        W40483  10.912  22.515  13.000
68158W        W40484  15.613   8.922  12.521
68159W        W40485  34.764  32.175   4.147
68160W        W40486  21.642  25.955   2.119
68161W        W40487  29.593  25.693  13.312
68162W        W40488  12.631  25.146   4.615
68163W        W40489  19.198  34.105   3.313
68164W        W40490  33.697  28.760   0.978
68165W        W40491   5.380  39.493  10.530
68166W        W40492  28.017  27.725   0.363
68167W        W40493  27.391  42.767  11.655
68168W        W40494  39.010   4.814   3.627
68169W        W40495  23.271   0.001  13.957
68170W        W40496  35.646  13.666  14.116
68171W        W40497  30.693  26.424   0.687
68172W        W40498  37.646  37.642   4.192
68173W        W40499  23.540  23.722  14.473
68174W        W40500  19.311   4.805   4.638
68175W        W40501  25.980  21.534   3.276
68176W        W40502  14.122  41.331  13.923
68177W        W40503  26.333  17.610  14.025
68178W        W40504   6.670  12.971   0.027
68179W        W40505  32.984  28.493  11.181
68180W        W40506  27.966  17.230   2.260
68181W        W40507  26.225  32.932  13.559
68182W        W40508  25.717  15.585   9.807
68183W        W40509   9.699  10.444  11.144
68184W        W40510  20.557  17.740   4.787
68185W        W40511  44.531  41.973   1.427
68186W        W40512   8.631   3.949   4.127
68187W        W40513  20.774   0.502   0.391
68188W        W40514   1.715  22.603   2.324
68189W        W40515   5.300   1.948  11.569
68190W        W40516  34.492  11.349   3.805
68191W        W40517   8.647  23.866  13.079
68192W        W40518  24.564  36.373  12.636
68193W        W40519  37.482   9.285  12.013
68194W        W40520  21.007  18.318   0.003
68195W        W40521  16.362  25.581   1.315
68196W        W40522  30.039  36.159  12.452
68197W        W40523  44.813  25.151   3.092
68198W        W40524  38.127   1.025  14.685
68199W        W40525  27.064  22.948  13.810
68200W        W40526   8.841  36.818  14.819
68201W        W40527  18.307  23.516  12.431
68202W        W40528  13.343  31.669   2.272
68203W        W40529  28.698  26.271  10.074
68204W        W40530  26.502  31.783  10.281
68205W        W40531  24.632  15.671  13.342
68206W        W40532  30.452  31.052   3.677
68207W        W40533   1.788  35.906  12.597
68208W        W40534  40.533  22.303   4.220
68209W        W40535  14.406   2.388  10.682
68210W        W40536  32.445   5.286  11.652
68211W        W40537  28.716   8.140  11.701
68212W        W40538  25.122  11.391  14.218
68213W        W40539   0.398  15.682  10.988
68214W        W40540  41.865  24.546   3.921
68215W        W40541  23.001  37.421   3.310
68216W        W40542  38.200   3.484   1.389
68217W        W40543  22.457   5.788   4.562
68218W        W40544   5.091  28.952   0.525
68219W        W40545  22.089   5.117  12.488
68220W        W40546  11.080  30.140  14.862
68221W        W40547  20.944  28.099   3.085
68222W        W40548  19.497  35.509   4.221
68223W        W40549  15.198  26.489   4.437
68224W        W40550  39.870  34.952  13.907
68225W        W40551  41.542  15.219  12.560
68226W        W40552   2.053  43.511  11.007
68227W        W40553  33.956  43.761   0.431
68228W        W40554   4.477   5.706   3.171
68229W        W40555  34.183  27.361   4.234
68230W        W40556  32.925  27.476  14.535
68231W        W40557  20.753  31.434   3.058
68232W        W40558  27.458  18.672   2.978
68233W        W40559   9.251   4.434   4.786
68234W        W40560  27.106  30.103   4.264
68235W        W40561  34.797  33.354   0.488
68236W        W40562  30.420  25.536   4.634
68237W        W40563  10.218   1.066   4.760
68238W        W40564  41.675  13.725  13.857
68239W        W40565  32.308  27.372   4.585
68240W        W40566  19.181   3.313   2.724
68241W        W40567  35.954  18.759   0.301
68242W        W40568  36.973  43.432  14.800
68243W        W40569   4.835  40.594   1.776
68244W        W40570  35.402  22.657  12.695
68245W        W40571  10.594  23.131  14.914
68246W        W40572  19.862  24.149   3.651
68247W        W40573   1.980  10.554   0.001
68248W        W40574  26.325  38.004  11.637
68249W        W40575  38.863  25.755  14.811
68250W        W40576  33.706  26.928  11.665
68251W        W40577   2.077  18.680   1.470
68252W        W40578  25.698  27.887   2.712
68253W        W40579   6.422  24.843  11.095
68254W        W40580  20.148  42.865   1.993
68255W        W40581  22.006  43.943  14.315
68256W        W40582  25.903  28.778  12.061
68257W        W40583  16.677  15.570   2.619
68258W        W40584  31.333  19.217   4.630
68259W        W40585  41.732  18.563  14.341
68260W        W40586   4.903  26.982  10.963
68261W        W40587  44.792  26.158   1.381
68262W        W40588  15.169   8.988   2.280
68263W        W40589   7.177  10.218  14.255
68264W        W40590  16.249  35.962   4.085
68265W        W40591   0.745   7.901  11.633
68266W        W40592  21.396  20.317  12.440
68267W        W40593  11.730  36.098  14.898
68268W        W40594  34.079  40.698   3.166
68269W        W40595  19.958  16.071   0.718
68270W        W40596  32.989   5.411   3.220
68271W        W40597  24.518   0.503  12.346
68272W        W40598   1.452  33.905  14.892
68273W        W40599  32.060   4.838  10.631
68274W        W40600  41.425  44.220   2.309
68275W        W40601  18.343   2.007   1.847
68276W        W40602  35.531  26.117   1.272
68277W        W40603  31.079  11.676   3.205
68278W        W40604  40.018  39.857  12.051
68279W        W40605  14.813   7.793  13.435
68280W        W40606   0.713   0.440  12.028
68281W        W40607  35.781  34.465  14.972
68282W        W40608  41.947  27.195  11.068
68283W        W40609  18.158  34.625  12.743
68284W        W40610  38.385  27.453   1.757
68285W        W40611  36.838   5.341   2.759
68286W        W40612  17.235  31.914  13.068
68287W        W40613  21.548  25.041   0.490
68288W        W40614  24.722  31.852  14.396
68289W        W40615  36.862   8.093  13.107
68290W        W40616  32.236  44.761  13.432
68291W        W40617   2.809  30.786  10.935
68292W        W40618   9.927  10.191   9.948
68293W        W40619  31.674   6.397  11.105
68294W        W40620   4.382  44.095   1.790
68295W        W40621  27.728  10.806  10.630
68296W        W40622   4.035  34.617   1.834
68297W        W40623  34.565  30.201  10.741
68298W        W40624   3.891  36.493  12.015
68299W        W40625  43.290  36.969   3.930
68300W        W40626   0.968   8.883  12.586
68301W        W40627  11.209  41.803  13.968
68302W        W40628  37.069  34.156  13.457
68303W        W40629  36.037  38.311  13.547
68304W        W40630  31.044  21.315  10.808
68305W        W40631  38.569  29.451   3.682
68306W        W40632  39.760  12.717  14.532
68307W        W40633  12.291  22.684   4.923
68308W        W40634  43.284  31.990  11.657
68309W        W40635  15.480   3.365  10.424
68310W        W40636  13.749  29.046  11.598
68311W        W40637   8.380  24.318   2.475
68312W        W40638  30.079  26.432  11.556
68313W        W40639  16.181  17.491   4.125
68314W        W40640  38.058   6.451  10.714
68315W        W40641  42.043  12.751   1.666
68316W        W40642   3.424   2.948  12.284
68317W        W40643  12.709  12.220  11.563
68318W        W40644   5.622  26.016   0.838
68319W        W40645  21.523  38.608  12.474
68320W        W40646  27.504  35.757   4.121
68321W        W40647   2.309  15.124   3.137
68322W        W40648  15.562  41.947   0.780
68323W        W40649  25.011  31.980   2.691
68324W        W40650  23.720  38.390  14.917
68325W        W40651  30.116  23.182   4.666
68326W        W40652   4.446  19.253  12.486
68327W        W40653  31.922  39.599   4.087
68328W        W40654  15.337  38.261   1.294
68329W        W40655  27.578  42.794  14.745
68330W        W40656  16.693   8.479   1.013
68331W        W40657   7.851   6.516  14.893
68332W        W40658  38.635  27.161   3.503
68333W        W40659  25.513  18.597  13.522
68334W        W40660  18.600  17.633  11.741
68335W        W40661  37.852  26.584  14.397
68336W        W40662  16.671   9.292   4.380
68337W        W40663   7.234  40.303  11.515
68338W        W40664  30.732   9.566  11.928
68339W        W40665  12.247  32.103  13.007
68340W        W40666  28.250  44.068  12.406
68341W        W40667   0.283  11.314  13.323
68342W        W40668  31.288  31.894  11.025
68343W        W40669  26.289  15.393   9.677
68344W        W40670   7.869  24.970   3.244
68345W        W40671  28.578  11.215   1.468
68346W        W40672   2.678   5.360   3.723
68347W        W40673  26.497  15.546   4.061
68348W        W40674  27.705   5.831  14.347
68349W        W40675  40.285  12.506   0.364
68350W        W40676   7.029  44.074  14.405
68351W        W40677  41.980  41.788  14.013
68352W        W40678   7.614  41.017   2.739
68353W        W40679   1.515  17.313  10.600
68354W        W40680   5.860  12.346   0.530
68355W        W40681   7.396  13.675   0.751
68356W        W40682   5.916  36.513  10.730
68357W        W40683  28.695  23.131  12.482
68358W        W40684  27.216  15.020  14.948
68359W        W40685   4.373  36.096   1.744
68360W        W40686   6.467  43.418  13.429
68361W        W40687   7.890  13.155   3.602
68362W        W40688  13.010  34.074   0.351
68363W        W40689   1.022   5.465   1.848
68364W        W40690  16.434  14.609  11.998
68365W        W40691  38.370  27.460   0.270
68366W        W40692  41.027  33.008   3.551
68367W        W40693  28.953  28.181  12.505
68368W        W40694  17.328  40.735  10.974
68369W        W40695  30.588  13.833   0.187
68370W        W40696  10.594  15.651   0.450
68371W        W40697  43.884  26.339   4.429
68372W        W40698  23.921  25.722   4.155
68373W        W40699  17.346   5.885   3.626
68374W        W40700  22.062  29.607  10.777
68375W        W40701  22.532   9.330   0.863
68376W        W40702  33.890  43.750  13.962
68377W        W40703   5.930  33.180  12.913
68378W        W40704   8.357   7.832   4.111
68379W        W40705  13.874   9.103  11.059
68380W        W40706   9.923   7.388   1.611
68381W        W40707  23.649  24.610   3.724
68382W        W40708  16.909   7.209  12.883
68383W        W40709   3.496  30.591   0.366
68384W        W40710  10.648  25.032  11.443
68385W        W40711  40.970  23.434  14.322
68386W        W40712  39.209  37.416   1.776
68387W        W40713  38.447  10.253   9.757
68388W        W40714  36.349  20.065   4.232
68389W        W40715   5.036  26.954  11.474
68390W        W40716  16.187  22.687  10.581
68391W        W40717  39.084   0.023  11.750
68392W        W40718   5.413   1.937   0.508
68393W        W40719  38.841  20.741  10.215
68394W        W40720   4.839  21.430  11.608
68395W        W40721  37.274   4.371  10.676
68396W        W40722  34.240  14.434   0.384
68397W        W40723  18.094   6.496   0.303
68398W        W40724  29.741   7.796   2.428
68399W        W40725  11.387  38.881   4.155
68400W        W40726  18.794  23.492   1.006
68401W        W40727   0.220  20.085   3.612
68402W        W40728   9.240  28.910   0.800
68403W        W40729   8.373  26.086   4.148
68404W        W40730  12.128  38.686  11.958
68405W        W40731   2.722  19.174  11.182
68406W        W40732  41.765  24.716  14.017
68407W        W40733  15.339  22.792   0.310
68408W        W40734  22.484  40.545   0.021
68409W        W40735  29.641  35.403   0.627
68410W        W40736   9.733  34.922  14.612
68411W        W40737  20.730  23.038   2.409
68412W        W40738  29.665   6.371  12.908
68413W        W40739  23.431  18.623  12.418
68414W        W40740  44.003  25.351   4.810
68415W        W40741  17.272  43.728   1.374
68416W        W40742  40.387   6.827  11.453
68417W        W40743  43.253  21.553   2.134
68418W        W40744  26.036  15.358   3.807
68419W        W40745  26.137   3.955  10.607
68420W        W40746  42.553  29.959   0.385
68421W        W40747  13.743  21.274   2.377
68422W        W40748  42.523  41.800  12.389
68423W        W40749   0.239  32.157   3.069
68424W        W40750  27.562   7.628  11.155
68425W        W40751  29.354  15.604   2.984
68426W        W40752  24.660  36.993   2.842
68427W        W40753  15.429   4.663   1.513
68428W        W40754  20.776  33.590  11.010
68429W        W40755  28.457  28.756   3.778
68430W        W40756  34.377  36.482  13.853
68431W        W40757  17.143  35.526  14.464
68432W        W40758  12.260  18.851   1.646
68433W        W40759  14.280   7.205  14.980
68434W        W40760  34.908  25.594   3.086
68435W        W40761  22.293  33.650  14.836
68436W        W40762   5.318  14.033   1.396
68437W        W40763  14.169  38.071  11.341
68438W        W40764  27.964  15.361  13.757
68439W        W40765  15.148  22.247   2.933
68440W        W40766   5.599  37.778  14.512
68441W        W40767   4.144  13.702  12.042
68442W        W40768  13.366  38.070  13.954
68443W        W40769  20.717  22.119  11.094
68444W        W40770  27.208   6.123   4.526
68445W        W40771  19.018   2.022   0.225
68446W        W40772  39.343  39.635   4.076
68447W        W40773  22.478   1.789  10.268
68448W        W40774  33.329  38.852   0.496
68449W        W40775  30.678  13.906  12.562
68450W        W40776   3.262  31.114   3.629
68451W        W40777  20.504  44.689  13.520
68452W        W40778   0.743  39.015   4.196
68453W        W40779  38.050   9.167   2.001
68454W        W40780  23.249   7.201  14.750
68455W        W40781  44.834  42.889  14.281
68456W        W40782  39.465  42.441  12.149
68457W        W40783  38.893  26.361  10.592
68458W        W40784   9.096  31.690   2.772
68459W        W40785   8.411  16.996  11.789
68460W        W40786  13.627  23.087   3.400
68461W        W40787  37.623   3.465  13.026
68462W        W40788  41.143  13.710   3.848
68463W        W40789  34.469   8.751  12.874
68464W        W40790  25.097  18.735  11.138
68465W        W40791   4.225  42.459   4.611
68466W        W40792  42.163   3.348   9.940
68467W        W40793  20.998  18.211  13.395
68468W        W40794   5.001  13.731   0.214
68469W        W40795   3.394  13.781  10.760
68470W        W40796  31.944  28.351   1.958
68471W        W40797  24.647  30.176   0.953
68472W        W40798   6.815  10.257   4.573
68473W        W40799   0.730  37.470  13.117
68474W        W40800  41.014   7.921  14.358
68475W        W40801  26.238  29.860   0.314
68476W        W40802  35.388  31.641  10.314
68477W        W40803   5.752  14.593   0.877
68478W        W40804  29.735   2.980  12.489
68479W        W40805  33.983  25.948   2.776
68480W        W40806  14.188  31.288   3.520
68481W        W40807  36.798  22.754  10.731
68482W        W40808   4.029  13.178   4.014
68483W        W40809  36.590  23.503  13.927
68484W        W40810  36.223  41.986   1.229
68485W        W40811  20.086   2.751  14.384
68486W        W40812  19.623   6.930  11.381
68487W        W40813   4.398  32.637   3.881
68488W        W40814  34.447  13.810  12.042
68489W        W40815   8.211  21.066  14.560
68490W        W40816  19.446   0.864  11.658
68491W        W40817  25.133   8.207  13.360
68492W        W40818  27.472   5.467   1.503
68493W        W40819   1.980  16.622  12.207
68494W        W40820  44.232  20.640  13.465
68495W        W40821  29.101  34.684  12.840
68496W        W40822   9.167  34.407   1.270
68497W        W40823  24.650  31.126   2.766
68498W        W40824  30.186  41.218   2.913
68499W        W40825  19.697  34.050   3.150
68500W        W40826  14.852  41.448   5.086
68501W        W40827  15.620  22.970   1.175
68502W        W40828  12.381  12.197   2.871
68503W        W40829  35.459   1.500   1.012
68504W        W40830   0.821  18.327  10.676
68505W        W40831  10.963   7.353  11.535
68506W        W40832   0.557  22.092   4.556
68507W        W40833   4.860   4.423   0.009
68508W        W40834  33.914  39.953  13.833
68509W        W40835  14.704  44.824  13.058
68510W        W40836  29.009  10.364   1.116
68511W        W40837  24.539  43.268   1.382
68512W        W40838  37.675  41.789  13.050
68513W        W40839  16.285  44.273  10.710
68514W        W40840  34.655   1.018   0.327
68515W        W40841  37.812  11.991   4.297
68516W        W40842  13.374  10.436   1.357
68517W        W40843  27.465  29.895   2.745
68518W        W40844  14.359  17.988   0.819
68519W        W40845   8.697   7.240   2.260
68520W        W40846  31.237  29.115  14.369
68521W        W40847  42.408  23.155  12.624
68522W        W40848  44.420  19.836   1.129
68523W        W40849   2.238   0.690  13.938
68524W        W40850   0.692  39.827  13.733
68525W        W40851  30.910  32.526  10.730
68526W        W40852  39.851  16.428  12.097
68527W        W40853  15.262   1.052   1.856
68528W        W40854  27.584  21.122   4.627
68529W        W40855  34.524  28.988  12.890
68530W        W40856  15.033   2.903  12.627
68531W        W40857  27.618  24.143  10.606
68532W        W40858   6.251  19.514   1.953
68533W        W40859  24.420  31.095  11.929
68534W        W40860  22.647  29.519   3.608
68535W        W40861  19.236  40.331  13.162
68536W        W40862  23.545   3.742  12.607
68537W        W40863  32.127  35.777   1.359
68538W        W40864   8.620  29.913   1.363
68539W        W40865  20.620  31.022   3.685
68540W        W40866   2.884  21.259  11.578
68541W        W40867  38.788  34.526  10.667
68542W        W40868  38.690  30.159  11.248
68543W        W40869  15.040  32.431   3.828
68544W        W40870  20.116  27.667   3.370
68545W        W40871   5.886  28.388   2.732
68546W        W40872  43.980  10.811   2.298
68547W        W40873  43.086  43.815  12.392
68548W        W40874  29.020  36.048  10.898
68549W        W40875  43.816  14.217  12.850
68550W        W40876  44.725   5.359  11.397
68551W        W40877   7.781  30.414   1.065
68552W        W40878  30.552  17.370   2.602
68553W        W40879   2.760  16.748  10.554
68554W        W40880  37.360  20.170   2.793
68555W        W40881  15.825  41.915   1.252
68556W        W40882  23.592   4.916   0.937
68557W        W40883  14.407  16.370   1.195
68558W        W40884  11.645   5.290   4.498
68559W        W40885  31.465  34.683  13.998
68560W        W40886  25.896  25.457  13.137
68561W        W40887  24.018  15.041  11.702
68562W        W40888  18.828  24.518   4.577
68563W        W40889  42.300  14.885  11.504
68564W        W40890  26.269   9.620   1.893
68565W        W40891  31.680  26.557  14.323
68566W        W40892  33.615  17.253  10.364
68567W        W40893  28.183  17.808  13.347
68568W        W40894  44.437  24.200  12.885
68569W        W40895  26.693   0.321  10.828
68570W        W40896   6.706  42.884   2.280
68571W        W40897  16.186  43.514   3.269
68572W        W40898   2.709  10.820   3.096
68573W        W40899   1.811  23.751   0.371
68574W        W40900  36.433  43.479  12.398
68575W        W40901  27.471   1.977  11.939
68576W        W40902  30.491   0.216  11.655
68577W        W40903  28.956  44.486  11.058
68578W        W40904  17.533  10.539   0.448
68579W        W40905  28.102  25.398  14.414
68580W        W40906  16.784  15.498   3.607
68581W        W40907   2.979  10.012   9.812
68582W        W40908  17.182   8.217   4.132
68583W        W40909   7.451  20.032  13.843
68584W        W40910   7.116   0.783   3.220
68585W        W40911  38.828  15.291   3.755
68586W        W40912  14.551  34.611   4.674
68587W        W40913  24.222  16.080   4.182
68588W        W40914  43.331  39.456  13.514
68589W        W40915  43.653   6.140  12.446
68590W        W40916  39.281  37.150   1.327
68591W        W40917  23.731  37.365   5.392
68592W        W40918   3.262  38.466   0.234
68593W        W40919  25.174   2.693  14.474
68594W        W40920  22.576  40.057  11.568
68595W        W40921  14.134  19.247   2.577
68596W        W40922  11.622   6.212  11.444
68597W        W40923  37.811  26.015   2.789
68598W        W40924   7.602  21.043   2.766
68599W        W40925  34.643   1.699   1.278
68600W        W40926  30.124  37.975   4.730
68601W        W40927  27.131   6.937   4.710
68602W        W40928  14.352  33.700  10.907
68603W        W40929  37.040  11.268  11.054
68604W        W40930  17.367  22.196  11.596
68605W        W40931   6.119  22.482  10.110
68606W        W40932   6.338   3.790   3.099
68607W        W40933  39.820  27.883  14.778
68608W        W40934  11.715  33.860  12.152
68609W        W40935   5.011  37.951  13.754
68610W        W40936   2.280  30.461  14.872
68611W        W40937  16.872  28.927  12.581
68612W        W40938  10.658   9.410   3.352
68613W        W40939  39.803  39.627   1.445
68614W        W40940  33.922   3.698   3.320
68615W        W40941  39.464   5.336  11.317
68616W        W40942  26.609  22.261  11.980
68617W        W40943  14.677  19.823   1.132
68618W        W40944   3.444   9.519   5.414
68619W        W40945  18.274  10.556   2.650
68620W        W40946  30.000   6.656   0.901
68621W        W40947  25.000   2.867  12.954
68622W        W40948   6.843   3.782   2.884
68623W        W40949  37.550  37.639   3.291
68624W        W40950  19.774  37.928   1.652
68625W        W40951  41.559  23.558  12.166
68626W        W40952  39.984  13.679   0.362
68627W        W40953  40.372  40.717   4.128
68628W        W40954  44.988  17.551  12.469
68629W        W40955  27.476  15.200   1.146
68630W        W40956  22.043  26.008   3.957
68631W        W40957  27.578  26.565  11.982
68632W        W40958  24.678  25.916   2.799
68633W        W40959  32.908  34.669   1.309
68634W        W40960  17.549  22.491   2.265
68635W        W40961   4.174  18.264  14.504
68636W        W40962  15.606   0.729  12.905
68637W        W40963  35.462   9.934  14.969
68638W        W40964  29.302  43.907  12.505
68639W        W40965  34.388  13.166  14.725
68640W        W40966   0.347   2.306   5.241
68641W        W40967  20.557  38.757   5.044
68642W        W40968  16.218  41.827   2.636
68643W        W40969   3.230  40.890   3.629
68644W        W40970  11.160  33.675   4.637
68645W        W40971  44.141  44.476  12.715
68646W        W40972  21.188  21.637   0.408
68647W        W40973  16.212  38.016  10.778
68648W        W40974  31.860  20.272   3.806
68649W        W40975  23.620  25.653  12.562
68650W        W40976  17.616  12.011   3.730
68651W        W40977  39.522  17.831   3.767
68652W        W40978   8.404   7.926   0.576
68653W        W40979  44.058  38.764  13.929
68654W        W40980  35.080  23.974   4.312
68655W        W40981   6.720  11.443  11.849
68656W        W40982   6.148  38.926   2.682
68657W        W40983  12.691   9.747   3.743
68658W        W40984  21.637  40.148   2.207
68659W        W40985   9.259  37.072   1.924
68660W        W40986  13.863  15.185  10.652
68661W        W40987  26.452   2.737  14.939
68662W        W40988  39.513  36.627  10.511
68663W        W40989  34.095  29.009   0.733
68664W        W40990  25.188  43.295  14.410
68665W        W40991  13.694  19.098  10.727
68666W        W40992   8.665  21.213  10.959
68667W        W40993  22.009  32.888  13.746
68668W        W40994  19.974  12.331   3.612
68669W        W40995  34.857   8.796   2.189
68670W        W40996  10.835  17.250   4.893
68671W        W40997  40.985  15.273   3.919
68672W        W40998  14.798  34.990  11.134
68673W        W40999  24.429  44.080  12.578
68674W        W41000  11.982   0.688  12.106
68675W        W41001  20.129  39.954   3.757
68676W        W41002  17.385  10.215   2.605
68677W        W41003  43.882  17.332  11.409
68678W        W41004  33.373   7.280   2.740
68679W        W41005  27.526  35.476  12.289
68680W        W41006   0.484  38.451   1.799
68681W        W41007  31.649  30.455  12.995
68682W        W41008  37.329  17.460  10.354
68683W        W41009  28.609  12.808   1.571
68684W        W41010  16.663  27.065   0.936
68685W        W41011  29.638  29.710   2.306
68686W        W41012   0.043  43.590  12.989
68687W        W41013  37.380  34.593   2.261
68688W        W41014  10.661  37.760  11.457
68689W        W41015  42.625  33.691   4.257
68690W        W41016  11.126  29.076  13.410
68691W        W41017  24.661  18.263  13.973
68692W        W41018   7.282  27.147  13.061
68693W        W41019  13.336   0.738   3.333
68694W        W41020  30.417  14.707  14.559
68695W        W41021  13.283  24.228  13.466
68696W        W41022  20.130   5.276   1.232
68697W        W41023  19.582   3.484  12.519
68698W        W41024   7.705   7.070  11.714
68699W        W41025   1.035  18.674  10.990
68700W        W41026  34.045  17.489   4.692
68701W        W41027  12.142  11.730  11.993
68702W        W41028  35.004  16.663   1.665
68703W        W41029  39.234  40.474  12.893
68704W        W41030  30.524  38.790  13.817
68705W        W41031  22.303  35.406   2.126
68706W        W41032   1.444  40.082   1.282
68707W        W41033  15.265  34.145  14.193
68708W        W41034  25.010  16.432   3.537
68709W        W41035   8.422  13.217  10.674
68710W        W41036  36.343  14.585   4.902
68711W        W41037  11.309   6.279  13.529
68712W        W41038  41.318  42.853   2.393
68713W        W41039   8.008  19.556   1.202
68714W        W41040  13.956   6.400  14.398
68715W        W41041   7.292  32.874  14.221
68716W        W41042  27.725  33.105  10.508
68717W        W41043  35.902  41.592  13.450
68718W        W41044   3.975   0.473  13.404
68719W        W41045   8.642  32.562   3.334
68720W        W41046   3.393   2.409  10.213
68721W        W41047  39.335  40.387   4.768
68722W        W41048  42.102   9.317   2.658
68723W        W41049  16.839  31.834   3.367
68724W        W41050   1.440  20.611  13.098
68725W        W41051  11.032  38.650  12.788
68726W        W41052  23.064  42.353   0.527
68727W        W41053   4.412  34.391  13.882
68728W        W41054  10.606  26.202   2.816
68729W        W41055  34.373  43.108  13.816
68730W        W41056  38.442  30.337   2.768
68731W        W41057   1.797   4.514  13.735
68732W        W41058   1.233  44.369   4.138
68733W        W41059   9.631  37.821   0.374
68734W        W41060   3.744   5.085  13.186
68735W        W41061  32.668  10.414   0.724
68736W        W41062  17.928  38.320  13.975
68737W        W41063  38.868  42.922  10.596
68738W        W41064   0.308  39.084   3.331
68739W        W41065  38.591   1.679   0.374
68740W        W41066  24.700  32.787   3.276
68741W        W41067  23.273  29.709   2.311
68742W        W41068  21.239  39.409   1.835
68743W        W41069  12.391   9.281   2.883
68744W        W41070  41.431   0.529  14.350
68745W        W41071  32.440  43.276  11.728
68746W        W41072  33.942  17.811   2.722
68747W        W41073  34.945  16.085  14.025
68748W        W41074  33.339  38.035  12.988
68749W        W41075  10.238  27.411  12.458
68750W        W41076   6.681  28.179  10.223
68751W        W41077   0.918  35.077   1.841
68752W        W41078  33.521  30.685  10.293
68753W        W41079  42.441   6.420   2.202
68754W        W41080  26.379  38.774  12.782
68755W        W41081  28.038  23.996  11.830
68756W        W41082  41.922  35.526   1.079
68757W        W41083  37.235  34.066   2.339
68758W        W41084   4.217  31.563  14.524
68759W        W41085   1.924  19.998  14.293
68760W        W41086  20.184  32.293   4.526
68761W        W41087  34.841  37.883   0.338
68762W        W41088  43.528  24.896  13.874
68763W        W41089  39.788  13.126   3.263
68764W        W41090  10.224  12.070  13.966
68765W        W41091   0.511   4.276  12.043
68766W        W41092  38.075  10.557   1.962
68767W        W41093  33.939  14.554  11.670
68768W        W41094  43.924  26.535  11.349
68769W        W41095   9.130  34.827   2.723
68770W        W41096  33.107  15.785   3.080
68771W        W41097  44.438  43.520  13.628
68772W        W41098  10.339  35.520  14.587
68773W        W41099  32.713   0.434  11.908
68774W        W41100   3.569  20.068  12.128
68775W        W41101  25.146  14.683   5.045
68776W        W41102   0.932  22.069   2.264
68777W        W41103  30.412   6.914   1.227
68778W        W41104  36.598  13.800  11.837
68779W        W41105  39.260  43.570   1.997
68780W        W41106   4.689  32.865  12.027
68781W        W41107  31.150  39.008   5.019
68782W        W41108   8.756  15.602   3.210
68783W        W41109   0.053  37.414  14.535
68784W        W41110  33.635   7.919   2.493
68785W        W41111   9.273  41.376  11.707
68786W        W41112  14.506  25.651  12.963
68787W        W41113  22.588  26.245   1.840
68788W        W41114  18.953  40.132  13.993
68789W        W41115  29.015  44.908  11.456
68790W        W41116  29.735  36.957   5.008
68791W        W41117  29.188   3.124  11.640
68792W        W41118  20.542  20.835   4.138
68793W        W41119  44.017  17.086   1.800
68794W        W41120  37.856   8.489  12.212
68795W        W41121  37.649  33.084   4.955
68796W        W41122  17.438  37.250  14.002
68797W        W41123   9.696  30.812   0.726
68798W        W41124   3.033  26.488   1.962
68799W        W41125   8.061  44.451  13.968
68800W        W41126  28.359  28.486   0.563
68801W        W41127  12.127  44.957   2.040
68802W        W41128  17.052  10.723   1.944
68803W        W41129   0.591   1.700   1.385
68804W        W41130   7.308  38.524   4.279
68805W        W41131  21.558  27.243   2.769
68806W        W41132  40.462  10.399  13.067
68807W        W41133  29.705  28.420   4.713
68808W        W41134  22.579  34.066  14.985
68809W        W41135  19.263  23.317   2.493
68810W        W41136  29.084   8.212   3.250
68811W        W41137  13.840  19.463   2.162
68812W        W41138  42.201  20.178   4.533
68813W        W41139  10.403  30.077  11.432
68814W        W41140  18.100  13.893  14.892
68815W        W41141  34.507  25.291  14.052
68816W        W41142   2.921  20.657   1.264
68817W        W41143  29.206  33.388  13.899
68818W        W41144  41.296  32.144  14.306
68819W        W41145  21.090   3.841  13.556
68820W        W41146  26.294  12.365  12.198
68821W        W41147  12.332  24.113  10.171
68822W        W41148  12.473   7.828   4.544
68823W        W41149  30.598   8.424   2.727
68824W        W41150  36.454  32.345   1.906
68825W        W41151  17.552   9.732   4.987
68826W        W41152  21.592  12.141   0.753
68827W        W41153  20.023  34.906  14.719
68828W        W41154   5.625   8.605   5.148
68829W        W41155  16.779  29.148   3.307
68830W        W41156  26.750  29.221   3.970
68831W        W41157  33.731   3.854   3.777
68832W        W41158  17.711   2.814  13.051
68833W        W41159  28.149   7.015   0.821
68834W        W41160  12.692  19.356  12.926
68835W        W41161   5.793  10.437  11.505
68836W        W41162  30.998   7.882   4.510
68837W        W41163  43.438  39.448  14.888
68838W        W41164  13.898  30.627  14.360
68839W        W41165  11.756  21.417  13.022
68840W        W41166   9.766  41.890  12.852
68841W        W41167   5.700  20.238  12.531
68842W        W41168  30.062  15.769   4.860
68843W        W41169  14.588  33.711   1.233
68844W        W41170  11.568  40.828  11.622
68845W        W41171   2.001  28.694   3.322
68846W        W41172  16.014  12.072  11.185
68847W        W41173  37.960  12.543  14.118
68848W        W41174  10.778  35.938   4.059
68849W        W41175  16.749  33.836   3.443
68850W        W41176  22.187   8.235  13.927
68851W        W41177  34.517  34.582  12.065
68852W        W41178  12.111   1.367  13.750
68853W        W41179   9.663  14.893  13.604
68854W        W41180  42.474   3.332  13.853
68855W        W41181  28.671  10.924  14.380
68856W        W41182  33.099   4.178  10.431
68857W        W41183   1.944  37.603   4.635
68858W        W41184  27.639  33.313  12.289
68859W        W41185  38.541  23.033  13.540
68860W        W41186  40.909  11.772   1.433
68861W        W41187  37.257  28.408   0.414
68862W        W41188   8.468  10.739   2.826
68863W        W41189   9.746  44.463  11.247
68864W        W41190  43.012  17.598  12.300
68865W        W41191  13.000  33.517   5.455
68866W        W41192  41.103  27.423   2.765
68867W        W41193  20.634   1.851  13.626
68868W        W41194  17.763  25.878   4.749
68869W        W41195  24.246  11.416   3.269
68870W        W41196  29.473  37.091  14.325
68871W        W41197  32.754   6.779  10.786
68872W        W41198  37.401  26.674  11.915
68873W        W41199  30.506  18.059   4.497
68874W        W41200  39.973  32.994  14.839
68875W        W41201   0.642  14.102  11.080
68876W        W41202  15.382  26.071  14.274
68877W        W41203  41.065   3.447   4.158
68878W        W41204   5.259  23.560   0.254
68879W        W41205   5.390  39.922   2.361
68880W        W41206  43.823  37.895   3.573
68881W        W41207  20.130  37.655   1.980
68882W        W41208  23.019  34.685  12.581
68883W        W41209  43.012  23.403  12.759
68884W        W41210  24.640  18.316   3.565
68885W        W41211   9.382   7.414   3.641
68886W        W41212  33.612   2.872   3.880
68887W        W41213  18.204  23.635   1.757
68888W        W41214  16.289  39.278   4.072
68889W        W41215   6.163  31.357   1.855
68890W        W41216  44.276  20.242   1.984
68891W        W41217  10.902  34.784  12.437
68892W        W41218  39.350  29.712   0.035
68893W        W41219  31.372  40.920  14.299
68894W        W41220  32.439   1.717  13.017
68895W        W41221  38.329  37.126   0.229
68896W        W41222  32.823  22.607   0.034
68897W        W41223   0.348  20.387   4.488
68898W        W41224  14.102  19.641  11.613
68899W        W41225  23.734   3.687   0.473
68900W        W41226  37.436  29.969  14.572
68901W        W41227   7.306  17.216   1.686
68902W        W41228  26.729  19.185   0.120
68903W        W41229  29.476   3.171   2.312
68904W        W41230  24.651  21.768   2.357
68905W        W41231   4.767  20.106  12.965
68906W        W41232  40.957  24.525  11.495
68907W        W41233  34.093  41.793   4.533
68908W        W41234  11.271  15.836   1.961
68909W        W41235  13.370  15.067  11.171
68910W        W41236  10.097  17.331   4.173
68911W        W41237  39.031  43.916   5.152
68912W        W41238   0.179   4.718  12.018
68913W        W41239  27.909   7.692  10.757
68914W        W41240  12.205  42.365  10.972
68915W        W41241  12.586  15.877   2.776
68916W        W41242  21.195  23.507   4.961
68917W        W41243  20.091  18.649   4.063
68918W        W41244  19.246  28.906   4.046
68919W        W41245  39.950  25.689  13.031
68920W        W41246  36.517  16.054   3.100
68921W        W41247  22.356  39.852  10.339
68922W        W41248  39.407  25.191   1.601
68923W        W41249   6.088  23.170  14.453
68924W        W41250  14.723  28.341  10.722
68925W        W41251   7.280  34.373  12.892
68926W        W41252   3.435  40.301  13.435
68927W        W41253  36.091  21.437   3.759
68928W        W41254   3.363  29.873   3.145
68929W        W41255   7.376  14.194  10.748
68930W        W41256  12.853  10.662   0.624
68931W        W41257   5.079  31.661   0.556
68932W        W41258  22.789  17.618  13.071
68933W        W41259  21.178  27.602   4.932
68934W        W41260  14.660  10.337  11.651
68935W        W41261  40.606   5.727  12.051
68936W        W41262  38.408  34.595   1.378
68937W        W41263  40.421   7.421  12.622
68938W        W41264   4.171   5.344  11.755
68939W        W41265  15.536  37.411   4.291
68940W        W41266   6.560   9.216   2.976
68941W        W41267   9.006  20.105   1.887
68942W        W41268   4.643   7.362   3.377
68943W        W41269  11.942  24.250   2.045
68944W        W41270  27.640  38.051  11.180
68945W        W41271   5.885  37.571  12.599
68946W        W41272  28.092  30.949  13.475
68947W        W41273   0.316   1.298   4.511
68948W        W41274  16.096  12.572   3.181
68949W        W41275  12.618  32.502   4.644
68950W        W41276  35.387  29.658  13.967
68951W        W41277  43.969  10.482  10.766
68952W        W41278  32.574   2.289  13.905
68953W        W41279   9.612  22.797   0.840
68954W        W41280  39.613   2.700   3.080
68955W        W41281  26.675  15.073  14.973
68956W        W41282   7.337  21.495   2.714
68957W        W41283  30.564   5.747   4.173
68958W        W41284   2.865   4.978  10.069
68959W        W41285  40.739  17.197   0.928
68960W        W41286   1.186  23.620  10.245
68961W        W41287  19.615  29.219   4.185
68962W        W41288  12.296  34.642  11.110
68963W        W41289  43.138  11.352   4.427
68964W        W41290  39.264  17.131   3.612
68965W        W41291  43.028  10.821  13.997
68966W        W41292  34.954  44.642  10.574
68967W        W41293  42.694  17.261  12.527
68968W        W41294  37.594  27.681   0.973
68969W        W41295   4.232  33.896   3.299
68970W        W41296  35.837   6.260  11.088
68971W        W41297  32.209  27.436  12.749
68972W        W41298  36.791  42.589  13.703
68973W        W41299  39.447  40.023  10.935
68974W        W41300  36.386  19.069   2.268
68975W        W41301  28.990   4.975   2.272
68976W        W41302  41.584   4.730   4.223
68977W        W41303  40.311  36.429   2.868
68978W        W41304   2.818  10.811   3.590
68979W        W41305  22.658  39.281   2.174
68980W        W41306  36.043  19.251   0.430
68981W        W41307  15.022  26.231  14.797
68982W        W41308  38.011  20.972  10.543
68983W        W41309   8.086   3.335  12.766
68984W        W41310  41.365   0.686  12.446
68985W        W41311   7.912   0.064  11.691
68986W        W41312  11.833  13.772  14.376
68987W        W41313  11.259   8.525   0.909
68988W        W41314  37.945   1.734   0.790
68989W        W41315  21.749  24.529  10.872
68990W        W41316  15.575   1.377   1.627
68991W        W41317  31.620  32.667  13.953
68992W        W41318   7.584   1.873  11.043
68993W        W41319   7.404  34.625  10.677
68994W        W41320  40.928   3.523  11.135
68995W        W41321  18.705  38.517   1.938
68996W        W41322  23.146   9.464   2.799
68997W        W41323   5.055  22.550   2.302
68998W        W41324  26.993  29.924  13.845
68999W        W41325   5.362  30.682  10.655
69000W        W41326  13.515   6.686   2.213
69001W        W41327   6.549  17.619  12.054
69002W        W41328  35.778   4.382   0.318
69003W        W41329  12.851  13.358   0.839
69004W        W41330   9.669   8.814   1.284
69005W        W41331  16.861  34.369   0.224
69006W        W41332   5.877  21.365  13.413
69007W        W41333   5.066   0.857   3.285
69008W        W41334  33.971  34.127   2.388
69009W        W41335  28.343  17.927   0.774
69010W        W41336  24.924  21.671   1.424
69011W        W41337  39.499  25.052  14.758
69012W        W41338  11.283   1.184   2.577
69013W        W41339  14.795  31.142  12.530
69014W        W41340  12.777  14.896   3.149
69015W        W41341  37.581  43.250  14.013
69016W        W41342  15.694  42.980  13.302
69017W        W41343  25.668   6.212  12.922
69018W        W41344  44.007  35.064   0.311
69019W        W41345  43.540  28.018   3.781
69020W        W41346  14.105  36.496  13.060
69021W        W41347  39.887  40.873  14.506
69022W        W41348  22.750  29.680   1.184
69023W        W41349  24.557  25.150   1.902
69024W        W41350  21.274  26.355   1.867
69025W        W41351  15.451  27.482   3.185
69026W        W41352   2.941  42.984  13.019
69027W        W41353  41.446  32.443  13.923
69028W        W41354  43.377  12.734  13.444
69029W        W41355  19.633  23.118   4.614
69030W        W41356  39.395  14.553   1.869
69031W        W41357   3.803  29.900  13.772
69032W        W41358  43.495  24.169   4.644
69033W        W41359  26.563  25.594   0.882
69034W        W41360   6.712  22.272   0.943
69035W        W41361  11.237  11.133   3.298
69036W        W41362   0.500  32.629  13.997
69037W        W41363   5.821  31.028   0.954
69038W        W41364  19.733  14.754  12.557
69039W        W41365   6.042  26.713   2.091
69040W        W41366  26.647  32.375   2.218
69041W        W41367  18.300  19.652   3.912
69042W        W41368  30.105  41.085   0.271
69043W        W41369  24.148  33.889   2.224
69044W        W41370  39.035   6.228  10.998
69045W        W41371  39.960  20.315  12.060
69046W        W41372  25.955  38.861  14.968
69047W        W41373  44.924  18.141   1.796
69048W        W41374  34.607  29.557   2.649
69049W        W41375  43.017  43.235   0.364
69050W        W41376  43.536  35.094  14.326
69051W        W41377  26.938   6.339  10.594
69052W        W41378  19.513  44.556  13.078
69053W        W41379   8.386  11.306  13.916
69054W        W41380  26.869  44.069  10.129
69055W        W41381  19.879  44.206  11.093
69056W        W41382   0.124   0.689   4.145
69057W        W41383  11.773  41.923  13.018
69058W        W41384   8.350  18.545   2.901
69059W        W41385  17.775  39.289   0.586
69060W        W41386   5.710  23.281  14.110
69061W        W41387  42.511  13.627  14.354
69062W        W41388  22.895   0.228  12.274
69063W        W41389  28.865  43.817  10.574
69064W        W41390  43.782  27.029  13.924
69065W        W41391   4.718  42.431  13.148
69066W        W41392  31.623  29.936  13.048
69067W        W41393  17.251  28.147   4.072
69068W        W41394  16.252  13.850  10.606
69069W        W41395  41.296  30.686  12.085
69070W        W41396  15.145   7.229  14.816
69071W        W41397  40.896  21.692   0.757
69072W        W41398   3.738   9.917  12.490
69073W        W41399  16.949   6.000   1.241
69074W        W41400  11.768  39.896   4.870
69075W        W41401   2.511   9.670  13.105
69076W        W41402   0.039  19.926  11.133
69077W        W41403   6.615  11.859   2.731
69078W        W41404  39.701  35.667   1.709
69079W        W41405  11.609  41.548  12.353
69080W        W41406  26.040  39.988   4.528
69081W        W41407   0.899  26.458  14.511
69082W        W41408  15.391  37.303   2.289
69083W        W41409  24.465  42.259   3.415
69084W        W41410   9.917  31.639   0.863
69085W        W41411  33.470  21.175   4.199
69086W        W41412  25.101  39.668  10.192
69087W        W41413   4.939  17.717   1.138
69088W        W41414  41.984   2.209   4.178
69089W        W41415  22.686  21.618   4.620
69090W        W41416   8.471  19.294   4.501
69091W        W41417  15.828  19.112  13.901
69092W        W41418   7.724   7.672   1.869
69093W        W41419  43.351  42.279  11.592
69094W        W41420  43.736  18.177  12.896
69095W        W41421  35.889   1.293   1.284
69096W        W41422   5.129  20.888   1.948
69097W        W41423  25.947   6.976  12.400
69098W        W41424  29.346  18.006  14.049
69099W        W41425  43.622  29.168  14.311
69100W        W41426  38.885   9.075   4.688
69101W        W41427  36.545  28.786  10.795
69102W        W41428  20.540  11.409  13.859
69103W        W41429  27.759   9.159   1.005
69104W        W41430   7.446  29.550  12.960
69105W        W41431  19.681  14.425   3.225
69106W        W41432   9.679  13.880  10.755
69107W        W41433  35.933  30.091   2.275
69108W        W41434  14.060  28.486  13.889
69109W        W41435   1.293  21.115   3.528
69110W        W41436   8.492   7.241   1.760
69111W        W41437   9.003  15.199  14.993
69112W        W41438  11.921  18.155  14.196
69113W        W41439  40.409  16.399  14.816
69114W        W41440   0.337  19.367  14.841
69115W        W41441  19.336  36.889   2.307
69116W        W41442  41.909   3.655   5.380
69117W        W41443  18.022   4.847   2.925
69118W        W41444  40.972  15.897  13.386
69119W        W41445  40.839  28.230  14.371
69120W        W41446  19.328  18.236   2.796
69121W        W41447   7.562   3.686  12.517
69122W        W41448   5.765  30.421  10.837
69123W        W41449   0.817  28.665   4.628
69124W        W41450  20.538  22.142   4.146
69125W        W41451   4.325  14.670  14.394
69126W        W41452  40.755  42.226  12.023
69127W        W41453   5.102  24.473   2.399
69128W        W41454  37.585  13.330  14.316
69129W        W41455  13.579  27.106  13.898
69130W        W41456  25.062  44.831  11.830
69131W        W41457  42.056  35.107   3.301
69132W        W41458  14.997  18.155   1.422
69133W        W41459   2.354  12.615  12.187
69134W        W41460  24.693  18.761  13.664
69135W        W41461  26.364  17.921  10.971
69136W        W41462   5.577  32.918   3.458
69137W        W41463  21.894   2.387   4.136
69138W        W41464  24.017  16.995   4.453
69139W        W41465   4.871  29.004  12.117
69140W        W41466   9.093   3.254   0.827
69141W        W41467  40.878   4.034   1.442
69142W        W41468  18.749   9.981   0.829
69143W        W41469  31.455  32.028   3.199
69144W        W41470  24.808  15.232  14.268
69145W        W41471  12.862   6.451   1.407
69146W        W41472  39.397  37.805  11.942
69147W        W41473  24.558  31.640  10.707
69148W        W41474   9.687  15.210   2.374
69149W        W41475  44.489  43.022  13.610
69150W        W41476  22.653  25.404   4.563
69151W        W41477   6.463  26.456   0.952
69152W        W41478  32.928  22.890  11.173
69153W        W41479  18.508  11.005   2.715
69154W        W41480  19.271  43.829  14.869
69155W        W41481  42.501  39.082   4.497
69156W        W41482  36.891  19.048  11.001
69157W        W41483  19.702  36.520  11.427
69158W        W41484  26.387   4.934  10.409
69159W        W41485   5.222  34.990  13.092
69160W        W41486  19.661  41.651   2.179
69161W        W41487  23.051  22.521   4.595
69162W        W41488  21.176  32.928  13.907
69163W        W41489  44.236  26.179  11.174
69164W        W41490  40.024   0.359  12.810
69165W        W41491   7.566  39.784  14.057
69166W        W41492  39.259  12.307   3.651
69167W        W41493  42.315  30.095  11.710
69168W        W41494   6.284  17.073   0.683
69169W        W41495  42.989  26.536   3.134
69170W        W41496  22.256  31.630   2.327
69171W        W41497  20.013  31.925   1.305
69172W        W41498  41.325  30.235  14.408
69173W        W41499  28.098  29.801  11.401
69174W        W41500  17.609  17.833   3.002
69175W        W41501  20.539  34.903  11.568
69176W        W41502   9.649  36.063   3.112
69177W        W41503  31.514   1.745   1.380
69178W        W41504   0.378  42.933  12.447
69179W        W41505  18.818  43.015   5.107
69180W        W41506  31.982  17.028   4.308
69181W        W41507   4.305  33.340   1.495
69182W        W41508  18.225  20.613  10.753
69183W        W41509  20.988   6.863   0.342
69184W        W41510  35.527   9.829  11.820
69185W        W41511  12.160  39.536  13.943
69186W        W41512  28.204   5.250   1.846
69187W        W41513   4.176  34.000   0.445
69188W        W41514  37.312  10.637   1.161
69189W        W41515  17.282  28.566  11.365
69190W        W41516   6.416  17.041   1.784
69191W        W41517  36.981   0.320   3.012
69192W        W41518  39.382   8.403  13.006
69193W        W41519  21.948  33.472   1.770
69194W        W41520  17.496  25.103  12.025
69195W        W41521  40.719  16.062   3.637
69196W        W41522  35.069  29.535   0.299
69197W        W41523  16.096   5.933   0.190
69198W        W41524   4.709   7.071   1.299
69199W        W41525  31.178  32.489  11.589
69200W        W41526  22.686  41.714   2.502
69201W        W41527  30.004  39.615   2.186
69202W        W41528  42.631  41.754   1.122
69203W        W41529  27.021  29.532  13.494
69204W        W41530   6.268  18.349  13.389
69205W        W41531  38.284  23.645  10.460
69206W        W41532  21.213  38.501   3.352
69207W        W41533  27.878   4.048   1.283
69208W        W41534  36.946  32.058   2.781
69209W        W41535   6.354   5.736   3.361
69210W        W41536   4.197  30.323  11.963
69211W        W41537  27.450  10.638   1.976
69212W        W41538  13.782   0.840   0.183
69213W        W41539   5.408  27.182  12.840
69214W        W41540   2.294  36.306  13.741
69215W        W41541  19.851  38.968   4.593
69216W        W41542  36.434  26.114   4.950
69217W        W41543  33.475  29.019   3.889
69218W        W41544  20.347  15.622   3.205
69219W        W41545  32.362  29.691  13.536
69220W        W41546  18.802  32.698  13.949
69221W        W41547  39.528  29.138   3.684
69222W        W41548   6.890   3.528   2.236
69223W        W41549  15.499  37.825   2.293
69224W        W41550  27.105  22.983   3.592
69225W        W41551  37.670  14.085  10.087
69226W        W41552  34.139  26.448   4.434
69227W        W41553   9.819  31.521   1.749
69228W        W41554  36.201  34.919   5.443
69229W        W41555   5.051  19.002  14.460
69230W        W41556  36.501  11.755   4.561
69231W        W41557  34.550   6.179  11.501
69232W        W41558  28.880  36.515  10.697
69233W        W41559  16.127  40.245  14.344
69234W        W41560  17.191  42.876   3.186
69235W        W41561  33.124  25.418   4.882
69236W        W41562   3.431  12.578   1.323
69237W        W41563   1.760   3.883   4.738
69238W        W41564  34.403   9.931   0.439
69239W        W41565  38.887  42.826   5.406
69240W        W41566  11.613  15.638   3.814
69241W        W41567   3.838   4.803  13.652
69242W        W41568   4.236  16.748   1.829
69243W        W41569   4.936  44.192  14.926
69244W        W41570   4.012  13.935  14.016
69245W        W41571   7.639  26.906   1.663
69246W        W41572  15.053  12.354  13.802
69247W        W41573  32.088  21.529  10.712
69248W        W41574  21.550  38.786   1.717
69249W        W41575   1.008  25.555  14.455
69250W        W41576  20.618   8.397   1.684
69251W        W41577  18.207  15.567   0.613
69252W        W41578   5.815   9.207  12.344
69253W        W41579  38.854  26.892  10.641
69254W        W41580  39.833  41.345  12.852
69255W        W41581  32.093   2.264   1.016
69256W        W41582   9.847  16.417   2.750
69257W        W41583  40.837  25.156  14.937
69258W        W41584  19.605  31.596  13.586
69259W        W41585  20.612  38.514  11.526
69260W        W41586  23.930  16.158   3.761
69261W        W41587  41.690  22.255  13.830
69262W        W41588  40.448  13.174   1.620
69263W        W41589   3.486  41.331   3.561
69264W        W41590  10.294   3.924   1.686
69265W        W41591   2.144  38.932  12.980
69266W        W41592   0.731  22.804   5.588
69267W        W41593  15.334  17.220   2.687
69268W        W41594  40.700  31.619  12.853
69269W        W41595  16.726   0.439  14.858
69270W        W41596  33.509  11.575   4.044
69271W        W41597   2.969  19.280  10.741
69272W        W41598  38.044  17.141  12.517
69273W        W41599  40.908  17.092   4.046
69274W        W41600  23.689   5.286   4.517
69275W        W41601  44.969  41.022   1.265
69276W        W41602  11.167  33.754   1.975
69277W        W41603  22.117  14.111  14.745
69278W        W41604  14.721  38.259  13.630
69279W        W41605  31.223   2.848   3.811
69280W        W41606  39.964  14.696   2.926
69281W        W41607   3.457   7.674   0.824
69282W        W41608  23.146  35.094   1.002
69283W        W41609  39.847  17.767  10.532
69284W        W41610   7.238  44.328   0.714
69285W        W41611   6.828  37.585  10.181
69286W        W41612   2.326   5.650  14.382
69287W        W41613  36.393  19.104  14.327
69288W        W41614  30.912  37.932  11.701
69289W        W41615  16.030  13.767  11.059
69290W        W41616   7.320  15.646  11.541
69291W        W41617   2.855   5.345  13.250
69292W        W41618  18.581  23.270  13.343
69293W        W41619  18.721  37.434  14.280
69294W        W41620  27.567  29.919   4.051
69295W        W41621   9.170   9.355   0.461
69296W        W41622  37.697  14.533   2.289
69297W        W41623  23.830   7.419   4.863
69298W        W41624  27.923  31.160  11.698
69299W        W41625  16.722  15.831   1.764
69300W        W41626  28.453  27.741   1.803
69301W        W41627   2.373  10.031  12.786
69302W        W41628  27.663   4.237   0.308
69303W        W41629  29.189  35.960  11.926
69304W        W41630   5.732   6.660   0.222
69305W        W41631  26.676  39.270  10.973
69306W        W41632  37.505  26.403   0.348
69307W        W41633   2.799  28.541  12.633
69308W        W41634  42.798  31.286  12.100
69309W        W41635  39.395  40.047  14.388
69310W        W41636   0.577  40.117   3.753
69311W        W41637  20.065  29.252  12.022
69312W        W41638   3.972  30.584  12.633
69313W        W41639  12.623  34.999  12.943
69314W        W41640   0.552  19.872  11.185
69315W        W41641   3.898  33.099  12.453
69316W        W41642  28.358  29.118   9.787
69317W        W41643  38.289   5.969  10.715
69318W        W41644  33.948   5.675   3.354
69319W        W41645  41.118  10.333  14.947
69320W        W41646   5.483  42.064  13.895
69321W        W41647  20.051  21.027  11.672
69322W        W41648  23.693  43.541   2.648
69323W        W41649   1.293  40.503   2.157
69324W        W41650   2.100  31.994  10.199
69325W        W41651  21.813   4.936  14.022
69326W        W41652  43.388   5.724  13.129
69327W        W41653   2.941  11.814  10.647
69328W        W41654   3.425  17.781   1.331
69329W        W41655  16.674  36.872  13.552
69330W        W41656   7.876  40.187   9.972
69331W        W41657   2.226  27.927  10.284
69332W        W41658  19.076  15.288  13.502
69333W        W41659  28.468  10.424   4.229
69334W        W41660   3.645   8.405  13.891
69335W        W41661  19.039  14.810   1.390
69336W        W41662  39.378   2.251  14.181
69337W        W41663  25.958  28.912  12.582
69338W        W41664  20.463  29.455   2.246
69339W        W41665   0.799  43.478   4.050
69340W        W41666  19.910  39.978   1.897
69341W        W41667  22.787  20.538  11.598
69342W        W41668  31.163  26.455   2.624
69343W        W41669   5.739  16.091   2.753
69344W        W41670  29.490  25.466  14.311
69345W        W41671  17.316   3.444   3.265
69346W        W41672  14.352  34.947  13.465
69347W        W41673  41.910  13.344   2.275
69348W        W41674  39.320  19.189   3.634
69349W        W41675  44.360   2.056   3.224
69350W        W41676   1.237  11.989   4.518
69351W        W41677  36.244  31.432  11.548
69352W        W41678   6.654  25.721  11.040
69353W        W41679   0.438  37.601   4.195
69354W        W41680  35.593  43.492   0.548
69355W        W41681  41.498   9.850  10.699
69356W        W41682   0.978  12.365   3.295
69357W        W41683  27.653   0.681   4.060
69358W        W41684  40.676  32.733  11.546
69359W        W41685  24.076  15.776  14.079
69360W        W41686  12.090  31.406   2.641
69361W        W41687  33.999   7.367   4.101
69362W        W41688  12.817   1.666   0.923
69363W        W41689  36.961  32.513   0.765
69364W        W41690   0.816  35.561  14.311
69365W        W41691  35.672  34.352  13.056
69366W        W41692  21.530   2.024   4.145
69367W        W41693  42.904  36.927   0.831
69368W        W41694  28.489   0.720   1.930
69369W        W41695  26.905  19.386  11.593
69370W        W41696  19.829  41.167   2.373
69371W        W41697  30.148  34.485  12.650
69372W        W41698  24.737  23.406   1.092
69373W        W41699  19.340   2.008  11.664
69374W        W41700  15.096  26.646   3.421
69375W        W41701  18.014   4.157  13.807
69376W        W41702  18.216  40.953  12.844
69377W        W41703  42.147  17.479  12.469
69378W        W41704  14.363   6.302  14.937
69379W        W41705  36.399  15.633   3.383
69380W        W41706  38.845   3.842   0.194
69381W        W41707   6.617  37.447   1.208
69382W        W41708  30.879  29.159  13.891
69383W        W41709  29.682  11.799   3.273
69384W        W41710  41.515  43.386  12.041
69385W        W41711  15.497  43.352   2.841
69386W        W41712   9.731  43.012  11.690
69387W        W41713  14.835  22.426   4.583
69388W        W41714   2.956  29.233   3.663
69389W        W41715  15.303  21.727   4.663
69390W        W41716   1.317  12.633   1.213
69391W        W41717  22.412  26.164  14.316
69392W        W41718  13.765   4.696  14.906
69393W        W41719  30.192  44.317   0.998
69394W        W41720  15.035  10.466   3.345
69395W        W41721  16.392  14.130  11.020
69396W        W41722  38.111  23.665   3.308
69397W        W41723  21.390  16.333  14.981
69398W        W41724  42.491  18.141   3.705
69399W        W41725  44.917  44.633   0.937
69400W        W41726  11.743   2.375   0.411
69401W        W41727  30.768  21.109   0.265
69402W        W41728  21.838  14.073  12.586
69403W        W41729  32.517  27.055  10.718
69404W        W41730  36.512  31.238  13.800
69405W        W41731  21.165  35.978   2.444
69406W        W41732  17.530  41.531  13.538
69407W        W41733  18.492  14.054   3.290
69408W        W41734  26.208   2.320   4.691
69409W        W41735   3.913   7.525   9.895
69410W        W41736   0.414   9.395  12.010
69411W        W41737  14.564  18.857  11.648
69412W        W41738  28.167  32.127  13.050
69413W        W41739  17.357  38.595   1.464
69414W        W41740   5.371  31.597  14.502
69415W        W41741   7.925  27.740   1.200
69416W        W41742  20.775  15.648  14.550
69417W        W41743  24.535  11.587   0.533
69418W        W41744  34.618  29.973  11.557
69419W        W41745  42.848   2.482  14.524
69420W        W41746  36.408  32.931  12.786
69421W        W41747  24.897  26.442   2.607
69422W        W41748  35.092  34.223  12.308
69423W        W41749   5.293  42.469  11.277
69424W        W41750  23.053  32.150  10.457
69425W        W41751  26.191   9.918   3.154
69426W        W41752  39.427  20.460  13.370
69427W        W41753   1.912  42.047  13.743
69428W        W41754  22.183  28.402   2.115
69429W        W41755  37.405   9.039  14.429
69430W        W41756  32.347   1.520   0.023
69431W        W41757  16.783  24.002   0.306
69432W        W41758  19.539  36.841  11.060
69433W        W41759  21.207  15.530   4.124
69434W        W41760  26.853  22.662   2.698
69435W        W41761  15.165   2.176   0.232
69436W        W41762  40.067  28.345   4.254
69437W        W41763   6.425   5.380  11.202
69438W        W41764  35.821  36.213   5.066
69439W        W41765  10.714  15.491  10.919
69440W        W41766  24.482  12.273  14.389
69441W        W41767  17.162  24.753  11.572
69442W        W41768  43.917  40.557   1.441
69443W        W41769  41.777  33.103   3.138
69444W        W41770   5.222  31.609   4.580
69445W        W41771  34.686  21.320  11.125
69446W        W41772  43.517  12.579   0.440
69447W        W41773  34.601  35.986   2.193
69448W        W41774  33.509  35.138  13.402
69449W        W41775  38.596   2.007  10.335
69450W        W41776   6.316  33.003   4.618
69451W        W41777  29.966  36.978   3.716
69452W        W41778   5.442   6.183  11.180
69453W        W41779  21.404   7.276  14.274
69454W        W41780  27.874  29.137   4.625
69455W        W41781  11.827  35.977   3.605
69456W        W41782  35.653   3.623   0.198
69457W        W41783  44.267  36.783   1.783
69458W        W41784  29.837  20.567  12.023
69459W        W41785  17.337  11.449   4.867
69460W        W41786   0.787  17.595   1.715
69461W        W41787  24.496  19.729   2.108
69462W        W41788  28.473  12.010   3.878
69463W        W41789   7.736  36.925   1.764
69464W        W41790  36.647  14.188   3.707
69465W        W41791  21.712  30.907  12.483
69466W        W41792  13.148  28.672  11.704
69467W        W41793   1.188   1.872   3.129
69468W        W41794  10.652  23.494  12.923
69469W        W41795  40.273  30.071   1.599
69470W        W41796   4.973  30.879  11.834
69471W        W41797  14.781  14.365   1.278
69472W        W41798  26.472  28.633  13.408
69473W        W41799  27.022  44.919   4.363
69474W        W41800   5.311   3.952  13.873
69475W        W41801  25.691  22.127   4.526
69476W        W41802  23.324  35.378   2.826
69477W        W41803  24.143  32.886   3.867
69478W        W41804  41.770  19.083  13.589
69479W        W41805  30.926  16.331   4.078
69480W        W41806  40.710   7.779  13.968
69481W        W41807  31.457  19.713   5.213
69482W        W41808   4.974   2.329   0.735
69483W        W41809  35.391   9.102  12.043
69484W        W41810   9.234  19.309   0.743
69485W        W41811  35.416  18.445   1.017
69486W        W41812  35.282  16.827   0.848
69487W        W41813  30.550  34.844   4.424
69488W        W41814  27.715  31.350  13.363
69489W        W41815  38.988  10.887   0.817
69490W        W41816   6.776  21.113  13.758
69491W        W41817   6.016   0.796  14.758
69492W        W41818   5.993  27.595   3.729
69493W        W41819   1.482  17.059  14.046
69494W        W41820   7.326  14.744   2.210
69495W        W41821  35.415  30.093   0.317
69496W        W41822  20.165   2.784   3.428
69497W        W41823  29.638  27.618  13.946
69498W        W41824  26.667  10.733  10.607
69499W        W41825  20.934  28.866   4.057
69500W        W41826  33.538  40.321  14.413
69501W        W41827  40.283  23.793   0.938
69502W        W41828   9.183  39.242  13.852
69503W        W41829  31.996  25.311  12.163
69504W        W41830  27.648  20.094  10.720
69505W        W41831  26.081  41.731   0.493
69506W        W41832  11.627  38.074  12.154
69507W        W41833  32.432   2.217   4.719
69508W        W41834  17.172  11.813  11.951
69509W        W41835  15.031   4.333   0.314
69510W        W41836  28.676   4.908  10.736
69511W        W41837  34.922  37.612   1.211
69512W        W41838  44.470  31.422   2.515
69513W        W41839  12.309  42.960  14.351
69514W        W41840  31.934  11.012   4.780
69515W        W41841  25.437   5.637  11.978
69516W        W41842  36.025  42.026   2.248
69517W        W41843  39.126  11.259   1.435
69518W        W41844  12.837  43.229   4.182
69519W        W41845  22.019   8.689  13.780
69520W        W41846  44.490   4.263   2.735
69521W        W41847  12.551  40.896  12.539
69522W        W41848  12.019  42.372   4.890
69523W        W41849  35.599  22.974  12.285
69524W        W41850  30.443  38.546  12.174
69525W        W41851  28.841  39.310   0.793
69526W        W41852  27.105   2.310  12.153
69527W        W41853  28.969  17.708  10.649
69528W        W41854   7.959   3.708  11.272
69529W        W41855  22.128  35.540   4.557
69530W        W41856  25.598  41.483   4.595
69531W        W41857  24.997  14.124   2.644
69532W        W41858  31.536  17.565   1.243
69533W        W41859   7.880  24.729  11.677
69534W        W41860   4.153  29.762  12.771
69535W        W41861   7.965  31.010   4.400
69536W        W41862   4.369  20.622   3.684
69537W        W41863  12.030   1.944  14.113
69538W        W41864  22.816  14.860   5.260
69539W        W41865   6.881  26.690  14.410
69540W        W41866  40.361  14.997  11.994
69541W        W41867  39.089  41.861   1.303
69542W        W41868  23.411   3.563   3.197
69543W        W41869  15.460   5.472  12.033
69544W        W41870  16.607  40.734   2.183
69545W        W41871  34.860  44.036   3.217
69546W        W41872   4.622  42.153   0.729
69547W        W41873  18.115  15.926   3.273
69548W        W41874  18.590  29.510   0.731
69549W        W41875   9.836   5.897  13.019
69550W        W41876  30.509   0.575   4.172
69551W        W41877  20.572  31.659   1.113
69552W        W41878   9.241  12.308  11.225
69553W        W41879  13.174  10.838  10.817
69554W        W41880  31.057  39.345  12.982
69555W        W41881  23.968  24.648  11.919
69556W        W41882  11.936   8.927  14.041
69557W        W41883  28.404  11.147   0.020
69558W        W41884  32.943  44.371  14.721
69559W        W41885  43.260  40.303  13.361
69560W        W41886  12.197  43.057   1.277
69561W        W41887  21.243  37.826  12.093
69562W        W41888  12.225  28.461   1.312
69563W        W41889  32.165   5.131   0.291
69564W        W41890  41.583   5.733   1.425
69565W        W41891   8.859  15.353  10.562
69566W        W41892   6.027  33.894   4.951
69567W        W41893  41.606  29.121  11.131
69568W        W41894  34.017  37.663  10.599
69569W        W41895   3.914  16.169   3.095
69570W        W41896  23.070  30.951  14.192
69571W        W41897  19.442  26.738   2.413
69572W        W41898  25.367  30.169   1.208
69573W        W41899   2.934  24.628   3.144
69574W        W41900   1.806  38.908   0.827
69575W        W41901   2.841  15.072  14.909
69576W        W41902  14.360  25.169   0.545
69577W        W41903  27.175  32.439  14.403
69578W        W41904  29.171  32.953   2.817
69579W        W41905  13.279  44.992  10.899
69580W        W41906  24.265  15.823  12.485
69581W        W41907  34.659  29.524  14.377
69582W        W41908  38.922   6.034   3.577
69583W        W41909  35.860  37.321   0.312
69584W        W41910  33.247  16.655   2.866
69585W        W41911   6.499  11.769  11.506
69586W        W41912  12.721  23.730  11.424
69587W        W41913   2.845  29.533  10.959
69588W        W41914   3.846  42.516  14.648
69589W        W41915   3.001   4.232  14.449
69590W        W41916  41.544  12.738  12.048
69591W        W41917  11.181  33.574   0.557
69592W        W41918  22.011  25.101  11.481
69593W        W41919  38.007  38.345  14.250
69594W        W41920  31.921  20.981   4.248
69595W        W41921  32.030  24.508  11.008
69596W        W41922  10.830  43.067  10.755
69597W        W41923   6.291  25.888   2.392
69598W        W41924   1.770   8.316   3.039
69599W        W41925  22.960  28.926   2.077
69600W        W41926  29.342   2.500  13.283
69601W        W41927  44.722  13.125  12.007
69602W        W41928  29.149  44.762  13.068
69603W        W41929  13.611  34.509   4.612
69604W        W41930  31.357   3.984  11.669
69605W        W41931   0.208   1.895   3.541
69606W        W41932  30.120  27.064  13.415
69607W        W41933  44.944   4.975  14.543
69608W        W41934  17.617  33.982   1.382
69609W        W41935  36.495   9.422   2.176
69610W        W41936  27.702  13.107   3.288
69611W        W41937  28.671   2.219  11.163
69612W        W41938  18.840  36.402  12.013
69613W        W41939  12.440  32.021   4.532
69614W        W41940   8.796  37.518  12.861
69615W        W41941  28.563  40.541  12.996
69616W        W41942  19.129  22.523   1.392
69617W        W41943  31.912   9.859   0.747
69618W        W41944  33.639   1.823   3.574
69619W        W41945  22.582  25.495   2.372
69620W        W41946  17.610   5.084   3.183
69621W        W41947   5.864  14.179  14.584
69622W        W41948  39.080  32.520   2.127
69623W        W41949  35.484  21.583   1.866
69624W        W41950  27.053  39.956  14.517
69625W        W41951  10.150  31.205   3.856
69626W        W41952   7.779  41.141  12.100
69627W        W41953  37.066  13.687  11.095
69628W        W41954   3.968  33.943   4.704
69629W        W41955   3.274  14.117  10.370
69630W        W41956  39.310  31.344   1.691
69631W        W41957  23.689   5.985  12.488
69632W        W41958  14.235  27.719  12.475
69633W        W41959  16.955  44.811  12.046
69634W        W41960  31.572  18.504   4.219
69635W        W41961  40.975  31.867   1.979
69636W        W41962   9.186  36.226   2.870
69637W        W41963  26.254   1.213   3.966
69638W        W41964  38.117  34.652   1.808
69639W        W41965  22.083   0.963  14.971
69640W        W41966  25.666  30.571  13.809
69641W        W41967  17.785  25.889  12.474
69642W        W41968   1.230  27.696  12.677
69643W        W41969  43.163  28.627  11.401
69644W        W41970  41.467  14.379  13.165
69645W        W41971  11.805  15.221   3.578
69646W        W41972  40.124  20.952   1.798
69647W        W41973  19.528  23.806  13.852
69648W        W41974  38.146   4.747   3.299
69649W        W41975  35.377  35.746   4.128
69650W        W41976   2.232  39.941   1.221
69651W        W41977  26.997  10.373   4.073
69652W        W41978   0.414  41.020   3.287
69653W        W41979  33.712  27.685  12.518
69654W        W41980  16.537  23.644  14.009
69655W        W41981  39.523  30.951  10.702
69656W        W41982   8.204  17.194   2.302
69657W        W41983   0.271   0.966  14.406
69658W        W41984  38.732  27.945  10.769
69659W        W41985  24.959  42.923   2.354
69660W        W41986   3.995  31.548   1.725
69661W        W41987  38.908  28.698  12.593
69662W        W41988  37.747  41.441   4.605
69663W        W41989   2.782  25.041  14.832
69664W        W41990  19.009   9.085   3.475
69665W        W41991  43.977  13.759  14.364
69666W        W41992   4.431  33.032   4.258
69667W        W41993  10.602  29.488   2.209
69668W        W41994  42.726   9.446  13.845
69669W        W41995  30.708  28.586  10.680
69670W        W41996   9.481   0.718  14.491
69671W        W41997  25.476  14.749   4.214
69672W        W41998  16.639  14.895   1.331
69673W        W41999  11.632   7.902   1.143
69674W        W42000   9.392   6.995  13.827
69675W        W42001  33.107  30.154  11.319
69676W        W42002  19.326  32.031   4.593
69677W        W42003   4.297  32.144  11.082
69678W        W42004   7.465  25.723  11.623
69679W        W42005  31.695   6.091  12.870
69680W        W42006  15.808   7.696   2.851
69681W        W42007  26.243   0.705  13.446
69682W        W42008   8.115  24.292  11.148
69683W        W42009   7.464  27.947  13.328
69684W        W42010  16.575  21.992  11.121
69685W        W42011  38.101  21.081  12.543
69686W        W42012  17.690  12.391   3.410
69687W        W42013  44.271  14.346   4.635
69688W        W42014  37.661  17.087  12.867
69689W        W42015  26.664   8.742   4.686
69690W        W42016   7.111   1.239   3.736
69691W        W42017  43.576  31.923   0.640
69692W        W42018  24.720   9.812   1.490
69693W        W42019   2.232   6.652   4.396
69694W        W42020  23.216  28.164   4.741
69695W        W42021  20.257  36.864   2.343
69696W        W42022  30.945  29.979  12.468
69697W        W42023   7.968  11.308  12.976
69698W        W42024  13.631  17.817   3.750
69699W        W42025  20.003   3.789   0.413
69700W        W42026  33.380  31.349   1.293
69701W        W42027  40.258  44.298  13.824
69702W        W42028  34.612  23.089   2.805
69703W        W42029  24.893  26.130  14.935
69704W        W42030   3.658  24.575  12.113
69705W        W42031   6.704  39.231  14.038
69706W        W42032  13.233   0.379  12.031
69707W        W42033   4.438  28.756  13.118
69708W        W42034  39.293  40.493  11.069
69709W        W42035  35.015  44.235  10.267
69710W        W42036  12.076   0.022   0.308
69711W        W42037  40.447  11.564   0.792
69712W        W42038  30.553  26.064   4.662
69713W        W42039  24.549  13.905  10.462
69714W        W42040  43.753  41.507   3.263
69715W        W42041   4.493   2.348   3.758
69716W        W42042  29.081   4.450  12.982
69717W        W42043  24.908  26.195  13.428
69718W        W42044  20.363  13.789  10.014
69719W        W42045  15.289  42.484  14.989
69720W        W42046  19.159  25.972  12.520
69721W        W42047  28.386  44.690   3.127
69722W        W42048  12.068  40.915  11.503
69723W        W42049  41.827  30.461  12.167
69724W        W42050  44.072  43.946  11.534
69725W        W42051   9.900  21.474   4.936
69726W        W42052  21.308  14.221   3.772
69727W        W42053  23.630   8.123  14.941
69728W        W42054  25.479   7.145   1.237
69729W        W42055  13.089  18.194  14.899
69730W        W42056  15.082  15.325   1.691
69731W        W42057  13.724  39.484  12.430
69732W        W42058  41.172  26.926  14.792
69733W        W42059  20.739   0.944  14.424
69734W        W42060  36.074  30.388  10.702
69735W        W42061  13.227   7.715  14.373
69736W        W42062   8.619  11.007   1.193
69737W        W42063  31.590  41.777   2.354
69738W        W42064   3.716  26.473  13.919
69739W        W42065  17.713  36.801  14.063
69740W        W42066  18.196  34.614  12.009
69741W        W42067  17.279  28.364  13.383
69742W        W42068  41.375  43.316   5.005
69743W        W42069  18.257  42.678  11.676
69744W        W42070   2.975  21.994  14.041
69745W        W42071  23.375  18.301   1.708
69746W        W42072  20.806  34.427  14.769
69747W        W42073  43.451  15.597   1.484
69748W        W42074  30.892  26.059  14.486
69749W        W42075  17.535  26.044  13.477
69750W        W42076  19.969   5.720   1.428
69751W        W42077  11.254  35.606  12.992
69752W        W42078  29.138  20.105  10.698
69753W        W42079  11.360  22.736  10.877
69754W        W42080   2.692  11.237  10.290
69755W        W42081   1.560  42.933  11.713
69756W        W42082  30.431  27.692   2.671
69757W        W42083  41.932  44.816  11.630
69758W        W42084  23.546  11.627  13.034
69759W        W42085  43.067  26.476  12.994
69760W        W42086  41.221  30.413  14.937
69761W        W42087  32.073   3.429  10.588
69762W        W42088   8.167  22.489   2.395
69763W        W42089   5.890   8.728  10.770
69764W        W42090  29.982   3.575  10.703
69765W        W42091  19.526  20.787  13.406
69766W        W42092  32.064  30.140   3.332
69767W        W42093   3.559  33.388   4.072
69768W        W42094  32.556  41.765  13.570
69769W        W42095  27.006  43.858   3.623
69770W        W42096  44.312  20.977  14.749
69771W        W42097  33.885  26.420  11.499
69772W        W42098  10.683   8.241   2.800
69773W        W42099  17.732  16.871   0.084
69774W        W42100   6.440  25.987   3.353
69775W        W42101  25.070   5.225   4.327
69776W        W42102  18.632  24.506  14.750
69777W        W42103   5.217  35.063  11.169
69778W        W42104  44.346  36.644  14.944
69779W        W42105  23.550  40.037   3.270
69780W        W42106  24.471  21.442   4.244
69781W        W42107  26.761  36.945   0.003
69782W        W42108  23.502  30.417   2.467
69783W        W42109  36.359  18.731   0.705
69784W        W42110  32.541  44.489   0.900
69785W        W42111  24.008  39.946  13.494
69786W        W42112   7.184  21.634   1.265
69787W        W42113  10.429  25.269   2.393
69788W        W42114   6.041   8.240   1.255
69789W        W42115  25.165   4.975  13.357
69790W        W42116  31.059  34.562   3.266
69791W        W42117  39.988  42.331   4.533
69792W        W42118  35.490   6.548   5.118
69793W        W42119  23.235  39.123  10.037
69794W        W42120  37.838   0.866  11.542
69795W        W42121  19.099   6.108  11.930
69796W        W42122  38.942  17.639   9.947
69797W        W42123  20.154   7.903  13.728
69798W        W42124  13.303  38.381  12.228
69799W        W42125  32.567  40.983  14.030
69800W        W42126   1.758  28.869  11.698
69801W        W42127  37.306  38.549  12.455
69802W        W42128  12.241  29.057   0.360
69803W        W42129  31.627  23.249   1.920
69804W        W42130  18.848  26.631   1.349
69805W        W42131  38.302  30.159  13.413
69806W        W42132   4.250  13.713   1.271
69807W        W42133  40.822   4.883   1.986
69808W        W42134  32.339  14.721  14.013
69809W        W42135  14.452  20.308  10.942
69810W        W42136  22.164  36.798  10.727
69811W        W42137  33.071   3.432  10.643
69812W        W42138  44.913  34.447   0.859
69813W        W42139  34.030  26.025  14.120
69814W        W42140  30.398  12.695  13.808
69815W        W42141   8.834  12.196   2.806
69816W        W42142  27.042  44.807   0.251
69817W        W42143   9.270  42.858   2.350
69818W        W42144  23.513  31.801   2.609
69819W        W42145  40.363   0.418   0.857
69820W        W42146  27.942   1.929  13.776
69821W        W42147  22.251  22.450  13.889
69822W        W42148  29.551  31.656   2.734
69823W        W42149  12.326  29.063   3.604
69824W        W42150   7.726  42.637  12.727
69825W        W42151  26.610  44.042   1.797
69826W        W42152  26.522  43.986  10.564
69827W        W42153  11.271   3.439   3.236
69828W        W42154  28.235   1.943   9.961
69829W        W42155   4.713   4.831  10.644
69830W        W42156  44.761  15.731   0.494
69831W        W42157  31.521  28.952  13.394
69832W        W42158  43.226  18.198  12.931
69833W        W42159   4.512  12.685   3.957
69834W        W42160   5.767  21.076   3.708
69835W        W42161  36.184  26.006   2.467
69836W        W42162   2.192  37.622   3.850
69837W        W42163  15.558  30.600  12.922
69838W        W42164  29.180  18.025   2.306
69839W        W42165   3.912  44.098  10.694
69840W        W42166  29.837  12.771   2.913
69841W        W42167   9.059  34.383   0.763
69842W        W42168   4.234  37.856   2.296
69843W        W42169   3.319  37.851  10.903
69844W        W42170  28.934  23.946  11.047
69845W        W42171  35.552  16.229   0.331
69846W        W42172  26.766   0.118  11.299
69847W        W42173  10.712  28.147  13.450
69848W        W42174  33.151  20.223  11.032
69849W        W42175  19.806  23.105   3.807
69850W        W42176  35.400  32.899  10.743
69851W        W42177  16.749  13.647  10.584
69852W        W42178  12.848  34.429   4.119
69853W        W42179   9.192   4.708  13.454
69854W        W42180  13.784  18.122  13.212
69855W        W42181  15.128  17.681   0.704
69856W        W42182  13.108  16.480   4.441
69857W        W42183  18.890  27.179   2.358
69858W        W42184  24.663  14.188  13.035
69859W        W42185  21.128  42.454  13.982
69860W        W42186  32.378  44.529  14.260
69861W        W42187  19.777  28.985  14.154
69862W        W42188  31.481  31.175   2.230
69863W        W42189  29.335   9.685   2.180
69864W        W42190  44.063  17.057   2.988
69865W        W42191  24.521  42.516  14.656
69866W        W42192   7.795  19.251   1.867
69867W        W42193  18.067  40.299   0.951
69868W        W42194  19.024   6.500   3.307
69869W        W42195  29.182  27.150   4.035
69870W        W42196  21.413  12.683   1.921
69871W        W42197  36.662  35.349   1.589
69872W        W42198  40.879   0.421   4.090
69873W        W42199  22.211  30.254   3.891
69874W        W42200  37.466  38.598  10.750
69875W        W42201  31.893  36.674   1.779
69876W        W42202   0.934  37.135   0.790
69877W        W42203  19.926  24.084   0.959
69878W        W42204  22.090  33.429  10.594
69879W        W42205   9.620  26.517  14.777
69880W        W42206  25.257  23.604   2.704
69881W        W42207  37.437  40.242  13.143
69882W        W42208  33.034  29.084  10.990
69883W        W42209  29.356  41.329  13.013
69884W        W42210  31.635  23.769   1.319
69885W        W42211   9.725  40.308   1.391
69886W        W42212  21.160  22.611   3.796
69887W        W42213  29.167   8.761  13.980
69888W        W42214   4.833  37.995  10.064
69889W        W42215  12.768  28.441   3.301
69890W        W42216  15.507  11.014   0.424
69891W        W42217   3.693   5.305   2.417
69892W        W42218  40.297  26.641  13.339
69893W        W42219  11.199  30.938   3.150
69894W        W42220  18.521  12.380   3.677
69895W        W42221  10.151  37.648   4.218
69896W        W42222  20.503  23.209  14.621
69897W        W42223  19.816  41.494  13.363
69898W        W42224  24.272  28.154   2.626
69899W        W42225  41.855   1.936  11.659
69900W        W42226  27.522  30.237  14.581
69901W        W42227  27.213  28.543   1.966
69902W        W42228   2.380   8.470   0.694
69903W        W42229   2.693  39.391  13.558
69904W        W42230   8.222  21.033  13.528
69905W        W42231  17.637  43.242   2.372
69906W        W42232  24.583  36.854  11.161
69907W        W42233  12.646   3.452  11.280
69908W        W42234   5.835  33.588   0.787
69909W        W42235   7.343  29.619   0.194
69910W        W42236   2.909  20.225   0.395
69911W        W42237  39.057  30.544  13.988
69912W        W42238   0.692  22.191  10.966
69913W        W42239  28.568  24.729   2.476
69914W        W42240  37.565  21.872   3.808
69915W        W42241   2.906   0.945   2.338
69916W        W42242  29.780  44.905  11.996
69917W        W42243  23.196  13.327   0.268
69918W        W42244  32.417  39.491  11.147
69919W        W42245   2.589  38.783  13.949
69920W        W42246  43.369  16.819  13.184
69921W        W42247   4.722  26.780   2.404
69922W        W42248  21.085  28.889   4.551
69923W        W42249  11.998  16.769  11.543
69924W        W42250  29.340  18.767   0.316
69925W        W42251   0.930  36.809   0.362
69926W        W42252  10.585  12.530   0.779
69927W        W42253  29.519  35.877  10.283
69928W        W42254  11.598  37.861   3.781
69929W        W42255  27.372  14.315   1.106
69930W        W42256  27.631  44.188  14.066
69931W        W42257  12.544   5.874  13.453
69932W        W42258  27.663  15.175   0.666
69933W        W42259  16.697  22.747  12.688
69934W        W42260  35.509  43.353   2.791
69935W        W42261  10.169   2.916  12.104
69936W        W42262  19.471  18.402   1.373
69937W        W42263  16.293  38.762   4.038
69938W        W42264  42.928  17.106   0.270
69939W        W42265   7.148  39.975   1.160
69940W        W42266  25.406  27.681   4.398
69941W        W42267  30.460   1.086   4.087
69942W        W42268  30.013  27.008   1.443
69943W        W42269  25.271   1.636  14.905
69944W        W42270  34.199  43.936  10.714
69945W        W42271   8.154  36.795  13.791
69946W        W42272  42.932   4.812   0.430
69947W        W42273  44.725   3.500   1.814
69948W        W42274  18.081  33.611  12.014
69949W        W42275   9.139   2.440   3.247
69950W        W42276  31.584  14.228   1.911
69951W        W42277  24.601   4.598  13.749
69952W        W42278  15.193   5.496  12.479
69953W        W42279  15.916  40.992   3.190
69954W        W42280  13.865  25.971   3.465
69955W        W42281  34.887  16.687   1.150
69956W        W42282  13.741  21.184   0.264
69957W        W42283   4.788  35.816  11.079
69958W        W42284  21.919  41.786   4.518
69959W        W42285  22.525  18.735  11.805
69960W        W42286  44.700  13.310  10.609
69961W        W42287  27.687  14.284  12.019
69962W        W42288  27.043   1.284  12.090
69963W        W42289  18.924  41.545  12.571
69964W        W42290  29.050  21.030  11.516
69965W        W42291  33.114  35.376   3.185
69966W        W42292   1.671  16.977   3.394
69967W        W42293  12.173  44.610  12.573
69968W        W42294  34.955  38.473  12.428
69969W        W42295  14.636  11.800   1.263
69970W        W42296  19.428   2.832   2.194
69971W        W42297  33.936  32.887  13.372
69972W        W42298  17.750  40.535  10.635
69973W        W42299  41.292  10.556   1.358
69974W        W42300  22.083  17.218   1.313
69975W        W42301   0.582  36.762  13.382
69976W        W42302  41.536  41.083   1.586
69977W        W42303  42.393  13.090  10.640
69978W        W42304  27.178  17.615   4.562
69979W        W42305   0.415  16.282   3.748
69980W        W42306   4.198  27.273  12.863
69981W        W42307  28.849  20.149  11.642
69982W        W42308  26.890  28.122   1.833
69983W        W42309  42.732  21.361   2.288
69984W        W42310  34.519  28.960  12.374
69985W        W42311  20.489  38.040  11.434
69986W        W42312  33.629   1.228   3.515
69987W        W42313  15.540  15.628   3.196
69988W        W42314  28.490  10.339  10.746
69989W        W42315  10.730  27.065   1.101
69990W        W42316  10.887   0.297  11.984
69991W        W42317  25.813   6.213  14.315
69992W        W42318  24.527  43.835   0.301
69993W        W42319  32.073  15.591   0.213
69994W        W42320  38.609  10.478   0.685
69995W        W42321  13.580  40.091   0.866
69996W        W42322   5.495   5.119  11.195
69997W        W42323  30.355  19.261   2.824
69998W        W42324  36.801   8.699   4.177
69999W        W42325   6.970  13.381   3.062
70000W        W42326  38.979  22.014  13.035
70001W        W42327  25.051  43.324   1.274
70002W        W42328  30.730  18.875   4.010
70003W        W42329  41.498  26.967  13.841
70004W        W42330   7.219  13.852   2.743
70005W        W42331  11.861  19.841   2.257
70006W        W42332  28.955  27.334  11.148
70007W        W42333  23.121  24.613   2.962
70008W        W42334   2.755  10.054   5.012
70009W        W42335  28.920  30.414  13.498
70010W        W42336  37.464  42.034  11.181
70011W        W42337  37.396  44.457   3.760
70012W        W42338  23.778   3.883   2.439
70013W        W42339  36.601   7.733   3.643
70014W        W42340   8.985  15.568  13.170
70015W        W42341  11.494  36.333   2.204
70016W        W42342  16.090  40.884   2.189
70017W        W42343  25.211   6.262  10.646
70018W        W42344  43.468  36.508  13.845
70019W        W42345  34.915  35.393  13.633
70020W        W42346  25.655  32.750   2.419
70021W        W42347  33.380  38.363  11.157
70022W        W42348  26.104   9.405  13.797
70023W        W42349  20.896   8.077   4.699
70024W        W42350  20.636  31.372  14.458
70025W        W42351  37.116  14.081  10.775
70026W        W42352  26.792  31.009   3.721
70027W        W42353  12.763  13.644   4.584
70028W        W42354  16.349  29.214   5.095
70029W        W42355  38.650  44.858   1.238
70030W        W42356  19.142   7.384   0.326
70031W        W42357  30.636  32.805   1.386
70032W        W42358  35.283  22.640  14.858
70033W        W42359  27.200  44.409   4.210
70034W        W42360  39.013  17.087  11.380
70035W        W42361  33.723   9.659  12.512
70036W        W42362  36.407  38.856   0.887
70037W        W42363   1.515  32.084  12.409
70038W        W42364  28.631   4.663  14.952
70039W        W42365  28.814  33.443   3.881
70040W        W42366  15.682  12.751   1.720
70041W        W42367  29.930   8.933   1.409
70042W        W42368  21.455  33.903   0.918
70043W        W42369  33.653  30.197   0.781
70044W        W42370   5.500  42.326   4.147
70045W        W42371  12.791   8.299  10.561
70046W        W42372  44.794  44.602  14.337
70047W        W42373   3.788  26.364  14.739
70048W        W42374  21.401  14.581   1.055
70049W        W42375  41.281   9.547   3.741
70050W        W42376  10.373  20.079  11.161
70051W        W42377  27.897   5.720  12.032
70052W        W42378  20.320   3.930   4.695
70053W        W42379  21.714   1.810   0.881
70054W        W42380  31.475  28.500   1.780
70055W        W42381  40.062  27.578  14.376
70056W        W42382  24.122  15.983  11.087
70057W        W42383  39.879  12.595  13.369
70058W        W42384  23.933   3.498   3.199
70059W        W42385   0.413  34.057   1.282
70060W        W42386  18.250  17.714   2.479
70061W        W42387  32.673  40.077   3.327
70062W        W42388  43.406  39.548   1.862
70063W        W42389  44.368  18.565   0.019
70064W        W42390  30.103  31.246  12.604
70065W        W42391  35.470   5.487   3.319
70066W        W42392  29.494   4.271  11.567
70067W        W42393  22.996  15.845  11.701
70068W        W42394  40.954  16.199  13.848
70069W        W42395   8.195   5.784   4.791
70070W        W42396  12.905   6.738  12.091
70071W        W42397  34.651  20.546   1.885
70072W        W42398   0.926  42.161   0.163
70073W        W42399  26.835   5.913   0.609
70074W        W42400  43.233   3.745   1.897
70075W        W42401  12.624  19.959   1.359
70076W        W42402  17.106  15.718   3.976
70077W        W42403  43.801  44.300   4.105
70078W        W42404   5.232  20.592  13.796
70079W        W42405  32.903  27.894   1.621
70080W        W42406  19.494  40.891   3.954
70081W        W42407  31.564  38.966   1.121
70082W        W42408   3.443  41.465   0.872
70083W        W42409  18.143  19.831  12.075
70084W        W42410  30.616  27.229   1.752
70085W        W42411  28.993  41.227   0.713
70086W        W42412  27.221  24.546   3.755
70087W        W42413  18.585  30.891  10.648
70088W        W42414  17.627  36.363  13.817
70089W        W42415  13.857   7.889   4.102
70090W        W42416  38.663  10.954  11.510
70091W        W42417   9.788  23.211   3.046
70092W        W42418  36.945  29.484  13.859
70093W        W42419  14.621  30.994  13.498
70094W        W42420  37.503  28.032  12.608
70095W        W42421   5.413  25.586   4.049
70096W        W42422  11.694  37.084  12.422
70097W        W42423   6.754  18.818   1.692
70098W        W42424  30.514   5.336  13.312
70099W        W42425   3.702  27.672   4.319
70100W        W42426   1.281   2.384   1.913
70101W        W42427  16.067   8.653  14.312
70102W        W42428  36.296  37.539  12.364
70103W        W42429  17.402  31.566  13.544
70104W        W42430  13.085  44.229  11.528
70105W        W42431  33.995  23.220   2.667
70106W        W42432  43.145   6.331  10.310
70107W        W42433  40.826  19.628   4.593
70108W        W42434  23.225  29.009  12.372
70109W        W42435   3.841   7.998   2.769
70110W        W42436  35.528  41.637  14.038
70111W        W42437  44.755  23.016  13.371
70112W        W42438  41.261  18.713   0.343
70113W        W42439  17.176  41.914   2.246
70114W        W42440  22.165  25.217   1.247
70115W        W42441  41.684  27.986  13.659
70116W        W42442  36.128  35.314   2.843
70117W        W42443   6.985   6.841  14.864
70118W        W42444  30.846  30.081  10.866
70119W        W42445  24.361  43.268  13.962
70120W        W42446  10.194  10.412  13.536
70121W        W42447  28.607  16.274   0.766
70122W        W42448  32.592  32.710  10.526
70123W        W42449  22.739   2.744  12.517
70124W        W42450  16.383  18.120   0.861
70125W        W42451  20.946  33.548   1.861
70126W        W42452  38.557  13.349   1.404
70127W        W42453   4.829  33.080  11.555
70128W        W42454  30.926  31.047   2.490
70129W        W42455  29.046  30.603   1.813
70130W        W42456  25.875  11.375  14.949
70131W        W42457  10.614   9.831  10.773
70132W        W42458   6.853  20.042   2.555
70133W        W42459  23.308  33.712  11.042
70134W        W42460  27.373  12.119  11.064
70135W        W42461  39.238  44.929  12.240
70136W        W42462  35.480  37.881  13.108
70137W        W42463  10.209  23.245   3.324
70138W        W42464  10.372  26.091  10.983
70139W        W42465   5.407  25.529   3.515
70140W        W42466   4.875  14.130   1.164
70141W        W42467  34.629  24.951   4.217
70142W        W42468  18.251  27.212   2.964
70143W        W42469  15.842  21.646   1.317
70144W        W42470  26.900  22.933  11.636
70145W        W42471  14.597   6.693   1.281
70146W        W42472  28.660  10.856  10.801
70147W        W42473  27.781  40.905   2.273
70148W        W42474   2.749  39.985   4.683
70149W        W42475  17.058  30.732  10.234
70150W        W42476  30.295   3.040  12.112
70151W        W42477  26.597  14.631   2.448
70152W        W42478  39.119  33.094   3.938
70153W        W42479  18.444  13.196  12.439
70154W        W42480  34.595  11.142  11.134
70155W        W42481  35.808  44.840   4.289
70156W        W42482  29.019  34.143  14.261
70157W        W42483  19.317  24.667   4.358
70158W        W42484  16.884  21.079  13.536
70159W        W42485   9.259   2.987  14.019
70160W        W42486  41.780  17.300   1.838
70161W        W42487  24.919   6.776   2.878
70162W        W42488  26.037   8.479   4.462
70163W        W42489  33.063  31.542   3.365
70164W        W42490  16.724   1.458   4.002
70165W        W42491  29.184  19.663  13.395
70166W        W42492  27.545  30.384   4.232
70167W        W42493  32.915   4.653   4.213
70168W        W42494  21.539  18.578  11.913
70169W        W42495  25.594   3.767  11.382
70170W        W42496  25.586  19.680   1.625
70171W        W42497  13.426  17.849   4.235
70172W        W42498  25.556  22.725   2.581
70173W        W42499  42.836  15.927   3.323
70174W        W42500  12.819  18.326  13.976
70175W        W42501   8.801  32.014  14.615
70176W        W42502  40.439  34.430  12.508
70177W        W42503  17.806  40.723  11.126
70178W        W42504  17.348  32.831   3.671
70179W        W42505   2.368  15.443   2.718
70180W        W42506   3.477   8.890   2.803
70181W        W42507   7.783  13.143   2.199
70182W        W42508  37.784  44.465   3.394
70183W        W42509  42.196  44.285   1.448
70184W        W42510  37.090  31.482   4.094
70185W        W42511  29.459  38.465   3.822
70186W        W42512  34.192   0.212   2.868
70187W        W42513  21.968  29.544  11.530
70188W        W42514  21.974   1.335   2.289
70189W        W42515  31.390  36.980  13.197
70190W        W42516   1.818  10.640   3.292
70191W        W42517  38.942  15.572  12.661
70192W        W42518  11.282  35.626  13.942
70193W        W42519  17.523  27.621   2.315
70194W        W42520  30.873  10.409   0.949
70195W        W42521   6.734  35.799   3.336
70196W        W42522  42.057  14.139   1.212
70197W        W42523  16.072  15.641   4.051
70198W        W42524   8.295  36.142  11.433
70199W        W42525  21.146  12.274  14.134
70200W        W42526  29.245  18.538   2.247
70201W        W42527   4.431  16.831   0.913
70202W        W42528  20.354  28.555  13.360
70203W        W42529  22.633  42.726  11.952
70204W        W42530   4.273   3.681   5.021
70205W        W42531  33.579   8.890   3.669
70206W        W42532   4.698  21.974   0.740
70207W        W42533  40.798   6.310  11.998
70208W        W42534   4.887  39.329  13.912
70209W        W42535  31.305  12.827  12.465
70210W        W42536  40.962  12.872   4.133
70211W        W42537   1.933  11.397   4.068
70212W        W42538  33.951  37.379   2.433
70213W        W42539  18.478   2.734  11.110
70214W        W42540   9.923  14.173   4.983
70215W        W42541  26.999  37.582  13.743
70216W        W42542  44.508  40.678  11.658
70217W        W42543  35.310  18.137   2.643
70218W        W42544  38.071   0.969  13.971
70219W        W42545  40.014  26.569  10.631
70220W        W42546  24.456  24.641   4.756
70221W        W42547  26.636  42.912   4.185
70222W        W42548  29.431  40.011   0.106
70223W        W42549  28.462  18.947   0.568
70224W        W42550  34.347  13.285  12.938
70225W        W42551  34.454   0.486   3.220
70226W        W42552  28.406  24.505   0.358
70227W        W42553  31.465  22.740   2.676
70228W        W42554  24.452  29.039   1.678
70229W        W42555   4.945  34.338   1.965
70230W        W42556  42.368   2.272   2.385
70231W        W42557   0.857   4.269   1.416
70232W        W42558  30.582   5.734  14.922
70233W        W42559  29.157   8.902   3.698
70234W        W42560  42.506   7.501   2.092
70235W        W42561   5.336  42.535   0.306
70236W        W42562  33.140  17.666  12.066
70237W        W42563  14.583  37.816  11.516
70238W        W42564  34.081   9.073  12.941
70239W        W42565  21.493  10.256  13.570
70240W        W42566   6.186   1.255   3.915
70241W        W42567  34.153  24.653  12.441
70242W        W42568  34.428  21.710   2.666
70243W        W42569  14.378  36.374  13.986
70244W        W42570   3.843  13.357  11.110
70245W        W42571   6.746  36.050   1.447
70246W        W42572  37.351  20.728  13.544
70247W        W42573  30.421   9.046   4.129
70248W        W42574  20.012   2.698  12.018
70249W        W42575   9.313   1.664   1.766
70250W        W42576   3.657  17.574  14.829
70251W        W42577   6.835  26.070  10.641
70252W        W42578  41.466   3.731   3.105
70253W        W42579  10.125   3.600   0.164
70254W        W42580  37.840  14.340  11.464
70255W        W42581  23.753   4.564  14.048
70256W        W42582  26.244  17.533   3.361
70257W        W42583  29.594   9.257   4.662
70258W        W42584  42.267  14.700  12.058
70259W        W42585  40.781  28.328  10.488
70260W        W42586   5.363   0.514  14.028
70261W        W42587  23.780  37.883   3.253
70262W        W42588  39.996  41.264  14.839
70263W        W42589  31.221   8.711   2.325
70264W        W42590  36.316  36.204  10.265
70265W        W42591  33.966  29.716   4.511
70266W        W42592  41.235  19.467   1.898
70267W        W42593  32.187  14.715  12.638
70268W        W42594  32.339  43.990  12.075
70269W        W42595  20.571   7.818  14.028
70270W        W42596   8.052  35.461  12.503
70271W        W42597   5.543  38.895   1.410
70272W        W42598   4.711  23.598  13.968
70273W        W42599  33.898   3.883  12.421
70274W        W42600  16.829  18.137  10.401
70275W        W42601  23.201  34.043   1.313
70276W        W42602  22.784  37.908   4.979
70277W        W42603  39.795  21.011   2.574
70278W        W42604  23.201  16.090  14.274
70279W        W42605  35.072  43.790  10.514
70280W        W42606  37.699  18.114   3.985
70281W        W42607  30.059  11.774   4.231
70282W        W42608  41.609  26.054  10.758
70283W        W42609   9.503  44.938  13.210
70284W        W42610  42.854   5.646  14.582
70285W        W42611  24.493  13.206  14.990
70286W        W42612   7.853  43.295   0.924
70287W        W42613  35.548   6.637  12.386
70288W        W42614  25.083  30.183   0.340
70289W        W42615   2.099   1.487   1.427
70290W        W42616  41.106   7.543  13.324
70291W        W42617  16.750  41.042  14.577
70292W        W42618  24.059  27.932  13.369
70293W        W42619  40.838   0.292   2.599
70294W        W42620  13.349  37.510  12.511
70295W        W42621  26.005   6.949  13.818
70296W        W42622  26.047  21.729  11.441
70297W        W42623  42.813  27.723  14.516
70298W        W42624  43.722  41.810   1.764
70299W        W42625   3.176  25.113  12.304
70300W        W42626  18.064  17.989  14.768
70301W        W42627  29.210  42.779  14.107
70302W        W42628  26.185  30.099  13.469
70303W        W42629  34.317   1.330   0.061
70304W        W42630  12.818  19.715  14.292
70305W        W42631  37.777   9.885   1.283
70306W        W42632  14.173  13.617  13.371
70307W        W42633  30.068  22.969  14.646
70308W        W42634  38.170  36.369   1.870
70309W        W42635  23.437   8.201   3.718
70310W        W42636   1.453  22.550   3.601
70311W        W42637   0.716  28.176   2.361
70312W        W42638  24.464  22.910  11.263
70313W        W42639  40.983   0.265  13.439
70314W        W42640   6.760   1.449   2.196
70315W        W42641   6.286  36.987   1.040
70316W        W42642  33.355  16.064  12.854
70317W        W42643  24.061  43.070  11.121
70318W        W42644  12.430  44.053  13.276
70319W        W42645  33.141  21.684  14.146
70320W        W42646   8.174  32.626  14.316
70321W        W42647  25.555  11.109   0.989
70322W        W42648  22.137  35.819   0.238
70323W        W42649  37.419  27.983  14.450
70324W        W42650  40.432   7.615  12.138
70325W        W42651  40.769  12.702  11.572
70326W        W42652  33.369  24.098  11.042
70327W        W42653  34.950  27.978   1.668
70328W        W42654  15.206  25.161   1.677
70329W        W42655  28.778  17.647   2.349
70330W        W42656  35.645  25.279   1.466
70331W        W42657   9.907  24.005  13.852
70332W        W42658  14.051  15.635  14.029
70333W        W42659   9.790  27.621   3.421
70334W        W42660   5.216   2.949  11.146
70335W        W42661   5.131  30.458   2.820
70336W        W42662   5.876  32.668   4.045
70337W        W42663  25.649  30.216  14.834
70338W        W42664   8.229  27.058  14.289
70339W        W42665  32.427  39.059  13.820
70340W        W42666  18.295  41.000   2.647
70341W        W42667  17.700  41.408  14.836
70342W        W42668  17.664   9.608  13.884
70343W        W42669  37.315   9.788  12.303
70344W        W42670  17.825  37.357  12.883
70345W        W42671  39.348  33.568  10.662
70346W        W42672  28.494   4.008   1.972
70347W        W42673  18.622  31.416  10.537
70348W        W42674   8.314  27.710  14.845
70349W        W42675  19.227   5.769  14.250
70350W        W42676  11.951  19.140  10.479
70351W        W42677  39.080  40.964  11.192
70352W        W42678   7.819  31.063  11.436
70353W        W42679  17.038  30.055  10.582
70354W        W42680  14.574  16.325   4.618
70355W        W42681  25.125   5.423  13.918
70356W        W42682  35.739  32.091  11.125
70357W        W42683  10.911  13.697   2.581
70358W        W42684  39.429  12.318  14.511
70359W        W42685  36.861  16.066  11.067
70360W        W42686  43.311  35.666  10.438
70361W        W42687  20.220  40.537   2.889
70362W        W42688  36.686   6.468  12.785
70363W        W42689  13.381  43.452  12.064
70364W        W42690  36.682  10.860  11.112
70365W        W42691   3.246  23.195   1.260
70366W        W42692  42.260  12.654  13.805
70367W        W42693  15.965  30.161  13.996
70368W        W42694  23.764  19.752  13.332
70369W        W42695   1.443  11.149   4.284
70370W        W42696   7.281  39.108   0.365
70371W        W42697  30.926  32.476   0.675
70372W        W42698   8.954  35.860   4.158
70373W        W42699  22.450   3.157  13.351
70374W        W42700  24.037  27.996  11.622
70375W        W42701  32.802  23.266   1.144
70376W        W42702   9.052   0.882  11.827
70377W        W42703  44.476   4.413   1.344
70378W        W42704  15.765  22.475   4.621
70379W        W42705   5.816   9.697   4.524
70380W        W42706   4.602  26.687   1.452
70381W        W42707  32.071  44.278   1.350
70382W        W42708  21.968  19.536   0.550
70383W        W42709  26.918  15.587  12.115
70384W        W42710  14.660  40.992   4.330
70385W        W42711  36.118  17.046  10.602
70386W        W42712  42.458  44.361  14.927
70387W        W42713  34.746  38.844  12.110
70388W        W42714  25.566  44.961   2.597
70389W        W42715  41.796  15.990  12.191
70390W        W42716  24.501   1.026   4.261
70391W        W42717   8.114  20.172  11.193
70392W        W42718  26.226  32.121   3.699
70393W        W42719  37.216  17.603   4.627
70394W        W42720  18.266  36.210  12.028
70395W        W42721  18.107  11.333  11.936
70396W        W42722  17.260   8.456   0.497
70397W        W42723   9.879  24.162   1.407
70398W        W42724  39.836  31.664  11.093
70399W        W42725   1.775   9.651   4.992
70400W        W42726  35.799  12.012   1.691
70401W        W42727  10.179  14.168  13.835
70402W        W42728  22.179  32.263  14.978
70403W        W42729  38.957   3.416   0.456
70404W        W42730  40.683  44.672  11.219
70405W        W42731  44.709  33.104  14.258
70406W        W42732  10.684  30.452   2.777
70407W        W42733  28.072  24.984   1.349
70408W        W42734  14.838  42.223   2.856
70409W        W42735  40.417  23.114   2.326
70410W        W42736  42.890  18.589  13.511
70411W        W42737   9.151  12.568  11.854
70412W        W42738  11.623   9.446   3.744
70413W        W42739   6.691  22.041  14.985
70414W        W42740  26.457  10.366  14.458
70415W        W42741  25.640  27.080   2.264
70416W        W42742  42.038   1.803   0.441
70417W        W42743  32.566  15.423  14.810
70418W        W42744  27.629  22.659   4.149
70419W        W42745   1.017   9.330  13.500
70420W        W42746  11.859  38.832  10.699
70421W        W42747  23.113   1.827   4.246
70422W        W42748  20.310   2.362   0.212
70423W        W42749  42.283  31.410  13.802
70424W        W42750   6.017  21.176  12.547
70425W        W42751  20.027   1.395   2.653
70426W        W42752  15.769  21.079  10.184
70427W        W42753   8.884  24.284   2.252
70428W        W42754  19.785  27.601  10.581
70429W        W42755   5.659  27.904  14.515
70430W        W42756  18.624  25.927   0.227
70431W        W42757  18.722  20.534  12.841
70432W        W42758   9.888  18.363  11.657
70433W        W42759  12.815  26.517  12.046
70434W        W42760  38.842  21.466  10.617
70435W        W42761   6.962  34.030  12.662
70436W        W42762  36.699  33.558   0.282
70437W        W42763  34.290  39.841  12.031
70438W        W42764  36.033  17.758  14.398
70439W        W42765  40.259  12.420   4.462
70440W        W42766  36.866  12.291  11.850
70441W        W42767  25.095   1.334  12.514
70442W        W42768  30.349  19.600  14.794
70443W        W42769  14.156   1.857   2.567
70444W        W42770   9.819  36.287   1.384
70445W        W42771   8.422  35.529  12.125
70446W        W42772  33.946  20.220  14.605
70447W        W42773  36.101  26.957   2.250
70448W        W42774  16.325  19.778   1.684
70449W        W42775  33.386   9.246  12.416
70450W        W42776  18.160   1.385  11.365
70451W        W42777   6.019  37.651   1.387
70452W        W42778  39.428  29.999   3.324
70453W        W42779  13.624  35.390   2.623
70454W        W42780   4.217  36.234  13.270
70455W        W42781  14.371   7.272  13.095
70456W        W42782  34.096   8.161   3.195
70457W        W42783  12.986  30.389  13.847
70458W        W42784  24.969  38.962  12.966
70459W        W42785  21.819   5.284   2.675
70460W        W42786  25.217  24.316  11.144
70461W        W42787  27.539   1.946   0.987
70462W        W42788  35.477   9.275  14.383
70463W        W42789  34.337  27.184  10.781
70464W        W42790  34.588   4.692   4.085
70465W        W42791  12.651  25.659   1.413
70466W        W42792  17.336  39.813  13.300
70467W        W42793   8.468  33.417   3.209
70468W        W42794  17.027  36.650   2.273
70469W        W42795   3.068   5.593  11.871
70470W        W42796  39.730  42.979  14.455
70471W        W42797  42.860  17.361   4.653
70472W        W42798  33.646  26.645   4.546
70473W        W42799  32.877   8.661   0.340
70474W        W42800  24.618  28.236   4.877
70475W        W42801   8.815   5.647  13.002
70476W        W42802  13.696   4.379   1.815
70477W        W42803  42.321   9.712   3.194
70478W        W42804   8.427  37.983  14.754
70479W        W42805  35.837  34.385   1.232
70480W        W42806  31.537  24.722   1.403
70481W        W42807  39.130  40.840  11.964
70482W        W42808  27.726  40.079  13.913
70483W        W42809  27.550   5.289   2.390
70484W        W42810  31.463  30.219   3.630
70485W        W42811   5.930  14.620   1.770
70486W        W42812  13.657  39.065   0.773
70487W        W42813  19.612  41.797   1.657
70488W        W42814   0.451   9.231   1.592
70489W        W42815  39.306  42.143   2.816
70490W        W42816   3.209  12.797  12.911
70491W        W42817  29.251  44.296   0.998
70492W        W42818   3.123   3.033   3.571
70493W        W42819   0.487  29.488  14.815
70494W        W42820   7.908  22.231   0.974
70495W        W42821  21.060  32.553   0.998
70496W        W42822  18.983  37.070  13.296
70497W        W42823  13.094   6.854   4.600
70498W        W42824  19.167  33.858   4.838
70499W        W42825  15.565  19.556  14.807
70500W        W42826  30.655  17.702  11.944
70501W        W42827  29.939  31.398   1.112
70502W        W42828  28.426  39.335  13.818
70503W        W42829   6.391   8.251   4.681
70504W        W42830  32.584  34.281  14.935
70505W        W42831  39.613  27.037  14.912
70506W        W42832  26.704  12.560   1.901
70507W        W42833  12.595  27.315  10.199
70508W        W42834   5.283  36.072  13.819
70509W        W42835  21.342  15.103   1.100
70510W        W42836  24.137   1.520   4.158
70511W        W42837   6.787  28.853   2.203
70512W        W42838  21.144  20.223   2.472
70513W        W42839  38.403  35.260  14.982
70514W        W42840  16.363  20.554  12.022
70515W        W42841  17.129  22.509   2.875
70516W        W42842  15.158  37.090  12.439
70517W        W42843  16.653  32.834  13.757
70518W        W42844   4.297  36.643   4.378
70519W        W42845   2.343  37.039  12.983
70520W        W42846  15.048  38.523  12.054
70521W        W42847  38.103  33.018  14.689
70522W        W42848   6.330  30.706   3.114
70523W        W42849   8.501  25.293  14.715
70524W        W42850  44.414  24.271   1.277
70525W        W42851  17.022  32.979  12.516
70526W        W42852  15.443   1.624   2.199
70527W        W42853   3.108  32.088   2.338
70528W        W42854   4.417  32.857   3.379
70529W        W42855   9.601  34.449   2.300
70530W        W42856   4.872  27.663   1.231
70531W        W42857  37.957  28.057   0.711
70532W        W42858   1.909  12.311   4.541
70533W        W42859   9.097  14.624   0.706
70534W        W42860  18.145  15.739  10.461
70535W        W42861  44.967  38.378  10.947
70536W        W42862  22.196  30.973  14.167
70537W        W42863  26.673  34.750  11.632
70538W        W42864  41.601  30.491   1.523
70539W        W42865  32.608  19.140  13.907
70540W        W42866  13.639  16.252   4.694
70541W        W42867  10.224  27.278   3.486
70542W        W42868  40.124  29.564   1.728
70543W        W42869  43.200   7.101  11.115
70544W        W42870  13.341  13.066  12.256
70545W        W42871  44.923   7.441   1.888
70546W        W42872  33.490  24.446  14.355
70547W        W42873  41.657  41.440   3.270
70548W        W42874  32.885   2.244   1.626
70549W        W42875  29.856  14.284   1.336
70550W        W42876  41.086   4.931  14.366
70551W        W42877  22.732  40.857   0.352
70552W        W42878  41.468  44.231  11.121
70553W        W42879  24.525  11.274   0.004
70554W        W42880  20.490  22.067   2.329
70555W        W42881  12.714  41.752   0.350
70556W        W42882  38.799  23.167   4.991
70557W        W42883  18.495  21.551  13.943
70558W        W42884   0.778  32.546  14.724
70559W        W42885  43.420  41.791  12.213
70560W        W42886  16.841  41.203   0.051
70561W        W42887  19.958  19.174  11.679
70562W        W42888  23.074  20.393   2.508
70563W        W42889  28.291  25.648   2.817
70564W        W42890  29.385  20.112   4.187
70565W        W42891  30.560   7.169   3.661
70566W        W42892  21.254  23.960   0.468
70567W        W42893  14.182  28.027  14.079
70568W        W42894  18.538  21.602  11.172
70569W        W42895  12.635  32.831   0.869
70570W        W42896  19.534  42.582  14.487
70571W        W42897  11.120  20.074   4.364
70572W        W42898   4.676   8.740  12.468
70573W        W42899  37.678  33.199   3.775
70574W        W42900  39.375   2.529  13.309
70575W        W42901  26.591  24.204  11.760
70576W        W42902  11.425   6.205   0.721
70577W        W42903  28.631  30.728  13.161
70578W        W42904  28.023  27.256   4.811
70579W        W42905  37.328  28.641   3.770
70580W        W42906  19.711  16.063  12.565
70581W        W42907  13.336  22.394  13.186
70582W        W42908  31.218   0.037   4.654
70583W        W42909  20.333  38.921   2.222
70584W        W42910  13.618  34.593  10.400
70585W        W42911   9.903  44.727  13.458
70586W        W42912   8.388  40.343  13.503
70587W        W42913  21.568  14.597  12.851
70588W        W42914  30.922  24.229   0.325
70589W        W42915  29.368   8.737  11.363
70590W        W42916  44.311  10.146   3.243
70591W        W42917  13.356  20.638  12.011
70592W        W42918  31.244  30.353  13.839
70593W        W42919  16.431  13.268   2.105
70594W        W42920  42.936  30.156  13.038
70595W        W42921  38.299  42.506  11.143
70596W        W42922  44.328  21.772  11.996
70597W        W42923  25.792   2.812  11.527
70598W        W42924  14.126  32.102   2.252
70599W        W42925  43.529  22.956   0.397
70600W        W42926  31.897   7.433  12.950
70601W        W42927  30.059  11.344   1.483
70602W        W42928  11.266  28.838   4.954
70603W        W42929  43.166  14.949  14.480
70604W        W42930   6.885   0.979   0.455
70605W        W42931  44.818  36.186  13.816
70606W        W42932  43.230  35.275  11.660
70607W        W42933  18.365  35.607  12.501
70608W        W42934  18.841  44.018   3.671
70609W        W42935  25.105  43.878  10.982
70610W        W42936  22.160  25.104   3.105
70611W        W42937   7.715   4.249  13.569
70612W        W42938   1.941   9.107   1.785
70613W        W42939  41.190   0.217   2.165
70614W        W42940  32.262  17.073   0.144
70615W        W42941   4.794   2.666   4.988
70616W        W42942  31.698  44.902  10.635
70617W        W42943  43.971  27.434  12.902
70618W        W42944  12.554  42.752   4.253
70619W        W42945  41.788  34.978  10.720
70620W        W42946  17.371   6.219   0.815
70621W        W42947   3.808  33.364   4.543
70622W        W42948  16.277  20.655  11.148
70623W        W42949  22.964  42.817   1.246
70624W        W42950   3.462   9.785  12.897
70625W        W42951   6.940  37.537   2.284
70626W        W42952  13.332  21.102  12.437
70627W        W42953   2.945   4.271  11.078
70628W        W42954  19.654  11.047  12.863
70629W        W42955  39.063   3.074   5.058
70630W        W42956  26.160  25.455   2.451
70631W        W42957  22.399  41.739  13.935
70632W        W42958   9.958  27.572   0.441
70633W        W42959  36.447   9.527  11.149
70634W        W42960  20.570  32.518  10.748
70635W        W42961  13.344   4.802   2.276
70636W        W42962  40.245   5.642  10.708
70637W        W42963  12.159  42.390   3.089
70638W        W42964   9.326  34.289  10.386
70639W        W42965  13.323  25.896  14.008
70640W        W42966  14.412  42.670   4.096
70641W        W42967   6.480  37.894  13.105
70642W        W42968  28.036  13.277  14.205
70643W        W42969  36.934  25.970  10.806
70644W        W42970  39.115  16.507  13.907
70645W        W42971  39.972  15.087   3.254
70646W        W42972  28.589  38.756  13.157
70647W        W42973   0.512   2.142   2.513
70648W        W42974   1.857  28.131  10.962
70649W        W42975  20.888  37.043   1.843
70650W        W42976  13.156   7.442   3.687
70651W        W42977   0.689  26.204   1.454
70652W        W42978  31.412   6.737   4.188
70653W        W42979   3.643  12.305   9.729
70654W        W42980   8.409  29.118  13.457
70655W        W42981   3.485  29.637   4.023
70656W        W42982  35.019  24.497  11.614
70657W        W42983  10.046   6.665   2.801
70658W        W42984  28.067  33.206  14.355
70659W        W42985  22.794  14.911  11.955
70660W        W42986   4.274  11.871   3.755
70661W        W42987  32.158  43.027   2.305
70662W        W42988   5.819  29.344  12.618
70663W        W42989   2.985   9.383  12.329
70664W        W42990   4.214   6.476  13.039
70665W        W42991   1.084  30.033  14.414
70666W        W42992  10.654  34.632  14.336
70667W        W42993   7.102  13.423   0.370
70668W        W42994  38.812  29.286   3.245
70669W        W42995   8.966  21.984   2.050
70670W        W42996  44.989  21.122  13.331
70671W        W42997  39.929   3.783  13.307
70672W        W42998   7.201  42.448   4.101
70673W        W42999  31.016  17.394   1.340
70674W        W43000   3.485  26.421   0.733
70675W        W43001  41.658  30.644   2.470
70676W        W43002  39.519   7.160   0.388
70677W        W43003  15.582  27.176  13.993
70678W        W43004  32.735  43.936  14.455
70679W        W43005   4.435  29.086  12.693
70680W        W43006   1.227  43.586   3.157
70681W        W43007   5.479  32.427  13.845
70682W        W43008  37.021  24.685   1.841
70683W        W43009  10.475  10.262  12.518
70684W        W43010   7.296  33.719  13.941
70685W        W43011  43.206   9.561  12.349
70686W        W43012  36.585  34.992  14.352
70687W        W43013  36.038  26.070  13.481
70688W        W43014  37.468   5.344   3.857
70689W        W43015  37.394  16.620  12.895
70690W        W43016   6.384  35.888   4.175
70691W        W43017  22.257  29.117   2.883
70692W        W43018   2.744  14.227   2.349
70693W        W43019  10.702  30.169  11.022
70694W        W43020  24.006   2.969  14.868
70695W        W43021   9.787  31.452  13.933
70696W        W43022  30.992  33.867   2.006
70697W        W43023   6.394   9.899   2.702
70698W        W43024   9.588  31.715   2.664
70699W        W43025   7.371   4.731  10.523
70700W        W43026  17.162  29.550  13.786
70701W        W43027  41.309  10.938  11.536
70702W        W43028  29.153  36.878  11.473
70703W        W43029  41.961  44.289  10.907
70704W        W43030   5.872  31.073   3.317
70705W        W43031   0.852   5.427  10.534
70706W        W43032  43.584  33.187  13.459
70707W        W43033   9.040  21.069   4.999
70708W        W43034  38.640   5.342   0.889
70709W        W43035  37.438   3.528  10.641
70710W        W43036  14.509  35.420  11.137
70711W        W43037   6.693  40.875  14.784
70712W        W43038  10.816   7.914   1.800
70713W        W43039  28.663   0.774  10.661
70714W        W43040  21.642   5.149   4.720
70715W        W43041  27.417  20.417  12.056
70716W        W43042  19.609  29.138   2.719
70717W        W43043  36.058   3.579   3.140
70718W        W43044  22.075  16.225   1.053
70719W        W43045  29.424  26.126  10.450
70720W        W43046  43.319   1.484   4.611
70721W        W43047  14.817  42.972  13.914
70722W        W43048   6.249   0.467  10.697
70723W        W43049  34.601  31.880   1.976
70724W        W43050  38.122  30.442  10.688
70725W        W43051  10.793  37.328  10.630
70726W        W43052   4.414   9.938   2.882
70727W        W43053  15.720   8.668  12.073
70728W        W43054   1.818  38.934  14.352
70729W        W43055  16.767  11.694   0.226
70730W        W43056  25.612  41.217   0.744
70731W        W43057  10.559  37.392   4.449
70732W        W43058  12.958  35.377   4.105
70733W        W43059  34.887  36.317   2.781
70734W        W43060  38.885   2.640  11.103
70735W        W43061  41.504  17.789   4.599
70736W        W43062  16.558  40.184   4.176
70737W        W43063   0.801  27.774  12.957
70738W        W43064  21.690  35.457  12.409
70739W        W43065   0.346  35.577   1.354
70740W        W43066  32.473   6.840   2.756
70741W        W43067  37.406  25.469   1.238
70742W        W43068  20.201  22.855   1.215
70743W        W43069  27.159   3.955  10.694
70744W        W43070   1.753  25.802   2.793
70745W        W43071  28.218  32.539   2.302
70746W        W43072  17.426  38.457  14.463
70747W        W43073  19.590  43.710   0.271
70748W        W43074  26.783  21.970   9.890
70749W        W43075  42.972  25.214   0.906
70750W        W43076   0.001   9.129   0.842
70751W        W43077   1.162  31.565  13.848
70752W        W43078  44.232  41.945  14.195
70753W        W43079  22.642   7.778  12.843
70754W        W43080   3.212   3.778  10.791
70755W        W43081   5.426  33.126   2.379
70756W        W43082  22.155  27.057   4.800
70757W        W43083  37.425  37.109   4.130
70758W        W43084  14.870  24.735  13.518
70759W        W43085  30.506  33.001  12.017
70760W        W43086   9.951   3.733   3.282
70761W        W43087  11.043  20.671  12.565
70762W        W43088  24.882  33.219   4.656
70763W        W43089  13.641  15.317   2.151
70764W        W43090  10.548   4.921  11.100
70765W        W43091  14.605  17.920  13.143
70766W        W43092   2.935   9.385   2.046
70767W        W43093  19.272  28.066   2.357
70768W        W43094   9.794  11.765   2.720
70769W        W43095  35.958  25.914  14.840
70770W        W43096  26.751  38.870   5.044
70771W        W43097  33.570   4.096  13.659
70772W        W43098   4.773  37.539  12.386
70773W        W43099  29.058  30.013   0.703
70774W        W43100  20.813  28.462   0.450
70775W        W43101  38.252  31.795   0.005
70776W        W43102   3.868  25.018   3.613
70777W        W43103  41.990  11.723  12.218
70778W        W43104  18.661  43.240  14.382
70779W        W43105  15.944  27.413  14.905
70780W        W43106  13.347  14.321  12.177
70781W        W43107   5.211  21.284   0.432
70782W        W43108  15.797   0.414   3.205
70783W        W43109  31.873  12.202  14.711
70784W        W43110   1.563   4.126  12.798
70785W        W43111  14.846  26.768   1.882
70786W        W43112  34.038  20.119   4.500
70787W        W43113  21.590   2.982   3.269
70788W        W43114  26.206  17.355   2.830
70789W        W43115   3.388  27.815  12.009
70790W        W43116  15.254  34.151  11.071
70791W        W43117  13.049   3.353  10.369
70792W        W43118  22.092  17.342   4.510
70793W        W43119  19.858  13.769   1.850
70794W        W43120  34.334  35.752   4.209
70795W        W43121  15.336   9.471   4.210
70796W        W43122  19.608  27.630   3.251
70797W        W43123   0.754  44.780   2.890
70798W        W43124  36.546  40.583  12.804
70799W        W43125  22.952   8.425  12.816
70800W        W43126   4.501  32.507  13.449
70801W        W43127  25.836   1.360   4.817
70802W        W43128  16.250  20.751   4.606
70803W        W43129  41.965  40.485  11.271
70804W        W43130  29.018  41.771   0.783
70805W        W43131  11.343  42.589  14.356
70806W        W43132   6.741  27.726   4.150
70807W        W43133  14.570  12.058  12.737
70808W        W43134  41.926  43.269   0.360
70809W        W43135  27.462  34.929   0.539
70810W        W43136  25.178  33.164   4.231
70811W        W43137  42.127   9.810   4.137
70812W        W43138   6.070  24.049   4.060
70813W        W43139   7.480  32.195  12.018
70814W        W43140  35.407  32.516  13.540
70815W        W43141  27.121  37.862   4.754
70816W        W43142  25.941   5.719  14.451
70817W        W43143  21.152  26.222  14.805
70818W        W43144  21.983  33.955  10.620
70819W        W43145  19.830  22.551  14.965
70820W        W43146   7.735   6.220   5.089
70821W        W43147  35.685  33.036   0.409
70822W        W43148  40.078  33.143   3.576
70823W        W43149   4.673  28.082   0.250
70824W        W43150  19.902  28.846  12.505
70825W        W43151  30.004  15.363  11.814
70826W        W43152  19.080   6.704   1.692
70827W        W43153  24.490  11.412  11.395
70828W        W43154  32.887  40.364   1.222
70829W        W43155  35.025  34.118   1.513
70830W        W43156  10.221  24.350   4.920
70831W        W43157  34.135   3.980   4.087
70832W        W43158   5.489  23.745  14.340
70833W        W43159  27.761  12.989   9.833
70834W        W43160  14.946   7.513   3.102
70835W        W43161  37.051   0.518  13.418
70836W        W43162  29.583   1.498   2.671
70837W        W43163  22.942  17.077  11.411
70838W        W43164   2.836   8.695   0.762
70839W        W43165   4.907   5.137   4.613
70840W        W43166  15.613   2.165  14.866
70841W        W43167  13.406  35.322  10.866
70842W        W43168  26.298   4.842   3.132
70843W        W43169  19.317  33.828  12.497
70844W        W43170   7.919   8.702  12.050
70845W        W43171  33.850  38.507   1.428
70846W        W43172   8.845   5.084   3.659
70847W        W43173  18.646  20.251  10.670
70848W        W43174   7.824  15.577   1.679
70849W        W43175  21.085  14.195  10.268
70850W        W43176  11.728  24.061  14.067
70851W        W43177  32.368  23.440   4.365
70852W        W43178  14.876   6.932  12.465
70853W        W43179   7.187  11.380  11.022
70854W        W43180  13.865   7.162  14.045
70855W        W43181  28.468  25.022   4.987
70856W        W43182  23.227  18.731  13.122
70857W        W43183  11.903  21.548   2.711
70858W        W43184   7.947  44.316  11.191
70859W        W43185  30.063  41.923   2.361
70860W        W43186  37.518  12.884   1.928
70861W        W43187  29.989  41.518  14.416
70862W        W43188  24.096  12.572   1.880
70863W        W43189   7.147  22.302  12.070
70864W        W43190   6.084  43.735  14.435
70865W        W43191   5.100  20.481   3.944
70866W        W43192  18.756   2.890  14.810
70867W        W43193   5.912   3.018   4.329
70868W        W43194  44.327  20.489  14.954
70869W        W43195  26.459  34.353   2.020
70870W        W43196  43.895  25.108   2.118
70871W        W43197  22.603   4.409   3.800
70872W        W43198  37.946  17.122   4.885
70873W        W43199  34.131  37.163  10.587
70874W        W43200  21.189  44.477  13.170
70875W        W43201   6.642  25.891  14.865
70876W        W43202  36.043  38.652  13.944
70877W        W43203   7.863  37.626  11.146
70878W        W43204  35.457  20.206   4.889
70879W        W43205  44.276   4.425   0.426
70880W        W43206  18.001   4.218  14.907
70881W        W43207  38.335  11.863   5.053
70882W        W43208  13.233  26.258   0.903
70883W        W43209  22.365  35.472   3.189
70884W        W43210  41.597   3.382   2.321
70885W        W43211   7.810  30.595  11.982
70886W        W43212  34.047  13.159  11.924
70887W        W43213  34.806  16.004  12.050
70888W        W43214  22.952  26.817   1.303
70889W        W43215   0.289  22.703  14.900
70890W        W43216   7.394  10.914   4.211
70891W        W43217  33.555   2.220  13.474
70892W        W43218  10.823  16.622  14.216
70893W        W43219  35.949  32.612  13.432
70894W        W43220  26.922  15.665   1.800
70895W        W43221  16.006  13.171   1.809
70896W        W43222  19.825   2.676  14.859
70897W        W43223  18.773  31.696  13.327
70898W        W43224  34.357  31.773   4.131
70899W        W43225  14.396  30.694  14.382
70900W        W43226  19.746  28.222   2.311
70901W        W43227  39.310  24.467   4.064
70902W        W43228   7.411  12.404   3.529
70903W        W43229  32.757   7.917   2.513
70904W        W43230  38.542  19.181  14.871
70905W        W43231  15.306  15.304  12.479
70906W        W43232  28.681  30.768   2.545
70907W        W43233  25.595  23.601   3.691
70908W        W43234  20.095  30.799   5.048
70909W        W43235   1.937   2.282   3.137
70910W        W43236  35.344  40.526  12.408
70911W        W43237  16.657   5.700   4.122
70912W        W43238  36.565  31.087   0.715
70913W        W43239  42.797   6.603  12.045
70914W        W43240  35.149  21.228   2.964
70915W        W43241  42.743  15.645  14.897
70916W        W43242  25.658  25.760  11.247
70917W        W43243  31.284  16.510   0.365
70918W        W43244  30.547  21.745   0.254
70919W        W43245  32.636  28.184  12.095
70920W        W43246  16.768   7.302  13.515
70921W        W43247  14.574  19.501  10.751
70922W        W43248  10.675  29.029   1.448
70923W        W43249  37.549   9.075  13.494
70924W        W43250  37.587  37.896  11.588
70925W        W43251  34.395  39.839  12.962
70926W        W43252  41.179   1.441  11.121
70927W        W43253   7.830  39.233   2.257
70928W        W43254  19.246  24.592   2.854
70929W        W43255  15.379  20.280   0.336
70930W        W43256   4.660  43.864  11.290
70931W        W43257   5.294   4.360   2.598
70932W        W43258  14.688  33.883   0.487
70933W        W43259  24.683   9.379  10.701
70934W        W43260   3.437   6.927  10.513
70935W        W43261  34.621  38.605  14.892
70936W        W43262  35.230  37.720   3.244
70937W        W43263   6.477  22.605   0.640
70938W        W43264   5.954  14.335  11.959
70939W        W43265   1.962  12.053   5.001
70940W        W43266  11.473  26.653   4.528
70941W        W43267   4.966  10.533  14.814
70942W        W43268  23.487  44.176  13.287
70943W        W43269  29.483   5.712   4.383
70944W        W43270   9.125  41.526   1.414
70945W        W43271  25.782   0.840   4.647
70946W        W43272  25.717  34.062  12.584
70947W        W43273  29.659   0.086  13.926
70948W        W43274  39.932  33.871  12.097
70949W        W43275  34.261   2.674   2.804
70950W        W43276  28.027  30.060   3.740
70951W        W43277   9.626  27.549  12.056
70952W        W43278  22.443  27.151   1.978
70953W        W43279  35.521  28.139   3.835
70954W        W43280  36.481  18.917  13.797
70955W        W43281  10.642  25.548  12.131
70956W        W43282   4.647  38.199   2.283
70957W        W43283   3.450  23.308   3.221
70958W        W43284  41.732  36.600  11.223
70959W        W43285  33.056  21.619  11.435
70960W        W43286  37.049   6.649   0.043
70961W        W43287  28.039  34.963   0.885
70962W        W43288  21.375  41.826   4.425
70963W        W43289  21.567  23.998  13.509
70964W        W43290   0.784   3.888  10.487
70965W        W43291   6.572   4.261   3.799
70966W        W43292   4.450   1.607   3.683
70967W        W43293  29.391  23.090   3.241
70968W        W43294  38.804  30.195   1.460
70969W        W43295  15.696  33.535  10.747
70970W        W43296  12.796  28.759   2.407
70971W        W43297   6.712   9.318  10.594
70972W        W43298  29.898  19.226  11.998
70973W        W43299   6.853   3.736  11.974
70974W        W43300   0.909  25.220  13.738
70975W        W43301  32.493  11.594  14.874
70976W        W43302  30.573  17.691  10.710
70977W        W43303   7.612   6.849  13.073
70978W        W43304   9.596  21.264  14.486
70979W        W43305   5.782   3.816   4.719
70980W        W43306  18.180  33.418  11.506
70981W        W43307   6.342  19.353  14.637
70982W        W43308   8.266  12.799   1.212
70983W        W43309  34.049  14.092  10.672
70984W        W43310   5.213  42.831  14.848
70985W        W43311  30.044  37.785   3.866
70986W        W43312  21.834  15.000   3.041
70987W        W43313  41.215  13.832   1.663
70988W        W43314  25.666  11.718  11.121
70989W        W43315  33.061  37.817  13.949
70990W        W43316  39.320  24.471   0.988
70991W        W43317  14.911  40.657   2.940
70992W        W43318  10.060  14.659   4.752
70993W        W43319  11.081  41.639   3.373
70994W        W43320  26.214  44.566   0.789
70995W        W43321  17.107  28.023   1.951
70996W        W43322  12.886  30.605   3.397
70997W        W43323  35.889  25.533   4.091
70998W        W43324  39.594  33.087   3.753
70999W        W43325   8.924  19.112  13.887
71000W        W43326  26.233   2.593  11.767
71001W        W43327  37.640   3.112   4.157
71002W        W43328  24.481  24.569  13.081
71003W        W43329  21.329  28.183   1.229
71004W        W43330  44.423  40.314   0.822
71005W        W43331  10.524  20.480  11.460
71006W        W43332  38.574   4.495  13.474
71007W        W43333  35.791   7.339  12.398
71008W        W43334   2.391  39.624   4.368
71009W        W43335  24.487  23.204   2.822
71010W        W43336   3.547  16.903   0.339
71011W        W43337  24.888  36.890   3.282
71012W        W43338   5.887  13.174  11.690
71013W        W43339  26.872  17.901  10.866
71014W        W43340  33.948  33.998   0.057
71015W        W43341  31.726  15.166   3.373
71016W        W43342  22.963  22.213   1.212
71017W        W43343  10.226   0.392   4.150
71018W        W43344   5.460  32.360   1.227
71019W        W43345  22.539  11.036   4.218
71020W        W43346   5.869   9.498  14.411
71021W        W43347  22.516  34.446   3.137
71022W        W43348  40.342  18.174  14.233
71023W        W43349  40.552  13.445   4.459
71024W        W43350  16.515  41.580   1.789
71025W        W43351  31.530   6.315  14.377
71026W        W43352  32.571  40.293  13.502
71027W        W43353  26.475  42.052  13.976
71028W        W43354  34.386  18.173  12.044
71029W        W43355  35.739  12.108   2.207
71030W        W43356  18.558  41.047  11.667
71031W        W43357  35.486  23.702  13.370
71032W        W43358  23.241   0.343   1.297
71033W        W43359   6.019  13.561   0.976
71034W        W43360  38.087  40.785   4.068
71035W        W43361   2.483  21.754  12.183
71036W        W43362  15.095  40.069  13.523
71037W        W43363  31.343   5.744  12.709
71038W        W43364  44.282  10.333  11.605
71039W        W43365  19.253  32.955   2.191
71040W        W43366  12.286  21.771  10.708
71041W        W43367   2.301  22.282  12.095
71042W        W43368  42.879  13.859   3.948
71043W        W43369  19.422  29.834   0.317
71044W        W43370  41.677  12.119   0.369
71045W        W43371  24.631  37.878  11.231
71046W        W43372   7.706  32.893   2.787
71047W        W43373   4.935  20.369  13.401
71048W        W43374  42.525  29.447   0.274
71049W        W43375  40.439  35.404  14.317
71050W        W43376  40.980  19.223   0.889
71051W        W43377   8.676  42.715  11.473
71052W        W43378  16.622   8.765  12.617
71053W        W43379  20.976   2.848  12.825
71054W        W43380  20.880   8.292  12.671
71055W        W43381  28.408  12.780  14.265
71056W        W43382  23.684  31.640   0.832
71057W        W43383   9.647  21.014  13.000
71058W        W43384  39.148  37.194   0.816
71059W        W43385  25.983   7.674  14.328
71060W        W43386  29.512   7.180   4.463
71061W        W43387  37.598  17.141   0.213
71062W        W43388  27.177   6.302   3.160
71063W        W43389  10.092  29.554   4.727
71064W        W43390  38.454   9.642   3.658
71065W        W43391  20.777  33.590  11.872
71066W        W43392  36.325  11.726   0.982
71067W        W43393   1.980  13.607   0.800
71068W        W43394  14.359   1.920  13.111
71069W        W43395  25.793  44.828  12.502
71070W        W43396   2.969  33.561   1.739
71071W        W43397  13.339  35.000   3.754
71072W        W43398  21.527  28.603   2.685
71073W        W43399   7.883  35.077   3.159
71074W        W43400   9.867   3.194   3.188
71075W        W43401  31.652  28.519  11.669
71076W        W43402  35.049  41.531  10.471
71077W        W43403  23.492   7.850  14.026
71078W        W43404  35.039  44.661   1.188
71079W        W43405  30.385  17.176  14.377
71080W        W43406   3.955  23.729  14.464
71081W        W43407  42.548   2.292  10.974
71082W        W43408  33.966  12.169   5.104
71083W        W43409   1.288   4.121   3.222
71084W        W43410  28.160  40.899  13.567
71085W        W43411   1.716  14.700   2.755
71086W        W43412   7.929  18.988  14.763
71087W        W43413   2.383  11.498  10.598
71088W        W43414   1.801  23.160   5.011
71089W        W43415  18.086  23.631   3.243
71090W        W43416  15.075  42.311  11.292
71091W        W43417  22.611   2.841  13.936
71092W        W43418   6.848  18.537   4.125
71093W        W43419  41.449  12.250  14.824
71094W        W43420  14.569  10.630   3.153
71095W        W43421  29.531  23.925  14.992
71096W        W43422  13.650  24.025  12.413
71097W        W43423   8.949  19.096   4.687
71098W        W43424   8.907  38.493   4.232
71099W        W43425   7.400  18.769  11.014
71100W        W43426  11.823   9.262  12.572
71101W        W43427  26.037  32.465   0.742
71102W        W43428  29.732  41.370   3.113
71103W        W43429   3.521  22.738  14.464
71104W        W43430   8.743  43.513  14.308
71105W        W43431  26.793  20.076  11.072
71106W        W43432  12.744  23.326  12.890
71107W        W43433  44.989   0.174   4.068
71108W        W43434  39.345  30.477   0.878
71109W        W43435  36.263  27.954   2.403
71110W        W43436  34.902  11.841  13.366
71111W        W43437  43.803  24.864   4.822
71112W        W43438  15.802  36.470  13.979
71113W        W43439   8.545   5.669   4.394
71114W        W43440  13.221  11.623  13.159
71115W        W43441   7.443  25.716  12.652
71116W        W43442  20.532  32.104   2.807
71117W        W43443   9.331   3.857  12.550
71118W        W43444   6.623  29.163   4.131
71119W        W43445  24.580  12.633   1.360
71120W        W43446   8.636  19.228  11.241
71121W        W43447  40.416  40.632   5.055
71122W        W43448   0.140  42.409  13.597
71123W        W43449  42.720  10.345   1.369
71124W        W43450  24.750  42.064   0.841
71125W        W43451   1.871  18.132  10.356
71126W        W43452   2.046  40.129  11.071
71127W        W43453  16.667  33.043   2.381
71128W        W43454  32.862  40.824  11.112
71129W        W43455  10.325  36.491  14.789
71130W        W43456  25.241   1.042   3.735
71131W        W43457  11.633   4.377   0.498
71132W        W43458  27.534  21.591   0.954
71133W        W43459   9.085   3.257   3.243
71134W        W43460  37.521   7.272   2.633
71135W        W43461  21.708  17.720   3.654
71136W        W43462   7.280   1.823   0.935
71137W        W43463  24.484  31.363   1.949
71138W        W43464  13.216  40.691   2.767
71139W        W43465  35.007   8.662   0.722
71140W        W43466  21.641  10.794  12.788
71141W        W43467   4.816  19.095   0.434
71142W        W43468  28.628   3.161  13.318
71143W        W43469  11.243  19.059  14.912
71144W        W43470  15.714  24.427  13.388
71145W        W43471  24.091   5.245  12.234
71146W        W43472  33.539  16.526   2.447
71147W        W43473  32.592  38.173   4.529
71148W        W43474   2.164  27.084   2.589
71149W        W43475  35.069  10.173   2.741
71150W        W43476  35.414  24.661   3.773
71151W        W43477  25.623  37.784   1.860
71152W        W43478   5.893  35.058   1.335
71153W        W43479  18.150  30.094  10.786
71154W        W43480  39.429  32.805  13.407
71155W        W43481  44.985   9.261   4.971
71156W        W43482  14.099  42.545   0.391
71157W        W43483   3.959  20.270  10.379
71158W        W43484  16.619  30.674   2.588
71159W        W43485  37.834  28.140  14.707
71160W        W43486  34.536  28.934  10.882
71161W        W43487  29.640  34.143  13.541
71162W        W43488   9.373  18.950  14.788
71163W        W43489  24.588  28.748  12.516
71164W        W43490  19.162  29.462   3.762
71165W        W43491  29.877  22.028  10.712
71166W        W43492  11.333  43.161   1.561
71167W        W43493  25.215  11.163  10.823
71168W        W43494  32.595  34.395  11.570
71169W        W43495  12.366  36.903   5.690
71170W        W43496   2.038  25.399  12.128
71171W        W43497   6.442   3.244   2.217
71172W        W43498  37.897  28.950   2.929
71173W        W43499  38.820  26.190  12.449
71174W        W43500  33.056  36.015  10.931
71175W        W43501   4.892   4.091   4.584
71176W        W43502  26.559  29.541  12.407
71177W        W43503   5.692  19.277   0.960
71178W        W43504  11.606  12.708   3.492
71179W        W43505  40.925  41.556   1.737
71180W        W43506  24.030  24.269  13.043
71181W        W43507  13.036  39.467   3.760
71182W        W43508   5.928   0.978   4.260
71183W        W43509   8.810   0.360  14.267
71184W        W43510  24.638  18.674  12.017
71185W        W43511   4.729  20.815  12.366
71186W        W43512  34.075   2.953   0.008
71187W        W43513  26.510  40.907   4.112
71188W        W43514  15.177  31.204   4.406
71189W        W43515  39.886  28.494   2.842
71190W        W43516  13.520  28.173   1.368
71191W        W43517  35.622   2.915  11.888
71192W        W43518  34.787  32.932  12.097
71193W        W43519  16.548  40.770  14.993
71194W        W43520  33.817  36.914  14.482
71195W        W43521  13.937  14.495   5.138
71196W        W43522  11.120  25.139  13.825
71197W        W43523   4.175   2.804  13.852
71198W        W43524  29.407  31.723   0.282
71199W        W43525  17.359  14.375  12.078
71200W        W43526  13.683  19.525  13.931
71201W        W43527  25.600   8.384   3.236
71202W        W43528  44.748   7.404   1.369
71203W        W43529   1.285   4.678  11.483
71204W        W43530  37.544  11.684  12.158
71205W        W43531  14.818  11.745   0.002
71206W        W43532  25.487  15.542   0.648
71207W        W43533  20.664   6.612  13.766
71208W        W43534  22.366   5.233  12.066
71209W        W43535  14.478  14.243  14.909
71210W        W43536   1.365  34.622  13.537
71211W        W43537  20.286   2.908  11.502
71212W        W43538  31.316  41.547   1.566
71213W        W43539  16.065   5.883  10.546
71214W        W43540  30.194  21.101  10.468
71215W        W43541  29.346  28.127  11.681
71216W        W43542  20.194   5.649   0.248
71217W        W43543  32.677  25.722   2.656
71218W        W43544  17.582  15.130  12.375
71219W        W43545  28.027  21.242   2.754
71220W        W43546   7.670  33.359  11.586
71221W        W43547  33.202   1.715  11.695
71222W        W43548   1.387  26.590   1.258
71223W        W43549  33.220  27.633  12.650
71224W        W43550  23.285  43.035   2.007
71225W        W43551  26.835  12.060  14.187
71226W        W43552  27.492  31.242   1.988
71227W        W43553   6.878  12.895  11.850
71228W        W43554  41.189  14.047   4.592
71229W        W43555  15.791  30.430   0.675
71230W        W43556  31.402  13.633  13.335
71231W        W43557   9.591  16.134   3.709
71232W        W43558  15.644  25.026   1.454
71233W        W43559  38.949   2.928   0.738
71234W        W43560  38.194  24.896   3.694
71235W        W43561  18.935  33.475   4.540
71236W        W43562  32.616  26.684   2.908
71237W        W43563  37.037   6.157  12.552
71238W        W43564  44.403  17.061   4.011
71239W        W43565  29.036   3.896   3.319
71240W        W43566  42.477  30.919   1.920
71241W        W43567   1.158  12.099  14.475
71242W        W43568  18.514  25.723   2.191
71243W        W43569  33.595  37.533   2.776
71244W        W43570   7.900  33.587  14.492
71245W        W43571  17.769  37.020   1.323
71246W        W43572  32.066   6.929  13.831
71247W        W43573  37.918   0.992   4.919
71248W        W43574  30.858  15.683  11.464
71249W        W43575  25.357  16.376  13.291
71250W        W43576  44.808  37.391   1.987
71251W        W43577  32.166   9.125  13.479
71252W        W43578  37.790  34.482  12.518
71253W        W43579  22.257  19.485   4.764
71254W        W43580  15.564  18.990  11.531
71255W        W43581   2.894  28.455   2.201
71256W        W43582  42.535  31.559  11.752
71257W        W43583  32.534  33.496  13.201
71258W        W43584  21.549  42.205   0.335
71259W        W43585  13.829  25.481  11.451
71260W        W43586  34.435  14.967   2.251
71261W        W43587  35.918  24.775   2.612
71262W        W43588   7.002  12.897   0.895
71263W        W43589  17.650  35.949   4.406
71264W        W43590   4.447  11.882  13.830
71265W        W43591  15.242  27.967   1.003
71266W        W43592  25.638  13.786  11.759
71267W        W43593  15.230  44.289  12.531
71268W        W43594  43.256  43.003  12.439
71269W        W43595  18.303  39.893  11.085
71270W        W43596  44.760  27.146  14.292
71271W        W43597  36.546  38.356  13.663
71272W        W43598  40.193   2.406  10.625
71273W        W43599  12.185  27.212   3.816
71274W        W43600   5.709   3.366   1.748
71275W        W43601  41.558  13.630   1.977
71276W        W43602  22.618   6.557  10.313
71277W        W43603  24.700  31.660   4.144
71278W        W43604  25.572  14.223  12.852
71279W        W43605   5.290  14.825   0.897
71280W        W43606  35.918  41.035   3.960
71281W        W43607  38.525  16.176   4.175
71282W        W43608  31.131  34.488   1.857
71283W        W43609  27.703  23.531   1.913
71284W        W43610  24.014  28.666  14.731
71285W        W43611  33.863  36.823  11.624
71286W        W43612  40.128  21.442   4.264
71287W        W43613  34.398  35.505   2.246
71288W        W43614   7.501  38.192  13.952
71289W        W43615   3.513  33.636  13.390
71290W        W43616  39.444   8.783  10.744
71291W        W43617  23.459  15.662   1.915
71292W        W43618   2.897   7.327  14.436
71293W        W43619  43.547  17.803  10.609
71294W        W43620  25.953  33.567   2.049
71295W        W43621   8.487  36.523   3.878
71296W        W43622   1.340  10.358  14.000
71297W        W43623  16.996  13.946   2.465
71298W        W43624  41.399  28.446  13.526
71299W        W43625   2.331  39.436   1.840
71300W        W43626  12.474   1.978   2.250
71301W        W43627   4.225  34.454   2.299
71302W        W43628  10.729  19.148   4.083
71303W        W43629  24.415   1.963   4.918
71304W        W43630   0.783   4.194   1.935
71305W        W43631  25.219   6.321  13.626
71306W        W43632  19.046  11.420  13.873
71307W        W43633  37.258  33.037   2.469
71308W        W43634  27.074  23.951  10.632
71309W        W43635  27.667   5.795   2.498
71310W        W43636  23.105  21.006   3.163
71311W        W43637  26.205  44.790   2.349
71312W        W43638  28.538  12.193   2.830
71313W        W43639  39.328  32.566  12.958
71314W        W43640   7.330  41.028   2.215
71315W        W43641  31.942   6.004  14.130
71316W        W43642  35.933  28.500   0.293
71317W        W43643  43.960  15.663  11.689
71318W        W43644  43.947  14.752   4.546
71319W        W43645  18.022  38.892  13.983
71320W        W43646  41.805  33.910   3.946
71321W        W43647   4.782   2.327   3.267
71322W        W43648  30.878  43.033  10.808
71323W        W43649  19.266  44.493  12.056
71324W        W43650  39.115  15.148   4.181
71325W        W43651  25.206  42.685  13.294
71326W        W43652   5.995  16.754   1.013
71327W        W43653  39.349  17.047   4.119
71328W        W43654  22.527   5.470  14.998
71329W        W43655  29.053  42.534  12.352
71330W        W43656   9.016   8.773   2.486
71331W        W43657  28.026  44.408  12.079
71332W        W43658  14.142  41.176  10.674
71333W        W43659  14.277  44.223   1.236
71334W        W43660   8.293  43.405   1.772
71335W        W43661  23.251  17.826  13.112
71336W        W43662   2.762  27.182   3.095
71337W        W43663  15.096  24.175  11.007
71338W        W43664   1.490   2.451   0.677
71339W        W43665  33.110  12.695  12.134
71340W        W43666   2.953  39.796   2.328
71341W        W43667  10.805   9.460   0.944
71342W        W43668  13.273  16.580   1.903
71343W        W43669  36.517  18.656   4.104
71344W        W43670  12.047  10.366   3.674
71345W        W43671  21.215   0.815   2.660
71346W        W43672  30.725  30.089  12.963
71347W        W43673  31.493  38.440   4.690
71348W        W43674   1.423  14.552   2.253
71349W        W43675  31.602  13.898   3.694
71350W        W43676   5.478   6.675  14.736
71351W        W43677   8.151  36.600  11.614
71352W        W43678  32.014  41.304  10.641
71353W        W43679  29.561  27.576  12.243
71354W        W43680  18.980   8.687  11.658
71355W        W43681   1.136  14.650   4.532
71356W        W43682   9.321   7.053   2.203
71357W        W43683   6.208   3.001   0.949
71358W        W43684  10.064  24.610   3.144
71359W        W43685  44.345  43.440   2.456
71360W        W43686   5.711  16.905  10.668
71361W        W43687  40.860  42.373   3.964
71362W        W43688  40.064  28.738   3.305
71363W        W43689  12.298  33.918  13.517
71364W        W43690  41.072  15.149   2.941
71365W        W43691  27.119  35.419   4.131
71366W        W43692  36.338  34.316  11.937
71367W        W43693  24.676  31.427  12.930
71368W        W43694  44.516  18.820   0.909
71369W        W43695  36.100  11.793   4.878
71370W        W43696   9.559  29.140  11.608
71371W        W43697  42.289   8.353   4.172
71372W        W43698  38.827  40.304  12.567
71373W        W43699  27.620  23.026   1.727
71374W        W43700  14.718  16.758   3.825
71375W        W43701  37.303   7.586   4.229
71376W        W43702  35.413  43.827   4.646
71377W        W43703  30.853   9.741   4.517
71378W        W43704  35.939  24.120  14.681
71379W        W43705  22.167  37.143   1.488
71380W        W43706  26.804  23.685  12.476
71381W        W43707  36.632  12.160  14.776
71382W        W43708  25.591   5.986  13.884
71383W        W43709  43.241  35.204  14.751
71384W        W43710  20.721  23.006  13.634
71385W        W43711  14.196  35.538   5.064
71386W        W43712  39.385  40.609  12.368
71387W        W43713  18.727  24.096   4.306
71388W        W43714   5.711  26.074   4.570
71389W        W43715  41.821  34.400   4.184
71390W        W43716  19.611  40.446   1.029
71391W        W43717  11.731  31.748  13.729
71392W        W43718  14.093   9.375  14.328
71393W        W43719  22.787  16.238   5.490
71394W        W43720   3.264  26.717  14.002
71395W        W43721   8.874  22.222  12.578
71396W        W43722  10.926  34.610   2.774
71397W        W43723  17.915  34.630   0.477
71398W        W43724  14.960  28.193  10.062
71399W        W43725  40.770   0.853   1.419
71400W        W43726  40.474  32.733   4.101
71401W        W43727  23.845  35.313   2.853
71402W        W43728  30.957  13.344   4.556
71403W        W43729  39.016  16.206   3.301
71404W        W43730  44.500   2.469  13.975
71405W        W43731  37.752   2.540  13.531
71406W        W43732   8.200  18.008  13.320
71407W        W43733  11.675  44.743   4.246
71408W        W43734  35.707  39.870   0.326
71409W        W43735   4.705  21.257   3.660
71410W        W43736   1.804  14.836  14.106
71411W        W43737  26.425  29.107   3.062
71412W        W43738  11.285  25.041   2.338
71413W        W43739  26.439  38.769  11.072
71414W        W43740  37.599  14.819   4.361
71415W        W43741  18.324  10.027  11.067
71416W        W43742  38.581  43.556  14.009
71417W        W43743  41.451  12.564  14.378
71418W        W43744  36.114   0.538  13.041
71419W        W43745  20.592  42.795   0.249
71420W        W43746   2.314  19.583  12.337
71421W        W43747   0.257  37.275  10.157
71422W        W43748  36.269  43.929  14.774
71423W        W43749  10.832  31.818   1.252
71424W        W43750  35.565  33.294  14.668
71425W        W43751  18.246  17.861   3.903
71426W        W43752   5.487  21.113  12.496
71427W        W43753   8.086  22.730   0.931
71428W        W43754  11.893  10.158   2.946
71429W        W43755  29.710  13.330  10.741
71430W        W43756  13.741  11.710  13.999
71431W        W43757  29.401  31.234   0.445
71432W        W43758  40.827  34.045  11.155
71433W        W43759  26.795  37.652   0.395
71434W        W43760  21.589  35.885  14.015
71435W        W43761  13.162  24.543  12.726
71436W        W43762  30.454  21.280   3.229
71437W        W43763  37.861  30.095  12.170
71438W        W43764  17.703  12.604  11.621
71439W        W43765   5.186   9.650   0.814
71440W        W43766  32.107  42.014   4.684
71441W        W43767  12.661  35.049   1.922
71442W        W43768  24.342  22.621  10.462
71443W        W43769  23.397  19.763  14.810
71444W        W43770   2.619   1.969   1.217
71445W        W43771  37.712  25.026   3.571
71446W        W43772  19.052   1.196   1.109
71447W        W43773  12.437  18.644   3.141
71448W        W43774  37.892  17.115   2.301
71449W        W43775  41.246  43.299   2.700
71450W        W43776   1.269  42.066  12.676
71451W        W43777  14.398  13.426  12.429
71452W        W43778  13.287   1.207  11.592
71453W        W43779  43.487  29.470   0.976
71454W        W43780  42.040  37.037   3.086
71455W        W43781   6.422  19.698   0.153
71456W        W43782  42.097  27.687   1.736
71457W        W43783  11.785  11.574  12.325
71458W        W43784  10.418  29.482   3.031
71459W        W43785  18.849  10.294   3.261
71460W        W43786  42.292  37.011   1.700
71461W        W43787  30.614  19.577   4.521
71462W        W43788  16.556  14.312  14.867
71463W        W43789   6.865   7.433  10.818
71464W        W43790   3.950  15.606  12.852
71465W        W43791   9.180  17.649  10.534
71466W        W43792   7.638  14.201   4.956
71467W        W43793   9.233   1.717  11.513
71468W        W43794  42.891  36.548   0.266
71469W        W43795  22.908  19.821   5.077
71470W        W43796  33.288  21.535  12.102
71471W        W43797  15.541  19.242   3.834
71472W        W43798  12.286  19.639  11.977
71473W        W43799  37.044  42.240  14.033
71474W        W43800  36.070   0.314  12.550
71475W        W43801  18.651   1.502   4.165
71476W        W43802  16.090  42.450   2.355
71477W        W43803  22.314  16.146  10.726
71478W        W43804  37.264  18.076  11.464
71479W        W43805  42.861  35.876  11.622
71480W        W43806  25.153   8.430   2.759
71481W        W43807  16.703  29.654  12.099
71482W        W43808  22.603  35.615   0.387
71483W        W43809  42.302  16.977  12.542
71484W        W43810   9.718  22.778  12.527
71485W        W43811  27.038   4.622   2.260
71486W        W43812  10.190  25.255  10.163
71487W        W43813  30.035  17.077   4.713
71488W        W43814  21.990  24.123  12.547
71489W        W43815  11.569  20.323  14.975
71490W        W43816   1.040  11.089  10.177
71491W        W43817  21.548  39.693   3.173
71492W        W43818  12.553  24.231   4.584
71493W        W43819  24.570  29.299  12.431
71494W        W43820  24.138  41.001   3.850
71495W        W43821  21.661  39.757  14.917
71496W        W43822   3.225   2.822   2.398
71497W        W43823  17.576  34.414  10.855
71498W        W43824  31.085  27.507   2.740
71499W        W43825   8.102  29.991   0.036
71500W        W43826   4.094   3.093  10.087
71501W        W43827  16.858   0.279   1.272
71502W        W43828   1.923   3.272  14.316
71503W        W43829  13.834  43.402  12.458
71504W        W43830  21.252  21.064  12.810
71505W        W43831  43.739  30.911  14.909
71506W        W43832  16.409  16.718   0.185
71507W        W43833  19.104  10.425   3.692
71508W        W43834  44.938  15.126  12.927
71509W        W43835  22.426  28.049   1.790
71510W        W43836  24.682  30.940  14.638
71511W        W43837  42.732  36.514   4.546
71512W        W43838   2.589  16.828  11.416
71513W        W43839  28.701   3.556  14.388
71514W        W43840  28.919  31.931  11.620
71515W        W43841  29.166  43.564  14.913
71516W        W43842   9.916   9.337   3.981
71517W        W43843  37.340  10.756  12.543
71518W        W43844   5.503  14.800  12.452
71519W        W43845  36.461  39.374   0.810
71520W        W43846   4.774  30.014  13.034
71521W        W43847  19.145  19.689  12.364
71522W        W43848   6.507  26.915   2.249
71523W        W43849  28.075  16.508  11.667
71524W        W43850  33.330  39.375   2.283
71525W        W43851  26.986  24.316   1.423
71526W        W43852  23.776  44.014   1.013
71527W        W43853   8.177  36.992   2.131
71528W        W43854   8.341  13.775  13.572
71529W        W43855  37.581  25.556  12.372
71530W        W43856  12.038  30.576  14.172
71531W        W43857  20.833  25.949   5.073
71532W        W43858  22.463   3.209   0.203
71533W        W43859  36.068  16.310   0.405
71534W        W43860  38.342   3.838   2.321
71535W        W43861   7.622  10.160  10.667
71536W        W43862   6.525  10.614   3.629
71537W        W43863  44.745  36.055   2.102
71538W        W43864  39.463   7.426   3.387
71539W        W43865  14.192  15.580  15.000
71540W        W43866   4.922   7.173   0.213
71541W        W43867  34.113   1.221  13.015
71542W        W43868  28.580  35.411   2.267
71543W        W43869  39.749   6.432  12.092
71544W        W43870   8.622  13.846   3.990
71545W        W43871  35.386  20.706   3.678
71546W        W43872  12.903  29.980  11.695
71547W        W43873  31.661  10.868   2.852
71548W        W43874  39.849  19.787   0.503
71549W        W43875  40.281   2.847   2.198
71550W        W43876  13.848  26.993   5.491
71551W        W43877   5.860  37.961   2.729
71552W        W43878  18.633  43.544  14.835
71553W        W43879  32.368   8.946   5.072
71554W        W43880  36.508  36.861  11.570
71555W        W43881  20.990  44.000  13.114
71556W        W43882  38.038   2.931   0.278
71557W        W43883  22.243  41.797  14.956
71558W        W43884  24.848  32.825  13.379
71559W        W43885  24.502  27.072  11.543
71560W        W43886  27.249  21.972  12.655
71561W        W43887  23.199  20.028   0.870
71562W        W43888  24.518  41.301   1.372
71563W        W43889  42.227   5.155   1.783
71564W        W43890   3.213  33.170  14.344
71565W        W43891   6.154  41.196  12.459
71566W        W43892  16.755  40.383  12.462
71567W        W43893  21.261   3.012  11.525
71568W        W43894  38.148  33.857   3.107
71569W        W43895   4.388  12.390  13.990
71570W        W43896   4.159  30.185  13.536
71571W        W43897  11.547   3.275   1.357
71572W        W43898   7.417  34.627   3.658
71573W        W43899  10.559  13.727  14.325
71574W        W43900  44.764  30.387   1.794
71575W        W43901  13.965  43.631  11.478
71576W        W43902  26.965  14.757   1.721
71577W        W43903  28.668  36.922  13.151
71578W        W43904  33.118  41.390   2.785
71579W        W43905  34.786  24.875  14.310
71580W        W43906  13.992   7.490   3.788
71581W        W43907   1.778  44.555   3.749
71582W        W43908  38.503  18.443   4.613
71583W        W43909  35.124  37.852  11.829
71584W        W43910  18.366  37.816  14.545
71585W        W43911  25.927  43.562   0.790
71586W        W43912  40.460   5.737   1.810
71587W        W43913  22.129  35.996   1.221
71588W        W43914  35.513  33.990   1.327
71589W        W43915  19.788  32.152   4.862
71590W        W43916   2.158  30.244  13.598
71591W        W43917  27.340  35.259  14.772
71592W        W43918   7.632  36.162   5.117
71593W        W43919   9.437  23.739  11.115
71594W        W43920   5.505  24.567  14.252
71595W        W43921  13.060   7.755   3.284
71596W        W43922  40.559  29.665   1.416
71597W        W43923   5.237  18.521  12.046
71598W        W43924  12.038  24.897   4.230
71599W        W43925  35.784  40.967   4.442
71600W        W43926   0.134  11.925   4.018
71601W        W43927   9.889  36.301  12.820
71602W        W43928   2.298  34.469  13.952
71603W        W43929  24.013  29.495   4.590
71604W        W43930  26.094  38.041  10.715
71605W        W43931   0.515  21.004   0.423
71606W        W43932  22.614   5.649  14.528
71607W        W43933  13.295   1.786   2.609
71608W        W43934  30.607  14.659   0.509
71609W        W43935  37.784  20.155  11.443
71610W        W43936  10.251  39.498  13.430
71611W        W43937  36.409  13.776   4.896
71612W        W43938  32.623  43.820  10.848
71613W        W43939  29.523  40.598  14.431
71614W        W43940  33.479  17.602  13.380
71615W        W43941  25.981  12.254  14.746
71616W        W43942  19.048  30.768   2.147
71617W        W43943  15.981  37.469   4.572
71618W        W43944   4.240  41.891  14.450
71619W        W43945  25.647  15.629   3.552
71620W        W43946  16.708  20.570  10.826
71621W        W43947   2.713  44.994   2.263
71622W        W43948   4.876  44.434   4.749
71623W        W43949  29.654  10.818   2.328
71624W        W43950  25.995   4.907  11.727
71625W        W43951  33.624  23.048  10.531
71626W        W43952  36.472  25.984  14.866
71627W        W43953  10.249  27.447  13.355
71628W        W43954  17.542   8.890   2.568
71629W        W43955  21.167   3.319   3.229
71630W        W43956  34.659   2.553  11.668
71631W        W43957  38.800  22.318  10.030
71632W        W43958  29.443  32.915  12.016
71633W        W43959  28.854  38.930  11.363
71634W        W43960  23.237   2.644   1.911
71635W        W43961  30.347  44.719  11.811
71636W        W43962   3.385   1.383   2.226
71637W        W43963  42.405  26.425  11.913
71638W        W43964  26.663  16.124   1.762
71639W        W43965  44.292  44.542  11.515
71640W        W43966   5.957   2.171  11.933
71641W        W43967  13.538  12.112  13.747
71642W        W43968   4.358  27.713  14.989
71643W        W43969  22.217  13.608   2.311
71644W        W43970  39.431   7.458  14.974
71645W        W43971  18.845  33.477  12.549
71646W        W43972   4.887  29.989   2.708
71647W        W43973  13.579  36.683   2.096
71648W        W43974  34.937  42.643  13.286
71649W        W43975   8.769  13.545  13.400
71650W        W43976  39.350  25.216   2.811
71651W        W43977  13.283  31.970  11.086
71652W        W43978  22.755   5.244   0.418
71653W        W43979  19.285  19.695  14.454
71654W        W43980  25.235  35.366   0.974
71655W        W43981  42.574   9.097   3.586
71656W        W43982  24.653  36.692   3.722
71657W        W43983  11.809  15.172   2.623
71658W        W43984  24.509   0.770   3.124
71659W        W43985  17.160   9.181   4.166
71660W        W43986  24.188  21.045  14.044
71661W        W43987   8.082  14.672  12.685
71662W        W43988   6.698   0.750   2.390
71663W        W43989  20.512   3.668   2.750
71664W        W43990  15.179  33.185  11.921
71665W        W43991  10.683   8.862   0.501
71666W        W43992  42.927  35.292  12.962
71667W        W43993  14.573  36.933   1.115
71668W        W43994  43.715  12.671   0.931
71669W        W43995  24.681  22.106  13.886
71670W        W43996  37.921   1.156  13.469
71671W        W43997  14.879   4.746   4.932
71672W        W43998  42.861  30.981  12.534
71673W        W43999  38.538  39.929  10.482
71674W        W44000  16.247  31.855   0.580
71675W        W44001  20.932  30.949   0.871
71676W        W44002  37.073  30.252  14.853
71677W        W44003   5.312   0.147  13.627
71678W        W44004   4.814   7.825   0.049
71679W        W44005  21.330  33.962  13.830
71680W        W44006  31.120  17.287  10.711
71681W        W44007  38.850  17.289   0.763
71682W        W44008  16.129  36.586   2.219
71683W        W44009  37.727  28.871  12.374
71684W        W44010  22.924  41.465   0.834
71685W        W44011  40.133   7.044   1.259
71686W        W44012  18.717  14.300   1.976
71687W        W44013  36.452  25.405   1.982
71688W        W44014  32.113   6.284   3.806
71689W        W44015  38.904  40.104   4.762
71690W        W44016  21.677   6.357  10.531
71691W        W44017  36.697  24.597  14.415
71692W        W44018  21.545  18.789   3.179
71693W        W44019   7.913  38.968   1.291
71694W        W44020  42.556   5.963  13.616
71695W        W44021  25.740  19.728   0.383
71696W        W44022  29.076  37.526   1.772
71697W        W44023  41.922  11.407   2.448
71698W        W44024  34.370  33.280   4.997
71699W        W44025   3.670  15.211   3.011
71700W        W44026  43.695  15.352  14.330
71701W        W44027  31.413  39.142  11.330
71702W        W44028   2.258  27.423   3.275
71703W        W44029  17.834  35.861  14.993
71704W        W44030  35.813  36.410   2.642
71705W        W44031  35.386  28.123  13.430
71706W        W44032   6.241  29.279  11.679
71707W        W44033  25.573  31.099   0.067
71708W        W44034  25.062  26.990   1.028
71709W        W44035  27.269   5.793   3.359
71710W        W44036  34.719  30.568   3.414
71711W        W44037  20.607   8.267   3.907
71712W        W44038   9.449   4.918  10.117
71713W        W44039  16.830  22.633  14.083
71714W        W44040  35.444  33.889  13.861
71715W        W44041   0.052  40.889  13.538
71716W        W44042   9.439  40.450   1.785
71717W        W44043  20.808  27.954  14.538
71718W        W44044  39.669  14.869  13.491
71719W        W44045   3.493  10.608   4.074
71720W        W44046  19.063  33.903   1.246
71721W        W44047  37.131  32.531   2.670
71722W        W44048  40.390  19.669  11.430
71723W        W44049  29.859  41.785  12.497
71724W        W44050  28.656  18.595   3.336
71725W        W44051  29.088  43.590   2.203
71726W        W44052  30.607   3.917  12.073
71727W        W44053   9.756   9.384  14.363
71728W        W44054  12.317  17.098   1.666
71729W        W44055  30.051  42.663  13.016
71730W        W44056   2.889   6.949  14.797
71731W        W44057  32.503   0.889  14.417
71732W        W44058  30.685  30.643  13.022
71733W        W44059  23.747   3.514  13.059
71734W        W44060  37.277  26.358   5.054
71735W        W44061  15.871   8.324   3.372
71736W        W44062  19.483   4.250  13.106
71737W        W44063  35.933   4.349   4.469
71738W        W44064  32.065  39.638   0.735
71739W        W44065  15.677   5.729  12.421
71740W        W44066  24.509  19.207  13.880
71741W        W44067  13.389  36.713  11.888
71742W        W44068  25.968  15.681   5.385
71743W        W44069   0.262  19.463   4.950
71744W        W44070  13.717  18.202   2.897
71745W        W44071  29.573  21.077  12.693
71746W        W44072  14.907   6.233   2.716
71747W        W44073  25.217  31.110  12.992
71748W        W44074   8.311  20.588  10.434
71749W        W44075   2.515  28.477  13.839
71750W        W44076  37.806  28.437   2.855
71751W        W44077  10.385  12.365   4.647
71752W        W44078  10.588  14.687  13.528
71753W        W44079  16.047  35.637  11.029
71754W        W44080   1.283  19.725  10.488
71755W        W44081  27.763  21.227   1.769
71756W        W44082  36.906  40.573  14.818
71757W        W44083  20.626  11.533   2.694
71758W        W44084  23.787   6.210  13.375
71759W        W44085   0.267  35.511  12.162
71760W        W44086  17.363  12.215  14.493
71761W        W44087  25.025  36.612  14.412
71762W        W44088  42.493  34.156  14.678
71763W        W44089  26.480  33.221  10.725
71764W        W44090  30.135  33.120   3.088
71765W        W44091  25.704   7.817   4.588
71766W        W44092  33.054  40.563   1.675
71767W        W44093  28.896  22.607   0.803
71768W        W44094  42.072  31.955  14.305
71769W        W44095  25.110  44.020   0.963
71770W        W44096   1.402  13.101   4.349
71771W        W44097  36.842  19.860   4.295
71772W        W44098  15.416  42.832  14.570
71773W        W44099  24.958  38.431  13.030
71774W        W44100   8.207  27.361   2.932
71775W        W44101   6.437  22.681   3.580
71776W        W44102  20.473   0.287   0.852
71777W        W44103   0.405  11.099  10.626
71778W        W44104   6.932  31.754   0.985
71779W        W44105   7.142  16.238   1.271
71780W        W44106  31.672  34.893   1.682
71781W        W44107   1.329   8.633  10.945
71782W        W44108  20.982  23.194   1.149
71783W        W44109  16.241  23.602  10.556
71784W        W44110   8.359   9.208  11.150
71785W        W44111   2.230  12.432   1.240
71786W        W44112   2.930  17.711  14.329
71787W        W44113  12.239  35.008   4.515
71788W        W44114  39.301  20.898  13.645
71789W        W44115  35.914  37.104  13.858
71790W        W44116  35.634  29.262   2.667
71791W        W44117  11.831  19.162  13.370
71792W        W44118  21.166  30.474   4.884
71793W        W44119  18.638  27.370  13.450
71794W        W44120   4.009  18.502  13.207
71795W        W44121  33.380   5.728  11.142
71796W        W44122  23.224  12.563   3.296
71797W        W44123  42.482   1.908   0.703
71798W        W44124  18.536  15.325   5.118
71799W        W44125  21.671  28.660  12.900
71800W        W44126  38.141  35.172  12.097
71801W        W44127   9.275   4.959   2.299
71802W        W44128  44.671  42.790   0.934
71803W        W44129  16.730  16.027   0.371
71804W        W44130   3.050  24.742   2.619
71805W        W44131  39.590  37.820  14.518
71806W        W44132  32.484  34.819  13.302
71807W        W44133  24.151  29.925  11.627
71808W        W44134  19.187  17.031   0.163
71809W        W44135   2.859  22.310  10.354
71810W        W44136  36.366  37.990   4.295
71811W        W44137  30.175  16.588   3.355
71812W        W44138  18.704  38.819  13.476
71813W        W44139  35.618  23.995  11.101
71814W        W44140  30.110  25.026   3.187
71815W        W44141   7.424  42.703  14.383
71816W        W44142  32.947  14.346   0.977
71817W        W44143  17.011  38.491   0.394
71818W        W44144  27.850   5.715   0.784
71819W        W44145  13.626  42.750  12.404
71820W        W44146  44.572  33.086  13.769
71821W        W44147   5.249   8.447   2.368
71822W        W44148  16.020   3.872   4.017
71823W        W44149  29.490  32.555   2.662
71824W        W44150  12.762  20.383   1.009
71825W        W44151  41.629  40.426   4.182
71826W        W44152   2.197  32.650  10.995
71827W        W44153  27.988  36.476  11.487
71828W        W44154   1.865  42.978   2.487
71829W        W44155   2.412  32.171  11.174
71830W        W44156  26.429  41.563  14.171
71831W        W44157  23.192  41.483   4.073
71832W        W44158   6.718  32.948  10.738
71833W        W44159   6.955  41.237   1.920
71834W        W44160  39.046  24.420   1.903
71835W        W44161  25.566  25.569  13.547
71836W        W44162   6.847   8.453   4.837
71837W        W44163  25.204  20.404  14.127
71838W        W44164  40.922  13.193   1.320
71839W        W44165  17.069   0.339  11.992
71840W        W44166  37.012   0.888   1.249
71841W        W44167  44.838  25.783  13.333
71842W        W44168  27.899  10.379  10.204
71843W        W44169  41.556   7.431   1.711
71844W        W44170  17.738   8.909  11.287
71845W        W44171  40.955  33.510  11.108
71846W        W44172  11.774  42.991  11.165
71847W        W44173  20.833  11.223  11.985
71848W        W44174  35.578  18.560  13.448
71849W        W44175   1.768  38.356   2.279
71850W        W44176   1.097   2.327   3.583
71851W        W44177  23.104  20.979   1.685
71852W        W44178  26.362  19.607   4.818
71853W        W44179  24.568  23.043  10.778
71854W        W44180   0.115   4.036   4.182
71855W        W44181  32.534  12.788   4.775
71856W        W44182  13.190   1.750  14.951
71857W        W44183   9.278   6.867  10.524
71858W        W44184  40.287  27.100  13.543
71859W        W44185  29.616  42.203   2.341
71860W        W44186  40.350  30.562  11.899
71861W        W44187   0.012  33.393   2.755
71862W        W44188  10.766  18.294   3.861
71863W        W44189  17.096  23.240  10.616
71864W        W44190   3.393  18.932  10.771
71865W        W44191  10.830  14.689   0.366
71866W        W44192  15.266  12.860  14.872
71867W        W44193  27.638   9.711  11.727
71868W        W44194   8.922  18.080  14.918
71869W        W44195  38.036  30.526  13.095
71870W        W44196  15.349  25.273   3.747
71871W        W44197   8.234  25.075   2.888
71872W        W44198   9.006   9.196   0.947
71873W        W44199  42.105   1.071   4.992
71874W        W44200  24.791  22.187  11.977
71875W        W44201  32.060  29.395  11.133
71876W        W44202  18.835  20.996  12.507
71877W        W44203  27.240  13.521  14.975
71878W        W44204   2.438   9.191   1.409
71879W        W44205   8.300  24.248  12.992
71880W        W44206  23.164  41.497   4.587
71881W        W44207   3.735  40.412   2.434
71882W        W44208  15.234  15.579   2.421
71883W        W44209  16.536  24.052   1.462
71884W        W44210   7.698  15.238   1.239
71885W        W44211   9.272  30.149  14.195
71886W        W44212  12.418  11.247  12.101
71887W        W44213  14.122  36.843  13.466
71888W        W44214  22.652   7.431  13.889
71889W        W44215  39.888  23.529   1.140
71890W        W44216  42.277  14.530   4.247
71891W        W44217   1.299  24.109   4.547
71892W        W44218   3.707  20.799  14.307
71893W        W44219  36.814   8.373  14.389
71894W        W44220  25.528  43.111  11.520
71895W        W44221  36.808  30.635  11.155
71896W        W44222  10.408  21.281   5.019
71897W        W44223  38.009   7.418  10.373
71898W        W44224  36.521  27.603  11.575
71899W        W44225  33.980  36.032  14.408
71900W        W44226   0.905  43.836  12.549
71901W        W44227  19.961  20.677  14.882
71902W        W44228   2.704  16.018  14.933
71903W        W44229   5.041  14.658  13.883
71904W        W44230   3.704  17.973   2.793
71905W        W44231  33.478  25.032   0.504
71906W        W44232   8.799  15.077   3.162
71907W        W44233  38.105   5.698  12.576
71908W        W44234  40.337  13.760  13.065
71909W        W44235  18.401   5.720   2.409
71910W        W44236  38.412   1.991   3.612
71911W        W44237  26.754   5.690   3.330
71912W        W44238   6.790  41.540  13.503
71913W        W44239  19.481  21.546   1.980
71914W        W44240  38.063  18.826   2.783
71915W        W44241  32.158  42.660   0.741
71916W        W44242  15.671  34.496  14.129
71917W        W44243  42.899  17.630   0.444
71918W        W44244  33.407   2.854   4.354
71919W        W44245  42.057  20.763   3.688
71920W        W44246  34.385  29.897  11.118
71921W        W44247  16.570  28.019   1.993
71922W        W44248  11.870   6.806   2.909
71923W        W44249  24.465  23.654   4.740
71924W        W44250  16.147  42.579   4.555
71925W        W44251  19.016  17.209   4.198
71926W        W44252  27.426   6.274  11.486
71927W        W44253   2.974  43.014  14.489
71928W        W44254  31.610  29.193  10.991
71929W        W44255  34.300  12.216   1.705
71930W        W44256  22.058  13.816   2.784
71931W        W44257  39.901   6.052  12.967
71932W        W44258  27.914  43.095  14.493
71933W        W44259  10.640  15.749  11.344
71934W        W44260  31.833  11.241   1.822
71935W        W44261  36.524  38.014   4.780
71936W        W44262  15.592  34.787   3.214
71937W        W44263   4.437  30.115   4.385
71938W        W44264   6.351   2.363  14.855
71939W        W44265  40.103  25.606   1.414
71940W        W44266  42.226  16.792   4.275
71941W        W44267  35.934  18.821  14.402
71942W        W44268  37.320   3.256   1.358
71943W        W44269   9.269   5.173  11.969
71944W        W44270  32.399  26.446  12.438
71945W        W44271  12.462  23.765  10.517
71946W        W44272  13.770   2.144  13.543
71947W        W44273   2.736  42.118  13.559
71948W        W44274  26.694  25.507  14.930
71949W        W44275  22.659  37.523  10.199
71950W        W44276  19.735  17.534  12.310
71951W        W44277  33.494  40.960  13.879
71952W        W44278  36.063   7.238  10.862
71953W        W44279  32.627   9.759  11.187
71954W        W44280   6.313  34.527   4.559
71955W        W44281  28.142  27.949  11.132
71956W        W44282  19.623  29.659   3.874
71957W        W44283  22.663   1.559   3.572
71958W        W44284  40.181   3.760   3.605
71959W        W44285  20.675  11.099  13.003
71960W        W44286  22.801  42.764   0.322
71961W        W44287  27.688  42.758  12.429
71962W        W44288  11.097  25.068   3.829
71963W        W44289  29.473  17.260   1.267
71964W        W44290  29.654  42.890  13.810
71965W        W44291  43.116  20.193   1.440
71966W        W44292   8.881  40.326  13.395
71967W        W44293  31.502  26.317   2.262
71968W        W44294   0.225  22.719   0.904
71969W        W44295  36.137  34.415   2.885
71970W        W44296  32.065  20.585   4.657
71971W        W44297  31.469  36.465  13.225
71972W        W44298  31.470  41.696   4.159
71973W        W44299  25.083  26.833   5.345
71974W        W44300  26.072  31.000   0.909
71975W        W44301  27.215  18.154  14.967
71976W        W44302  37.052  32.291  10.623
71977W        W44303  41.406  38.483  11.512
71978W        W44304  40.024   7.963   0.482
71979W        W44305  41.620   1.543  12.790
71980W        W44306   7.882  24.060  10.759
71981W        W44307  36.033   6.317   3.091
71982W        W44308  38.836  39.783  12.555
71983W        W44309  42.776  43.541   4.122
71984W        W44310  11.859  22.715   5.176
71985W        W44311   0.603   0.546   4.243
71986W        W44312  28.142  22.652  10.772
71987W        W44313   3.690  16.492   4.045
71988W        W44314   2.531   6.678   2.688
71989W        W44315  20.579  17.037  13.401
71990W        W44316  43.909  16.258   2.504
71991W        W44317  28.971  32.477  12.642
71992W        W44318  27.002  22.063  11.685
71993W        W44319  21.277  21.593  12.925
71994W        W44320  26.965  28.994   1.883
71995W        W44321  11.771  33.941  12.656
71996W        W44322  23.525  42.292   2.970
71997W        W44323  40.828   1.487  12.408
71998W        W44324   4.884  29.237   4.690
71999W        W44325  44.851  27.601  12.473
72000W        W44326  17.092  11.797  14.302
72001W        W44327  18.674  23.512  10.814
72002W        W44328   0.819   0.828  13.355
72003W        W44329   5.689  35.010  10.405
72004W        W44330  27.262  27.706  12.042
72005W        W44331  36.850   5.793  14.933
72006W        W44332  42.287  25.691   0.362
72007W        W44333  34.095  37.270  11.467
72008W        W44334  43.545   0.425  13.532
72009W        W44335  10.402  13.732   1.829
72010W        W44336  35.067   6.954  11.691
72011W        W44337  21.128   9.640   0.817
72012W        W44338  16.199  20.706   1.558
72013W        W44339  18.593  25.206  11.073
72014W        W44340  11.859  17.469   2.246
72015W        W44341  24.077  39.924   3.042
72016W        W44342  40.991   6.383  14.478
72017W        W44343  43.975  10.992  10.866
72018W        W44344  11.957  43.823   1.909
72019W        W44345  26.022  21.603  10.908
72020W        W44346  39.792  22.156   1.344
72021W        W44347   1.584  27.416  12.100
72022W        W44348  14.547   7.460   2.765
72023W        W44349   1.540  16.865  10.232
72024W        W44350  41.859  38.770   3.691
72025W        W44351  27.959   4.817  14.411
72026W        W44352  22.016  44.814   2.427
72027W        W44353  35.749  14.180   0.420
72028W        W44354  19.744  29.616  12.890
72029W        W44355  14.637  20.980  14.219
72030W        W44356  16.091   4.487  12.510
72031W        W44357   4.670  34.091   3.124
72032W        W44358  34.036  11.952  14.491
72033W        W44359   2.532   6.185  12.005
72034W        W44360  14.621  30.178  11.556
72035W        W44361  35.790  15.278   4.597
72036W        W44362  16.606   4.296  10.708
72037W        W44363  37.107   8.353  13.504
72038W        W44364   3.025   6.440   1.081
72039W        W44365  29.162  11.253   1.921
72040W        W44366  29.487  31.131  11.402
72041W        W44367  10.776  40.358  14.305
72042W        W44368   3.006   0.473  11.213
72043W        W44369  11.285  34.938   2.011
72044W        W44370  14.242  26.266  14.001
72045W        W44371   8.610   7.932   3.247
72046W        W44372  11.596  19.195  11.636
72047W        W44373  36.825   7.596  10.201
72048W        W44374  33.154  18.105  10.471
72049W        W44375   6.450  14.436   9.830
72050W        W44376  12.625  21.451  14.780
72051W        W44377  33.370   7.278   1.300
72052W        W44378  28.548  15.467   2.629
72053W        W44379  38.530   4.889   1.848
72054W        W44380  41.367  33.633  10.764
72055W        W44381  26.503  44.377   2.184
72056W        W44382  27.851   6.595   2.250
72057W        W44383  20.807  36.342   3.205
72058W        W44384  12.931  44.540   4.699
72059W        W44385   0.729  40.602   2.249
72060W        W44386  19.506  22.593   4.560
72061W        W44387  18.303  13.565   3.660
72062W        W44388  42.333  33.292  14.217
72063W        W44389   8.481  24.893   0.053
72064W        W44390   2.672  11.217   1.902
72065W        W44391   0.813  29.609   0.257
72066W        W44392   2.346  31.426   3.737
72067W        W44393  34.072  14.643   2.508
72068W        W44394  40.020  22.200   3.481
72069W        W44395   1.317  11.613  10.662
72070W        W44396  44.545  37.928  12.491
72071W        W44397  19.387  10.826   3.328
72072W        W44398  19.999   4.053   3.249
72073W        W44399   8.714   1.414  12.713
72074W        W44400  32.100  28.958   3.632
72075W        W44401   1.761  25.622  11.145
72076W        W44402   0.705   4.385   0.410
72077W        W44403  24.021  12.841  13.679
72078W        W44404  41.635   8.958  12.846
72079W        W44405  32.415  43.853   1.745
72080W        W44406   3.840   7.069   1.912
72081W        W44407  18.074  22.059  13.328
72082W        W44408  20.229  36.342  11.828
72083W        W44409  13.622   3.215   0.897
72084W        W44410  30.895  22.926   0.788
72085W        W44411  22.069  24.683  14.826
72086W        W44412  23.584   3.356   0.842
72087W        W44413  14.332   7.882   3.834
72088W        W44414  29.033   7.423   2.824
72089W        W44415   3.061  26.060  11.632
72090W        W44416  23.601  15.618  13.262
72091W        W44417  44.928  38.087   2.608
72092W        W44418  13.037  40.202   2.828
72093W        W44419  25.729  22.985  14.903
72094W        W44420  17.264  33.670   2.247
72095W        W44421  15.026  22.120   1.984
72096W        W44422   5.660  12.177   2.848
72097W        W44423  17.264  10.141  11.962
72098W        W44424  10.971  20.041  12.022
72099W        W44425  29.447  29.001  11.610
72100W        W44426  22.631  43.550   0.877
72101W        W44427  42.379  30.378   1.968
72102W        W44428  24.547  26.574  13.340
72103W        W44429  22.564  31.383  13.429
72104W        W44430  36.269  21.076  14.237
72105W        W44431  19.484   6.288   5.057
72106W        W44432  13.667  44.336   0.479
72107W        W44433  25.970  16.725   5.296
72108W        W44434  43.993  37.070  10.567
72109W        W44435  39.609   4.695   0.244
72110W        W44436   3.308  15.146  14.709
72111W        W44437   5.201  30.394   4.125
72112W        W44438  27.505  19.136   0.814
72113W        W44439   2.477  15.580   1.338
72114W        W44440  18.157  16.102  12.855
72115W        W44441  38.971  13.685  13.453
72116W        W44442  21.463  24.124  12.464
72117W        W44443  34.181   7.322   0.949
72118W        W44444  33.412   9.661   1.908
72119W        W44445  37.562  28.962   1.341
72120W        W44446  24.626  38.876   0.882
72121W        W44447   8.583  35.221   5.094
72122W        W44448  31.104   4.326  14.786
72123W        W44449   2.182  29.314  12.313
72124W        W44450  23.484  38.330   3.301
72125W        W44451  27.152  39.579  11.707
72126W        W44452  37.970   9.417   3.573
72127W        W44453   2.674  44.454  13.290
72128W        W44454  12.302  34.140   0.881
72129W        W44455  18.819   5.596  13.446
72130W        W44456  37.700  40.640   0.414
72131W        W44457   3.760  25.511   0.660
72132W        W44458  30.706  35.840   3.648
72133W        W44459  18.089  10.357  11.845
72134W        W44460  11.217   9.674  12.418
72135W        W44461  19.523  10.697   1.616
72136W        W44462  43.715  42.719   1.543
72137W        W44463  27.741  28.462   1.888
72138W        W44464   2.274  32.513  14.826
72139W        W44465  30.993   2.192  14.432
72140W        W44466   8.768  43.977  14.546
72141W        W44467  15.569  20.083  14.883
72142W        W44468   6.347   7.031   2.857
72143W        W44469   6.774  42.917   3.673
72144W        W44470   1.743  19.297   1.830
72145W        W44471  31.089   1.951  13.969
72146W        W44472  35.568  38.104  13.570
72147W        W44473  14.128  35.009   1.359
72148W        W44474  43.048  12.209  12.014
72149W        W44475   1.247  18.551   4.776
72150W        W44476   6.178   8.558   2.284
72151W        W44477   6.151  33.142   0.942
72152W        W44478  41.711  25.568   2.708
72153W        W44479  16.649   4.750  13.475
72154W        W44480  17.743  19.487   3.340
72155W        W44481   8.164   3.462  14.199
72156W        W44482  20.074   6.719   4.113
72157W        W44483  24.184  23.627   1.343
72158W        W44484   8.595   3.711   2.089
72159W        W44485  14.116  14.632   0.877
72160W        W44486   7.930  29.682  14.337
72161W        W44487  14.289  23.617  13.911
72162W        W44488  22.551  42.848   3.830
72163W        W44489  37.466  12.333  10.540
72164W        W44490  37.884  27.994  14.180
72165W        W44491  42.516  34.880   3.271
72166W        W44492  35.359   5.507  12.994
72167W        W44493  12.373  39.722  12.139
72168W        W44494  30.659  12.868   0.365
72169W        W44495  22.083  20.154  11.199
72170W        W44496   6.090   6.859   3.279
72171W        W44497  27.973  20.632   0.986
72172W        W44498  25.074  16.575   1.819
72173W        W44499  10.881   8.126   2.291
72174W        W44500  28.215  31.580   1.540
72175W        W44501  35.377  43.961  11.182
72176W        W44502  42.507  38.257  12.878
72177W        W44503  35.617   2.003  13.540
72178W        W44504  32.385   4.636  10.981
72179W        W44505  34.352   1.880  12.925
72180W        W44506  33.506   9.604   4.207
72181W        W44507  36.428   2.833  14.829
72182W        W44508  20.537  32.180  12.102
72183W        W44509  41.807  29.178  14.878
72184W        W44510   4.932  20.144   1.197
72185W        W44511   8.618  39.945  13.762
72186W        W44512  44.191  35.561   4.538
72187W        W44513  19.757  12.235  10.912
72188W        W44514  18.107  33.071   1.257
72189W        W44515   2.240  24.610   0.170
72190W        W44516  22.117  11.449  11.886
72191W        W44517  19.283  22.296  13.974
72192W        W44518  22.249  18.089   0.723
72193W        W44519  25.886   5.311   0.858
72194W        W44520   0.660  16.683  12.447
72195W        W44521  12.833  36.642  11.115
72196W        W44522  44.061   2.792   1.915
72197W        W44523  44.740   0.812  10.381
72198W        W44524  24.984  24.963  13.949
72199W        W44525  43.314  19.517  12.417
72200W        W44526  22.088  10.541  11.651
72201W        W44527  40.417  33.376   1.154
72202W        W44528  31.921   0.364  13.163
72203W        W44529  35.097   4.853   3.256
72204W        W44530   8.750  31.054   0.361
72205W        W44531  38.622  27.593  12.655
72206W        W44532  28.926  30.496  14.027
72207W        W44533  31.734  34.559  14.415
72208W        W44534  11.816   8.239   2.194
72209W        W44535  40.458  21.006  12.097
72210W        W44536  22.746  22.258   4.946
72211W        W44537  40.804  44.823  13.707
72212W        W44538  34.002  38.173  13.886
72213W        W44539   5.462  30.957  12.005
72214W        W44540  37.042   4.443   2.121
72215W        W44541  28.870   7.762  11.028
72216W        W44542  35.377   4.412   3.251
72217W        W44543   6.449  30.293   1.034
72218W        W44544  28.980  24.418   2.286
72219W        W44545  19.614  10.292  11.696
72220W        W44546   5.544  27.115  11.495
72221W        W44547   9.381   8.320  10.752
72222W        W44548   8.929  15.789  13.986
72223W        W44549  24.240   2.243  12.933
72224W        W44550  22.821   1.993  12.864
72225W        W44551  44.782   0.919  13.145
72226W        W44552  35.043   1.431  11.969
72227W        W44553   7.857  31.090   3.370
72228W        W44554   6.083   8.849   2.724
72229W        W44555   2.408  15.668   4.134
72230W        W44556  43.977  44.054   4.541
72231W        W44557  19.622   8.673  12.434
72232W        W44558  14.138  30.461  14.815
72233W        W44559  23.492  26.975  11.673
72234W        W44560   0.362  43.323  12.094
72235W        W44561   4.202   5.206   3.285
72236W        W44562  11.856  39.080   4.270
72237W        W44563  21.117  26.854   1.877
72238W        W44564   8.316   3.299   1.335
72239W        W44565  12.425  15.079  10.949
72240W        W44566   4.006  12.200  14.959
72241W        W44567  28.861   6.685   4.140
72242W        W44568  28.206  22.673  14.966
72243W        W44569   4.886  30.388   1.449
72244W        W44570  18.574  38.300   2.412
72245W        W44571  43.049  41.060  13.460
72246W        W44572  19.135  43.082   3.247
72247W        W44573  13.882  11.627   1.865
72248W        W44574  27.434  36.531  11.625
72249W        W44575  15.718   4.260  11.781
72250W        W44576   2.413   1.032   2.177
72251W        W44577  43.665  37.874  11.433
72252W        W44578  21.199  36.333  14.900
72253W        W44579  20.355  43.469   4.317
72254W        W44580  27.129   1.272  12.607
72255W        W44581   6.319  27.402   4.103
72256W        W44582   9.900  44.598   2.875
72257W        W44583   4.266  36.786  11.094
72258W        W44584  12.182  13.894  10.703
72259W        W44585  17.188  42.284   0.030
72260W        W44586   1.547  25.903  11.599
72261W        W44587  42.290  26.421   3.844
72262W        W44588  35.021  10.173   1.927
72263W        W44589  33.883  20.665   3.163
72264W        W44590  25.504  34.068   1.283
72265W        W44591   9.856   7.580   3.800
72266W        W44592   8.726  35.877   1.819
72267W        W44593  16.517  42.600   0.567
72268W        W44594  31.842  23.158   3.258
72269W        W44595  10.464  21.106  11.936
72270W        W44596  11.231  17.209  13.627
72271W        W44597  17.055   2.698  11.001
72272W        W44598  11.598   2.962   0.065
72273W        W44599  25.542  22.634   4.589
72274W        W44600   0.032  21.707  13.998
72275W        W44601  33.113  42.482  14.372
72276W        W44602   3.994  15.592  10.683
72277W        W44603   5.343  31.622   2.033
72278W        W44604  16.625  16.153  13.941
72279W        W44605  19.515   5.090  14.584
72280W        W44606  30.177  15.187  14.356
72281W        W44607  37.319  39.585   4.228
72282W        W44608  18.549  19.849  14.799
72283W        W44609  44.748  21.471  11.877
72284W        W44610  43.538  25.773   1.456
72285W        W44611  40.806   9.400   1.158
72286W        W44612  29.376  14.792  14.406
72287W        W44613   4.370  33.551   3.715
72288W        W44614  11.710  11.682   0.774
72289W        W44615  23.798  21.460  13.325
72290W        W44616  42.353  35.509  12.411
72291W        W44617   3.823  32.434   4.581
72292W        W44618  26.778  33.462   3.820
72293W        W44619  19.511  43.127  12.158
72294W        W44620  32.470   7.464   2.642
72295W        W44621  39.843  42.531  11.399
72296W        W44622  10.910  36.887  11.991
72297W        W44623  22.971  44.389   0.530
72298W        W44624  15.557  38.478   3.325
72299W        W44625  34.836   0.752  14.415
72300W        W44626  30.472  42.686  10.795
72301W        W44627   4.011  42.704   5.046
72302W        W44628   5.399  43.088   1.372
72303W        W44629  23.969  39.498   2.710
72304W        W44630  18.044   2.469   1.731
72305W        W44631  38.550  43.577  10.748
72306W        W44632   9.621  12.400   1.206
72307W        W44633   7.150  42.342  11.229
72308W        W44634  41.391  17.734  12.015
72309W        W44635  43.887  42.931  10.722
72310W        W44636  19.962  36.560  10.913
72311W        W44637  32.485  31.819   2.769
72312W        W44638   4.029  38.501  14.062
72313W        W44639  23.604  37.505   2.570
72314W        W44640   1.345   2.368  12.847
72315W        W44641  44.456  38.039  11.955
72316W        W44642  39.087  29.492   3.685
72317W        W44643  30.082  34.842  12.295
72318W        W44644  20.759  14.113   2.749
72319W        W44645  36.932  16.209   1.831
72320W        W44646   6.444  34.917   2.107
72321W        W44647  26.922   2.148  11.134
72322W        W44648  24.073  13.205   4.832
72323W        W44649  24.923  34.391  12.440
72324W        W44650  28.552  16.698   1.061
72325W        W44651  10.922  18.337  10.694
72326W        W44652   0.787  16.567  13.919
72327W        W44653  19.231  31.374  12.003
72328W        W44654   2.493   4.338   4.102
72329W        W44655  24.547  15.693  14.432
72330W        W44656  43.299  16.588   2.366
72331W        W44657  11.206  11.683   0.970
72332W        W44658   4.550   6.020  13.877
72333W        W44659  37.631  27.522  14.262
72334W        W44660  41.457  21.721  12.190
72335W        W44661  16.429  35.558   1.834
72336W        W44662  41.018   2.816   0.929
72337W        W44663  37.433  40.691   2.174
72338W        W44664  35.003  10.917   1.422
72339W        W44665  24.295  20.084  12.035
72340W        W44666  32.950   1.377   4.172
72341W        W44667   3.384  14.655   1.490
72342W        W44668   9.191  41.057   0.875
72343W        W44669  22.777  39.005   4.981
72344W        W44670  13.130  36.373  10.774
72345W        W44671  40.463  44.103  14.299
72346W        W44672   9.307   0.594   2.382
72347W        W44673  17.077  30.027   3.617
72348W        W44674  34.000  19.555  13.389
72349W        W44675  15.702   2.674   0.025
72350W        W44676  30.196   6.442  12.033
72351W        W44677  42.855  10.361  14.251
72352W        W44678   4.139  43.538  12.464
72353W        W44679  10.169  10.440   1.508
72354W        W44680  44.535  35.436  10.952
72355W        W44681   2.056  38.994  11.455
72356W        W44682   9.645  20.016  11.309
72357W        W44683  16.007   1.682  11.519
72358W        W44684   3.917   1.879  12.652
72359W        W44685   0.777  18.045   0.156
72360W        W44686  35.490   6.836   3.720
72361W        W44687  28.629   5.957  10.705
72362W        W44688  38.283   5.374  10.600
72363W        W44689  27.608  25.397   0.764
72364W        W44690  13.383  40.571  14.997
72365W        W44691  31.031  17.262  12.970
72366W        W44692   4.154  13.581   2.237
72367W        W44693   1.407  11.764   1.580
72368W        W44694  14.238   6.775   1.680
72369W        W44695  16.161  41.557  14.031
72370W        W44696  22.204  19.085  12.083
72371W        W44697   1.545  16.668   3.787
72372W        W44698  10.222   6.466   3.258
72373W        W44699   4.695  32.988  13.889
72374W        W44700   3.577  37.655   0.518
72375W        W44701  36.102  29.565   1.475
72376W        W44702  38.207   9.258   0.156
72377W        W44703  15.609  42.491  11.136
72378W        W44704  22.544  10.993   1.778
72379W        W44705   8.745  37.799  13.892
72380W        W44706   7.331  43.255   4.727
72381W        W44707  16.557  36.775   0.813
72382W        W44708   0.948  36.861   4.257
72383W        W44709  42.344  38.147   4.226
72384W        W44710  28.225  32.638   3.629
72385W        W44711  16.225  21.154  11.001
72386W        W44712  17.726   6.888  10.694
72387W        W44713  38.048  43.547  14.044
72388W        W44714  41.840  26.077   2.724
72389W        W44715   2.343  12.682  13.592
72390W        W44716  21.537  17.127   2.724
72391W        W44717  44.789  30.471   3.173
72392W        W44718  41.774   7.700   0.437
72393W        W44719   5.954  24.574   4.096
72394W        W44720  21.012   3.624   4.041
72395W        W44721  38.355  17.188  11.655
72396W        W44722  21.588   1.921   0.367
72397W        W44723  22.906  31.542  14.728
72398W        W44724  34.496  24.200   2.701
72399W        W44725  21.647  25.016   1.794
72400W        W44726   1.692   6.680   3.618
72401W        W44727  43.966   6.253  11.592
72402W        W44728   3.755  10.412   2.813
72403W        W44729  11.868   0.500   3.729
72404W        W44730   2.038   5.495  14.814
72405W        W44731  24.699  11.310  10.922
72406W        W44732  33.559  41.217  13.423
72407W        W44733  27.735  40.051   2.235
72408W        W44734  10.586  16.161   0.496
72409W        W44735  12.125  41.596  14.343
72410W        W44736   9.563  29.745  14.345
72411W        W44737  27.600  15.176  11.991
72412W        W44738  17.023  40.867   0.441
72413W        W44739  10.794  33.167  11.955
72414W        W44740  19.031   3.336  13.033
72415W        W44741  36.574  19.326  14.757
72416W        W44742  35.852  42.010  14.912
72417W        W44743  28.767  10.800  14.919
72418W        W44744  34.983  36.622  10.801
72419W        W44745  33.944  34.838  12.701
72420W        W44746  19.203  30.732  13.956
72421W        W44747  28.923  19.091   0.302
72422W        W44748  17.256  20.775  13.367
72423W        W44749  28.645  14.786   4.544
72424W        W44750  40.004   7.527   1.277
72425W        W44751   4.738  34.512   2.406
72426W        W44752  44.820  42.392   3.605
72427W        W44753   3.861  28.431   2.472
72428W        W44754  31.791  10.526  14.616
72429W        W44755  40.909  15.630  14.776
72430W        W44756  44.296  36.016  13.846
72431W        W44757  34.765  23.040  12.252
72432W        W44758  12.846  41.937  12.057
72433W        W44759  35.781   5.651   1.497
72434W        W44760  28.878  33.084   1.970
72435W        W44761   5.307  36.609  13.793
72436W        W44762   5.243  30.939  12.906
72437W        W44763  42.280   8.283   3.134
72438W        W44764   0.151   0.379  12.665
72439W        W44765  36.574  34.552   5.475
72440W        W44766   3.347  26.889   4.636
72441W        W44767  30.235  41.651  13.905
72442W        W44768   0.026  10.395   1.410
72443W        W44769  33.832  31.951   4.106
72444W        W44770  44.309   7.165   1.506
72445W        W44771  16.267  19.095   2.347
72446W        W44772   8.280   2.214   0.427
72447W        W44773  12.755  18.157  12.403
72448W        W44774   6.831  30.677   1.903
72449W        W44775  30.001  15.664  11.170
72450W        W44776  13.247   7.435   1.283
72451W        W44777  43.396  38.520  13.380
72452W        W44778   3.717  11.865  14.297
72453W        W44779  40.809  19.757   1.878
72454W        W44780  44.501  28.600   3.596
72455W        W44781   3.958  27.122  11.460
72456W        W44782  17.972   8.292   4.621
72457W        W44783  33.376  32.024   2.316
72458W        W44784   0.820  38.933  14.750
72459W        W44785  39.022  37.877   1.660
72460W        W44786  22.074  32.684   3.238
72461W        W44787  36.382   8.526  11.090
72462W        W44788  39.037  29.228  14.400
72463W        W44789  18.682  24.765  12.289
72464W        W44790   3.739  17.687  12.377
72465W        W44791   0.358   9.285   4.626
72466W        W44792   6.238  44.380  11.097
72467W        W44793   1.414  28.770  14.758
72468W        W44794  43.243  20.251   3.800
72469W        W44795  43.734  28.850   2.172
72470W        W44796  19.059  36.066  13.109
72471W        W44797  44.050  32.426  11.970
72472W        W44798   4.305  37.470  13.550
72473W        W44799  22.939  25.466   4.122
72474W        W44800  26.585  14.299   3.299
72475W        W44801  25.547  27.234   4.616
72476W        W44802  33.369  32.137   4.209
72477W        W44803  30.056  40.254  10.703
72478W        W44804   4.189  22.284  13.005
72479W        W44805  10.401   3.947   3.372
72480W        W44806  40.357  30.231  14.911
72481W        W44807   2.748   5.879  12.363
72482W        W44808  16.062  19.587   3.124
72483W        W44809  18.805   6.045  14.398
72484W        W44810   8.787   6.778  14.735
72485W        W44811  30.098  18.616  11.252
72486W        W44812  16.063  19.470  12.795
72487W        W44813  22.089  15.720   4.637
72488W        W44814   0.246  12.879   3.022
72489W        W44815  10.876  26.907   3.595
72490W        W44816   5.331  36.264   0.693
72491W        W44817  34.203   5.338   0.912
72492W        W44818  28.396  20.699   0.633
72493W        W44819  37.829  32.079   4.409
72494W        W44820  36.109  26.058   0.316
72495W        W44821  17.776  20.709   4.555
72496W        W44822  27.048  39.971   4.199
72497W        W44823  24.846   6.771   0.155
72498W        W44824   2.980  15.571  14.786
72499W        W44825  31.524  23.326   0.102
72500W        W44826  20.514  30.857  14.414
72501W        W44827  18.530  31.608  12.867
72502W        W44828  18.198  23.998   4.213
72503W        W44829  33.948  40.887  10.766
72504W        W44830  15.867  18.978   4.124
72505W        W44831  33.341  15.509   4.611
72506W        W44832  11.311  27.516  12.434
72507W        W44833  23.111   5.190  12.537
72508W        W44834  43.034  33.371   4.284
72509W        W44835  31.733  13.669  14.760
72510W        W44836  20.176  44.242   2.735
72511W        W44837  25.339  17.334  12.367
72512W        W44838  19.660  10.398  13.922
72513W        W44839  23.195  19.593   0.536
72514W        W44840   6.747  22.794   1.020
72515W        W44841   1.772   3.854   1.463
72516W        W44842  14.908  28.092   2.009
72517W        W44843  18.520  40.489   0.689
72518W        W44844  15.026   7.235   2.677
72519W        W44845  10.356  11.794   1.323
72520W        W44846   4.762  14.813  10.745
72521W        W44847  43.865  24.622   1.940
72522W        W44848  21.354  12.231  13.250
72523W        W44849  27.648  44.951   3.630
72524W        W44850   0.846  38.360   2.638
72525W        W44851  16.558  36.611   1.305
72526W        W44852  37.420  34.588  12.060
72527W        W44853  17.726  30.937  10.654
72528W        W44854  13.108  21.870  10.060
72529W        W44855  28.427  43.309   0.904
72530W        W44856  40.618   0.523   4.547
72531W        W44857  23.610   2.952   4.517
72532W        W44858  40.753  23.985  14.816
72533W        W44859  11.626  42.368   5.225
72534W        W44860  12.153  27.552   5.128
72535W        W44861  30.587   4.199   1.928
72536W        W44862  29.476  35.053   4.554
72537W        W44863  36.852  29.029   4.509
72538W        W44864  41.358  38.793   2.678
72539W        W44865  30.819  21.511  12.053
72540W        W44866   7.791  34.464   4.820
72541W        W44867  10.566   9.940   0.924
72542W        W44868   5.393  23.216   3.872
72543W        W44869  18.699   1.881  12.815
72544W        W44870  11.225   6.026   3.280
72545W        W44871  27.670  42.551   1.883
72546W        W44872  39.273  10.255   1.388
72547W        W44873  10.180   3.748   4.616
72548W        W44874  23.245  40.351  13.338
72549W        W44875   1.343  44.924   1.474
72550W        W44876   4.547  34.461  14.388
72551W        W44877   5.829  10.870  12.907
72552W        W44878  25.214  19.272   1.412
72553W        W44879  36.362   4.900  13.542
72554W        W44880  19.625  22.273  14.363
72555W        W44881  19.793   4.161   2.784
72556W        W44882  27.797  43.889   4.698
72557W        W44883  33.722  33.579   1.980
72558W        W44884  39.106  32.972   1.724
72559W        W44885  22.802  35.315   2.200
72560W        W44886  27.304  41.426  14.162
72561W        W44887  15.492  34.456  10.689
72562W        W44888  39.794  26.694   4.017
72563W        W44889  10.840  15.697   4.223
72564W        W44890  23.718  27.112   4.058
72565W        W44891  41.844  19.752   1.000
72566W        W44892   4.957  44.634  14.567
72567W        W44893  18.828   0.953  12.452
72568W        W44894   3.472  30.752  11.782
72569W        W44895  33.153  35.276  13.759
72570W        W44896   0.364   4.007  12.472
72571W        W44897  44.075  16.557   3.784
72572W        W44898  21.491  26.337  11.075
72573W        W44899  20.565  37.376   1.291
72574W        W44900  37.667   1.285   3.405
72575W        W44901  43.747  16.729   2.627
72576W        W44902  39.969   1.728   0.369
72577W        W44903  18.747  43.082  10.678
72578W        W44904   4.315  31.665   4.663
72579W        W44905   6.604   0.418   2.819
72580W        W44906  39.006   5.228  13.556
72581W        W44907  13.694  35.161   1.762
72582W        W44908  22.328  17.824  10.978
72583W        W44909  21.768  24.476   4.200
72584W        W44910  21.681  25.132   4.740
72585W        W44911  21.597   7.752  14.197
72586W        W44912  11.047  44.311   0.804
72587W        W44913   8.126  11.203  12.070
72588W        W44914  11.582  28.079  10.838
72589W        W44915  38.255   1.993  12.993
72590W        W44916  37.214   9.888  14.519
72591W        W44917   5.215  29.610   3.542
72592W        W44918  12.737   7.817   1.835
72593W        W44919  44.486  43.250  14.099
72594W        W44920  37.427  17.229   3.118
72595W        W44921  14.276  35.354  13.777
72596W        W44922  33.069  18.774  10.997
72597W        W44923  15.073   6.422  11.161
72598W        W44924  32.447   4.292  14.046
72599W        W44925  38.518  22.320  13.729
72600W        W44926   2.130  30.799  13.907
72601W        W44927   6.606  35.093  14.848
72602W        W44928   0.803  19.561  13.439
72603W        W44929   4.881   2.455   5.514
72604W        W44930  29.429  36.989  14.849
72605W        W44931  29.260  21.611  11.023
72606W        W44932  13.626  31.607   2.898
72607W        W44933  27.108   1.748  14.467
72608W        W44934  11.158   4.131  13.072
72609W        W44935  29.600  24.616  10.872
72610W        W44936  26.968  32.198  13.890
72611W        W44937  19.612  14.260  14.803
72612W        W44938  20.981   4.325   3.383
72613W        W44939   5.774   2.786   4.796
72614W        W44940  31.022  16.069  13.998
72615W        W44941  15.074  39.180   2.182
72616W        W44942  31.079  26.075  14.970
72617W        W44943  11.118  30.105  11.940
72618W        W44944  15.824   5.223  14.553
72619W        W44945  37.929   1.696   1.697
72620W        W44946  11.566  35.822  11.070
72621W        W44947  36.295  12.818   3.421
72622W        W44948  40.265   7.862   0.968
72623W        W44949  35.838   3.741  14.303
72624W        W44950  32.427   8.251  11.045
72625W        W44951   4.746  16.856  10.697
72626W        W44952  32.479  11.112   3.083
72627W        W44953  13.770  21.706  14.470
72628W        W44954   7.188  18.985  12.399
72629W        W44955  25.521   9.576  13.009
72630W        W44956  15.566  42.786   1.388
72631W        W44957  24.648  38.267   9.537
72632W        W44958  25.166  12.550   0.894
72633W        W44959  23.859  20.321   0.394
72634W        W44960  11.143  39.985  10.400
72635W        W44961  33.183   7.937   2.230
72636W        W44962  14.558   1.357  10.607
72637W        W44963  24.429  21.697  12.466
72638W        W44964  16.284  37.837   3.820
72639W        W44965  22.238   0.474  14.782
72640W        W44966   4.157  25.175  12.642
72641W        W44967   8.334  17.603   3.586
72642W        W44968  14.301   5.016  13.973
72643W        W44969  23.699  27.219  12.090
72644W        W44970  30.628  39.568  11.598
72645W        W44971  25.955  41.841   3.433
72646W        W44972  18.215  39.304   4.407
72647W        W44973  36.902  17.616  10.635
72648W        W44974  40.032  40.456   2.124
72649W        W44975  42.875  39.347   1.929
72650W        W44976  43.965  18.193   0.240
72651W        W44977   1.333   2.730   3.797
72652W        W44978  28.779  27.954  14.908
72653W        W44979   1.250  11.039   0.359
72654W        W44980   8.325  18.626   1.010
72655W        W44981   0.915  18.349   2.825
72656W        W44982   0.404  19.248  13.349
72657W        W44983  10.895   2.304  12.146
72658W        W44984  21.183  18.987   1.941
72659W        W44985   2.433  28.395  14.876
72660W        W44986  12.771  16.321  13.862
72661W        W44987  34.832  43.548  12.408
72662W        W44988  38.356  44.846  12.444
72663W        W44989  35.580  34.868   2.267
72664W        W44990   2.045  21.056   2.852
72665W        W44991   3.748  27.014  13.925
72666W        W44992  37.585  16.191   0.249
72667W        W44993  17.122  23.275  11.975
72668W        W44994  12.735   0.686   4.478
72669W        W44995   3.183  25.960   2.022
72670W        W44996  14.604  37.852   0.275
72671W        W44997  31.586  29.041   4.575
72672W        W44998  28.130   2.342   4.414
72673W        W44999   7.891  14.600  10.260
72674W        W45000  34.885  27.139  10.829
72675W        W45001  42.430  38.749  13.000
72676W        W45002  12.851  43.461  12.041
72677W        W45003  17.622   3.466  12.877
72678W        W45004  26.269   9.505  13.325
72679W        W45005  17.255  15.779   3.487
72680W        W45006  26.404   2.429   1.651
72681W        W45007  11.177  12.349  11.241
72682W        W45008  23.082  33.391   0.505
72683W        W45009  40.486   8.810  13.843
72684W        W45010  14.769  35.683   1.960
72685W        W45011   5.645  43.556  14.194
72686W        W45012  20.575   9.936   1.957
72687W        W45013  38.272  42.860   0.393
72688W        W45014  40.565   2.672  14.784
72689W        W45015  29.831  13.257   5.104
72690W        W45016  17.195  15.743  10.447
72691W        W45017   4.284  16.529   1.363
72692W        W45018  33.026   2.020   2.987
72693W        W45019  31.437  28.510   1.252
72694W        W45020  38.990  39.356   3.627
72695W        W45021   3.256  21.542   9.806
72696W        W45022  12.368  12.236  14.611
72697W        W45023  40.934  30.909   0.318
72698W        W45024  36.839  16.611   1.010
72699W        W45025   6.464  35.561   0.743
72700W        W45026   3.931  12.862  14.570
72701W        W45027  20.112  25.121   1.831
72702W        W45028  33.594  32.202   4.677
72703W        W45029  16.131  20.744  10.661
72704W        W45030   5.906  10.661   2.661
72705W        W45031  27.298  30.900   2.305
72706W        W45032  32.535  35.829  14.958
72707W        W45033   2.840  32.582   4.163
72708W        W45034   2.406  44.775  14.614
72709W        W45035  22.625  23.611   0.898
72710W        W45036  16.149  37.054   1.916
72711W        W45037  40.396  44.241  12.996
72712W        W45038  31.588  11.441  14.818
72713W        W45039  20.252  13.197   0.662
72714W        W45040  32.601  11.603   3.260
72715W        W45041   3.669  12.381  14.561
72716W        W45042   3.962  32.369   2.289
72717W        W45043  30.166   1.783   4.568
72718W        W45044  13.044  35.012  14.373
72719W        W45045  13.048  20.230   0.002
72720W        W45046  35.336  42.837  13.838
72721W        W45047  11.164   4.913   1.877
72722W        W45048  16.078  28.410  12.462
72723W        W45049  10.928   9.752   4.094
72724W        W45050  24.574  31.984  12.956
72725W        W45051  12.826   8.889   4.069
72726W        W45052   0.588   4.292   4.770
72727W        W45053  37.670  36.481   1.878
72728W        W45054   2.366  27.384   0.896
72729W        W45055  23.242   3.436  12.989
72730W        W45056  27.992   3.387  12.622
72731W        W45057  40.952   4.188   3.220
72732W        W45058  25.683  15.435  14.206
72733W        W45059  10.833   3.772  14.006
72734W        W45060  24.708   4.937   2.698
72735W        W45061  37.066  16.273  11.490
72736W        W45062  41.062  10.869  13.456
72737W        W45063  20.959  34.947   3.410
72738W        W45064  21.009  17.723   4.193
72739W        W45065  42.414   0.923   3.687
72740W        W45066  44.477  17.476  12.486
72741W        W45067  44.197  32.561  13.551
72742W        W45068   5.305  22.049   2.272
72743W        W45069  27.386  43.719  14.021
72744W        W45070   1.349  31.858  10.888
72745W        W45071  40.299  32.086  11.054
72746W        W45072  35.082  11.594   1.750
72747W        W45073   9.354   1.992   3.162
72748W        W45074  12.603   8.171   3.784
72749W        W45075  32.481  15.975   3.100
72750W        W45076   8.666   2.488  14.720
72751W        W45077  43.917  30.142   2.311
72752W        W45078  30.943  10.480   2.891
72753W        W45079  35.573  41.345  13.127
72754W        W45080  19.188  23.642  10.789
72755W        W45081  25.531   1.865   0.282
72756W        W45082  23.346  41.439   3.588
72757W        W45083  19.277  14.088  11.913
72758W        W45084  15.352  24.561  11.200
72759W        W45085  35.113   0.249   0.341
72760W        W45086  24.294  38.858   5.502
72761W        W45087  11.152  16.724  13.816
72762W        W45088  32.088  42.570  14.328
72763W        W45089  39.827   0.195  11.619
72764W        W45090   6.021  17.173  12.469
72765W        W45091  20.313  37.921  11.895
72766W        W45092  19.091  24.090  13.892
72767W        W45093   3.415  18.570   0.442
72768W        W45094  36.529  43.358   0.056
72769W        W45095   0.923   3.963   3.580
72770W        W45096  42.272  36.496   2.822
72771W        W45097  11.806   9.540  14.885
72772W        W45098  35.026  31.358  11.189
72773W        W45099  24.216  24.728   2.403
72774W        W45100  35.518  44.268  12.438
72775W        W45101  10.781  31.945  13.332
72776W        W45102  30.143   2.708  14.251
72777W        W45103   3.905  40.008   0.743
72778W        W45104  22.617   7.949   2.224
72779W        W45105  19.814  33.679  14.245
72780W        W45106  31.483   2.944  14.575
72781W        W45107   0.909  15.345  10.395
72782W        W45108  33.740   5.407  13.490
72783W        W45109  41.877  12.164  11.419
72784W        W45110  12.823   6.187   3.671
72785W        W45111  38.247  18.199  11.461
72786W        W45112  26.266  36.784  11.859
72787W        W45113   5.007  16.349  12.548
72788W        W45114  17.836  41.417   2.306
72789W        W45115   9.183  31.722  13.197
72790W        W45116  44.767  30.447   4.808
72791W        W45117  11.604  16.752   0.463
72792W        W45118  33.223   3.207  13.009
72793W        W45119   5.548   8.652   4.613
72794W        W45120  13.853  21.351   1.887
72795W        W45121  41.330  42.046  13.503
72796W        W45122   9.716   2.394  11.013
72797W        W45123  24.790  37.834  13.466
72798W        W45124  37.391  18.683  11.627
72799W        W45125  23.694  35.518   4.188
72800W        W45126  10.657  18.094  12.945
72801W        W45127  23.221  26.959  12.106
72802W        W45128  31.645  42.848  13.334
72803W        W45129  31.981  13.385  11.098
72804W        W45130  35.642   9.772  14.472
72805W        W45131  31.694  37.129   1.350
72806W        W45132  23.588  19.476   3.629
72807W        W45133  14.663  20.501  14.079
72808W        W45134   3.682   0.510   4.601
72809W        W45135  40.137  26.305   4.799
72810W        W45136  14.854   8.247  14.568
72811W        W45137   5.395  24.471  12.414
72812W        W45138  37.879   5.718   3.675
72813W        W45139  19.327   2.107  12.508
72814W        W45140  13.727  22.828   4.131
72815W        W45141  32.169  30.057   1.236
72816W        W45142  11.723  41.970   4.670
72817W        W45143   5.720   3.330   0.423
72818W        W45144  12.628  10.146  11.295
72819W        W45145  30.052  18.351   2.743
72820W        W45146  39.018   5.233   1.275
72821W        W45147  41.811  28.260  12.047
72822W        W45148   5.216  35.369   4.261
72823W        W45149  12.704  13.821   4.086
72824W        W45150  12.609  35.531   5.046
72825W        W45151  19.622  30.725  11.238
72826W        W45152  14.583   5.445  13.797
72827W        W45153  14.683   0.728  13.190
72828W        W45154  37.808   0.507  14.880
72829W        W45155  18.024  35.690   4.161
72830W        W45156  19.473  36.813   3.102
72831W        W45157  24.208  30.439   4.302
72832W        W45158  16.159  16.565   0.831
72833W        W45159   7.376  28.960   1.619
72834W        W45160  29.635  38.146   1.381
72835W        W45161  35.364  24.456   1.976
72836W        W45162  37.433  14.679  13.543
72837W        W45163  41.738  30.097   0.742
72838W        W45164   5.010   4.854   2.468
72839W        W45165   1.750   5.831   1.412
72840W        W45166  29.133   5.405  13.372
72841W        W45167   1.196  20.606  12.085
72842W        W45168  42.048  22.571   0.992
72843W        W45169  39.010  39.555   4.937
72844W        W45170   9.367  32.044  12.844
72845W        W45171  34.107  32.597  13.754
72846W        W45172  39.847   3.244   0.998
72847W        W45173   4.206   9.105   0.695
72848W        W45174  43.338   0.380   0.568
72849W        W45175  43.993  41.071   1.417
72850W        W45176  20.184   3.239   3.104
72851W        W45177   4.182   4.484  10.749
72852W        W45178  29.011  29.502  13.439
72853W        W45179  27.897  10.647   1.711
72854W        W45180  30.103  35.578   3.205
72855W        W45181  33.635  25.643   4.848
72856W        W45182  33.632  26.013  13.813
72857W        W45183   3.939   4.920   0.478
72858W        W45184  17.210   0.520  14.069
72859W        W45185  18.017  21.851  12.854
72860W        W45186  10.171  15.710  14.582
72861W        W45187   1.390  41.381   3.349
72862W        W45188  43.060  19.191  12.887
72863W        W45189   5.179  27.931  11.724
72864W        W45190  36.095  28.705  11.389
72865W        W45191  35.117   8.710  10.515
72866W        W45192  29.094  16.885  12.882
72867W        W45193  14.805  41.723   2.867
72868W        W45194  23.701   0.554   2.184
72869W        W45195  33.923  39.724   3.174
72870W        W45196  39.960  11.613   3.204
72871W        W45197  35.829  21.032  14.482
72872W        W45198   2.287  13.010  10.613
72873W        W45199  40.881  42.912  11.142
72874W        W45200  28.024  44.022  14.877
72875W        W45201  25.743  41.752   4.143
72876W        W45202  11.304  31.693   0.979
72877W        W45203  27.701   4.229   3.276
72878W        W45204  39.592  19.248  13.837
72879W        W45205   5.770  38.074  13.457
72880W        W45206  26.411  17.486   0.269
72881W        W45207  18.145  38.941   4.052
72882W        W45208  26.335  17.230   5.546
72883W        W45209  19.339   7.768  11.061
72884W        W45210   3.009  11.256  13.936
72885W        W45211  33.917  15.074  10.439
72886W        W45212  12.234  11.081  11.618
72887W        W45213  29.444  27.030   4.640
72888W        W45214  26.996  28.050  11.692
72889W        W45215  37.031  40.543  12.123
72890W        W45216  37.198  42.327   1.209
72891W        W45217  25.240  33.100  11.176
72892W        W45218  36.449   5.602  14.300
72893W        W45219  15.234  18.174   0.562
72894W        W45220  17.815  27.483   2.756
72895W        W45221  33.077  29.268   3.673
72896W        W45222  43.609  25.999  11.912
72897W        W45223  24.355  16.839  11.101
72898W        W45224   0.903  37.908  10.669
72899W        W45225  24.105  11.802  12.062
72900W        W45226  36.327  32.642   0.023
72901W        W45227   1.447  40.054   2.798
72902W        W45228  26.496   0.798  10.818
72903W        W45229  21.286  34.304   1.388
72904W        W45230  25.250  39.620  10.956
72905W        W45231  14.533  11.190   0.771
72906W        W45232  26.227  13.772  11.965
72907W        W45233   1.938  30.244   2.732
72908W        W45234   4.128  21.313   1.332
72909W        W45235  22.623   0.643   3.956
72910W        W45236  27.099  41.992  13.336
72911W        W45237  44.381  27.572  13.652
72912W        W45238  20.834   0.838  10.507
72913W        W45239  24.950  31.154   1.807
72914W        W45240  41.483  31.940   1.367
72915W        W45241  29.573   1.927   3.797
72916W        W45242  13.139  38.264  11.285
72917W        W45243  28.339  12.071  11.380
72918W        W45244  22.786  35.597  14.607
72919W        W45245  22.924  15.652   5.034
72920W        W45246   6.437  29.498  12.090
72921W        W45247  25.539   3.467   2.511
72922W        W45248  15.614  15.586   0.276
72923W        W45249  24.503  20.117  10.782
72924W        W45250  38.818  20.717  13.592
72925W        W45251  36.105   4.267  12.923
72926W        W45252  34.087  35.763  12.433
72927W        W45253  38.996  23.736  12.438
72928W        W45254   3.253  22.671  14.929
72929W        W45255  34.286  43.468  14.216
72930W        W45256  21.782  38.090  11.034
72931W        W45257  19.176  18.101  11.256
72932W        W45258  21.055  17.297  14.400
72933W        W45259  10.547  11.318  13.345
72934W        W45260  16.739  38.128  10.718
72935W        W45261  37.828  28.602   3.744
72936W        W45262  31.596  42.244  12.011
72937W        W45263  33.869  18.634   1.629
72938W        W45264  41.419  41.881   4.430
72939W        W45265  27.204  10.859   1.016
72940W        W45266   0.483   0.732   1.930
72941W        W45267   1.888  30.019   3.749
72942W        W45268  33.540   4.400  10.708
72943W        W45269  38.917   7.692   0.838
72944W        W45270   7.459  36.958   2.728
72945W        W45271  33.511  18.765   4.343
72946W        W45272  40.451  16.302  13.783
72947W        W45273  34.557   1.212  11.196
72948W        W45274   7.457  44.979  14.459
72949W        W45275   5.684  35.511   0.266
72950W        W45276  18.035  18.809   0.448
72951W        W45277  21.697  17.359   3.240
72952W        W45278  21.940  18.643   2.312
72953W        W45279  36.091  12.473   2.121
72954W        W45280  34.707   5.263  10.781
72955W        W45281  25.969  41.501   2.369
72956W        W45282   8.717  43.393   2.721
72957W        W45283  33.891  17.550  10.687
72958W        W45284  20.769  26.767  13.880
72959W        W45285   5.338   2.467  12.459
72960W        W45286   9.647   7.717   4.484
72961W        W45287  42.555  33.082  11.135
72962W        W45288  20.019  38.320  12.499
72963W        W45289  31.617   9.549   4.921
72964W        W45290  23.612   8.082   1.322
72965W        W45291   9.962  37.913   0.790
72966W        W45292   9.181   1.732   0.804
72967W        W45293  28.455  18.241   1.170
72968W        W45294   8.784  35.920  11.546
72969W        W45295  32.464  20.008   0.435
72970W        W45296  43.301  27.766   3.365
72971W        W45297   0.793   5.171   4.216
72972W        W45298  34.012  15.303   3.854
72973W        W45299  42.676  37.835   0.734
72974W        W45300  38.269   6.104  13.828
72975W        W45301   5.877   2.374  14.077
72976W        W45302  40.996  42.420   1.982
72977W        W45303  33.345   5.416   2.656
72978W        W45304  15.128   5.880  14.946
72979W        W45305  16.631  40.021  11.179
72980W        W45306   5.376  29.503  12.417
72981W        W45307  16.593   6.849   0.784
72982W        W45308  19.051   4.930  12.383
72983W        W45309  40.472   8.608   2.325
72984W        W45310  16.200  12.337   2.715
72985W        W45311  29.624  22.965   3.684
72986W        W45312  14.543  24.668  13.136
72987W        W45313  41.954  10.091   4.728
72988W        W45314  38.851  36.098  10.620
72989W        W45315  12.889  44.295   1.475
72990W        W45316  42.106  17.542  10.882
72991W        W45317   8.337   7.932  14.746
72992W        W45318   0.977  18.166  14.693
72993W        W45319  40.393   0.472   2.853
72994W        W45320  34.760  31.467   1.461
72995W        W45321  26.404  16.635   1.761
72996W        W45322   8.936  39.317  13.340
72997W        W45323  16.569  14.439   0.364
72998W        W45324  40.805  39.466   4.552
72999W        W45325   4.133  17.789   2.555
73000W        W45326  31.184  33.873  10.777
73001W        W45327   5.506  14.055  11.972
73002W        W45328  42.577  10.286   0.779
73003W        W45329   1.542  23.573  10.632
73004W        W45330   6.950  29.829  14.376
73005W        W45331   7.793  12.081   1.162
73006W        W45332  28.043  11.331  12.109
73007W        W45333  16.776  37.225   2.469
73008W        W45334  44.415  21.755   4.181
73009W        W45335   7.297  43.940   2.443
73010W        W45336  33.553  44.064  11.202
73011W        W45337   3.313  26.399   4.072
73012W        W45338  13.416   5.910   3.212
73013W        W45339  30.176  23.228   0.486
73014W        W45340  14.349  37.531  14.550
73015W        W45341  21.582  16.797   3.116
73016W        W45342  25.973  32.916   4.793
73017W        W45343  44.417  13.807  10.537
73018W        W45344   2.937   9.678   5.416
73019W        W45345   0.853  31.685   0.482
73020W        W45346  30.162   6.218   0.279
73021W        W45347  44.050   6.620  11.173
73022W        W45348   7.343   4.410   1.172
73023W        W45349  32.866  13.542  13.335
73024W        W45350  10.284  40.115  12.657
73025W        W45351  20.780  16.133   1.194
73026W        W45352  21.052  32.952  13.008
73027W        W45353  40.422  22.290   1.735
73028W        W45354   3.923  26.191   3.352
73029W        W45355   7.319  27.862  11.964
73030W        W45356  15.816  43.720  14.403
73031W        W45357  19.193  13.882  14.314
73032W        W45358  42.012  35.505   4.020
73033W        W45359   6.111   4.706   4.168
73034W        W45360  33.900  39.274  14.433
73035W        W45361  38.835   2.401  14.900
73036W        W45362   6.317  29.956   4.677
73037W        W45363  20.337   2.333   3.623
73038W        W45364   3.451  29.682   0.316
73039W        W45365   0.561  19.623   0.234
73040W        W45366  40.527  30.659   3.222
73041W        W45367  44.798   8.302   4.282
73042W        W45368  37.494   3.519   1.977
73043W        W45369  29.905  19.226   0.520
73044W        W45370  25.663  12.685  12.067
73045W        W45371   6.289  16.296  12.674
73046W        W45372  22.920  41.988   2.892
73047W        W45373  10.035  19.453   4.990
73048W        W45374  36.006  41.808   4.589
73049W        W45375   2.226  34.589  14.843
73050W        W45376  12.122  17.688   0.862
73051W        W45377  12.275  39.801  11.133
73052W        W45378  24.483   4.354   1.227
73053W        W45379  32.949  16.032  13.869
73054W        W45380   3.772  43.532  11.515
73055W        W45381  26.636  44.355  14.449
73056W        W45382  30.682  41.356   2.808
73057W        W45383   4.686  16.679   0.112
73058W        W45384   7.717   7.193  12.515
73059W        W45385  16.628  26.589  11.280
73060W        W45386  17.717  44.524  12.322
73061W        W45387  35.167   4.226  14.895
73062W        W45388  35.578   2.968   3.234
73063W        W45389  37.463  44.379  14.131
73064W        W45390  12.030  18.086   5.014
73065W        W45391  37.380  29.913   0.084
73066W        W45392  18.167  31.460   2.968
73067W        W45393  44.748  22.644   4.640
73068W        W45394  40.281   7.685   4.562
73069W        W45395  39.611  12.950   0.856
73070W        W45396   2.723  19.999  14.966
73071W        W45397   6.656  15.762   4.530
73072W        W45398  14.426  32.342   1.198
73073W        W45399  20.116  37.607  13.767
73074W        W45400   0.070   0.898  14.967
73075W        W45401  43.701  27.082   2.272
73076W        W45402  29.395  22.712   2.860
73077W        W45403  39.490  19.716   4.168
73078W        W45404  31.147   3.463  11.561
73079W        W45405  27.298  42.380  13.663
73080W        W45406  10.338  30.441   0.060
73081W        W45407  33.045  43.056   2.759
73082W        W45408  42.543   7.214   0.816
73083W        W45409  36.899  44.088   2.267
73084W        W45410   4.817  26.735   3.234
73085W        W45411   7.768  40.858   4.190
73086W        W45412  16.686  26.882   4.216
73087W        W45413  30.525  15.594  12.940
73088W        W45414  31.903  40.375  12.879
73089W        W45415  36.451  42.778   2.303
73090W        W45416   4.992  14.163  12.036
73091W        W45417   6.828  28.138   3.247
73092W        W45418  38.950   4.629   4.583
73093W        W45419  20.493  33.546   0.934
73094W        W45420  15.160  33.090   1.830
73095W        W45421  40.956   6.936  11.599
73096W        W45422   8.436   5.782   0.417
73097W        W45423  44.505  42.011   3.289
73098W        W45424   3.349  15.043  13.397
73099W        W45425   8.591   9.771  13.633
73100W        W45426  24.880  17.233  12.144
73101W        W45427  30.762  17.315  14.043
73102W        W45428   4.642  11.863  12.068
73103W        W45429  42.067  43.817  11.599
73104W        W45430  43.274  43.324  13.331
73105W        W45431   2.459   9.321  12.247
73106W        W45432  30.642  37.274  12.524
73107W        W45433  20.309  14.203  13.999
73108W        W45434  26.117  32.946   0.556
73109W        W45435  27.167  25.007   2.839
73110W        W45436   8.607   8.893  13.386
73111W        W45437  26.605  10.470  13.263
73112W        W45438  17.287  17.232  11.493
73113W        W45439  10.418  39.595  11.646
73114W        W45440  11.035  15.176   4.225
73115W        W45441  19.495  35.888  13.785
73116W        W45442  32.614  36.780  11.388
73117W        W45443   1.122  28.527  13.580
73118W        W45444  42.108  35.456  11.939
73119W        W45445  12.212  13.186   1.545
73120W        W45446  39.503  28.074   0.203
73121W        W45447   5.072  28.858   3.722
73122W        W45448  25.482  38.001  14.270
73123W        W45449   4.425  30.515  12.395
73124W        W45450  18.658   1.506  13.630
73125W        W45451  30.184  11.876   0.883
73126W        W45452  37.916   4.627  14.734
73127W        W45453  27.737   5.307  14.467
73128W        W45454  26.652  22.487  11.513
73129W        W45455  39.334  18.087  14.378
73130W        W45456  15.887  34.038  10.583
73131W        W45457  14.166  14.682   4.734
73132W        W45458  35.441  42.769   2.196
73133W        W45459  35.433  27.108  10.712
73134W        W45460  21.773  41.389  10.312
73135W        W45461   1.306  34.169  12.556
73136W        W45462  37.322  35.636  10.349
73137W        W45463  42.373  42.226   4.382
73138W        W45464  39.914   0.382   3.070
73139W        W45465  10.208  12.644  11.693
73140W        W45466  11.672   0.289   1.285
73141W        W45467   6.331   4.457  13.985
73142W        W45468   0.627   4.305   2.413
73143W        W45469   2.478  41.835  14.889
73144W        W45470  32.694  11.754  14.423
73145W        W45471  13.648  34.242  10.832
73146W        W45472  23.221  20.174  13.757
73147W        W45473  44.507  20.790   1.968
73148W        W45474  19.068  29.681   0.986
73149W        W45475   2.220  40.881   3.766
73150W        W45476  26.953   4.439   0.805
73151W        W45477   2.818  41.893  14.454
73152W        W45478  24.340  28.923  14.370
73153W        W45479  23.621  17.490   3.638
73154W        W45480  27.905   8.235  10.798
73155W        W45481   5.262  44.619   2.824
73156W        W45482   2.336  33.826  11.831
73157W        W45483  43.338  25.509  10.615
73158W        W45484  42.248  14.616   1.343
73159W        W45485   7.616  25.537   1.519
73160W        W45486  16.841   6.152   2.041
73161W        W45487  18.833  37.841  12.072
73162W        W45488  34.172  18.846  10.957
73163W        W45489  43.701  21.370   5.215
73164W        W45490  12.048  11.419   3.286
73165W        W45491  38.831  18.380   4.047
73166W        W45492  17.167  41.994  14.610
73167W        W45493  21.661  38.885  13.410
73168W        W45494  15.775  28.666  13.930
73169W        W45495  25.694   7.433   3.675
73170W        W45496   1.783  35.072  10.741
73171W        W45497  40.933  33.875   2.697
73172W        W45498   3.783  26.661  13.449
73173W        W45499  41.978   7.969  12.950
73174W        W45500  39.516  28.651  13.294
73175W        W45501  29.462  10.795  11.530
73176W        W45502  30.839  38.936   4.610
73177W        W45503  29.451   2.284   1.287
73178W        W45504   7.765  37.833  13.631
73179W        W45505  43.333  10.857   4.537
73180W        W45506  43.584  20.046  11.090
73181W        W45507  43.901  41.479   1.116
73182W        W45508  34.288  11.354  10.779
73183W        W45509  27.959  31.145   4.151
73184W        W45510   9.319  24.008   2.242
73185W        W45511  20.451   8.407   0.921
73186W        W45512  18.271  42.552   2.662
73187W        W45513  37.563  29.933   1.061
73188W        W45514  10.601   4.497  14.283
73189W        W45515  29.558   5.440  10.646
73190W        W45516  16.785   7.451   4.961
73191W        W45517  33.498  28.894  11.086
73192W        W45518  32.965  35.861  10.422
73193W        W45519  37.052  24.903  13.523
73194W        W45520  14.083  18.117  14.865
73195W        W45521  25.674  35.371  13.475
73196W        W45522  35.031  43.020  12.916
73197W        W45523   5.769  33.977   2.920
73198W        W45524  13.795  42.386   0.780
73199W        W45525  40.303   6.416   4.068
73200W        W45526  44.135  31.581  13.824
73201W        W45527  34.677   7.262   4.655
73202W        W45528  26.016  10.859   1.099
73203W        W45529   4.737  18.592  14.272
73204W        W45530  30.727  40.434   2.381
73205W        W45531  20.035  16.666   0.018
73206W        W45532   6.299  37.607  14.024
73207W        W45533  35.420  39.346  12.322
73208W        W45534  33.489  21.559   0.741
73209W        W45535  38.995  41.581  13.538
73210W        W45536  11.321  16.473   3.826
73211W        W45537  44.648  20.381   1.684
73212W        W45538  33.679  43.852  10.747
73213W        W45539  38.964  29.722  10.620
73214W        W45540  37.960   0.740   2.771
73215W        W45541  30.182  41.060  11.164
73216W        W45542   8.515   6.030  13.147
73217W        W45543  34.150   0.001   1.252
73218W        W45544  41.821   7.955  10.757
73219W        W45545  31.855   5.792   0.742
73220W        W45546  21.464  14.001   4.914
73221W        W45547   7.006  26.915   3.151
73222W        W45548  38.944  36.468   3.124
73223W        W45549  37.356  21.999  11.212
73224W        W45550  15.843  23.697   1.176
73225W        W45551  29.057  41.403   4.865
73226W        W45552  27.950   2.764   0.041
73227W        W45553  32.119   9.636   4.432
73228W        W45554  34.974  21.460   1.892
73229W        W45555  25.079   7.940  14.279
73230W        W45556   1.679   9.150   0.325
73231W        W45557  22.801   9.670  11.316
73232W        W45558  25.952  41.338   3.347
73233W        W45559  27.652  25.464   3.714
73234W        W45560  35.882  33.087  10.171
73235W        W45561  42.838  29.957  12.573
73236W        W45562   3.523  27.615   1.382
73237W        W45563  36.402   6.386  11.927
73238W        W45564   9.997  42.274  11.466
73239W        W45565  35.244  42.085  12.030
73240W        W45566   6.183  35.897  14.501
73241W        W45567   0.528   9.084  12.395
73242W        W45568  30.418   8.672   3.258
73243W        W45569   8.316  26.144   1.404
73244W        W45570   1.971  18.334  14.017
73245W        W45571   2.490  12.650   5.161
73246W        W45572  34.987   2.193   0.665
73247W        W45573  11.080  17.824   0.813
73248W        W45574   3.960   4.209  11.122
73249W        W45575  10.393  38.367  13.505
73250W        W45576  22.162   7.489  12.379
73251W        W45577  32.140  37.588   4.150
73252W        W45578  23.830  33.253   4.649
73253W        W45579  24.351   3.948   3.906
73254W        W45580  29.097  12.791  14.833
73255W        W45581  33.359  20.687  12.034
73256W        W45582  21.745  26.631  10.309
73257W        W45583  14.897  11.351   1.130
73258W        W45584  23.678   7.636   2.774
73259W        W45585  32.866   0.049   2.659
73260W        W45586  32.064  26.378   3.653
73261W        W45587  26.960   7.695   1.335
73262W        W45588  32.589   1.907   0.297
73263W        W45589   9.804   4.416   4.136
73264W        W45590  23.949  35.867  10.679
73265W        W45591   0.874  26.686  10.742
73266W        W45592   1.898  24.516   4.117
73267W        W45593   7.395  20.525   2.350
73268W        W45594   1.277  40.898   3.500
73269W        W45595  34.961   5.376  12.251
73270W        W45596  25.726   7.849   3.247
73271W        W45597  15.871  12.845   4.161
73272W        W45598  25.687  35.764  10.263
73273W        W45599  32.976  13.766   3.332
73274W        W45600   8.798  38.167   2.616
73275W        W45601   3.874   8.797  14.243
73276W        W45602  16.052   7.215   3.183
73277W        W45603  20.265  41.417   2.209
73278W        W45604   9.264  15.007   2.852
73279W        W45605  10.142  42.313   3.555
73280W        W45606  37.611  16.219   2.209
73281W        W45607   4.177  12.633   3.514
73282W        W45608   9.840  39.996   4.135
73283W        W45609  23.635  32.249   4.456
73284W        W45610  36.320   1.924  12.150
73285W        W45611  12.036  40.363   4.328
73286W        W45612  32.707  16.024  12.530
73287W        W45613  27.095  40.715   2.829
73288W        W45614  39.880  25.772  11.694
73289W        W45615  42.893  44.747  13.322
73290W        W45616  42.298  29.034   1.848
73291W        W45617  40.043  37.652  12.946
73292W        W45618   2.054  33.145  10.860
73293W        W45619  18.171  19.140   1.720
73294W        W45620  18.572  30.806   1.952
73295W        W45621   6.513  25.196   3.550
73296W        W45622   4.491  17.037   0.439
73297W        W45623  23.059  11.330  14.958
73298W        W45624   2.733   5.206  11.888
73299W        W45625  12.012  37.052  11.020
73300W        W45626  22.040  16.572  11.552
73301W        W45627  44.060  35.954  10.785
73302W        W45628   6.414  41.941  10.670
73303W        W45629   6.698   0.543   3.647
73304W        W45630  20.300  33.038  14.782
73305W        W45631   7.016  13.742  10.763
73306W        W45632   0.638  10.814   0.990
73307W        W45633  38.459   2.145   1.440
73308W        W45634   6.369  11.153  14.872
73309W        W45635  23.503  24.466  11.833
73310W        W45636  38.718  29.156   2.120
73311W        W45637  35.875  36.389   2.113
73312W        W45638  39.791  16.468   4.564
73313W        W45639  10.801  27.089  14.683
73314W        W45640  19.738  10.124  11.185
73315W        W45641  13.065  42.383   3.110
73316W        W45642   9.677  27.973   0.246
73317W        W45643   2.309  32.032  13.493
73318W        W45644  23.718  16.549  14.854
73319W        W45645  11.700  25.928   3.707
73320W        W45646   7.865  15.630  11.744
73321W        W45647  28.294  25.745   1.794
73322W        W45648   3.136  21.086  13.581
73323W        W45649   4.411  30.360   1.673
73324W        W45650  18.659  26.478   4.266
73325W        W45651   4.425   1.779   0.284
73326W        W45652  15.315  29.117  13.804
73327W        W45653  11.441  43.436  14.045
73328W        W45654  37.011   0.320  11.341
73329W        W45655  20.629  42.497   3.419
73330W        W45656   6.918  39.599   4.081
73331W        W45657  15.158  26.548  10.422
73332W        W45658   1.322  42.380   1.336
73333W        W45659  19.259  37.901   1.355
73334W        W45660  19.653  33.358   2.755
73335W        W45661  43.839  28.991  13.569
73336W        W45662  33.627  30.403   4.175
73337W        W45663  28.421  18.752  13.269
73338W        W45664  34.692  14.178   0.388
73339W        W45665  39.960  17.039  14.281
73340W        W45666  14.843  27.835  10.686
73341W        W45667  39.548  35.539   2.226
73342W        W45668  13.794  42.847  10.876
73343W        W45669  44.336  16.192   1.441
73344W        W45670  43.795   3.870   3.121
73345W        W45671   0.978   8.195  11.212
73346W        W45672  35.666  43.334   3.282
73347W        W45673  11.366  23.120   0.468
73348W        W45674  40.405   9.266   0.815
73349W        W45675  14.609  38.497   4.655
73350W        W45676   1.250  43.646  10.941
73351W        W45677  20.836  43.392   3.698
73352W        W45678  27.639   1.957  12.472
73353W        W45679  41.603  30.994   3.298
73354W        W45680  33.007  15.322  14.548
73355W        W45681  19.721   5.952   3.381
73356W        W45682  36.059  15.246   3.296
73357W        W45683  43.050  36.070  10.176
73358W        W45684  27.541  22.579   4.660
73359W        W45685  37.422  13.656   2.338
73360W        W45686  34.549  37.844   2.736
73361W        W45687   6.926  25.512   2.347
73362W        W45688  33.026  32.446   4.482
73363W        W45689  20.342   4.983   4.023
73364W        W45690   3.949  23.522   3.230
73365W        W45691  42.859  30.662  11.089
73366W        W45692  29.349   0.820   1.194
73367W        W45693  15.068  38.300   4.058
73368W        W45694  30.127   3.708   1.265
73369W        W45695  11.327   9.844  13.405
73370W        W45696   2.000  41.109  14.838
73371W        W45697  34.063  13.576   2.374
73372W        W45698   6.666   6.829   3.211
73373W        W45699  25.259  10.747   1.623
73374W        W45700  20.171  15.436  11.964
73375W        W45701   9.130  30.599   4.851
73376W        W45702  28.552  11.108  13.895
73377W        W45703   6.612  35.489   0.228
73378W        W45704  25.022  30.060  13.580
73379W        W45705   6.488  14.324  12.020
73380W        W45706  31.718   6.317   4.825
73381W        W45707  44.307  24.910  10.632
73382W        W45708   3.159   9.857  13.828
73383W        W45709  38.066   7.181   4.548
73384W        W45710  14.576   6.957   2.690
73385W        W45711   0.191  14.111  13.297
73386W        W45712  23.289  39.817   0.973
73387W        W45713  28.495  13.985  10.638
73388W        W45714  24.541   6.401  14.390
73389W        W45715   6.216   7.226  12.790
73390W        W45716  29.011  16.709  14.930
73391W        W45717  42.238   5.031  13.311
73392W        W45718  17.236  28.531  13.929
73393W        W45719  22.556  14.173   4.986
73394W        W45720  35.340  17.617  12.630
73395W        W45721  34.591  13.091   1.781
73396W        W45722  15.598   0.990  11.876
73397W        W45723  29.743  41.117   1.204
73398W        W45724  15.569  28.741   0.494
73399W        W45725  44.452  22.793   1.786
73400W        W45726  24.092  14.625   0.089
73401W        W45727   4.349   1.639  12.820
73402W        W45728  10.090  20.303   3.475
73403W        W45729  32.890  37.410   2.312
73404W        W45730  33.591  33.233  12.041
73405W        W45731  23.747  36.256   1.812
73406W        W45732  22.797  22.648  10.599
73407W        W45733  20.159   7.203   3.939
73408W        W45734  11.120  25.188  11.396
73409W        W45735  27.726  40.877  10.637
73410W        W45736  30.898  13.514   1.811
73411W        W45737  43.279  39.975   2.264
73412W        W45738  13.421  25.935  10.822
73413W        W45739   1.827  39.584  13.525
73414W        W45740  24.609   7.145  13.619
73415W        W45741   4.380   4.054   0.812
73416W        W45742  21.013  35.848   3.448
73417W        W45743   0.818  16.110   2.772
73418W        W45744  27.652  34.448  14.300
73419W        W45745  22.062  22.780  13.414
73420W        W45746  19.366  17.586   3.331
73421W        W45747   5.302  33.119   0.502
73422W        W45748  15.364  24.828   0.431
73423W        W45749  28.411  20.820   2.047
73424W        W45750   4.764  36.996  14.315
73425W        W45751  41.796  42.097   0.886
73426W        W45752  44.968  24.625   3.902
73427W        W45753   4.276  26.552   2.429
73428W        W45754  15.646   8.855   2.117
73429W        W45755  13.360   7.232   0.339
73430W        W45756  24.524  19.335   0.653
73431W        W45757  16.577  13.050  12.142
73432W        W45758  13.196  26.206  13.614
73433W        W45759  42.722  44.812  14.779
73434W        W45760  29.212  11.266  13.346
73435W        W45761  39.336   8.099  13.410
73436W        W45762  43.074  39.401  14.436
73437W        W45763  34.876  35.530   3.259
73438W        W45764  20.069  22.753  11.358
73439W        W45765   9.841  18.280   2.687
73440W        W45766  11.361  36.861  13.318
73441W        W45767  39.605   0.206   1.310
73442W        W45768  34.395  35.363  13.427
73443W        W45769  32.050  37.834  13.374
73444W        W45770   7.842  43.616   1.817
73445W        W45771  16.041  11.270  14.963
73446W        W45772  22.196  17.734  11.981
73447W        W45773  13.125  12.177  11.266
73448W        W45774  27.034  21.738   4.211
73449W        W45775   2.960  29.123  11.274
73450W        W45776   4.506  14.793  13.826
73451W        W45777  24.309  17.798   4.476
73452W        W45778   9.656  32.010   3.911
73453W        W45779  34.679  19.740  14.348
73454W        W45780   2.306   6.340   0.812
73455W        W45781   5.362  18.032  10.945
73456W        W45782  18.823  22.394   4.564
73457W        W45783  10.784  27.713  12.483
73458W        W45784  25.969  40.173   0.506
73459W        W45785  16.019  19.688   3.628
73460W        W45786  33.035  44.416   0.667
73461W        W45787  11.574  13.332   4.088
73462W        W45788   7.882   6.778   4.910
73463W        W45789   9.483  25.605   0.980
73464W        W45790  35.418  17.083   3.142
73465W        W45791   8.518  31.643   0.278
73466W        W45792  38.430  24.683  13.231
73467W        W45793  36.936  23.517  12.031
73468W        W45794  12.249  28.139  11.468
73469W        W45795  44.379  42.948  14.564
73470W        W45796  17.179  38.038   0.642
73471W        W45797   0.920   2.246   4.058
73472W        W45798   6.202  29.117   5.181
73473W        W45799  42.392  26.452  14.289
73474W        W45800  27.195  44.832   3.873
73475W        W45801  14.753  13.393   0.355
73476W        W45802  11.602  25.233   0.789
73477W        W45803  38.837   2.714  12.088
73478W        W45804  36.647  25.994  11.447
73479W        W45805  40.411  27.652   2.690
73480W        W45806  25.598   2.334   2.668
73481W        W45807   2.883  31.223   2.354
73482W        W45808   5.463  18.234  12.525
73483W        W45809   0.715  43.074  10.685
73484W        W45810  35.554  19.334   1.206
73485W        W45811  33.659  30.200   2.902
73486W        W45812  44.018   5.311   2.176
73487W        W45813   5.253  41.294  12.454
73488W        W45814  26.156   4.846   0.837
73489W        W45815  19.528   5.027  11.207
73490W        W45816  13.188  38.860   0.930
73491W        W45817  41.098  32.185  13.128
73492W        W45818   8.252  26.171  14.002
73493W        W45819   4.803   6.245  11.521
73494W        W45820   5.961  28.387  10.629
73495W        W45821  27.410  11.365   3.217
73496W        W45822  37.874   1.776  11.740
73497W        W45823   9.622  38.863  12.468
73498W        W45824  13.267  43.817   4.736
73499W        W45825  22.208   8.714  14.803
73500W        W45826  32.667  24.244  14.061
73501W        W45827   5.207  19.957  13.211
73502W        W45828  19.268   1.967   2.704
73503W        W45829   4.785  25.611   2.815
73504W        W45830  15.269   4.496  14.857
73505W        W45831  17.886  12.151  14.396
73506W        W45832  41.887   5.435  13.358
73507W        W45833  35.011  17.118   1.411
73508W        W45834  21.131   7.310   3.533
73509W        W45835  11.777   3.728  10.560
73510W        W45836  22.173  13.356  12.868
73511W        W45837  29.973  42.361  10.749
73512W        W45838  39.852  30.620   2.475
73513W        W45839  38.976  18.017  11.111
73514W        W45840   1.002  44.032  11.692
73515W        W45841  11.750  22.033   2.885
73516W        W45842  24.182  36.879   0.861
73517W        W45843  36.515   4.950   2.747
73518W        W45844  42.791  27.913   2.876
73519W        W45845  12.318  31.669  10.718
73520W        W45846   2.417  31.614  14.500
73521W        W45847  37.434  19.400  13.782
73522W        W45848  16.737  31.378  14.200
73523W        W45849  35.660  10.786   2.648
73524W        W45850  29.175  30.647  12.043
73525W        W45851  15.543  19.774   3.820
73526W        W45852  28.357  40.531   1.796
73527W        W45853   3.319  15.292   2.628
73528W        W45854  24.071  25.078  13.859
73529W        W45855  11.044  19.109  14.402
73530W        W45856  11.224  35.958  11.509
73531W        W45857  16.110  21.420   0.348
73532W        W45858  16.822  29.909  13.866
73533W        W45859  30.920  21.681   4.806
73534W        W45860  31.616  17.491   0.282
73535W        W45861  17.034   5.480   0.388
73536W        W45862  37.150  35.425   0.309
73537W        W45863   9.308  41.103  12.783
73538W        W45864   9.574   1.508  14.810
73539W        W45865   6.842  41.370   1.116
73540W        W45866   8.846   2.828   1.970
73541W        W45867  27.223  23.436  11.595
73542W        W45868  21.766  29.836   2.333
73543W        W45869  14.445   0.005   4.610
73544W        W45870  35.654  30.186  14.836
73545W        W45871  10.114  21.657  12.447
73546W        W45872  39.512   7.194  14.546
73547W        W45873  38.342  37.899   0.839
73548W        W45874   2.965  35.039  11.085
73549W        W45875  34.640   9.614   3.872
73550W        W45876   5.744   2.019   4.137
73551W        W45877  19.506  36.307  11.015
73552W        W45878  40.760  29.964   0.734
73553W        W45879   8.073  42.294   1.526
73554W        W45880  31.906  22.469   2.623
73555W        W45881  43.272   6.991   2.336
73556W        W45882  40.262   0.800   1.405
73557W        W45883  24.209   7.742  12.012
73558W        W45884  14.433  18.362  14.497
73559W        W45885  19.447  26.109   0.509
73560W        W45886  38.793  19.062   0.399
73561W        W45887  42.328  21.967   1.913
73562W        W45888  42.764   3.928   0.535
73563W        W45889  23.377  33.727   2.825
73564W        W45890  24.961  29.580   0.344
73565W        W45891  18.290  30.573   1.593
73566W        W45892  29.061   3.210   1.509
73567W        W45893  28.179  18.359   3.238
73568W        W45894  20.775  16.020  12.337
73569W        W45895   2.851  26.033   0.151
73570W        W45896   1.282  24.003  11.911
73571W        W45897  17.032  31.923   2.293
73572W        W45898  14.588  11.233  14.882
73573W        W45899  15.568  43.780   4.952
73574W        W45900  26.002  29.949  11.060
73575W        W45901   4.831  32.349   2.166
73576W        W45902  18.560  28.711  11.183
73577W        W45903  41.278   0.956   1.438
73578W        W45904  30.443  19.135   4.329
73579W        W45905  25.204   0.465  13.435
73580W        W45906  24.642  22.319   4.681
73581W        W45907  14.635  14.555   4.592
73582W        W45908  27.074  44.334  14.746
73583W        W45909   7.653  39.820  12.630
73584W        W45910  34.842  28.843  14.120
73585W        W45911  35.802  37.535   0.822
73586W        W45912  35.509  29.383   1.828
73587W        W45913  40.524   5.333  12.963
73588W        W45914   7.337  15.248  11.137
73589W        W45915  15.213  23.549  11.970
73590W        W45916   2.242  19.138   0.714
73591W        W45917  31.962  29.978  13.752
73592W        W45918  13.310  30.423   4.638
73593W        W45919  35.466  33.485   3.115
73594W        W45920  37.075  10.295   0.833
73595W        W45921  32.353   8.907   2.597
73596W        W45922  28.189   3.675  11.952
73597W        W45923  42.743  41.807   2.563
73598W        W45924  39.539  42.382  13.587
73599W        W45925  12.722  29.560   0.057
73600W        W45926  30.621  44.848   1.603
73601W        W45927   9.269  36.684  11.623
73602W        W45928  16.351  32.685  12.034
73603W        W45929   3.392  12.326  13.051
73604W        W45930  17.559  44.270   3.638
73605W        W45931   6.431  33.809  13.266
73606W        W45932  12.840  17.768   3.142
73607W        W45933  29.662  38.601  11.681
73608W        W45934  33.913  13.287  14.524
73609W        W45935  13.387  21.260  14.863
73610W        W45936   5.590  27.946   2.294
73611W        W45937  39.947   5.043  11.088
73612W        W45938  11.813  18.810   3.851
73613W        W45939  21.047  22.721   0.943
73614W        W45940   8.668  13.841  14.210
73615W        W45941  13.769  22.930   2.402
73616W        W45942   8.248  27.879   1.858
73617W        W45943  14.231  17.149   4.087
73618W        W45944  42.593  16.770   3.454
73619W        W45945   7.582  44.563   1.012
73620W        W45946  12.146  21.240  14.729
73621W        W45947   1.231   8.441  12.654
73622W        W45948  24.114   8.783  14.292
73623W        W45949  22.673  19.736   1.241
73624W        W45950  20.107  15.369  11.452
73625W        W45951   4.906   3.145   4.728
73626W        W45952  12.242  34.043  14.014
73627W        W45953  42.331  27.529   0.349
73628W        W45954  10.421  19.878  12.456
73629W        W45955  28.434   2.800  13.915
73630W        W45956  43.416  44.053   2.802
73631W        W45957  37.113  37.890   3.389
73632W        W45958  18.818  41.944   0.206
73633W        W45959   8.860  40.773   4.804
73634W        W45960  38.833  43.147  11.863
73635W        W45961  41.250  39.293   4.831
73636W        W45962   3.273  35.768   0.712
73637W        W45963   4.774  27.540  12.269
73638W        W45964   9.137   9.246   4.287
73639W        W45965  32.169  29.644   2.122
73640W        W45966  16.288   6.053   4.536
73641W        W45967  42.691  37.513   4.499
73642W        W45968  37.356  14.844   0.990
73643W        W45969   8.085  28.742   5.161
73644W        W45970  28.967  28.515   4.156
73645W        W45971  32.178  13.108   0.330
73646W        W45972  14.376  24.768   3.771
73647W        W45973   8.880  44.704  12.494
73648W        W45974   2.976  32.465   4.655
73649W        W45975  23.669  25.696  13.493
73650W        W45976  25.399  20.095   0.390
73651W        W45977  22.362  17.697   4.755
73652W        W45978  39.109  30.397  11.487
73653W        W45979  32.032   7.969   3.213
73654W        W45980  22.718  20.242   1.047
73655W        W45981   9.084  19.222   2.864
73656W        W45982  40.443  15.600  14.369
73657W        W45983  36.853   1.341   0.948
73658W        W45984  24.170  42.511  13.429
73659W        W45985  41.918  38.803   0.494
73660W        W45986  15.770  18.261   1.370
73661W        W45987  26.102   7.382   1.479
73662W        W45988  33.994  32.369   0.688
73663W        W45989  12.501  33.868   3.215
73664W        W45990  15.242  23.792  10.611
73665W        W45991  11.070  14.182   0.252
73666W        W45992  18.087  19.564  12.530
73667W        W45993   7.442  31.452   0.035
73668W        W45994  17.439  34.286   0.525
73669W        W45995  21.866  43.299   3.436
73670W        W45996  11.613  26.090  14.933
73671W        W45997   5.382  21.328   2.599
73672W        W45998  35.848   0.614   2.341
73673W        W45999  17.514  10.915  11.237
73674W        W46000   6.151  29.078  13.147
73675W        W46001  38.296  10.376   3.374
73676W        W46002  16.437  30.237  13.802
73677W        W46003  36.609  32.845  11.404
73678W        W46004  18.158  16.370   1.875
73679W        W46005  11.313  19.780  13.912
73680W        W46006   8.142  21.609  12.677
73681W        W46007  18.877  38.453  14.271
73682W        W46008  35.872  34.310   4.191
73683W        W46009  39.943  42.393   3.528
73684W        W46010   2.265  42.346  13.453
73685W        W46011  29.092  18.271   1.813
73686W        W46012  25.509  35.659  10.879
73687W        W46013  20.661  24.144   1.325
73688W        W46014  44.839   5.930   4.034
73689W        W46015  27.626   6.664  14.861
73690W        W46016  40.319  41.451  14.466
73691W        W46017   5.266   5.903  11.589
73692W        W46018   8.175   3.815   2.383
73693W        W46019  32.945   0.342   4.384
73694W        W46020  14.397  34.378   9.864
73695W        W46021  29.887  42.941  12.056
73696W        W46022   2.133  31.452   1.234
73697W        W46023  10.176   2.459  14.824
73698W        W46024  21.487  11.703   0.496
73699W        W46025  14.974  34.544  11.971
73700W        W46026  30.432  38.306   4.440
73701W        W46027  44.356   2.392  12.453
73702W        W46028   2.803   8.149   3.806
73703W        W46029  11.410  44.526  12.107
73704W        W46030  38.731  36.955  12.144
73705W        W46031  20.772   5.161   2.402
73706W        W46032  10.162  20.552   2.330
73707W        W46033  26.947  20.600  12.017
73708W        W46034  21.208   3.628  10.197
73709W        W46035  42.490  10.669  10.660
73710W        W46036  41.729   8.167  11.547
73711W        W46037  14.182  21.449   4.078
73712W        W46038  41.076   6.947   3.708
73713W        W46039  34.112   2.442   2.360
73714W        W46040  21.785  13.720  14.395
73715W        W46041  22.081  38.160  13.357
73716W        W46042   2.840  21.610   5.041
73717W        W46043  35.436  44.856   2.834
73718W        W46044   1.924  21.275   9.680
73719W        W46045  44.149   2.023  12.763
73720W        W46046  26.787  27.669   4.010
73721W        W46047  18.562  40.090  14.772
73722W        W46048   4.238   9.793   3.355
73723W        W46049  35.978  21.123   2.596
73724W        W46050  39.506  18.503   0.698
73725W        W46051   1.318  41.008  10.496
73726W        W46052   7.869  21.736  13.133
73727W        W46053  44.536  20.156   3.267
73728W        W46054  28.673  18.281  13.323
73729W        W46055  17.581  23.661  11.222
73730W        W46056  33.493  15.612  14.993
73731W        W46057  11.576  34.616   2.486
73732W        W46058   7.825  30.750  11.008
73733W        W46059   8.667  40.532  12.947
73734W        W46060   5.244  33.069   1.900
73735W        W46061  34.377   4.794  13.712
73736W        W46062   4.334  35.111  13.214
73737W        W46063   8.873  20.804   0.444
73738W        W46064  32.070  40.939   2.587
73739W        W46065  13.154   4.645  11.681
73740W        W46066  37.346  28.122  12.139
73741W        W46067   2.538  23.077  11.698
73742W        W46068  35.889  38.193  12.989
73743W        W46069  25.024  29.869  11.669
73744W        W46070  20.287   1.453  13.744
73745W        W46071  16.330  12.347   1.679
73746W        W46072  44.966  35.574   2.019
73747W        W46073  10.416  14.995   3.603
73748W        W46074   6.849  14.716  14.473
73749W        W46075   4.330  19.673   2.125
73750W        W46076  37.587   5.869   4.560
73751W        W46077  17.992   1.530   0.889
73752W        W46078  41.809  39.266  12.652
73753W        W46079  23.024  44.287  12.382
73754W        W46080   6.265  34.829   3.788
73755W        W46081  18.798   1.112   2.005
73756W        W46082   6.249  24.125   1.155
73757W        W46083   6.362  14.684   4.842
73758W        W46084  16.520   6.884   4.172
73759W        W46085  41.036  44.712  12.046
73760W        W46086   1.294  10.396   4.711
73761W        W46087  31.713  39.310   3.263
73762W        W46088  12.796  36.767   2.322
73763W        W46089  29.501  16.828  14.733
73764W        W46090  15.391  28.108  11.527
73765W        W46091  28.340  37.568  11.399
73766W        W46092  12.204  27.894  13.417
73767W        W46093   8.137  37.101   0.897
73768W        W46094  39.567  33.774  13.390
73769W        W46095  38.357  22.435  12.451
73770W        W46096  27.505  44.049   1.927
73771W        W46097  35.995  16.071  13.036
73772W        W46098  39.517   6.317  10.791
73773W        W46099  44.385  35.604   3.625
73774W        W46100  41.779  15.774  12.833
73775W        W46101  20.757  23.773   0.438
73776W        W46102  16.220  37.435   2.830
73777W        W46103  35.179  13.334  13.344
73778W        W46104  21.536  30.091   4.204
73779W        W46105  41.759  44.572   3.084
73780W        W46106  16.152   9.456   4.499
73781W        W46107  32.308   0.177   2.669
73782W        W46108  33.065  13.776   0.032
73783W        W46109  14.094  30.795   1.172
73784W        W46110  36.507  11.242   0.837
73785W        W46111  35.041  17.709  11.552
73786W        W46112   3.743   3.717   3.322
73787W        W46113  37.755   2.706  12.427
73788W        W46114   7.903  15.688   3.944
73789W        W46115   0.458   8.344   4.869
73790W        W46116  43.462  21.541  12.774
73791W        W46117  33.570   1.377  11.514
73792W        W46118  29.807  32.444  14.263
73793W        W46119  24.420  35.889  12.526
73794W        W46120  10.048  13.108   0.725
73795W        W46121  20.716   3.655  10.421
73796W        W46122  21.379  28.897   3.118
73797W        W46123  17.406  21.860   1.787
73798W        W46124  39.079  13.883  14.931
73799W        W46125  28.872   2.460  10.753
73800W        W46126  29.550  44.122   1.696
73801W        W46127  34.887  23.214   0.988
73802W        W46128  16.236  25.168   3.827
73803W        W46129  35.334   8.833  11.588
73804W        W46130  26.377  11.580   1.904
73805W        W46131  18.325  24.555   2.714
73806W        W46132   3.840  43.925   4.989
73807W        W46133  21.645  27.158  13.885
73808W        W46134  38.511  31.508  11.138
73809W        W46135   3.807  23.934  10.633
73810W        W46136   5.295  27.185   1.905
73811W        W46137  40.749  40.376   1.430
73812W        W46138  26.327   1.397   0.286
73813W        W46139  23.231  17.807   2.316
73814W        W46140  35.646  36.518  14.386
73815W        W46141  30.022  38.051  11.156
73816W        W46142  42.037  14.620  12.645
73817W        W46143  37.610  42.947   1.925
73818W        W46144  31.660  28.983   1.913
73819W        W46145   7.403  28.396  13.997
73820W        W46146  34.865  40.333  12.460
73821W        W46147  34.189   4.261   0.009
73822W        W46148   8.741   9.817   3.768
73823W        W46149  20.199   6.789  10.606
73824W        W46150  21.483  27.707   1.820
73825W        W46151  25.564  26.984   2.782
73826W        W46152   5.788   0.262  10.927
73827W        W46153   2.402  16.688  11.882
73828W        W46154  28.917  44.886   2.421
73829W        W46155  13.195  12.338  11.746
73830W        W46156  44.387  10.895   0.923
73831W        W46157  16.818  19.546   0.914
73832W        W46158  26.059  33.879  13.519
73833W        W46159  21.182  15.816   1.361
73834W        W46160  15.653  32.130   4.531
73835W        W46161  42.054  21.524  12.801
73836W        W46162  39.988  38.348  10.879
73837W        W46163   6.438  26.439  14.422
73838W        W46164  11.463  18.855   4.247
73839W        W46165   6.012  19.747  12.885
73840W        W46166  11.336  14.832   2.334
73841W        W46167  28.120   0.050   3.383
73842W        W46168  21.491   7.309  10.707
73843W        W46169  39.024  38.341  14.342
73844W        W46170  43.384  34.648   2.584
73845W        W46171  16.322   4.638   2.178
73846W        W46172  10.234  38.967  13.504
73847W        W46173   7.104  42.954   1.927
73848W        W46174  26.557  12.724   4.123
73849W        W46175  38.789  13.224  12.728
73850W        W46176  22.036  23.682  11.942
73851W        W46177  18.794  20.314  13.393
73852W        W46178   4.253  41.146   1.168
73853W        W46179  13.157  13.347   4.707
73854W        W46180  29.533  25.411   4.605
73855W        W46181  15.089  31.600   0.953
73856W        W46182   1.359  12.738   1.730
73857W        W46183  41.012  22.708   0.872
73858W        W46184   9.876  16.251  11.361
73859W        W46185  19.309  37.065  10.661
73860W        W46186  30.330  14.227   0.435
73861W        W46187   5.098  34.889  12.615
73862W        W46188  13.139  26.720   5.447
73863W        W46189  33.039  35.776  13.765
73864W        W46190  29.683   9.835  12.016
73865W        W46191  41.437  40.580  13.801
73866W        W46192  10.256   7.798  13.371
73867W        W46193  40.124  43.407   1.393
73868W        W46194  38.596  37.351  11.061
73869W        W46195  17.997  26.793  12.507
73870W        W46196  19.383  22.530   1.842
73871W        W46197  44.552  27.047   0.493
73872W        W46198   0.851  13.642   2.723
73873W        W46199  32.639  29.890   4.629
73874W        W46200  24.575  23.519   0.258
73875W        W46201  13.869  26.786   9.659
73876W        W46202  41.575  12.235  10.492
73877W        W46203  28.964  26.014   3.992
73878W        W46204   7.796   4.462  12.064
73879W        W46205  43.923  18.864  13.888
73880W        W46206   9.754  23.584   3.965
73881W        W46207  13.708   3.377  13.213
73882W        W46208  38.564  37.448  13.896
73883W        W46209  40.212  12.342  11.101
73884W        W46210  35.024   8.256  11.194
73885W        W46211  27.988  41.372   2.381
73886W        W46212  36.723  34.123   2.369
73887W        W46213   5.500   0.226   4.616
73888W        W46214  17.113  14.424  10.680
73889W        W46215  26.238  13.841  11.110
73890W        W46216  23.559  17.028   0.091
73891W        W46217  33.445   8.185   0.823
73892W        W46218   1.916   3.965   9.991
73893W        W46219  40.430  11.303   2.378
73894W        W46220  22.202  41.585  12.413
73895W        W46221  20.165   2.986  13.821
73896W        W46222  15.587  43.480  14.810
73897W        W46223  39.074  23.826   3.229
73898W        W46224   7.919  19.450  12.933
73899W        W46225  41.022  32.044   3.994
73900W        W46226  18.559  18.799   0.472
73901W        W46227  12.061  34.463   4.444
73902W        W46228   7.220  17.286   4.154
73903W        W46229  30.483   8.220  10.654
73904W        W46230  44.434  41.083   4.122
73905W        W46231  42.359  36.921  12.151
73906W        W46232  23.639  13.666   4.146
73907W        W46233  18.639  24.943   1.759
73908W        W46234  21.290  31.704  10.850
73909W        W46235  42.950  20.695   4.635
73910W        W46236  37.069  16.209   0.297
73911W        W46237   8.130  14.662  14.987
73912W        W46238   5.731   8.564  11.641
73913W        W46239   0.421  28.432   4.399
73914W        W46240  25.482  17.144  10.549
73915W        W46241   5.830   0.949   0.223
73916W        W46242  21.936   1.482  12.023
73917W        W46243  24.277   3.436  13.095
73918W        W46244  26.507  39.869   2.650
73919W        W46245  12.208  32.908  10.361
73920W        W46246  18.593   4.909  11.672
73921W        W46247  18.723  13.952  14.071
73922W        W46248  41.531   2.815   0.736
73923W        W46249   6.888  27.859  12.602
73924W        W46250  38.720  43.534  11.509
73925W        W46251  23.597  39.569  12.942
73926W        W46252  36.898  25.186   1.746
73927W        W46253  35.482  28.224   2.897
73928W        W46254  24.208   1.939   4.452
73929W        W46255  20.661  41.354  13.998
73930W        W46256  41.171   9.326   2.866
73931W        W46257  13.291  36.801   4.706
73932W        W46258   1.270  34.682  12.384
73933W        W46259  40.502  43.318  10.968
73934W        W46260  30.955   6.960   4.492
73935W        W46261  36.061  23.773  12.497
73936W        W46262  28.763  23.197  11.943
73937W        W46263  42.767   2.939  11.957
73938W        W46264  36.529  34.235  11.473
73939W        W46265  33.109   4.862   2.109
73940W        W46266   5.247  22.439   3.209
73941W        W46267  19.483  37.530  12.254
73942W        W46268  39.897  29.977  13.845
73943W        W46269  41.713   3.078  14.777
73944W        W46270  41.158   8.737   1.769
73945W        W46271   9.198  14.067   3.290
73946W        W46272   2.655   9.693  11.943
73947W        W46273  34.386  37.305   2.791
73948W        W46274  44.841  41.760  12.463
73949W        W46275   7.412  20.664   0.293
73950W        W46276   8.363  39.811   0.072
73951W        W46277  34.975   6.232   0.495
73952W        W46278  29.963  31.504   1.619
73953W        W46279  31.914  34.625  11.244
73954W        W46280   1.562  22.212   4.495
73955W        W46281  27.238   6.401  13.125
73956W        W46282  39.475   2.129  13.678
73957W        W46283  25.264  41.837  12.872
73958W        W46284  20.999  40.205   0.905
73959W        W46285  14.707  34.030  14.536
73960W        W46286  22.900   6.938  12.046
73961W        W46287  16.744  34.894  13.472
73962W        W46288  13.146  30.216   0.327
73963W        W46289  29.113  38.617   0.282
73964W        W46290  35.048  28.788  12.957
73965W        W46291  26.525   1.263  11.971
73966W        W46292  14.775  13.695  12.890
73967W        W46293   2.650  28.894  12.987
73968W        W46294  13.168  27.331   2.424
73969W        W46295   4.687   5.221   1.232
73970W        W46296  11.739  16.817  13.587
73971W        W46297  12.300  30.327  10.684
73972W        W46298   6.453  14.352  12.897
73973W        W46299  20.568   8.647   2.127
73974W        W46300  11.821  19.795   4.959
73975W        W46301  13.453  25.850   3.895
73976W        W46302  43.448  41.434   2.846
73977W        W46303  40.351  16.114  13.288
73978W        W46304   2.661  11.611  11.008
73979W        W46305  22.558  25.220  13.969
73980W        W46306  33.870  30.080  13.629
73981W        W46307  36.955  12.604   1.173
73982W        W46308  14.299  39.853   2.939
73983W        W46309   9.052   8.747   4.533
73984W        W46310   6.954  26.563  11.738
73985W        W46311  15.037  32.883   0.884
73986W        W46312  21.818  14.207   3.717
73987W        W46313  43.731   7.434   3.301
73988W        W46314   2.795  35.973  12.613
73989W        W46315  32.425  23.406  14.722
73990W        W46316  44.301  38.632  12.830
73991W        W46317  22.659  30.395   4.139
73992W        W46318  32.366  34.886  11.350
73993W        W46319  33.145  21.490  10.967
73994W        W46320  22.363  18.688  13.446
73995W        W46321  39.007  20.159  12.337
73996W        W46322   2.449  34.239   0.794
73997W        W46323   5.785  40.289   2.296
73998W        W46324  17.346  15.183   2.786
73999W        W46325  39.457  10.755  14.900
74000W        W46326  15.418  12.338   2.324
74001W        W46327  22.354  24.229  13.799
74002W        W46328  12.591   5.937   1.123
74003W        W46329   3.772  26.587   2.466
74004W        W46330  41.913  15.690  13.326
74005W        W46331  43.512  21.623   0.591
74006W        W46332  40.032  27.160  13.996
74007W        W46333  36.814  34.305   3.058
74008W        W46334   1.999  19.076   4.829
74009W        W46335  31.456  41.321  11.920
74010W        W46336   4.939   9.793  12.891
74011W        W46337  38.470  17.478   2.978
74012W        W46338   6.414  19.112  12.737
74013W        W46339  12.444   8.135  13.402
74014W        W46340  35.384  40.833  14.444
74015W        W46341  42.353   4.336  14.072
74016W        W46342  33.324   5.751  14.399
74017W        W46343  22.281  26.546   4.815
74018W        W46344  32.374  37.887   0.194
74019W        W46345  43.831  21.289   0.875
74020W        W46346  35.394  36.090   2.743
74021W        W46347  32.917  42.916   1.186
74022W        W46348  24.750  34.408  10.922
74023W        W46349  38.777   3.670  13.405
74024W        W46350  22.555   7.815  12.338
74025W        W46351  26.459  28.873   4.226
74026W        W46352  29.147   8.481   0.248
74027W        W46353   3.855  15.214  10.347
74028W        W46354  19.731  42.359  13.479
74029W        W46355   2.218  32.502  12.911
74030W        W46356   4.348  40.245  14.870
74031W        W46357   2.444  20.738   3.156
74032W        W46358  44.611  39.916   3.720
74033W        W46359  21.643   6.151   4.419
74034W        W46360  23.825  36.615   4.039
74035W        W46361  15.114  36.812  14.682
74036W        W46362  25.863  22.666   0.283
74037W        W46363  28.554  33.901  12.143
74038W        W46364  10.245   5.885   1.321
74039W        W46365   7.699  28.510   3.378
74040W        W46366   6.706  24.579   3.218
74041W        W46367  30.725  38.064   2.411
74042W        W46368  41.316  34.449   4.004
74043W        W46369  15.217  39.786  13.105
74044W        W46370  27.700   6.633  12.940
74045W        W46371  17.561   4.156   4.801
74046W        W46372   8.321  12.557   2.496
74047W        W46373  12.539  19.484   1.092
74048W        W46374  17.857   2.639   0.059
74049W        W46375  20.267   8.804  11.043
74050W        W46376  21.015  23.486  11.223
74051W        W46377  23.535  37.387  12.916
74052W        W46378   7.589   3.426  11.510
74053W        W46379   5.822   5.763  12.658
74054W        W46380   6.133  36.083  12.525
74055W        W46381  12.226  25.563  11.904
74056W        W46382  40.891  16.413   0.393
74057W        W46383  24.032  22.691  13.610
74058W        W46384   0.967  18.688  12.329
74059W        W46385  22.067  20.166   1.730
74060W        W46386  33.894  19.752   4.179
74061W        W46387  43.041  38.010  12.920
74062W        W46388  24.576   1.713   2.613
74063W        W46389  34.580  39.422  13.884
74064W        W46390  39.462  17.687   1.942
74065W        W46391  34.600  31.020   2.341
74066W        W46392   9.518  38.341  13.745
74067W        W46393  22.799  29.158   1.219
74068W        W46394  17.504  14.102  10.759
74069W        W46395   1.545  13.819   1.770
74070W        W46396  15.271  24.718  14.946
74071W        W46397  35.588  40.861   3.207
74072W        W46398  38.403  31.169   3.766
74073W        W46399  19.293  22.780   0.719
74074W        W46400  23.209  33.689  10.140
74075W        W46401  10.820  35.835  12.875
74076W        W46402  35.519  43.200   1.925
74077W        W46403  12.940   1.738   2.249
74078W        W46404  12.307  42.941  11.220
74079W        W46405  27.899   3.705  13.684
74080W        W46406  13.676  39.186  13.309
74081W        W46407  22.505  25.541   1.449
74082W        W46408  36.817  33.685   9.823
74083W        W46409  17.355  23.777   4.758
74084W        W46410  19.166  43.320  10.525
74085W        W46411  36.871  37.506   0.839
74086W        W46412  38.446  12.455  13.740
74087W        W46413  31.533  34.030   4.535
74088W        W46414  20.745  40.495   3.802
74089W        W46415   7.399  26.077   1.248
74090W        W46416  26.921  21.141   2.139
74091W        W46417  22.883  14.878   3.115
74092W        W46418  12.642   5.202  13.993
74093W        W46419  21.616  10.713  13.783
74094W        W46420   0.993  31.029  14.904
74095W        W46421  33.575  13.716   1.240
74096W        W46422  37.008  22.836   0.075
74097W        W46423   0.832  13.665  12.684
74098W        W46424  38.979  43.274   2.354
74099W        W46425   7.157  34.863   3.316
74100W        W46426   0.358  24.188  14.280
74101W        W46427  30.070  38.067  12.924
74102W        W46428  22.164  35.254  12.403
74103W        W46429  17.313  43.004  10.323
74104W        W46430  25.018  22.634   4.486
74105W        W46431   3.316  29.394   0.941
74106W        W46432  18.195   9.444  12.555
74107W        W46433  17.011   7.983   0.426
74108W        W46434  19.463   5.784   1.555
74109W        W46435  23.282  18.664   2.811
74110W        W46436  40.933  39.076  14.883
74111W        W46437  30.316  32.507  11.409
74112W        W46438  15.143  43.465  10.399
74113W        W46439  31.485  31.959  12.205
74114W        W46440  25.283  17.471   3.719
74115W        W46441  37.336  30.848  14.172
74116W        W46442  37.080  22.565   0.948
74117W        W46443  25.854  11.886   2.656
74118W        W46444  31.635   6.642  11.555
74119W        W46445  34.810  32.140  14.001
74120W        W46446  40.032  10.613   1.695
74121W        W46447  34.309  17.032  12.525
74122W        W46448  39.316  16.192   2.754
74123W        W46449   3.369   2.373  13.867
74124W        W46450   2.956  30.962  11.408
74125W        W46451  16.265  19.526  11.972
74126W        W46452  24.738  36.934   5.048
74127W        W46453  26.002  16.650   3.749
74128W        W46454  13.295  37.379  14.970
74129W        W46455   3.464  31.705   5.260
74130W        W46456  19.810   7.667  13.429
74131W        W46457   0.777   4.241   0.897
74132W        W46458  39.483  12.628   3.298
74133W        W46459  31.363  23.333   1.466
74134W        W46460   9.150  42.742  14.780
74135W        W46461  10.409  13.213  13.461
74136W        W46462  18.108  43.179  11.722
74137W        W46463   4.720  10.836   1.967
74138W        W46464  33.830  15.163   1.749
74139W        W46465   3.038  31.553   0.312
74140W        W46466  14.674  30.079  13.817
74141W        W46467  11.192  39.010   2.359
74142W        W46468  43.489  26.684   1.290
74143W        W46469  12.214  10.923  14.890
74144W        W46470  39.589  38.138   2.640
74145W        W46471  41.849  21.233  13.922
74146W        W46472  28.653  35.217  11.030
74147W        W46473  37.096  22.221   5.109
74148W        W46474  16.243  28.430  13.972
74149W        W46475  32.571  43.742   0.356
74150W        W46476  29.266  36.458  14.850
74151W        W46477  36.577  11.443   1.319
74152W        W46478  16.959  16.128   2.711
74153W        W46479  36.272   5.944  11.104
74154W        W46480  13.804  20.026   3.769
74155W        W46481  24.184  25.976   1.936
74156W        W46482  17.496   4.315   3.356
74157W        W46483  42.306  26.256  12.489
74158W        W46484  41.965  18.549   4.483
74159W        W46485  25.515  37.005  14.514
74160W        W46486   8.956  27.374   4.689
74161W        W46487  28.716  13.878   3.704
74162W        W46488   6.310  16.677   0.364
74163W        W46489  40.266  43.230   4.211
74164W        W46490   2.239  21.667   1.616
74165W        W46491  18.031   2.287  10.632
74166W        W46492  42.530  26.394   4.634
74167W        W46493  41.240   0.338  11.639
74168W        W46494  10.434  33.344   1.081
74169W        W46495  11.604  25.055   3.953
74170W        W46496  20.289  26.856  12.618
74171W        W46497  10.845   0.345   3.475
74172W        W46498   2.965  22.643  12.360
74173W        W46499  10.281  16.274   1.928
74174W        W46500  34.908  19.656   3.320
74175W        W46501  35.705   3.884  12.072
74176W        W46502  26.899  15.765  11.509
74177W        W46503  31.927   7.802  14.602
74178W        W46504  29.297  30.066  12.801
74179W        W46505  29.430   9.328  14.933
74180W        W46506  34.390  25.712  14.350
74181W        W46507  41.434  44.305   0.729
74182W        W46508   2.188  17.562  12.464
74183W        W46509   4.803  19.843   3.315
74184W        W46510  41.741  19.061  14.476
74185W        W46511  23.507   3.428   4.765
74186W        W46512  39.401  30.458  12.795
74187W        W46513  10.194  17.357   5.069
74188W        W46514  15.736  10.210   0.850
74189W        W46515   1.964  42.759  10.847
74190W        W46516  10.684  38.542   0.024
74191W        W46517  31.727  43.331  12.054
74192W        W46518   4.769  35.424   2.909
74193W        W46519  42.450   3.480  10.685
74194W        W46520   2.766  20.742  10.670
74195W        W46521  30.897  17.744  14.880
74196W        W46522  22.742  36.446  14.729
74197W        W46523  43.953   3.735  14.042
74198W        W46524  28.611  18.745   1.028
74199W        W46525  35.123  10.215   9.976
74200W        W46526  43.372  27.052  14.275
74201W        W46527   7.441  40.173  14.397
74202W        W46528   4.802  37.488  14.472
74203W        W46529  40.515  39.889   0.782
74204W        W46530  21.502   2.441  12.058
74205W        W46531  39.862  15.952   4.465
74206W        W46532   8.380   3.896  13.991
74207W        W46533  30.462  30.548   2.982
74208W        W46534  18.266  35.636   4.739
74209W        W46535  38.173  16.341  13.422
74210W        W46536  32.900  11.612   0.253
74211W        W46537  25.034  19.919  14.008
74212W        W46538  44.308  34.672  14.556
74213W        W46539   1.744  22.065  13.530
74214W        W46540  13.289  29.970  13.857
74215W        W46541   5.828  28.732   3.121
74216W        W46542  33.123  36.064   3.716
74217W        W46543  37.777  40.235   0.870
74218W        W46544  31.067  25.177   4.825
74219W        W46545  11.547  27.418  11.131
74220W        W46546  30.510  39.848   2.209
74221W        W46547   5.915  27.515  14.701
74222W        W46548  15.384  14.772   3.139
74223W        W46549   4.559  41.820   4.125
74224W        W46550  11.341  14.687  12.853
74225W        W46551  28.315  25.177   2.580
74226W        W46552  16.783  11.643   2.152
74227W        W46553  16.115  30.635  13.767
74228W        W46554  21.736  18.840  13.998
74229W        W46555  36.685  12.212  10.514
74230W        W46556   3.678   4.985  14.520
74231W        W46557  16.717   7.872  11.122
74232W        W46558  13.386  43.741  13.340
74233W        W46559  36.506  28.276  10.644
74234W        W46560  14.659  14.808  12.047
74235W        W46561  19.923  13.139   3.101
74236W        W46562   1.499  25.303  14.894
74237W        W46563  38.814  39.566   3.169
74238W        W46564   0.585  37.609   2.290
74239W        W46565   3.882  13.640   1.770
74240W        W46566   5.387  44.962   3.668
74241W        W46567  43.724  13.179  10.707
74242W        W46568  17.024  28.034   3.601
74243W        W46569  25.138  15.055  10.716
74244W        W46570  36.378  27.999  14.912
74245W        W46571  23.264  18.497   4.256
74246W        W46572  41.994   5.231   0.768
74247W        W46573  15.774  22.589   1.505
74248W        W46574  11.385   3.907  10.824
74249W        W46575  27.686  31.913   2.755
74250W        W46576   8.909  25.537  11.961
74251W        W46577  24.809  29.986  14.557
74252W        W46578  28.485  36.258   1.676
74253W        W46579   6.966   6.359   3.198
74254W        W46580  44.208  33.885   1.794
74255W        W46581  44.381  16.214  13.111
74256W        W46582   3.004  15.309  11.485
74257W        W46583  12.330   5.161  14.401
74258W        W46584  25.985  42.541   4.655
74259W        W46585  44.936  18.727  13.327
74260W        W46586   2.278   4.894  13.285
74261W        W46587  35.411  36.915  10.766
74262W        W46588  38.450  19.585   4.591
74263W        W46589  26.824  18.695  12.923
74264W        W46590  18.197  14.553   4.764
74265W        W46591   4.453  29.799   3.036
74266W        W46592  39.937  32.883  13.729
74267W        W46593  28.038   5.542   2.259
74268W        W46594  36.671  39.253  14.357
74269W        W46595  44.731  22.076  13.761
74270W        W46596  16.221  27.503   2.762
74271W        W46597  41.428  35.828  11.066
74272W        W46598  43.365  20.508  12.418
74273W        W46599  42.087  40.600   4.362
74274W        W46600  10.322  35.518  14.086
74275W        W46601  13.077  17.565  10.844
74276W        W46602  26.621  31.519   4.135
74277W        W46603  41.485  35.389  13.819
74278W        W46604   8.963  33.585   0.233
74279W        W46605   1.694  16.109   1.123
74280W        W46606  36.045  24.957   1.353
74281W        W46607  44.792   4.200   3.455
74282W        W46608  10.225  36.550   0.797
74283W        W46609   1.015  19.279  10.598
74284W        W46610  32.284  28.729  14.953
74285W        W46611  40.512   6.325   0.419
74286W        W46612  27.865  41.308  12.824
74287W        W46613   3.820  34.659  10.181
74288W        W46614   8.798  13.321   4.415
74289W        W46615  28.595  10.399   0.739
74290W        W46616   1.158  44.954  13.727
74291W        W46617  42.266  44.714  12.534
74292W        W46618  28.222  36.847  12.831
74293W        W46619  33.915   8.672   4.605
74294W        W46620  37.341  19.885  11.610
74295W        W46621  35.422  27.248   3.378
74296W        W46622  23.796  40.393  13.324
74297W        W46623   8.823  13.306   1.778
74298W        W46624  33.077  44.275  12.936
74299W        W46625  19.989  11.909  11.261
74300W        W46626   4.484  11.182   5.063
74301W        W46627  43.886  27.967   4.604
74302W        W46628   8.585   4.194  14.374
74303W        W46629  32.965  33.363  11.307
74304W        W46630  38.140   4.393  14.333
74305W        W46631   5.293   7.901   2.375
74306W        W46632  19.670  32.413   4.431
74307W        W46633   1.249   3.996   4.786
74308W        W46634  27.284   1.016  14.339
74309W        W46635  26.896  24.825   1.487
74310W        W46636   0.029  27.201  11.114
74311W        W46637  30.976  13.153   0.769
74312W        W46638   4.033  10.203   5.017
74313W        W46639  28.050  29.244  12.597
74314W        W46640  18.114  44.877   0.365
74315W        W46641  22.085  17.778  14.490
74316W        W46642  43.569  11.933   3.137
74317W        W46643  37.381  25.908  12.027
74318W        W46644  26.964   9.175   3.110
74319W        W46645  41.882   4.247  12.367
74320W        W46646  12.130  17.547   3.734
74321W        W46647  35.868  37.601  12.887
74322W        W46648  19.158  18.018   1.193
74323W        W46649  32.563   9.474  12.644
74324W        W46650  31.497   5.322  11.698
74325W        W46651  37.047  22.032   2.403
74326W        W46652  15.726   3.494   1.045
74327W        W46653  38.643  14.664  11.423
74328W        W46654  14.979   4.803   1.310
74329W        W46655  15.838  33.123  10.456
74330W        W46656  13.149  11.091   2.719
74331W        W46657  16.750  41.249   3.722
74332W        W46658  11.407  20.283  11.172
74333W        W46659  13.848  28.936  14.053
74334W        W46660   4.907  22.062   0.251
74335W        W46661  30.286  18.303  14.687
74336W        W46662   4.840  10.005   1.595
74337W        W46663   7.610  43.866   4.364
74338W        W46664  29.686   3.978  12.040
74339W        W46665  26.573  25.987   5.440
74340W        W46666  28.199   1.794  13.360
74341W        W46667  10.579  28.714  12.169
74342W        W46668   3.992  10.143  12.097
74343W        W46669   8.646  16.111   2.284
74344W        W46670  34.911   7.357  10.296
74345W        W46671  37.784   9.066   1.588
74346W        W46672   3.439  35.837   0.208
74347W        W46673  30.009  14.311   4.691
74348W        W46674  20.152  42.502   3.190
74349W        W46675   3.456  14.157   1.346
74350W        W46676  32.117  13.675   2.374
74351W        W46677   2.515  42.343   1.845
74352W        W46678  15.352  33.053  14.884
74353W        W46679  22.598  14.897  14.100
74354W        W46680   4.311  28.199   1.405
74355W        W46681  27.432  21.110   2.206
74356W        W46682  15.442   0.996   5.004
74357W        W46683  11.628  44.304   2.728
74358W        W46684  19.172  40.070   2.270
74359W        W46685  27.272  15.487  12.858
74360W        W46686   9.944  20.514   1.858
74361W        W46687  32.834  18.229   2.769
74362W        W46688  30.630  23.155  13.465
74363W        W46689  15.868  16.069   3.160
74364W        W46690  24.819  15.774  12.855
74365W        W46691   7.099  39.595   2.406
74366W        W46692   2.221  31.464   4.268
74367W        W46693  36.922  26.690   1.745
74368W        W46694  28.951  25.376   1.041
74369W        W46695  15.705   3.732   4.573
74370W        W46696  15.257  18.259   4.359
74371W        W46697  36.057  42.346   3.729
74372W        W46698  27.980  31.445   2.865
74373W        W46699   2.427   9.923   2.658
74374W        W46700  31.710  36.573   3.280
74375W        W46701   1.292  23.418  14.517
74376W        W46702  41.545  12.062   1.278
74377W        W46703  35.827  39.741   4.819
74378W        W46704  12.009  27.625  11.994
74379W        W46705  32.506  14.458  14.887
74380W        W46706  12.714  21.539  11.482
74381W        W46707  44.495  23.760  13.940
74382W        W46708  32.004  21.043  11.484
74383W        W46709  41.147   5.313   3.605
74384W        W46710   5.872  31.480  11.552
74385W        W46711   6.698  10.252   0.354
74386W        W46712  31.296  30.525   3.249
74387W        W46713  26.185   6.032  12.872
74388W        W46714  36.657   4.809   3.243
74389W        W46715  12.271  34.038  11.468
74390W        W46716  10.422  29.885   3.343
74391W        W46717  23.923  25.576  13.934
74392W        W46718  14.714   6.999   0.279
74393W        W46719  43.290  41.754   0.825
74394W        W46720  25.992   7.253   0.441
74395W        W46721  39.308  15.167  13.007
74396W        W46722  21.888   9.111  12.033
74397W        W46723  26.427  22.316   0.801
74398W        W46724  23.165  21.538  12.051
74399W        W46725  17.336  17.577   0.848
74400W        W46726  30.904  40.218  14.883
74401W        W46727  42.145  24.601  14.935
74402W        W46728   5.662  24.218  10.750
74403W        W46729  22.739  35.126  13.878
74404W        W46730  42.752  17.234   2.378
74405W        W46731  20.876   2.246   2.278
74406W        W46732  27.513  35.864  12.624
74407W        W46733  33.806  36.902   0.862
74408W        W46734   1.432  11.275  12.961
74409W        W46735  31.672  26.196   1.369
74410W        W46736   6.813  14.253  10.663
74411W        W46737  43.447  28.114   0.277
74412W        W46738  14.293   8.686  12.266
74413W        W46739  43.832   2.446  12.637
74414W        W46740  14.341  38.612   2.360
74415W        W46741  24.755  39.643  11.070
74416W        W46742  31.194  22.135   4.709
74417W        W46743  31.895  16.118  11.169
74418W        W46744   7.688  27.792  10.395
74419W        W46745  42.265  32.472   3.601
74420W        W46746  22.587  17.075   1.170
74421W        W46747   6.886  23.506  13.404
74422W        W46748  17.656  27.609   0.406
74423W        W46749  35.629  35.951   3.353
74424W        W46750  38.444  17.117  12.194
74425W        W46751   3.770   5.805   2.466
74426W        W46752  12.911  28.022  14.827
74427W        W46753  19.540   6.965   1.744
74428W        W46754  40.469  24.727   1.722
74429W        W46755  23.411  34.351  12.422
74430W        W46756   7.594  43.288  11.946
74431W        W46757  44.201  19.306   2.802
74432W        W46758  33.857  22.263   0.890
74433W        W46759   8.670  33.815  14.872
74434W        W46760  24.913  10.284  11.531
74435W        W46761  12.357  14.365  12.137
74436W        W46762   0.874  29.186  12.708
74437W        W46763  40.610  40.768   1.765
74438W        W46764  40.871  27.081  14.386
74439W        W46765  17.602  37.883  11.614
74440W        W46766  25.725  14.145   0.903
74441W        W46767  12.844  12.709   1.522
74442W        W46768  16.301  11.657   2.379
74443W        W46769  21.258  38.449  12.886
74444W        W46770   8.808   2.830   0.919
74445W        W46771  21.743  10.765   4.587
74446W        W46772  29.975  12.796   4.252
74447W        W46773  28.428  20.763  13.814
74448W        W46774  23.451  31.198  14.440
74449W        W46775  13.591  17.856   4.732
74450W        W46776  14.539  35.208   1.944
74451W        W46777   7.720  11.542  13.349
74452W        W46778  26.258  20.334   3.652
74453W        W46779   7.128  34.945  11.689
74454W        W46780  37.442  42.706  14.105
74455W        W46781  23.699  19.821  13.857
74456W        W46782   9.136  24.291   0.748
74457W        W46783  10.716  42.739   4.132
74458W        W46784   6.758  16.577  10.983
74459W        W46785  39.009  31.667  11.067
74460W        W46786  16.803  10.210   0.730
74461W        W46787   6.310   3.187  14.269
74462W        W46788  28.488   1.961  11.586
74463W        W46789   9.814   6.239  11.652
74464W        W46790  28.446   6.343  11.477
74465W        W46791  18.270  21.046   2.779
74466W        W46792  40.888  28.519  13.466
74467W        W46793  20.727  32.556   3.659
74468W        W46794  22.724  14.187  10.710
74469W        W46795  29.991  13.668   0.856
74470W        W46796  23.655  14.833  12.022
74471W        W46797  11.722  10.822   0.763
74472W        W46798  27.927  18.541   2.788
74473W        W46799  35.636  29.057   4.133
74474W        W46800  23.030  43.776  11.688
74475W        W46801  10.691  18.173   4.924
74476W        W46802  26.641  34.886   0.450
74477W        W46803   2.776  25.975   3.739
74478W        W46804  20.923  27.828  11.131
74479W        W46805   8.620  43.910   2.656
74480W        W46806  44.397  44.801  11.945
74481W        W46807  36.007  40.044   2.881
74482W        W46808  18.194  19.814  11.219
74483W        W46809   6.287   6.855  14.328
74484W        W46810  22.160  12.123   3.069
74485W        W46811  35.389   6.799   0.654
74486W        W46812  13.207  16.998   4.984
74487W        W46813  44.424  28.135   3.810
74488W        W46814  13.559   6.890   4.296
74489W        W46815  12.308  12.200  11.887
74490W        W46816  16.701  44.367   4.206
74491W        W46817  17.027  21.700  10.885
74492W        W46818  19.783  32.019  13.353
74493W        W46819  28.516  29.044  12.399
74494W        W46820  16.777  18.567  14.734
74495W        W46821  44.347  32.660   4.698
74496W        W46822   4.385   3.858  13.472
74497W        W46823  40.368  29.760  13.627
74498W        W46824  37.822  23.938  11.120
74499W        W46825  29.023  37.458   0.782
74500W        W46826  18.663  23.242   4.488
74501W        W46827  30.372  28.559   4.000
74502W        W46828   9.840   6.663  12.579
74503W        W46829  12.810   7.871   4.161
74504W        W46830  41.972  24.658   2.227
74505W        W46831  22.634  37.293   4.429
74506W        W46832   9.205   5.287   2.788
74507W        W46833  18.550  12.234   1.321
74508W        W46834  42.239  38.893   4.898
74509W        W46835   3.709  15.196  13.840
74510W        W46836  24.385  14.392   3.191
74511W        W46837   4.399  13.424  13.974
74512W        W46838   3.518  37.350  13.006
74513W        W46839  28.162  27.155  10.819
74514W        W46840  34.695  19.181   0.791
74515W        W46841  19.229  14.149   3.695
74516W        W46842   3.923  42.797  11.039
74517W        W46843  22.043  23.589   3.248
74518W        W46844  16.272  41.407   3.427
74519W        W46845  36.055  30.384   4.424
74520W        W46846   4.260  20.704   4.194
74521W        W46847   9.232   6.641   3.370
74522W        W46848  26.483  24.983   2.218
74523W        W46849  11.128  19.991   1.404
74524W        W46850  41.943  18.806  14.963
74525W        W46851  16.747  37.121   1.150
74526W        W46852  39.928  27.141  11.450
74527W        W46853   6.733  36.657   0.822
74528W        W46854  44.808  33.658   4.210
74529W        W46855  43.455  32.958   1.158
74530W        W46856  27.021  39.064   4.625
74531W        W46857  26.028  28.356  14.969
74532W        W46858  22.263  21.518  12.881
74533W        W46859  36.716   0.481   2.557
74534W        W46860  16.244  14.291   2.424
74535W        W46861  12.552  34.984  14.532
74536W        W46862  26.458   6.383  10.380
74537W        W46863  24.175  18.087   2.319
74538W        W46864  15.840  17.672  11.864
74539W        W46865  41.208  35.950   0.887
74540W        W46866  42.982   0.064   0.329
74541W        W46867   1.143  20.263   2.660
74542W        W46868  23.684  12.919  10.694
74543W        W46869  41.965   3.458   4.333
74544W        W46870   2.687  36.376  11.141
74545W        W46871  33.411  31.474  12.212
74546W        W46872  10.740  18.780   3.722
74547W        W46873   8.525  19.805   4.474
74548W        W46874  40.785  34.495  10.886
74549W        W46875   7.672  42.841  11.691
74550W        W46876  22.490  10.975   2.305
74551W        W46877  11.306   8.920  11.029
74552W        W46878  21.815  34.398  11.564
74553W        W46879  17.267   4.734  13.791
74554W        W46880  41.493  17.723   0.924
74555W        W46881  30.143  26.164   3.780
74556W        W46882  17.633  10.241   3.321
74557W        W46883  27.245   8.452  14.733
74558W        W46884  21.585  13.671  12.373
74559W        W46885  28.120  31.382  12.464
74560W        W46886  42.905   9.935  13.605
74561W        W46887  37.437  17.978  11.957
74562W        W46888   9.797  34.584  11.050
74563W        W46889  35.965  14.788  12.076
74564W        W46890   9.364  17.702  11.917
74565W        W46891  24.205  41.914   0.132
74566W        W46892  40.971  38.054   4.424
74567W        W46893  40.356  40.033   1.417
74568W        W46894  19.111   6.775   4.323
74569W        W46895  43.369  20.280  10.694
74570W        W46896  38.890   0.409   0.509
74571W        W46897  43.562   6.240  14.634
74572W        W46898  32.071   3.129   3.636
74573W        W46899   6.775  42.601   4.381
74574W        W46900   0.266   0.992  11.130
74575W        W46901  38.268  43.971   4.045
74576W        W46902  33.698  24.658   4.503
74577W        W46903  27.238  32.652   1.395
74578W        W46904  31.083   8.457   1.706
74579W        W46905  37.502  11.782   3.091
74580W        W46906  40.311  24.046   2.931
74581W        W46907   0.669  44.963  11.687
74582W        W46908   3.361   1.247  12.027
74583W        W46909   4.873  41.010   3.214
74584W        W46910   5.219   5.764  14.393
74585W        W46911   6.283  28.924   0.953
74586W        W46912  23.902  13.480   0.828
74587W        W46913  24.773  37.763   3.391
74588W        W46914   6.977  29.021  10.687
74589W        W46915   2.319  40.636  12.181
74590W        W46916  44.089   6.042   0.859
74591W        W46917  37.561  32.371  12.007
74592W        W46918  17.759  39.604   2.646
74593W        W46919   9.184   1.808  13.407
74594W        W46920  13.625  41.406  12.122
74595W        W46921   7.052  13.048   4.513
74596W        W46922  28.607  27.673  14.267
74597W        W46923   7.796  41.948  11.167
74598W        W46924   3.936  44.614  10.750
74599W        W46925  34.984  41.886   4.151
74600W        W46926  23.531  25.968  12.964
74601W        W46927   9.694  29.473  13.036
74602W        W46928  16.336   0.394  12.480
74603W        W46929  40.761   8.282   3.837
74604W        W46930  12.319  39.286  11.223
74605W        W46931   5.394  22.091   4.304
74606W        W46932   1.964  10.646  11.000
74607W        W46933  41.860   9.461   3.268
74608W        W46934   5.154  27.694   2.057
74609W        W46935  25.992  31.666  11.583
74610W        W46936  34.004   9.156  13.816
74611W        W46937  15.111  13.662  13.309
74612W        W46938  17.818  14.134  13.863
74613W        W46939  25.503  40.453  11.980
74614W        W46940  44.740  41.899   1.912
74615W        W46941   2.502  18.378   4.241
74616W        W46942  44.025  26.559  12.318
74617W        W46943  32.346  11.584  12.063
74618W        W46944  44.678  37.377   0.487
74619W        W46945  38.373   5.787   1.017
74620W        W46946  14.792  10.800  11.455
74621W        W46947  10.152   9.377   3.229
74622W        W46948  25.010   5.792  13.417
74623W        W46949  26.246  39.119   4.153
74624W        W46950  19.849  20.104  13.859
74625W        W46951   1.303  43.346  14.770
74626W        W46952   9.883   6.798   0.038
74627W        W46953  30.018  42.428  14.542
74628W        W46954  11.363  38.491   2.301
74629W        W46955  15.100   7.358  13.366
74630W        W46956  39.242  37.286  13.402
74631W        W46957  39.821   2.743  14.231
74632W        W46958   5.634   3.944  14.845
74633W        W46959   7.878  16.801   2.414
74634W        W46960  24.400  17.809  11.480
74635W        W46961   0.857  23.450   2.891
74636W        W46962   7.041  15.215  11.580
74637W        W46963  24.972   7.376  11.644
74638W        W46964  13.730  24.953   2.259
74639W        W46965  15.057  12.587  12.366
74640W        W46966  44.002  29.942  13.883
74641W        W46967  18.294  28.446  11.599
74642W        W46968  20.538  10.247   2.378
74643W        W46969  30.718   0.761   3.659
74644W        W46970  33.709   9.419  12.065
74645W        W46971  31.400  17.754  11.324
74646W        W46972  25.815  25.917   0.889
74647W        W46973  28.486   9.176   0.286
74648W        W46974  43.250   3.930  14.479
74649W        W46975  10.216   9.948   2.877
74650W        W46976  13.558  33.314  11.072
74651W        W46977  11.592  18.719   1.023
74652W        W46978  23.167  24.961   1.744
74653W        W46979  26.062  15.835  12.352
74654W        W46980   3.273  23.427  10.230
74655W        W46981   5.521  41.711   2.781
74656W        W46982  11.268   6.808  14.438
74657W        W46983  42.336  39.050   1.514
74658W        W46984  11.147  26.254   4.682
74659W        W46985  13.931  21.981  13.248
74660W        W46986  29.485   0.994   1.672
74661W        W46987  30.402  34.576  13.095
74662W        W46988  43.573   1.397   0.335
74663W        W46989  30.481  21.778  14.684
74664W        W46990  43.370  14.661   3.546
74665W        W46991  13.138   8.855  12.862
74666W        W46992  17.007  26.170  12.134
74667W        W46993  12.811  10.673   2.599
74668W        W46994   3.882   7.810  14.505
74669W        W46995   0.355   1.913   0.962
74670W        W46996  16.643  30.946   4.966
74671W        W46997  30.086  37.821  12.160
74672W        W46998   1.370  13.722   2.587
74673W        W46999  11.943  27.151   2.623
74674W        W47000  16.030  25.055  12.365
74675W        W47001  19.784   3.881   2.322
74676W        W47002  12.015  37.449   3.136
74677W        W47003  14.597  32.627   3.664
74678W        W47004   7.758  39.056   3.257
74679W        W47005  15.583  10.892  14.050
74680W        W47006  10.697  40.808  13.588
74681W        W47007  39.032  33.755   3.259
74682W        W47008  31.084  12.205  10.466
74683W        W47009  34.991  27.652  12.553
74684W        W47010  20.358   5.758   2.319
74685W        W47011  20.836  26.029   0.811
74686W        W47012  37.240   2.424  13.549
74687W        W47013  34.011  13.784  14.310
74688W        W47014  31.978  13.618  11.567
74689W        W47015  18.595  24.610   3.576
74690W        W47016   0.970  14.056  14.930
74691W        W47017  35.980  27.406   4.842
74692W        W47018  24.160  43.512   4.330
74693W        W47019  10.921  33.192   2.457
74694W        W47020  17.573  41.437   2.729
74695W        W47021  26.217  39.430  13.722
74696W        W47022   1.843   0.325  13.824
74697W        W47023  44.252  32.357  10.977
74698W        W47024  31.505   5.851   2.680
74699W        W47025   0.511  22.702  11.025
74700W        W47026  37.740  15.565   0.305
74701W        W47027  16.744  29.766   0.550
74702W        W47028  13.702  38.175   4.382
74703W        W47029   7.588  23.920  11.171
74704W        W47030  14.633   7.285  13.552
74705W        W47031   0.253  18.207   4.957
74706W        W47032   9.867   3.687  14.363
74707W        W47033  23.220  43.496  12.085
74708W        W47034  12.831  43.356  13.289
74709W        W47035  38.394  23.412   3.660
74710W        W47036  37.969   9.151  11.815
74711W        W47037  22.117  18.827  14.389
74712W        W47038  32.917   8.388   2.219
74713W        W47039  12.847  44.300   2.340
74714W        W47040  25.747  42.551   0.162
74715W        W47041  33.443  38.828   4.623
74716W        W47042  15.697  32.899   4.032
74717W        W47043  35.480  39.140  14.915
74718W        W47044   4.261  44.695   0.185
74719W        W47045  16.134  32.222  10.582
74720W        W47046  11.138  41.738  13.472
74721W        W47047  34.583   3.743   4.020
74722W        W47048   4.270   0.908  14.348
74723W        W47049   4.372  30.698   4.511
74724W        W47050  33.820  31.081   4.180
74725W        W47051  16.807  42.889  14.808
74726W        W47052  35.186  16.610   3.181
74727W        W47053  16.902   1.765  11.133
74728W        W47054  39.353   6.987   1.706
74729W        W47055  29.436  30.516   4.082
74730W        W47056  29.938  37.511   1.939
74731W        W47057  35.832   2.768  12.554
74732W        W47058  33.594   0.411   4.563
74733W        W47059  34.960  33.359   0.991
74734W        W47060   1.478  10.267  11.832
74735W        W47061  40.999   0.682   2.278
74736W        W47062  31.400  18.319   2.872
74737W        W47063  13.577  32.066   3.172
74738W        W47064  21.227  30.606  13.912
74739W        W47065   0.364  32.533   1.413
74740W        W47066  13.844  41.031   3.255
74741W        W47067  20.446   6.417   1.854
74742W        W47068  35.400  41.471  12.648
74743W        W47069  32.622   4.880   2.778
74744W        W47070   7.350  22.408   2.129
74745W        W47071  20.728  33.969   3.307
74746W        W47072  10.613   3.436   0.314
74747W        W47073  40.870  27.117  11.101
74748W        W47074  21.695   2.708   1.027
74749W        W47075  19.276   7.187   4.576
74750W        W47076  24.464   7.262  14.483
74751W        W47077   2.386  14.711  10.948
74752W        W47078  17.343  32.860  13.476
74753W        W47079  25.524  32.393   2.054
74754W        W47080  41.942  36.400   3.902
74755W        W47081  35.891  21.677  10.663
74756W        W47082   6.945  27.336  12.668
74757W        W47083  28.096  41.811   4.524
74758W        W47084   5.846   2.615   0.975
74759W        W47085  11.096  34.150  11.479
74760W        W47086  29.071  40.846  12.448
74761W        W47087  12.282  37.528   2.692
74762W        W47088  17.124   8.257  13.821
74763W        W47089   3.689  15.993  10.668
74764W        W47090   1.781   6.234  11.551
74765W        W47091  16.879   8.409  12.311
74766W        W47092  20.043  20.141  10.728
74767W        W47093  38.900  12.613  12.731
74768W        W47094  26.516  30.866  13.844
74769W        W47095  33.487  34.323  14.590
74770W        W47096  41.250  33.891   1.730
74771W        W47097  38.667  32.210   4.070
74772W        W47098   3.478  27.890  12.924
74773W        W47099  21.438  20.978  11.346
74774W        W47100   3.639  19.657   3.770
74775W        W47101  39.035  44.517  13.006
74776W        W47102  20.668  37.569   2.702
74777W        W47103  28.966  36.861   4.176
74778W        W47104  28.557  21.605  13.624
74779W        W47105  14.277   5.406  14.594
74780W        W47106  18.839  33.423   1.204
74781W        W47107  16.174  29.574   3.827
74782W        W47108  35.469  38.218   4.022
74783W        W47109  40.959  26.567   4.778
74784W        W47110  37.033   9.816   5.004
74785W        W47111  31.192  24.369   2.953
74786W        W47112  37.034  18.108  13.800
74787W        W47113   6.737  14.341   4.751
74788W        W47114  21.094  30.645   0.040
74789W        W47115  27.381   0.504  14.275
74790W        W47116  35.278   4.962  14.731
74791W        W47117  12.296  30.936  13.902
74792W        W47118   2.380  10.223   2.231
74793W        W47119  11.266  43.312  10.562
74794W        W47120   0.266  28.827   0.298
74795W        W47121  39.819  33.276   4.645
74796W        W47122   8.732   3.419  13.985
74797W        W47123   5.518  34.639  14.345
74798W        W47124  35.299  29.193   1.393
74799W        W47125  36.068  14.595   0.064
74800W        W47126  22.034  22.769  11.455
74801W        W47127  18.656  30.556   2.398
74802W        W47128  13.462  43.728  11.611
74803W        W47129   6.744  19.663  14.771
74804W        W47130  31.190   0.584   3.944
74805W        W47131  12.164  16.291   3.521
74806W        W47132   6.794  24.229  13.831
74807W        W47133  32.503   9.263  13.858
74808W        W47134  23.954   0.722  13.985
74809W        W47135  35.270  35.354  12.022
74810W        W47136  41.920   9.800  14.394
74811W        W47137  33.846  24.659  14.066
74812W        W47138  27.785  25.063   0.341
74813W        W47139  24.669  15.316  11.144
74814W        W47140  10.296  18.095  12.499
74815W        W47141   7.776  24.656  14.479
74816W        W47142  25.777  36.872  11.704
74817W        W47143   7.838  12.822  10.276
74818W        W47144  25.982  24.087   1.238
74819W        W47145  13.851   4.685   2.250
74820W        W47146  34.605  43.112  12.544
74821W        W47147  13.479  32.195  10.126
74822W        W47148  16.899   7.025  14.534
74823W        W47149  16.748  42.851   4.553
74824W        W47150  42.408  18.858   1.431
74825W        W47151  41.333   3.857   1.663
74826W        W47152  31.486   3.572   0.932
74827W        W47153  23.127   0.313  10.466
74828W        W47154   8.256  43.891   2.008
74829W        W47155  21.844  39.890  10.167
74830W        W47156  27.622  34.924   0.048
74831W        W47157   6.332  22.156  12.479
74832W        W47158  31.055   1.678  14.440
74833W        W47159  29.478   6.911  10.899
74834W        W47160   3.437  40.204   0.640
74835W        W47161  15.825  25.514   1.286
74836W        W47162  10.917  34.404   0.251
74837W        W47163  24.133  13.137  10.570
74838W        W47164  35.455  25.095   3.309
74839W        W47165  44.368   5.756   4.222
74840W        W47166  13.607  29.661   3.691
74841W        W47167   8.281   3.306  11.419
74842W        W47168  26.729  16.147  14.043
74843W        W47169  34.620  31.359   1.946
74844W        W47170   2.311  20.977  10.867
74845W        W47171  22.143  19.258   2.345
74846W        W47172  16.260  38.929  11.376
74847W        W47173  10.681  37.463   2.755
74848W        W47174  12.859  17.060  14.596
74849W        W47175  29.965  44.179  14.981
74850W        W47176  16.709  27.211  14.606
74851W        W47177   2.945   8.597  12.418
74852W        W47178  22.201  36.596   4.492
74853W        W47179  29.758   0.584  13.985
74854W        W47180  26.874  40.263   0.763
74855W        W47181  44.740  26.427   4.213
74856W        W47182  39.121   6.944   1.239
74857W        W47183  17.808  12.876   1.922
74858W        W47184  35.620   4.234  13.428
74859W        W47185  11.098  13.327   3.812
74860W        W47186  39.932  30.724   4.949
74861W        W47187  19.185  42.518  10.969
74862W        W47188  31.155  28.168  11.205
74863W        W47189   9.668   8.152  12.990
74864W        W47190  24.314  41.209  13.789
74865W        W47191  21.549   5.827  11.979
74866W        W47192  39.408  27.119  14.178
74867W        W47193   9.740  21.483   3.397
74868W        W47194  35.667  20.571   1.826
74869W        W47195  14.207  18.182  10.617
74870W        W47196  26.490   9.026   3.351
74871W        W47197   5.209   4.762  14.362
74872W        W47198   1.741  43.753  10.685
74873W        W47199  36.879  44.957  11.671
74874W        W47200   0.003   9.283  13.391
74875W        W47201  15.240  14.023  12.977
74876W        W47202  17.962  38.652   3.638
74877W        W47203  26.121   9.379   2.422
74878W        W47204  13.593  23.937  13.767
74879W        W47205  19.681  20.226   1.690
74880W        W47206  14.395  29.107   1.739
74881W        W47207  42.773  29.044   3.276
74882W        W47208  26.119   8.321   1.772
74883W        W47209  12.821  23.203  11.439
74884W        W47210   0.282  39.916   0.591
74885W        W47211  36.312  14.811   0.941
74886W        W47212   7.521  20.725   5.103
74887W        W47213   6.509  17.646  12.944
74888W        W47214  32.595  25.603   1.758
74889W        W47215  18.166  37.373   2.269
74890W        W47216  41.443   4.223  14.508
74891W        W47217  29.129  26.662  12.840
74892W        W47218  23.560   8.446  12.189
74893W        W47219  22.923  21.134  14.480
74894W        W47220  25.691  37.045   3.549
74895W        W47221  31.373  19.527  14.759
74896W        W47222  24.671  32.439  12.025
74897W        W47223  21.737  44.892   1.963
74898W        W47224  25.935  18.726   4.385
74899W        W47225  25.178  13.917  12.075
74900W        W47226   3.848  15.083   3.825
74901W        W47227  12.245  34.902   1.375
74902W        W47228  31.638  10.500   3.246
74903W        W47229  20.116  43.045   3.358
74904W        W47230  21.574  31.364  13.365
74905W        W47231   4.365  29.363   0.861
74906W        W47232  11.374  19.530   0.113
74907W        W47233   7.966  25.067  14.018
74908W        W47234   4.155  43.764  13.032
74909W        W47235  44.937  21.233  12.352
74910W        W47236  13.231  34.210   3.299
74911W        W47237  30.154  35.249   2.059
74912W        W47238  42.540  41.071  10.727
74913W        W47239   1.565   5.825  13.150
74914W        W47240  14.164  30.188  12.311
74915W        W47241  36.035   1.476  12.126
74916W        W47242  28.383  29.281   1.057
74917W        W47243  13.661  32.802   1.645
74918W        W47244   2.853  37.948  11.090
74919W        W47245   7.128  22.698  11.685
74920W        W47246  11.740  13.302  14.160
74921W        W47247  44.821   5.460   4.246
74922W        W47248  38.237   0.061  12.889
74923W        W47249  19.102  35.075  14.878
74924W        W47250   5.900  10.594  10.600
74925W        W47251  41.359  29.551   3.261
74926W        W47252  34.591  11.968   2.940
74927W        W47253  10.342   5.937  12.892
74928W        W47254  37.111  43.805   1.882
74929W        W47255  36.363  42.629  10.197
74930W        W47256  17.627   3.866   3.154
74931W        W47257   4.142  37.048   2.748
74932W        W47258  27.925  21.346   1.254
74933W        W47259  40.025  44.639   2.361
74934W        W47260  23.006  30.539  12.623
74935W        W47261   7.733  43.474  10.414
74936W        W47262  12.879  31.971  11.647
74937W        W47263  22.283  24.644   3.328
74938W        W47264   0.045  10.403  13.859
74939W        W47265  33.608   5.048  14.928
74940W        W47266  32.544  18.812   0.909
74941W        W47267  27.511   9.791   1.653
74942W        W47268  13.352  14.587  13.870
74943W        W47269   8.745  26.592   2.886
74944W        W47270  37.346   7.952  14.969
74945W        W47271  21.027  37.254   4.414
74946W        W47272  24.648   8.272   3.312
74947W        W47273   5.788  21.586   1.478
74948W        W47274  27.893   0.486  14.350
74949W        W47275  20.164  16.261  10.463
74950W        W47276  23.558   7.209   2.485
74951W        W47277  33.630  44.986   2.094
74952W        W47278  26.246  43.717  13.147
74953W        W47279  34.881  32.657   3.252
74954W        W47280   3.516  23.805   3.240
74955W        W47281  36.863  18.535  12.166
74956W        W47282  24.640  38.417  10.044
74957W        W47283  27.565  35.907   0.446
74958W        W47284  27.051  10.361  14.727
74959W        W47285   8.128   4.336  13.868
74960W        W47286  16.634  37.109   4.311
74961W        W47287   9.872  23.164   4.599
74962W        W47288  15.871  25.278  10.752
74963W        W47289  19.128  35.142   1.675
74964W        W47290  10.295  41.284   4.535
74965W        W47291   4.825  32.779   1.846
74966W        W47292   8.971  34.390  14.812
74967W        W47293  40.934  30.057   1.281
74968W        W47294   0.957   7.698   1.019
74969W        W47295  24.919  25.410  12.956
74970W        W47296  44.271  21.980  14.487
74971W        W47297  41.275   7.153  12.578
74972W        W47298  35.391  14.889   1.786
74973W        W47299  31.089  31.938   2.237
74974W        W47300  35.823  35.273  13.747
74975W        W47301   2.853  22.706   2.236
74976W        W47302  40.110  35.391   4.259
74977W        W47303  41.857  32.778  13.549
74978W        W47304  21.175  17.759   1.268
74979W        W47305  12.855  35.892   0.747
74980W        W47306   6.952  41.624   4.197
74981W        W47307  41.634  10.355   0.010
74982W        W47308   8.467  37.637   2.420
74983W        W47309  30.663  41.535  12.508
74984W        W47310  25.178  30.011   3.523
74985W        W47311   0.036  22.184   4.612
74986W        W47312  38.062  15.952   4.014
74987W        W47313  26.115  30.466   0.844
74988W        W47314  38.090  43.272  11.626
74989W        W47315  44.493  24.973   2.710
74990W        W47316  18.001  44.942  14.402
74991W        W47317  40.328   6.675   0.970
74992W        W47318  27.636  40.767   1.307
74993W        W47319  37.841  19.093  13.831
74994W        W47320  42.347  42.036   2.754
74995W        W47321  15.789  20.821   2.260
74996W        W47322  27.958   2.559   4.868
74997W        W47323   0.533  36.049  13.967
74998W        W47324  28.451  41.999   4.123
74999W        W47325   7.609  25.328   4.085
75000W        W47326  33.223  43.876   4.092
75001W        W47327   1.253  37.577   3.946
75002W        W47328  10.827   3.973  12.522
75003W        W47329  19.082   9.801   3.186
75004W        W47330  26.898  39.570   1.364
75005W        W47331  22.690  30.144  13.759
75006W        W47332  26.517  23.514   2.313
75007W        W47333  28.602  20.042  10.581
75008W        W47334  24.774   5.082  10.643
75009W        W47335   6.981  18.175   1.240
75010W        W47336   0.957   5.729   1.021
75011W        W47337   4.241  26.574  13.932
75012W        W47338   5.250  39.698  14.430
75013W        W47339  40.959   8.187  14.989
75014W        W47340   9.294   1.675   3.614
75015W        W47341  19.051   6.150  12.908
75016W        W47342  14.306  34.028  11.831
75017W        W47343  23.321   8.235   4.429
75018W        W47344  37.164   7.703   3.746
75019W        W47345   8.626  43.025   4.097
75020W        W47346   3.524  31.924  14.795
75021W        W47347   0.922  43.087   4.837
75022W        W47348   0.492  35.772  13.526
75023W        W47349   3.853  12.843   1.177
75024W        W47350  22.178   1.898   2.765
75025W        W47351  21.009  33.255   2.870
75026W        W47352  19.358  32.341   1.477
75027W        W47353  23.037   3.371   0.809
75028W        W47354  28.145  28.046   0.746
75029W        W47355  34.828  43.483   3.297
75030W        W47356  11.480  16.149  14.456
75031W        W47357   2.221  41.920  10.625
75032W        W47358   0.911  29.592   2.602
75033W        W47359  25.716  32.999  12.181
75034W        W47360  15.917  26.001   0.052
75035W        W47361  42.055  42.532   0.947
75036W        W47362   7.133   9.220   2.267
75037W        W47363  35.562  26.633   1.363
75038W        W47364  22.938  38.988  12.474
75039W        W47365  14.576  41.794  10.627
75040W        W47366   7.683  23.121   3.309
75041W        W47367   8.830  29.696   1.799
75042W        W47368   2.289  31.192   0.192
75043W        W47369   1.101  41.570   4.574
75044W        W47370  30.638  26.065   3.837
75045W        W47371   1.769  18.341  13.360
75046W        W47372  44.420  44.417  13.139
75047W        W47373  31.910   1.706  11.063
75048W        W47374  30.503  32.904   4.034
75049W        W47375  12.817   2.352   2.453
75050W        W47376  15.170  28.685   2.191
75051W        W47377   8.147  10.722   1.935
75052W        W47378  36.382  35.037  12.733
75053W        W47379  18.364  23.455   2.255
75054W        W47380   4.907  24.024   4.610
75055W        W47381  37.274  24.150  13.904
75056W        W47382   1.227  40.941   1.890
75057W        W47383  43.337   2.827  11.313
75058W        W47384  37.397  17.013   1.567
75059W        W47385  31.020  23.007   2.728
75060W        W47386  42.195  22.041   0.389
75061W        W47387  33.236   4.217   2.179
75062W        W47388  37.965  34.986  11.629
75063W        W47389   4.899   1.221   2.178
75064W        W47390   2.860  31.132   3.250
75065W        W47391  35.322  25.599   2.769
75066W        W47392  27.343   3.832   4.659
75067W        W47393  33.200  33.963   4.502
75068W        W47394  14.899   6.866  13.314
75069W        W47395   1.463  22.998  14.784
75070W        W47396  16.686  23.409  10.359
75071W        W47397  39.919  15.526  11.612
75072W        W47398   2.845  22.034   1.055
75073W        W47399  34.772  25.380  14.472
75074W        W47400  44.677  18.534   3.670
75075W        W47401  34.518  10.898   2.190
75076W        W47402   0.151  29.665  14.474
75077W        W47403  17.501  25.061   4.626
75078W        W47404  41.985  21.235   0.914
75079W        W47405   8.303  43.488  14.013
75080W        W47406   5.202  39.490   2.141
75081W        W47407   3.197  11.013   4.041
75082W        W47408  20.737  14.129   4.682
75083W        W47409   8.319   7.701  10.929
75084W        W47410   2.871  44.805   3.285
75085W        W47411  16.247  35.528  11.482
75086W        W47412   0.296  26.097   2.163
75087W        W47413  18.213   1.868   4.841
75088W        W47414   5.465  18.234   4.283
75089W        W47415  35.257  21.737  11.627
75090W        W47416   3.943  11.635  12.987
75091W        W47417  13.279  27.906  11.940
75092W        W47418  37.750  38.984   3.838
75093W        W47419  15.730   3.963   3.006
75094W        W47420  22.721  17.175  13.874
75095W        W47421  38.470  12.298  14.745
75096W        W47422  24.746  23.540   1.610
75097W        W47423  16.534  13.330   0.767
75098W        W47424   8.864  40.862   2.206
75099W        W47425  41.816  39.037  14.003
75100W        W47426  32.960  18.529  11.966
75101W        W47427   6.654  44.047  13.590
75102W        W47428  26.050   5.943   2.343
75103W        W47429   5.931   5.200  13.790
75104W        W47430   4.921   7.657  10.651
75105W        W47431   5.379  27.561   0.476
75106W        W47432  42.464  17.370  14.513
75107W        W47433  26.690  43.022   2.822
75108W        W47434  31.624  43.096  13.791
75109W        W47435   5.287  17.343   0.800
75110W        W47436  30.113  32.795  13.679
75111W        W47437  39.518  34.040  10.723
75112W        W47438  12.996  15.816  11.560
75113W        W47439  19.051  31.654   3.282
75114W        W47440  14.743  40.558  12.334
75115W        W47441   7.661  29.103   2.385
75116W        W47442  18.536   2.615   1.804
75117W        W47443  30.621  36.521   3.236
75118W        W47444  35.708  28.815   2.392
75119W        W47445  26.470   8.746  11.569
75120W        W47446  24.574   8.771   3.434
75121W        W47447  27.042  30.892   1.359
75122W        W47448  33.946  18.818   0.251
75123W        W47449  34.920  34.970  10.589
75124W        W47450   8.461   9.393  14.930
75125W        W47451  27.889  32.120   3.222
75126W        W47452  24.636  29.120   1.131
75127W        W47453  41.850  29.623  12.937
75128W        W47454  13.235  29.486  12.944
75129W        W47455  13.636  44.950  14.447
75130W        W47456  15.312  37.583  11.119
75131W        W47457  14.505  17.895   2.783
75132W        W47458   3.820   5.631  13.887
75133W        W47459  12.234  36.571  13.131
75134W        W47460  21.710  37.876   4.583
75135W        W47461  34.424  27.028  12.862
75136W        W47462  19.125  27.700   3.524
75137W        W47463   4.376   4.917  11.015
75138W        W47464   4.906   5.556  10.989
75139W        W47465  19.003  13.980   3.234
75140W        W47466  26.562  27.143   0.704
75141W        W47467  10.003  21.953   5.170
75142W        W47468  15.871  23.112   0.742
75143W        W47469   6.291  42.231  11.083
75144W        W47470  34.424  18.453  11.610
75145W        W47471  44.479   9.175  13.483
75146W        W47472  39.098  42.086  13.637
75147W        W47473  13.832  15.269  11.559
75148W        W47474  17.761  34.209   0.927
75149W        W47475  16.161   1.980   4.110
75150W        W47476  12.656  27.270  11.513
75151W        W47477   8.632  30.181   1.808
75152W        W47478   4.610   9.239  13.367
75153W        W47479  24.591  24.098   4.498
75154W        W47480  39.947  20.142   1.968
75155W        W47481  31.911  28.076  11.606
75156W        W47482   5.731  29.984  10.571
75157W        W47483  34.888  32.422  12.626
75158W        W47484  36.914   2.234   2.944
75159W        W47485  11.227   0.057  10.738
75160W        W47486  44.498  20.689   3.321
75161W        W47487  34.368  16.990   3.309
75162W        W47488  28.087  33.609  12.166
75163W        W47489   4.673  23.129  11.797
75164W        W47490   1.254  40.965   2.993
75165W        W47491  42.785  17.660   4.241
75166W        W47492  16.667  14.166  10.586
75167W        W47493   9.777  36.837   4.103
75168W        W47494  24.745  23.075  12.216
75169W        W47495  13.261  16.168  14.832
75170W        W47496  10.144  26.397   3.066
75171W        W47497   3.465  17.860  13.884
75172W        W47498  15.096  14.190  13.454
75173W        W47499  38.382  20.062  14.776
75174W        W47500  37.839   9.777   4.129
75175W        W47501  26.453   7.157  12.423
75176W        W47502   4.954  19.223  11.585
75177W        W47503  20.691   2.415  11.402
75178W        W47504  24.216  25.521  10.734
75179W        W47505   9.942   8.823   4.135
75180W        W47506  35.885   2.448  14.936
75181W        W47507  34.996  27.487  14.919
75182W        W47508  13.055  33.879  10.273
75183W        W47509  12.281  34.367   1.354
75184W        W47510   6.557   9.377   0.951
75185W        W47511  21.254  44.854   1.675
75186W        W47512  30.241  39.582  13.581
75187W        W47513  33.800  33.473   1.480
75188W        W47514  16.943  22.098   1.781
75189W        W47515  23.096  24.584   4.470
75190W        W47516  39.525  30.018  10.666
75191W        W47517  31.083   8.044  13.964
75192W        W47518  16.586  26.965  13.932
75193W        W47519  43.435   3.624  13.982
75194W        W47520  43.377  37.634   1.554
75195W        W47521  43.550  19.471   0.511
75196W        W47522   2.411  35.174  12.119
75197W        W47523  24.725  33.339  13.544
75198W        W47524  20.452  20.175   4.576
75199W        W47525   0.727  25.638  11.849
75200W        W47526   8.893  25.609   0.875
75201W        W47527  38.047  17.504  12.886
75202W        W47528  43.243  22.049   1.363
75203W        W47529  33.336  10.327   4.585
75204W        W47530  40.056  13.267   3.672
75205W        W47531   5.991  42.581   0.953
75206W        W47532  19.753  21.090   2.690
75207W        W47533  12.151  25.588  12.736
75208W        W47534  34.107  30.506  14.967
75209W        W47535  16.268   2.640  12.064
75210W        W47536  21.640  10.304  11.555
75211W        W47537  39.455  24.224   1.582
75212W        W47538  18.528  32.610   3.845
75213W        W47539  20.550  31.684   4.058
75214W        W47540   1.556  26.163   0.978
75215W        W47541   0.999  41.136  13.619
75216W        W47542  26.643  37.683   4.858
75217W        W47543  21.358  40.085   1.284
75218W        W47544  24.744  20.198   2.220
75219W        W47545  24.806  11.128   0.445
75220W        W47546  22.291  17.551  14.916
75221W        W47547  19.317  38.045   1.879
75222W        W47548  12.637  26.551  14.431
75223W        W47549   8.771  39.432  10.725
75224W        W47550  16.470  16.238  13.437
75225W        W47551  33.296  44.237   5.109
75226W        W47552   1.201  30.345  10.492
75227W        W47553  44.876  20.675  11.119
75228W        W47554   4.939  29.553   2.227
75229W        W47555   6.203  21.567  13.774
75230W        W47556  24.918   6.326  11.090
75231W        W47557  11.345  17.780   3.328
75232W        W47558  17.039  30.394  12.593
75233W        W47559   1.263  25.260   3.775
75234W        W47560   1.875   7.841   4.485
75235W        W47561  44.442  29.032  14.371
75236W        W47562   9.348  35.869  11.595
75237W        W47563  26.429  37.965  14.295
75238W        W47564  33.057  44.846   4.541
75239W        W47565  35.778  12.116  14.350
75240W        W47566  12.847  32.991   4.596
75241W        W47567  23.030  37.748  12.944
75242W        W47568  39.352  24.696   3.560
75243W        W47569  40.816   3.969   0.400
75244W        W47570  29.677  20.149  14.090
75245W        W47571   0.166  27.040  13.303
75246W        W47572  16.532  25.786   2.259
75247W        W47573  36.475  44.856   1.400
75248W        W47574  38.882  25.800   2.136
75249W        W47575  31.895  16.144   4.272
75250W        W47576   7.609  34.833  11.541
75251W        W47577  21.801  14.834   4.340
75252W        W47578  32.719  38.480  12.537
75253W        W47579   0.689  23.495   1.250
75254W        W47580  26.688  17.386   3.682
75255W        W47581  25.109   8.838  11.959
75256W        W47582  10.383  17.486   1.269
75257W        W47583  44.869  32.445   2.852
75258W        W47584   6.937  42.523  14.404
75259W        W47585  17.631  20.551   1.432
75260W        W47586  28.888   8.636  11.493
75261W        W47587  22.718  37.835   2.639
75262W        W47588  15.121  29.964  12.959
75263W        W47589  36.340  32.861  10.798
75264W        W47590  30.832  15.286  11.785
75265W        W47591   7.124  33.049   1.736
75266W        W47592   9.128   6.724  12.908
75267W        W47593  29.202  41.930  14.487
75268W        W47594   6.063  33.494  11.153
75269W        W47595  38.846  10.469   2.722
75270W        W47596  14.860  18.572   3.215
75271W        W47597  16.677   0.675   4.447
75272W        W47598   9.245  12.152  12.198
75273W        W47599   7.885  43.429   5.022
75274W        W47600  32.297  18.796   2.674
75275W        W47601  44.218  19.192  11.096
75276W        W47602  25.492  34.927  12.966
75277W        W47603   8.132   1.436   3.977
75278W        W47604  36.825  42.545  11.610
75279W        W47605  17.001  39.730  10.024
75280W        W47606  32.002  31.098   0.927
75281W        W47607  39.497  30.712  14.183
75282W        W47608  23.018   2.049   3.702
75283W        W47609   4.701   7.442  11.120
75284W        W47610  11.527   5.136  12.912
75285W        W47611  13.077  22.925   5.047
75286W        W47612  39.030  33.042  13.151
75287W        W47613   6.842   1.897   0.413
75288W        W47614  23.457  36.471  12.817
75289W        W47615  12.175  10.018  13.024
75290W        W47616  34.720  31.341  11.604
75291W        W47617   4.372  25.518   1.889
75292W        W47618  40.979  29.572  11.666
75293W        W47619  17.086  10.812  10.405
75294W        W47620   2.950   1.996  12.221
75295W        W47621  19.821  17.990  13.833
75296W        W47622   9.169   2.734   2.829
75297W        W47623  12.837  26.664  12.554
75298W        W47624   3.859  19.603   1.371
75299W        W47625  12.362  42.615   0.705
75300W        W47626  38.066  20.721   4.189
75301W        W47627   9.277  32.053  11.362
75302W        W47628  17.320  18.342   4.050
75303W        W47629  11.854   6.830   3.436
75304W        W47630  39.299   4.302   2.763
75305W        W47631   1.719  18.712   4.613
75306W        W47632  25.603  13.420  14.875
75307W        W47633   1.451  34.446  11.551
75308W        W47634  13.663  36.917   1.223
75309W        W47635  17.070   6.242  11.269
75310W        W47636  15.061  41.097   2.383
75311W        W47637   5.952  12.613   2.811
75312W        W47638  27.558  22.596  12.098
75313W        W47639  24.537  27.692   1.925
75314W        W47640  31.444   4.762  10.253
75315W        W47641  35.626  21.734   3.779
75316W        W47642   8.599  10.650  12.414
75317W        W47643  44.088   8.187   3.923
75318W        W47644  10.453  18.614   5.100
75319W        W47645  43.807  43.440  13.836
75320W        W47646  40.931  10.566  10.790
75321W        W47647  27.555  27.890   2.344
75322W        W47648  25.029  42.610  13.772
75323W        W47649  13.101  12.117   1.861
75324W        W47650  12.263  18.590  13.135
75325W        W47651  18.238  43.947   0.229
75326W        W47652  26.459   6.892   4.212
75327W        W47653  13.097   0.326   2.430
75328W        W47654  41.885  31.255   4.347
75329W        W47655  42.859  41.544   0.097
75330W        W47656  33.079  12.075   0.422
75331W        W47657  26.159  38.867  12.075
75332W        W47658  36.960  43.867   3.430
75333W        W47659   2.170  13.875  11.892
75334W        W47660   3.817  37.497   1.180
75335W        W47661   7.624  34.041   0.926
75336W        W47662  21.055   4.861   0.429
75337W        W47663  13.146  34.065   4.349
75338W        W47664  33.410  44.795   3.336
75339W        W47665  27.895  12.777  14.383
75340W        W47666  44.405  41.065  13.487
75341W        W47667  27.253  27.705  14.521
75342W        W47668  24.226  43.891   3.147
75343W        W47669  22.586  10.848  14.697
75344W        W47670  17.810  31.669   2.633
75345W        W47671   0.783  17.509  10.304
75346W        W47672   2.358  25.819   0.020
75347W        W47673  17.367  14.292   0.271
75348W        W47674  15.378  18.845  12.142
75349W        W47675  11.851  21.088   5.074
75350W        W47676  36.330  34.568  14.943
75351W        W47677  34.542  37.586  11.426
75352W        W47678   8.484  13.238  12.446
75353W        W47679  12.423  17.421   1.279
75354W        W47680  10.243  27.190   1.906
75355W        W47681  22.085  30.395  10.912
75356W        W47682  32.936  31.891   4.051
75357W        W47683  40.959   0.971  12.441
75358W        W47684  19.123  24.641   0.607
75359W        W47685  25.738  38.562  11.993
75360W        W47686  34.576  41.960  12.598
75361W        W47687  27.177  29.000   4.140
75362W        W47688   6.200  10.192  10.733
75363W        W47689  15.729  25.106   0.964
75364W        W47690  43.414  39.977  14.982
75365W        W47691  41.012  15.843   1.284
75366W        W47692  11.353  41.579   5.160
75367W        W47693  43.926  41.997  10.929
75368W        W47694  16.089  17.331  14.113
75369W        W47695  21.150  24.759  13.438
75370W        W47696  28.403   3.738  13.523
75371W        W47697  36.254  35.907   5.055
75372W        W47698  23.879  22.707   1.737
75373W        W47699  37.125  35.036  11.160
75374W        W47700  37.018  39.073   1.782
75375W        W47701  39.406  33.652  14.660
75376W        W47702  40.484   5.377   1.346
75377W        W47703  20.251  33.334   1.424
75378W        W47704  27.478  33.877   0.525
75379W        W47705  28.576  15.268   0.938
75380W        W47706  38.073  43.896  12.299
75381W        W47707   1.715  35.071  14.344
75382W        W47708  42.297   4.116   1.890
75383W        W47709  13.395   5.885  12.496
75384W        W47710  39.151  22.756  13.155
75385W        W47711  23.049  16.053   0.794
75386W        W47712  27.160  13.069  14.392
75387W        W47713   3.019  18.731   1.202
75388W        W47714  19.646  33.003   3.141
75389W        W47715  20.353  18.434   2.894
75390W        W47716  22.941   2.195  14.591
75391W        W47717  21.405  19.315  12.521
75392W        W47718  21.618  11.892   3.576
75393W        W47719   2.819  30.138   4.147
75394W        W47720   9.682  44.447  10.762
75395W        W47721  10.464  44.054   0.921
75396W        W47722  41.796   4.318   1.964
75397W        W47723  15.275  32.986   4.298
75398W        W47724  18.998  30.102   4.213
75399W        W47725  27.402  32.422   2.714
75400W        W47726  12.735  42.989  12.935
75401W        W47727  14.654  26.940  12.471
75402W        W47728  19.583  36.599  10.574
75403W        W47729  14.894  12.305   2.207
75404W        W47730  20.009  19.246  10.755
75405W        W47731  29.669  30.583  10.543
75406W        W47732  20.036  19.153   2.214
75407W        W47733  33.063  36.992   3.723
75408W        W47734   8.394  15.871   1.792
75409W        W47735  11.778  23.044  10.773
75410W        W47736  44.552  17.010  10.064
75411W        W47737   8.784  14.843  13.738
75412W        W47738  36.870  14.294  13.969
75413W        W47739  19.957  43.786   1.113
75414W        W47740  21.276   9.540   4.019
75415W        W47741  23.764  42.607   4.726
75416W        W47742  15.189  41.947   4.804
75417W        W47743  19.048  41.323   2.943
75418W        W47744  28.660  12.668  11.985
75419W        W47745  44.185  21.650  10.066
75420W        W47746  32.817  13.539   1.476
75421W        W47747   8.596  16.590  10.911
75422W        W47748  27.512  11.139  12.161
75423W        W47749  24.521   6.733  13.281
75424W        W47750   7.603  15.869   4.318
75425W        W47751  27.095  20.913   4.696
75426W        W47752  25.016   5.312   0.155
75427W        W47753  25.497  16.605   3.644
75428W        W47754  32.529   6.186   5.013
75429W        W47755  14.222  37.387   2.936
75430W        W47756  10.972  23.759  11.071
75431W        W47757  20.854   0.391  14.346
75432W        W47758  32.946  24.403  11.112
75433W        W47759  11.355  13.712   2.285
75434W        W47760  17.192   0.504  10.947
75435W        W47761  30.539  27.348   4.117
75436W        W47762  19.799  26.047   4.636
75437W        W47763  43.813  10.148  14.007
75438W        W47764  27.914  14.691  12.945
75439W        W47765   1.779  27.993  14.383
75440W        W47766  29.879   7.823   0.360
75441W        W47767  14.080  23.197  11.181
75442W        W47768  43.076  35.068   0.219
75443W        W47769  25.539  25.599  14.935
75444W        W47770   5.983  44.394  10.621
75445W        W47771  21.711   8.622  12.039
75446W        W47772  15.284  17.323   4.066
75447W        W47773  16.347   0.559  10.749
75448W        W47774  43.368  35.440   4.379
75449W        W47775  26.041   7.844  13.841
75450W        W47776  21.734  22.604   3.097
75451W        W47777  23.338  11.760  14.954
75452W        W47778  42.641   7.682  12.527
75453W        W47779  36.571   7.299   0.733
75454W        W47780  30.901   9.427  12.410
75455W        W47781  11.776  27.911   0.783
75456W        W47782  10.365  34.407  10.566
75457W        W47783  36.318  28.856   0.320
75458W        W47784  38.027   1.035  10.669
75459W        W47785   5.990  41.849   2.651
75460W        W47786  25.011  26.521   1.663
75461W        W47787   1.228  34.383  14.849
75462W        W47788  16.304   9.228  11.026
75463W        W47789  37.350  16.676   3.928
75464W        W47790   3.834  35.857  11.207
75465W        W47791  31.208   2.881  12.418
75466W        W47792   8.231  20.933  11.613
75467W        W47793  43.037  15.781   2.420
75468W        W47794  13.502  37.566  13.970
75469W        W47795   6.305   3.790   0.355
75470W        W47796  31.182  10.218   2.223
75471W        W47797  41.812  25.772  11.985
75472W        W47798  23.347   5.616  12.378
75473W        W47799  27.416   3.942  14.351
75474W        W47800   5.898  31.940  10.650
75475W        W47801  29.539  28.652   2.354
75476W        W47802   9.807   1.086  12.288
75477W        W47803  23.223   8.304   3.246
75478W        W47804  12.243  32.919   1.851
75479W        W47805  31.861  35.537   0.999
75480W        W47806  39.506  40.502   2.194
75481W        W47807   0.011  40.186   2.872
75482W        W47808  42.748  19.008   3.603
75483W        W47809  34.350  14.139  14.966
75484W        W47810   3.350  41.852  14.600
75485W        W47811   1.489  37.620  14.189
75486W        W47812  38.308  32.982  14.174
75487W        W47813  14.298  23.409  14.395
75488W        W47814  20.472  10.637   0.488
75489W        W47815  33.593  37.083   3.693
75490W        W47816  23.145  20.922   0.384
75491W        W47817  22.764  17.775  14.835
75492W        W47818  39.594  19.083  10.695
75493W        W47819   7.094  21.077  10.280
75494W        W47820  20.908  31.374   2.194
75495W        W47821   3.945  41.935  12.974
75496W        W47822  35.198  22.019  12.863
75497W        W47823  34.507  29.082   1.954
75498W        W47824  14.107  19.647   2.900
75499W        W47825   2.687  25.958  11.948
75500W        W47826  44.792  34.884   2.135
75501W        W47827  27.662   6.671   1.760
75502W        W47828  38.051   0.349   3.151
75503W        W47829  14.363   9.300  14.996
75504W        W47830  19.790  24.975   2.687
75505W        W47831   7.943  29.235   3.923
75506W        W47832  28.941   6.373   2.808
75507W        W47833  18.588   7.370  12.964
75508W        W47834  30.422  26.920  12.089
75509W        W47835  19.834  30.528   4.232
75510W        W47836  37.795  23.986  10.253
75511W        W47837  26.749  13.763  11.113
75512W        W47838  32.650  33.289  14.770
75513W        W47839  24.728  41.342   1.886
75514W        W47840  39.765  14.572   1.227
75515W        W47841  38.562  43.928  12.174
75516W        W47842   1.434  36.739  14.740
75517W        W47843  43.051  31.451  12.715
75518W        W47844  34.387  43.449  13.422
75519W        W47845  35.414   7.979  13.934
75520W        W47846  38.232   8.138  12.383
75521W        W47847  28.651  44.682  14.911
75522W        W47848  24.185  39.605   1.884
75523W        W47849  21.900  22.938   0.604
75524W        W47850  15.829  37.917  10.432
75525W        W47851  23.427  19.905   1.786
75526W        W47852  30.929  42.024  12.602
75527W        W47853  20.128  38.073   3.754
75528W        W47854  23.630   1.040  14.925
75529W        W47855  11.342  28.226   2.754
75530W        W47856  33.522  26.493  12.855
75531W        W47857  13.699  39.187  11.980
75532W        W47858   4.379  16.806   2.756
75533W        W47859  22.728  41.385  14.397
75534W        W47860  15.453  33.144   5.070
75535W        W47861  30.743  25.044   0.959
75536W        W47862  33.722  12.900  11.021
75537W        W47863  39.966   4.267  13.515
75538W        W47864   3.373  18.007  14.939
75539W        W47865  34.044  44.205   0.914
75540W        W47866   9.172   4.584   0.558
75541W        W47867  18.050  17.331  12.074
75542W        W47868  22.563   1.100  12.005
75543W        W47869  22.806  20.566   1.660
75544W        W47870  23.204  30.386  11.198
75545W        W47871   3.733  20.845   4.719
75546W        W47872  15.645  32.356  12.659
75547W        W47873   1.760   9.386  10.693
75548W        W47874  34.861  17.024  12.037
75549W        W47875   1.781  14.123  14.527
75550W        W47876  24.249  22.634  14.859
75551W        W47877  28.419  32.155   3.745
75552W        W47878  26.571  31.462  12.435
75553W        W47879  31.498   3.867   2.031
75554W        W47880  32.986   6.316  10.678
75555W        W47881  13.335   4.888   0.160
75556W        W47882  26.134  33.273  11.094
75557W        W47883  31.137  22.422  14.781
75558W        W47884  32.863   9.322   3.569
75559W        W47885  39.353   0.242  14.876
75560W        W47886  36.202   0.820  12.565
75561W        W47887  24.990   8.372  12.151
75562W        W47888  24.636  32.172   0.973
75563W        W47889  21.282  34.494  13.781
75564W        W47890   6.200   5.955   2.883
75565W        W47891  28.967  19.211   3.980
75566W        W47892  12.621   1.194   0.968
75567W        W47893  13.345   5.241   3.871
75568W        W47894  43.785  10.727  11.721
75569W        W47895  13.262  21.851   4.860
75570W        W47896  23.757   2.846  13.534
75571W        W47897   0.947   8.885   2.226
75572W        W47898   1.191  37.005   1.695
75573W        W47899  32.234  10.650  14.874
75574W        W47900  32.109  23.800   0.435
75575W        W47901  41.277  41.434   3.633
75576W        W47902  43.452  38.502   2.439
75577W        W47903  29.581  14.888  14.897
75578W        W47904  34.106  24.131  14.967
75579W        W47905  35.878  28.230   1.260
75580W        W47906  42.683  38.876  13.460
75581W        W47907   8.271  13.113  12.922
75582W        W47908  21.617  41.070   2.256
75583W        W47909   5.726  41.304  11.696
75584W        W47910  32.666  10.753  14.531
75585W        W47911  21.240  14.753   0.604
75586W        W47912  25.500  42.329   2.243
75587W        W47913  21.228  37.673   0.591
75588W        W47914  44.395   1.517  11.083
75589W        W47915   0.669   9.708   0.959
75590W        W47916   2.744   2.498  12.942
75591W        W47917  28.742  17.283  10.829
75592W        W47918   3.263   5.964  10.635
75593W        W47919  44.365  25.647  11.231
75594W        W47920  43.262  19.447   4.152
75595W        W47921  30.190   8.157   1.817
75596W        W47922  12.864  16.087  13.415
75597W        W47923   5.696  39.896  10.592
75598W        W47924   9.977  44.262   0.460
75599W        W47925  24.410  29.616  12.998
75600W        W47926   1.435  18.810  14.603
75601W        W47927  31.243  12.703  11.038
75602W        W47928  40.176   7.871  10.868
75603W        W47929   6.460   7.934   1.378
75604W        W47930  38.327  31.575   3.425
75605W        W47931  27.053  37.387   5.021
75606W        W47932   8.020  39.398  13.329
75607W        W47933  38.779   6.661  12.515
75608W        W47934   4.276  33.805  14.973
75609W        W47935  36.067  43.848   3.639
75610W        W47936  31.895  14.708  10.878
75611W        W47937  17.516  21.630  11.028
75612W        W47938  21.518  44.325  10.700
75613W        W47939   9.346  14.124   1.847
75614W        W47940  34.418  32.914  10.787
75615W        W47941  26.143   8.004   4.308
75616W        W47942   9.180  30.105   2.652
75617W        W47943  40.007  20.616   3.696
75618W        W47944  14.915  37.838   2.722
75619W        W47945  24.749   3.464  11.827
75620W        W47946  35.703   2.950  10.359
75621W        W47947  39.080   2.427  13.786
75622W        W47948   9.542  40.399  12.893
75623W        W47949  11.084   8.761  12.501
75624W        W47950  36.877  25.626  14.049
75625W        W47951   6.353  17.568   0.500
75626W        W47952  32.432  27.627  14.521
75627W        W47953   3.528  38.998   1.970
75628W        W47954  26.680  28.148   4.123
75629W        W47955  22.815  44.411  11.031
75630W        W47956  41.038  15.369  13.235
75631W        W47957  23.554  31.083  12.908
75632W        W47958  26.380   4.506  10.013
75633W        W47959  32.039   5.917  12.090
75634W        W47960  34.815  28.804   2.752
75635W        W47961  36.118  37.049   4.597
75636W        W47962  18.150  21.639   4.173
75637W        W47963  44.058  30.011   0.418
75638W        W47964  31.505  34.064  12.075
75639W        W47965  13.670   2.386  13.068
75640W        W47966  14.083  31.174  11.519
75641W        W47967  16.358  32.390  13.855
75642W        W47968   1.211  36.557   3.222
75643W        W47969  18.954  15.809  12.176
75644W        W47970  40.141   9.564  10.750
75645W        W47971  19.050  34.958  10.598
75646W        W47972  16.865   6.394   1.552
75647W        W47973   0.394  41.937  11.678
75648W        W47974  36.723  36.382  12.390
75649W        W47975  34.805  36.448   0.762
75650W        W47976  10.426  18.080   3.551
75651W        W47977  19.187   7.401  13.494
75652W        W47978   0.934  23.270   3.358
75653W        W47979   3.351  26.504   5.083
75654W        W47980  34.807  14.286   9.927
75655W        W47981  17.683   9.160   4.161
75656W        W47982   4.313  18.740  12.373
75657W        W47983  43.579   1.381  12.400
75658W        W47984  36.191  12.768   5.190
75659W        W47985  42.615  29.405  11.020
75660W        W47986  20.529  26.715  14.538
75661W        W47987   9.721  10.202  13.473
75662W        W47988  39.976   8.955   0.249
75663W        W47989   0.865  27.287  12.772
75664W        W47990  19.690  35.272   3.606
75665W        W47991  22.617  26.166   0.368
75666W        W47992  32.929  44.885  11.363
75667W        W47993   5.836  29.033   3.768
75668W        W47994  21.189  41.999  12.631
75669W        W47995   9.366  26.079   0.251
75670W        W47996  16.563  15.540   0.429
75671W        W47997  32.108   1.739   3.550
75672W        W47998  19.377   0.205  12.576
75673W        W47999  21.374  25.870   1.682
75674W        W48000  11.188  26.353   5.174
75675W        W48001  24.155   9.487  13.302
75676W        W48002  20.562  36.361   0.683
75677W        W48003  43.983  40.640  13.570
75678W        W48004   9.196  26.498   0.481
75679W        W48005  43.868  42.829   0.482
75680W        W48006  36.956   6.545   3.334
75681W        W48007  41.742  35.849  14.438
75682W        W48008  28.282  38.931   2.427
75683W        W48009  22.850   8.170   9.941
75684W        W48010  17.511   5.698  13.432
75685W        W48011  27.854  43.607  12.491
75686W        W48012  23.001   7.322   3.228
75687W        W48013   2.559  20.309   1.406
75688W        W48014   5.861  14.681  14.730
75689W        W48015  36.329  36.496   0.805
75690W        W48016  22.239  37.267  10.003
75691W        W48017  30.263  27.112  13.951
75692W        W48018   9.252  11.374   1.679
75693W        W48019  40.287  31.829  11.528
75694W        W48020  38.578  10.873   3.347
75695W        W48021  22.799  37.650  12.479
75696W        W48022   2.196  37.541  14.832
75697W        W48023  15.703  39.213   0.443
75698W        W48024   7.832  40.694  10.791
75699W        W48025   7.658   4.435   4.899
75700W        W48026  35.118  42.576   3.497
75701W        W48027  42.827   1.186  14.735
75702W        W48028  33.957   8.318  14.843
75703W        W48029  25.385   4.294  14.455
75704W        W48030   1.353   2.051   5.183
75705W        W48031  21.614  42.263   2.769
75706W        W48032  10.294  20.310   4.484
75707W        W48033  17.267   3.176  12.130
75708W        W48034  34.693   4.170   2.601
75709W        W48035   1.770  32.007  14.459
75710W        W48036  42.487  33.451  13.749
75711W        W48037  30.372  39.608   3.382
75712W        W48038  27.048  33.936  14.318
75713W        W48039  42.221  13.767   2.657
75714W        W48040   7.982  27.565   3.787
75715W        W48041  24.807  27.274   2.386
75716W        W48042   8.749   3.710   3.696
75717W        W48043   1.160  24.588   0.200
75718W        W48044  33.553  26.668   3.641
75719W        W48045  42.416  22.929   0.835
75720W        W48046  40.003   1.422   4.039
75721W        W48047  36.511  17.778  11.948
75722W        W48048  44.459   2.550  11.090
75723W        W48049   8.259  18.653   0.503
75724W        W48050  11.234  31.824   0.067
75725W        W48051  42.759   3.838   4.286
75726W        W48052   7.491   4.803   0.446
75727W        W48053  15.569  43.413   3.795
75728W        W48054  27.221  33.180   3.908
75729W        W48055   8.093  30.887  13.812
75730W        W48056  29.396  40.223  12.779
75731W        W48057  29.913  40.299  11.536
75732W        W48058   4.328  16.851  12.769
75733W        W48059  25.207  29.383  12.134
75734W        W48060  44.457   4.529  14.107
75735W        W48061  37.468   8.113   3.676
75736W        W48062  26.423   8.049  12.893
75737W        W48063  37.304  18.858  10.747
75738W        W48064   0.702  11.692   0.854
75739W        W48065  10.235  17.620   0.068
75740W        W48066  10.661  28.168   3.963
75741W        W48067  25.359  29.630  11.244
75742W        W48068  17.051  25.471  12.956
75743W        W48069  18.613  13.216  11.060
75744W        W48070  43.759  42.407  10.649
75745W        W48071  15.854   0.508   1.148
75746W        W48072  23.089  25.149  11.407
75747W        W48073  10.388  36.973   4.733
75748W        W48074  35.748  40.340  13.988
75749W        W48075  40.420  35.444  14.838
75750W        W48076  18.493  14.233  13.089
75751W        W48077  12.894  41.367   1.917
75752W        W48078  36.013  30.684   2.224
75753W        W48079  17.044  30.352  11.685
75754W        W48080  31.084  40.285   2.778
75755W        W48081  17.120  18.689   2.858
75756W        W48082  24.616  28.181   3.819
75757W        W48083  36.449  15.410  11.865
75758W        W48084  16.621  35.369   2.277
75759W        W48085  11.376  38.611  10.588
75760W        W48086   9.251  27.024   0.379
75761W        W48087  18.638  38.781   4.076
75762W        W48088  13.353   3.829   3.636
75763W        W48089  43.316  10.376  11.870
75764W        W48090  14.469  32.251   9.952
75765W        W48091  11.769  44.169   9.959
75766W        W48092  14.816   8.706  11.585
75767W        W48093  33.237  23.234   4.577
75768W        W48094   3.902   1.714   2.781
75769W        W48095  17.249  38.039   3.480
75770W        W48096  36.813  31.716   1.303
75771W        W48097  11.523  37.158  11.139
75772W        W48098  41.084  39.049  13.489
75773W        W48099  32.363  27.653   3.266
75774W        W48100   5.015  17.189   4.902
75775W        W48101   7.984  24.194  13.417
75776W        W48102  38.965  34.868  12.096
75777W        W48103  32.642  39.566   3.341
75778W        W48104  34.538  39.092   1.025
75779W        W48105  11.626  39.964  11.690
75780W        W48106   0.817  30.486  10.960
75781W        W48107  24.250  26.739  11.180
75782W        W48108   5.224  15.186   4.107
75783W        W48109  36.033  19.666  13.861
75784W        W48110  24.065  44.003   0.163
75785W        W48111  39.822   9.710   3.983
75786W        W48112  31.029  26.145   1.472
75787W        W48113  41.056  35.663  13.131
75788W        W48114  19.034   3.234   5.135
75789W        W48115  13.376   9.210   0.848
75790W        W48116  28.558  14.717   2.123
75791W        W48117  40.113  28.058   2.752
75792W        W48118  27.020   1.532  13.049
75793W        W48119  22.529   4.298   2.796
75794W        W48120   4.589   1.844   1.401
75795W        W48121  31.055   7.359  14.578
75796W        W48122  36.115  35.347   1.530
75797W        W48123  36.895  43.888  10.911
75798W        W48124  43.827  13.098  11.507
75799W        W48125  28.906  18.729  10.653
75800W        W48126  18.707  28.422   4.643
75801W        W48127  11.170  27.636  10.731
75802W        W48128  36.150  13.670  11.557
75803W        W48129   5.713  39.498   4.149
75804W        W48130  10.862   2.074   1.715
75805W        W48131  38.575  41.135   4.000
75806W        W48132  11.217   7.306   1.552
75807W        W48133  16.879  14.642   1.821
75808W        W48134  35.964  20.796  12.808
75809W        W48135  14.014  34.513   1.521
75810W        W48136  19.185  19.153   1.718
75811W        W48137  34.940  25.116   0.201
75812W        W48138  24.983  16.320   2.268
75813W        W48139  31.161  43.479  12.998
75814W        W48140  32.434  41.846   2.821
75815W        W48141  38.399  22.163  14.216
75816W        W48142  42.782  19.757  13.132
75817W        W48143  26.295  39.093  10.680
75818W        W48144  41.258   4.361   1.882
75819W        W48145  30.372  40.036   4.127
75820W        W48146  27.624  31.644   4.624
75821W        W48147  32.939   2.135  14.491
75822W        W48148  33.034   1.113  10.613
75823W        W48149  15.830  36.990  10.457
75824W        W48150  36.303  43.926   4.162
75825W        W48151   7.912  36.528  14.438
75826W        W48152  44.524  38.354   2.730
75827W        W48153  28.638  34.568  12.005
75828W        W48154   7.778  14.860  13.094
75829W        W48155  43.954  26.180   0.406
75830W        W48156  28.188  34.877  12.073
75831W        W48157  27.095  15.865   3.344
75832W        W48158   5.338  44.103   1.480
75833W        W48159  22.913  27.201  14.953
75834W        W48160  14.856  20.464   4.248
75835W        W48161  17.182  33.768  14.860
75836W        W48162   6.435  44.886   1.093
75837W        W48163  23.212  43.563   2.831
75838W        W48164  43.798  20.081  14.280
75839W        W48165   4.142  39.453  13.512
75840W        W48166  32.923  42.564   1.847
75841W        W48167   9.665   0.972   1.631
75842W        W48168  34.962  23.123   4.076
75843W        W48169  29.581  34.951  11.016
75844W        W48170  16.132   3.671  11.170
75845W        W48171   2.314  18.267  14.579
75846W        W48172  39.934  38.869  14.553
75847W        W48173  30.856  26.984   0.032
75848W        W48174  15.596  28.854  10.446
75849W        W48175  40.806  37.920  13.480
75850W        W48176  10.247  20.084   1.442
75851W        W48177   3.239  34.405   0.719
75852W        W48178   4.688  30.253   3.140
75853W        W48179  31.509   3.310  12.410
75854W        W48180  22.415   2.438   0.806
75855W        W48181  27.498  20.196  12.553
75856W        W48182  27.093  23.034  13.313
75857W        W48183   8.956   0.777   4.483
75858W        W48184  32.901  40.094   4.717
75859W        W48185  34.311  41.709  12.039
75860W        W48186  16.574  27.673  11.052
75861W        W48187  44.316  31.513  13.340
75862W        W48188  11.749  28.919  13.965
75863W        W48189  22.263  17.035  14.918
75864W        W48190   3.903  16.686  11.258
75865W        W48191  32.412  30.457   1.952
75866W        W48192  20.812  35.354  14.848
75867W        W48193  34.387  44.812  11.694
75868W        W48194  23.669   6.992  14.559
75869W        W48195  39.714  20.223   2.940
75870W        W48196  17.573  13.799   0.137
75871W        W48197   4.940  12.001   2.336
75872W        W48198  10.673   8.537  12.925
75873W        W48199  28.574  22.750  12.085
75874W        W48200  12.332  41.223   4.447
75875W        W48201  22.001   7.834   1.520
75876W        W48202  24.527  19.744  13.972
75877W        W48203  20.026  26.856   5.041
75878W        W48204  27.993   4.173  10.170
75879W        W48205  41.273  32.459  11.061
75880W        W48206   6.467   5.283   3.633
75881W        W48207  35.231  38.832  11.081
75882W        W48208   1.050  21.473  13.022
75883W        W48209  11.207  44.322  12.522
75884W        W48210  24.553  18.114  12.959
75885W        W48211  35.409  39.766  14.532
75886W        W48212  27.089  25.497   0.821
75887W        W48213  37.940  29.139  14.754
75888W        W48214  32.704  37.413   3.188
75889W        W48215  10.451   2.180  12.740
75890W        W48216  43.772   0.248  11.550
75891W        W48217  28.947  41.561  11.965
75892W        W48218  22.962  38.361  10.452
75893W        W48219  39.747  37.399  13.298
75894W        W48220  28.165  14.493   0.881
75895W        W48221  16.149  22.612   3.825
75896W        W48222  16.859  21.553  13.390
75897W        W48223  25.767   0.690  12.521
75898W        W48224   2.279   7.309   2.109
75899W        W48225   1.898  22.544   4.168
75900W        W48226  11.367  37.478   1.420
75901W        W48227  43.209   2.436   2.196
75902W        W48228   9.775   1.574  10.434
75903W        W48229   3.799  10.889   3.735
75904W        W48230  15.663   5.906   0.824
75905W        W48231  14.630  37.114   4.318
75906W        W48232  30.858  43.381  10.394
75907W        W48233  12.607   4.042  12.317
75908W        W48234  13.568   3.137   0.017
75909W        W48235  17.988  32.715  10.376
75910W        W48236   0.955  25.426   3.374
75911W        W48237  39.625  34.971   4.133
75912W        W48238  26.669  37.891  14.745
75913W        W48239  19.012  11.843   0.493
75914W        W48240  40.536  34.801   2.882
75915W        W48241  16.390  39.874   2.288
75916W        W48242  25.461  20.727   3.697
75917W        W48243  38.861  14.198  11.564
75918W        W48244  40.528  37.530   4.747
75919W        W48245  10.416  42.381  11.184
75920W        W48246  42.304   6.397  10.843
75921W        W48247  34.537  22.680   0.411
75922W        W48248  12.348  12.385   3.340
75923W        W48249  34.629  34.871   4.114
75924W        W48250  37.359  43.761   0.742
75925W        W48251  27.196  25.249   1.506
75926W        W48252  41.651   0.574   0.083
75927W        W48253   3.185  29.774   4.866
75928W        W48254  28.669  16.710  14.516
75929W        W48255  35.848  24.430  10.725
75930W        W48256  25.450  24.042   1.013
75931W        W48257  17.584   9.701   3.424
75932W        W48258  22.700  25.324  14.445
75933W        W48259  41.997  31.037   4.812
75934W        W48260  37.044   2.171   1.924
75935W        W48261   2.647  37.646   4.196
75936W        W48262  16.900  33.930   4.795
75937W        W48263  20.685  25.082  12.876
75938W        W48264   4.012  23.307   9.885
75939W        W48265   0.674  21.210  14.962
75940W        W48266  15.276  20.304  11.872
75941W        W48267   1.858  29.454   0.547
75942W        W48268  25.904  25.102   0.678
75943W        W48269  21.080   4.324   0.453
75944W        W48270  36.632  43.992  13.771
75945W        W48271  42.581  10.091   4.040
75946W        W48272  34.874  33.018  13.836
75947W        W48273  17.069  30.330   0.075
75948W        W48274   9.266  42.337   1.714
75949W        W48275  35.060  34.077  13.107
75950W        W48276   3.867   3.836   3.811
75951W        W48277  39.795  33.087   2.203
75952W        W48278  12.270  11.750  13.421
75953W        W48279  34.549  18.827  14.355
75954W        W48280  27.664  23.212   4.170
75955W        W48281  12.410  30.045   4.532
75956W        W48282  21.695  35.106   0.305
75957W        W48283  21.212  15.063  11.530
75958W        W48284  19.630  10.286   2.326
75959W        W48285  42.844  16.960   9.979
75960W        W48286  27.494  28.184   4.574
75961W        W48287  25.646  16.595  11.420
75962W        W48288  21.707  41.066   1.342
75963W        W48289   4.254  21.138   3.907
75964W        W48290  23.726  15.349   2.240
75965W        W48291   3.086   0.193   2.601
75966W        W48292  35.085  26.917  14.759
75967W        W48293  44.305   1.298  14.859
75968W        W48294  36.874  29.200   1.257
75969W        W48295  42.752  19.734   2.288
75970W        W48296  16.891  23.396   2.490
75971W        W48297  21.960   9.665  11.530
75972W        W48298  43.085  23.661   2.267
75973W        W48299  41.548  10.337  12.916
75974W        W48300  19.255   8.803   1.410
75975W        W48301  43.693   3.659   1.687
75976W        W48302  15.082  34.582   3.243
75977W        W48303  44.248  38.364  12.411
75978W        W48304   1.677   4.298   0.697
75979W        W48305  39.373  44.209  14.195
75980W        W48306  44.399  28.464   0.440
75981W        W48307   9.391  40.409  11.681
75982W        W48308  37.818   6.680  12.111
75983W        W48309  26.935  18.200   2.920
75984W        W48310  16.783  36.126  13.977
75985W        W48311  11.204  39.356  12.635
75986W        W48312  31.642  41.344  12.407
75987W        W48313  39.913  17.920  11.878
75988W        W48314   3.698  32.895   1.409
75989W        W48315  34.511  19.231   3.658
75990W        W48316   4.232   0.225   4.166
75991W        W48317  38.454  26.036   0.004
75992W        W48318  10.431  40.453   2.686
75993W        W48319  37.299   9.822   4.186
75994W        W48320   1.060   4.738   4.123
75995W        W48321  12.284   8.413  10.567
75996W        W48322  15.034  41.929  13.605
75997W        W48323  26.690  26.201  12.959
75998W        W48324  29.504  34.909   4.058
75999W        W48325  38.396   9.739  12.010
76000W        W48326   2.595  19.636   1.866
76001W        W48327  33.031  11.632   3.815
76002W        W48328  12.363  10.603   4.917
76003W        W48329  42.918  14.068  12.101
76004W        W48330  19.030  35.216  13.675
76005W        W48331  29.841  42.388   1.090
76006W        W48332  31.691   9.189  12.063
76007W        W48333   9.746  30.623   4.185
76008W        W48334  18.703  40.016   0.781
76009W        W48335  13.388  30.190  12.388
76010W        W48336  20.604  30.518  11.159
76011W        W48337  12.780  14.808  14.773
76012W        W48338  44.039  23.328   2.573
76013W        W48339   9.149  17.279  11.638
76014W        W48340  16.064  14.428  13.946
76015W        W48341  11.601  35.423   0.698
76016W        W48342  23.531  35.779   1.984
76017W        W48343  24.152  34.898  10.377
76018W        W48344  35.773  18.797   4.474
76019W        W48345  39.044   6.688  12.981
76020W        W48346  29.830  22.057  11.217
76021W        W48347  30.162  18.103  11.104
76022W        W48348  27.430  25.650   4.408
76023W        W48349   9.791  17.040   1.573
76024W        W48350  33.928   5.267  13.023
76025W        W48351   3.394  12.028   4.117
76026W        W48352  26.713  29.120  13.389
76027W        W48353   6.903  14.651   0.408
76028W        W48354   5.482  41.829   4.043
76029W        W48355   7.272  19.635   2.002
76030W        W48356   0.292   3.053   5.017
76031W        W48357  37.482  42.544  10.723
76032W        W48358  15.390  41.780   0.321
76033W        W48359  39.729   9.497   3.126
76034W        W48360   2.150   4.373  13.389
76035W        W48361  39.916  36.937  13.950
76036W        W48362   5.177  20.950   1.441
76037W        W48363  43.015   3.839  14.984
76038W        W48364  21.321  35.345  14.941
76039W        W48365  13.216   1.197  10.707
76040W        W48366  17.575   0.969  10.734
76041W        W48367  15.813  39.376   3.864
76042W        W48368  41.873  14.778  11.188
76043W        W48369  25.643   7.835  10.732
76044W        W48370  44.767  22.975   0.967
76045W        W48371  24.339  15.547  12.057
76046W        W48372  20.022  20.116   4.887
76047W        W48373  20.106  14.019  14.776
76048W        W48374   5.927   6.446   0.671
76049W        W48375  24.161  43.936   0.681
76050W        W48376  42.998  13.671   2.027
76051W        W48377  30.866  29.159   2.286
76052W        W48378  17.054  43.460  13.984
76053W        W48379  12.892  31.476  11.565
76054W        W48380  34.844   2.290  10.714
76055W        W48381  37.532   8.814  12.575
76056W        W48382  27.540  37.978  10.690
76057W        W48383  35.662  10.894   3.178
76058W        W48384  40.391  38.285  12.565
76059W        W48385  11.707   6.856  13.624
76060W        W48386   5.488  29.122  13.771
76061W        W48387  25.746  23.139   4.461
76062W        W48388  41.531  19.264  12.882
76063W        W48389  24.732  12.756  11.340
76064W        W48390  16.673  34.352   4.576
76065W        W48391  33.078   9.332  14.822
76066W        W48392  26.439  31.033   3.327
76067W        W48393  12.000   7.244   2.223
76068W        W48394  15.855  20.474   0.505
76069W        W48395  21.979  37.367   4.922
76070W        W48396  40.127  18.835  10.755
76071W        W48397  21.196  30.353  12.911
76072W        W48398   3.708  21.748   2.177
76073W        W48399  14.194  34.190  11.025
76074W        W48400  31.448   8.415   2.824
76075W        W48401  37.977  41.420  11.716
76076W        W48402  18.864   7.779   1.623
76077W        W48403  36.530  29.619  12.569
76078W        W48404  29.667  27.431  14.946
76079W        W48405   7.151  26.149   3.642
76080W        W48406  41.971   0.204   1.387
76081W        W48407  35.504  10.576   4.964
76082W        W48408  21.324  21.251   3.657
76083W        W48409  10.802   4.184   3.171
76084W        W48410  40.273  41.290   1.047
76085W        W48411   9.236   8.772   4.060
76086W        W48412  33.889  36.388   0.781
76087W        W48413  25.761  25.064  14.349
76088W        W48414  30.079  27.752   9.667
76089W        W48415  25.556   7.629   4.137
76090W        W48416  40.598  24.141   3.734
76091W        W48417  38.846  12.103  12.535
76092W        W48418   8.843  35.365   4.088
76093W        W48419  36.802   8.633  13.864
76094W        W48420  12.355   5.170   2.336
76095W        W48421  11.098   2.659  11.368
76096W        W48422  36.376  23.892  14.878
76097W        W48423  41.816  24.703   4.429
76098W        W48424  43.249  33.021  13.815
76099W        W48425   8.087   4.308  10.826
76100W        W48426  24.095  20.286   2.855
76101W        W48427  27.910  33.562  10.308
76102W        W48428  35.420  39.268  11.812
76103W        W48429  35.543  33.464   9.855
76104W        W48430  27.090  43.841  14.901
76105W        W48431  41.299  18.221   1.661
76106W        W48432  11.875  21.028   1.980
76107W        W48433  22.609  40.292   3.444
76108W        W48434   3.983  32.414  13.362
76109W        W48435   1.351  22.665  11.618
76110W        W48436  20.100  29.869   2.715
76111W        W48437  31.361  31.087   4.060
76112W        W48438  12.609   9.780   1.691
76113W        W48439  26.074  20.299  10.644
76114W        W48440  34.113   8.711  12.496
76115W        W48441  36.651  38.165  11.908
76116W        W48442  19.293  37.440  11.068
76117W        W48443  19.299  20.791   1.024
76118W        W48444   3.554  41.453  13.650
76119W        W48445   9.353  17.792   4.698
76120W        W48446   4.228  30.224   0.580
76121W        W48447  43.284   1.659  13.969
76122W        W48448   4.286  44.578  11.910
76123W        W48449  28.188  33.576  10.741
76124W        W48450  20.253   4.860   3.521
76125W        W48451   8.404  28.066  13.507
76126W        W48452  32.378  28.459  12.473
76127W        W48453  14.589   7.682  13.907
76128W        W48454  12.079  40.523  13.846
76129W        W48455  30.168  21.034   0.787
76130W        W48456  35.028  24.402   4.613
76131W        W48457  21.273  13.902   0.318
76132W        W48458  40.818  36.521   2.909
76133W        W48459  34.979  17.155  11.213
76134W        W48460  25.547  22.780  12.626
76135W        W48461  43.479  23.617  12.621
76136W        W48462   3.065  16.002  13.950
76137W        W48463  24.813  11.861   2.670
76138W        W48464  22.316  18.065  14.854
76139W        W48465  33.378  33.398   1.162
76140W        W48466  34.042  41.299  12.862
76141W        W48467  19.349   8.344  14.352
76142W        W48468  16.550  29.014   4.456
76143W        W48469  15.657   8.658   3.020
76144W        W48470  22.464  14.214   4.168
76145W        W48471  33.235  18.314  14.516
76146W        W48472   6.484  18.002   1.445
76147W        W48473  38.010  32.583  11.858
76148W        W48474   4.750  40.827  13.888
76149W        W48475  34.731  24.069  12.347
76150W        W48476   8.395  44.519   4.281
76151W        W48477  29.100  16.954  14.448
76152W        W48478   0.165  19.579   0.565
76153W        W48479  35.311  41.034   2.803
76154W        W48480   8.937  27.479   1.452
76155W        W48481   2.751   8.780   3.161
76156W        W48482  36.227  19.605  11.650
76157W        W48483  39.854   4.338   4.654
76158W        W48484   3.992  17.255  12.493
76159W        W48485  30.628  14.006  13.858
76160W        W48486  32.687  31.498  13.521
76161W        W48487  26.696  41.763   1.373
76162W        W48488   5.367  40.714  12.611
76163W        W48489  21.118  14.568  10.651
76164W        W48490  27.646  38.550   4.233
76165W        W48491   9.811  42.041   3.176
76166W        W48492  34.388  26.544  11.535
76167W        W48493   2.687  34.008   0.364
76168W        W48494  10.152   3.844  11.798
76169W        W48495  16.293  39.569   2.745
76170W        W48496   0.285  10.301  14.332
76171W        W48497  10.075  16.123   2.393
76172W        W48498  22.328  28.568   1.634
76173W        W48499  31.124  34.908  11.082
76174W        W48500   0.538  27.937  13.883
76175W        W48501  32.906  11.577  13.979
76176W        W48502  33.442  28.564  13.797
76177W        W48503  25.691   9.926   0.384
76178W        W48504  14.268  38.480  11.676
76179W        W48505   4.871  34.957   2.634
76180W        W48506  41.368  38.366  13.998
76181W        W48507  36.563  17.548   0.517
76182W        W48508  24.585  26.449   4.179
76183W        W48509  44.539  36.407   0.374
76184W        W48510  43.447  31.160   1.663
76185W        W48511  43.984   3.317   4.127
76186W        W48512  31.972   7.212   3.682
76187W        W48513  34.867  16.237   0.871
76188W        W48514   9.817   4.785   1.362
76189W        W48515  21.237  43.502   1.366
76190W        W48516  44.491  40.926  12.636
76191W        W48517  37.009  23.276   2.811
76192W        W48518  32.141  37.437   0.368
76193W        W48519  27.169  16.142   1.896
76194W        W48520  26.034  12.186   0.296
76195W        W48521  36.470  34.131  14.607
76196W        W48522  10.795   3.659   3.191
76197W        W48523   3.844  28.886  10.785
76198W        W48524  37.933   5.182   3.728
76199W        W48525  36.134  17.809   2.743
76200W        W48526  37.848  44.981   4.143
76201W        W48527  14.253  23.436   0.703
76202W        W48528  41.664   5.143   3.618
76203W        W48529  44.420  28.235  12.516
76204W        W48530  31.942  43.677  13.493
76205W        W48531  16.683  44.258  11.602
76206W        W48532  42.928  36.797   2.553
76207W        W48533   7.210   4.843  11.505
76208W        W48534  11.073  12.230   4.252
76209W        W48535  38.052  11.150  10.893
76210W        W48536   8.687  37.477   2.905
76211W        W48537   3.929  41.091  12.887
76212W        W48538  21.564   9.340   1.198
76213W        W48539  11.285  11.820   2.903
76214W        W48540  29.458  19.699  10.616
76215W        W48541  39.178  39.334  11.442
76216W        W48542  16.207  34.438  11.590
76217W        W48543  37.292  32.960  13.046
76218W        W48544  39.518  18.132   4.305
76219W        W48545   3.194  38.903  13.991
76220W        W48546  41.740  11.388   2.947
76221W        W48547   4.853  13.659  13.916
76222W        W48548  11.352   1.665  13.574
76223W        W48549  24.247   8.209  10.947
76224W        W48550  12.181   9.555  12.801
76225W        W48551  41.550  23.638   4.689
76226W        W48552  32.403  30.337   2.968
76227W        W48553   3.156  37.429  11.607
76228W        W48554  37.419   3.462   4.446
76229W        W48555  32.053  36.882  10.694
76230W        W48556  20.062  10.258  13.011
76231W        W48557  43.828   2.337  11.487
76232W        W48558   8.319  15.279   3.291
76233W        W48559  12.254  41.977   0.472
76234W        W48560  36.838  12.371   4.099
76235W        W48561  38.243  29.071   2.305
76236W        W48562  12.368  21.316   1.263
76237W        W48563  22.959  38.197   4.102
76238W        W48564   0.704  27.484  11.564
76239W        W48565  38.904  19.409   2.209
76240W        W48566  21.205  33.934  11.903
76241W        W48567  38.389  25.985   4.895
76242W        W48568  12.601   2.683  11.592
76243W        W48569  33.998   1.054  14.759
76244W        W48570  44.303  25.913  10.760
76245W        W48571  14.362  38.543   0.559
76246W        W48572  23.941   3.350  13.517
76247W        W48573  28.893   8.445   3.678
76248W        W48574  19.672   8.916  14.060
76249W        W48575  18.099   0.666   2.205
76250W        W48576  15.727  42.035  14.346
76251W        W48577   4.775  15.313  14.460
76252W        W48578  26.136  42.003  10.512
76253W        W48579   0.335  22.245   5.016
76254W        W48580  28.835  44.240  12.964
76255W        W48581  22.243  18.159   2.249
76256W        W48582  34.392   5.649   2.193
76257W        W48583   0.880  23.757  13.560
76258W        W48584   7.380  39.504   1.586
76259W        W48585  26.877  32.860  14.519
76260W        W48586  37.817   1.005  12.068
76261W        W48587  27.226  26.960  11.602
76262W        W48588  29.968  39.282   2.607
76263W        W48589   8.147   7.342   1.359
76264W        W48590  29.082  18.196   3.402
76265W        W48591  23.068  20.833   5.015
76266W        W48592  40.437  27.069  11.693
76267W        W48593  15.567  17.051  13.484
76268W        W48594  17.525  14.838   0.339
76269W        W48595  39.884  27.925   3.201
76270W        W48596  27.717  11.691   0.018
76271W        W48597  37.320  11.688  11.044
76272W        W48598  34.465   9.632  13.425
76273W        W48599  21.601   9.053  13.403
76274W        W48600  38.329  17.874  10.652
76275W        W48601  32.746   4.391  13.616
76276W        W48602  36.072  20.768   0.137
76277W        W48603  27.314  24.288   4.874
76278W        W48604   1.445  32.360   3.477
76279W        W48605  16.018  17.814  11.388
76280W        W48606   3.369   9.713   4.523
76281W        W48607  13.720  26.950   0.340
76282W        W48608  11.005   7.716  14.109
76283W        W48609   5.436  29.934   1.830
76284W        W48610  44.763  31.162  12.043
76285W        W48611  11.738  39.401  14.909
76286W        W48612  11.225  13.243  14.331
76287W        W48613  38.863  25.722  13.361
76288W        W48614  38.063   2.418   0.380
76289W        W48615  10.259  30.827   4.213
76290W        W48616  22.776  33.553  14.652
76291W        W48617   1.622  11.660   0.384
76292W        W48618  42.599  16.361  14.436
76293W        W48619   4.038  23.170  11.357
76294W        W48620  40.782  20.311   1.871
76295W        W48621  14.146  11.810   1.412
76296W        W48622  28.018  29.137   0.127
76297W        W48623  13.246  32.225   4.964
76298W        W48624   2.346  11.102   4.177
76299W        W48625  20.311   4.128   2.847
76300W        W48626  39.683   1.431   4.446
76301W        W48627  12.360  16.217  10.583
76302W        W48628  35.875  39.589   2.353
76303W        W48629  35.181  13.575  11.623
76304W        W48630  17.140  40.030  11.012
76305W        W48631  41.211   1.666   1.198
76306W        W48632   8.767  28.114   2.256
76307W        W48633  22.255   8.746  11.962
76308W        W48634   6.415   4.378   0.851
76309W        W48635  37.410  15.164  13.750
76310W        W48636  38.565  30.079  10.762
76311W        W48637  16.211  11.328   2.773
76312W        W48638  33.916  35.257   5.397
76313W        W48639  44.737  42.980  10.427
76314W        W48640   1.740  24.003  12.187
76315W        W48641  15.230  40.645   2.089
76316W        W48642  35.102  13.660  14.005
76317W        W48643  25.980  29.654   3.765
76318W        W48644   5.044  20.818   4.384
76319W        W48645  44.361   5.187   3.527
76320W        W48646  40.765  30.701  12.165
76321W        W48647  42.511   5.331   2.212
76322W        W48648  38.277   5.372  14.568
76323W        W48649   8.692   0.888  14.901
76324W        W48650  23.013  38.864  13.741
76325W        W48651  11.968  28.343   4.626
76326W        W48652  26.745  44.743  12.112
76327W        W48653  34.075  14.798   0.059
76328W        W48654   6.290  25.650   4.597
76329W        W48655   5.833   0.116  11.423
76330W        W48656  25.508  20.936   2.380
76331W        W48657   4.304  10.288  12.562
76332W        W48658  24.013  22.191  13.181
76333W        W48659  15.231  21.567  11.012
76334W        W48660  38.493  22.981   1.819
76335W        W48661  32.857   2.979  11.084
76336W        W48662  44.048  41.053  10.414
76337W        W48663  12.066   2.548   3.131
76338W        W48664   5.222  34.488   5.095
76339W        W48665  17.347  37.842  13.072
76340W        W48666  25.525   2.497  12.832
76341W        W48667  23.974   7.349   3.633
76342W        W48668  39.266   7.788   3.697
76343W        W48669  25.379  15.023   0.643
76344W        W48670  29.637  38.582   3.317
76345W        W48671  25.255   1.825  12.526
76346W        W48672   7.701  30.894  12.403
76347W        W48673  34.888  24.619  14.984
76348W        W48674  41.569   0.458   4.065
76349W        W48675   7.632   1.181   3.933
76350W        W48676  23.031  25.130   0.993
76351W        W48677  23.968  36.927  10.600
76352W        W48678   5.778  27.012  11.929
76353W        W48679  27.947  43.943   1.652
76354W        W48680   4.894   2.000   1.831
76355W        W48681  10.772  29.705  13.537
76356W        W48682  36.496  32.449   0.525
76357W        W48683  27.750  29.783  14.383
76358W        W48684  26.901   6.684   1.444
76359W        W48685  43.529  42.924  11.106
76360W        W48686   9.503  15.012  14.879
76361W        W48687  24.805  13.768   4.446
76362W        W48688  27.919  33.150   4.753
76363W        W48689   0.726  23.082   9.821
76364W        W48690  35.129  34.909   5.020
76365W        W48691  17.655  40.516   2.138
76366W        W48692  27.677   4.772  11.747
76367W        W48693   3.700  22.232   1.252
76368W        W48694  15.620  36.410   1.357
76369W        W48695  34.062   4.815  14.744
76370W        W48696  32.371  20.774   1.447
76371W        W48697  19.241  41.344  11.081
76372W        W48698  22.246  30.038  10.456
76373W        W48699  34.880  29.799   3.677
76374W        W48700  44.947  34.638  11.787
76375W        W48701  18.052  42.329  14.370
76376W        W48702  43.226  22.973   1.394
76377W        W48703  10.861  33.208   0.381
76378W        W48704  29.038  11.637   2.280
76379W        W48705  18.682  17.295  13.887
76380W        W48706  14.098  29.535   3.599
76381W        W48707  28.555  30.226  14.928
76382W        W48708  28.833  14.073  11.616
76383W        W48709   3.975  10.823  13.372
76384W        W48710  21.706   8.746   3.686
76385W        W48711  21.526   7.694   3.267
76386W        W48712  20.694  26.944   0.905
76387W        W48713  44.193  36.111   2.199
76388W        W48714  18.685  29.498  13.729
76389W        W48715  41.414  20.809   3.021
76390W        W48716  44.216  39.034  13.509
76391W        W48717   3.813  23.290  12.624
76392W        W48718  21.995   0.973  12.979
76393W        W48719  15.592  22.150  13.845
76394W        W48720  20.967  34.190  14.109
76395W        W48721  38.304   9.994  11.567
76396W        W48722   0.114  27.129   4.881
76397W        W48723  28.501  26.360   3.095
76398W        W48724   1.108  10.906  14.829
76399W        W48725  26.332  15.978   4.328
76400W        W48726  20.293  24.070  14.224
76401W        W48727  31.983   1.969  13.755
76402W        W48728  24.221  37.344   9.710
76403W        W48729  22.251   6.788  13.999
76404W        W48730  23.497  21.572  13.830
76405W        W48731  12.292  24.467   1.425
76406W        W48732  28.373  44.269   3.421
76407W        W48733  23.113  17.184   1.313
76408W        W48734  35.992  40.651  11.592
76409W        W48735  12.374  13.888   2.330
76410W        W48736   7.328  44.686  10.440
76411W        W48737   7.305  40.123  12.383
76412W        W48738  37.895   4.569   2.302
76413W        W48739  15.480  41.211  10.739
76414W        W48740   4.410  31.142  11.497
76415W        W48741  43.517  15.964   2.331
76416W        W48742   2.950  11.277   2.354
76417W        W48743  24.403  10.868  12.648
76418W        W48744  11.545  33.562   5.015
76419W        W48745  41.916   4.193   0.721
76420W        W48746  18.760  42.506   2.505
76421W        W48747  34.045  43.236   1.907
76422W        W48748  35.439  25.451   0.220
76423W        W48749  42.045  36.062   3.018
76424W        W48750   7.461  25.572  10.639
76425W        W48751  21.329   8.471  12.827
76426W        W48752  12.689  28.867  10.955
76427W        W48753   7.862   4.827   1.701
76428W        W48754  33.961   1.329  14.310
76429W        W48755  29.045   4.711   3.058
76430W        W48756  42.267  17.528   2.889
76431W        W48757   7.160  39.858  13.326
76432W        W48758  30.656   2.196  11.026
76433W        W48759  41.874  42.255   1.390
76434W        W48760   1.779   4.418   9.739
76435W        W48761  15.476  34.258   3.122
76436W        W48762   2.795  31.817  11.161
76437W        W48763   9.455  27.701   2.644
76438W        W48764  14.331  35.886   5.471
76439W        W48765  29.864  28.190  10.773
76440W        W48766   0.757   1.856  12.350
76441W        W48767   0.819   8.462  13.831
76442W        W48768   6.652  13.061  11.201
76443W        W48769  12.699   2.351   3.767
76444W        W48770  29.534  35.881   1.764
76445W        W48771   0.448   8.905   0.646
76446W        W48772  27.963   0.733  10.482
76447W        W48773  16.182  19.701  14.221
76448W        W48774   9.266   3.513  14.002
76449W        W48775  37.038  28.984   3.502
76450W        W48776  40.379  23.324   3.267
76451W        W48777  22.598  11.280  10.651
76452W        W48778  23.081  34.997  11.615
76453W        W48779  10.847  22.619  14.599
76454W        W48780  32.939  31.707  12.106
76455W        W48781   6.358  15.887  11.293
76456W        W48782  10.955  34.484  14.736
76457W        W48783  24.458  43.558  12.575
76458W        W48784  31.111   0.955  10.732
76459W        W48785   9.077  14.842  12.959
76460W        W48786  44.022   7.149  12.494
76461W        W48787  19.759  29.680   4.378
76462W        W48788  40.178  42.860   3.697
76463W        W48789  24.092  31.600   4.102
76464W        W48790  14.211  24.599   3.309
76465W        W48791  27.738  37.336   1.333
76466W        W48792   2.747  18.499  14.836
76467W        W48793  25.731  44.490   4.037
76468W        W48794  10.358  17.291  13.342
76469W        W48795  44.387   2.063  13.226
76470W        W48796   6.800  12.079   4.625
76471W        W48797   2.549  17.583   3.811
76472W        W48798  26.239  32.293  10.968
76473W        W48799  41.253   9.217  11.177
76474W        W48800   0.972  17.370  11.363
76475W        W48801  39.563  39.454  11.904
76476W        W48802  28.385   4.358  12.020
76477W        W48803  30.044  14.930   4.063
76478W        W48804  42.345  19.713  13.819
76479W        W48805  33.895  18.952  12.638
76480W        W48806  16.498   1.975  11.513
76481W        W48807  39.551  16.764  14.835
76482W        W48808   1.765  25.367   3.718
76483W        W48809  24.044  40.777  13.049
76484W        W48810  30.600   8.005  13.574
76485W        W48811  19.178  42.231   2.826
76486W        W48812   0.346  31.700  14.253
76487W        W48813  15.698  30.691   1.208
76488W        W48814  29.441   3.965  12.516
76489W        W48815  42.064   7.466   1.769
76490W        W48816  35.310  43.717  14.604
76491W        W48817  13.318   8.388  11.039
76492W        W48818  38.025   0.923   0.164
76493W        W48819   0.188  16.607  12.612
76494W        W48820  35.050  37.803  14.866
76495W        W48821   7.181  44.794   2.397
76496W        W48822  27.705  38.121  12.060
76497W        W48823  26.098  18.684   2.745
76498W        W48824   7.458  25.473   2.414
76499W        W48825  38.905  24.099  10.294
76500W        W48826  21.211   1.700   0.910
76501W        W48827   5.263   5.952   5.004
76502W        W48828  18.133  13.592   0.301
76503W        W48829   7.805  21.208  10.104
76504W        W48830  19.717  26.899   2.000
76505W        W48831  14.595  31.802   1.194
76506W        W48832   4.226  40.249   3.471
76507W        W48833  21.679  36.368   2.938
76508W        W48834   3.543   9.013   5.540
76509W        W48835   9.811   4.135  12.553
76510W        W48836  41.410  31.154  12.296
76511W        W48837  44.492  26.148  13.523
76512W        W48838  21.441   0.267  11.811
76513W        W48839  16.017  36.817   2.856
76514W        W48840  38.761  27.103  13.748
76515W        W48841  40.694  42.413  11.214
76516W        W48842  31.457  11.684   2.662
76517W        W48843  37.906  31.524   4.747
76518W        W48844  43.336  26.023  13.092
76519W        W48845  13.256  34.517  14.369
76520W        W48846  37.205   7.274  12.818
76521W        W48847  10.916  18.801   0.257
76522W        W48848  43.757  11.391  12.204
76523W        W48849  33.644   7.755  13.403
76524W        W48850  11.536   4.244   2.494
76525W        W48851  24.471  21.059  14.476
76526W        W48852  20.020  43.745  13.467
76527W        W48853  41.570  42.015  10.870
76528W        W48854   6.653  29.385   3.657
76529W        W48855  29.459  38.830  13.076
76530W        W48856  20.559   5.154   2.876
76531W        W48857  33.949  20.293  10.786
76532W        W48858  18.338  24.670   4.584
76533W        W48859  14.833   0.043   3.718
76534W        W48860   1.165  32.531   0.120
76535W        W48861  19.995   8.611   5.041
76536W        W48862   7.895   1.804  10.626
76537W        W48863  41.962  29.649   0.852
76538W        W48864  18.087  42.335  13.552
76539W        W48865  40.211  27.987   1.369
76540W        W48866  11.804  19.425  11.235
76541W        W48867  17.080  24.155  12.744
76542W        W48868   2.409  28.383   2.016
76543W        W48869  26.626  14.606  13.921
76544W        W48870   1.424   1.437   3.944
76545W        W48871  21.402  27.447   4.072
76546W        W48872  32.146  17.709  11.936
76547W        W48873  22.703  10.346   2.401
76548W        W48874  29.642  24.695   0.938
76549W        W48875  36.529  29.441  11.644
76550W        W48876  13.828  22.031  12.366
76551W        W48877  31.536   2.002   2.355
76552W        W48878  11.809  14.734   1.738
76553W        W48879  16.586  36.103   1.375
76554W        W48880   2.314  35.550   3.286
76555W        W48881   4.354  22.337   3.361
76556W        W48882  29.981  36.912  10.756
76557W        W48883   1.229  13.787  11.820
76558W        W48884  10.390  18.455  12.145
76559W        W48885  10.782  22.344   2.834
76560W        W48886  20.737   8.902   3.101
76561W        W48887  25.116  24.119  10.689
76562W        W48888  23.622   2.265   3.644
76563W        W48889  36.217  21.786   2.372
76564W        W48890   6.281   4.049  12.973
76565W        W48891  15.657  30.171  12.048
76566W        W48892  38.550  10.847   2.454
76567W        W48893  20.986  24.669  12.957
76568W        W48894  36.581  18.675   1.184
76569W        W48895  10.193  33.442   4.528
76570W        W48896  17.470  43.995   4.059
76571W        W48897  22.450  15.406   0.340
76572W        W48898  13.085  32.000   4.508
76573W        W48899  25.656   9.034   0.660
76574W        W48900  32.990  37.960   1.830
76575W        W48901   1.142  19.610  14.384
76576W        W48902   2.679  28.659   2.881
76577W        W48903  44.090  42.658  12.569
76578W        W48904   9.780   4.303   1.140
76579W        W48905   5.236   8.915   2.596
76580W        W48906  38.500  28.061  12.432
76581W        W48907  18.192   8.413   0.883
76582W        W48908  31.543  17.286  11.158
76583W        W48909  20.208  24.547  14.063
76584W        W48910  21.321   1.913   2.712
76585W        W48911  36.692   7.277  12.708
76586W        W48912  34.194  36.324   5.080
76587W        W48913  12.671  36.516  12.849
76588W        W48914  14.608  26.262  13.596
76589W        W48915  34.306  40.286   1.422
76590W        W48916   2.783  23.025   4.212
76591W        W48917  11.280  24.737  11.171
76592W        W48918  17.539   3.035  12.603
76593W        W48919   0.823  24.210  14.493
76594W        W48920  26.792  40.990  13.060
76595W        W48921   1.831   1.366   0.134
76596W        W48922  19.534  28.054  12.597
76597W        W48923   7.297  33.012  10.795
76598W        W48924  10.791  28.509   0.400
76599W        W48925  32.677  15.112  10.671
76600W        W48926  15.225  44.245  14.335
76601W        W48927  27.575  25.103   1.191
76602W        W48928   0.665  34.674   1.655
76603W        W48929  36.398  38.844  12.967
76604W        W48930  17.139   5.526   4.397
76605W        W48931   3.723  38.137  14.343
76606W        W48932  37.528  12.866   3.802
76607W        W48933  23.687  23.493  14.929
76608W        W48934   8.007  26.888   4.957
76609W        W48935  31.926  14.795   2.673
76610W        W48936  25.994  12.757   2.326
76611W        W48937   2.614  13.203   2.277
76612W        W48938  42.517   1.381  13.989
76613W        W48939  37.565  42.788  13.033
76614W        W48940   2.250  36.593   3.706
76615W        W48941  19.108  27.762  12.487
76616W        W48942  18.041  34.067  14.796
76617W        W48943  31.902  28.529   1.469
76618W        W48944   5.432  21.993  14.278
76619W        W48945   6.235  34.047   2.657
76620W        W48946  15.139  40.694   1.577
76621W        W48947  15.078  27.257  14.006
76622W        W48948  13.446  19.537  12.008
76623W        W48949  11.049   7.101  14.803
76624W        W48950  30.130   7.389  13.510
76625W        W48951  27.516  31.792  11.372
76626W        W48952  12.619   4.386   3.862
76627W        W48953  13.719  44.056  13.609
76628W        W48954  21.176  31.676  13.477
76629W        W48955  22.726  24.570   1.208
76630W        W48956  34.529  27.323  12.056
76631W        W48957  30.246   2.596  14.995
76632W        W48958  12.454  34.163  11.006
76633W        W48959  37.695   6.365  13.014
76634W        W48960  17.207  15.622   1.857
76635W        W48961  22.499  27.290   2.781
76636W        W48962   5.537  13.323   1.398
76637W        W48963   6.773  26.986  13.071
76638W        W48964  19.262  25.713  12.085
76639W        W48965  10.791  30.229  14.395
76640W        W48966  33.842  25.775   0.339
76641W        W48967  26.690  42.497   0.907
76642W        W48968   7.616  20.094   2.150
76643W        W48969  22.514  39.859  14.410
76644W        W48970  19.782  42.711   3.587
76645W        W48971  43.328  37.765   3.743
76646W        W48972   0.259   2.783   1.284
76647W        W48973  15.983  29.246  12.848
76648W        W48974  43.935  33.984  10.475
76649W        W48975   2.262  30.348  11.997
76650W        W48976   5.862   0.325  14.961
76651W        W48977  26.907   8.293  12.916
76652W        W48978  31.079  44.919   3.150
76653W        W48979   3.994  36.980   0.905
76654W        W48980  40.310  24.166  13.047
76655W        W48981  22.451  37.627  11.642
76656W        W48982   8.458  18.170   0.783
76657W        W48983  18.594  27.206   4.370
76658W        W48984  21.244  18.030  10.622
76659W        W48985  38.548   1.506   3.683
76660W        W48986   8.234  14.105   0.794
76661W        W48987  28.856   0.994   1.148
76662W        W48988   0.899  36.301   2.328
76663W        W48989   2.008  26.093   4.104
76664W        W48990  31.663  33.898   0.768
76665W        W48991   9.262  24.776   3.396
76666W        W48992  35.954  16.298   1.786
76667W        W48993  11.817   0.755  10.749
76668W        W48994  29.699   3.426   4.560
76669W        W48995  35.965  24.706  13.985
76670W        W48996   9.632  18.767   0.263
76671W        W48997  14.362  21.497   1.761
76672W        W48998  15.527   9.473  14.453
76673W        W48999  27.264  42.481  13.085
76674W        W49000  35.076  27.104   4.545
76675W        W49001  21.718  27.667  13.004
76676W        W49002  12.559  29.270  13.395
76677W        W49003  21.595   8.507   4.128
76678W        W49004  24.596   7.649   4.271
76679W        W49005  32.385  20.814  11.129
76680W        W49006   0.751  33.821   3.689
76681W        W49007  17.720  21.489  11.947
76682W        W49008  13.666  22.276   1.794
76683W        W49009  17.269  40.378   3.890
76684W        W49010   5.023  21.668  14.413
76685W        W49011  43.213  16.750  13.847
76686W        W49012  37.104  18.503   4.558
76687W        W49013  20.628  18.860  12.112
76688W        W49014  13.379  33.866   4.753
76689W        W49015   6.731   6.622  14.463
76690W        W49016   6.353   1.222  13.891
76691W        W49017   5.344  19.381  14.695
76692W        W49018   5.769   7.681   4.436
76693W        W49019  33.666  42.820  14.347
76694W        W49020  30.715   4.749  12.499
76695W        W49021  11.830  17.586   2.766
76696W        W49022  27.050   0.826   1.756
76697W        W49023  20.099  28.104  14.084
76698W        W49024  20.385  33.504   4.588
76699W        W49025  22.211  13.560  13.390
76700W        W49026  20.665  40.828  14.047
76701W        W49027  24.036  11.584  10.657
76702W        W49028  41.767  30.711  10.352
76703W        W49029  21.636  23.073  13.479
76704W        W49030   8.600  21.114   2.706
76705W        W49031  28.226   1.216   1.935
76706W        W49032  32.352   3.241   5.037
76707W        W49033  26.110  29.925   2.793
76708W        W49034  24.146  39.317   1.442
76709W        W49035  23.238   1.527  12.049
76710W        W49036  37.401  34.885   1.336
76711W        W49037   1.940   1.552   4.641
76712W        W49038  18.326  23.407  13.868
76713W        W49039  16.568  29.935  13.391
76714W        W49040  38.483   3.755  11.247
76715W        W49041  39.528  28.154  13.427
76716W        W49042  19.502  11.290  11.981
76717W        W49043  27.375   2.261  10.979
76718W        W49044   4.462   0.478  12.463
76719W        W49045  18.467  20.611  11.541
76720W        W49046  22.556  37.008  10.308
76721W        W49047  13.650  18.741  14.510
76722W        W49048  20.576  42.838   1.693
76723W        W49049  21.617  16.363  11.351
76724W        W49050  37.518  24.212   1.100
76725W        W49051   1.461  39.464  10.456
76726W        W49052  31.166  37.987   4.673
76727W        W49053  13.627  15.758  13.762
76728W        W49054   0.346   4.360  13.353
76729W        W49055  19.136  15.330   1.300
76730W        W49056  37.373  36.905   1.615
76731W        W49057  28.667  18.265  11.896
76732W        W49058   6.512   7.525   2.888
76733W        W49059  39.433  34.971   2.275
76734W        W49060  41.889  20.093   3.717
76735W        W49061   6.960   6.384   0.444
76736W        W49062   6.455  26.636   4.538
76737W        W49063  28.936  43.294   0.876
76738W        W49064  37.087  35.662   3.657
76739W        W49065  10.442   4.739   4.586
76740W        W49066  22.817   4.634  10.703
76741W        W49067  16.785  17.653   2.403
76742W        W49068  10.126  25.698   2.341
76743W        W49069   4.038  25.635  13.793
76744W        W49070  37.824   2.248  14.397
76745W        W49071  27.417  25.688   1.195
76746W        W49072  19.165  21.798  14.857
76747W        W49073  29.420  38.951   4.007
76748W        W49074  12.798  27.527  11.107
76749W        W49075  10.362   8.217  10.944
76750W        W49076  24.539  26.198  13.798
76751W        W49077   3.821  27.196  14.429
76752W        W49078   2.444   2.201  14.991
76753W        W49079  31.768   3.929  14.728
76754W        W49080  38.358  38.393   2.640
76755W        W49081  27.084  40.303  11.130
76756W        W49082  33.100  33.175   3.235
76757W        W49083  31.693  29.131  12.424
76758W        W49084  12.892   6.226  11.919
76759W        W49085   7.245  25.512   1.940
76760W        W49086  12.453  43.715  11.014
76761W        W49087  11.522   2.018   0.022
76762W        W49088  27.218  29.756   0.237
76763W        W49089  13.159  36.895   1.135
76764W        W49090  14.232  16.262  10.724
76765W        W49091  14.915  16.996   4.600
76766W        W49092  14.222   8.114   0.627
76767W        W49093   4.761  11.876   4.172
76768W        W49094  12.920  40.001   1.530
76769W        W49095  21.841  35.515   0.865
76770W        W49096   9.513   7.199  13.345
76771W        W49097  38.565   6.021  13.377
76772W        W49098  44.664  28.086  10.156
76773W        W49099  25.265   0.349   1.374
76774W        W49100  30.546  37.891  13.314
76775W        W49101  25.808  17.050  11.199
76776W        W49102  31.055   5.710   1.338
76777W        W49103  41.037  16.232  11.946
76778W        W49104  43.421  19.991   0.455
76779W        W49105  15.348  11.177  10.548
76780W        W49106  33.871  11.082  10.658
76781W        W49107  19.425  39.122   3.725
76782W        W49108   2.501  25.909  13.415
76783W        W49109  44.070  27.635   1.958
76784W        W49110  14.006   3.481   1.242
76785W        W49111  31.668   2.174   4.172
76786W        W49112  35.941  20.515   4.369
76787W        W49113   6.227   6.832   1.334
76788W        W49114  15.796  25.540  14.806
76789W        W49115  41.661  19.654  14.556
76790W        W49116  34.389  26.969   1.426
76791W        W49117  32.214  20.056  11.578
76792W        W49118  14.954  24.704   2.812
76793W        W49119   0.059  24.937  14.776
76794W        W49120  19.067  27.223   0.959
76795W        W49121  33.597   4.022  12.915
76796W        W49122  16.170  35.944   2.661
76797W        W49123  33.526  19.541  13.626
76798W        W49124  13.613  26.534   5.556
76799W        W49125  12.000  13.897   3.695
76800W        W49126  40.253  16.886  12.231
76801W        W49127  39.287  10.606   3.658
76802W        W49128  28.175  15.753   5.132
76803W        W49129  29.011  24.892  10.091
76804W        W49130  11.922  28.405   2.030
76805W        W49131   1.735  39.785   2.450
76806W        W49132   4.931  24.918   0.387
76807W        W49133  21.755  21.561  13.976
76808W        W49134  33.669  15.749  12.572
76809W        W49135  23.192   4.392   4.559
76810W        W49136  42.934  21.495   3.625
76811W        W49137  14.288   4.382   4.028
76812W        W49138  44.534  34.331  12.077
76813W        W49139  15.542  15.743   1.378
76814W        W49140  11.433   2.965   2.447
76815W        W49141   9.920  19.698  13.486
76816W        W49142   3.011   1.469   5.431
76817W        W49143  26.539   6.508   3.749
76818W        W49144  34.957  12.762  10.701
76819W        W49145  21.015  11.554  11.065
76820W        W49146   9.891  28.411   0.402
76821W        W49147  34.331   9.838  11.306
76822W        W49148  37.086  33.450  11.509
76823W        W49149  10.417   2.329   0.799
76824W        W49150   7.206  27.712  14.965
76825W        W49151   0.266   5.417  14.314
76826W        W49152  13.245  28.333  10.795
76827W        W49153   1.673  24.034   0.829
76828W        W49154   2.965  34.639  10.759
76829W        W49155   9.398  44.970   0.433
76830W        W49156  16.377  17.075   2.839
76831W        W49157   2.596  31.564  10.626
76832W        W49158   7.630  44.526   1.675
76833W        W49159   5.693  34.146  14.346
76834W        W49160  17.896  43.828  12.833
76835W        W49161  25.510  13.436   3.199
76836W        W49162  35.519  37.591   2.790
76837W        W49163  42.161   9.919  10.044
76838W        W49164   1.019  26.990   4.149
76839W        W49165  41.118  15.647   3.586
76840W        W49166  30.645   0.177  13.098
76841W        W49167  38.715   1.431   0.951
76842W        W49168  43.109  43.156   2.149
76843W        W49169  44.918  19.607   3.736
76844W        W49170  28.165  16.535  10.274
76845W        W49171  21.456   2.406  14.286
76846W        W49172  18.540  33.455  10.157
76847W        W49173  18.186  38.706  11.682
76848W        W49174  36.201  26.284   4.253
76849W        W49175  19.303   6.174   3.676
76850W        W49176  39.537   2.645  13.811
76851W        W49177  39.738  12.185  11.131
76852W        W49178  39.820  16.268  10.664
76853W        W49179   7.201  31.031   1.827
76854W        W49180  10.433   8.996   3.005
76855W        W49181   2.959  33.089   2.515
76856W        W49182  39.778   0.963   4.214
76857W        W49183  17.166  17.712  13.300
76858W        W49184  12.808  36.423   3.124
76859W        W49185  33.983  14.870   1.043
76860W        W49186  32.518  42.450   0.027
76861W        W49187   4.633  44.372   0.330
76862W        W49188  36.161   3.973  14.642
76863W        W49189  28.548  19.611   0.095
76864W        W49190  44.358  31.919  13.003
76865W        W49191  35.592   3.452   0.881
76866W        W49192  13.248   4.522  13.844
76867W        W49193  35.416  12.553  11.187
76868W        W49194  14.534  17.264   3.675
76869W        W49195  19.856  10.466   3.390
76870W        W49196  20.901  28.629   1.847
76871W        W49197   5.788  33.888  10.652
76872W        W49198   0.240   3.439   3.802
76873W        W49199  23.171  40.286   1.209
76874W        W49200  27.037   5.940  14.760
76875W        W49201   6.229  11.833   3.124
76876W        W49202  40.498  41.949   4.664
76877W        W49203  26.549  40.358  12.838
76878W        W49204  10.038  11.072   2.430
76879W        W49205  26.416  16.566   2.977
76880W        W49206  35.999  15.864  13.588
76881W        W49207  22.472  20.018   2.022
76882W        W49208  14.570  40.970  11.235
76883W        W49209  17.608  23.462   3.214
76884W        W49210  15.100   6.854   1.398
76885W        W49211  14.745   4.307  12.282
76886W        W49212   6.315   8.146   3.759
76887W        W49213  36.889  16.555   3.729
76888W        W49214  21.212  32.350   3.755
76889W        W49215  27.729  34.215   2.392
76890W        W49216   8.914  27.908   4.688
76891W        W49217   8.226  11.893  14.710
76892W        W49218  22.519   1.936  14.829
76893W        W49219  39.286  29.542   0.870
76894W        W49220   4.008  22.794  14.304
76895W        W49221  32.121  11.738   4.128
76896W        W49222  14.307  37.494  12.162
76897W        W49223  12.139  27.493   4.627
76898W        W49224   5.294  30.565  12.540
76899W        W49225  26.118  11.711  12.456
76900W        W49226  27.381   5.116  11.515
76901W        W49227  14.123  10.061  13.743
76902W        W49228  32.281  32.511   3.255
76903W        W49229   9.482   6.941   0.350
76904W        W49230   7.339  20.220   4.240
76905W        W49231  20.424  31.440   1.945
76906W        W49232  29.251  17.256  10.704
76907W        W49233   7.914  42.274   1.019
76908W        W49234  19.129  14.389  11.524
76909W        W49235  15.966  24.044   4.578
76910W        W49236   7.688  30.812   1.832
76911W        W49237  22.167  26.012  11.517
76912W        W49238  40.351  32.932  10.625
76913W        W49239  11.870  25.772  12.332
76914W        W49240  42.067  33.571   3.161
76915W        W49241  41.948  42.284  10.644
76916W        W49242  26.424  19.823  12.931
76917W        W49243  11.784  44.249   3.263
76918W        W49244   4.544  26.551   1.957
76919W        W49245  24.585   3.646   3.211
76920W        W49246  15.015  24.211   4.517
76921W        W49247   8.827  24.259   4.670
76922W        W49248  30.914  10.132   4.901
76923W        W49249  23.233  38.138  12.620
76924W        W49250   4.162  38.309  12.175
76925W        W49251   2.721  21.057   4.557
76926W        W49252  40.485   1.470   2.175
76927W        W49253  11.482  42.991   0.558
76928W        W49254  25.142   7.683  11.092
76929W        W49255  29.606  30.681  11.612
76930W        W49256  34.565  12.229   2.163
76931W        W49257  30.534   7.339   2.650
76932W        W49258  38.597  44.195   4.467
76933W        W49259  33.307  20.359   0.191
76934W        W49260  27.225  23.388  12.390
76935W        W49261  36.663  34.131   4.940
76936W        W49262  39.564  34.626  12.934
76937W        W49263   3.717  15.989   2.040
76938W        W49264  28.584   1.485  12.484
76939W        W49265   3.907  15.205   0.953
76940W        W49266  40.449  13.876  12.557
76941W        W49267  34.819   8.181  12.677
76942W        W49268  33.698  24.175  13.415
76943W        W49269  29.062   5.910   4.635
76944W        W49270  25.459   0.508  12.928
76945W        W49271   9.194  32.649   2.388
76946W        W49272   6.168  30.780   4.116
76947W        W49273  12.413  32.126  10.928
76948W        W49274  31.897  14.359  12.944
76949W        W49275  13.802   8.596  11.067
76950W        W49276   3.353  14.862   3.764
76951W        W49277  24.635  30.986   0.153
76952W        W49278  41.086  26.086  13.472
76953W        W49279  36.769   9.816   1.784
76954W        W49280  15.761  33.600  13.306
76955W        W49281   0.314  31.098   1.499
76956W        W49282  16.347  14.239   4.456
76957W        W49283  21.445   0.756   1.267
76958W        W49284   5.965  20.213   3.160
76959W        W49285   8.837  21.578   2.786
76960W        W49286  32.577  37.649  13.939
76961W        W49287  32.362  32.696  12.949
76962W        W49288  40.067  27.505   0.017
76963W        W49289   0.901   5.243   4.720
76964W        W49290  35.102  31.547  10.733
76965W        W49291   1.853  30.536  11.042
76966W        W49292   8.698  42.019  14.661
76967W        W49293  14.822  23.159   0.921
76968W        W49294  18.382   5.304   0.795
76969W        W49295  37.427  13.185   4.171
76970W        W49296  32.052  39.270   0.381
76971W        W49297  43.089  42.320   2.237
76972W        W49298  37.571  31.577  11.377
76973W        W49299  15.342  31.438   1.806
76974W        W49300  42.080   6.746   0.313
76975W        W49301  12.693   8.790  11.508
76976W        W49302  43.488  11.876  13.797
76977W        W49303   7.872   1.189  13.254
76978W        W49304  37.711  10.177   1.780
76979W        W49305  12.825  10.399   3.158
76980W        W49306   9.833  28.174  12.591
76981W        W49307  16.354  10.442   4.639
76982W        W49308  16.547  11.459   4.207
76983W        W49309  15.001  27.204  12.724
76984W        W49310   4.370  16.037   1.285
76985W        W49311  29.003  30.442  12.965
76986W        W49312  17.819  39.874   0.689
76987W        W49313  16.308  44.808  14.893
76988W        W49314  19.018  10.401   4.557
76989W        W49315  13.754  11.097   4.146
76990W        W49316   4.178  44.888  14.271
76991W        W49317   8.249  43.826  12.139
76992W        W49318  19.750   4.967  12.619
76993W        W49319  31.958   8.922  10.699
76994W        W49320  23.703   9.658  14.913
76995W        W49321  39.471  31.151  14.498
76996W        W49322  34.460  34.107  11.434
76997W        W49323  28.388  29.601   1.465
76998W        W49324  15.280   7.683   2.704
76999W        W49325   5.838  38.905   2.273
77000W        W49326  24.608  40.090  14.880
77001W        W49327   6.921  38.252  12.009
77002W        W49328  27.091  31.341  11.611
77003W        W49329   6.476   6.825  10.556
77004W        W49330  30.001  16.795   0.543
77005W        W49331  22.203  28.754   0.660
77006W        W49332  38.388  27.431  13.611
77007W        W49333  29.257  37.844  12.405
77008W        W49334   9.180  10.231   3.206
77009W        W49335  32.847  39.284   2.163
77010W        W49336   6.390  23.481  13.082
77011W        W49337  44.764  20.788  10.636
77012W        W49338   8.171  19.588   0.267
77013W        W49339   2.485  30.958  14.767
77014W        W49340  34.431   5.491   3.223
77015W        W49341  36.502   0.299   3.826
77016W        W49342   5.870  41.553   0.251
77017W        W49343  35.023  24.055  11.918
77018W        W49344  28.212  43.324  13.272
77019W        W49345  16.774  17.148   4.345
77020W        W49346   1.799   9.372  11.619
77021W        W49347  26.673  42.852  10.549
77022W        W49348  43.082  24.892  11.158
77023W        W49349   5.992   6.334  12.608
77024W        W49350  15.645  27.129   2.857
77025W        W49351   8.726   5.461   2.713
77026W        W49352  44.796   1.494   1.759
77027W        W49353  22.159  20.233  14.721
77028W        W49354  41.328  42.824   2.916
77029W        W49355  16.169   3.163  11.207
77030W        W49356  18.269  34.557   2.818
77031W        W49357  32.479  43.266   4.517
77032W        W49358   0.461  33.043   3.084
77033W        W49359  27.654   2.154   4.504
77034W        W49360  38.932  43.991  12.965
77035W        W49361  24.272  44.924  12.696
77036W        W49362  25.939  31.996  13.848
77037W        W49363  15.771  39.094  12.007
77038W        W49364   6.714  32.726   3.208
77039W        W49365   4.653  20.359   4.177
77040W        W49366  28.407  23.263   1.115
77041W        W49367  29.144  16.358  13.063
77042W        W49368   2.185  33.091  14.359
77043W        W49369   9.702  23.468   1.912
77044W        W49370  12.223   9.189  13.620
77045W        W49371  32.019  17.432  12.406
77046W        W49372  34.382  24.156   1.810
77047W        W49373   0.833   0.432  11.527
77048W        W49374  10.607  24.437   2.265
77049W        W49375  35.861  13.866   0.864
77050W        W49376  41.317  35.882  10.573
77051W        W49377  19.755   9.634  13.455
77052W        W49378  31.345   0.724   1.718
77053W        W49379  27.076  28.421   0.925
77054W        W49380  38.011  14.025  10.500
77055W        W49381   0.556  24.896  12.988
77056W        W49382   0.408  15.593  14.308
77057W        W49383  31.187  30.524   1.148
77058W        W49384  10.838  21.801   2.719
77059W        W49385  18.271   3.355  13.555
77060W        W49386   5.403  33.983   0.555
77061W        W49387   6.627  37.465   3.637
77062W        W49388  42.585  15.665   3.683
77063W        W49389   3.759   6.665  13.938
77064W        W49390  12.290  17.535  13.987
77065W        W49391   4.879  23.334   4.047
77066W        W49392  27.246  28.495  11.512
77067W        W49393   1.245   1.934  12.220
77068W        W49394  22.005   4.005   4.043
77069W        W49395  14.080  30.901  13.453
77070W        W49396  27.566  29.906   3.548
77071W        W49397   9.051  40.170  12.912
77072W        W49398   1.382  25.407   0.733
77073W        W49399  21.508  29.885  14.472
77074W        W49400  31.879  13.804   1.938
77075W        W49401  32.621  35.377   3.051
77076W        W49402  32.567  12.175   3.965
77077W        W49403  43.884   7.881  11.727
77078W        W49404   6.124  38.092   4.592
77079W        W49405  44.569  10.905  14.869
77080W        W49406  13.284  37.395   2.880
77081W        W49407  41.129   0.403   4.575
77082W        W49408  33.004   8.760   1.797
77083W        W49409  44.664  34.064  11.100
77084W        W49410   4.386  35.722   2.619
77085W        W49411  41.995  29.446   1.756
77086W        W49412   8.704   3.819   2.804
77087W        W49413   3.894  22.279  11.528
77088W        W49414  16.080  15.962  13.982
77089W        W49415  25.126  38.924  10.615
77090W        W49416  10.814  20.537  11.953
77091W        W49417  32.096  31.538  10.492
77092W        W49418  29.500  32.167   3.277
77093W        W49419  30.405  12.307  12.357
77094W        W49420  27.049  41.940  12.393
77095W        W49421  15.505  33.857  11.499
77096W        W49422   0.386   3.319   2.988
77097W        W49423  11.171  28.069  12.465
77098W        W49424   5.260   6.347  10.738
77099W        W49425  35.438   7.910   1.700
77100W        W49426   4.950  28.755  14.541
77101W        W49427   3.580  32.765   3.199
77102W        W49428  18.216  14.074  13.500
77103W        W49429   9.416  41.535   0.982
77104W        W49430  30.337   4.775   2.651
77105W        W49431  43.432  24.926   2.827
77106W        W49432  10.056  29.412   1.131
77107W        W49433  42.133  37.435  12.935
77108W        W49434  14.352  21.018   2.681
77109W        W49435  12.357  19.904   3.202
77110W        W49436   5.842  10.634   0.250
77111W        W49437   5.209  25.983  14.401
77112W        W49438  22.631  20.793  11.178
77113W        W49439  19.094  30.846  13.410
77114W        W49440  27.432  19.135   3.166
77115W        W49441  35.118   9.372   4.907
77116W        W49442  16.609  22.253   4.386
77117W        W49443  23.926  32.661  12.016
77118W        W49444  25.049  23.007  13.583
77119W        W49445  23.505  43.574  12.838
77120W        W49446  31.623  17.147  10.663
77121W        W49447  42.526  17.214   4.108
77122W        W49448   3.777  18.049  13.123
77123W        W49449  36.294  20.570  12.434
77124W        W49450  38.450   1.884   0.853
77125W        W49451  17.169  44.272  10.332
77126W        W49452  34.683  28.587  11.505
77127W        W49453  37.309  10.719   0.640
77128W        W49454   5.207  32.871  11.979
77129W        W49455  35.047   0.302  13.313
77130W        W49456   6.275  17.827  12.449
77131W        W49457  35.938  44.769   2.708
77132W        W49458   9.199  14.161  10.686
77133W        W49459  41.376  25.638  14.455
77134W        W49460  35.437   1.142  13.218
77135W        W49461  29.946  16.678  11.183
77136W        W49462  33.732  16.169   4.060
77137W        W49463  27.999  16.798   3.004
77138W        W49464  12.105  26.187  12.532
77139W        W49465  40.874  12.569  12.819
77140W        W49466  11.293  22.647   3.843
77141W        W49467   9.579  44.575  13.951
77142W        W49468  13.199  32.487  10.943
77143W        W49469   9.691  42.984   0.899
77144W        W49470   7.465  17.091   0.256
77145W        W49471  18.304  10.260   0.842
77146W        W49472  35.253   2.006   4.092
77147W        W49473  32.436  38.798   2.653
77148W        W49474   5.667  35.365   2.764
77149W        W49475  10.447  34.513  12.154
77150W        W49476   1.079  44.501  13.463
77151W        W49477   6.087  14.379  13.860
77152W        W49478  39.012  14.833   2.164
77153W        W49479  32.114   0.856   3.602
77154W        W49480  19.570  16.727  12.910
77155W        W49481  37.766  27.379   1.899
77156W        W49482   1.267  24.456  14.299
77157W        W49483   6.842  36.190   2.394
77158W        W49484  40.729  23.799   4.093
77159W        W49485  25.262  15.668   2.328
77160W        W49486  39.361  30.847  13.149
77161W        W49487  12.249  14.443  11.496
77162W        W49488  30.117   9.879   1.459
77163W        W49489  20.239  33.424   0.502
77164W        W49490  12.070  16.389  13.085
77165W        W49491  38.347  14.558  11.894
77166W        W49492   9.785  41.853   3.655
77167W        W49493  43.018  33.993  13.169
77168W        W49494  43.934  27.874   0.814
77169W        W49495  41.963   4.720  12.179
77170W        W49496  26.231  29.734   3.294
77171W        W49497  44.421   0.187   2.641
77172W        W49498  32.925  32.591  11.824
77173W        W49499  27.743   3.166  11.093
77174W        W49500  27.554  36.924  14.559
77175W        W49501  20.477  11.332  14.935
77176W        W49502  17.162  40.554   2.375
77177W        W49503  11.291   0.682   2.714
77178W        W49504  12.543  18.717   1.196
77179W        W49505  38.773   9.314  10.565
77180W        W49506  27.476  20.609   0.825
77181W        W49507  38.509   7.157  12.470
77182W        W49508  10.279  40.087   1.792
77183W        W49509  12.003   5.361  10.982
77184W        W49510  29.116  19.769  12.511
77185W        W49511   5.948  35.966  12.056
77186W        W49512  30.055  17.617   2.780
77187W        W49513  37.821  28.088   3.256
77188W        W49514  22.226   5.851  13.809
77189W        W49515  30.605  18.244   2.419
77190W        W49516   8.472  33.452  13.068
77191W        W49517  21.460   4.415  11.922
77192W        W49518  36.121  30.890   3.151
77193W        W49519  13.478  26.851  10.510
77194W        W49520  22.092  20.203  10.674
77195W        W49521  39.900  28.582   3.781
77196W        W49522  27.730  34.974   3.194
77197W        W49523  10.170   5.688   3.682
77198W        W49524   9.294  16.824   3.368
77199W        W49525  29.369  31.748   4.795
77200W        W49526  34.804   4.242   0.271
77201W        W49527  34.291   5.058  12.087
77202W        W49528  32.117   2.972  11.918
77203W        W49529  18.151  42.548   3.503
77204W        W49530  40.984  17.797   4.590
77205W        W49531  32.374  13.721   2.824
77206W        W49532  30.037  23.185   4.161
77207W        W49533   4.575  24.215   2.327
77208W        W49534  22.979  14.280   1.896
77209W        W49535   0.335   8.093   3.107
77210W        W49536  23.263  11.219  14.500
77211W        W49537  10.169  14.506  14.816
77212W        W49538  29.137  10.645   2.338
77213W        W49539  44.543  33.565   0.908
77214W        W49540  29.999  30.667  11.242
77215W        W49541   5.700  25.154   0.867
77216W        W49542   9.377  12.280  10.725
77217W        W49543  23.133  26.324   0.418
77218W        W49544  20.516  16.065   4.499
77219W        W49545   4.400  14.141   0.947
77220W        W49546  13.230  28.671  10.209
77221W        W49547  37.348  18.267  14.451
77222W        W49548  16.298  34.993  14.843
77223W        W49549  15.121  23.659   3.648
77224W        W49550  15.796  21.149  10.705
77225W        W49551  32.543  20.557   2.299
77226W        W49552  20.178  18.724  11.870
77227W        W49553  22.491   0.584  12.056
77228W        W49554  25.350  33.387  12.907
77229W        W49555  22.544  31.398  11.128
77230W        W49556  17.867   7.217   1.287
77231W        W49557  39.316  40.949   2.370
77232W        W49558  16.617   7.355   1.969
77233W        W49559  42.796   9.615   3.711
77234W        W49560  18.027   4.353   4.075
77235W        W49561  26.545  15.368   2.234
77236W        W49562  39.117  10.278   4.070
77237W        W49563  31.185   1.004   3.553
77238W        W49564  17.811  44.412  11.002
77239W        W49565  40.478  10.892  12.322
77240W        W49566   0.588   9.660   3.365
77241W        W49567  19.697  35.963   1.837
77242W        W49568  44.278  21.194   0.609
77243W        W49569  30.066   3.148   3.184
77244W        W49570  43.888  35.939  14.807
77245W        W49571  12.818  14.539   1.230
77246W        W49572  34.879  30.745   4.261
77247W        W49573  11.163  23.159   4.745
77248W        W49574  21.701  43.801  12.071
77249W        W49575   7.206  26.027   0.736
77250W        W49576   8.483  17.582   2.549
77251W        W49577  15.732  30.144   0.225
77252W        W49578   2.214  21.039   4.605
77253W        W49579   8.934  25.231   0.046
77254W        W49580  18.251   9.081  13.981
77255W        W49581  16.075  24.030   3.735
77256W        W49582  37.475   4.656   0.933
77257W        W49583  41.784  35.078   3.757
77258W        W49584  44.281  34.872   1.937
77259W        W49585  26.738  25.061   3.211
77260W        W49586  42.783  43.088   5.176
77261W        W49587  22.005  27.433   2.603
77262W        W49588  37.770  21.752   3.346
77263W        W49589  29.266  26.626   2.792
77264W        W49590  20.624  25.849   4.611
77265W        W49591   3.982   1.494  14.312
77266W        W49592  37.968  43.615   3.796
77267W        W49593  34.951  19.571  12.889
77268W        W49594  24.760  43.963  13.549
77269W        W49595  16.590  33.906   0.343
77270W        W49596  38.968  26.104   2.891
77271W        W49597  20.977  25.299   0.813
77272W        W49598  26.426  30.421   4.330
77273W        W49599  24.974   9.296  14.989
77274W        W49600  11.866  16.072  14.809
77275W        W49601  44.148  38.838  12.151
77276W        W49602   3.940   4.858   2.373
77277W        W49603  24.972  20.590   3.753
77278W        W49604  30.925  33.926  12.285
77279W        W49605   0.658   7.666   1.430
77280W        W49606  12.602  24.248  11.721
77281W        W49607  42.848   9.198  11.509
77282W        W49608   6.051  10.189  13.342
77283W        W49609  37.501  23.012   1.261
77284W        W49610  26.691  13.852  14.347
77285W        W49611  44.008  33.467  13.330
77286W        W49612  28.039  43.026  14.986
77287W        W49613  21.007  21.266  11.427
77288W        W49614  28.529  31.883   2.410
77289W        W49615  38.878  41.504   0.401
77290W        W49616  40.777  31.948  14.012
77291W        W49617   9.484  10.863   3.876
77292W        W49618  16.494  23.713  14.891
77293W        W49619  23.178  35.409   1.855
77294W        W49620   8.829   6.131   0.479
77295W        W49621   9.715  19.972   3.852
77296W        W49622  17.675  41.553   4.132
77297W        W49623   3.945  35.660  13.953
77298W        W49624  23.119  26.907  14.478
77299W        W49625  44.896  19.505   1.572
77300W        W49626  35.971  32.925   4.133
77301W        W49627  18.997  38.987   1.910
77302W        W49628  24.171  29.405  14.322
77303W        W49629  34.238  20.476  13.891
77304W        W49630  14.608   6.794  14.819
77305W        W49631  15.924  37.482   0.645
77306W        W49632   5.597   3.363  11.134
77307W        W49633  43.027   9.469   2.833
77308W        W49634  39.118   5.680   1.625
77309W        W49635  17.605   5.713   0.771
77310W        W49636  16.645  35.582   1.339
77311W        W49637  21.344  15.967  11.130
77312W        W49638  16.234  32.350  14.357
77313W        W49639  44.783  11.926   4.416
77314W        W49640  43.290  36.028  11.916
77315W        W49641  36.092  14.190   3.703
77316W        W49642  18.955  21.421  13.728
77317W        W49643   3.026   6.906   4.125
77318W        W49644  42.455  27.151   3.174
77319W        W49645  14.087  42.376   3.865
77320W        W49646  42.595  32.134   3.797
77321W        W49647  23.624  14.609   0.316
77322W        W49648  29.388  36.086  14.513
77323W        W49649  22.798   2.684  13.472
77324W        W49650  43.826  35.052   2.304
77325W        W49651  44.762  17.392   0.196
77326W        W49652  39.123  26.422  14.175
77327W        W49653  40.168   1.009   3.022
77328W        W49654   3.134   8.179   1.365
77329W        W49655  22.074  17.879   4.378
77330W        W49656  23.395  36.451   0.840
77331W        W49657   2.178  16.530   4.181
77332W        W49658  26.961  11.553  14.054
77333W        W49659  27.646  11.727  14.505
77334W        W49660  31.187  13.532  12.441
77335W        W49661   6.234  21.718   1.224
77336W        W49662  28.512  14.307   4.726
77337W        W49663  44.713  24.215   0.420
77338W        W49664  10.164  13.674  11.942
77339W        W49665  26.560  39.497   0.023
77340W        W49666   1.941  28.905  12.584
77341W        W49667   4.184  41.516   0.341
77342W        W49668   8.157  44.323  13.003
77343W        W49669   0.747  15.645   0.446
77344W        W49670  31.222  14.665   3.117
77345W        W49671  22.721  37.968   0.097
77346W        W49672   9.307  22.465  12.419
77347W        W49673  34.418  36.400   3.701
77348W        W49674  32.379  10.678  13.083
77349W        W49675  11.456  19.215  12.132
77350W        W49676   4.920  44.483  12.991
77351W        W49677  30.224  24.148   3.179
77352W        W49678  19.039  21.180  12.934
77353W        W49679  28.744  40.829  10.783
77354W        W49680  34.582  39.564   1.929
77355W        W49681   9.383  12.860  12.804
77356W        W49682  32.359  31.756  12.054
77357W        W49683  42.010  23.426  12.409
77358W        W49684  10.882  31.440  12.474
77359W        W49685  40.387  19.701  12.455
77360W        W49686  38.075  40.086   2.719
77361W        W49687   7.265  17.684   3.804
77362W        W49688  30.910  43.860   0.865
77363W        W49689  39.071  14.452   3.644
77364W        W49690  32.382   9.385   3.370
77365W        W49691  44.892  35.498  11.808
77366W        W49692  34.036  33.501  14.891
77367W        W49693  29.186  30.464  10.672
77368W        W49694  29.196  20.122  11.207
77369W        W49695  13.678  16.135   0.267
77370W        W49696  36.013  14.139  10.511
77371W        W49697  42.055   1.061  10.813
77372W        W49698   9.922  42.787   3.662
77373W        W49699   4.335  35.027   0.485
77374W        W49700   7.897  12.158   1.649
77375W        W49701   1.465  18.338   4.351
77376W        W49702  16.732   7.031   4.643
77377W        W49703   8.398  18.166   3.733
77378W        W49704   6.267  23.988  13.740
77379W        W49705   4.733  39.722   1.207
77380W        W49706  40.382   5.880  12.825
77381W        W49707  36.547  10.545  13.965
77382W        W49708  40.719  38.058   2.017
77383W        W49709  25.683   5.006  13.331
77384W        W49710  34.620  16.839  12.892
77385W        W49711   8.703   5.282   3.199
77386W        W49712  17.611  21.053   2.183
77387W        W49713  34.068  41.759   0.450
77388W        W49714   2.139  15.063  13.813
77389W        W49715  31.484  20.466  12.503
77390W        W49716  28.427  44.865   2.635
77391W        W49717   5.507  39.333   0.201
77392W        W49718   4.435  42.886  14.530
77393W        W49719  19.649   3.721  13.929
77394W        W49720  27.414  19.022  14.494
77395W        W49721   9.565   7.652  12.897
77396W        W49722  13.343   2.320   1.702
77397W        W49723  29.523  39.332  13.075
77398W        W49724  35.047  20.938  11.069
77399W        W49725  35.658  38.895   4.954
77400W        W49726   3.885  38.581  14.570
77401W        W49727  26.753   3.950   2.758
77402W        W49728  38.891  33.464  12.513
77403W        W49729   8.623  31.524   4.533
77404W        W49730  18.348  36.898   2.194
77405W        W49731   6.455  20.911  10.922
77406W        W49732   4.806   5.751  11.444
77407W        W49733  44.809   5.480   3.301
77408W        W49734  32.099  40.369  14.565
77409W        W49735  10.356  35.928  10.768
77410W        W49736   8.896   9.784   3.136
77411W        W49737   1.811  13.213  12.587
77412W        W49738  33.988  39.531  11.095
77413W        W49739  26.644  20.161  13.265
77414W        W49740  43.290  44.006  13.054
77415W        W49741  16.096   0.821  12.676
77416W        W49742  26.135   3.056  11.109
77417W        W49743   3.032  37.586   1.946
77418W        W49744  38.006  30.348   3.595
77419W        W49745   2.011  38.387  11.526
77420W        W49746  22.594  13.680   4.102
77421W        W49747  19.486  36.444  13.656
77422W        W49748  12.153   4.296  12.495
77423W        W49749  26.556  22.817   0.807
77424W        W49750   0.872   9.391  14.855
77425W        W49751  20.353  24.192  13.716
77426W        W49752   7.406  41.006  14.001
77427W        W49753  28.638   4.915   1.881
77428W        W49754   0.814  17.827  12.115
77429W        W49755  16.288  12.971   2.923
77430W        W49756  27.489  33.551  13.709
77431W        W49757  35.280  17.978   0.829
77432W        W49758  38.343  14.245  11.476
77433W        W49759   3.765  14.096  10.560
77434W        W49760  36.977  19.352   4.207
77435W        W49761   3.901   6.360   2.706
77436W        W49762  17.055  37.035  14.819
77437W        W49763   7.189  31.707   4.580
77438W        W49764  31.385  41.939   1.911
77439W        W49765  42.383  18.298   4.662
77440W        W49766  20.696  29.998  14.000
77441W        W49767  14.597   8.723  14.836
77442W        W49768  29.285  24.894   4.599
77443W        W49769  27.256  13.598  11.943
77444W        W49770   1.520  26.176   0.051
77445W        W49771   1.944  23.042   3.188
77446W        W49772   0.539  38.871   1.403
77447W        W49773  11.649  35.122   0.288
77448W        W49774  10.185   1.121  11.935
77449W        W49775  44.946   2.719  13.975
77450W        W49776  17.342  26.192  10.636
77451W        W49777  13.597  40.939   4.814
77452W        W49778   7.708   7.420   1.080
77453W        W49779  20.327  19.912  13.907
77454W        W49780   1.476  40.968   1.411
77455W        W49781  20.430  24.156  12.486
77456W        W49782  13.123  40.087  12.407
77457W        W49783  27.690  42.806   3.231
77458W        W49784  19.103   9.168   1.762
77459W        W49785  40.219   7.657  11.341
77460W        W49786   2.490  11.194  13.977
77461W        W49787  22.640  32.860   4.138
77462W        W49788  19.098  30.006  12.832
77463W        W49789  39.089  39.007  14.785
77464W        W49790  34.073   0.706   2.748
77465W        W49791  30.669  41.797  12.993
77466W        W49792  42.844   0.436  12.973
77467W        W49793  19.221  19.360  11.967
77468W        W49794  29.090  25.107  12.582
77469W        W49795  22.280  23.657   1.749
77470W        W49796  37.912  36.320  12.960
77471W        W49797  10.545  28.793   0.772
77472W        W49798   9.789  39.253   4.720
77473W        W49799  44.396  13.364   2.331
77474W        W49800   5.949   7.556   3.435
77475W        W49801  12.843  16.030   1.350
77476W        W49802   0.768  26.405   0.020
77477W        W49803  38.651   1.698   2.241
77478W        W49804   6.497  39.081  14.534
77479W        W49805   1.906  42.210   0.666
77480W        W49806  38.472  22.899   3.639
77481W        W49807   7.436  13.137  13.880
77482W        W49808   6.766   8.858   2.139
77483W        W49809  29.826  14.302   0.451
77484W        W49810  11.688  13.339   2.276
77485W        W49811  22.018  35.039  13.685
77486W        W49812  25.960   2.428  13.712
77487W        W49813   6.514  36.535  14.337
77488W        W49814  14.351  36.552   3.208
77489W        W49815  44.314  37.985  10.898
77490W        W49816  30.982  21.511   3.372
77491W        W49817  26.717  29.176   2.650
77492W        W49818   7.255   0.934   1.304
77493W        W49819  37.735   0.007  12.831
77494W        W49820  35.139   1.936   1.923
77495W        W49821  35.951   5.731  12.574
77496W        W49822   2.194  44.631  13.222
77497W        W49823  32.007   4.738  12.707
77498W        W49824  30.468   9.717   0.318
77499W        W49825  20.987   4.566   4.680
77500W        W49826  38.133   4.781  12.488
77501W        W49827  40.007  11.841   0.881
77502W        W49828  30.806  28.415  13.307
77503W        W49829  10.157  25.959   2.781
77504W        W49830  23.027  24.976   2.621
77505W        W49831  22.704  11.525   4.233
77506W        W49832  13.711  26.093   2.012
77507W        W49833   4.286  44.844  13.023
77508W        W49834  20.737   4.355   0.834
77509W        W49835  30.397  44.848   2.439
77510W        W49836   4.181  11.049  14.867
77511W        W49837  16.314  43.041   3.166
77512W        W49838  30.171   6.779  12.413
77513W        W49839  35.517   6.957  12.797
77514W        W49840  16.176  33.115   2.530
77515W        W49841  31.062  40.562  13.577
77516W        W49842  44.893  19.043   1.219
77517W        W49843  25.142  28.067   4.145
77518W        W49844  22.605  35.549  12.413
77519W        W49845  13.151   6.139  14.532
77520W        W49846  19.022  34.744  13.884
77521W        W49847  15.446   7.427   3.128
77522W        W49848  11.615  18.188   1.700
77523W        W49849  24.162  28.515  11.596
77524W        W49850  24.615  44.563  11.329
77525W        W49851  42.793  11.851   4.204
77526W        W49852   2.720  23.321   3.796
77527W        W49853  35.642  13.225  12.368
77528W        W49854  12.751  37.992   0.161
77529W        W49855   4.184  44.865   2.319
77530W        W49856  35.290   9.317   2.807
77531W        W49857   0.669  37.781  11.123
77532W        W49858  36.951  17.017   2.375
77533W        W49859  31.964  10.738  12.756
77534W        W49860  36.014   7.713  11.083
77535W        W49861   0.547  33.113   0.345
77536W        W49862  37.511  18.847   4.552
77537W        W49863  44.077   1.520  12.658
77538W        W49864  34.151  25.001  13.842
77539W        W49865  28.450  27.470  11.234
77540W        W49866  24.420  41.425  11.538
77541W        W49867   4.304  28.705   2.302
77542W        W49868  18.865  33.404   3.105
77543W        W49869  42.420  25.208   2.725
77544W        W49870  39.613  23.223   0.387
77545W        W49871  23.104  39.334   0.902
77546W        W49872  27.620  14.174   2.613
77547W        W49873   9.178  33.374  13.984
77548W        W49874  31.123  10.875  14.527
77549W        W49875   1.478  21.282   0.309
77550W        W49876   0.897   9.888  10.816
77551W        W49877  32.256   6.967  11.593
77552W        W49878  20.754  22.484  13.610
77553W        W49879  31.220  14.934   1.281
77554W        W49880  35.439   0.289   3.140
77555W        W49881  37.488  33.956   2.777
77556W        W49882  36.390  30.927  11.549
77557W        W49883  40.867   5.877  14.509
77558W        W49884   1.321  31.407  11.167
77559W        W49885  23.320  44.323   2.273
77560W        W49886  37.738   7.509   2.190
77561W        W49887  12.018  11.157  13.499
77562W        W49888   6.105  37.585   4.690
77563W        W49889  40.823  21.294  12.359
77564W        W49890  22.777  19.971   2.430
77565W        W49891   9.323  19.530  13.972
77566W        W49892  40.769  42.044   1.700
77567W        W49893  40.802  10.878   1.421
77568W        W49894   0.928   3.305   4.169
77569W        W49895   2.700   4.992  13.593
77570W        W49896  41.570   4.506   0.523
77571W        W49897  13.969  24.043  11.520
77572W        W49898  15.275  12.247  14.256
77573W        W49899   6.447  39.621  12.007
77574W        W49900  15.270   2.349  13.432
77575W        W49901  35.465  26.992   1.017
77576W        W49902   3.156  19.688  14.875
77577W        W49903  15.692  16.120   0.355
77578W        W49904  18.720  37.239   1.440
77579W        W49905   3.783   6.790  14.464
77580W        W49906   8.728  18.803   2.629
77581W        W49907   8.426  28.227  14.872
77582W        W49908   2.357  14.810  13.404
77583W        W49909  17.694  28.963   2.252
77584W        W49910  30.035  28.185  12.900
77585W        W49911  38.632  28.925  12.176
77586W        W49912   9.359  12.629   3.368
77587W        W49913   4.299  26.159   0.315
77588W        W49914   7.694  15.694  12.748
77589W        W49915  40.623  25.039  13.062
77590W        W49916   1.941   9.788   2.778
77591W        W49917  41.740   4.933  13.426
77592W        W49918   2.295  34.443   4.122
77593W        W49919  39.374  28.496   2.853
77594W        W49920   9.094  24.935  10.566
77595W        W49921  33.695  41.498   3.167
77596W        W49922  34.921  18.990   0.349
77597W        W49923  35.185  44.219  10.782
77598W        W49924  30.855  33.832   0.386
77599W        W49925  29.365  44.872   2.750
77600W        W49926  31.894  14.642   1.770
77601W        W49927  33.834  37.273   4.616
77602W        W49928  35.143  40.303   1.809
77603W        W49929  12.086  44.355  13.023
77604W        W49930  10.897   8.271   0.408
77605W        W49931   1.994  15.084  13.148
77606W        W49932  37.067  29.094  14.176
77607W        W49933   7.008  27.549  11.685
77608W        W49934  12.625  27.478   3.695
77609W        W49935   7.665  41.209  14.918
77610W        W49936   8.568   1.421   2.287
77611W        W49937   2.952  21.123   9.748
77612W        W49938  29.062  20.675   1.346
77613W        W49939  41.612  25.995   4.935
77614W        W49940  25.197  21.635  12.813
77615W        W49941  28.777  39.563   3.493
77616W        W49942  19.345  38.848   4.586
77617W        W49943  36.579  24.933  14.801
77618W        W49944  22.658   8.446  14.926
77619W        W49945   0.384  11.561  10.839
77620W        W49946  13.117  20.443   3.426
77621W        W49947   8.608  24.738   0.556
77622W        W49948  23.892  10.079  11.593
77623W        W49949  37.347  44.825  11.442
77624W        W49950  33.542  43.323   1.756
77625W        W49951  38.816   0.715   3.155
77626W        W49952  31.583  18.138   0.145
77627W        W49953  24.316   6.781  11.213
77628W        W49954  21.662  16.830  11.116
77629W        W49955  29.067  14.602   1.809
77630W        W49956   3.148  17.955   0.939
77631W        W49957  22.109   0.666   3.239
77632W        W49958  23.186  28.485   1.845
77633W        W49959  14.333  20.798   4.605
77634W        W49960  33.880  20.709  12.072
77635W        W49961   7.595  30.920  10.568
77636W        W49962  27.628  42.788   0.810
77637W        W49963  24.416  12.850  12.764
77638W        W49964  18.023  25.131  12.142
77639W        W49965  27.211  17.713   2.132
77640W        W49966   9.185  44.056  12.380
77641W        W49967   8.617  36.016  12.399
77642W        W49968   3.182  39.371  13.716
77643W        W49969  27.111  14.778  13.991
77644W        W49970  39.468  17.741  13.094
77645W        W49971  11.656  32.653  13.862
77646W        W49972  33.949  19.300   0.417
77647W        W49973  32.065  28.938  13.184
77648W        W49974  44.708  30.996   0.800
77649W        W49975   7.747  19.230   0.880
77650W        W49976  17.140  21.210   1.403
77651W        W49977  18.321  37.131  14.416
77652W        W49978  33.379  30.800  10.788
77653W        W49979  36.701  14.650   3.363
77654W        W49980   7.709  29.842   4.181
77655W        W49981  40.626  12.159   4.205
77656W        W49982  43.002  29.920   1.374
77657W        W49983  12.920   2.889  12.891
77658W        W49984  20.027  27.105  13.007
77659W        W49985   3.795  22.563  14.923
77660W        W49986  34.590  39.356  11.355
77661W        W49987  12.247  34.917   2.266
77662W        W49988   1.428  32.666  13.463
77663W        W49989  14.359  33.025  10.086
77664W        W49990  35.613  29.614   1.318
77665W        W49991  17.705  11.819   1.817
77666W        W49992  28.440  13.410   3.682
77667W        W49993  35.585  34.370   0.457
77668W        W49994   6.782   6.745   2.178
77669W        W49995  14.096  30.246   2.195
77670W        W49996  28.269  15.501  11.448
77671W        W49997  19.340  28.732   2.871
77672W        W49998  32.387  29.813   3.081
77673W        W49999  27.985   0.935  12.959
77674W        W50000  29.397  14.460   0.678
77675W        W50001  18.192   1.373   2.664
77676W        W50002  20.054  42.704  11.459
77677W        W50003   5.678   2.408   0.503
77678W        W50004  21.464   2.661   4.143
77679W        W50005  44.035  15.969  12.486
77680W        W50006  37.871  24.974  13.920
77681W        W50007  32.894  23.598  14.867
77682W        W50008  35.427  10.176  12.704
77683W        W50009  30.403  27.736  14.290
77684W        W50010  18.587  24.313  13.927
77685W        W50011  32.934   0.485  13.412
77686W        W50012   9.873  28.041  12.086
77687W        W50013  31.121  40.536  11.472
77688W        W50014   7.943  26.709   3.556
77689W        W50015   6.400  24.745   2.814
77690W        W50016  11.758  28.907   4.175
77691W        W50017  29.920  34.560  11.146
77692W        W50018  33.092   1.194  12.437
77693W        W50019  23.205   4.491  13.919
77694W        W50020  38.265  35.569   4.716
77695W        W50021   4.390  27.628  14.456
77696W        W50022  25.646  34.631   0.858
77697W        W50023  17.878  33.948  10.850
77698W        W50024  20.037   1.333   4.723
77699W        W50025   1.707  39.836  14.321
77700W        W50026  39.890   5.697  13.320
77701W        W50027  25.434   8.000   2.829
77702W        W50028  16.817   8.727  13.972
77703W        W50029  30.935  32.970  13.297
77704W        W50030  24.177  11.343  12.789
77705W        W50031  24.912   2.939   2.809
77706W        W50032   4.968   9.779   2.298
77707W        W50033  27.552  14.725   2.413
77708W        W50034   3.616  13.951   4.599
77709W        W50035  33.381  24.533   0.353
77710W        W50036   1.436  15.797  12.635
77711W        W50037  30.576  42.368  11.951
77712W        W50038   6.468  12.167   0.878
77713W        W50039  11.696  23.781  14.500
77714W        W50040   5.318  40.294   0.875
77715W        W50041   3.890  36.124  11.648
77716W        W50042  21.482   8.062   2.294
77717W        W50043   8.368   0.459   0.998
77718W        W50044  17.513  28.231   3.655
77719W        W50045  20.469  25.959  13.515
77720W        W50046  16.180  27.038  11.958
77721W        W50047  42.505  28.462   2.744
77722W        W50048   0.754   6.383  12.454
77723W        W50049   5.869   8.490   0.832
77724W        W50050  17.938   1.385   4.937
77725W        W50051  33.977  41.965  13.500
77726W        W50052  42.820  19.487  11.112
77727W        W50053  13.629   7.405  14.435
77728W        W50054  17.313  21.361   1.890
77729W        W50055  11.537  26.669  10.701
77730W        W50056   3.602  28.708  14.615
77731W        W50057   8.908  33.444   0.736
77732W        W50058  36.783  21.129  14.339
77733W        W50059  27.690  41.803   2.335
77734W        W50060  42.462   1.489  14.486
77735W        W50061  43.350   5.772  14.734
77736W        W50062  39.806  43.038   1.254
77737W        W50063  28.467  22.306   4.651
77738W        W50064  37.753  40.398   4.144
77739W        W50065  10.162  38.813   2.128
77740W        W50066  33.704   3.107  13.933
77741W        W50067  35.388  11.269  11.534
77742W        W50068  10.881   1.916  12.660
77743W        W50069  16.062  12.677  12.336
77744W        W50070  13.298  38.484   1.272
77745W        W50071   5.340   3.754   3.204
77746W        W50072   2.773  39.887   3.234
77747W        W50073   0.057  21.249   0.316
77748W        W50074  29.049  25.217  14.875
77749W        W50075  17.705  20.704   0.449
77750W        W50076  18.715   4.036   0.636
77751W        W50077  42.117  34.457  14.485
77752W        W50078  31.628   9.668  14.309
77753W        W50079  26.753   2.277   4.341
77754W        W50080   0.289  24.985   0.358
77755W        W50081  36.020  22.719   3.616
77756W        W50082  27.227   9.434  11.474
77757W        W50083   4.356  27.790   3.249
77758W        W50084  34.953  22.603   2.731
77759W        W50085  30.455  36.013  12.946
77760W        W50086  39.001   4.642   5.105
77761W        W50087  23.111   5.284   3.963
77762W        W50088  17.093  41.422   2.878
77763W        W50089  17.503  26.238   1.360
77764W        W50090  30.938  41.458  13.399
77765W        W50091  32.322   4.704   2.375
77766W        W50092  40.051  20.597   2.777
77767W        W50093  26.892  29.876   1.133
77768W        W50094  24.027   3.902  12.515
77769W        W50095   2.675  14.568   1.623
77770W        W50096  10.762  39.314  13.499
77771W        W50097  36.055  29.587  11.812
77772W        W50098  39.943  28.975  14.742
77773W        W50099   7.318  42.050  13.843
77774W        W50100  13.481   6.398  14.207
77775W        W50101  32.539  26.130  11.232
77776W        W50102  14.105  38.385  12.145
77777W        W50103  30.192  40.879  13.605
77778W        W50104   1.556   9.661   0.486
77779W        W50105  13.247  44.198   3.368
77780W        W50106  25.545  19.837  13.582
77781W        W50107  27.995   7.773   0.371
77782W        W50108  24.241  22.435   1.992
77783W        W50109   2.091   5.765   2.752
77784W        W50110  43.788   6.914  12.900
77785W        W50111  20.165  35.647   1.030
77786W        W50112  28.413  10.013   0.298
77787W        W50113  27.978  44.839  10.529
77788W        W50114  28.564   9.354  12.859
77789W        W50115  28.948  11.629  11.704
77790W        W50116   1.212  18.682   1.522
77791W        W50117   0.726   9.414  10.847
77792W        W50118  30.421  36.957  11.670
77793W        W50119   1.474  44.262  14.266
77794W        W50120   3.505  32.733  14.590
77795W        W50121  16.788  25.667   0.746
77796W        W50122  11.469  16.062  11.923
77797W        W50123  10.542  32.626  12.824
77798W        W50124  25.535   4.245  12.183
77799W        W50125  37.640  10.743   4.238
77800W        W50126   8.812  10.329   4.618
77801W        W50127   8.348  40.263  14.308
77802W        W50128  14.673   4.368   1.408
77803W        W50129  34.330  20.707  12.350
77804W        W50130  40.794  39.372  14.497
77805W        W50131   2.701  37.535   3.234
77806W        W50132  38.820  22.952  12.836
77807W        W50133  14.421  44.906   0.056
77808W        W50134  42.772  40.113   4.737
77809W        W50135   7.942  36.308  13.530
77810W        W50136  11.163  12.182   1.466
77811W        W50137  17.700  38.028  11.134
77812W        W50138  14.080  39.248  10.748
77813W        W50139  37.433   8.381   4.575
77814W        W50140  36.052  14.588  11.562
77815W        W50141   5.997  19.824   0.923
77816W        W50142  42.667   3.468  11.836
77817W        W50143  12.580  40.411   1.433
77818W        W50144  40.983   9.485   3.318
77819W        W50145  40.452  33.096   0.744
77820W        W50146   1.772  31.970   3.244
77821W        W50147  15.260  41.472  11.145
77822W        W50148  34.252   4.978   2.788
77823W        W50149  24.670  14.962  13.832
77824W        W50150   3.673  43.311  12.620
77825W        W50151  16.772  18.609   2.289
77826W        W50152  29.417   8.314  13.849
77827W        W50153  31.445   4.874  11.102
77828W        W50154  40.119  42.597   0.666
77829W        W50155   4.174  37.581   3.872
77830W        W50156  16.228  18.753  12.447
77831W        W50157   2.302  38.327   2.242
77832W        W50158  27.980  24.021  13.719
77833W        W50159   1.212  15.401  12.352
77834W        W50160  10.304  18.750  13.016
77835W        W50161  43.018  11.430   1.686
77836W        W50162  32.084  15.207   2.401
77837W        W50163  15.208  42.549   1.882
77838W        W50164  24.525   1.959  12.044
77839W        W50165  26.525  22.359   4.661
77840W        W50166  25.889  42.863  10.202
77841W        W50167  38.020   8.936  12.433
77842W        W50168  10.623   5.331   1.289
77843W        W50169  21.426  20.819   1.785
77844W        W50170  30.974   6.848  11.949
77845W        W50171   9.260  44.445  12.066
77846W        W50172  19.706   6.152   1.306
77847W        W50173  42.324  18.911   2.585
77848W        W50174   3.920  33.570   2.177
77849W        W50175  10.289  30.261  13.012
77850W        W50176   4.661  15.818   1.630
77851W        W50177   3.882  21.550  14.048
77852W        W50178  19.177  25.987  13.417
77853W        W50179  37.581  21.168   4.749
77854W        W50180  23.580   6.030  14.336
77855W        W50181   8.315   9.669   0.831
77856W        W50182   5.816   4.320  14.545
77857W        W50183  34.830  27.304   3.650
77858W        W50184  21.001  38.114  13.656
77859W        W50185   6.761  29.103  12.094
77860W        W50186  10.866  18.728  14.717
77861W        W50187  30.433  43.197  10.646
77862W        W50188  20.900  38.675  11.922
77863W        W50189  21.590  32.895  14.485
77864W        W50190  20.021  22.471   9.934
77865W        W50191   9.535  18.692  13.461
77866W        W50192  14.687  22.451   3.748
77867W        W50193   2.412  20.996   2.212
77868W        W50194  12.794  23.211  14.312
77869W        W50195   9.410  27.872  14.803
77870W        W50196  21.489  21.137  14.084
77871W        W50197  37.504   0.318  11.251
77872W        W50198   8.105   3.394   4.051
77873W        W50199   9.600  14.828  11.675
77874W        W50200  33.661  36.554   1.221
77875W        W50201  39.097  44.075   4.332
77876W        W50202  26.089  28.930   2.687
77877W        W50203  43.183  19.278  14.722
77878W        W50204  36.788  44.896   3.275
77879W        W50205  20.520  14.621  11.344
77880W        W50206  18.339   4.744   4.223
77881W        W50207  33.688   3.805   0.441
77882W        W50208  29.206  43.908   0.317
77883W        W50209  18.107  34.311  13.845
77884W        W50210  34.312  17.190   2.814
77885W        W50211   6.407  39.067  12.871
77886W        W50212  10.360  13.255   0.328
77887W        W50213  39.388  15.732   0.804
77888W        W50214   1.102  27.008  13.553
77889W        W50215  34.406  17.158  10.963
77890W        W50216  16.087  13.733  13.366
77891W        W50217  10.480   7.271  11.632
77892W        W50218   2.835   6.172   4.033
77893W        W50219   5.602  34.864  12.650
77894W        W50220  17.413  11.523  10.219
77895W        W50221   2.035  33.769   1.934
77896W        W50222  24.025  27.023   2.878
77897W        W50223   5.907  20.504   4.577
77898W        W50224   3.143  19.674   4.752
77899W        W50225  13.597  33.987  13.061
77900W        W50226  42.382  28.707   3.221
77901W        W50227  34.115  29.693   2.443
77902W        W50228  18.212  10.854   4.904
77903W        W50229  19.710   1.092  12.485
77904W        W50230  31.633  35.079  14.384
77905W        W50231  14.201   1.280  11.462
77906W        W50232  23.784  37.048  14.296
77907W        W50233  22.691  26.269   3.685
77908W        W50234   7.459   4.219  12.621
77909W        W50235  40.294  37.363  13.280
77910W        W50236  41.334  12.331  12.802
77911W        W50237  30.399   9.276  10.679
77912W        W50238  12.392  10.964   2.410
77913W        W50239   6.651  11.165   4.726
77914W        W50240   2.467  38.642   4.675
77915W        W50241  24.174   2.803  14.386
77916W        W50242  43.294  33.902   2.308
77917W        W50243  27.453  39.537  13.401
77918W        W50244  14.259  14.338  13.159
77919W        W50245  25.057  17.524   1.962
77920W        W50246  41.364  18.155   3.206
77921W        W50247  15.366   2.742  13.006
77922W        W50248  14.056  17.101   4.561
77923W        W50249  37.956  10.619  13.819
77924W        W50250  25.635  18.560   2.598
77925W        W50251  19.757  28.098   5.047
77926W        W50252  31.123   7.918  12.577
77927W        W50253  18.108  44.059  14.430
77928W        W50254  17.531  20.988  11.927
77929W        W50255   6.301  41.019   4.733
77930W        W50256  22.344  31.651   0.931
77931W        W50257   2.045  39.878   3.632
77932W        W50258  25.962  38.772   2.939
77933W        W50259  42.627  42.995   3.403
77934W        W50260  28.466  22.691  13.360
77935W        W50261  28.184  10.681   0.864
77936W        W50262  39.343   9.264   4.909
77937W        W50263  28.993  34.165   4.911
77938W        W50264  12.313  12.680  13.350
77939W        W50265  30.556  42.100   2.226
77940W        W50266  44.491  33.087   1.175
77941W        W50267  39.420  38.872   4.787
77942W        W50268  30.029  29.249   1.775
77943W        W50269  34.451  13.698   4.518
77944W        W50270  40.999  43.078  11.610
77945W        W50271  42.059   4.386   1.298
77946W        W50272  40.246   4.788  11.442
77947W        W50273   4.202   0.754   1.014
77948W        W50274  13.774  27.639  10.967
77949W        W50275   8.044  16.241  13.390
77950W        W50276  12.549  26.950  14.084
77951W        W50277  28.598  42.378   3.754
77952W        W50278  34.466   4.924  14.449
77953W        W50279  27.340   2.127   2.737
77954W        W50280  13.280  42.807   0.739
77955W        W50281   7.298  38.124   4.598
77956W        W50282  15.349  33.585  14.964
77957W        W50283  37.381  23.201  12.068
77958W        W50284  36.502  11.295  12.446
77959W        W50285  43.300  21.130  13.053
77960W        W50286  21.998   4.422  11.781
77961W        W50287  15.084  27.150   4.306
77962W        W50288  44.512  38.384   4.152
77963W        W50289  32.233  11.101  12.172
77964W        W50290  19.955   6.654   1.826
77965W        W50291   2.435  36.310  11.605
77966W        W50292  25.840   6.380  11.635
77967W        W50293  25.492   7.811   1.022
77968W        W50294  43.024  30.947  13.531
77969W        W50295  39.559  24.070  14.415
77970W        W50296  16.539  19.985   4.641
77971W        W50297  24.338  43.011  13.334
77972W        W50298  18.235  37.820   3.144
77973W        W50299   8.247  23.301  11.121
77974W        W50300  41.261   6.517  14.938
77975W        W50301  16.535  24.892  14.472
77976W        W50302  26.800  13.104  12.013
77977W        W50303   6.168  18.549   0.368
77978W        W50304  41.442  29.675   0.961
77979W        W50305  10.364  16.172  12.384
77980W        W50306  34.834  11.141   0.994
77981W        W50307  12.296  28.665   1.803
77982W        W50308  25.235  21.025   2.826
77983W        W50309  22.717  21.192   3.710
77984W        W50310  42.394  17.193  11.188
77985W        W50311  38.306  37.553  12.166
77986W        W50312  22.578   7.953  14.835
77987W        W50313  36.921   4.826  10.147
77988W        W50314  42.719  15.462   4.131
77989W        W50315  33.569  26.509  12.062
77990W        W50316  27.519  18.569   2.432
77991W        W50317  43.019   8.598  13.078
77992W        W50318   3.806  14.793   4.256
77993W        W50319   1.096  10.674   0.752
77994W        W50320  22.812  44.294  14.546
77995W        W50321  36.583  34.156  13.106
77996W        W50322  16.234  38.068   1.054
77997W        W50323  30.745  24.000   2.739
77998W        W50324   9.608   8.926  11.549
77999W        W50325  42.807  14.807  11.508
78000W        W50326  40.929   7.694   2.308
78001W        W50327  16.140  41.378   2.389
78002W        W50328   2.954   9.795  12.895
78003W        W50329   6.915   2.727  12.820
78004W        W50330  28.487  43.069   4.645
78005W        W50331  30.278  34.013  10.652
78006W        W50332   8.214  10.345  13.239
78007W        W50333  44.359   9.668  10.702
78008W        W50334  24.607  18.045  12.433
78009W        W50335   9.822  43.202  14.937
78010W        W50336  23.235  24.591  11.296
78011W        W50337  25.962  27.296   2.886
78012W        W50338  20.786  33.474   0.468
78013W        W50339  13.427  28.200  14.964
78014W        W50340  42.440  19.390  11.894
78015W        W50341  39.993  11.887   2.755
78016W        W50342  40.219   2.052  13.566
78017W        W50343  41.337  28.045   1.923
78018W        W50344   5.980  24.724   0.990
78019W        W50345  34.166  23.393  13.532
78020W        W50346  18.818  42.310  12.079
78021W        W50347   6.224  12.839  12.927
78022W        W50348   7.725  39.290   4.351
78023W        W50349  44.392  25.667  11.746
78024W        W50350   8.177  33.887   3.197
78025W        W50351  42.761  44.447  14.425
78026W        W50352  17.491  19.673   4.561
78027W        W50353   8.937  39.579  12.050
78028W        W50354  37.759  27.270   4.396
78029W        W50355  12.763  32.005   4.931
78030W        W50356  44.966  23.965  11.143
78031W        W50357  20.314  12.319  13.499
78032W        W50358   0.050  42.456   0.803
78033W        W50359  28.089  15.279   4.078
78034W        W50360   9.696  32.477   1.917
78035W        W50361  30.054  27.984   1.335
78036W        W50362   4.696  40.017  10.111
78037W        W50363  37.561  38.963  12.856
78038W        W50364  14.699  16.986   1.880
78039W        W50365  18.043  13.597  11.160
78040W        W50366  34.330  19.589   0.753
78041W        W50367  20.327  15.045  11.110
78042W        W50368  16.221  37.056   2.458
78043W        W50369  31.528  43.134  12.897
78044W        W50370  27.863  14.243   1.216
78045W        W50371  41.850  39.035   1.326
78046W        W50372  33.313  14.165  13.870
78047W        W50373  13.852   8.830  12.045
78048W        W50374  31.570   4.898  12.014
78049W        W50375  33.139   3.144   2.781
78050W        W50376  39.079  13.729  11.540
78051W        W50377  38.530   7.872  11.957
78052W        W50378  13.735  28.700   2.220
78053W        W50379  17.603  29.750  13.127
78054W        W50380   2.224  39.095  11.924
78055W        W50381  31.679  25.014   3.679
78056W        W50382  38.855  11.570   0.033
78057W        W50383  33.182  16.979  14.310
78058W        W50384  20.684  24.942   4.204
78059W        W50385  30.396  33.500  10.608
78060W        W50386  28.066  42.517   0.741
78061W        W50387  12.275  22.574   3.411
78062W        W50388  29.448   7.731   2.855
78063W        W50389  25.602  27.563  11.897
78064W        W50390  38.547  31.404   0.324
78065W        W50391  26.513  43.211  13.356
78066W        W50392  13.864  10.208   1.397
78067W        W50393  40.761  28.770  14.373
78068W        W50394  39.500  13.787  13.631
78069W        W50395  27.907  20.729  13.825
78070W        W50396   6.847  37.853   0.252
78071W        W50397  24.351  23.980  14.443
78072W        W50398  23.508  21.301   0.446
78073W        W50399  41.123   8.125   1.258
78074W        W50400  37.107   5.688   4.388
78075W        W50401  21.759  18.107   4.027
78076W        W50402  23.609  25.316   4.449
78077W        W50403  19.108   6.128  10.582
78078W        W50404   9.357  40.033   0.823
78079W        W50405   4.178  28.662   1.196
78080W        W50406  17.252  12.117   1.812
78081W        W50407  11.630  14.078   9.883
78082W        W50408  43.627   1.319   1.599
78083W        W50409   5.818  37.258   3.219
78084W        W50410  36.578  32.065   3.710
78085W        W50411   7.643  32.685  12.005
78086W        W50412   6.217  39.595   0.285
78087W        W50413  18.339   7.743  13.762
78088W        W50414  30.685  23.320   0.448
78089W        W50415   5.940  41.293  13.977
78090W        W50416  28.865  16.032  12.076
78091W        W50417  26.726   8.641  12.496
78092W        W50418  19.542  15.186  12.353
78093W        W50419  27.058   1.717   1.733
78094W        W50420  42.111  28.080   1.230
78095W        W50421  31.982  19.089   3.641
78096W        W50422  25.200  20.244  11.896
78097W        W50423   4.416   7.213  14.392
78098W        W50424  18.592  24.990   2.703
78099W        W50425  30.862  10.057  12.424
78100W        W50426  11.287   0.183   2.605
78101W        W50427  20.129  38.657   1.829
78102W        W50428  14.531  29.403   0.913
78103W        W50429  14.692  18.624  13.411
78104W        W50430  43.968  20.050  10.732
78105W        W50431  43.416  33.834   3.187
78106W        W50432  31.427  21.010  10.945
78107W        W50433  18.985  19.127  10.673
78108W        W50434  42.208  36.331   4.701
78109W        W50435  19.214  24.508  10.671
78110W        W50436  21.311   4.157  14.628
78111W        W50437  26.682  25.729  11.662
78112W        W50438  10.092   9.430  13.251
78113W        W50439  23.032  39.053  14.990
78114W        W50440  22.146   9.331  14.513
78115W        W50441  35.261  22.172   2.855
78116W        W50442  23.602  34.841  14.837
78117W        W50443  33.335  36.564   2.814
78118W        W50444  27.026  19.606  11.154
78119W        W50445  21.635   5.667   4.619
78120W        W50446   4.768  22.735   1.835
78121W        W50447  22.776   3.972  13.014
78122W        W50448  36.654  16.216   2.264
78123W        W50449  11.118  38.818   0.745
78124W        W50450   8.330  29.564   2.669
78125W        W50451  10.360  22.502  14.788
78126W        W50452   2.899  10.235  11.149
78127W        W50453  26.421  10.836  13.570
78128W        W50454  40.868   6.139   3.259
78129W        W50455  22.552   5.400   0.872
78130W        W50456  15.680  13.585   3.736
78131W        W50457  13.832  20.905  12.066
78132W        W50458  29.211  32.080   1.722
78133W        W50459  26.287  24.230   4.631
78134W        W50460  42.252  28.156   1.730
78135W        W50461  10.567  19.541   5.005
78136W        W50462   0.440  41.793  13.563
78137W        W50463  18.924  22.392   2.773
78138W        W50464  19.449   0.840   5.093
78139W        W50465  15.390  22.849  13.994
78140W        W50466  13.188  11.060   3.840
78141W        W50467  16.827  30.110  12.961
78142W        W50468  10.322  14.507  11.490
78143W        W50469  17.608  31.936   1.328
78144W        W50470  14.667   4.281   3.647
78145W        W50471  31.943  22.432   3.571
78146W        W50472  13.173  37.082   3.875
78147W        W50473  13.081  44.448  10.491
78148W        W50474  34.084  30.955  13.149
78149W        W50475  37.780  28.065  13.050
78150W        W50476   2.856  44.402   4.641
78151W        W50477  44.550   5.742   4.697
78152W        W50478  20.507   4.400  13.902
78153W        W50479   5.997  23.254  11.711
78154W        W50480  29.638   9.566  14.075
78155W        W50481  20.148  24.286   2.254
78156W        W50482   0.744  16.073  14.022
78157W        W50483  26.906   2.246   0.490
78158W        W50484  14.055  37.867   1.396
78159W        W50485   7.723  25.179   2.768
78160W        W50486  28.986  17.443  14.427
78161W        W50487  31.555  27.981   1.948
78162W        W50488   5.699  42.076  12.478
78163W        W50489   4.227   7.927  12.393
78164W        W50490  19.276  29.547   2.843
78165W        W50491  44.675  12.595  14.545
78166W        W50492  11.707  28.134   2.406
78167W        W50493  33.083  12.096  10.936
78168W        W50494  26.963  25.945  13.400
78169W        W50495  17.093  16.784  12.008
78170W        W50496  39.126  39.819  14.785
78171W        W50497  38.909  18.839  14.923
78172W        W50498  34.489  16.849  14.470
78173W        W50499  25.204  33.834   2.741
78174W        W50500  40.093  27.447  12.373
78175W        W50501  28.652  30.728   3.686
78176W        W50502  41.813  35.904  10.725
78177W        W50503  24.053  12.197  13.887
78178W        W50504  36.841  34.081  10.582
78179W        W50505   1.099  43.492  14.222
78180W        W50506   4.990  27.741   3.746
78181W        W50507  15.734  24.019   0.308
78182W        W50508  18.051  44.957   4.830
78183W        W50509   0.986  11.390   4.190
78184W        W50510  17.083  37.258   4.556
78185W        W50511  29.407  28.549   5.120
78186W        W50512  40.382  29.242  13.514
78187W        W50513   2.131   3.105  13.774
78188W        W50514  20.128  14.904  13.840
78189W        W50515  20.660  31.870  14.304
78190W        W50516  11.253  34.934   3.414
78191W        W50517  27.683   3.780  11.948
78192W        W50518  35.950  19.299  12.534
78193W        W50519  43.256  21.800  14.805
78194W        W50520  40.955   0.083   0.748
78195W        W50521  36.514  30.734   4.521
78196W        W50522   7.420  17.992  12.533
78197W        W50523  43.007  35.195  10.385
78198W        W50524  28.995  16.135   2.275
78199W        W50525   9.739  13.022   2.244
78200W        W50526  38.543  41.881  10.619
78201W        W50527  10.151  25.539   3.361
78202W        W50528  36.368  41.089  11.587
78203W        W50529  29.197  37.861   1.366
78204W        W50530  26.612   0.538   4.879
78205W        W50531  37.416   0.786   3.692
78206W        W50532  25.195  41.053   4.365
78207W        W50533  39.235  17.319  14.796
78208W        W50534  36.916  41.291   3.366
78209W        W50535  42.146  15.640   5.093
78210W        W50536  17.063  33.535  11.987
78211W        W50537   4.665  44.959   3.964
78212W        W50538   7.677  44.092  10.489
78213W        W50539  31.093  35.058  13.387
78214W        W50540  14.643  33.830   2.118
78215W        W50541  16.128   6.853  13.033
78216W        W50542   5.927  36.799  12.944
78217W        W50543  16.610   2.270   2.039
78218W        W50544  17.378  29.141   4.104
78219W        W50545  26.596  36.810   1.705
78220W        W50546   0.370  42.594  12.844
78221W        W50547  12.893  10.027  12.637
78222W        W50548  44.691   5.871  14.524
78223W        W50549  39.563  32.307  13.371
78224W        W50550   8.333  40.439   3.918
78225W        W50551  32.175  40.051  12.578
78226W        W50552  17.579  27.117   1.654
78227W        W50553  16.081   1.723   0.451
78228W        W50554  20.220  12.401   0.420
78229W        W50555  44.684  26.641  10.381
78230W        W50556  12.866  22.850   0.194
78231W        W50557   6.655   2.371   1.333
78232W        W50558   4.676  41.417   2.888
78233W        W50559  29.030  12.889   1.164
78234W        W50560  42.358  21.979  14.505
78235W        W50561   2.709  33.394   2.857
78236W        W50562  25.426   3.793  12.398
78237W        W50563   5.786  18.614   2.700
78238W        W50564  38.402  24.216  13.841
78239W        W50565  18.121  19.208  12.934
78240W        W50566  32.878  31.531  11.608
78241W        W50567  33.093  18.955   4.696
78242W        W50568   5.010  36.880   2.821
78243W        W50569  31.992  13.363  13.853
78244W        W50570   7.608  20.185  11.216
78245W        W50571  41.320  37.400   0.744
78246W        W50572  34.541   7.114   1.959
78247W        W50573  38.623  30.602   3.189
78248W        W50574  16.252  37.100  14.355
78249W        W50575  34.574  41.796   0.326
78250W        W50576  43.787  44.441   0.421
78251W        W50577  40.478  31.471   2.787
78252W        W50578   8.079  39.671   2.386
78253W        W50579  23.311   4.704  12.502
78254W        W50580  15.744  44.239  14.266
78255W        W50581  24.219  24.506  13.517
78256W        W50582  35.930  30.640  14.825
78257W        W50583  10.183   6.688   1.901
78258W        W50584  42.377  44.233  11.638
78259W        W50585   9.476   0.519   1.467
78260W        W50586   1.804  24.018   4.253
78261W        W50587   7.369  44.217  14.770
78262W        W50588  43.850   5.481  11.885
78263W        W50589   8.458  42.211   3.460
78264W        W50590  24.317   6.210   4.680
78265W        W50591  38.691   3.309   1.440
78266W        W50592  34.890  18.082  13.056
78267W        W50593  33.541  32.928   3.220
78268W        W50594  29.810  31.450  12.968
78269W        W50595  33.771  24.577  12.093
78270W        W50596   0.993  23.201  14.895
78271W        W50597  23.662  34.906  11.095
78272W        W50598  43.693  39.096  13.427
78273W        W50599  13.294  44.559   5.179
78274W        W50600  28.163  34.055  11.527
78275W        W50601  13.853   6.209  11.577
78276W        W50602  13.807  32.382   0.301
78277W        W50603  44.861  21.560   0.703
78278W        W50604  10.789  21.987   4.052
78279W        W50605   3.513  35.509   1.363
78280W        W50606  42.082  39.908   1.892
78281W        W50607  21.124  39.589  10.540
78282W        W50608  30.460  27.205   1.234
78283W        W50609  10.778  29.047   2.446
78284W        W50610  36.572  41.275   2.367
78285W        W50611   6.575  22.500  14.778
78286W        W50612  19.805  17.029  11.591
78287W        W50613   4.029  13.643  14.933
78288W        W50614  40.327  24.144   0.528
78289W        W50615  32.694  20.606  10.748
78290W        W50616  34.417  10.290  13.090
78291W        W50617   5.101  29.409   0.253
78292W        W50618  37.528  25.461   4.567
78293W        W50619  40.474  32.764  14.388
78294W        W50620   9.412  23.890   4.955
78295W        W50621  14.270  43.842  10.671
78296W        W50622  27.039  22.663   3.186
78297W        W50623  22.859  22.578   2.036
78298W        W50624  43.676  13.005  13.788
78299W        W50625   7.794  44.417   4.966
78300W        W50626   1.406  11.097  13.477
78301W        W50627  14.705  12.194   3.558
78302W        W50628  22.214  18.596   2.751
78303W        W50629  38.916  27.547  13.522
78304W        W50630  13.567   2.822   3.889
78305W        W50631   1.950   2.194   3.647
78306W        W50632  41.904  37.559   3.080
78307W        W50633  25.980  24.616   0.376
78308W        W50634  26.743   0.567   3.447
78309W        W50635  25.272   7.822  11.590
78310W        W50636   3.889  37.572  14.464
78311W        W50637   2.169  24.043  12.498
78312W        W50638  37.870   3.370  14.373
78313W        W50639  25.656  41.526   0.302
78314W        W50640  25.704  44.554   0.830
78315W        W50641   7.936  38.176  13.262
78316W        W50642  22.584  32.144   0.296
78317W        W50643  20.586  32.281   1.818
78318W        W50644  40.429  33.393   2.965
78319W        W50645   4.875   9.547   1.343
78320W        W50646  40.458  12.855  14.311
78321W        W50647  24.609  34.944  13.507
78322W        W50648  11.075   6.892   4.389
78323W        W50649  39.339  23.594  14.462
78324W        W50650  41.431   5.346  12.007
78325W        W50651  19.081  31.918   1.475
78326W        W50652  20.041  35.868  11.622
78327W        W50653  29.137  32.955  11.588
78328W        W50654  40.371  15.332  12.406
78329W        W50655  11.357  24.321   1.253
78330W        W50656  38.893  32.471   4.554
78331W        W50657   3.274  36.879  13.062
78332W        W50658  11.339  35.269   4.682
78333W        W50659  11.286  43.118  12.360
78334W        W50660  40.431  24.068  11.640
78335W        W50661  28.921  21.481  11.969
78336W        W50662  33.664  38.680   1.872
78337W        W50663  23.371   8.310  11.287
78338W        W50664  39.825  16.849  13.532
78339W        W50665  34.479  27.180   2.784
78340W        W50666   7.676  44.041   3.588
78341W        W50667  38.531  28.267   5.017
78342W        W50668  15.902   3.973  14.371
78343W        W50669   6.251  26.616   0.461
78344W        W50670  25.227  39.835   3.732
78345W        W50671   2.425  44.090   3.330
78346W        W50672  16.647  34.482   1.824
78347W        W50673  32.438  27.866   4.691
78348W        W50674  24.786   4.476  14.720
78349W        W50675  25.770  14.720   3.771
78350W        W50676  33.670  35.162   2.159
78351W        W50677  15.310  30.660  10.589
78352W        W50678  25.458  28.885  13.366
78353W        W50679   8.394  16.507  12.497
78354W        W50680  34.072   9.623   0.145
78355W        W50681  14.526  31.994  12.367
78356W        W50682  31.979  31.418  12.907
78357W        W50683  10.150   5.856  11.594
78358W        W50684  25.680  38.035   4.443
78359W        W50685  15.393  41.985  11.073
78360W        W50686   7.681  19.825   0.278
78361W        W50687  20.817   6.419  14.983
78362W        W50688  29.185   5.777   3.115
78363W        W50689  36.382  19.598   2.155
78364W        W50690   7.738  17.119  13.403
78365W        W50691  16.191  28.165   0.297
78366W        W50692  40.461   4.384   3.240
78367W        W50693  33.497  25.395  12.455
78368W        W50694  28.646  32.447  13.079
78369W        W50695   3.214  28.786   3.749
78370W        W50696  32.304  23.357   1.210
78371W        W50697  29.988  23.995   2.302
78372W        W50698   9.728  23.195  11.730
78373W        W50699  24.512   1.916   4.041
78374W        W50700   3.868  43.893   4.438
78375W        W50701  28.698  20.582   4.602
78376W        W50702  31.879  27.118   1.362
78377W        W50703  10.799  25.232   2.004
78378W        W50704  24.785   2.963   0.515
78379W        W50705   6.550  12.854  13.320
78380W        W50706   6.459  28.574   3.910
78381W        W50707  20.154  22.056  13.061
78382W        W50708  18.764  17.273  12.611
78383W        W50709  42.716  25.549  11.562
78384W        W50710  16.230  20.266   4.302
78385W        W50711  10.212  22.483   3.627
78386W        W50712  40.981  18.121  12.339
78387W        W50713  33.024  34.893   2.942
78388W        W50714  12.577  37.434   0.761
78389W        W50715  28.190  42.984   2.703
78390W        W50716  44.071  35.336   1.752
78391W        W50717  21.012  20.215   4.539
78392W        W50718  14.390  32.122   0.745
78393W        W50719   0.306  21.763   0.932
78394W        W50720  19.225  20.661   2.390
78395W        W50721  43.932  14.114  14.871
78396W        W50722  22.552  17.198   9.866
78397W        W50723  22.048  31.939  11.992
78398W        W50724  19.313  15.669   1.833
78399W        W50725  29.111  14.083   0.918
78400W        W50726  43.530  29.034   1.463
78401W        W50727  43.730  30.132  11.195
78402W        W50728  34.999   1.283  12.945
78403W        W50729  31.549  22.582  14.466
78404W        W50730  23.969  11.105   0.915
78405W        W50731   0.197  44.029   4.037
78406W        W50732  27.550   1.200   4.181
78407W        W50733  29.758  18.740  11.594
78408W        W50734  18.524  23.049   3.183
78409W        W50735  17.435   1.934   3.333
78410W        W50736  22.039  11.699   0.226
78411W        W50737  36.216  27.413   1.745
78412W        W50738  31.978  35.667   0.521
78413W        W50739  32.076   7.717   3.670
78414W        W50740   1.627  22.731   1.817
78415W        W50741  34.498  32.541  14.936
78416W        W50742  23.268  10.933  14.037
78417W        W50743  37.871   5.289  12.859
78418W        W50744   8.778  33.431   4.549
78419W        W50745  40.020  34.229   2.671
78420W        W50746  42.475   0.325   4.514
78421W        W50747  36.790  27.270  12.448
78422W        W50748  37.058  44.639  14.402
78423W        W50749   3.708   4.043   4.259
78424W        W50750  40.441  17.083  10.997
78425W        W50751  15.551  13.005  13.454
78426W        W50752  19.501  30.067  13.132
78427W        W50753  17.562  14.099  11.662
78428W        W50754   4.376  33.275  10.716
78429W        W50755  26.858  25.244   1.907
78430W        W50756  39.985  15.923  14.458
78431W        W50757  36.165  44.349  10.782
78432W        W50758  21.718  14.076  12.086
78433W        W50759  24.086  13.632   3.854
78434W        W50760  26.118   2.649  10.736
78435W        W50761  38.493  20.041  13.247
78436W        W50762  23.434  23.433  13.498
78437W        W50763  37.355  15.834  11.548
78438W        W50764  12.583  40.848  13.346
78439W        W50765  26.561  12.816   2.386
78440W        W50766  10.974  42.053   0.839
78441W        W50767  31.512  36.871   2.553
78442W        W50768   3.327   6.977  12.902
78443W        W50769   9.803  12.854   3.587
78444W        W50770  19.567  27.944   1.906
78445W        W50771   3.802   3.991   1.416
78446W        W50772   4.890   3.255  12.532
78447W        W50773   9.152  41.218   0.068
78448W        W50774  23.033  13.104  11.281
78449W        W50775  10.489  12.322   0.300
78450W        W50776  22.014  37.579   2.372
78451W        W50777  43.496  35.701  13.474
78452W        W50778   3.897  15.589   2.382
78453W        W50779  19.546  18.542   3.377
78454W        W50780  27.171   1.303   0.951
78455W        W50781  42.435  29.978  13.009
78456W        W50782  30.696   7.252   1.740
78457W        W50783  20.672  22.484   3.683
78458W        W50784  23.980  12.730  11.074
78459W        W50785  28.576  34.179  14.957
78460W        W50786   7.439  25.551   1.027
78461W        W50787   1.037  29.954   4.714
78462W        W50788  10.111  24.008   2.689
78463W        W50789  40.110  29.469   2.781
78464W        W50790  28.698  43.022   2.632
78465W        W50791  43.255  17.865   1.389
78466W        W50792  41.715  43.378  12.515
78467W        W50793  24.517   2.385   1.970
78468W        W50794  31.015  36.312  12.221
78469W        W50795   9.263  22.309  11.050
78470W        W50796   9.562  17.276   0.722
78471W        W50797  20.964  44.796   1.245
78472W        W50798  41.104  12.834   2.400
78473W        W50799  15.548  29.685   1.266
78474W        W50800  28.195  24.531   4.765
78475W        W50801  42.575  31.939   2.788
78476W        W50802  13.217   8.473  10.117
78477W        W50803  38.921  38.800  12.288
78478W        W50804  20.861  10.969   4.844
78479W        W50805  24.675  40.470   2.776
78480W        W50806  34.052  30.486  11.892
78481W        W50807  19.312   3.121   1.730
78482W        W50808  25.672  39.091   0.349
78483W        W50809  31.067  32.165  12.967
78484W        W50810  44.477  23.468   0.918
78485W        W50811   1.027  42.561  12.018
78486W        W50812  29.359  37.553   5.039
78487W        W50813  31.379  19.846   3.288
78488W        W50814   8.473  35.585   3.741
78489W        W50815  36.350  33.591  13.447
78490W        W50816  35.582  20.004   2.868
78491W        W50817   5.073   8.244   1.494
78492W        W50818  31.468  42.391  10.678
78493W        W50819   1.027  28.233   1.957
78494W        W50820  25.983  26.083   5.773
78495W        W50821  38.328  32.316   1.785
78496W        W50822  11.385   3.192  13.358
78497W        W50823  35.726  11.048   5.052
78498W        W50824  26.180  12.684  12.979
78499W        W50825  16.344   3.217   2.201
78500W        W50826  41.610  36.824  14.852
78501W        W50827  42.770   7.619  13.989
78502W        W50828   0.706  24.149   2.917
78503W        W50829   7.154   5.872  13.448
78504W        W50830  37.242   2.963  14.639
78505W        W50831  39.381   0.523   0.309
78506W        W50832   1.274  42.723   1.890
78507W        W50833   2.364  16.436   2.926
78508W        W50834   9.158   6.295   3.802
78509W        W50835  12.094   9.202  11.713
78510W        W50836   7.572   7.416  12.078
78511W        W50837  12.077  38.351  11.101
78512W        W50838   1.551  20.610   1.290
78513W        W50839  39.128  42.495   3.852
78514W        W50840  33.097   6.339   3.353
78515W        W50841  13.761  27.077  10.114
78516W        W50842  39.804   1.452   1.825
78517W        W50843   0.664  27.996   4.131
78518W        W50844  44.765   9.282  10.941
78519W        W50845   4.959  44.465   2.230
78520W        W50846   1.965  34.493  10.644
78521W        W50847   7.843  17.650   3.143
78522W        W50848   0.878   6.891  13.786
78523W        W50849  21.542  30.859  11.646
78524W        W50850  19.852  33.854   2.709
78525W        W50851  10.402  36.068   0.878
78526W        W50852  17.204  38.478   0.932
78527W        W50853  14.902  38.012  14.052
78528W        W50854  16.727  14.271  13.996
78529W        W50855  26.126  23.546   3.874
78530W        W50856  17.476  32.103   2.579
78531W        W50857  18.851  25.414   3.332
78532W        W50858  37.313  28.042   3.223
78533W        W50859  27.144  37.994  11.052
78534W        W50860   6.470  18.913   2.893
78535W        W50861  14.065   8.243   1.658
78536W        W50862  26.614  38.174  10.634
78537W        W50863  12.012   4.786   4.016
78538W        W50864  13.454  32.125  10.636
78539W        W50865  41.815  36.770  14.358
78540W        W50866  13.194  22.983  11.737
78541W        W50867   3.372   5.909  12.868
78542W        W50868  43.362  42.406  14.871
78543W        W50869   4.018  26.198  13.592
78544W        W50870  37.488  42.564  11.242
78545W        W50871  34.498  27.429  12.547
78546W        W50872   1.793  18.825  13.174
78547W        W50873  10.155  15.632  10.164
78548W        W50874  38.457  33.892   2.670
78549W        W50875   1.831  21.775   1.895
78550W        W50876  39.303  22.543   0.367
78551W        W50877  44.562  13.122   1.924
78552W        W50878   6.856  26.725  13.539
78553W        W50879  17.021  37.913  13.490
78554W        W50880  34.118  19.589   4.623
78555W        W50881  30.045  29.029   0.463
78556W        W50882   8.748  27.570  11.536
78557W        W50883  20.554  43.847  13.349
78558W        W50884   8.121  28.374  14.212
78559W        W50885  28.490  14.378  14.163
78560W        W50886  30.681   6.303   0.297
78561W        W50887  22.024  34.380   1.659
78562W        W50888  37.588  17.310  14.250
78563W        W50889   6.884   2.797   3.669
78564W        W50890   1.505  22.130  10.538
78565W        W50891  21.680  33.938   1.680
78566W        W50892  20.596   1.406   1.346
78567W        W50893   3.097  13.135  10.741
78568W        W50894  44.704  10.160  11.097
78569W        W50895  17.779  24.165   4.487
78570W        W50896  26.065  39.329   0.749
78571W        W50897  34.868   7.809   0.658
78572W        W50898  40.500   4.176   3.705
78573W        W50899  37.041   2.766  13.211
78574W        W50900  34.035  15.112  10.932
78575W        W50901  20.179  38.090  13.241
78576W        W50902  29.944  21.510   0.847
78577W        W50903  30.619  40.806  10.664
78578W        W50904  20.541  34.909  10.826
78579W        W50905  14.749  36.569  14.940
78580W        W50906  39.504  30.212  14.384
78581W        W50907  20.802  43.116   2.671
78582W        W50908  31.059  13.231  11.073
78583W        W50909   2.472  17.172  10.672
78584W        W50910   6.260  31.924   2.750
78585W        W50911  33.455   2.918  12.451
78586W        W50912  29.418  32.987   4.796
78587W        W50913  36.749  37.066  13.984
78588W        W50914  13.350  12.820  10.816
78589W        W50915  37.460  22.421   3.945
78590W        W50916  20.455  26.496   2.374
78591W        W50917  33.893  24.854   3.918
78592W        W50918  22.755  21.810   2.565
78593W        W50919  24.998   0.938   2.335
78594W        W50920  30.081  17.582  12.630
78595W        W50921  35.386  12.654   4.582
78596W        W50922  10.273  37.504   0.860
78597W        W50923   5.696  22.759  13.547
78598W        W50924  20.510   4.441  12.855
78599W        W50925  30.843   6.867  14.171
78600W        W50926   7.064  41.503  11.703
78601W        W50927  41.017   9.716  13.839
78602W        W50928   6.477  28.449  10.643
78603W        W50929  17.909  21.688  12.384
78604W        W50930   1.529  41.871   1.425
78605W        W50931  14.877  28.106  11.516
78606W        W50932  20.993  21.602   0.973
78607W        W50933  18.238   2.921   2.671
78608W        W50934  39.911   3.688  14.375
78609W        W50935  38.950  23.602   1.494
78610W        W50936  39.477  26.261   1.261
78611W        W50937  10.731   4.639  10.666
78612W        W50938  30.969  40.788  14.024
78613W        W50939  41.905  39.211   0.824
78614W        W50940   0.993   5.223  12.892
78615W        W50941  15.341  38.086  11.154
78616W        W50942  11.912  27.840   1.727
78617W        W50943  39.550  42.794  13.984
78618W        W50944  33.903   7.167  12.042
78619W        W50945  31.900  19.163  12.412
78620W        W50946   7.607  43.381  12.847
78621W        W50947   2.921  23.089  12.067
78622W        W50948  38.983  40.466   3.667
78623W        W50949  16.641  30.392   4.100
78624W        W50950  43.105  21.155   1.410
78625W        W50951   9.830  33.822   0.590
78626W        W50952  34.890  36.063  11.948
78627W        W50953  25.529  15.175   3.808
78628W        W50954  23.218   3.525  12.108
78629W        W50955   9.255  20.774  10.852
78630W        W50956  17.536  38.983   0.912
78631W        W50957  19.565  26.297  13.271
78632W        W50958   4.715   9.555   2.697
78633W        W50959  18.237  12.303   0.773
78634W        W50960  43.553  15.703   4.625
78635W        W50961  15.325   9.354  10.966
78636W        W50962  10.281  23.426  14.385
78637W        W50963  14.678   5.372  11.594
78638W        W50964  43.377  30.015  12.399
78639W        W50965  28.673   1.284   2.744
78640W        W50966  15.599  20.701  13.080
78641W        W50967  13.571   3.974  12.507
78642W        W50968   6.131  41.141  11.962
78643W        W50969  36.793   4.170   4.167
78644W        W50970  12.495   8.944  14.867
78645W        W50971  26.457  40.383   0.443
78646W        W50972  20.473  24.947   3.315
78647W        W50973   6.104   8.664   4.925
78648W        W50974   7.945   0.871   4.676
78649W        W50975  11.245   5.497   3.285
78650W        W50976  33.591  21.612   3.438
78651W        W50977  19.788  38.030   2.690
78652W        W50978   4.716   6.031   2.822
78653W        W50979  33.112  42.802   2.317
78654W        W50980  36.845   1.466  13.794
78655W        W50981  16.547  10.252   0.220
78656W        W50982  24.159  18.607  11.181
78657W        W50983  17.331  37.456   1.199
78658W        W50984  22.162  25.533  11.730
78659W        W50985   8.704  42.286  13.734
78660W        W50986  21.044  44.537  11.920
78661W        W50987   7.412   1.244   3.288
78662W        W50988  17.651  35.398   3.200
78663W        W50989  21.142   0.986   3.136
78664W        W50990  24.700  33.927  11.064
78665W        W50991  44.748  22.167   4.186
78666W        W50992  39.833   2.190  14.448
78667W        W50993   5.296   6.827   2.980
78668W        W50994   3.291  31.444  14.871
78669W        W50995  27.781  14.726  11.533
78670W        W50996  23.817  36.877  12.952
78671W        W50997   4.716  40.016  10.693
78672W        W50998  24.898  36.169  14.135
78673W        W50999  40.081  16.093  11.074
78674W        W51000   3.931   8.020   4.502
78675W        W51001  40.217  24.426  11.246
78676W        W51002  24.237   5.727  11.883
78677W        W51003  30.492  37.530  10.706
78678W        W51004  39.046  36.921  14.483
78679W        W51005  11.105   2.985   2.009
78680W        W51006  41.170   7.219  14.569
78681W        W51007   7.662  31.099  14.526
78682W        W51008   7.738  23.473   1.270
78683W        W51009  23.470  19.029  11.530
78684W        W51010  11.661  29.722   1.129
78685W        W51011   2.684  17.655  12.358
78686W        W51012   1.727  10.477   1.134
78687W        W51013  35.931  14.290  14.328
78688W        W51014   6.391  44.802   3.679
78689W        W51015  14.613   3.720  14.806
78690W        W51016  10.107   6.101   9.561
78691W        W51017  11.657  35.547   3.894
78692W        W51018  44.578   9.700   3.202
78693W        W51019   1.030  36.534  12.536
78694W        W51020  42.894   5.658   2.314
78695W        W51021   0.317  40.787  13.109
78696W        W51022  42.403  33.391  10.718
78697W        W51023  35.076   1.448   2.439
78698W        W51024   2.373   2.537  14.580
78699W        W51025  39.444  30.256   0.004
78700W        W51026   8.796  12.838  10.711
78701W        W51027  12.215  26.930  14.490
78702W        W51028  37.585  26.223   1.500
78703W        W51029  21.005  43.060   0.897
78704W        W51030  20.483  38.919   0.343
78705W        W51031  16.481  35.494   4.115
78706W        W51032  22.100  37.114   2.663
78707W        W51033  26.114  35.471  12.035
78708W        W51034   5.851  19.807   1.789
78709W        W51035  38.398  39.439   1.825
78710W        W51036   0.655  27.134   1.267
78711W        W51037  31.488  13.293   0.051
78712W        W51038   0.672  34.826  11.566
78713W        W51039  21.494  44.793   2.414
78714W        W51040  29.177  19.623   4.204
78715W        W51041  36.535  17.143  14.015
78716W        W51042  13.264  30.072  10.829
78717W        W51043   0.198  43.391  11.632
78718W        W51044  41.830  27.655   2.171
78719W        W51045  17.826  40.047  13.347
78720W        W51046  22.724  23.530  14.663
78721W        W51047   8.172   2.513   2.877
78722W        W51048  41.710  22.296   1.290
78723W        W51049  11.578  38.485   1.817
78724W        W51050  22.054  36.690  13.468
78725W        W51051  12.132   4.811   5.026
78726W        W51052  38.397  35.011  13.801
78727W        W51053  33.192  42.920  12.524
78728W        W51054  22.773  22.577  12.480
78729W        W51055   3.887  22.021  14.912
78730W        W51056  35.096  28.014  14.185
78731W        W51057  22.038  25.705  14.935
78732W        W51058  17.737  14.292   1.673
78733W        W51059  13.722  36.063   3.400
78734W        W51060   1.185  36.080   1.479
78735W        W51061  36.946  36.250   1.493
78736W        W51062   8.788   5.119  10.670
78737W        W51063  22.194  43.562   2.695
78738W        W51064  17.097  15.759  10.941
78739W        W51065  29.701  12.014  11.958
78740W        W51066   3.120  23.990  11.577
78741W        W51067  17.129   4.729   2.679
78742W        W51068  40.782   2.960  10.447
78743W        W51069  30.891   9.689   3.174
78744W        W51070  25.518  43.651   3.693
78745W        W51071   6.244  24.198   3.606
78746W        W51072  19.533  38.454  12.694
78747W        W51073  42.014  13.208   3.808
78748W        W51074  25.817   3.177   1.684
78749W        W51075  38.991  32.442  14.373
78750W        W51076  19.346  28.435  14.954
78751W        W51077  18.319   8.728   4.613
78752W        W51078  28.603  38.320  13.493
78753W        W51079  34.191  24.258   0.504
78754W        W51080  17.628  39.385   1.796
78755W        W51081  29.443  17.872   4.512
78756W        W51082  17.259   5.003   1.386
78757W        W51083  26.293   6.735  14.733
78758W        W51084   9.853  27.739   4.950
78759W        W51085  11.657  18.684  13.360
78760W        W51086  11.119  28.885   3.599
78761W        W51087  29.821  27.645  10.943
78762W        W51088  28.656   8.789  14.024
78763W        W51089  42.523  35.583   4.124
78764W        W51090  24.541  32.911  12.957
78765W        W51091  43.899   6.876   2.605
78766W        W51092  42.933  34.544   2.844
78767W        W51093  15.108  31.665  13.861
78768W        W51094   9.170   4.672  12.116
78769W        W51095  15.251   8.592  14.392
78770W        W51096   1.741  12.629  10.931
78771W        W51097  10.343  29.670  13.900
78772W        W51098  36.933  36.091  11.486
78773W        W51099  15.341  29.659   0.383
78774W        W51100  26.260   8.669   2.124
78775W        W51101  23.806   8.142  13.601
78776W        W51102  24.033   2.450  10.802
78777W        W51103  32.394   7.318  14.760
78778W        W51104  18.732  18.302   0.390
78779W        W51105   1.893  24.637  11.564
78780W        W51106  42.070   9.407  11.949
78781W        W51107   3.833   9.987   4.598
78782W        W51108  15.190  23.688   1.875
78783W        W51109   9.912   8.758  11.949
78784W        W51110  41.860  10.408   2.334
78785W        W51111   3.723   1.848  11.182
78786W        W51112  19.337   7.075   2.698
78787W        W51113  35.484  12.054  11.192
78788W        W51114  13.217  21.145  11.925
78789W        W51115   3.281  22.183  12.350
78790W        W51116  18.599  13.849  11.694
78791W        W51117   2.535  15.338  11.702
78792W        W51118  28.744  36.082   1.228
78793W        W51119  26.371  21.333   3.575
78794W        W51120  35.021  11.190   2.789
78795W        W51121   9.682  44.482  12.991
78796W        W51122  19.552  14.481  11.257
78797W        W51123  30.607  39.816  13.873
78798W        W51124   6.898   2.995   2.270
78799W        W51125   1.961  12.067   5.515
78800W        W51126  18.307  39.782   4.538
78801W        W51127   0.313  44.766   2.610
78802W        W51128  12.157  16.010  13.922
78803W        W51129  17.509   1.149   3.423
78804W        W51130   8.147   7.414  12.262
78805W        W51131  40.803   1.973   1.279
78806W        W51132  33.077  32.429   1.192
78807W        W51133  13.155  35.894  14.813
78808W        W51134   8.806  41.038   3.206
78809W        W51135  27.015  33.975  13.290
78810W        W51136   6.310  14.536  14.507
78811W        W51137  35.829  17.798  12.632
78812W        W51138   7.329  21.003   0.688
78813W        W51139  42.866  21.838  13.335
78814W        W51140   5.850   3.692   3.300
78815W        W51141  19.604   1.306  11.485
78816W        W51142  31.398  23.468   3.235
78817W        W51143   4.743  19.670  11.413
78818W        W51144  38.354  43.926  11.682
78819W        W51145  31.498  16.576   2.265
78820W        W51146  33.102  16.800   1.687
78821W        W51147  31.350  44.380  14.339
78822W        W51148  36.807  25.341  14.571
78823W        W51149  20.805  41.085  14.824
78824W        W51150  31.681  37.855  11.002
78825W        W51151  23.938  31.631  13.575
78826W        W51152  15.855  24.625   1.195
78827W        W51153  28.158   7.623  14.878
78828W        W51154  25.288   4.803   4.100
78829W        W51155  15.797  30.521   4.556
78830W        W51156  14.388  18.631   0.541
78831W        W51157   3.541  27.091   1.288
78832W        W51158  43.852  38.810   3.330
78833W        W51159  30.928  40.262  12.126
78834W        W51160  22.066  31.741  14.972
78835W        W51161  25.102   4.300   0.460
78836W        W51162   5.464  14.849  10.653
78837W        W51163  15.727   8.161  14.537
78838W        W51164  27.614  36.536  13.926
78839W        W51165  14.228  16.187   0.305
78840W        W51166  22.193  30.108   0.759
78841W        W51167   4.334  31.678  11.468
78842W        W51168  25.693  21.210   0.378
78843W        W51169  33.490  39.330   4.420
78844W        W51170  39.834   0.852  14.621
78845W        W51171  37.459  26.572  10.883
78846W        W51172  12.369  12.216   0.677
78847W        W51173  30.519  26.662   0.264
78848W        W51174  32.860   4.345  11.909
78849W        W51175  20.052  29.621  14.744
78850W        W51176  15.820  12.727   2.688
78851W        W51177  10.306  27.862  11.510
78852W        W51178  10.276   7.510  13.794
78853W        W51179  42.474   3.932   2.376
78854W        W51180  12.307  18.625  12.630
78855W        W51181  36.532   8.266  10.656
78856W        W51182  25.949  25.095   3.757
78857W        W51183  25.143  19.713  11.957
78858W        W51184   1.872  34.002  12.589
78859W        W51185  21.210  28.393   0.775
78860W        W51186  43.932  37.289   1.005
78861W        W51187  29.520  27.516   2.920
78862W        W51188   1.021  21.132  10.635
78863W        W51189  34.046  14.041  11.605
78864W        W51190   4.492  37.557  10.611
78865W        W51191  34.113   7.640   3.177
78866W        W51192  24.760  34.507  14.971
78867W        W51193  32.162  33.962  14.899
78868W        W51194  14.918  31.102  11.275
78869W        W51195   8.641  21.727   2.340
78870W        W51196  33.484  24.064   3.657
78871W        W51197  41.303  13.310   1.657
78872W        W51198   8.858  15.690  11.415
78873W        W51199  11.161  29.860   4.074
78874W        W51200  23.574  27.051   1.979
78875W        W51201  42.211   1.903   3.657
78876W        W51202   7.168  24.166  14.574
78877W        W51203  44.744  43.306   0.888
78878W        W51204  38.337   0.551  14.891
78879W        W51205  21.031  13.624  11.658
78880W        W51206   9.322   6.487   2.293
78881W        W51207  31.220  39.307   0.333
78882W        W51208  28.196  40.039   0.447
78883W        W51209  25.690  37.808  10.999
78884W        W51210  11.103  39.027   5.004
78885W        W51211  34.023  31.713  14.013
78886W        W51212   3.867  15.877   1.332
78887W        W51213  38.734   0.371  10.488
78888W        W51214  38.572  23.652   0.540
78889W        W51215  16.083  35.569   3.171
78890W        W51216   1.454  10.586  13.544
78891W        W51217   4.366   1.999  11.546
78892W        W51218  41.181   6.016  14.936
78893W        W51219  14.216   4.913  13.456
78894W        W51220   9.942  37.923  10.762
78895W        W51221  26.021  24.186  11.437
78896W        W51222  33.851   1.496   3.142
78897W        W51223   2.192  10.713   2.446
78898W        W51224  11.746  40.818  11.085
78899W        W51225  18.082  34.816  11.437
78900W        W51226  21.161   2.301   3.896
78901W        W51227  35.349  30.595  12.466
78902W        W51228  32.608   7.671  13.454
78903W        W51229  35.823  36.128   1.663
78904W        W51230  38.902  31.056   9.937
78905W        W51231  20.366  10.459  14.960
78906W        W51232  12.297   5.371   3.798
78907W        W51233  33.475   4.048   4.615
78908W        W51234  13.665  17.973   1.426
78909W        W51235  18.213  22.156  12.465
78910W        W51236  43.022   1.277  13.145
78911W        W51237   3.341   9.342   1.214
78912W        W51238  37.419  24.623   2.780
78913W        W51239  20.753  15.473   3.895
78914W        W51240  10.395  37.628   0.360
78915W        W51241  14.254   8.775  11.246
78916W        W51242  23.022  14.725  10.432
78917W        W51243   7.638  34.418   4.304
78918W        W51244  34.845   9.820   1.593
78919W        W51245  11.275  20.266   0.417
78920W        W51246  41.740  10.893   2.692
78921W        W51247  23.096  10.103  13.524
78922W        W51248  30.652   9.233   0.683
78923W        W51249  39.445  42.165   0.040
78924W        W51250  38.779  15.299  10.293
78925W        W51251  15.106  21.500  14.710
78926W        W51252  24.952  42.410   2.316
78927W        W51253  30.431  31.443   1.361
78928W        W51254   4.226  25.685  11.022
78929W        W51255  43.251  27.535  14.147
78930W        W51256   3.862   6.717  10.690
78931W        W51257  10.811   6.285  14.811
78932W        W51258   1.291  11.835   3.547
78933W        W51259  31.985   4.321   2.455
78934W        W51260  23.937  32.532   4.154
78935W        W51261  19.995  37.858  11.425
78936W        W51262  39.764  43.727  11.572
78937W        W51263  37.907   9.647  11.582
78938W        W51264  35.647  43.821  13.931
78939W        W51265   1.479   3.254  13.469
78940W        W51266  13.018  42.893   4.582
78941W        W51267  39.435  38.174  12.305
78942W        W51268  39.575  34.375   3.591
78943W        W51269  25.460  42.251  14.822
78944W        W51270  36.822  39.091  13.090
78945W        W51271  17.750  13.632  13.914
78946W        W51272   2.218  28.439  11.634
78947W        W51273   1.962  40.371  11.885
78948W        W51274  22.115  28.901  12.995
78949W        W51275   4.462   8.311  13.485
78950W        W51276  40.565   6.097  12.403
78951W        W51277  36.377  17.681   2.261
78952W        W51278  43.721  40.347   4.372
78953W        W51279   5.266  36.809  12.505
78954W        W51280  22.578  43.245   0.401
78955W        W51281  37.237   8.346  10.237
78956W        W51282   3.364  23.281  11.888
78957W        W51283  25.785  18.190  13.377
78958W        W51284  26.713  28.502  13.895
78959W        W51285   6.912  34.516  11.927
78960W        W51286  10.794   1.783  12.148
78961W        W51287  25.362   5.808   5.144
78962W        W51288  39.245  34.078  14.884
78963W        W51289  39.753  42.319  12.869
78964W        W51290  16.744   7.876   2.115
78965W        W51291  30.551  15.119   4.521
78966W        W51292  29.691  28.700  13.399
78967W        W51293  24.006  34.451   4.421
78968W        W51294   6.491  17.363  12.519
78969W        W51295  39.007  11.806   1.249
78970W        W51296  37.181   3.179  12.939
78971W        W51297  37.926  19.489  13.010
78972W        W51298  28.980  13.685   4.110
78973W        W51299  19.606  37.947   3.694
78974W        W51300  26.043  17.603  14.926
78975W        W51301  43.846  21.428   3.733
78976W        W51302   9.606  15.369  13.377
78977W        W51303  42.861  18.929  14.964
78978W        W51304  29.161  22.801   1.206
78979W        W51305  43.953  44.429   2.294
78980W        W51306  26.557  29.058  14.743
78981W        W51307  40.268  23.404  11.123
78982W        W51308  25.143  18.005  12.451
78983W        W51309  41.822  39.458   2.637
78984W        W51310  42.950  28.153  11.655
78985W        W51311   3.257   6.796  13.993
78986W        W51312  28.950  42.194   4.067
78987W        W51313  43.885  11.918   0.452
78988W        W51314   2.845  12.154   0.524
78989W        W51315  36.136  32.141   0.807
78990W        W51316   2.026   8.109   0.747
78991W        W51317   7.236   5.938   1.908
78992W        W51318   3.534  21.542   2.636
78993W        W51319  31.375  23.891  13.464
78994W        W51320  29.621  23.896   1.922
78995W        W51321   0.252  30.411  11.168
78996W        W51322  27.603  35.247   4.104
78997W        W51323  12.836  19.054   4.340
78998W        W51324  26.780   6.198   4.093
78999W        W51325  44.743  36.889   4.050
79000W        W51326  15.790  40.067   4.000
79001W        W51327   7.901  18.950  13.040
79002W        W51328  17.805  18.302   2.847
79003W        W51329  18.409  29.116  10.261
79004W        W51330  18.572  25.153   4.572
79005W        W51331  31.037   0.514   4.843
79006W        W51332  26.732  40.511   1.549
79007W        W51333  43.973  20.773  14.117
79008W        W51334  23.149  14.047   2.323
79009W        W51335  18.349   3.255  14.952
79010W        W51336  37.302  30.094  13.430
79011W        W51337   9.804  37.870   2.796
79012W        W51338   2.626   5.227   4.227
79013W        W51339  17.228  23.528   2.882
79014W        W51340  44.471  19.355  13.574
79015W        W51341  28.707  24.191  12.573
79016W        W51342   5.109  23.974  11.561
79017W        W51343   8.885  16.204  11.671
79018W        W51344   3.799   0.656   2.698
79019W        W51345  36.623  37.782   0.431
79020W        W51346   0.290  43.937  14.322
79021W        W51347  32.911  13.746   2.819
79022W        W51348  26.716  22.769  13.067
79023W        W51349  14.308   5.701  12.668
79024W        W51350   4.628   8.955  10.237
79025W        W51351  34.946  38.129   4.041
79026W        W51352  36.872   3.568   0.879
79027W        W51353  39.104  42.981   0.692
79028W        W51354  14.127   4.868   2.744
79029W        W51355  24.380  29.828  10.804
79030W        W51356  13.796   9.578   3.380
79031W        W51357  10.405  27.786   0.605
79032W        W51358  20.248  16.088   0.278
79033W        W51359  11.998  42.019  10.672
79034W        W51360  22.437  20.714   4.391
79035W        W51361  22.467  30.513  13.478
79036W        W51362  38.611  24.146  14.489
79037W        W51363  34.885  19.655  13.800
79038W        W51364   8.176  34.352  13.112
79039W        W51365  25.475   0.081   3.630
79040W        W51366   5.337   1.866  14.455
79041W        W51367  33.978  40.442  14.018
79042W        W51368  37.529  33.790  12.297
79043W        W51369  42.263  21.670   3.474
79044W        W51370  33.396  34.917  11.519
79045W        W51371  16.837   1.870   1.829
79046W        W51372  28.570  20.657   3.057
79047W        W51373  28.957  24.898   0.828
79048W        W51374  41.041  32.468   0.179
79049W        W51375  43.589  16.475  13.517
79050W        W51376  28.371  31.096   1.691
79051W        W51377  21.003   6.856  12.014
79052W        W51378  15.306  21.044   2.349
79053W        W51379  35.993   9.931   3.518
79054W        W51380   3.452  43.223  13.493
79055W        W51381  35.514  21.656  12.065
79056W        W51382   7.265  26.972  11.618
79057W        W51383   4.121   8.389   1.377
79058W        W51384  27.191  38.949   2.275
79059W        W51385  20.295   8.846  12.853
79060W        W51386  22.978  20.137   1.904
79061W        W51387  11.262   8.187   1.893
79062W        W51388  15.153  32.487   4.330
79063W        W51389  29.139  39.909  11.574
79064W        W51390   8.632  34.977  11.200
79065W        W51391  29.922  44.974   2.211
79066W        W51392   1.045  22.968  14.427
79067W        W51393  40.459  31.676   2.293
79068W        W51394  10.385  39.234   1.938
79069W        W51395  34.583  36.520   3.209
79070W        W51396  32.179  14.707   2.223
79071W        W51397   0.823   7.415  13.857
79072W        W51398   1.944  38.836   2.212
79073W        W51399  12.220   0.864  13.901
79074W        W51400  10.168  35.448   0.577
79075W        W51401  42.994  28.475  10.564
79076W        W51402  15.643  35.839   3.321
79077W        W51403   5.761  26.995  10.648
79078W        W51404  19.909  17.661   1.719
79079W        W51405  33.508   7.254   4.199
79080W        W51406  15.356  34.861   4.592
79081W        W51407  30.192  20.560  12.968
79082W        W51408  26.748  19.693  10.722
79083W        W51409  22.645  40.996   3.238
79084W        W51410  31.030  34.071   4.387
79085W        W51411  33.767  14.391  10.324
79086W        W51412  34.811  30.617  11.167
79087W        W51413  22.355  29.563  11.212
79088W        W51414  14.429   0.710  12.720
79089W        W51415  28.435   8.649   1.416
79090W        W51416  16.177  22.508   2.848
79091W        W51417  31.819  26.577   4.400
79092W        W51418  13.442  33.589   1.828
79093W        W51419  41.481  20.833  13.445
79094W        W51420  10.954   3.624  10.721
79095W        W51421  39.204   6.445  14.977
79096W        W51422  15.205   9.891   4.568
79097W        W51423  23.774  19.275   1.745
79098W        W51424  26.250  32.555  12.856
79099W        W51425  16.646  40.544   2.656
79100W        W51426  40.325  16.299  14.295
79101W        W51427  25.177   5.241   2.696
79102W        W51428  13.698  13.279   4.665
79103W        W51429  19.750  15.125  11.886
79104W        W51430  34.860  29.129   0.657
79105W        W51431  39.227  24.589   2.394
79106W        W51432  11.666  41.843   3.770
79107W        W51433  42.750   6.747   0.130
79108W        W51434  26.861  40.809  14.422
79109W        W51435  11.695  13.236  11.328
79110W        W51436  37.348   0.689  11.639
79111W        W51437  42.829  30.041  14.934
79112W        W51438  11.147   1.984   2.191
79113W        W51439  37.491  23.043   4.581
79114W        W51440  44.349  39.353  10.588
79115W        W51441   7.016  30.104  11.135
79116W        W51442   6.116   3.334  11.814
79117W        W51443   0.654  20.863  10.234
79118W        W51444   3.115  12.640  11.037
79119W        W51445  23.767  27.974   2.754
79120W        W51446  20.200  34.403   4.697
79121W        W51447   4.575   8.235  14.825
79122W        W51448  21.256   8.661   0.883
79123W        W51449  23.023   1.866  13.621
79124W        W51450  12.200   7.156   4.181
79125W        W51451   6.278  43.928   2.092
79126W        W51452  31.403  19.222   2.824
79127W        W51453   3.009   2.726   0.395
79128W        W51454  26.205   4.497   0.446
79129W        W51455  35.848  43.929  12.056
79130W        W51456  29.924  43.352   0.286
79131W        W51457  26.459   1.954   2.923
79132W        W51458   0.776  37.279   4.511
79133W        W51459  38.806  10.157  11.597
79134W        W51460  42.473   5.645   2.632
79135W        W51461  38.342  16.068   0.732
79136W        W51462  43.033   0.392  13.460
79137W        W51463  11.770  12.050  10.676
79138W        W51464  14.742  43.953  13.090
79139W        W51465  30.423  20.234   3.808
79140W        W51466  34.358   7.448  12.748
79141W        W51467  39.036   0.248   2.496
79142W        W51468  22.192   3.448  12.956
79143W        W51469   8.737  29.530  14.961
79144W        W51470  39.674  19.256   4.042
79145W        W51471  20.698  11.209  12.496
79146W        W51472  31.481  41.317   1.039
79147W        W51473  18.706  33.912   4.356
79148W        W51474   4.028   8.237  11.202
79149W        W51475  24.125  37.809  12.543
79150W        W51476  20.055   9.183   4.252
79151W        W51477  17.184  13.349   0.233
79152W        W51478  44.738   3.804   2.712
79153W        W51479   5.246  39.806   0.995
79154W        W51480  25.463  16.891  12.621
79155W        W51481  17.298  30.099  14.003
79156W        W51482  23.743  22.582   5.109
79157W        W51483  23.740  15.238  14.509
79158W        W51484   0.294   8.781   1.760
79159W        W51485  24.512   4.687  10.875
79160W        W51486   5.398  43.316  14.560
79161W        W51487  12.391  42.048   4.104
79162W        W51488  39.048   1.411   0.369
79163W        W51489  32.678  43.445  11.255
79164W        W51490  35.397   1.183  12.268
79165W        W51491  22.936   9.644  10.632
79166W        W51492   3.280  44.808  12.897
79167W        W51493  44.414   5.736  10.955
79168W        W51494  21.467  43.334  13.602
79169W        W51495   3.293  16.358   3.713
79170W        W51496  24.953  13.634   3.781
79171W        W51497  24.446   7.427   3.444
79172W        W51498  34.032  37.810  14.287
79173W        W51499   5.627  34.962   0.303
79174W        W51500   7.884  38.805  14.733
79175W        W51501  11.315  17.055  12.851
79176W        W51502  18.748  33.837   1.951
79177W        W51503   9.691   1.343   0.311
79178W        W51504   4.485   0.422  10.763
79179W        W51505  31.871  27.102  13.407
79180W        W51506  16.120  32.142   3.789
79181W        W51507  24.613  41.156  12.444
79182W        W51508   9.597  35.896  13.447
79183W        W51509  33.986  34.805  12.166
79184W        W51510  30.964  30.437   5.081
79185W        W51511  16.137  11.147   1.396
79186W        W51512  11.905  26.511   9.857
79187W        W51513   2.741  23.970  14.781
79188W        W51514  38.032  36.934   2.330
79189W        W51515  21.768  35.440   3.125
79190W        W51516  28.405  32.669  13.483
79191W        W51517   0.769   4.743   4.568
79192W        W51518  16.770   8.928  12.154
79193W        W51519  17.107  35.186   2.402
79194W        W51520  12.695  27.242   2.641
79195W        W51521  20.739  38.304   3.133
79196W        W51522   5.793  15.612   4.330
79197W        W51523  32.379  29.151   2.146
79198W        W51524  33.077  38.537  11.592
79199W        W51525   3.961   7.651   1.024
79200W        W51526  24.480  16.661  13.724
79201W        W51527  19.246   5.726  13.746
79202W        W51528  40.393  40.984   0.214
79203W        W51529  22.653   0.449   2.394
79204W        W51530   1.702  43.417   2.718
79205W        W51531  25.064  39.423   4.039
79206W        W51532   3.316  22.408   3.446
79207W        W51533  37.822   5.901   1.227
79208W        W51534   4.405  41.080   0.213
79209W        W51535  18.287  38.568  13.722
79210W        W51536   4.798  41.793   4.575
79211W        W51537  25.061  32.486  13.980
79212W        W51538  21.732  10.536   2.790
79213W        W51539  42.960  44.568  11.012
79214W        W51540  11.270  39.514  10.615
79215W        W51541  40.285   4.198  12.089
79216W        W51542  42.294  28.576   1.418
79217W        W51543  38.988   0.361   3.543
79218W        W51544  23.588  28.507  10.734
79219W        W51545   7.241  40.781   1.730
79220W        W51546  24.564  32.649  13.886
79221W        W51547   5.796  25.848   1.841
79222W        W51548  22.755  21.765   0.231
79223W        W51549  29.941  38.681   3.710
79224W        W51550  19.499  41.356   0.892
79225W        W51551  26.209   1.635  13.473
79226W        W51552  38.495  30.335   1.847
79227W        W51553  22.716  22.130   4.405
79228W        W51554  22.880  35.634   2.796
79229W        W51555  37.897  25.939  11.090
79230W        W51556   2.435  34.413   2.243
79231W        W51557  34.987   1.520  12.471
79232W        W51558  40.575   8.989   1.393
79233W        W51559  41.289  33.110  13.421
79234W        W51560   9.710  13.979  11.249
79235W        W51561  16.755  26.750  14.398
79236W        W51562   4.925  31.927  12.102
79237W        W51563  40.513  21.596   1.485
79238W        W51564  19.805  38.305  11.231
79239W        W51565   7.369   2.092   3.709
79240W        W51566  21.964  35.566   2.652
79241W        W51567  36.459  11.574  12.862
79242W        W51568   9.412  40.916   2.200
79243W        W51569   9.100  37.653   5.070
79244W        W51570  23.575  34.613   4.145
79245W        W51571  44.291  26.774   1.823
79246W        W51572  24.043   4.832   1.198
79247W        W51573   2.514   0.540  11.135
79248W        W51574  11.748  27.592   2.395
79249W        W51575   1.811  11.111  12.601
79250W        W51576  41.458  43.491  14.408
79251W        W51577   0.582  12.011   4.948
79252W        W51578   2.207   2.826   0.873
79253W        W51579  32.491   0.340   4.115
79254W        W51580  18.782  13.364   3.772
79255W        W51581   2.841   3.930  12.485
79256W        W51582  18.233  39.963   2.291
79257W        W51583   2.177  21.104   5.413
79258W        W51584  36.369  28.654  13.107
79259W        W51585   4.674  18.201  14.610
79260W        W51586  34.521   5.037   4.998
79261W        W51587  10.534  25.647  10.239
79262W        W51588  10.826  19.539  13.942
79263W        W51589  29.306  32.518   3.640
79264W        W51590  21.009   6.988  14.470
79265W        W51591  22.951  27.762   4.550
79266W        W51592  28.325  29.561   2.242
79267W        W51593  17.881  14.638  13.990
79268W        W51594  26.565  24.733  14.152
79269W        W51595   2.674  30.649   4.273
79270W        W51596  12.348  40.481  14.927
79271W        W51597  11.882  26.065   2.375
79272W        W51598  10.177   8.836   1.396
79273W        W51599  41.057  34.238   4.989
79274W        W51600   5.204  15.335   0.895
79275W        W51601  31.151  24.082  10.542
79276W        W51602  44.293  11.945   3.652
79277W        W51603  37.967  44.881  14.153
79278W        W51604  28.048  40.638   3.396
79279W        W51605  31.956  20.056   1.985
79280W        W51606  30.976  17.632  11.062
79281W        W51607  32.061   4.150   4.213
79282W        W51608  15.345  19.732   4.330
79283W        W51609   2.215  26.763  11.207
79284W        W51610  38.072   8.313  14.700
79285W        W51611  37.142  10.834   4.252
79286W        W51612  33.124   4.088   1.680
79287W        W51613   7.498  38.835   2.365
79288W        W51614  13.115  22.735  12.200
79289W        W51615  11.806  44.752  14.411
79290W        W51616   6.326   3.782  11.939
79291W        W51617  11.935  28.549  11.445
79292W        W51618   4.895  15.775  13.717
79293W        W51619   8.760  26.727   2.314
79294W        W51620   4.418  17.623  12.876
79295W        W51621  35.594  38.511   1.787
79296W        W51622   1.577  12.163   4.175
79297W        W51623  36.333  10.900  14.833
79298W        W51624  15.226  33.396   4.620
79299W        W51625  36.037  39.890  10.840
79300W        W51626  29.998  37.999   1.706
79301W        W51627   1.383   0.245   2.677
79302W        W51628  38.547  37.473  13.011
79303W        W51629  41.715  25.161   2.371
79304W        W51630   1.271  20.198   0.937
79305W        W51631  36.295  35.479  13.046
79306W        W51632   8.852  41.525  12.056
79307W        W51633  38.463   3.334   2.330
79308W        W51634  17.786  30.230  12.801
79309W        W51635  43.721  19.306   4.551
79310W        W51636  25.757  22.025  11.127
79311W        W51637  11.669   1.529  13.977
79312W        W51638  12.641  20.301   3.309
79313W        W51639  19.046  32.799  10.805
79314W        W51640  39.334  13.646   4.066
79315W        W51641   9.974  31.840  14.796
79316W        W51642  40.926   2.704   1.909
79317W        W51643   5.991   2.150   0.807
79318W        W51644   1.010  15.079  10.896
79319W        W51645  20.265   2.389   1.364
79320W        W51646   0.901  31.885  10.561
79321W        W51647  42.472  31.539  10.333
79322W        W51648  39.443  16.774  11.356
79323W        W51649  24.820  25.915  11.802
79324W        W51650  26.547   3.747   1.248
79325W        W51651  35.410  19.281   2.271
79326W        W51652   5.994   3.356   1.263
79327W        W51653  14.321  31.899   4.106
79328W        W51654  22.317   6.729   3.076
79329W        W51655  21.291  25.172  14.455
79330W        W51656  21.610  15.622   3.764
79331W        W51657  13.524   7.726  14.847
79332W        W51658  44.303  12.931  10.624
79333W        W51659  12.110  43.386   2.223
79334W        W51660  24.164  29.992   4.558
79335W        W51661  17.741  33.622  11.263
79336W        W51662  31.993  10.732   1.879
79337W        W51663   0.730  12.828   3.203
79338W        W51664  15.136  44.761  14.432
79339W        W51665  20.968  38.037   5.505
79340W        W51666  12.365  26.556   1.239
79341W        W51667  27.933  34.117   4.607
79342W        W51668  27.059  31.125   2.703
79343W        W51669   5.762  20.075   2.228
79344W        W51670  29.164  19.701   3.150
79345W        W51671   8.373   2.002  10.611
79346W        W51672  29.280  11.849  13.060
79347W        W51673  33.072   1.015   3.814
79348W        W51674   4.938  20.602   0.494
79349W        W51675   0.822  23.106  12.111
79350W        W51676  34.076   6.892   3.879
79351W        W51677  32.209  27.442  14.961
79352W        W51678  24.093  26.270   4.067
79353W        W51679  29.224  28.940   4.323
79354W        W51680  27.176   2.254   4.685
79355W        W51681  16.406  40.956   3.165
79356W        W51682  41.055  25.698  12.497
79357W        W51683  38.763  17.571  12.615
79358W        W51684  12.043   9.282   4.748
79359W        W51685  36.574  31.964  11.585
79360W        W51686  20.345  13.258  13.889
79361W        W51687  41.320  30.583  11.139
79362W        W51688  14.825  26.684  12.046
79363W        W51689  39.511  22.153   1.787
79364W        W51690  26.676  23.308  13.655
79365W        W51691  19.177  44.799  14.924
79366W        W51692  41.358  27.465  10.575
79367W        W51693  20.213  14.074  10.647
79368W        W51694  24.781   4.220   4.709
79369W        W51695  36.920  32.952  12.702
79370W        W51696   9.094  16.133   3.881
79371W        W51697  20.319   3.949  12.838
79372W        W51698  12.047   7.368  14.827
79373W        W51699  34.667  12.116   3.434
79374W        W51700   8.915  27.435  11.067
79375W        W51701  28.606   4.686  13.020
79376W        W51702  29.454  22.170  10.426
79377W        W51703   6.403  30.380   1.852
79378W        W51704  42.413  27.271  12.412
79379W        W51705  13.882   3.394   2.759
79380W        W51706  10.289  15.387  12.109
79381W        W51707  19.595  25.473   0.985
79382W        W51708  44.702  16.092  11.442
79383W        W51709   5.762  19.160  11.203
79384W        W51710  23.147   4.731   0.735
79385W        W51711  10.337  24.256  11.794
79386W        W51712  12.169  37.920  12.710
79387W        W51713  26.694  34.987   2.774
79388W        W51714   6.886  35.046   2.343
79389W        W51715  19.160  15.743  13.235
79390W        W51716  16.645  10.950   4.065
79391W        W51717  27.151  25.415   3.558
79392W        W51718   6.032  23.497  12.168
79393W        W51719  42.431  20.301   0.513
79394W        W51720   0.051  41.462   4.521
79395W        W51721  26.194   5.965  14.042
79396W        W51722   4.399  15.799  13.591
79397W        W51723  26.675   3.729  13.806
79398W        W51724   0.945   1.967  13.794
79399W        W51725  34.817  43.729  14.369
79400W        W51726  24.479   5.423  13.147
79401W        W51727  22.761  20.227   4.075
79402W        W51728  41.320  21.960  14.967
79403W        W51729  32.315  35.745   3.239
79404W        W51730  24.826  37.299  12.438
79405W        W51731   7.244   8.463   4.497
79406W        W51732  12.091   5.276   4.744
79407W        W51733  26.697  22.995   4.395
79408W        W51734   8.586   8.890   1.691
79409W        W51735  18.197  13.829   0.770
79410W        W51736  13.370  41.319  11.685
79411W        W51737  34.922   7.749  14.279
79412W        W51738  22.723  17.000   1.655
79413W        W51739  21.535  27.159  11.451
79414W        W51740  39.890  16.975   4.674
79415W        W51741  38.441   6.732  10.428
79416W        W51742   8.482  17.952   4.650
79417W        W51743  10.972   7.857  12.719
79418W        W51744  43.854  27.668  11.893
79419W        W51745  19.970  14.125   4.186
79420W        W51746  31.865  35.928  12.067
79421W        W51747  13.422  14.272  10.796
79422W        W51748  22.284  24.332  11.127
79423W        W51749   7.828  44.565  10.295
79424W        W51750  14.940   5.740   1.987
79425W        W51751   0.734  15.011   1.154
79426W        W51752  36.446   5.934  13.344
79427W        W51753  32.650  38.342   0.794
79428W        W51754  29.751  38.016   0.893
79429W        W51755   4.842  20.320  12.484
79430W        W51756   1.864  27.408  13.793
79431W        W51757  26.240  40.082   3.545
79432W        W51758  37.686   3.409  11.083
79433W        W51759  16.990  10.287  10.200
79434W        W51760  11.337  15.932   4.641
79435W        W51761   6.976  38.422  12.815
79436W        W51762  36.300  44.925   3.520
79437W        W51763  37.801  10.149  14.168
79438W        W51764  15.966  25.753   3.410
79439W        W51765  33.596  33.448   3.118
79440W        W51766   0.738  41.946  12.934
79441W        W51767  14.533  43.571  14.031
79442W        W51768  42.833  42.765   0.466
79443W        W51769   6.306  25.352  11.131
79444W        W51770  10.164  36.392   0.296
79445W        W51771   7.033  34.593  13.338
79446W        W51772   7.287  38.829  12.839
79447W        W51773   4.132   7.063  13.906
79448W        W51774   8.666  42.509  12.797
79449W        W51775  44.017  15.949   4.698
79450W        W51776  42.644  43.917  10.209
79451W        W51777   1.419  30.321  14.670
79452W        W51778  37.026  10.109  11.950
79453W        W51779  21.111  20.136   0.249
79454W        W51780  14.638  21.933   4.686
79455W        W51781  38.520   8.199   2.358
79456W        W51782   1.940  10.000   1.254
79457W        W51783  33.083  35.222  12.261
79458W        W51784  39.332   0.825  11.999
79459W        W51785  30.716   4.956   3.620
79460W        W51786  41.734  19.103  10.692
79461W        W51787  25.578  44.166  14.136
79462W        W51788  28.120  29.517   3.519
79463W        W51789  41.796   6.973   3.233
79464W        W51790  19.311   8.106   3.656
79465W        W51791  37.141  22.019  11.671
79466W        W51792  43.784   3.973  13.131
79467W        W51793  15.573  24.108  12.450
79468W        W51794   1.648   3.700  14.471
79469W        W51795  10.399  38.660   9.674
79470W        W51796   4.324  36.168   4.153
79471W        W51797  12.687  19.507   3.106
79472W        W51798  20.691  42.567  13.006
79473W        W51799  18.360  42.353   2.193
79474W        W51800  16.872  17.609   3.757
79475W        W51801  11.780  34.879  11.376
79476W        W51802  13.787  19.890  12.175
79477W        W51803  25.574  23.658  14.420
79478W        W51804  34.505  35.881   1.251
79479W        W51805  44.941   1.208  14.059
79480W        W51806  15.728  33.953  13.990
79481W        W51807  24.452  13.420   1.799
79482W        W51808  35.159   9.918  10.850
79483W        W51809  39.724  31.914   0.971
79484W        W51810   2.042   8.936   3.780
79485W        W51811   7.749  33.087  14.372
79486W        W51812   6.177  40.626   0.334
79487W        W51813  44.894   4.529  10.717
79488W        W51814  36.944  12.085   3.699
79489W        W51815  37.819  43.889   3.323
79490W        W51816   8.624  36.054  13.839
79491W        W51817   0.004  42.359   1.741
79492W        W51818  30.157  34.542   4.313
79493W        W51819  28.459  28.045  10.069
79494W        W51820  43.037   3.822   3.829
79495W        W51821  24.224   6.621   3.161
79496W        W51822   0.902   1.011   2.066
79497W        W51823  41.864   0.953   2.448
79498W        W51824  41.897  32.108   3.193
79499W        W51825  36.658  38.611   0.063
79500W        W51826  34.511  35.776   0.285
79501W        W51827  12.611  32.314   0.877
79502W        W51828  13.086  22.837  14.050
79503W        W51829  16.910   8.573  11.823
79504W        W51830  20.600   1.452  14.578
79505W        W51831   2.354  39.503   4.859
79506W        W51832  25.535  12.877   1.296
79507W        W51833  42.277  33.107   3.127
79508W        W51834  27.117  43.705   2.174
79509W        W51835  25.092  39.310  11.917
79510W        W51836  17.510  12.968  14.230
79511W        W51837  18.094  15.162  12.369
79512W        W51838  13.854  39.153   4.616
79513W        W51839  29.900  17.266  13.017
79514W        W51840  13.830  38.027   1.839
79515W        W51841  21.471  41.839   1.809
79516W        W51842  32.140   4.696   5.213
79517W        W51843  14.743  37.607  12.855
79518W        W51844   4.946   6.065  11.049
79519W        W51845  17.525  15.200   1.883
79520W        W51846  28.961  26.202  14.944
79521W        W51847   0.825  37.295   4.001
79522W        W51848  44.834  30.909  12.474
79523W        W51849   8.313  18.024  12.830
79524W        W51850  32.238   1.613  12.542
79525W        W51851  10.405  36.416   3.354
79526W        W51852  28.627  43.001   4.131
79527W        W51853  16.086  39.829   0.941
79528W        W51854  25.778  40.515  13.425
79529W        W51855  20.235  42.866  14.001
79530W        W51856  11.479  33.156   1.211
79531W        W51857  17.486  21.714   2.824
79532W        W51858  25.185  14.109   4.286
79533W        W51859  29.565  20.345   1.309
79534W        W51860   5.791  30.087  13.045
79535W        W51861  12.858  21.627  13.693
79536W        W51862   7.236  15.616   2.467
79537W        W51863  24.190  27.539  13.904
79538W        W51864   6.792  11.219   4.215
79539W        W51865  16.778   9.041  13.022
79540W        W51866  24.516  36.058  14.927
79541W        W51867  13.910  44.928  10.691
79542W        W51868  26.748  13.358   3.291
79543W        W51869  28.017  15.769   2.778
79544W        W51870  21.892  33.912   4.489
79545W        W51871  43.806  32.922  12.017
79546W        W51872   4.378  24.026  10.295
79547W        W51873  23.480  23.984  14.920
79548W        W51874  27.482  25.230  11.341
79549W        W51875   8.854   5.202  13.349
79550W        W51876  22.359  22.770   1.854
79551W        W51877   8.572  37.998  10.709
79552W        W51878  30.235  17.644  13.158
79553W        W51879   6.965  16.737   3.055
79554W        W51880  17.849  16.388   1.377
79555W        W51881  22.722  30.121  12.783
79556W        W51882  28.179  14.853   1.801
79557W        W51883   5.712   8.361   3.172
79558W        W51884   6.670  16.658  14.960
79559W        W51885  17.802  10.773  14.522
79560W        W51886   7.747  23.002   3.836
79561W        W51887   7.182  27.151  13.579
79562W        W51888  22.116   1.916   4.087
79563W        W51889   9.227  40.835  10.916
79564W        W51890  22.239  22.566   3.193
79565W        W51891  13.335  26.590   4.223
79566W        W51892  32.616  32.087   2.276
79567W        W51893   2.481   8.611   2.542
79568W        W51894  25.788  23.693  10.728
79569W        W51895   4.266  35.545   3.079
79570W        W51896  20.664  37.055   0.323
79571W        W51897  37.426   1.909  14.335
79572W        W51898  31.538  14.193  14.069
79573W        W51899  11.228   3.665  12.785
79574W        W51900   3.980  21.063  13.935
79575W        W51901   9.979   9.127   1.009
79576W        W51902  28.131  40.582  11.427
79577W        W51903  20.862   1.340   4.226
79578W        W51904  21.127  29.976   1.741
79579W        W51905  11.087  28.343   3.667
79580W        W51906   0.171  40.476   1.411
79581W        W51907   8.125  25.112   2.356
79582W        W51908  19.468  24.029  10.590
79583W        W51909   5.094   7.611  11.912
79584W        W51910  11.998  22.006   2.408
79585W        W51911  34.485  29.500  12.977
79586W        W51912  38.122  43.862  14.472
79587W        W51913  41.097  36.312  14.068
79588W        W51914  10.682  10.966  11.458
79589W        W51915  30.372  35.488  12.971
79590W        W51916  19.492  23.191  11.544
79591W        W51917  26.256  12.270   0.885
79592W        W51918  23.548  13.095   4.911
79593W        W51919  28.177  13.254  13.050
79594W        W51920  21.180   6.813  12.501
79595W        W51921  12.146  21.778  12.381
79596W        W51922  32.227   5.780  11.566
79597W        W51923  41.486  39.850  14.943
79598W        W51924  42.996  31.867  12.421
79599W        W51925  35.004  18.460   0.405
79600W        W51926  18.565  25.624   3.718
79601W        W51927  39.972   9.649   0.935
79602W        W51928  25.532  20.243   1.417
79603W        W51929  43.294  43.539  10.894
79604W        W51930   2.606  10.396  14.216
79605W        W51931  38.443   3.529   1.860
79606W        W51932   3.855  43.988  14.280
79607W        W51933  26.648  41.265   3.145
79608W        W51934  33.941   6.650   0.416
79609W        W51935   8.148  35.931  13.257
79610W        W51936   4.559  15.126  12.867
79611W        W51937  29.742  34.936   3.489
79612W        W51938  31.407  14.541  10.753
79613W        W51939   9.161   0.276   2.811
79614W        W51940  19.095  38.749   2.805
79615W        W51941  26.201  19.673   3.327
79616W        W51942  41.989  31.406  14.265
79617W        W51943  34.886   0.297   2.256
79618W        W51944  36.702  33.196  10.556
79619W        W51945   1.496  27.604  14.962
79620W        W51946  29.953  17.766   4.428
79621W        W51947  22.273  38.846  11.140
79622W        W51948  23.012  42.887  12.857
79623W        W51949  29.403  19.068  11.935
79624W        W51950  10.920  13.226   2.349
79625W        W51951   9.712  11.648   4.337
79626W        W51952  41.773  16.591  13.275
79627W        W51953  36.786  21.234  12.976
79628W        W51954  35.652  19.795  14.265
79629W        W51955   0.857  12.822   1.800
79630W        W51956  34.931  37.522   0.700
79631W        W51957   7.716  24.166   4.459
79632W        W51958   0.615  40.312  13.508
79633W        W51959  20.993  15.126   2.412
79634W        W51960  19.555  16.394   0.749
79635W        W51961  21.713  23.144   3.839
79636W        W51962  11.789  22.620   3.627
79637W        W51963  27.133   0.430  11.562
79638W        W51964  38.718   0.900   4.942
79639W        W51965  18.973  40.459   3.442
79640W        W51966   8.799  23.828   0.710
79641W        W51967   3.420  21.292  11.986
79642W        W51968   1.749  41.283  10.300
79643W        W51969  29.489  16.331   2.169
79644W        W51970  34.127  18.627   2.088
79645W        W51971  40.852  24.194   2.809
79646W        W51972  19.603  13.745  14.992
79647W        W51973  27.607  41.214   4.040
79648W        W51974  42.606  40.302  11.502
79649W        W51975   9.382  43.198   4.478
79650W        W51976  28.119  29.996   0.721
79651W        W51977  14.130  11.516  13.435
79652W        W51978  20.858  21.722   4.222
79653W        W51979  36.511  10.218  10.407
79654W        W51980  34.056  39.369  12.080
79655W        W51981  18.196  11.109  14.277
79656W        W51982  40.876  23.110  13.936
79657W        W51983   2.772  12.157   1.912
79658W        W51984  19.758   5.184   0.871
79659W        W51985  36.540  14.890  14.949
79660W        W51986  16.110  12.901   0.431
79661W        W51987  34.849  20.082  10.758
79662W        W51988  33.005  19.318   2.423
79663W        W51989  32.712  14.932  14.771
79664W        W51990   9.830   0.906  10.967
79665W        W51991  13.359  18.204  11.596
79666W        W51992  23.984   1.956  12.008
79667W        W51993  11.188  31.579  10.520
79668W        W51994  35.091  38.395  10.436
79669W        W51995  32.890  32.541   2.097
79670W        W51996  39.319   2.107   3.688
79671W        W51997   3.005   5.796  11.050
79672W        W51998   5.478  24.130  13.969
79673W        W51999  16.751  43.778   3.592
79674W        W52000  27.448   5.650   2.016
79675W        W52001  31.224  26.153  14.075
79676W        W52002  11.214   7.685   0.597
79677W        W52003  33.727   7.056   0.036
79678W        W52004  43.960   9.115   0.843
79679W        W52005  29.152  27.685  12.569
79680W        W52006  31.484  14.828  11.194
79681W        W52007  21.567  17.580  12.661
79682W        W52008  35.921  21.160   3.108
79683W        W52009   5.346  25.424  12.029
79684W        W52010  42.930  21.908  12.384
79685W        W52011  24.979  30.980  13.493
79686W        W52012   7.923  39.975  14.387
79687W        W52013   8.480  28.973   4.755
79688W        W52014  34.429   3.367   4.894
79689W        W52015  31.897  23.143   0.950
79690W        W52016  10.320   9.246   4.615
79691W        W52017  40.412  41.805  13.448
79692W        W52018  11.631  16.172   2.671
79693W        W52019  11.201  33.447  12.600
79694W        W52020  29.522  19.834   2.333
79695W        W52021   2.022  20.785   0.399
79696W        W52022  34.112  34.393   1.960
79697W        W52023  23.894  37.899   4.614
79698W        W52024  41.323  12.723   2.849
79699W        W52025  37.078  31.813  10.796
79700W        W52026  37.196  39.631   2.339
79701W        W52027  21.524  25.936   4.317
79702W        W52028   0.622  23.576   3.699
79703W        W52029  14.515   1.193  11.947
79704W        W52030  43.319  20.728   3.579
79705W        W52031  42.311  11.611   4.087
79706W        W52032  43.295  42.285   3.303
79707W        W52033  38.017  24.190  11.618
79708W        W52034  37.381   7.232   3.702
79709W        W52035  28.619  34.420  12.954
79710W        W52036  33.021  23.317   2.709
79711W        W52037  39.404  23.384   2.422
79712W        W52038   1.302  28.049  13.709
79713W        W52039  17.695   1.309  12.088
79714W        W52040  28.627  11.408  14.609
79715W        W52041  27.107  27.775  12.566
79716W        W52042  25.705  21.756   0.365
79717W        W52043  16.883   1.680  12.801
79718W        W52044  11.707  12.986   2.646
79719W        W52045  20.056  37.781   0.609
79720W        W52046  19.214  29.963   4.653
79721W        W52047  28.927   5.410   4.899
79722W        W52048  33.724  41.368  10.804
79723W        W52049  13.076  32.074   1.369
79724W        W52050  26.910  23.980   2.812
79725W        W52051  10.451  34.145  13.446
79726W        W52052  26.694  40.924  13.557
79727W        W52053  10.258  31.366   3.389
79728W        W52054  17.532  35.491   2.285
79729W        W52055   1.486  13.609   4.475
79730W        W52056  44.398  29.894   2.118
79731W        W52057  42.391   9.123  12.796
79732W        W52058   3.922  15.766  13.401
79733W        W52059  29.111  15.285  11.850
79734W        W52060  20.600  27.134  12.937
79735W        W52061  28.676  10.596  12.588
79736W        W52062  37.338  40.996   0.281
79737W        W52063  19.971  26.137   0.450
79738W        W52064  33.504  31.519   4.145
79739W        W52065   9.317  18.270   4.539
79740W        W52066  17.752   4.372  11.619
79741W        W52067   5.869  24.680  11.632
79742W        W52068  28.105   4.881   3.682
79743W        W52069   0.219  41.805  14.396
79744W        W52070  14.348  27.675   4.448
79745W        W52071  31.768  36.797  11.142
79746W        W52072  36.832  32.108   3.275
79747W        W52073  44.584   9.680   4.139
79748W        W52074  36.074  16.854  14.049
79749W        W52075  33.115  26.481  14.294
79750W        W52076   6.113  39.895   1.219
79751W        W52077   1.200  31.987   3.226
79752W        W52078  22.955   8.338   2.369
79753W        W52079  43.540  29.203  12.822
79754W        W52080  12.219  40.503   2.675
79755W        W52081  13.628  14.559  11.293
79756W        W52082  14.333  42.321   0.849
79757W        W52083  39.015  35.725  14.885
79758W        W52084  11.820  14.113   2.835
79759W        W52085   3.312  20.586   4.926
79760W        W52086  13.002   2.336   5.077
79761W        W52087   8.128  12.437   3.341
79762W        W52088  16.011  42.512   0.576
79763W        W52089  27.593  37.954  12.534
79764W        W52090   2.399  24.603   5.007
79765W        W52091  24.617  40.771   3.764
79766W        W52092  28.988   8.426   1.203
79767W        W52093   7.682   2.242   4.120
79768W        W52094  30.821  13.492   3.445
79769W        W52095  33.441  41.326  12.557
79770W        W52096   4.963   2.160  14.699
79771W        W52097  27.008  30.552  10.701
79772W        W52098  33.374   0.695   2.192
79773W        W52099  14.686  41.758   0.325
79774W        W52100  14.379   7.650   0.870
79775W        W52101  43.068   8.736   4.666
79776W        W52102  40.040   1.419  11.517
79777W        W52103  40.348  10.644   1.258
79778W        W52104  29.682  10.486   1.653
79779W        W52105  24.165  43.479  14.398
79780W        W52106   6.607   3.674  12.823
79781W        W52107  27.122  10.684   4.876
79782W        W52108  31.030   5.839  14.653
79783W        W52109  26.741  14.171   0.939
79784W        W52110  30.028  27.190  12.896
79785W        W52111  20.520   0.697  14.009
79786W        W52112  10.334  35.996  14.339
79787W        W52113  30.946  44.512  12.101
79788W        W52114   9.304  30.742  12.966
79789W        W52115   3.523  38.926  14.396
79790W        W52116  14.847   9.099   0.082
79791W        W52117  22.779  25.834  14.431
79792W        W52118  20.214   4.397  12.406
79793W        W52119  12.141   3.250   3.672
79794W        W52120  11.650  20.519   0.678
79795W        W52121  19.084  31.742  10.670
79796W        W52122  20.282   4.929   0.878
79797W        W52123  27.501   4.916  12.220
79798W        W52124  32.387   4.292  12.106
79799W        W52125  42.420  14.023   4.265
79800W        W52126  21.642  24.956  11.155
79801W        W52127  11.846  14.763   2.259
79802W        W52128  39.847  13.546   4.061
79803W        W52129  37.556  36.932   2.100
79804W        W52130  30.297  37.002  12.177
79805W        W52131   6.154  43.696   1.626
79806W        W52132   9.166  31.932   2.201
79807W        W52133   0.349  13.629  14.460
79808W        W52134  42.470  39.844   4.044
79809W        W52135  19.635  23.936   0.236
79810W        W52136  36.500  13.425   0.243
79811W        W52137  42.839  41.060  14.911
79812W        W52138  38.235  33.170   3.704
79813W        W52139  29.469  38.665   4.869
79814W        W52140  23.467  38.963  12.476
79815W        W52141   5.425   5.806   4.394
79816W        W52142  22.085  27.207  14.781
79817W        W52143  20.149  40.924  10.797
79818W        W52144  33.629  11.232   3.263
79819W        W52145  30.490  11.321   2.582
79820W        W52146  15.358  36.874  10.647
79821W        W52147  25.726  21.988   3.217
79822W        W52148  37.963  21.567  12.391
79823W        W52149  36.434  33.169   4.151
79824W        W52150  32.411  36.145  12.944
79825W        W52151   7.465  36.273  14.330
79826W        W52152   5.684   4.838  14.613
79827W        W52153  16.799  10.719   2.396
79828W        W52154   8.901  23.180  12.731
79829W        W52155   3.460  25.059   2.579
79830W        W52156  38.443   6.318   4.236
79831W        W52157  30.818   3.433  13.833
79832W        W52158  21.482  40.577  12.981
79833W        W52159  42.336  11.267  11.896
79834W        W52160  32.139  32.945   2.965
79835W        W52161  27.498   9.685   4.115
79836W        W52162  27.333   0.362   3.736
79837W        W52163  24.293  23.603  11.600
79838W        W52164  38.418  37.906   4.603
79839W        W52165  24.419  43.440  10.469
79840W        W52166  20.548   2.740   3.093
79841W        W52167  36.908  24.503  12.205
79842W        W52168  23.637  25.956   3.745
79843W        W52169  34.110  35.119   2.430
79844W        W52170  23.901  11.878   1.423
79845W        W52171  30.400   6.213   1.745
79846W        W52172  44.005   5.810   4.652
79847W        W52173  30.533  17.671  14.311
79848W        W52174  41.819  19.506   1.449
79849W        W52175  35.411   7.634  14.338
79850W        W52176  17.856  44.453   0.916
79851W        W52177   1.113   8.966   2.832
79852W        W52178  14.575  27.691  11.509
79853W        W52179   0.645  21.392  14.029
79854W        W52180   4.286  24.773  10.823
79855W        W52181   4.284  42.780   1.832
79856W        W52182  41.944  26.601   1.356
79857W        W52183  28.551  34.571   1.177
79858W        W52184  38.421  19.907   3.301
79859W        W52185  21.877  28.964   1.436
79860W        W52186  25.289   7.626   3.408
79861W        W52187  13.378  35.838  10.762
79862W        W52188   2.195  11.318  11.669
79863W        W52189  38.311  42.000  11.098
79864W        W52190  12.664   0.462  14.680
79865W        W52191  40.924  35.377  10.932
79866W        W52192  42.799  38.061   3.635
79867W        W52193   2.869  39.588   1.855
79868W        W52194   9.223  34.139  14.426
79869W        W52195  19.478  14.704  12.122
79870W        W52196  14.046  27.717   0.451
79871W        W52197  34.398  33.598  13.494
79872W        W52198  25.186  25.693   1.275
79873W        W52199   4.251  25.006  14.036
79874W        W52200  33.136   6.079  14.022
79875W        W52201  29.241  23.478  13.670
79876W        W52202  17.473   9.910  12.448
79877W        W52203   5.293  35.869   0.324
79878W        W52204  22.603  15.723   2.676
79879W        W52205   7.906  11.244  10.303
79880W        W52206  34.558   6.850  12.919
79881W        W52207  25.293  26.570   1.227
79882W        W52208  15.150   9.980   2.182
79883W        W52209  36.776  27.170   1.007
79884W        W52210  27.486   6.134  14.930
79885W        W52211  36.296  41.248  13.379
79886W        W52212  26.595  13.585  13.893
79887W        W52213  16.755  26.192   0.707
79888W        W52214  28.913  30.484   0.565
79889W        W52215  27.961   7.938  11.223
79890W        W52216  29.132  41.623  10.992
79891W        W52217  29.987   1.383   3.799
79892W        W52218  25.685   0.829  13.264
79893W        W52219  22.377  39.191  12.033
79894W        W52220   1.213  12.172  11.709
79895W        W52221  42.749  15.752  10.588
79896W        W52222  34.012  41.137   3.437
79897W        W52223  16.420   4.625   1.220
79898W        W52224  14.148  35.910  10.631
79899W        W52225   3.398  42.334  14.872
79900W        W52226  16.917   3.883  10.866
79901W        W52227  26.205   1.514  12.940
79902W        W52228  20.156  24.253   1.397
79903W        W52229  28.861   2.185   0.382
79904W        W52230  24.976  21.966   4.895
79905W        W52231  41.845  37.747   3.559
79906W        W52232  27.548  11.231   0.924
79907W        W52233  32.914  24.100   0.002
79908W        W52234  40.744  12.581   4.518
79909W        W52235  19.389  34.501  11.479
79910W        W52236  34.995  13.207   2.119
79911W        W52237  12.305  41.406   0.285
79912W        W52238  37.542   3.293  12.033
79913W        W52239  24.009  38.805  13.030
79914W        W52240  43.426  40.437   3.548
79915W        W52241  44.896  41.130   2.493
79916W        W52242  30.210  16.847   1.022
79917W        W52243  13.667   5.800  10.882
79918W        W52244  25.645  29.125  11.002
79919W        W52245   6.639  44.792   3.169
79920W        W52246  34.879  12.500  12.049
79921W        W52247  40.529  42.207  10.763
79922W        W52248  17.706  26.968  13.337
79923W        W52249  18.577  16.940   5.085
79924W        W52250  14.256  24.472   4.967
79925W        W52251  13.229  10.740   1.785
79926W        W52252  37.521   8.779  10.375
79927W        W52253   0.610   8.984   1.157
79928W        W52254  24.939   9.081   5.294
79929W        W52255  37.163  39.135  14.507
79930W        W52256   2.841  38.031   2.128
79931W        W52257  17.167  17.181  10.258
79932W        W52258  40.852  43.950  14.620
79933W        W52259   0.745  21.078   0.913
79934W        W52260  10.619  37.384   1.828
79935W        W52261   3.673  21.827  14.477
79936W        W52262  10.237  33.880   4.813
79937W        W52263  38.346   2.311  14.400
79938W        W52264   1.798  43.819  11.670
79939W        W52265  23.108  26.964  13.447
79940W        W52266  19.196   0.947   4.666
79941W        W52267   2.070   0.881  12.731
79942W        W52268  34.520  30.819  13.997
79943W        W52269   0.283  34.885  14.876
79944W        W52270  10.394  17.329   2.834
79945W        W52271  38.937  34.934  13.115
79946W        W52272  16.593  23.000  11.159
79947W        W52273  14.326  16.066   3.250
79948W        W52274  30.467  35.559  12.018
79949W        W52275  21.602  19.305  11.270
79950W        W52276  29.783  35.145  13.516
79951W        W52277  44.321  32.675   2.417
79952W        W52278  40.840  43.938   4.125
79953W        W52279   1.542  34.462   2.297
79954W        W52280  27.072   2.685   4.372
79955W        W52281  15.758  36.380  14.516
79956W        W52282  34.680   6.697  14.918
79957W        W52283  34.035  13.759   1.455
79958W        W52284   8.861   3.325   1.300
79959W        W52285  37.919  36.334   1.418
79960W        W52286  14.795   1.173   0.438
79961W        W52287  13.336  19.163  13.435
79962W        W52288  39.974  28.590  12.058
79963W        W52289  41.341  30.883   1.731
79964W        W52290  30.904   9.205   1.421
79965W        W52291  43.524   0.607  14.857
79966W        W52292  35.098  31.412  13.855
79967W        W52293  32.581  36.345  12.162
79968W        W52294  34.627   6.781   2.578
79969W        W52295  39.953  16.611   5.056
79970W        W52296  38.836  44.773  10.749
79971W        W52297  43.247  13.648  14.819
79972W        W52298  34.596  23.087  10.916
79973W        W52299  34.316  34.571   2.423
79974W        W52300  38.411  21.011  13.417
79975W        W52301  19.595  29.054  12.156
79976W        W52302  44.510  21.623  14.093
79977W        W52303  20.494  30.453   0.456
79978W        W52304  12.081  16.593   2.647
79979W        W52305  35.850  28.535   3.700
79980W        W52306  12.375   9.678  13.828
79981W        W52307  29.437  16.604  11.146
79982W        W52308  36.573   6.794   4.521
79983W        W52309  22.691  42.396   3.609
79984W        W52310  44.979  27.010   2.012
79985W        W52311  29.869  41.293   3.769
79986W        W52312  31.986  36.070   0.825
79987W        W52313  36.611   7.611  12.316
79988W        W52314  16.631  20.241  13.595
79989W        W52315  38.785   1.954   4.397
79990W        W52316   1.533  39.526   2.855
79991W        W52317  18.540   0.013   0.677
79992W        W52318  40.533  17.097   2.434
79993W        W52319  34.973  29.698  12.946
79994W        W52320  20.489   6.800  12.845
79995W        W52321  14.189  39.028  14.598
79996W        W52322  35.194  17.608  11.074
79997W        W52323  23.224   5.490   2.294
79998W        W52324  37.869  20.990   2.886
79999W        W52325   4.511  17.272  12.502
80000W        W52326  38.070   4.474   0.314
80001W        W52327  10.811  27.439  14.053
80002W        W52328  36.724   6.091   4.290
80003W        W52329  43.356  19.718   1.454
80004W        W52330  32.738   5.695  11.536
80005W        W52331  18.602  12.402  13.885
80006W        W52332  39.962  26.736   2.635
80007W        W52333  35.897   1.977   2.416
80008W        W52334   4.431  31.501   2.181
80009W        W52335   1.698  14.338   3.356
80010W        W52336  43.318  20.867  11.901
80011W        W52337  27.290  41.145  13.004
80012W        W52338  33.958  31.530   4.386
80013W        W52339  22.726   5.917  14.026
80014W        W52340  35.319   0.541   0.760
80015W        W52341  37.526  15.702  13.487
80016W        W52342   6.071   6.335   1.651
80017W        W52343  35.253  32.547   0.796
80018W        W52344  36.899  16.573  11.097
80019W        W52345   0.883   4.967  13.787
80020W        W52346  23.281  39.054  11.154
80021W        W52347  25.028  24.707   1.277
80022W        W52348  20.579  26.007   2.182
80023W        W52349  35.475  11.876  10.713
80024W        W52350  38.815   5.766  12.954
80025W        W52351  30.895   2.265  11.491
80026W        W52352   4.895   4.649   3.828
80027W        W52353  43.850  31.952  12.818
80028W        W52354  19.215  17.678  14.409
80029W        W52355  27.160  38.572  14.689
80030W        W52356  21.539  27.045  10.591
80031W        W52357  28.132  41.874   2.837
80032W        W52358   1.552  41.910   2.321
80033W        W52359  33.918  36.552   3.593
80034W        W52360  36.086  44.750  10.484
80035W        W52361   0.914   8.556   5.098
80036W        W52362  25.130  39.943  14.917
80037W        W52363  30.060  34.602  14.368
80038W        W52364  17.119  28.539   3.549
80039W        W52365  36.386  44.967   2.919
80040W        W52366  34.944  25.021   4.622
80041W        W52367  44.291  19.903  14.785
80042W        W52368  39.503  41.982  14.522
80043W        W52369  39.914   7.030  13.914
80044W        W52370  18.963  11.202   2.778
80045W        W52371  11.675  26.023   1.274
80046W        W52372  43.808   3.253  13.884
80047W        W52373  44.876  30.011  11.141
80048W        W52374  23.181  12.848   4.271
80049W        W52375   1.787   0.814  14.552
80050W        W52376  43.567   0.350  12.079
80051W        W52377  14.240   1.632  12.659
80052W        W52378  26.780  30.653  11.170
80053W        W52379  16.551   9.463  11.435
80054W        W52380  33.387  31.594  11.674
80055W        W52381  21.524  20.882  14.964
80056W        W52382  42.568  14.061  10.389
80057W        W52383  34.520  38.702   0.689
80058W        W52384  29.216   0.336   2.943
80059W        W52385   7.420   0.339   3.202
80060W        W52386   0.695  21.206   2.300
80061W        W52387  36.728  10.459   4.448
80062W        W52388  22.203  36.349  12.054
80063W        W52389  42.484  22.772   2.180
80064W        W52390  12.946  27.861  12.337
80065W        W52391  41.894  19.663   2.409
80066W        W52392  14.171  34.044   3.335
80067W        W52393  12.542   3.979  12.825
80068W        W52394  17.689   6.746   1.915
80069W        W52395  14.919  38.656  11.123
80070W        W52396   7.956  24.140   3.639
80071W        W52397   2.214  34.173   3.337
80072W        W52398  30.130  41.948  14.727
80073W        W52399  20.700  39.050  10.655
80074W        W52400  28.638  28.591  10.609
80075W        W52401  43.420  31.645   1.449
80076W        W52402  26.625  17.619   3.008
80077W        W52403  20.338  43.866  12.204
80078W        W52404  33.299  36.901   1.036
80079W        W52405  39.266  17.605   3.371
80080W        W52406  22.698  33.031   3.252
80081W        W52407   4.549   4.007   2.627
80082W        W52408  28.597  15.590  10.441
80083W        W52409  28.996  33.636  14.321
80084W        W52410  29.261  25.208   4.189
80085W        W52411  40.366  29.259  14.858
80086W        W52412  25.073  21.443  10.659
80087W        W52413   9.687  14.260   3.970
80088W        W52414  28.928  37.053   1.954
80089W        W52415  14.516  38.700  13.436
80090W        W52416   9.755  27.069   2.120
80091W        W52417  20.231  25.207  13.404
80092W        W52418   8.785  28.958   1.266
80093W        W52419  35.600  31.246  12.152
80094W        W52420  27.444  44.890   0.732
80095W        W52421  38.101  29.364   2.697
80096W        W52422  13.157  18.009   1.297
80097W        W52423  25.608  21.087  10.910
80098W        W52424   6.165   4.216  12.181
80099W        W52425   3.441  35.196  11.139
80100W        W52426   1.862  14.167   0.034
80101W        W52427   1.523  24.944   0.949
80102W        W52428  37.042  26.718  13.952
80103W        W52429  15.932  10.364  13.874
80104W        W52430   8.413   2.803   1.269
80105W        W52431  37.517  37.365   1.787
80106W        W52432  15.748  27.551   4.809
80107W        W52433  33.929  33.374  13.516
80108W        W52434  43.747  22.080  11.724
80109W        W52435  22.287  14.333   0.168
80110W        W52436   3.327  26.611   1.203
80111W        W52437  20.443  11.832  14.792
80112W        W52438  44.882   2.434   4.095
80113W        W52439   9.105  30.053  14.678
80114W        W52440  26.625  24.003  13.820
80115W        W52441   3.812  44.085  13.284
80116W        W52442  34.302   5.941  12.675
80117W        W52443  15.872   8.859  11.611
80118W        W52444  26.446  42.845  11.910
80119W        W52445  35.047  22.117   1.428
80120W        W52446  32.644   4.335  10.656
80121W        W52447  41.414   7.945   4.776
80122W        W52448  15.503   6.415   0.825
80123W        W52449  25.101   6.154   0.457
80124W        W52450  38.552  39.159  11.165
80125W        W52451  23.146  13.131  14.256
80126W        W52452  14.528  44.394  13.873
80127W        W52453  15.696  44.935  12.488
80128W        W52454  37.885  16.119   4.847
80129W        W52455  13.794  29.533  11.807
80130W        W52456   3.170   5.492   4.964
80131W        W52457  17.561   5.686  14.853
80132W        W52458  30.899  16.500   2.816
80133W        W52459  34.987  12.178   0.643
80134W        W52460  17.519  41.193  12.472
80135W        W52461   3.999  30.668  13.476
80136W        W52462  42.244  10.720   2.656
80137W        W52463  29.650   0.311   4.031
80138W        W52464   6.910   7.200   2.842
80139W        W52465  21.543  12.697  12.016
80140W        W52466  34.346  22.760  12.442
80141W        W52467  19.613   2.181  10.514
80142W        W52468  33.031  39.923   3.694
80143W        W52469  31.972  41.538  13.412
80144W        W52470  37.383  24.646  12.375
80145W        W52471  18.152  34.605  13.279
80146W        W52472  10.122  22.144  14.482
80147W        W52473   8.268  15.371   4.783
80148W        W52474  18.741  17.611   0.716
80149W        W52475  42.593  17.181   1.120
80150W        W52476  30.904  41.945  11.370
80151W        W52477  23.407   2.402  14.458
80152W        W52478  42.527  17.616   0.866
80153W        W52479   9.127  24.921   2.277
80154W        W52480  11.376  43.906  11.512
80155W        W52481  31.286   4.882   2.897
80156W        W52482  41.760  44.587  13.084
80157W        W52483  29.476  31.971  14.832
80158W        W52484  42.451  34.095  11.962
80159W        W52485  11.738  20.800   4.674
80160W        W52486   1.206   3.545   4.526
80161W        W52487  43.375  35.742  14.861
80162W        W52488   9.677  36.473   2.786
80163W        W52489  32.072  39.833  13.755
80164W        W52490  43.256  42.529   2.830
80165W        W52491   8.609   0.653   4.110
80166W        W52492  37.854   8.611  11.684
80167W        W52493   4.777  23.640  10.570
80168W        W52494  20.572   2.237  14.011
80169W        W52495  34.808  23.615  11.181
80170W        W52496  28.643   4.951   0.400
80171W        W52497  17.087  42.417   1.452
80172W        W52498   5.964  26.116  12.460
80173W        W52499  22.287  18.715  10.692
80174W        W52500  16.111  27.467  13.314
80175W        W52501  22.557  31.428   1.378
80176W        W52502  19.188   6.589  12.063
80177W        W52503  29.553  40.028   2.737
80178W        W52504  35.566  36.566  13.431
80179W        W52505  15.175  31.302  12.249
80180W        W52506   8.293  24.169  14.462
80181W        W52507  32.883  27.651  14.030
80182W        W52508  38.939   9.635   2.188
80183W        W52509  27.568  27.897   3.647
80184W        W52510   0.048  23.674   0.266
80185W        W52511  37.032  21.599  12.708
80186W        W52512  44.651   0.849   4.062
80187W        W52513  39.778   2.846  13.310
80188W        W52514  43.476   7.846  12.021
80189W        W52515  29.617  34.491   3.270
80190W        W52516   7.393   2.933  12.940
80191W        W52517  40.314   6.134   4.493
80192W        W52518   8.292  29.817  12.186
80193W        W52519  20.727  30.949   0.369
80194W        W52520   3.694  32.869   0.142
80195W        W52521   1.072   4.401   0.032
80196W        W52522  11.655  12.305  11.126
80197W        W52523  15.329  15.736   1.889
80198W        W52524  12.345  10.613   1.278
80199W        W52525   8.730   0.385  14.790
80200W        W52526  12.287  37.883   3.209
80201W        W52527  16.261  38.904  11.883
80202W        W52528  32.009  42.555   3.207
80203W        W52529  22.259  22.540  12.519
80204W        W52530  28.240  16.147   4.206
80205W        W52531  22.688  38.890   1.257
80206W        W52532  28.208   7.618   3.166
80207W        W52533  10.201  14.754  10.388
80208W        W52534   0.682  36.909   1.799
80209W        W52535  38.709  29.637  14.375
80210W        W52536  36.593  25.029  10.580
80211W        W52537  36.415  11.832  10.266
80212W        W52538  39.481   5.314   1.516
80213W        W52539   3.465  28.857   3.306
80214W        W52540  31.670  29.102   3.173
80215W        W52541   1.670  13.331   2.270
80216W        W52542  18.806   2.186   1.891
80217W        W52543   2.778  36.977   2.329
80218W        W52544  38.880  18.512   0.315
80219W        W52545  29.872  25.158  12.016
80220W        W52546  39.486   7.909   3.214
80221W        W52547  37.533  43.027   1.403
80222W        W52548   3.686  44.969  11.608
80223W        W52549  30.072  22.201   4.749
80224W        W52550  43.473  10.238   3.769
80225W        W52551   0.377  29.122  13.407
80226W        W52552  29.136   9.770  14.948
80227W        W52553  15.308   4.322   4.280
80228W        W52554  27.867  37.244  12.888
80229W        W52555  39.546  43.910   4.190
80230W        W52556  42.715  22.553   3.028
80231W        W52557   0.131  20.214   1.784
80232W        W52558  38.203   5.911   4.031
80233W        W52559   1.577  36.276  14.968
80234W        W52560  16.212  26.526  13.080
80235W        W52561   9.703  36.961  11.577
80236W        W52562  21.690   8.105  12.068
80237W        W52563   4.930  28.400  14.920
80238W        W52564  18.139   6.533   1.847
80239W        W52565  18.144  12.750  10.770
80240W        W52566  35.095   1.968  13.529
80241W        W52567  22.551  13.671   3.604
80242W        W52568  29.949  43.715  13.890
80243W        W52569  35.188   2.628  11.918
80244W        W52570  17.161  38.476  10.671
80245W        W52571  19.871  29.085   3.199
80246W        W52572  24.808  23.585  11.568
80247W        W52573  38.849  11.934   5.100
80248W        W52574  16.326  23.776   3.159
80249W        W52575  22.788   3.440   1.840
80250W        W52576  32.156   3.568  12.059
80251W        W52577  28.632  17.415  10.336
80252W        W52578  15.594  23.347   1.989
80253W        W52579  15.553  43.978  14.916
80254W        W52580  19.310  21.587   4.301
80255W        W52581  19.366  41.741   2.951
80256W        W52582   2.683   4.974  14.863
80257W        W52583  30.533  16.297  14.805
80258W        W52584  44.117  41.320  14.879
80259W        W52585  13.293  25.992  12.161
80260W        W52586  15.226  21.342  11.972
80261W        W52587   3.736  41.497  10.152
80262W        W52588  23.111   4.381   3.607
80263W        W52589  40.945  32.472   4.745
80264W        W52590  29.677  10.917   3.819
80265W        W52591  26.699  31.911   3.698
80266W        W52592  25.393  28.054   2.064
80267W        W52593  31.051  36.064  14.106
80268W        W52594  44.860  42.881   2.844
80269W        W52595  35.611   8.234  13.518
80270W        W52596  34.131  10.578   2.644
80271W        W52597  15.381  40.507  14.692
80272W        W52598  25.922  27.013  10.565
80273W        W52599  13.766  19.053  12.644
80274W        W52600  18.371  38.306  14.268
80275W        W52601  41.801  41.823  11.301
80276W        W52602  21.503  32.972   2.415
80277W        W52603  31.997   2.379   2.411
80278W        W52604  12.275  36.578   2.853
80279W        W52605  22.962  34.552   2.832
80280W        W52606  42.470   6.166   2.650
80281W        W52607  25.388   5.362  14.802
80282W        W52608  30.518  20.133   2.730
80283W        W52609   1.477  37.990   1.448
80284W        W52610  21.658  43.372   2.446
80285W        W52611   7.400  35.615  12.023
80286W        W52612  12.383  22.132  13.736
80287W        W52613  27.029  12.185   2.747
80288W        W52614  10.233   2.948   2.412
80289W        W52615  33.887  27.018   3.936
80290W        W52616   8.250  34.596   1.331
80291W        W52617  30.669  26.544  12.937
80292W        W52618  28.477   0.968  12.594
80293W        W52619  42.343  25.003   1.709
80294W        W52620  44.697  30.629  10.484
80295W        W52621  13.312  44.743   4.388
80296W        W52622  21.233  17.620  11.926
80297W        W52623   3.623  31.287  14.475
80298W        W52624  40.394  30.396  14.427
80299W        W52625  18.681   0.004  12.569
80300W        W52626   5.600   4.114   1.056
80301W        W52627  16.383  15.837   2.203
80302W        W52628  31.350   8.739   3.223
80303W        W52629  20.057  14.538   1.466
80304W        W52630   8.173  24.574  14.101
80305W        W52631   4.307  20.126   3.381
80306W        W52632  10.117  43.807  12.208
80307W        W52633   2.036   1.774  12.864
80308W        W52634  23.143  40.855   1.956
80309W        W52635  40.480  22.303   3.290
80310W        W52636  17.945  30.539  12.404
80311W        W52637  21.711   9.223  11.561
80312W        W52638  11.240  25.228   1.156
80313W        W52639  14.650   5.762  10.759
80314W        W52640  13.188  24.559   1.193
80315W        W52641  29.495  19.556  12.228
80316W        W52642   8.129  22.127   3.644
80317W        W52643  14.681  29.188   4.669
80318W        W52644  22.074  34.789  14.526
80319W        W52645  35.026  26.262  12.876
80320W        W52646  29.479  23.727  12.830
80321W        W52647   9.341  22.699   1.919
80322W        W52648  29.987  31.697   4.176
80323W        W52649  44.422  18.995  10.662
80324W        W52650  42.035  32.323   0.107
80325W        W52651  37.065  23.033   2.354
80326W        W52652  27.886  39.995  12.977
80327W        W52653   3.489   8.860   0.002
80328W        W52654  26.681  26.535  14.921
80329W        W52655  24.170  42.944   1.733
80330W        W52656  21.758  17.081  14.976
80331W        W52657  28.398  33.956   0.798
80332W        W52658  21.307  39.554   0.277
80333W        W52659  21.070  44.073  10.627
80334W        W52660  18.598  25.678   0.938
80335W        W52661  19.612  24.599   0.348
80336W        W52662  14.539  19.767   0.045
80337W        W52663  33.518   6.350   0.327
80338W        W52664   5.809   3.295  12.633
80339W        W52665  39.786  24.611   0.761
80340W        W52666   6.669  21.872  11.206
80341W        W52667   5.315   1.927  12.473
80342W        W52668  32.439  27.680   1.384
80343W        W52669   0.326   8.864  11.968
80344W        W52670   3.890  31.513  13.596
80345W        W52671  11.750  31.051   1.946
80346W        W52672  28.017  36.734  11.030
80347W        W52673  41.867  28.471   3.844
80348W        W52674   5.788  14.085  13.551
80349W        W52675  40.482  31.555  13.817
80350W        W52676   1.402  42.977   5.064
80351W        W52677   4.928  39.169   4.554
80352W        W52678  38.797  25.252  12.599
80353W        W52679  31.555  30.948   3.128
80354W        W52680   1.357  30.868   3.775
80355W        W52681  39.346   0.893   3.932
80356W        W52682  18.648  33.784   4.854
80357W        W52683  28.102   9.089  12.847
80358W        W52684  39.105  30.059  12.916
80359W        W52685  42.948  41.269   3.737
80360W        W52686  20.246  12.108  12.542
80361W        W52687  22.800  31.026  10.846
80362W        W52688  44.330  44.803   2.300
80363W        W52689  15.508  18.730  13.042
80364W        W52690  24.705  15.275  12.984
80365W        W52691  15.346  25.787   3.835
80366W        W52692  16.613   7.732  11.612
80367W        W52693  44.846  12.663   3.774
80368W        W52694  27.015  33.464  13.534
80369W        W52695  27.373   0.278   4.241
80370W        W52696  42.908  21.590  13.845
80371W        W52697  41.905  31.770   4.285
80372W        W52698  18.119  12.930   3.029
80373W        W52699   3.853  15.314  14.361
80374W        W52700  23.502   6.184   1.696
80375W        W52701  27.174  11.185  14.338
80376W        W52702  31.420  16.095  11.950
80377W        W52703  26.730   9.401   1.784
80378W        W52704  26.159  40.537   0.858
80379W        W52705  13.099  28.451   2.873
80380W        W52706  13.828  28.509  10.989
80381W        W52707  36.355  28.042   0.807
80382W        W52708  41.902  27.964   3.061
80383W        W52709  33.718  41.683  12.840
80384W        W52710   2.506   9.235   3.221
80385W        W52711   6.268  43.593   2.727
80386W        W52712  40.441  24.654   0.271
80387W        W52713  31.315  44.800   2.197
80388W        W52714  27.015  25.303   4.467
80389W        W52715   1.764   6.226  13.446
80390W        W52716   5.992   7.305   1.928
80391W        W52717  38.432  26.999  13.317
80392W        W52718   4.337   3.274  12.032
80393W        W52719  26.057   8.880   1.068
80394W        W52720  31.443  32.544  13.051
80395W        W52721  40.521  34.872   1.439
80396W        W52722  25.239   9.271   4.394
80397W        W52723  11.871  23.479  12.535
80398W        W52724  30.498  23.003   2.696
80399W        W52725  26.062  41.208   0.482
80400W        W52726  17.388  28.539   0.750
80401W        W52727  18.220  40.870  14.972
80402W        W52728  44.964  28.670   4.462
80403W        W52729  19.305   5.232  12.004
80404W        W52730  21.318   3.931   3.258
80405W        W52731  23.120  16.990  10.940
80406W        W52732  15.560  12.013  14.626
80407W        W52733  36.252  30.381   3.148
80408W        W52734  30.311   6.937  11.915
80409W        W52735  21.643  23.948  14.541
80410W        W52736  16.396  37.577  14.214
80411W        W52737  33.890  40.920  14.224
80412W        W52738   1.753  27.229  10.748
80413W        W52739  17.082   5.280   4.879
80414W        W52740  27.242  13.130   0.925
80415W        W52741  34.580  21.815  10.987
80416W        W52742   6.452   2.779  13.094
80417W        W52743  44.868   1.540   2.733
80418W        W52744  38.860  44.963  13.927
80419W        W52745  14.300  34.446  14.331
80420W        W52746  31.491  40.982  10.615
80421W        W52747  27.581  39.909   3.566
80422W        W52748   3.347  24.136  10.791
80423W        W52749  37.565   4.853  10.737
80424W        W52750  43.116  29.025  14.377
80425W        W52751  15.950  23.602   1.680
80426W        W52752  19.116   3.682  11.673
80427W        W52753  24.642  14.880   3.765
80428W        W52754  24.519  35.535   0.837
80429W        W52755  37.281  26.279   3.285
80430W        W52756  39.872  19.050  11.153
80431W        W52757  13.735  40.788   1.420
80432W        W52758   8.602   8.153  12.091
80433W        W52759  20.955  15.927   2.377
80434W        W52760  23.003  43.457   0.052
80435W        W52761  32.495  11.852  13.382
80436W        W52762  37.555  20.288  10.134
80437W        W52763  17.227   1.402  11.411
80438W        W52764  42.399  36.172  13.849
80439W        W52765  43.597  24.902  11.126
80440W        W52766  16.053  36.020  11.605
80441W        W52767   1.524  41.364  13.854
80442W        W52768  36.526  34.026  14.094
80443W        W52769   5.224  20.456   1.639
80444W        W52770  13.757   5.187   2.204
80445W        W52771   7.134   9.576   1.834
80446W        W52772  34.241  30.460  13.724
80447W        W52773   7.012  12.889  13.622
80448W        W52774   0.244  21.564  12.038
80449W        W52775   3.747  24.060  13.910
80450W        W52776  11.026  44.814  12.405
80451W        W52777  26.706  24.089  14.979
80452W        W52778   3.812  14.276   4.212
80453W        W52779  21.197  29.695  13.444
80454W        W52780  26.137  16.143  14.961
80455W        W52781  19.943   0.943   1.309
80456W        W52782   9.044  28.189  12.910
80457W        W52783  44.123  28.001   1.309
80458W        W52784   6.042   2.133  10.219
80459W        W52785  33.850   2.324  10.679
80460W        W52786  19.617   7.534   4.330
80461W        W52787   4.420  32.069   1.988
80462W        W52788  36.492  26.061  12.839
80463W        W52789  39.612  18.156  13.365
80464W        W52790  37.301  14.186   2.253
80465W        W52791  35.035  27.963   2.914
80466W        W52792  30.764  25.462   2.132
80467W        W52793   2.972   4.559  14.876
80468W        W52794  18.092   7.514   2.003
80469W        W52795  15.091  17.470  13.867
80470W        W52796  41.215   2.237   4.613
80471W        W52797  35.458   4.219   3.737
80472W        W52798  34.492  20.278   1.450
80473W        W52799  14.267  44.695   1.457
80474W        W52800   2.007  21.640  14.842
80475W        W52801  11.128  26.425  13.063
80476W        W52802   0.025  11.691  13.585
80477W        W52803  31.855  14.530  11.385
80478W        W52804  39.229  28.932  13.605
80479W        W52805  40.989  23.229   0.881
80480W        W52806  37.465  20.773   1.405
80481W        W52807  26.637  35.450  12.115
80482W        W52808  10.598  24.642   3.159
80483W        W52809   8.841  17.990  10.814
80484W        W52810   8.245  36.062   1.910
80485W        W52811  40.129  19.547   2.674
80486W        W52812  41.429  15.117  13.514
80487W        W52813  43.168  43.041   3.021
80488W        W52814  28.497  11.898  12.739
80489W        W52815  39.375  27.937   3.281
80490W        W52816  31.930   1.834  12.926
80491W        W52817  30.441   5.462  14.225
80492W        W52818  37.068  37.952  12.248
80493W        W52819  42.557  40.078  14.402
80494W        W52820  44.324  41.922  12.557
80495W        W52821  34.074  16.534  13.733
80496W        W52822  11.413  13.714   4.540
80497W        W52823  39.299   8.277  13.920
80498W        W52824  39.972  44.313  14.852
80499W        W52825  20.664  13.668  12.852
80500W        W52826  38.433  13.316  13.827
80501W        W52827  12.099  19.753  11.520
80502W        W52828  16.245  33.424   3.168
80503W        W52829  25.924  15.013   9.652
80504W        W52830  36.495  41.806   2.094
80505W        W52831   6.206   9.865  12.555
80506W        W52832  39.948  27.273  10.639
80507W        W52833  34.895   4.859   2.019
80508W        W52834  29.311  20.191   0.396
80509W        W52835  11.632  30.107  11.046
80510W        W52836  13.364  20.528  12.929
80511W        W52837  15.401   6.211   2.745
80512W        W52838   8.164  44.285   3.855
80513W        W52839  18.365   4.786   3.302
80514W        W52840  38.484  25.615   4.157
80515W        W52841  39.643   3.928   2.783
80516W        W52842  23.471  14.789  14.400
80517W        W52843  27.184  10.164  12.133
80518W        W52844  29.956  35.129  14.392
80519W        W52845  13.834  33.842   5.516
80520W        W52846  34.138  20.725  12.842
80521W        W52847  31.533  38.321   2.850
80522W        W52848  32.047  12.858  14.366
80523W        W52849  24.184  26.674  12.868
80524W        W52850  15.459  24.659   2.684
80525W        W52851  13.558   3.357  14.283
80526W        W52852  17.546  19.255  14.967
80527W        W52853  26.957  25.916   2.713
80528W        W52854  44.736  38.066  13.417
80529W        W52855  14.577  30.952   0.483
80530W        W52856   1.961  26.585  12.062
80531W        W52857   9.736   5.213   3.536
80532W        W52858  44.810  39.490  11.889
80533W        W52859  18.590  29.931   1.970
80534W        W52860  25.798  16.759   1.121
80535W        W52861  21.787   2.097   5.058
80536W        W52862  32.363  18.965  13.417
80537W        W52863  15.813  14.701  11.385
80538W        W52864  39.817  35.603   2.942
80539W        W52865  27.469  24.781   2.338
80540W        W52866  26.689  32.027   1.821
80541W        W52867  39.122   8.667   4.451
80542W        W52868  30.546  40.985  11.662
80543W        W52869  39.312  44.501   1.809
80544W        W52870  10.804   5.730  14.083
80545W        W52871  40.124  18.067  10.172
80546W        W52872  10.778  32.131  13.807
80547W        W52873  30.653  22.391  13.076
80548W        W52874  34.499  18.074  14.958
80549W        W52875  22.600  16.675   9.880
80550W        W52876   7.125  32.671   1.336
80551W        W52877  15.806  33.009  13.432
80552W        W52878  15.360  15.644   4.588
80553W        W52879  44.184  14.252   0.766
80554W        W52880  38.495  18.708   0.597
80555W        W52881  44.483  19.586  14.331
80556W        W52882  27.256  32.245  11.467
80557W        W52883   8.167  12.855   4.669
80558W        W52884  43.450  40.534  13.791
80559W        W52885   1.460   7.825  14.424
80560W        W52886   8.311   9.152   4.359
80561W        W52887   4.493  21.503  14.795
80562W        W52888  11.558  10.343   3.887
80563W        W52889  36.325   3.132   3.672
80564W        W52890  36.337  20.134  11.659
80565W        W52891  43.855  31.420   4.811
80566W        W52892  33.827   1.427  12.084
80567W        W52893  39.369   7.056  13.574
80568W        W52894  27.114   9.978   3.717
80569W        W52895   8.320  43.228  14.452
80570W        W52896  18.700   9.988   2.865
80571W        W52897  22.894  44.838  10.396
80572W        W52898  18.231  17.764   1.409
80573W        W52899  11.796  11.580  13.290
80574W        W52900   1.287  14.161  14.342
80575W        W52901   9.371  30.890   4.465
80576W        W52902  35.842  26.638   4.153
80577W        W52903  31.485  22.034  12.110
80578W        W52904  33.646  31.874  12.967
80579W        W52905  15.135   3.205  13.103
80580W        W52906  37.338  13.134  14.736
80581W        W52907  29.583   6.462   2.078
80582W        W52908  39.654  23.710  11.929
80583W        W52909   4.316  11.959  12.852
80584W        W52910  10.352  35.826  11.657
80585W        W52911  34.021  17.033  13.887
80586W        W52912  22.194   0.764  14.301
80587W        W52913  24.608  22.062   1.922
80588W        W52914  26.742   6.691   0.057
80589W        W52915  20.433   8.332  13.529
80590W        W52916  24.058  21.676   2.977
80591W        W52917  21.577  20.327   3.696
80592W        W52918  28.923  26.849   3.692
80593W        W52919  23.616  26.161   4.255
80594W        W52920   3.719  30.586  13.074
80595W        W52921   6.937  36.988  13.097
80596W        W52922  10.804   1.392   2.716
80597W        W52923  30.562   3.365  12.995
80598W        W52924  10.003  22.535  13.465
80599W        W52925  31.135  16.489   1.921
80600W        W52926  34.071  40.715   4.264
80601W        W52927  18.200   0.098   1.941
80602W        W52928  13.109  27.377  10.723
80603W        W52929  35.030  36.575   9.740
80604W        W52930  44.479  29.686   2.972
80605W        W52931  42.989   5.695   3.886
80606W        W52932   9.691  33.157   3.530
80607W        W52933  36.443   2.731   2.315
80608W        W52934  27.058  13.432   4.981
80609W        W52935  21.072  26.138   2.312
80610W        W52936   0.917  39.874  11.116
80611W        W52937  38.536  40.051   1.219
80612W        W52938  21.991  40.537  10.582
80613W        W52939  42.564  22.636  11.930
80614W        W52940  27.147  29.235   0.399
80615W        W52941  22.721  44.422   4.540
80616W        W52942   5.486   7.445  13.843
80617W        W52943   4.694   1.755   3.248
80618W        W52944   4.753  33.926  14.789
80619W        W52945  43.598   2.309  11.942
80620W        W52946  19.780  30.186   1.850
80621W        W52947  18.337  11.165  13.323
80622W        W52948  11.172  24.786   1.431
80623W        W52949  37.526   3.956   2.857
80624W        W52950  12.389  31.377  12.507
80625W        W52951  12.011  27.252   2.006
80626W        W52952  27.670  16.560  14.378
80627W        W52953  30.127   3.610  12.901
80628W        W52954  32.656   3.041  13.415
80629W        W52955  15.928  38.585  11.134
80630W        W52956  32.509  25.979   2.194
80631W        W52957  12.328  36.197   0.051
80632W        W52958  32.538  30.806  11.074
80633W        W52959   1.437  40.735   3.961
80634W        W52960   8.435  32.941  12.553
80635W        W52961  13.838  26.361   4.729
80636W        W52962  24.264  32.075   1.345
80637W        W52963   5.464  11.214   1.848
80638W        W52964  34.096  25.587  11.724
80639W        W52965  10.904   2.079   0.850
80640W        W52966  24.165  40.533   9.889
80641W        W52967   0.735  22.757  13.978
80642W        W52968  33.391  25.138   2.345
80643W        W52969  32.480  36.122   5.069
80644W        W52970  10.310  14.660   0.427
80645W        W52971  20.374  44.812  13.026
80646W        W52972  32.170  36.860  14.065
80647W        W52973  38.173  35.242  11.197
80648W        W52974  11.494  15.506   0.728
80649W        W52975  43.326   2.393   0.425
80650W        W52976  11.705   3.987  12.280
80651W        W52977   6.935  30.390   2.340
80652W        W52978  18.730  26.897   2.786
80653W        W52979  13.117  11.623   2.738
80654W        W52980  35.433  38.654   2.745
80655W        W52981   8.809  22.560  11.135
80656W        W52982  27.219   2.680   0.585
80657W        W52983  41.101   4.191   2.734
80658W        W52984  26.097  13.122  13.640
80659W        W52985  44.012  17.832  13.937
80660W        W52986   0.706  21.417   1.812
80661W        W52987  21.663   6.212   3.564
80662W        W52988  41.921  41.561  11.724
80663W        W52989  10.612  12.707  14.954
80664W        W52990   4.979  15.605   2.343
80665W        W52991   1.273  41.829   1.891
80666W        W52992  35.857  20.521   3.838
80667W        W52993  26.001  40.455  12.691
80668W        W52994  29.419  14.706  12.932
80669W        W52995  12.443  18.834  14.435
80670W        W52996  27.976  18.205  11.592
80671W        W52997  12.022  19.144  14.434
80672W        W52998  20.596  25.653  11.610
80673W        W52999   0.667   2.648   5.032
80674W        W53000  32.961  34.541   3.684
80675W        W53001  14.148  43.822  13.808
80676W        W53002   0.851  12.302   1.431
80677W        W53003  34.375  33.008   2.757
80678W        W53004   9.397  36.898   4.693
80679W        W53005  19.690  10.252   2.867
80680W        W53006  33.066   0.983   2.480
80681W        W53007  40.950  31.541  14.790
80682W        W53008  21.732  44.576  13.832
80683W        W53009   8.669  35.446  10.972
80684W        W53010   3.886   3.812  13.607
80685W        W53011  10.654  41.096   1.784
80686W        W53012  20.241  40.489   3.959
80687W        W53013  29.886  15.193   0.255
80688W        W53014  26.144  23.966  10.451
80689W        W53015  16.616  15.005   0.461
80690W        W53016   5.328  41.440   3.753
80691W        W53017  10.678  39.473   3.412
80692W        W53018  10.777  20.132   1.758
80693W        W53019  12.771  20.549   3.765
80694W        W53020  27.598  22.462   3.232
80695W        W53021  37.959  42.780   1.574
80696W        W53022   4.192  16.993   2.287
80697W        W53023  22.216  32.893  12.557
80698W        W53024  42.864   6.693   2.356
80699W        W53025  44.432  42.036   2.323
80700W        W53026  44.339  30.954   0.439
80701W        W53027  43.684   2.236   2.367
80702W        W53028  39.467  30.462   2.781
80703W        W53029  42.313  17.360  12.949
80704W        W53030  15.761   4.469  13.009
80705W        W53031  42.855  37.822   2.673
80706W        W53032  43.764   3.980  14.477
80707W        W53033  16.776  10.276  12.150
80708W        W53034  24.524  34.809  11.150
80709W        W53035  21.441   6.616   4.507
80710W        W53036  36.561   7.738  11.490
80711W        W53037  32.394  14.570   2.685
80712W        W53038   8.190   2.969  14.753
80713W        W53039   0.180  10.820  13.498
80714W        W53040  41.052  41.003   1.038
80715W        W53041  34.486  44.300  12.380
80716W        W53042  36.578  19.126  10.585
80717W        W53043  21.783  11.196  14.398
80718W        W53044  26.706  40.465  13.315
80719W        W53045  17.755  15.457  14.097
80720W        W53046  13.873  19.993  14.046
80721W        W53047   2.518   0.930   4.529
80722W        W53048  12.703   4.214  14.572
80723W        W53049  16.974  11.847   4.153
80724W        W53050   5.373  19.617  13.766
80725W        W53051  20.694  37.882   2.192
80726W        W53052  33.027  31.440   4.383
80727W        W53053  12.587  22.725  14.352
80728W        W53054  42.921  11.737  12.936
80729W        W53055  39.078  28.896   3.051
80730W        W53056   9.750   8.672   0.787
80731W        W53057  11.595   3.987  13.306
80732W        W53058  10.091  18.230   1.724
80733W        W53059  24.542  16.302  11.060
80734W        W53060   8.816  24.896  14.633
80735W        W53061  27.368  32.552  13.906
80736W        W53062  19.803  38.218   4.106
80737W        W53063   3.791  29.447   2.300
80738W        W53064   7.634  39.689  13.132
80739W        W53065  24.752  23.576   2.606
80740W        W53066  17.030  39.947  12.361
80741W        W53067  14.864  32.196   0.960
80742W        W53068  27.670  15.693  14.399
80743W        W53069  29.428  13.216   4.546
80744W        W53070  19.795  15.147   3.650
80745W        W53071  37.612  13.629   0.453
80746W        W53072  33.894  29.210   4.626
80747W        W53073  43.282  21.830   2.615
80748W        W53074  23.239   2.264   2.741
80749W        W53075   6.657  44.854  11.644
80750W        W53076  17.053   2.346  10.596
80751W        W53077  30.457  40.534  14.511
80752W        W53078   8.380  14.897   0.431
80753W        W53079  36.118  17.448   1.879
80754W        W53080   5.131  16.216  14.057
80755W        W53081  37.521  22.221  12.068
80756W        W53082   6.202  28.678   4.908
80757W        W53083  23.080  26.641   3.769
80758W        W53084  32.158  34.488  10.395
80759W        W53085  42.335  17.072   2.632
80760W        W53086  32.259  31.500  11.533
80761W        W53087   7.891  21.739   0.802
80762W        W53088  11.009  33.024   4.561
80763W        W53089  18.015  37.351   3.119
80764W        W53090  32.141  30.913  13.984
80765W        W53091  22.590  43.056   0.970
80766W        W53092  15.129  37.601  12.518
80767W        W53093  37.993  28.750  11.629
80768W        W53094  33.121  37.895   2.343
80769W        W53095  42.684   8.850  14.903
80770W        W53096  10.407   5.022  10.550
80771W        W53097  31.884  17.870  12.605
80772W        W53098  16.957  43.091   4.147
80773W        W53099   4.456  16.608  12.344
80774W        W53100  32.641   1.323   3.183
80775W        W53101  44.256  18.115  13.051
80776W        W53102   4.506  40.968   1.587
80777W        W53103   8.248  14.885  11.061
80778W        W53104   3.328  23.194   4.518
80779W        W53105  41.285  18.617  11.254
80780W        W53106  13.067  20.639  13.342
80781W        W53107  14.765  43.021  11.581
80782W        W53108   2.308  42.865  10.440
80783W        W53109  43.212  22.017  11.104
80784W        W53110  37.021   7.431  14.450
80785W        W53111   3.098  41.392   4.521
80786W        W53112  38.848  32.055  13.158
80787W        W53113  13.161   5.709   1.774
80788W        W53114  22.120  41.779  13.487
80789W        W53115   7.792  32.253  14.451
80790W        W53116  30.743   7.885  10.947
80791W        W53117  20.785  30.183  11.493
80792W        W53118  41.510   6.607  11.656
80793W        W53119  42.044  34.585   2.387
80794W        W53120  18.803  27.124  11.264
80795W        W53121  18.691  39.300   4.161
80796W        W53122  18.536  15.283  14.721
80797W        W53123   5.642  40.750   3.622
80798W        W53124  26.737  29.640   0.441
80799W        W53125  35.189  19.563  14.204
80800W        W53126  35.770  13.049  14.995
80801W        W53127  23.911  33.699  10.202
80802W        W53128  33.972  42.463   1.460
80803W        W53129  28.546  33.104   0.023
80804W        W53130  27.126  25.539  14.050
80805W        W53131  23.469  12.199   3.685
80806W        W53132   2.188  40.015  14.273
80807W        W53133   8.607  34.782   2.750
80808W        W53134   9.800  44.473   3.359
80809W        W53135  11.157  26.129   0.995
80810W        W53136  10.390   4.601   0.557
80811W        W53137  18.009  34.833   1.022
80812W        W53138  20.072  17.776  13.419
80813W        W53139  17.112  33.538  10.556
80814W        W53140  42.449   9.318  14.881
80815W        W53141  41.987  11.872   3.187
80816W        W53142  25.134  40.527  10.716
80817W        W53143  23.566  37.152  13.385
80818W        W53144  35.624  11.579   1.942
80819W        W53145  18.573   2.755  13.410
80820W        W53146  28.313  20.309   0.100
80821W        W53147   1.893  32.682  11.934
80822W        W53148  14.509  27.234  12.875
80823W        W53149   2.232  40.306  12.569
80824W        W53150  17.304  21.323  11.625
80825W        W53151  20.340  13.619   1.155
80826W        W53152  15.794  42.335   2.781
80827W        W53153   7.313  30.779  12.000
80828W        W53154  27.940  28.664   3.792
80829W        W53155  29.864  16.627   2.405
80830W        W53156  40.465  35.661  13.858
80831W        W53157  17.596   8.375   2.474
80832W        W53158  14.309  23.762   1.704
80833W        W53159   5.489  34.508   0.805
80834W        W53160  37.669  21.517  11.231
80835W        W53161  27.442  44.499   0.369
80836W        W53162  14.198  12.217   3.680
80837W        W53163  18.106  14.660   1.621
80838W        W53164  37.039  41.510   2.365
80839W        W53165   5.161   8.855   0.437
80840W        W53166  39.966  26.920  11.003
80841W        W53167  26.476  33.972  11.171
80842W        W53168   2.852  22.305   3.683
80843W        W53169  29.234  31.101   1.897
80844W        W53170   2.309   5.159   2.223
80845W        W53171   6.958  35.393   0.685
80846W        W53172  13.855  40.883  14.045
80847W        W53173  37.423   8.906   3.349
80848W        W53174  27.456  44.591   1.253
80849W        W53175  24.729  19.540  12.951
80850W        W53176   9.308   5.336   3.788
80851W        W53177   3.764  31.037   0.508
80852W        W53178  33.885  11.767   1.239
80853W        W53179  34.498   6.494   0.364
80854W        W53180  44.074  18.233  11.711
80855W        W53181  11.890  28.982   1.870
80856W        W53182  27.625  33.411   3.387
80857W        W53183   8.928  44.494   4.184
80858W        W53184  33.561   4.920  10.786
80859W        W53185  41.269  41.566   0.440
80860W        W53186  44.467  34.454  13.510
80861W        W53187   5.122  35.880  13.326
80862W        W53188   6.218   7.948  13.263
80863W        W53189   3.440  12.802  14.335
80864W        W53190  42.010  39.934   2.778
80865W        W53191  23.778  41.524  10.726
80866W        W53192   4.980   5.260  13.696
80867W        W53193  36.475   2.205   2.322
80868W        W53194   1.894   3.197  11.112
80869W        W53195   7.628   3.253   4.128
80870W        W53196  16.159  15.565  12.928
80871W        W53197  33.832  34.356  13.713
80872W        W53198  28.842  43.956  13.395
80873W        W53199  37.967  12.098   1.737
80874W        W53200  20.534  39.110   0.898
80875W        W53201  14.352  12.943   4.116
80876W        W53202  41.867  40.747  14.454
80877W        W53203  27.751  27.579  11.937
80878W        W53204  30.568   1.265   0.782
80879W        W53205  25.492  30.503  11.539
80880W        W53206  26.285  21.479  13.604
80881W        W53207   4.517  31.530  10.461
80882W        W53208   3.372   2.032   2.814
80883W        W53209  31.914  44.745   1.187
80884W        W53210  27.670  20.016   2.222
80885W        W53211  22.201  44.060   1.654
80886W        W53212   3.081  21.479   3.276
80887W        W53213  44.455  19.096  14.521
80888W        W53214  11.195  12.938   4.763
80889W        W53215  19.635   1.325  10.541
80890W        W53216  15.823  30.176   4.968
80891W        W53217  24.673  27.913  12.954
80892W        W53218   8.912  12.824   3.141
80893W        W53219  15.782  25.552  14.291
80894W        W53220  19.956  36.119  11.180
80895W        W53221  24.755  36.554  13.627
80896W        W53222  14.043  11.183   0.917
80897W        W53223  35.835  12.629  14.251
80898W        W53224  12.717  19.850  12.844
80899W        W53225  43.799  33.010  12.545
80900W        W53226  27.198   8.807  12.310
80901W        W53227  11.100   4.220  11.115
80902W        W53228  39.870  22.243   0.428
80903W        W53229   6.333  27.963  11.859
80904W        W53230   4.750  42.847  13.476
80905W        W53231   8.515  15.573  12.970
80906W        W53232  25.642  30.020  11.416
80907W        W53233  17.658   2.926   3.332
80908W        W53234  31.429  33.816   3.536
80909W        W53235  44.480   2.040  11.061
80910W        W53236  33.012  38.884   1.362
80911W        W53237   9.284  38.517  13.324
80912W        W53238   6.234  23.640   1.381
80913W        W53239  14.608  15.670  10.166
80914W        W53240  24.819  10.819  11.684
80915W        W53241  31.030  17.961  13.463
80916W        W53242  18.739   7.834   4.072
80917W        W53243   3.738  33.918   1.314
80918W        W53244  33.522  35.889   5.561
80919W        W53245  21.404  23.975   4.814
80920W        W53246  22.435  12.594   0.314
80921W        W53247  33.135  17.541   4.465
80922W        W53248  25.024  14.669   1.426
80923W        W53249  27.979  25.090  12.623
80924W        W53250  19.093   6.604   2.727
80925W        W53251  44.314   5.171   0.878
80926W        W53252  39.412  17.792  11.217
80927W        W53253  29.288  13.800   3.711
80928W        W53254  21.132  25.586  10.847
80929W        W53255   1.208  25.008  11.939
80930W        W53256  27.119   9.914  14.999
80931W        W53257   6.217  14.233  12.436
80932W        W53258  30.504  29.053  10.534
80933W        W53259  23.652  17.016  11.686
80934W        W53260  10.686  34.612  13.468
80935W        W53261  27.112  34.208  14.950
80936W        W53262  15.819  29.651  13.956
80937W        W53263   6.423  29.292   0.596
80938W        W53264  39.799  41.025  13.492
80939W        W53265   8.289   4.142   2.837
80940W        W53266  24.548  40.804  10.805
80941W        W53267   4.178  20.096   0.726
80942W        W53268  42.850  10.622  12.796
80943W        W53269  39.774   0.722   0.567
80944W        W53270  17.412  28.919   2.666
80945W        W53271  15.606   0.365   4.334
80946W        W53272  34.829   4.882  10.283
80947W        W53273  15.957  37.329  10.052
80948W        W53274  38.247  19.190  11.720
80949W        W53275   4.677  26.908   5.007
80950W        W53276  11.110  29.530   4.471
80951W        W53277   2.704   7.358  10.566
80952W        W53278   1.153  23.516   4.984
80953W        W53279  25.149  20.053  14.940
80954W        W53280  28.927   9.220  13.848
80955W        W53281  40.120   2.724   0.676
80956W        W53282  25.568  39.321  14.467
80957W        W53283  38.340  18.947  12.162
80958W        W53284  37.777  33.141   2.451
80959W        W53285   8.418  33.623  14.408
80960W        W53286  32.033   6.938   3.245
80961W        W53287   0.375  42.854   2.863
80962W        W53288   2.007  26.176  14.828
80963W        W53289   9.252  35.103   0.924
80964W        W53290   6.726  44.724  14.988
80965W        W53291   8.098  11.914   3.266
80966W        W53292   6.470  44.085  10.301
80967W        W53293  36.704  35.065   5.314
80968W        W53294   4.944  13.261  12.949
80969W        W53295  13.925  28.527   4.080
80970W        W53296  43.271  25.654   0.028
80971W        W53297  39.673   4.136   1.792
80972W        W53298  44.854  44.777  12.454
80973W        W53299  43.554   9.379  11.980
80974W        W53300  24.741  12.856   0.934
80975W        W53301  18.492   8.122  14.289
80976W        W53302  11.970  32.480   1.668
80977W        W53303  13.371  11.186  12.436
80978W        W53304  11.605  35.300   1.777
80979W        W53305   8.360   2.657   0.144
80980W        W53306  19.950  21.606  12.881
80981W        W53307  41.391  32.923   1.271
80982W        W53308  31.544   8.736  14.116
80983W        W53309  43.302  34.925   3.050
80984W        W53310  16.733  41.373   4.586
80985W        W53311   3.493  39.797  13.856
80986W        W53312  41.768   0.888  14.504
80987W        W53313  11.205  31.367   3.467
80988W        W53314  19.301  34.362   1.315
80989W        W53315  16.579  29.810   2.312
80990W        W53316  27.616   7.645   1.836
80991W        W53317  22.112  32.425   3.682
80992W        W53318   3.128   0.179  12.008
80993W        W53319   5.517  26.689   1.866
80994W        W53320  33.484  27.512  10.792
80995W        W53321  11.166  43.363   0.726
80996W        W53322  33.040  16.491   3.724
80997W        W53323  41.889  31.227  12.531
80998W        W53324  33.350  36.961   1.975
80999W        W53325   1.984  18.249   4.292
81000W        W53326  31.185   5.443   3.359
81001W        W53327  12.361  43.385  14.025
81002W        W53328  12.006   9.152   1.285
81003W        W53329  16.670  33.438  13.800
81004W        W53330   7.188  18.073  13.467
81005W        W53331  20.279  33.838  12.552
81006W        W53332  16.783   5.748   1.725
81007W        W53333  25.270  34.442  14.919
81008W        W53334  37.249  18.892   0.217
81009W        W53335  31.748   7.721  10.373
81010W        W53336  36.067  32.763   9.801
81011W        W53337  15.651  21.750   3.493
81012W        W53338  24.985  10.205   4.222
81013W        W53339  17.523  31.807   2.170
81014W        W53340  12.091  40.070  14.658
81015W        W53341  11.071  15.799   0.706
81016W        W53342  28.867  41.491  12.883
81017W        W53343   1.929  44.479  14.047
81018W        W53344  29.609  30.993  14.604
81019W        W53345   1.749   0.401   3.042
81020W        W53346  44.808  32.799   4.448
81021W        W53347  15.567  37.802  12.381
81022W        W53348  41.680  15.093   1.178
81023W        W53349  39.081   1.277   2.307
81024W        W53350  40.151  42.668   2.125
81025W        W53351  12.710  30.147   1.200
81026W        W53352   3.160  40.299   4.879
81027W        W53353  41.979  42.841  13.171
81028W        W53354  30.595   8.334   0.469
81029W        W53355  17.256   3.686  12.037
81030W        W53356  31.814   1.924  10.612
81031W        W53357   4.571  33.566  14.459
81032W        W53358  39.924  38.285   1.413
81033W        W53359  14.607  30.899   1.010
81034W        W53360  20.366  21.272  12.622
81035W        W53361   0.391  26.731  14.914
81036W        W53362  18.642  39.787   3.848
81037W        W53363  11.414  39.954  10.828
81038W        W53364  20.096  23.516  14.738
81039W        W53365  10.075  32.095   2.433
81040W        W53366   1.968  26.847   4.486
81041W        W53367  17.009  26.309   1.471
81042W        W53368  26.145  13.682   4.504
81043W        W53369  16.395  18.743   0.485
81044W        W53370  17.772  24.751   0.461
81045W        W53371  26.204  12.882   4.930
81046W        W53372  25.954   8.261  13.017
81047W        W53373  40.256  36.002  12.818
81048W        W53374  39.060  31.230   4.164
81049W        W53375   2.045   6.124  11.126
81050W        W53376  15.423  26.217  10.713
81051W        W53377  40.370  24.185   4.772
81052W        W53378   2.990   4.611   0.772
81053W        W53379  22.554  24.641  14.353
81054W        W53380   5.170   0.801  14.453
81055W        W53381   9.505  29.709   2.753
81056W        W53382   6.908  19.180   4.107
81057W        W53383  28.556  24.752   4.417
81058W        W53384  13.653   7.269  12.319
81059W        W53385  17.283   3.734  10.544
81060W        W53386  10.757  26.912  11.912
81061W        W53387   8.362  44.715  10.630
81062W        W53388  20.057  41.496   1.743
81063W        W53389  22.649  39.840   9.940
81064W        W53390  41.779  39.843   0.371
81065W        W53391  18.688  14.025  12.616
81066W        W53392  16.186  30.575   4.925
81067W        W53393  41.770   1.413   2.235
81068W        W53394   2.705  14.041  14.954
81069W        W53395   1.438  32.327  14.206
81070W        W53396  21.231  24.091  11.998
81071W        W53397   7.972   6.915   3.861
81072W        W53398  11.135  41.246   4.259
81073W        W53399  16.331  12.945  13.897
81074W        W53400  10.671   8.617   5.175
81075W        W53401  19.534   7.680  14.983
81076W        W53402  10.899  34.172   4.253
81077W        W53403  22.196  20.919  12.928
81078W        W53404   9.314  37.495  13.372
81079W        W53405   5.218   4.894   4.266
81080W        W53406  22.950  19.163   1.334
81081W        W53407  33.504  31.699   4.642
81082W        W53408   5.882  23.895   2.749
81083W        W53409  10.654  36.371   0.524
81084W        W53410  20.257  44.958  11.558
81085W        W53411   5.132  16.155  12.086
81086W        W53412   0.534   7.260  12.660
81087W        W53413  41.999   6.954   2.775
81088W        W53414  41.502  37.571   2.367
81089W        W53415   2.923   7.784  14.204
81090W        W53416  35.457   8.938   4.178
81091W        W53417  39.405  14.025   1.965
81092W        W53418  16.007  37.247  12.946
81093W        W53419  24.225   8.416  12.567
81094W        W53420  33.001   9.080   1.259
81095W        W53421  36.394  23.703  13.485
81096W        W53422  22.202  35.757   1.706
81097W        W53423   0.105  35.103   0.341
81098W        W53424   6.172  33.200  11.553
81099W        W53425   4.356  37.636   2.819
81100W        W53426  36.421  41.091  12.847
81101W        W53427  40.784  33.438   3.359
81102W        W53428  42.827  38.857  14.873
81103W        W53429  16.674  36.131   4.363
81104W        W53430  38.944   6.275   3.127
81105W        W53431  44.325  34.061   0.911
81106W        W53432  12.437  12.706  11.781
81107W        W53433  42.080  39.534  10.793
81108W        W53434  19.117  16.630   0.520
81109W        W53435   7.107  43.380  12.109
81110W        W53436  24.675  40.763   3.234
81111W        W53437   7.823   0.367   4.756
81112W        W53438   9.781  44.683   0.204
81113W        W53439  42.265   3.959   0.384
81114W        W53440  33.455  33.937  11.437
81115W        W53441   4.462  15.608  12.707
81116W        W53442  10.365   5.445   4.118
81117W        W53443  19.731  25.205   3.734
81118W        W53444  35.617  21.610   4.639
81119W        W53445  19.528  43.083   2.655
81120W        W53446  40.385  19.590  11.934
81121W        W53447  28.897  25.230  10.460
81122W        W53448   1.715  11.809   3.844
81123W        W53449  42.302  42.209  13.927
81124W        W53450  15.179  33.431   4.075
81125W        W53451   3.709  44.346  11.111
81126W        W53452  15.808   0.002  13.441
81127W        W53453  39.105  38.007  10.526
81128W        W53454  13.541   6.336  11.160
81129W        W53455  11.659  39.300   9.845
81130W        W53456  23.465  25.042  10.716
81131W        W53457  12.474   5.959  12.932
81132W        W53458  26.132  18.551   3.257
81133W        W53459  32.664  36.199  10.661
81134W        W53460  10.729   6.766   2.424
81135W        W53461  40.601  38.384   3.682
81136W        W53462  21.547  14.168   3.267
81137W        W53463  31.183   5.009   4.921
81138W        W53464  19.976  15.756  11.118
81139W        W53465  37.459  13.221   3.283
81140W        W53466  16.759  32.350   2.114
81141W        W53467  16.488  21.795  12.481
81142W        W53468  32.942   1.844  13.025
81143W        W53469  17.758  16.285   0.390
81144W        W53470   8.907   7.836   4.988
81145W        W53471  14.573  38.470   1.870
81146W        W53472  43.046  26.438   4.548
81147W        W53473   4.182   1.703   3.227
81148W        W53474  42.731   3.827   1.939
81149W        W53475   8.620  15.667   4.501
81150W        W53476  17.942  36.666  14.555
81151W        W53477   1.760  41.189  13.100
81152W        W53478  19.867  11.811   3.124
81153W        W53479  15.238  33.494   2.648
81154W        W53480   8.706  15.102   2.415
81155W        W53481  24.046  17.930   5.658
81156W        W53482  20.722  30.397   0.942
81157W        W53483  16.807  19.539  11.112
81158W        W53484  34.818  44.501  14.913
81159W        W53485  25.136   2.880   4.870
81160W        W53486  44.338  36.795   4.327
81161W        W53487  16.881  37.870   1.843
81162W        W53488  13.809  22.520   3.713
81163W        W53489   0.862  28.313   3.726
81164W        W53490  40.459  29.976  10.615
81165W        W53491  42.977  14.647  11.060
81166W        W53492  30.307  18.655   5.040
81167W        W53493  15.153  10.787  13.767
81168W        W53494  17.969  32.370   3.357
81169W        W53495  21.058  15.820   4.546
81170W        W53496  25.597  35.991  12.151
81171W        W53497   6.671  37.277  12.082
81172W        W53498  37.006  24.093   0.893
81173W        W53499  34.691  32.982   0.157
81174W        W53500  12.743  44.979  13.305
81175W        W53501  42.884  43.423  11.684
81176W        W53502  33.010  14.441  12.205
81177W        W53503  28.689  31.548  13.666
81178W        W53504  11.077   8.880  14.961
81179W        W53505  31.305  24.381  13.577
81180W        W53506   1.899  20.763   1.668
81181W        W53507  29.470  11.552  13.911
81182W        W53508   9.995  37.817  12.569
81183W        W53509  33.144  37.098   4.645
81184W        W53510   4.141  11.264  11.570
81185W        W53511  24.691  42.452  12.338
81186W        W53512  44.465  20.782   4.150
81187W        W53513  32.460   7.793  11.405
81188W        W53514  19.279  36.089  14.724
81189W        W53515  18.792   6.095  13.425
81190W        W53516   4.661  40.809  12.142
81191W        W53517  16.784  25.263  12.565
81192W        W53518  24.158  27.388  14.853
81193W        W53519  38.047  34.005  13.455
81194W        W53520  12.261   9.784   3.012
81195W        W53521  32.974   0.597  10.596
81196W        W53522  20.477   4.240   3.316
81197W        W53523   2.575  36.107   4.532
81198W        W53524  23.127  18.347   4.832
81199W        W53525  43.993  42.403   0.759
81200W        W53526  29.559  39.958   2.224
81201W        W53527  38.960   3.683   2.194
81202W        W53528  29.914  15.704   2.935
81203W        W53529  26.906  32.548   4.261
81204W        W53530  11.293   8.842  11.964
81205W        W53531  14.625  19.335   5.048
81206W        W53532   8.450  28.539  12.312
81207W        W53533  31.391  41.846  11.198
81208W        W53534  27.759  35.612  10.457
81209W        W53535  41.375  17.639  14.046
81210W        W53536   8.740  40.022   1.431
81211W        W53537  12.639  17.790   0.984
81212W        W53538  35.880  20.978   3.596
81213W        W53539  10.785  35.140   3.462
81214W        W53540  28.093  41.350  13.831
81215W        W53541  15.900   7.421  12.954
81216W        W53542  25.371   3.898   4.967
81217W        W53543  10.896  41.088   1.007
81218W        W53544  29.427  30.517  14.783
81219W        W53545  31.642   7.260  12.516
81220W        W53546   2.280  23.437  11.403
81221W        W53547   4.801  15.281  14.987
81222W        W53548  18.717  42.819  11.138
81223W        W53549  29.734  32.584   3.130
81224W        W53550  40.930   2.717  13.761
81225W        W53551  21.753  21.853  11.597
81226W        W53552   2.774  27.222   4.051
81227W        W53553  28.515  38.565   4.317
81228W        W53554  31.963  30.661  11.864
81229W        W53555  10.832  23.753  12.437
81230W        W53556  17.156  37.447  11.591
81231W        W53557   2.502   6.201   4.610
81232W        W53558  42.077   0.023  13.073
81233W        W53559  11.621   6.698  10.711
81234W        W53560   4.561   6.413  11.113
81235W        W53561  34.825  34.599   3.286
81236W        W53562  34.003  34.569   4.556
81237W        W53563  30.200  41.831  12.060
81238W        W53564  32.141   5.788   1.244
81239W        W53565  23.601  36.401  12.332
81240W        W53566  37.867  42.268  10.974
81241W        W53567  26.835   7.392   1.755
81242W        W53568   5.919   5.245  13.283
81243W        W53569  23.986  32.963  14.861
81244W        W53570   6.480  21.077  12.348
81245W        W53571  25.887  17.787  12.951
81246W        W53572  35.511  17.539  13.599
81247W        W53573  29.785   9.914   2.330
81248W        W53574  33.099  17.828  14.645
81249W        W53575   1.298  24.160  12.417
81250W        W53576  34.599  33.589   2.541
81251W        W53577  13.695  40.008  13.296
81252W        W53578  32.522  21.238   1.654
81253W        W53579  12.600   3.607  10.458
81254W        W53580  35.304  22.806   0.783
81255W        W53581   4.243   1.255   1.084
81256W        W53582  41.734  14.259  11.307
81257W        W53583  34.299   8.290  10.730
81258W        W53584  25.467  24.593   0.526
81259W        W53585   8.324  41.229  14.299
81260W        W53586   4.131   2.540  13.392
81261W        W53587   8.891  21.618   3.702
81262W        W53588  44.938  24.115  12.621
81263W        W53589  31.147  29.852   1.871
81264W        W53590  19.102  11.377   1.404
81265W        W53591   4.286  43.135  14.088
81266W        W53592  22.459  32.554   1.669
81267W        W53593  22.357  28.100  11.965
81268W        W53594  11.909   5.987  13.046
81269W        W53595  36.293  41.342   2.811
81270W        W53596  43.913  20.725  13.090
81271W        W53597  32.910   1.685  11.289
81272W        W53598  34.476  24.716   0.307
81273W        W53599   2.511  26.569  14.558
81274W        W53600  17.549  32.415  13.582
81275W        W53601  28.302   4.889  12.631
81276W        W53602  26.184  10.769   4.588
81277W        W53603  42.732  40.525  11.983
81278W        W53604  23.244   8.767   5.052
81279W        W53605  22.176  10.377   3.272
81280W        W53606  31.139   9.949   3.563
81281W        W53607  33.440  38.428   4.167
81282W        W53608  37.560  39.289   4.623
81283W        W53609  41.069  13.137   0.811
81284W        W53610  37.293  41.946  12.196
81285W        W53611  37.448  19.218  11.083
81286W        W53612  33.315  43.760  12.009
81287W        W53613   2.375   7.806  10.742
81288W        W53614  31.642  34.394   4.127
81289W        W53615  10.915   4.491  12.491
81290W        W53616  31.610  23.743   2.818
81291W        W53617  14.091  23.789  12.538
81292W        W53618  33.789  10.212   4.851
81293W        W53619   8.919  35.550  14.649
81294W        W53620  27.151  42.691   1.835
81295W        W53621  38.498  30.533   0.266
81296W        W53622  40.940  15.613  10.635
81297W        W53623  28.462  30.630   0.299
81298W        W53624  36.378   8.598  12.502
81299W        W53625  14.344  41.968   3.151
81300W        W53626   6.676  22.588  11.938
81301W        W53627  38.910   6.551   4.275
81302W        W53628  41.015  39.589  14.955
81303W        W53629  19.237  37.367   1.427
81304W        W53630  19.514  27.615   0.827
81305W        W53631  22.743  12.786  11.664
81306W        W53632  44.002  41.551   3.724
81307W        W53633   1.505  23.447   2.208
81308W        W53634  11.118  36.399   4.674
81309W        W53635   7.550  14.410  13.939
81310W        W53636  36.037   1.963   0.701
81311W        W53637  37.112  17.941   1.243
81312W        W53638  36.845  26.975   4.750
81313W        W53639   9.906  35.786  13.889
81314W        W53640  32.632   1.073   0.708
81315W        W53641  15.081  27.372   0.392
81316W        W53642  36.575  40.123  13.072
81317W        W53643  20.463  31.218  13.996
81318W        W53644  42.275  22.130   4.182
81319W        W53645   0.100  31.405  12.933
81320W        W53646  34.020  35.057   0.104
81321W        W53647  31.998  11.885  13.003
81322W        W53648  16.244   0.743   3.607
81323W        W53649   5.959  12.724  14.338
81324W        W53650  12.462  36.888  10.839
81325W        W53651  10.178  43.341   0.291
81326W        W53652   7.251  22.346  12.966
81327W        W53653  20.499  12.333  10.674
81328W        W53654  29.553   9.100  11.669
81329W        W53655  31.997  17.827   0.345
81330W        W53656   8.167  16.735  12.937
81331W        W53657  10.879   6.432  13.329
81332W        W53658  43.748  28.103  13.507
81333W        W53659  15.719  24.631  14.633
81334W        W53660   0.971  27.800   3.722
81335W        W53661  41.715  29.645  11.060
81336W        W53662   3.926  16.323  11.638
81337W        W53663  35.992  29.454   4.078
81338W        W53664  41.484  26.471  13.999
81339W        W53665  13.076  20.736   0.757
81340W        W53666  17.192  22.551  13.430
81341W        W53667  38.944  39.491   1.840
81342W        W53668  18.851   1.027   0.610
81343W        W53669   5.451  25.083   0.411
81344W        W53670   8.607  11.384  12.129
81345W        W53671  26.108  29.361   1.817
81346W        W53672  32.078  25.467  13.901
81347W        W53673  10.848  39.936  13.984
81348W        W53674  12.833   5.334  14.495
81349W        W53675  14.061  18.621  14.783
81350W        W53676  24.486  17.742   4.954
81351W        W53677  28.171   5.126   0.323
81352W        W53678  11.737  39.997   3.804
81353W        W53679  20.436  30.827   0.815
81354W        W53680   8.966  44.016   3.615
81355W        W53681  40.650  20.479   0.392
81356W        W53682  33.913  42.203   1.906
81357W        W53683  31.839  19.124   4.542
81358W        W53684   8.364  19.945  11.601
81359W        W53685  28.891   4.447  12.075
81360W        W53686   2.440  22.155   0.756
81361W        W53687  27.268  12.075   4.141
81362W        W53688  26.327  20.177   3.133
81363W        W53689   7.459  11.039   2.035
81364W        W53690  31.962  30.113   2.092
81365W        W53691   5.397  10.324   3.981
81366W        W53692  43.255   0.232  13.930
81367W        W53693  25.764  10.833  11.452
81368W        W53694  14.168   1.691  10.757
81369W        W53695  15.755  34.039  13.029
81370W        W53696  15.593  38.745   2.759
81371W        W53697   2.952  21.066   0.018
81372W        W53698   6.955  28.394   1.037
81373W        W53699   9.380   7.663  14.764
81374W        W53700  20.544   0.879   4.199
81375W        W53701  33.084  12.572  14.383
81376W        W53702  40.759  36.898   0.272
81377W        W53703  30.724  18.610  14.531
81378W        W53704   3.279  38.227   2.427
81379W        W53705  37.498  32.518   0.856
81380W        W53706   5.677  39.956  11.626
81381W        W53707  40.816  35.515   3.899
81382W        W53708  24.776  14.543   2.871
81383W        W53709  11.743  20.941  10.793
81384W        W53710  33.947  38.452  11.911
81385W        W53711  27.522  15.629  13.891
81386W        W53712  10.558  14.123   3.740
81387W        W53713  12.404  14.159  13.396
81388W        W53714  25.710  21.716  12.795
81389W        W53715  40.241  30.752  14.799
81390W        W53716  12.192   9.188   4.262
81391W        W53717  41.324   3.730  14.523
81392W        W53718  13.262  27.526  13.980
81393W        W53719  41.940  18.128   4.894
81394W        W53720  12.718   1.821   3.720
81395W        W53721   1.443   6.999  12.428
81396W        W53722   0.034   3.205   3.386
81397W        W53723  42.360  29.398  13.828
81398W        W53724  22.180   9.182   0.497
81399W        W53725  20.197   2.166   4.508
81400W        W53726  37.567  35.541   3.544
81401W        W53727   6.948  30.588  14.885
81402W        W53728  22.829  41.363   0.343
81403W        W53729   4.688  30.398  14.820
81404W        W53730  31.149  32.578  14.469
81405W        W53731   6.802  29.955   3.163
81406W        W53732  10.357  36.038   4.864
81407W        W53733  21.574  20.265  10.421
81408W        W53734   4.911  30.970  10.649
81409W        W53735  17.341   0.246   2.307
81410W        W53736   8.459   3.440   5.031
81411W        W53737  25.126  22.647   2.943
81412W        W53738   7.675  41.804   2.316
81413W        W53739  28.140  24.502  11.848
81414W        W53740  19.756   4.139   0.725
81415W        W53741  36.820  40.283   3.743
81416W        W53742  24.499  32.149  10.712
81417W        W53743  42.248  38.525  13.979
81418W        W53744  41.739  29.396  13.519
81419W        W53745  24.387  11.801  13.798
81420W        W53746  13.659  38.475  13.776
81421W        W53747  27.971  16.290  10.692
81422W        W53748   6.302  26.941  13.481
81423W        W53749  33.963   8.708   2.197
81424W        W53750  40.784  39.366  13.132
81425W        W53751  40.479   3.753   1.673
81426W        W53752  33.939  16.603   4.683
81427W        W53753  13.202  27.112  14.844
81428W        W53754   0.842  12.088   3.712
81429W        W53755  12.315  24.458   9.784
81430W        W53756   9.460   7.275   0.748
81431W        W53757  37.050  36.276  11.027
81432W        W53758  10.784   5.231  13.973
81433W        W53759  43.305  12.333   0.989
81434W        W53760  28.904   9.924   0.436
81435W        W53761  37.915  39.550   2.054
81436W        W53762  38.572  42.058   1.385
81437W        W53763  26.776  30.059  14.368
81438W        W53764  43.016   9.350   1.458
81439W        W53765  20.463   6.274  11.618
81440W        W53766   6.718   6.518   4.033
81441W        W53767  20.112  16.783  10.316
81442W        W53768  30.932  33.408  10.580
81443W        W53769  24.157  38.450  12.350
81444W        W53770  37.054  39.587   1.811
81445W        W53771  35.414   9.852   0.917
81446W        W53772  16.403   4.745  11.562
81447W        W53773   5.707  22.015   4.712
81448W        W53774  25.459  26.537   4.025
81449W        W53775  11.552  11.720  14.194
81450W        W53776   7.442  43.245  14.958
81451W        W53777   6.534  35.995  10.604
81452W        W53778  18.878   0.928  11.933
81453W        W53779  40.827  30.140  14.735
81454W        W53780  11.253  34.503  11.074
81455W        W53781  31.312  17.373  11.629
81456W        W53782  37.923  28.245  11.658
81457W        W53783  35.431  27.000  14.330
81458W        W53784   1.229  14.007   0.710
81459W        W53785  33.652  25.532   1.709
81460W        W53786  14.258  18.139  14.020
81461W        W53787  24.431  14.556   4.120
81462W        W53788  33.207  23.212   0.774
81463W        W53789   6.869  27.067  11.936
81464W        W53790   6.183  12.845  11.102
81465W        W53791  17.747  22.631   0.267
81466W        W53792  11.610  12.586   0.795
81467W        W53793   8.092  26.466   1.773
81468W        W53794  30.919  38.338   0.347
81469W        W53795   2.778  41.327   4.123
81470W        W53796  17.256  11.340  14.566
81471W        W53797  14.596  44.365  12.336
81472W        W53798   1.545  40.929   0.014
81473W        W53799  27.135   8.382   1.615
81474W        W53800  14.211  43.684   4.150
81475W        W53801   6.144  37.568   2.951
81476W        W53802  25.080  25.136  10.789
81477W        W53803  25.235  41.333  13.942
81478W        W53804  17.405   0.991   1.750
81479W        W53805  22.699   5.144   2.689
81480W        W53806  25.203  40.832   4.835
81481W        W53807   8.431   9.573  12.011
81482W        W53808  27.021  14.031  12.838
81483W        W53809  38.443  12.735   5.242
81484W        W53810  37.885  27.569  12.931
81485W        W53811  15.794  22.126  11.524
81486W        W53812   4.455   4.234  11.744
81487W        W53813  17.216  36.950   1.326
81488W        W53814  17.865  15.186   2.836
81489W        W53815  39.571  43.404  10.616
81490W        W53816  25.116  30.871   4.043
81491W        W53817   4.599  14.248   4.523
81492W        W53818  20.655   6.698  12.362
81493W        W53819  13.142  14.739  14.372
81494W        W53820  15.738  12.345  12.056
81495W        W53821  32.945  16.720   3.280
81496W        W53822  35.610  37.564  13.543
81497W        W53823  34.297   7.767   4.793
81498W        W53824  28.955  37.012   0.467
81499W        W53825  44.359  17.334  11.918
81500W        W53826  28.223   0.344   2.759
81501W        W53827   3.830  30.509   0.768
81502W        W53828  10.166   9.904  13.472
81503W        W53829  17.744  34.935   4.698
81504W        W53830  30.655  36.317  13.377
81505W        W53831  28.072  42.859   1.792
81506W        W53832  44.988   8.367  14.768
81507W        W53833  20.824  36.376  13.927
81508W        W53834  31.459  21.692  14.089
81509W        W53835  37.406  35.652   0.950
81510W        W53836  28.129  14.348  12.295
81511W        W53837  29.073  24.199  14.751
81512W        W53838  28.203  24.608   1.011
81513W        W53839   4.429  40.127   1.254
81514W        W53840   1.818   7.670   1.896
81515W        W53841  11.998  39.977  13.086
81516W        W53842  44.019  41.767  13.766
81517W        W53843  18.768   4.573  12.657
81518W        W53844  34.761  39.061   2.287
81519W        W53845  14.660  26.460   9.612
81520W        W53846  20.653  32.529   4.573
81521W        W53847   5.387  16.590  11.893
81522W        W53848  42.635   7.906   4.124
81523W        W53849  29.527  22.527  11.749
81524W        W53850  34.009   4.671  10.661
81525W        W53851  15.188   4.965   3.250
81526W        W53852  28.245  22.972  11.183
81527W        W53853   4.392  23.763   1.495
81528W        W53854  21.356  32.894   2.936
81529W        W53855  12.511  38.313  14.353
81530W        W53856  43.095   6.471   4.147
81531W        W53857   9.224  35.773   3.155
81532W        W53858  44.326  26.572  11.687
81533W        W53859   7.757  12.461  12.505
81534W        W53860  20.275  34.206   3.415
81535W        W53861  44.086   0.261   0.712
81536W        W53862  44.828  12.727   4.709
81537W        W53863  15.498  25.173   9.896
81538W        W53864  39.422   7.269  14.039
81539W        W53865  14.274  22.774  12.601
81540W        W53866  31.781  25.610   5.086
81541W        W53867  17.246   2.280  13.793
81542W        W53868  41.740  24.162  11.086
81543W        W53869  21.273   6.234   0.212
81544W        W53870  40.332  35.296   1.217
81545W        W53871  25.552   9.389   3.154
81546W        W53872   0.697  36.674   0.845
81547W        W53873  19.633  21.056   0.713
81548W        W53874  22.792  43.806  13.315
81549W        W53875   4.720  17.071  13.855
81550W        W53876   0.907  14.563  14.903
81551W        W53877  43.829  26.423  14.786
81552W        W53878  10.793  30.434  11.491
81553W        W53879   6.226  35.498  14.876
81554W        W53880  30.537  35.028   2.374
81555W        W53881  35.021  41.140  11.641
81556W        W53882   2.781  34.281   4.169
81557W        W53883   4.841   4.136   3.799
81558W        W53884   2.315  33.640  14.384
81559W        W53885  23.012   0.782  12.940
81560W        W53886  31.735  26.140  14.006
81561W        W53887  42.052  33.174  12.039
81562W        W53888  18.319  14.750  13.072
81563W        W53889   9.260  43.272  14.355
81564W        W53890  26.542  36.476   4.632
81565W        W53891  11.767  39.964  11.204
81566W        W53892  31.427  30.935  14.337
81567W        W53893  18.041   8.865   0.233
81568W        W53894  43.713  26.068   2.300
81569W        W53895  30.721  22.154   3.755
81570W        W53896   2.139   4.674   1.815
81571W        W53897  23.578   1.005  11.999
81572W        W53898  35.893  17.963  11.689
81573W        W53899  29.035  15.767  10.200
81574W        W53900   1.317  30.509   0.563
81575W        W53901  38.538   3.855   1.474
81576W        W53902   1.846  39.677  11.155
81577W        W53903   2.138  33.330   1.684
81578W        W53904   9.446  38.601   3.577
81579W        W53905  15.577   1.369  11.527
81580W        W53906  15.451  20.028  10.899
81581W        W53907  19.179  26.638  10.769
81582W        W53908   2.300   9.662   2.220
81583W        W53909  15.075  42.215   0.419
81584W        W53910  18.157  39.212  11.589
81585W        W53911  39.931   1.192   1.410
81586W        W53912  30.939  23.795  12.485
81587W        W53913   5.038  23.070  11.451
81588W        W53914   1.676   1.172  11.450
81589W        W53915  29.061  32.105  13.004
81590W        W53916  12.600   2.012  10.803
81591W        W53917  33.595  16.419  11.459
81592W        W53918  37.513  17.077  11.784
81593W        W53919  29.476  30.172   0.412
81594W        W53920  32.189  36.294   1.284
81595W        W53921  32.307  32.427   0.527
81596W        W53922  37.235   4.849   4.543
81597W        W53923   6.190  32.538  11.299
81598W        W53924  16.486  40.146   1.852
81599W        W53925   7.472  17.704  12.955
81600W        W53926  11.638  40.514   3.386
81601W        W53927  11.317  37.480   4.098
81602W        W53928  31.708   6.831  10.734
81603W        W53929  32.569  43.746  12.487
81604W        W53930  15.633  36.994   3.154
81605W        W53931  41.026  21.747  12.478
81606W        W53932  29.428   5.605  12.396
81607W        W53933  11.610  30.770  14.326
81608W        W53934  15.127   0.666   0.415
81609W        W53935  32.095  13.870  13.782
81610W        W53936  29.350  21.262   4.095
81611W        W53937  14.482  18.256   1.483
81612W        W53938  26.946  14.720   0.290
81613W        W53939  22.823  23.559  10.784
81614W        W53940  12.604   1.265  13.736
81615W        W53941  42.738  39.065   4.979
81616W        W53942  31.717  36.070   1.260
81617W        W53943   8.783  44.862   3.552
81618W        W53944   9.059  28.976  11.632
81619W        W53945  33.356  35.829   3.304
81620W        W53946  18.808   7.483   3.104
81621W        W53947  41.521   0.598  11.962
81622W        W53948  31.879  33.391   2.662
81623W        W53949  16.719  38.773  13.493
81624W        W53950   6.509  32.548   1.266
81625W        W53951  35.622  24.750   1.615
81626W        W53952  14.814  28.144  13.273
81627W        W53953  15.744  13.287  13.036
81628W        W53954   1.211  34.989  10.730
81629W        W53955  28.018  37.941  10.454
81630W        W53956   0.488  33.544  10.862
81631W        W53957  11.360  26.494  14.738
81632W        W53958  25.499  15.267   9.435
81633W        W53959  30.152   7.232   1.695
81634W        W53960  38.490  43.855  13.181
81635W        W53961  30.961  11.279  11.986
81636W        W53962   2.872  39.096   1.268
81637W        W53963  12.915  36.483   5.025
81638W        W53964  36.474   8.433  13.002
81639W        W53965  42.702  20.125   4.507
81640W        W53966  31.053   5.413  13.739
81641W        W53967   1.926  31.718  11.842
81642W        W53968   7.887  29.550  11.996
81643W        W53969  43.917  19.863   1.793
81644W        W53970  33.047   7.202   0.289
81645W        W53971  40.360   0.283   4.161
81646W        W53972  29.024  15.081   0.742
81647W        W53973  39.115  18.078   3.094
81648W        W53974  44.746  39.893  14.908
81649W        W53975   0.455   3.171  12.832
81650W        W53976  36.956  44.664   1.626
81651W        W53977  37.108  15.805   3.834
81652W        W53978  43.546  37.517   5.100
81653W        W53979  23.745  38.460   3.757
81654W        W53980  41.463  17.276  10.767
81655W        W53981  29.458  33.429   2.634
81656W        W53982  20.006  39.138   1.819
81657W        W53983  18.115   1.868   4.298
81658W        W53984  25.722   4.139   2.192
81659W        W53985   0.506   4.751   4.117
81660W        W53986  23.570   2.511   3.110
81661W        W53987  23.959  25.640   3.315
81662W        W53988   1.669   0.075   3.828
81663W        W53989   1.994  40.494  11.407
81664W        W53990  11.157  26.108   9.722
81665W        W53991  36.829  29.944   2.240
81666W        W53992   9.706  18.485   0.825
81667W        W53993  37.061   8.766  11.128
81668W        W53994  20.049  30.544  13.455
81669W        W53995  22.715  15.133   4.390
81670W        W53996  21.852  30.430  11.759
81671W        W53997  39.094  17.898   4.915
81672W        W53998  32.830  18.146  12.324
81673W        W53999  12.119   8.717  12.855
81674W        W54000  36.567  14.690   3.872
81675W        W54001  24.214  17.347   0.313
81676W        W54002  26.792  25.846  12.524
81677W        W54003  31.888   0.448  11.505
81678W        W54004  29.505   2.904  11.200
81679W        W54005  21.110   7.815  13.969
81680W        W54006  33.084  18.399   0.469
81681W        W54007  11.235  19.300   4.231
81682W        W54008  15.444  22.069  13.365
81683W        W54009  34.810  20.693   3.686
81684W        W54010   4.036  27.095  13.317
81685W        W54011  15.729  11.561  13.154
81686W        W54012  22.313  41.472  10.270
81687W        W54013  32.596  18.379   1.336
81688W        W54014  25.478  15.686   5.553
81689W        W54015  27.457  11.793  11.476
81690W        W54016  36.031   3.274   2.698
81691W        W54017  41.803  32.431   2.791
81692W        W54018  19.859  21.191  12.587
81693W        W54019  39.508  11.173  10.521
81694W        W54020  27.097   7.441  11.950
81695W        W54021   9.766  33.734   4.624
81696W        W54022  35.832   1.359  10.900
81697W        W54023  19.895  22.507   1.858
81698W        W54024  37.263   5.159  10.429
81699W        W54025  33.139  35.092   0.519
81700W        W54026  32.868  25.219  11.540
81701W        W54027  15.885  12.098   2.362
81702W        W54028   8.814  41.105   4.393
81703W        W54029  34.647  41.941   2.349
81704W        W54030  36.420  17.673  14.802
81705W        W54031   0.070  10.883  14.032
81706W        W54032  25.076   8.609  10.941
81707W        W54033  39.303  38.659  13.979
81708W        W54034  37.136  43.030  13.837
81709W        W54035  16.652  20.443  14.124
81710W        W54036  33.544  38.327  11.639
81711W        W54037  35.019   9.248  11.235
81712W        W54038  33.824  23.872  10.933
81713W        W54039  38.960  13.506   2.753
81714W        W54040  35.382  23.775   3.859
81715W        W54041  21.158   0.418  11.360
81716W        W54042  25.734   3.996  13.153
81717W        W54043  15.986  13.698  12.000
81718W        W54044  26.486  11.699  11.520
81719W        W54045  34.040   8.765  10.563
81720W        W54046  26.431  33.048  14.721
81721W        W54047  31.819  20.100   4.622
81722W        W54048   4.291  36.673   4.911
81723W        W54049  26.963  18.620   1.667
81724W        W54050  30.853  19.552  14.806
81725W        W54051  23.827  40.394   2.992
81726W        W54052  19.154  25.603  14.694
81727W        W54053  12.798   1.524  10.769
81728W        W54054   2.739  19.296  12.470
81729W        W54055  38.088  20.646   3.666
81730W        W54056   5.271   3.874   4.898
81731W        W54057  17.604  37.631   2.923
81732W        W54058  29.397  38.130  14.740
81733W        W54059  44.327  11.606   1.825
81734W        W54060  42.171  22.100   2.763
81735W        W54061   3.769   6.727  12.993
81736W        W54062   3.701  39.997   2.761
81737W        W54063  31.827   1.483   2.775
81738W        W54064  11.978   0.946  11.673
81739W        W54065  15.677   7.750   0.563
81740W        W54066  17.418  29.988  11.489
81741W        W54067  27.199  44.446   0.823
81742W        W54068   6.703  28.253  11.129
81743W        W54069  30.678  35.341   1.940
81744W        W54070  14.288  33.340  13.603
81745W        W54071  30.689  25.752   1.452
81746W        W54072  18.329  14.352  12.102
81747W        W54073   3.343  22.556   0.431
81748W        W54074  30.387  38.979   2.766
81749W        W54075  12.739  29.021  12.422
81750W        W54076  22.488   3.359   0.707
81751W        W54077  31.690   2.768  13.172
81752W        W54078   7.381  13.277  14.949
81753W        W54079  41.410  10.647   2.257
81754W        W54080   3.056  21.458   4.606
81755W        W54081   5.136  11.653   1.662
81756W        W54082  39.595  19.821   2.648
81757W        W54083  23.163  10.108   0.677
81758W        W54084  16.231  27.926   0.753
81759W        W54085  32.332   5.311   2.694
81760W        W54086   6.110  14.914   0.649
81761W        W54087  44.713  20.226  13.061
81762W        W54088  24.737  42.586  14.194
81763W        W54089  21.132  38.987  12.771
81764W        W54090  27.066  20.639   2.962
81765W        W54091   4.038   9.471   3.839
81766W        W54092  36.434  16.459   1.859
81767W        W54093  41.496  20.210  12.980
81768W        W54094  41.116  24.520   2.292
81769W        W54095  10.900  15.420  14.065
81770W        W54096   3.818   4.507   1.271
81771W        W54097   6.636  38.537  13.704
81772W        W54098  30.528  41.672  10.600
81773W        W54099  35.510  42.725   1.691
81774W        W54100  31.207  28.520  10.747
81775W        W54101  41.227   7.481   2.649
81776W        W54102  27.487   7.676  14.553
81777W        W54103  31.080  30.936   1.970
81778W        W54104   0.435  16.286  14.953
81779W        W54105  27.946  27.482  11.159
81780W        W54106   9.276  40.580  13.581
81781W        W54107   9.916  17.775   2.430
81782W        W54108  16.041  13.626   2.147
81783W        W54109   5.644   9.274  13.524
81784W        W54110  20.562  13.595   4.801
81785W        W54111   5.952  11.796  14.775
81786W        W54112  22.624  11.576  11.987
81787W        W54113  34.049  44.385   2.413
81788W        W54114  22.008  21.012  13.995
81789W        W54115   3.978  25.431  13.073
81790W        W54116  30.842  44.310  14.525
81791W        W54117   5.009  41.045   4.142
81792W        W54118  10.838  39.900   3.180
81793W        W54119  30.695  43.784   4.099
81794W        W54120  43.715  14.302   4.683
81795W        W54121  43.920  36.377   1.202
81796W        W54122  21.771  39.605  12.951
81797W        W54123  33.288   4.432  13.396
81798W        W54124   8.291  14.085  13.969
81799W        W54125   5.634  34.112  13.080
81800W        W54126  36.540   0.806   4.069
81801W        W54127  26.874  38.430  10.202
81802W        W54128   8.781  19.971  12.931
81803W        W54129  15.621   7.864  11.702
81804W        W54130  11.926  39.974  14.137
81805W        W54131   2.232  14.691  12.894
81806W        W54132  13.855   0.928  12.164
81807W        W54133  29.566  36.580  14.406
81808W        W54134  26.893  36.844  10.565
81809W        W54135  37.944  21.968  14.060
81810W        W54136  41.848  13.612  12.487
81811W        W54137  30.014  14.694  13.054
81812W        W54138  20.312  37.414  12.000
81813W        W54139  19.729  36.026  14.484
81814W        W54140  21.709  15.167   3.522
81815W        W54141  10.312  41.822   1.434
81816W        W54142  19.535  39.803  14.488
81817W        W54143  44.481   1.116   0.347
81818W        W54144  22.701  25.214  11.737
81819W        W54145  26.782  27.375  10.276
81820W        W54146  25.450  17.300  11.469
81821W        W54147  41.689  34.563   3.671
81822W        W54148  31.032  11.336   3.976
81823W        W54149  20.263  37.041   0.700
81824W        W54150   5.935  42.325  13.041
81825W        W54151  12.641  16.204   0.506
81826W        W54152  21.203  33.457  13.893
81827W        W54153  33.133  37.908  11.090
81828W        W54154  37.529  34.053  13.193
81829W        W54155  34.648  41.153  14.100
81830W        W54156  27.084  15.348   2.704
81831W        W54157   9.880   3.958  10.436
81832W        W54158  38.539   0.293  12.301
81833W        W54159  17.072  15.831   1.372
81834W        W54160   2.271  20.067  10.907
81835W        W54161   5.090  34.633  11.452
81836W        W54162  23.551  15.366   5.373
81837W        W54163  18.675  19.709  13.916
81838W        W54164   6.266  22.117  11.468
81839W        W54165  26.451  27.099  13.544
81840W        W54166   7.253  24.711  14.604
81841W        W54167  15.152  16.742   2.867
81842W        W54168  43.840  27.554   2.413
81843W        W54169   5.386  42.007  10.676
81844W        W54170  32.607  27.725  13.090
81845W        W54171  38.266  37.606   1.692
81846W        W54172  10.641  25.251  12.546
81847W        W54173  14.890  41.343  14.383
81848W        W54174  39.820  14.494  13.822
81849W        W54175  32.564   6.809  13.976
81850W        W54176  13.193  13.668  14.009
81851W        W54177   2.791  13.251   1.190
81852W        W54178   6.206  41.214  11.161
81853W        W54179  26.010   8.795   1.579
81854W        W54180  21.521  23.077  12.474
81855W        W54181  18.215  16.638   3.234
81856W        W54182   6.965  12.856   2.647
81857W        W54183  30.651  34.106   1.092
81858W        W54184  19.977  12.564  14.922
81859W        W54185  21.800  44.382   2.244
81860W        W54186  33.783  29.623  13.862
81861W        W54187  38.293  25.197  12.539
81862W        W54188  17.076   0.953  10.656
81863W        W54189  23.225   0.837  10.709
81864W        W54190  20.606  43.024  10.809
81865W        W54191  12.288  25.647   4.650
81866W        W54192  23.081  18.074  11.553
81867W        W54193  43.936  40.412   1.946
81868W        W54194  28.424  21.040   3.832
81869W        W54195  14.365  40.454   2.317
81870W        W54196  44.438  36.485  14.008
81871W        W54197  29.701  19.023  12.924
81872W        W54198  34.556   2.910   3.247
81873W        W54199  27.003  33.709  12.026
81874W        W54200  24.516  20.577  11.097
81875W        W54201   1.748  42.452  11.506
81876W        W54202  37.377  23.655   2.917
81877W        W54203  22.488  40.667   0.908
81878W        W54204  43.001  14.680   3.128
81879W        W54205  32.589  10.621   3.196
81880W        W54206   1.915  33.295   0.210
81881W        W54207  14.552   5.423   0.208
81882W        W54208  33.525  18.135  12.657
81883W        W54209  37.840  36.617   0.991
81884W        W54210  31.174  39.238  10.810
81885W        W54211   2.300   0.391   0.744
81886W        W54212   7.364   1.209   4.805
81887W        W54213  34.284  42.211   0.195
81888W        W54214   3.093   9.642   2.623
81889W        W54215  30.545  36.285  12.500
81890W        W54216  11.161  24.932   4.326
81891W        W54217  41.232   1.426   0.722
81892W        W54218   9.174   5.224   1.824
81893W        W54219  14.853  22.241   0.939
81894W        W54220  25.318  13.892  14.886
81895W        W54221  29.063  31.011  14.026
81896W        W54222  35.616  31.536  13.906
81897W        W54223  21.587  32.118   2.061
81898W        W54224  23.123  33.542   1.476
81899W        W54225   8.511  30.368   2.270
81900W        W54226  20.651  29.912  11.925
81901W        W54227   4.270  19.633   2.646
81902W        W54228   7.744  16.609  11.126
81903W        W54229   1.746  10.833   1.800
81904W        W54230  10.152   4.353  12.884
81905W        W54231  35.548  31.134  13.125
81906W        W54232  21.462   0.939  12.987
81907W        W54233  34.047  38.366  12.987
81908W        W54234  40.821  38.563  14.841
81909W        W54235   4.398  26.146  11.180
81910W        W54236  20.767  26.987  13.417
81911W        W54237   7.768  41.995  12.623
81912W        W54238  23.939  32.500  11.290
81913W        W54239  10.183   1.363  13.826
81914W        W54240  43.439  32.373   3.235
81915W        W54241  29.897   0.001   3.621
81916W        W54242  42.753  29.395  14.261
81917W        W54243  11.126   9.752   1.719
81918W        W54244   7.896  12.311   3.766
81919W        W54245   7.175   4.538  12.930
81920W        W54246  22.665   1.389   1.652
81921W        W54247   2.869  17.997  14.791
81922W        W54248  30.628  24.585   4.762
81923W        W54249  35.333  33.041   3.365
81924W        W54250  18.191  39.571   0.506
81925W        W54251   0.373  18.834  14.853
81926W        W54252  11.230  39.198  14.896
81927W        W54253  13.568  25.498   3.196
81928W        W54254  42.513   0.936   0.721
81929W        W54255  23.251  40.912  11.922
81930W        W54256  22.119   0.517   4.665
81931W        W54257  25.176  42.287   4.637
81932W        W54258  14.801  25.571  10.525
81933W        W54259  34.587  38.360  10.608
81934W        W54260  12.053   8.248  13.092
81935W        W54261  21.637  42.249   4.275
81936W        W54262   2.361  22.972   3.878
81937W        W54263  25.081   2.872  13.968
81938W        W54264  17.642  31.960  10.656
81939W        W54265   4.382  35.479   0.232
81940W        W54266  42.749  16.289  12.281
81941W        W54267  19.898  33.564   4.160
81942W        W54268   2.843  23.146  10.164
81943W        W54269  25.670   5.734   3.274
81944W        W54270   7.400  21.432  13.919
81945W        W54271  21.283  27.685   1.314
81946W        W54272  42.459  36.515   1.826
81947W        W54273  33.805  40.266   2.373
81948W        W54274  34.356  31.783   1.518
81949W        W54275   2.664  16.714  12.908
81950W        W54276  35.525  34.221  11.251
81951W        W54277  23.111  19.171  10.693
81952W        W54278  36.463  24.956  11.494
81953W        W54279  34.570  11.635  13.028
81954W        W54280  27.597  41.427   0.944
81955W        W54281  27.473  10.736   2.517
81956W        W54282  27.860   2.244   0.409
81957W        W54283  26.763  38.476   4.173
81958W        W54284  44.479  41.890  12.079
81959W        W54285   8.631  20.766   0.929
81960W        W54286  22.685  14.291  13.471
81961W        W54287  42.410  37.708  14.023
81962W        W54288   8.319  30.771  14.379
81963W        W54289   5.394  40.497  13.098
81964W        W54290   6.040  12.834  13.442
81965W        W54291   6.444  24.406   4.074
81966W        W54292  10.375  41.161   0.873
81967W        W54293  35.940   1.466   0.797
81968W        W54294  21.585  41.369   4.540
81969W        W54295  30.828  20.551   2.803
81970W        W54296  36.829  33.432   1.193
81971W        W54297  11.699   6.564  14.232
81972W        W54298   2.944   6.312  13.366
81973W        W54299  20.965  32.623   1.862
81974W        W54300  30.669  17.219   1.677
81975W        W54301  44.799  16.795   4.509
81976W        W54302  23.237  38.018  10.095
81977W        W54303  42.349  26.823  11.565
81978W        W54304  30.282  10.075   2.342
81979W        W54305   2.477   4.013  10.196
81980W        W54306  10.194  18.012   0.415
81981W        W54307  11.733  32.009   1.764
81982W        W54308  37.774   8.937  13.008
81983W        W54309  30.427   6.766   1.733
81984W        W54310  24.433  25.064  12.859
81985W        W54311  15.071  11.409  14.708
81986W        W54312  39.354   2.397   2.760
81987W        W54313  40.417   4.324   2.310
81988W        W54314  17.621   1.874   2.247
81989W        W54315  30.959  15.682   9.713
81990W        W54316  38.606   6.544   2.634
81991W        W54317  35.335  42.416  12.430
81992W        W54318   5.909  32.738  14.774
81993W        W54319   0.151  21.887  10.158
81994W        W54320  23.166  43.836   2.254
81995W        W54321  40.818  40.934   2.941
81996W        W54322  42.385  27.726  14.861
81997W        W54323  30.165  23.001  13.266
81998W        W54324   6.870  18.757   0.676
81999W        W54325  20.195   6.322   1.307
82000W        W54326   0.450  27.122   3.527
82001W        W54327  25.417  17.376  10.088
82002W        W54328  25.220  43.964  11.470
82003W        W54329  44.965  13.248  12.942
82004W        W54330  42.588  25.500  12.084
82005W        W54331  27.500  35.342  12.784
82006W        W54332  12.676  25.623  14.295
82007W        W54333   8.743   8.175  14.992
82008W        W54334  32.444  16.953   2.407
82009W        W54335   4.022  44.381   2.063
82010W        W54336   1.022   7.036   4.331
82011W        W54337  39.113  33.274   1.294
82012W        W54338  23.001  24.377  14.317
82013W        W54339  12.828   4.970  13.550
82014W        W54340  38.296  34.297   0.019
82015W        W54341  35.474  40.060  11.118
82016W        W54342  18.114  17.334   0.907
82017W        W54343  25.904  41.529  10.461
82018W        W54344   3.841  19.497  12.993
82019W        W54345  24.144  33.667  10.671
82020W        W54346  38.266  12.216   0.839
82021W        W54347   1.623   8.790   2.858
82022W        W54348  19.189   3.434  10.799
82023W        W54349   3.392  31.638  13.508
82024W        W54350  34.275  31.235   1.496
82025W        W54351  43.711  27.166   1.203
82026W        W54352  39.476  18.194  10.706
82027W        W54353  41.358  18.496   2.797
82028W        W54354  19.560  44.805   0.310
82029W        W54355  31.975   5.324  11.497
82030W        W54356  20.838  31.617  10.634
82031W        W54357  20.618  43.045  10.305
82032W        W54358   0.811   3.865   3.098
82033W        W54359  15.065  17.106  13.482
82034W        W54360   6.648  36.568  13.037
82035W        W54361  13.531  27.692   2.327
82036W        W54362  10.518   8.028  12.861
82037W        W54363  41.258   7.144  13.604
82038W        W54364  17.504  13.991   2.627
82039W        W54365  18.095   7.054   1.745
82040W        W54366   5.661  11.386  11.538
82041W        W54367  11.770  35.130   1.302
82042W        W54368  40.012   2.826   1.717
82043W        W54369  16.095   9.125   1.356
82044W        W54370  20.865  24.003   0.880
82045W        W54371  31.510  36.303  11.165
82046W        W54372  12.186  28.770  10.774
82047W        W54373  43.053  27.583   1.931
82048W        W54374  36.073   2.440  12.884
82049W        W54375  38.057  17.848   3.723
82050W        W54376  24.973  36.796  12.922
82051W        W54377   6.468  13.429   1.182
82052W        W54378  30.119  30.182   0.337
82053W        W54379   5.838  13.853   5.022
82054W        W54380  27.048  20.959  13.973
82055W        W54381  18.243  37.415   1.254
82056W        W54382  28.628  40.527  12.022
82057W        W54383  16.008  26.274   4.358
82058W        W54384  16.010  44.279   3.740
82059W        W54385   0.614  40.282  10.181
82060W        W54386  41.385  29.243   4.205
82061W        W54387   5.063  25.406   0.306
82062W        W54388  34.406  11.819   1.391
82063W        W54389   9.243  33.403  14.825
82064W        W54390  16.577  34.473   2.331
82065W        W54391  42.032  23.540  13.506
82066W        W54392   2.152  23.574   0.014
82067W        W54393  43.191  11.313  13.036
82068W        W54394  37.940  17.357   3.887
82069W        W54395   4.332  39.897  13.335
82070W        W54396  37.339  43.011  10.509
82071W        W54397  36.348   8.942   4.200
82072W        W54398  29.563   6.681   4.660
82073W        W54399  15.780   9.147   3.110
82074W        W54400   2.814  43.870  14.836
82075W        W54401  28.624  42.010   2.779
82076W        W54402  18.550  24.726  12.794
82077W        W54403  23.593  31.581  13.991
82078W        W54404  24.868  11.695  11.607
82079W        W54405  10.717  36.087  12.451
82080W        W54406  38.553  27.401   1.246
82081W        W54407  36.599  37.918   3.408
82082W        W54408  12.346  36.265   3.311
82083W        W54409   1.303  44.927  13.248
82084W        W54410   4.179  30.599   2.551
82085W        W54411  12.713  20.701  12.836
82086W        W54412   5.877  21.621   0.001
82087W        W54413  26.830  29.641   2.411
82088W        W54414  19.586  41.920   1.154
82089W        W54415  13.055  24.028  11.669
82090W        W54416   3.311  32.424  11.042
82091W        W54417   3.855  24.097  12.096
82092W        W54418   6.503   8.261  11.170
82093W        W54419  26.071   9.815   1.382
82094W        W54420  38.834  22.600   1.486
82095W        W54421   3.930  20.285   2.398
82096W        W54422  31.531  18.282   3.742
82097W        W54423  26.438  37.030   2.158
82098W        W54424  18.714  38.480   0.873
82099W        W54425  24.475  37.522  11.595
82100W        W54426  11.712  31.078   2.483
82101W        W54427  20.431   4.201   0.385
82102W        W54428  43.747   9.910   1.700
82103W        W54429   2.066  16.836  14.950
82104W        W54430  25.001  41.512  11.189
82105W        W54431  25.169  15.296   0.272
82106W        W54432  42.976  34.244  10.665
82107W        W54433   0.965  19.588   5.071
82108W        W54434  15.397  23.626  13.013
82109W        W54435   0.987  30.528  14.324
82110W        W54436  44.404  40.445  14.316
82111W        W54437  35.949  34.962   0.016
82112W        W54438  44.754  29.140   4.340
82113W        W54439  44.892  24.563  12.388
82114W        W54440  21.608  39.860   9.688
82115W        W54441  15.795  38.714   4.103
82116W        W54442   8.268  16.680   0.045
82117W        W54443  10.644  29.650  11.165
82118W        W54444  37.029   4.369   4.610
82119W        W54445  31.409  40.071  11.769
82120W        W54446   0.310   3.224  10.339
82121W        W54447  44.938  14.098  12.324
82122W        W54448  33.861  27.016  10.827
82123W        W54449  19.720  14.689   2.289
82124W        W54450   0.239  24.049  10.694
82125W        W54451  38.355  14.791  13.996
82126W        W54452  31.020  15.811   4.155
82127W        W54453  20.444   4.746   2.255
82128W        W54454  37.404  13.709   4.225
82129W        W54455   5.160   3.366  11.436
82130W        W54456   3.362  22.256  14.278
82131W        W54457  14.530  41.350   1.140
82132W        W54458  10.120   4.435  10.366
82133W        W54459   9.245  26.391   4.832
82134W        W54460  15.530   5.727  13.291
82135W        W54461  33.538  18.805   1.264
82136W        W54462  27.968   5.268   4.262
82137W        W54463  21.925  11.748   2.297
82138W        W54464  44.693  27.593   0.357
82139W        W54465  35.062  32.217   4.596
82140W        W54466  23.238  29.374   1.894
82141W        W54467  31.718  24.203   2.644
82142W        W54468   0.520  20.723   4.127
82143W        W54469  38.387   9.537   1.972
82144W        W54470  40.857  20.867   4.223
82145W        W54471  21.529  20.814   0.887
82146W        W54472  13.072  11.795   2.261
82147W        W54473  13.855  14.771   3.124
82148W        W54474   2.952  14.234  13.091
82149W        W54475  10.596  20.593   4.121
82150W        W54476  14.684   5.970  12.923
82151W        W54477  38.597  30.840   2.752
82152W        W54478  34.279  15.144  12.428
82153W        W54479  40.520  38.063  12.114
82154W        W54480   0.242  23.175   5.120
82155W        W54481   0.904  25.483   2.739
82156W        W54482  11.683  11.217  14.488
82157W        W54483  18.484   7.526   2.359
82158W        W54484  18.573   7.418   1.838
82159W        W54485  32.677   6.404   4.583
82160W        W54486   4.645   7.173  10.709
82161W        W54487  35.025   3.483   3.613
82162W        W54488  38.178  31.947  12.497
82163W        W54489  38.613  11.088   1.463
82164W        W54490  13.002  35.539  12.007
82165W        W54491  14.843  16.553  14.509
82166W        W54492  44.369  30.583   4.491
82167W        W54493  15.687  31.625   4.740
82168W        W54494  26.515  44.070  11.080
82169W        W54495  36.405  42.739  11.917
82170W        W54496  17.671  33.709   0.687
82171W        W54497  21.551  44.257   2.880
82172W        W54498   3.134   8.062  11.233
82173W        W54499   3.514  35.852  14.225
82174W        W54500  43.689   9.762   0.035
82175W        W54501  18.039  38.857   0.760
82176W        W54502  19.597   3.515  11.121
82177W        W54503   8.747  29.506   4.540
82178W        W54504  26.287  16.797   2.284
82179W        W54505  39.084  24.674  10.251
82180W        W54506  16.436   7.160  14.389
82181W        W54507  43.480  33.317  12.088
82182W        W54508  17.603  24.509  11.520
82183W        W54509   1.220  19.796  11.548
82184W        W54510  16.273  12.264  13.114
82185W        W54511  29.453  13.347  12.490
82186W        W54512   5.878  29.550  12.147
82187W        W54513  18.682  11.892   5.086
82188W        W54514  15.246  32.704  11.808
82189W        W54515  44.966  44.975  12.918
82190W        W54516  36.278   4.401  11.087
82191W        W54517  31.059   4.168  12.069
82192W        W54518   0.859  11.587   2.212
82193W        W54519   4.837  19.864   2.198
82194W        W54520   1.248   9.253  11.587
82195W        W54521  29.693  17.189   3.785
82196W        W54522  35.581  35.111  11.117
82197W        W54523  18.233  22.300  14.306
82198W        W54524  10.501  26.068  13.878
82199W        W54525  31.895  39.949  10.688
82200W        W54526   3.872  22.678  12.982
82201W        W54527  30.800  32.628  11.249
82202W        W54528  23.732  13.261  11.950
82203W        W54529   8.950  34.864  13.910
82204W        W54530  20.612  28.765   1.408
82205W        W54531  32.355   1.973  14.795
82206W        W54532   2.708  11.372  11.665
82207W        W54533  21.791  34.444  10.661
82208W        W54534  20.236  29.625  13.336
82209W        W54535  15.734  31.476   2.178
82210W        W54536  16.755  18.993  10.555
82211W        W54537   7.256  27.700   4.205
82212W        W54538   8.823  13.821  10.567
82213W        W54539  20.399   4.910  12.451
82214W        W54540  32.504   2.211  12.124
82215W        W54541   3.745  34.166   1.818
82216W        W54542  29.977  10.788  14.370
82217W        W54543  12.389  24.261   3.307
82218W        W54544  29.040  40.839   4.613
82219W        W54545  29.708  36.379   1.787
82220W        W54546  13.649  23.956  10.987
82221W        W54547  35.947  20.743  11.142
82222W        W54548  34.060  42.450   2.347
82223W        W54549   2.631  35.816   3.608
82224W        W54550  24.208   0.979   0.815
82225W        W54551  15.330  31.834  11.551
82226W        W54552  42.968  18.192  14.314
82227W        W54553   7.430  41.832  11.498
82228W        W54554  18.718   1.219   4.729
82229W        W54555  41.477  21.591  13.998
82230W        W54556  33.829  27.467   0.910
82231W        W54557  27.171  26.056  13.889
82232W        W54558  37.449  28.861  10.958
82233W        W54559  20.756  28.466  11.452
82234W        W54560   1.891  18.156  11.369
82235W        W54561   6.434  21.182  11.627
82236W        W54562  36.862  21.084  11.100
82237W        W54563   5.332  22.974  13.859
82238W        W54564  32.386  42.171   1.991
82239W        W54565  38.271  35.905   3.190
82240W        W54566   3.218  38.046  13.750
82241W        W54567  12.343   8.335   4.594
82242W        W54568  14.056  42.962  12.675
82243W        W54569  44.822   7.790   4.493
82244W        W54570  36.341  27.691  12.060
82245W        W54571  39.581  15.563  14.453
82246W        W54572  25.957  21.582   1.811
82247W        W54573  15.873   3.743  10.693
82248W        W54574   2.696   4.392  11.532
82249W        W54575  23.023  12.174  13.315
82250W        W54576  41.781  23.397   0.249
82251W        W54577  19.508  11.361  14.881
82252W        W54578   2.264   9.621  14.079
82253W        W54579  26.081   1.810  10.660
82254W        W54580  13.932  15.676  11.873
82255W        W54581   6.693  36.491   1.751
82256W        W54582  29.503  19.481  12.742
82257W        W54583  12.106  23.084   4.656
82258W        W54584  34.118  10.457  13.494
82259W        W54585  20.664  10.999   0.846
82260W        W54586  33.987  28.170  11.078
82261W        W54587  27.766  11.686   4.990
82262W        W54588  42.315   4.470  12.552
82263W        W54589  38.050  30.650   1.845
82264W        W54590   1.677  24.156  14.452
82265W        W54591  38.826   2.941  11.614
82266W        W54592   3.486   6.311  12.104
82267W        W54593  44.500  28.950   5.226
82268W        W54594  14.182  40.267  11.112
82269W        W54595  13.766  34.145   4.997
82270W        W54596  44.398  24.694  13.567
82271W        W54597  32.255  14.607  11.701
82272W        W54598  17.062  15.192   4.566
82273W        W54599  35.524   5.405  14.857
82274W        W54600  15.793   7.984   1.021
82275W        W54601   1.374   1.281  12.657
82276W        W54602  42.783  36.399   2.824
82277W        W54603  35.559  25.021  14.926
82278W        W54604  31.722  27.216   2.358
82279W        W54605  24.233   7.015   0.738
82280W        W54606  26.105  28.257  13.388
82281W        W54607   4.188  19.222  12.037
82282W        W54608  32.041   7.444  10.714
82283W        W54609   5.919   9.672  10.378
82284W        W54610  30.618  44.928   0.697
82285W        W54611  44.268   8.402  12.549
82286W        W54612  29.721  14.061  14.122
82287W        W54613  24.874  25.869  12.314
82288W        W54614  24.669  11.142   3.164
82289W        W54615  28.111   0.050   3.896
82290W        W54616  43.363  39.545  14.023
82291W        W54617  27.617  26.068  11.393
82292W        W54618  29.117  43.435  11.555
82293W        W54619  27.062  40.194   2.872
82294W        W54620   3.652  34.518  13.385
82295W        W54621  12.136  35.542   2.904
82296W        W54622   0.841  22.815  11.681
82297W        W54623   3.171   3.790  12.104
82298W        W54624  18.764  21.991   3.109
82299W        W54625  39.211  10.143   3.432
82300W        W54626  31.461  13.222   0.912
82301W        W54627  10.641  13.810  11.888
82302W        W54628  33.084   7.174  10.826
82303W        W54629  20.109   4.019  13.899
82304W        W54630  11.109  36.595   2.461
82305W        W54631  16.228  37.411  11.554
82306W        W54632  26.033  23.648  11.172
82307W        W54633  28.578  41.127   1.258
82308W        W54634  31.914   0.213  11.024
82309W        W54635  24.242   5.729   0.156
82310W        W54636  32.617   8.755  13.966
82311W        W54637   7.773  38.933   0.241
82312W        W54638   2.734  26.698  11.110
82313W        W54639  11.341  44.451   2.181
82314W        W54640  19.528  21.018  12.944
82315W        W54641  41.639  16.670   0.081
82316W        W54642   7.645   2.530  13.144
82317W        W54643  33.479  32.079   3.709
82318W        W54644  27.347  25.792  10.632
82319W        W54645  37.442  21.702  12.989
82320W        W54646  10.222  26.160   4.476
82321W        W54647  37.838  26.210  13.303
82322W        W54648   2.581   2.248  10.141
82323W        W54649   1.898  27.161   4.087
82324W        W54650  39.758  33.983   2.270
82325W        W54651   9.846  30.232  13.444
82326W        W54652  27.572   9.451   3.657
82327W        W54653  37.397   7.674  13.136
82328W        W54654  41.311  14.117  14.504
82329W        W54655  20.523  43.481  14.662
82330W        W54656  26.578  19.107   3.749
82331W        W54657  12.215  19.587   2.806
82332W        W54658   6.645  18.995  11.930
82333W        W54659  25.626  35.165   0.316
82334W        W54660  32.402  22.729   3.712
82335W        W54661  35.392  40.001   4.550
82336W        W54662  30.181  14.247  14.009
82337W        W54663  32.566   4.676   3.254
82338W        W54664  25.003  16.813  13.656
82339W        W54665   0.228  21.953  11.042
82340W        W54666  40.511  36.371  11.019
82341W        W54667  32.058  27.290   4.011
82342W        W54668  34.069  13.194   2.783
82343W        W54669  39.722  43.465  14.616
82344W        W54670  17.752  20.068  11.127
82345W        W54671  23.604  40.578  12.847
82346W        W54672  17.030  16.156  12.551
82347W        W54673  23.518  13.897  13.350
82348W        W54674   1.063   5.742   2.782
82349W        W54675   1.050  41.793   3.247
82350W        W54676   3.139  30.155   1.319
82351W        W54677   5.505  27.149   1.357
82352W        W54678  10.124  11.869   4.634
82353W        W54679   6.665   5.448   4.134
82354W        W54680   3.452  10.919   0.749
82355W        W54681  23.937   8.309   3.626
82356W        W54682  30.356  10.396   2.787
82357W        W54683  42.505  31.873  12.211
82358W        W54684   5.237  35.407  12.489
82359W        W54685  19.005  33.393  14.321
82360W        W54686  29.607  27.701  14.478
82361W        W54687   4.521  43.205  14.932
82362W        W54688  16.172  16.493   4.278
82363W        W54689  19.329  44.292  12.569
82364W        W54690  33.019  14.636  11.635
82365W        W54691  43.798  25.217   2.610
82366W        W54692  35.656   2.483  12.172
82367W        W54693   8.459  39.106  13.360
82368W        W54694  13.667  25.951  13.569
82369W        W54695  14.857  13.757   2.063
82370W        W54696  15.962  24.391   4.210
82371W        W54697   4.642   7.031  13.981
82372W        W54698  22.268  41.983  14.409
82373W        W54699  41.389  21.951   0.831
82374W        W54700  40.955  17.039  12.500
82375W        W54701  29.813  40.727  13.998
82376W        W54702  18.483   9.224   2.262
82377W        W54703  29.155  26.464  13.333
82378W        W54704  38.418  10.503  11.555
82379W        W54705   4.915  39.880  12.545
82380W        W54706  15.838   5.851   1.646
82381W        W54707  21.222  23.176   2.564
82382W        W54708  42.071  20.691   0.572
82383W        W54709  11.596   8.806  12.614
82384W        W54710  22.472  17.589   4.247
82385W        W54711  14.258  18.270   3.573
82386W        W54712  35.767  30.832  10.902
82387W        W54713   9.666  10.919   2.117
82388W        W54714   4.253  31.764   0.788
82389W        W54715   4.384   9.420   3.049
82390W        W54716   8.291  25.988  11.610
82391W        W54717  20.579  10.393   3.514
82392W        W54718  23.033  18.301  12.378
82393W        W54719  16.933  33.157  13.406
82394W        W54720  12.433   6.377   0.854
82395W        W54721   4.808  19.550  13.057
82396W        W54722  44.581   1.978   0.361
82397W        W54723  15.020  35.049   1.784
82398W        W54724  40.373  16.724  13.515
82399W        W54725  38.045  10.157  11.995
82400W        W54726  20.373  15.726   4.112
82401W        W54727  23.729  27.469  12.969
82402W        W54728  10.614  42.865   1.796
82403W        W54729  12.965  13.589   2.868
82404W        W54730   9.835  34.410  10.559
82405W        W54731  35.933  33.401   1.321
82406W        W54732  35.108  22.634   4.166
82407W        W54733   1.549  37.243  12.041
82408W        W54734  17.590  10.564  12.016
82409W        W54735  17.765  20.580   0.942
82410W        W54736  21.491  42.020  11.112
82411W        W54737  25.756   7.408  13.849
82412W        W54738  39.353  28.108  11.517
82413W        W54739  43.143   1.479   1.414
82414W        W54740  17.188  42.874   1.703
82415W        W54741  42.829  17.574   1.473
82416W        W54742  31.350  23.218  14.615
82417W        W54743   0.012  31.553   3.371
82418W        W54744   1.940  14.782  11.746
82419W        W54745   9.468  26.734   0.845
82420W        W54746  20.224   4.867   4.529
82421W        W54747  37.367  31.329   2.162
82422W        W54748  41.224  14.988  12.927
82423W        W54749  33.624   6.851   1.443
82424W        W54750   3.681  34.654  13.883
82425W        W54751  34.104  42.315  11.249
82426W        W54752  39.501  40.661   0.373
82427W        W54753  43.180   5.795  11.500
82428W        W54754  17.300   6.328  14.267
82429W        W54755   0.302  44.192   4.524
82430W        W54756  14.800  26.402   1.497
82431W        W54757  11.801  22.608  12.566
82432W        W54758   4.875  18.109  10.167
82433W        W54759  19.064   9.751   1.255
82434W        W54760  42.927   6.942   2.843
82435W        W54761   1.690  12.400  13.493
82436W        W54762  10.940  25.311  13.389
82437W        W54763  20.211  42.403   1.673
82438W        W54764  18.548   4.002  10.613
82439W        W54765  25.695  18.607  11.926
82440W        W54766  26.699   2.369   4.856
82441W        W54767  33.129  20.161  11.993
82442W        W54768  44.607  41.881   0.521
82443W        W54769  14.311  42.017   2.134
82444W        W54770  11.852  12.755   2.205
82445W        W54771  42.249   3.939  12.583
82446W        W54772   1.592  23.457  12.044
82447W        W54773   0.392  13.837  12.426
82448W        W54774  37.591   7.224   0.787
82449W        W54775  33.608  30.298  10.660
82450W        W54776  31.528  36.190  12.374
82451W        W54777  16.487  28.364   1.521
82452W        W54778  28.302  31.054   2.755
82453W        W54779  33.051   5.648   1.544
82454W        W54780  44.284  32.711   0.823
82455W        W54781  33.600  43.853  12.467
82456W        W54782  33.171   6.756   1.779
82457W        W54783  41.764   3.849  12.043
82458W        W54784   2.901  10.698   1.795
82459W        W54785  35.952  42.555   2.349
82460W        W54786  15.766  37.408  11.834
82461W        W54787  17.306  36.902  14.370
82462W        W54788  18.694  19.972   4.194
82463W        W54789   4.723  18.870   2.452
82464W        W54790  38.886   1.872   3.893
82465W        W54791   4.363  24.136  12.022
82466W        W54792  35.336  24.916  14.266
82467W        W54793  16.962  43.961   1.808
82468W        W54794  40.295   1.271  13.014
82469W        W54795  34.891  15.167   2.405
82470W        W54796  23.740  21.192  14.981
82471W        W54797  25.159  28.419   1.618
82472W        W54798  28.627  40.003   2.746
82473W        W54799  30.473  44.379   2.270
82474W        W54800  24.149   6.903  13.629
82475W        W54801  34.364  20.791  11.842
82476W        W54802  44.063  11.688   2.273
82477W        W54803  27.638   9.656   0.251
82478W        W54804  30.908  26.393   2.174
82479W        W54805  15.792  15.768   3.634
82480W        W54806  31.668  12.703  13.397
82481W        W54807   2.317  37.693  10.678
82482W        W54808  41.578  11.582  12.594
82483W        W54809  41.833  11.894   2.166
82484W        W54810  30.109   0.182   0.446
82485W        W54811  28.245  20.968   3.332
82486W        W54812  24.271   9.229  13.755
82487W        W54813  44.752  36.669  11.098
82488W        W54814   7.614  21.680  11.536
82489W        W54815   6.250  38.278  13.349
82490W        W54816  34.531  17.698   2.779
82491W        W54817  24.027  22.765  10.050
82492W        W54818  43.769  34.929  14.831
82493W        W54819   3.380  28.546  11.295
82494W        W54820   5.462   3.149  13.008
82495W        W54821  38.256  29.466  12.973
82496W        W54822  20.872   1.375   3.360
82497W        W54823  39.642  24.290   3.687
82498W        W54824  36.962  27.513   4.727
82499W        W54825  26.650  23.011   3.320
82500W        W54826   8.431  29.986   4.534
82501W        W54827  18.140  32.060  12.603
82502W        W54828  19.928   4.282   0.241
82503W        W54829   0.002  44.249  13.367
82504W        W54830  25.389  28.714  11.170
82505W        W54831  11.593   5.853  13.431
82506W        W54832   7.013   8.404   1.256
82507W        W54833  11.509  38.989   4.657
82508W        W54834  16.285   3.163  12.953
82509W        W54835  34.875  12.105  12.898
82510W        W54836  38.028  32.457   3.404
82511W        W54837  35.606   4.807  14.304
82512W        W54838   4.428  41.000  13.466
82513W        W54839  26.422  22.367  12.786
82514W        W54840  29.023  16.582   0.902
82515W        W54841   9.429  42.044   0.897
82516W        W54842  23.567  33.616   0.493
82517W        W54843  39.345  23.981   0.849
82518W        W54844  42.429  37.135   4.228
82519W        W54845  29.169  12.252  14.465
82520W        W54846  43.977  23.360  13.371
82521W        W54847  22.321  16.115   2.418
82522W        W54848   6.226  32.626  10.800
82523W        W54849  33.483  12.096  14.480
82524W        W54850   6.342  26.972   1.739
82525W        W54851  20.145  43.226  14.417
82526W        W54852  39.205  42.034   4.096
82527W        W54853  15.214  16.770  10.914
82528W        W54854  22.657  23.474  13.315
82529W        W54855   8.721  20.674   2.374
82530W        W54856  15.063  17.008  12.585
82531W        W54857   1.135  36.086   2.792
82532W        W54858  11.361   8.982   3.709
82533W        W54859  13.789  43.911   1.468
82534W        W54860   1.416   3.404   2.622
82535W        W54861  21.689  17.080  14.005
82536W        W54862  29.173   6.662   0.111
82537W        W54863   7.616  19.176  14.365
82538W        W54864  37.882  31.199   0.682
82539W        W54865  40.597  29.444   1.881
82540W        W54866  41.573   6.694   2.177
82541W        W54867  29.709  16.801   3.461
82542W        W54868  26.037  10.745  13.937
82543W        W54869  41.598   5.825  12.088
82544W        W54870  27.465   6.197   2.203
82545W        W54871  34.206  25.912  14.937
82546W        W54872  35.279  36.300   4.962
82547W        W54873  12.063  27.001   9.691
82548W        W54874  15.921   7.981   3.798
82549W        W54875  26.671  25.594   4.773
82550W        W54876  11.208  30.527  13.539
82551W        W54877  22.107   2.674   3.286
82552W        W54878  25.978  35.355  13.947
82553W        W54879  37.497  34.504   4.589
82554W        W54880  34.409  29.378  11.089
82555W        W54881  12.326  24.320  10.645
82556W        W54882  24.147   9.325   4.608
82557W        W54883  27.423  11.317  14.777
82558W        W54884  34.950  14.901  14.847
82559W        W54885   9.340   1.441   4.509
82560W        W54886  22.954  34.189  12.275
82561W        W54887  23.490  20.696  13.877
82562W        W54888  34.476  20.917  14.043
82563W        W54889  20.208  30.212   0.887
82564W        W54890   4.533  36.390   9.925
82565W        W54891   0.316  15.882  11.956
82566W        W54892  27.221  20.126   0.879
82567W        W54893   6.421   3.006   3.582
82568W        W54894  12.799  22.808  12.889
82569W        W54895  41.570  32.912   2.688
82570W        W54896  16.554  43.375   1.341
82571W        W54897   4.176   7.427   2.104
82572W        W54898  30.594  29.568  12.858
82573W        W54899  19.003  12.366  11.976
82574W        W54900  40.316  31.983   5.127
82575W        W54901   1.921  22.516   3.266
82576W        W54902  44.719  21.615  10.795
82577W        W54903   3.773  43.815   3.371
82578W        W54904  29.591  37.225  10.930
82579W        W54905  42.021  40.946   1.386
82580W        W54906  28.533   9.163   1.449
82581W        W54907  38.286  40.306   0.817
82582W        W54908   4.836  10.102  10.913
82583W        W54909  33.403  41.833  11.643
82584W        W54910  30.534  15.304   1.709
82585W        W54911  23.144  27.970  12.469
82586W        W54912   1.102  32.324   1.852
82587W        W54913  42.225  38.452   0.253
82588W        W54914  42.945  26.712   2.217
82589W        W54915  31.148   7.701  10.652
82590W        W54916  13.573  25.226  11.099
82591W        W54917  28.132  19.466   0.337
82592W        W54918  24.969  42.045  11.184
82593W        W54919  25.573  32.953  13.103
82594W        W54920  22.314  43.884   2.227
82595W        W54921  40.009  38.302  10.346
82596W        W54922  10.096  18.565   0.461
82597W        W54923   5.916   4.530   0.993
82598W        W54924   7.748   9.574   4.217
82599W        W54925   6.075   7.165   3.759
82600W        W54926  30.066  40.009   0.065
82601W        W54927  27.636  34.636   2.752
82602W        W54928  44.617   5.588   2.775
82603W        W54929  32.269  14.281  13.313
82604W        W54930  28.249  27.064   3.144
82605W        W54931  33.397  18.769  12.030
82606W        W54932  43.798  30.881   0.949
82607W        W54933  35.434  40.996   1.336
82608W        W54934  22.082  11.263   4.339
82609W        W54935  11.813  23.473   3.625
82610W        W54936  24.925  42.418  12.846
82611W        W54937   8.315  25.072  11.402
82612W        W54938  10.426   3.341  11.957
82613W        W54939  27.047   0.739   2.259
82614W        W54940  16.454  24.573  13.999
82615W        W54941   4.672  13.307   0.240
82616W        W54942  38.765  13.404   5.100
82617W        W54943   1.175  43.281  10.601
82618W        W54944  36.060   2.162  14.373
82619W        W54945   7.778  28.176   2.106
82620W        W54946  23.535  10.690  12.660
82621W        W54947  32.131  35.161  12.538
82622W        W54948  30.072  44.950   3.131
82623W        W54949   1.218  16.286  13.355
82624W        W54950  35.076   8.572  14.667
82625W        W54951  15.146  35.141  12.022
82626W        W54952   7.631   7.189   4.186
82627W        W54953  21.520   6.757  12.113
82628W        W54954  18.126   2.913  12.070
82629W        W54955  36.134  21.267   0.408
82630W        W54956  21.755  24.961  14.474
82631W        W54957   8.322  36.913   3.576
82632W        W54958  21.525  21.729   1.816
82633W        W54959  26.717  22.978   1.282
82634W        W54960  36.716   4.065   0.947
82635W        W54961  13.740   8.180  10.770
82636W        W54962  20.286  10.931   4.213
82637W        W54963  42.296  44.008   0.330
82638W        W54964  34.495  38.088   4.545
82639W        W54965   8.273   6.769  13.932
82640W        W54966  21.707   8.883  11.127
82641W        W54967  23.674  35.389  11.409
82642W        W54968  16.775   9.873   9.864
82643W        W54969  34.973  32.423   5.097
82644W        W54970   9.418  32.928   4.604
82645W        W54971  17.606   5.556   3.325
82646W        W54972  41.992  29.535   3.754
82647W        W54973  30.973  43.567   1.308
82648W        W54974  10.387  13.076   2.208
82649W        W54975  22.208  40.893   1.461
82650W        W54976  19.190   2.792   4.234
82651W        W54977  29.500   1.974  11.178
82652W        W54978  18.691   3.219  11.010
82653W        W54979  40.918  28.706   2.370
82654W        W54980  35.839  28.484  14.443
82655W        W54981  24.009  20.812  12.828
82656W        W54982  24.745  31.334  14.311
82657W        W54983  25.761  42.417   2.747
82658W        W54984  36.660   1.514  10.685
82659W        W54985  26.653  33.661  13.925
82660W        W54986  32.446  18.647  13.857
82661W        W54987  40.328   1.575  13.417
82662W        W54988  24.731  35.811  14.519
82663W        W54989  18.040   9.876  11.528
82664W        W54990   0.072   9.834  11.194
82665W        W54991  22.476  16.654  10.701
82666W        W54992  14.513  39.391  14.424
82667W        W54993   6.668   7.307  14.965
82668W        W54994  22.059   4.827   0.446
82669W        W54995   6.505   6.438   4.875
82670W        W54996  20.986  43.331  13.873
82671W        W54997   1.209  32.943  11.942
82672W        W54998   8.744   4.322   1.934
82673W        W54999  21.714  36.995   2.232
82674W        W55000  14.283  15.255  10.964
82675W        W55001  20.686  24.482  13.357
82676W        W55002  37.394  19.400   0.230
82677W        W55003  38.778  17.775   3.381
82678W        W55004  15.668  10.312  10.508
82679W        W55005  12.293  22.192   4.212
82680W        W55006  33.126  16.289  13.450
82681W        W55007  38.880   8.657  11.353
82682W        W55008   3.941  38.840   2.254
82683W        W55009  43.795  43.341  14.886
82684W        W55010  42.456  36.024   2.682
82685W        W55011  44.879  27.756  11.400
82686W        W55012  38.589  43.934   1.770
82687W        W55013  26.552  28.528   0.928
82688W        W55014  10.808  34.007   1.678
82689W        W55015  30.266   4.310   2.325
82690W        W55016   9.462  11.007   0.843
82691W        W55017  28.726  12.662   0.195
82692W        W55018  41.727   0.006  13.922
82693W        W55019  43.358   9.846   0.839
82694W        W55020  43.873  32.624   1.188
82695W        W55021   2.925  40.843   4.036
82696W        W55022  32.518   5.706  12.849
82697W        W55023   6.272  25.058  13.759
82698W        W55024   6.318   5.798  11.464
82699W        W55025   8.672   3.513  11.717
82700W        W55026   6.915  43.121  13.480
82701W        W55027  34.202  42.909  14.264
82702W        W55028  18.145  38.336  11.172
82703W        W55029  12.790  29.088   0.254
82704W        W55030  23.054  30.639   2.287
82705W        W55031  13.380   9.803   2.172
82706W        W55032  39.892   5.192  10.590
82707W        W55033  27.247  20.112  14.982
82708W        W55034   6.668  36.632  11.799
82709W        W55035  20.277  41.543  10.676
82710W        W55036  25.842  17.408  13.964
82711W        W55037  31.568  32.576   1.909
82712W        W55038  29.679  16.414   3.139
82713W        W55039  20.299   5.378   4.371
82714W        W55040  17.523   4.639   2.979
82715W        W55041  15.800  12.680  14.745
82716W        W55042   9.201  43.773  14.340
82717W        W55043   5.275  21.938   3.154
82718W        W55044  26.623  24.680   0.990
82719W        W55045   7.232  20.505   0.760
82720W        W55046  18.565   4.308  14.384
82721W        W55047  17.391  33.457   1.235
82722W        W55048   6.351   9.289  14.507
82723W        W55049  44.435  42.896  13.110
82724W        W55050  31.637  22.358   4.566
82725W        W55051  36.000  23.488  14.390
82726W        W55052   0.405  18.329   1.918
82727W        W55053  20.597  18.132  14.384
82728W        W55054  28.101  14.092   3.168
82729W        W55055  17.099  30.649   2.773
82730W        W55056  40.780  16.132  12.418
82731W        W55057  41.666  37.965  11.162
82732W        W55058  12.658  40.573   2.934
82733W        W55059  24.514  20.738   3.588
82734W        W55060  17.598  23.179   4.663
82735W        W55061  23.475  15.644   0.451
82736W        W55062  27.128   4.307   4.305
82737W        W55063  18.840  20.117   0.490
82738W        W55064  40.514  26.662  14.299
82739W        W55065  14.561  41.374  10.922
82740W        W55066  22.694   9.567   3.135
82741W        W55067  39.442  43.016   3.235
82742W        W55068   9.639  38.178   3.875
82743W        W55069   4.834   1.904   2.754
82744W        W55070  27.941  34.430  11.218
82745W        W55071  27.591  13.976  13.866
82746W        W55072  21.762  10.362  11.044
82747W        W55073   0.593  10.613   3.354
82748W        W55074   3.661  13.167  14.920
82749W        W55075   9.236   7.821  10.927
82750W        W55076  40.802  36.344  14.512
82751W        W55077  24.262  10.508   3.627
82752W        W55078   4.008  38.896  10.564
82753W        W55079  14.131  19.947  14.754
82754W        W55080  10.766  19.508  11.647
82755W        W55081  29.080   0.401  12.220
82756W        W55082  40.529  44.613  11.950
82757W        W55083  25.981  23.885   3.112
82758W        W55084  44.867  28.482  11.002
82759W        W55085   9.137  10.849  11.673
82760W        W55086  20.257   6.296   2.372
82761W        W55087  19.784   5.446  12.120
82762W        W55088   0.022  27.475   3.732
82763W        W55089  43.249  35.984   1.928
82764W        W55090   1.258  38.785   4.260
82765W        W55091  25.911  37.883   2.279
82766W        W55092   0.525  11.755  13.448
82767W        W55093  30.668   7.769  12.785
82768W        W55094  21.878  15.370  12.156
82769W        W55095   5.439  12.626  14.307
82770W        W55096  29.636  29.846   0.825
82771W        W55097  39.427  16.188   1.659
82772W        W55098  23.159  39.936   5.543
82773W        W55099  35.154  20.569   0.864
82774W        W55100  24.462  33.512   1.712
82775W        W55101   4.203  31.426   3.176
82776W        W55102   7.145   0.486   2.773
82777W        W55103  15.840  43.467  13.566
82778W        W55104  40.793  13.207   3.164
82779W        W55105  44.103  23.815  13.612
82780W        W55106  20.152  25.773   4.356
82781W        W55107  30.442  19.633   2.150
82782W        W55108  36.512  12.165  13.615
82783W        W55109  11.293   2.179  12.490
82784W        W55110  43.588  33.592  12.510
82785W        W55111   0.455   7.210   2.899
82786W        W55112  12.280  19.286   1.941
82787W        W55113  28.253  37.139   4.685
82788W        W55114  31.142  17.756   0.337
82789W        W55115  39.111  27.169  12.350
82790W        W55116  25.546  39.519   5.808
82791W        W55117   0.013   9.648   2.304
82792W        W55118  39.265  14.294  11.919
82793W        W55119   1.226   8.773  11.850
82794W        W55120  21.621  30.800   2.321
82795W        W55121  10.827  32.648  12.008
82796W        W55122  34.034  18.790   3.058
82797W        W55123  25.417  12.662  12.510
82798W        W55124  17.962   5.398   4.649
82799W        W55125  40.370   2.863  10.732
82800W        W55126  13.592   8.328  12.146
82801W        W55127   8.221  39.856   1.417
82802W        W55128   0.459  42.420   4.574
82803W        W55129  37.802  11.351  10.494
82804W        W55130  27.940  26.006  12.406
82805W        W55131  44.616   5.366   2.071
82806W        W55132   0.482   2.652  12.783
82807W        W55133   0.439  43.678   1.785
82808W        W55134   4.074   5.268  13.592
82809W        W55135  34.594   1.826  13.515
82810W        W55136   2.679  16.180   1.337
82811W        W55137   9.436  15.510   2.744
82812W        W55138  29.473  28.865  11.066
82813W        W55139  20.528  38.525  10.633
82814W        W55140   5.894  42.267  10.728
82815W        W55141  41.705  11.351   0.380
82816W        W55142  36.421  24.268  12.069
82817W        W55143  40.027   9.819   2.844
82818W        W55144  42.989  26.102   2.860
82819W        W55145   2.440  14.854  12.428
82820W        W55146  11.258  23.780  13.325
82821W        W55147  40.784  12.110  14.713
82822W        W55148  18.118  29.925   2.245
82823W        W55149  32.610   3.808  12.907
82824W        W55150  41.883   7.899   4.554
82825W        W55151  12.537   6.293  12.498
82826W        W55152  13.770  33.413   2.830
82827W        W55153  23.136  21.496  12.903
82828W        W55154  26.701   1.556  12.358
82829W        W55155  12.194  19.214   2.433
82830W        W55156  22.193  30.310   3.385
82831W        W55157  14.669  10.868  10.971
82832W        W55158  40.278  23.746  14.798
82833W        W55159  42.829  29.983  11.687
82834W        W55160  22.047   4.526   2.891
82835W        W55161  19.785  35.175   2.202
82836W        W55162   8.843  12.701   2.621
82837W        W55163  37.194  30.128   2.902
82838W        W55164  14.039   6.465  11.146
82839W        W55165  18.522  26.766   2.264
82840W        W55166  12.693  13.081   4.841
82841W        W55167  36.567  10.900   4.250
82842W        W55168   9.985  26.127  10.655
82843W        W55169  20.386  37.161  10.846
82844W        W55170   3.429  22.925   3.590
82845W        W55171   1.907  25.207  14.620
82846W        W55172  38.774  41.399   4.831
82847W        W55173  11.583  30.844  13.354
82848W        W55174  32.079  29.216  14.942
82849W        W55175   0.330  21.629   4.463
82850W        W55176   2.944  31.429  13.644
82851W        W55177   8.408  43.862   0.443
82852W        W55178  28.124  38.095  14.399
82853W        W55179  19.635  36.940   0.214
82854W        W55180  32.485  24.723   0.231
82855W        W55181   3.420  32.523   0.402
82856W        W55182  13.616  30.948   1.741
82857W        W55183  19.756  23.516   2.755
82858W        W55184  28.144  30.713  11.623
82859W        W55185  22.675  38.158  12.584
82860W        W55186   0.798  18.195  13.059
82861W        W55187  36.311  10.481  11.766
82862W        W55188   0.941  35.035  13.027
82863W        W55189  36.867  23.750   2.694
82864W        W55190  40.665  21.179  14.176
82865W        W55191  44.552  32.542  12.161
82866W        W55192  23.476  21.273  11.441
82867W        W55193  42.482  18.284  14.523
82868W        W55194  35.782   9.343   0.702
82869W        W55195  41.331  16.367   0.905
82870W        W55196  14.728   2.256  11.092
82871W        W55197  42.553  24.935  14.928
82872W        W55198  40.910  21.013   2.391
82873W        W55199  27.515   3.784   2.275
82874W        W55200   8.090   8.097  12.865
82875W        W55201  20.818  31.970   0.153
82876W        W55202   1.234  18.206   3.383
82877W        W55203  25.162  34.552   4.591
82878W        W55204  37.215  14.571   3.257
82879W        W55205  24.792  35.384  12.425
82880W        W55206   0.836   9.700   3.802
82881W        W55207  30.528  16.710   3.693
82882W        W55208  33.136   5.683   0.305
82883W        W55209  11.769  21.664  14.194
82884W        W55210  22.985  25.576   3.167
82885W        W55211  20.798  23.516   2.651
82886W        W55212  31.242  41.458   2.091
82887W        W55213  10.703  19.503  14.459
82888W        W55214  34.529  39.818  10.564
82889W        W55215  38.544  39.812   2.761
82890W        W55216  15.038  17.775  14.271
82891W        W55217  42.349  44.430   2.325
82892W        W55218  34.530   1.734  12.470
82893W        W55219  21.655  11.782  10.591
82894W        W55220  12.364  44.940  11.621
82895W        W55221  30.227  33.122  12.465
82896W        W55222  44.193   9.625  14.421
82897W        W55223  31.001   8.859  14.261
82898W        W55224  18.498  44.820  14.286
82899W        W55225  41.733  17.353  12.157
82900W        W55226  40.082  12.057  11.522
82901W        W55227   2.949  43.359   4.047
82902W        W55228  44.189   0.256   1.215
82903W        W55229  10.501  41.805   4.314
82904W        W55230  14.328  23.509   2.215
82905W        W55231  14.704   6.489   0.277
82906W        W55232   3.167   4.135  11.525
82907W        W55233   6.443  22.703   4.593
82908W        W55234   0.354  30.345  12.095
82909W        W55235   0.098  23.633   4.793
82910W        W55236  37.408   1.841  11.420
82911W        W55237  23.652   6.325  14.802
82912W        W55238  22.190  31.924   4.518
82913W        W55239  12.202  26.986   4.285
82914W        W55240  28.526  40.994   3.788
82915W        W55241  20.064  37.806  12.337
82916W        W55242   3.501  41.493  11.881
82917W        W55243  32.356  21.922  13.575
82918W        W55244  39.488  31.582  11.476
82919W        W55245  38.229   6.883   2.539
82920W        W55246  17.622  41.955   0.796
82921W        W55247  28.530   3.410   0.430
82922W        W55248  22.944  34.259  13.520
82923W        W55249  11.121  32.666   2.010
82924W        W55250  21.214  32.140   3.298
82925W        W55251   7.022  43.093   0.248
82926W        W55252  20.157  12.374   1.952
82927W        W55253  28.065  14.232   5.029
82928W        W55254  24.936  16.800   3.182
82929W        W55255  35.630  20.028  11.242
82930W        W55256  44.738  39.254  11.442
82931W        W55257  29.808  20.030   1.683
82932W        W55258  26.796  12.262   3.811
82933W        W55259  16.823  15.101   2.816
82934W        W55260  14.954  29.139   1.104
82935W        W55261  24.749  40.811   4.575
82936W        W55262  29.508  16.673   0.731
82937W        W55263  21.228  23.928  12.881
82938W        W55264   7.160  12.800  14.989
82939W        W55265  40.470  29.866  14.471
82940W        W55266  14.200  29.870  13.790
82941W        W55267  13.848  23.030  12.500
82942W        W55268  30.765  33.874  10.447
82943W        W55269  20.749  35.320  12.535
82944W        W55270  40.974  36.407   0.919
82945W        W55271  16.046   0.412   2.629
82946W        W55272  43.442  30.245   2.124
82947W        W55273   9.322   9.653   0.882
82948W        W55274  17.633  19.821  12.523
82949W        W55275  39.513  35.561  13.792
82950W        W55276  14.639  32.092   3.735
82951W        W55277  34.562  43.322   1.110
82952W        W55278  15.894  28.568  13.422
82953W        W55279  41.358  14.582  11.130
82954W        W55280  21.008  39.848  11.817
82955W        W55281  40.768   6.982   1.033
82956W        W55282  14.752  14.240  12.917
82957W        W55283  37.600  10.359  14.934
82958W        W55284   2.649  17.534   3.265
82959W        W55285   6.220  32.967   1.433
82960W        W55286  37.437   2.777  13.893
82961W        W55287   1.055  17.204   4.794
82962W        W55288  15.235  21.795   3.169
82963W        W55289   4.242  17.040  12.095
82964W        W55290  20.928  36.557   4.537
82965W        W55291  27.946  39.105   3.305
82966W        W55292  25.519  40.487   0.335
82967W        W55293  28.960  38.529   3.680
82968W        W55294  32.078  43.419  13.017
82969W        W55295  38.905  29.049   2.591
82970W        W55296  20.131  20.271   3.348
82971W        W55297  44.283  30.194   1.714
82972W        W55298  14.333  25.695  10.722
82973W        W55299   0.663  34.932  13.472
82974W        W55300   3.958   9.358   3.357
82975W        W55301  36.465  12.753   2.926
82976W        W55302  42.834  26.523  13.477
82977W        W55303  34.834  26.854   1.704
82978W        W55304  31.865  28.538  13.436
82979W        W55305   7.846   5.375   3.800
82980W        W55306  38.543  16.222  12.651
82981W        W55307   8.147  27.081  10.560
82982W        W55308  21.779  24.099  12.072
82983W        W55309   3.506  20.083   2.132
82984W        W55310  19.717  22.136   3.727
82985W        W55311   6.819  38.943  14.984
82986W        W55312  30.679  43.538   0.019
82987W        W55313  22.983  32.479   0.214
82988W        W55314  11.394   2.949  10.469
82989W        W55315  11.840  34.113   0.308
82990W        W55316   6.718  15.276  14.302
82991W        W55317   7.970  22.613   9.878
82992W        W55318  36.409   6.871  12.912
82993W        W55319   9.851  24.074   4.643
82994W        W55320  42.486   5.221   3.195
82995W        W55321  26.131  37.429  10.212
82996W        W55322  39.011  17.136   0.274
82997W        W55323  12.666  44.364  14.777
82998W        W55324  19.021  35.318  14.434
82999W        W55325  32.406  17.905  11.473
83000W        W55326  20.081  18.399  10.234
83001W        W55327  20.563  28.183   2.736
83002W        W55328  32.097  29.952  11.120
83003W        W55329  30.869  24.446  13.873
83004W        W55330  28.914   2.930  12.895
83005W        W55331  21.800  11.169   1.121
83006W        W55332  21.240  13.933   1.680
83007W        W55333  43.028   2.244  14.117
83008W        W55334  18.207  30.332   2.603
83009W        W55335   9.820  24.128  14.531
83010W        W55336  30.478  18.897  12.622
83011W        W55337  11.784  30.374   0.194
83012W        W55338   3.705  29.958   2.241
83013W        W55339  27.995   7.369  14.422
83014W        W55340   8.145  10.308  11.040
83015W        W55341   8.622  15.869   0.749
83016W        W55342  37.889  31.156   1.747
83017W        W55343   0.836   7.610   3.642
83018W        W55344  30.217   2.733  12.529
83019W        W55345   0.924  37.768   4.314
83020W        W55346  44.334  44.684  10.361
83021W        W55347  24.621   9.282  12.688
83022W        W55348   4.862  43.894   1.587
83023W        W55349  32.929  14.136  14.639
83024W        W55350   4.253  10.416   2.852
83025W        W55351  35.550  20.824  13.143
83026W        W55352  17.309  29.348   1.766
83027W        W55353  19.730  35.138  14.347
83028W        W55354  10.261   6.995  13.754
83029W        W55355  19.272  20.990  14.200
83030W        W55356  13.903  14.297  10.949
83031W        W55357   9.937  38.595   4.075
83032W        W55358  27.767  18.645   3.830
83033W        W55359   2.236  43.001  13.946
83034W        W55360  19.701  28.453  14.100
83035W        W55361  17.182  21.770  11.861
83036W        W55362  23.761  17.894   9.455
83037W        W55363  35.067  20.038  11.981
83038W        W55364  25.022  11.092  14.926
83039W        W55365   7.962  14.369  14.235
83040W        W55366  40.342  27.505   1.231
83041W        W55367  31.710   1.225  11.125
83042W        W55368   9.723  14.876  12.192
83043W        W55369  18.714  42.590  12.530
83044W        W55370   6.218  40.441   4.654
83045W        W55371  44.751  21.579  13.573
83046W        W55372  12.396   1.573  14.131
83047W        W55373  10.201  28.044   0.189
83048W        W55374   3.068   5.959   2.929
83049W        W55375   3.657  34.913   3.267
83050W        W55376   4.407  25.398  11.396
83051W        W55377   9.026  31.472   0.423
83052W        W55378   7.300  10.119  14.803
83053W        W55379  38.757  19.793   0.078
83054W        W55380  33.191  43.550   2.778
83055W        W55381  14.581  37.573   4.570
83056W        W55382  34.323  32.051   2.764
83057W        W55383  27.843   8.805   3.213
83058W        W55384  14.380  14.119  11.078
83059W        W55385  35.040  11.078  13.718
83060W        W55386  11.745   2.390  11.523
83061W        W55387  16.106  39.344  12.940
83062W        W55388  15.002  16.326  13.262
83063W        W55389   7.295  20.547  12.480
83064W        W55390  22.287  16.064   3.261
83065W        W55391  22.687  37.530   3.723
83066W        W55392  13.894  23.716   0.427
83067W        W55393   5.093  28.210  10.831
83068W        W55394  35.601  22.515   0.252
83069W        W55395  40.027   5.893   2.183
83070W        W55396  32.852  11.831   2.863
83071W        W55397  36.961  12.773   2.137
83072W        W55398  38.515   4.998  13.538
83073W        W55399   8.855  11.288   3.264
83074W        W55400  20.159  35.937   3.629
83075W        W55401  10.086  14.665   0.912
83076W        W55402  18.243  36.631   4.845
83077W        W55403   5.952   3.878  13.463
83078W        W55404  35.312  29.942   4.484
83079W        W55405  25.016  23.283  14.951
83080W        W55406  39.372  26.717   3.706
83081W        W55407  16.162   5.647   2.354
83082W        W55408   7.105  13.775   4.292
83083W        W55409  37.048  30.167  11.188
83084W        W55410  16.263  41.057   4.655
83085W        W55411  14.751  14.505  12.473
83086W        W55412   2.502  29.343  13.430
83087W        W55413  13.399  29.678  12.463
83088W        W55414  26.991   9.005   4.149
83089W        W55415   1.400   7.933   4.660
83090W        W55416  16.774  33.968  13.933
83091W        W55417   6.849  33.448  13.933
83092W        W55418  28.545  37.845   4.112
83093W        W55419   8.528  25.941  13.620
83094W        W55420  41.469   0.860  13.539
83095W        W55421  10.201  19.279   1.869
83096W        W55422  28.406  13.732   4.097
83097W        W55423  29.377  17.408  11.559
83098W        W55424  30.159  42.786   0.892
83099W        W55425  32.157   3.219   4.144
83100W        W55426   1.940   1.761   1.837
83101W        W55427   9.706   5.831  14.879
83102W        W55428  13.328  11.785   3.216
83103W        W55429  42.339  27.852   2.159
83104W        W55430  40.121   4.009   3.110
83105W        W55431  29.694  13.808   0.376
83106W        W55432  40.770  11.751   0.432
83107W        W55433  25.292  15.067   1.148
83108W        W55434  14.268  25.553   2.466
83109W        W55435  42.364   8.779  10.677
83110W        W55436   8.617  38.838  11.314
83111W        W55437  23.283  30.572  12.211
83112W        W55438   7.824  22.701   1.791
83113W        W55439  39.087  21.334  11.048
83114W        W55440  13.559  12.158   1.021
83115W        W55441  25.195  30.664   1.326
83116W        W55442  44.934  21.351   3.682
83117W        W55443   6.197  25.826  12.092
83118W        W55444  21.548  38.308   0.332
83119W        W55445   9.834  33.566   3.227
83120W        W55446  34.702  12.652   0.949
83121W        W55447  31.950   3.844   2.272
83122W        W55448  13.578  34.514  11.652
83123W        W55449  39.866   8.465   4.763
83124W        W55450  36.626   7.346   1.795
83125W        W55451  21.633  41.101  11.380
83126W        W55452   7.336  33.895  13.125
83127W        W55453  15.762  32.596  14.456
83128W        W55454  44.708  36.907   0.197
83129W        W55455  10.665  30.117   1.414
83130W        W55456  23.127   7.747   4.363
83131W        W55457   5.234  31.149  13.377
83132W        W55458  17.189  12.110  11.245
83133W        W55459  35.911  11.888  11.000
83134W        W55460  33.726  14.976  12.385
83135W        W55461  22.905  26.549  12.213
83136W        W55462   4.215  42.390  12.847
83137W        W55463  27.374   6.431   2.660
83138W        W55464   2.851  36.317  10.657
83139W        W55465   0.265   9.251   2.545
83140W        W55466  35.023  30.947  11.497
83141W        W55467  20.539  15.201  14.459
83142W        W55468  18.788  20.449   4.490
83143W        W55469  14.583  36.391  11.553
83144W        W55470  27.916  39.359   2.870
83145W        W55471  40.454  18.275   4.703
83146W        W55472   7.329   8.408   3.110
83147W        W55473  12.853  36.679  11.881
83148W        W55474   4.798  34.826   5.080
83149W        W55475  31.965  33.867   2.932
83150W        W55476  36.586  33.049   0.236
83151W        W55477  25.068  25.894  12.809
83152W        W55478  26.864  24.587  13.135
83153W        W55479  25.196   8.729  13.347
83154W        W55480  24.664  35.110  11.572
83155W        W55481  17.572  43.446   1.030
83156W        W55482   8.247  10.308   9.986
83157W        W55483  17.514  13.634   4.184
83158W        W55484  33.514  29.217  11.503
83159W        W55485  44.354   8.299   3.202
83160W        W55486  10.120  31.946  10.250
83161W        W55487  39.375  28.586   3.702
83162W        W55488  33.969  28.230   4.554
83163W        W55489  42.921  17.249  11.471
83164W        W55490  40.775   4.769  11.655
83165W        W55491  38.793  43.329   1.869
83166W        W55492  20.375  18.369  13.009
83167W        W55493  27.572   8.398   2.261
83168W        W55494  24.218  38.421   1.852
83169W        W55495  28.686  39.581   1.257
83170W        W55496  35.087  26.198   0.527
83171W        W55497  37.331  16.236  14.766
83172W        W55498  27.058  43.961  12.810
83173W        W55499  20.272  17.806   3.541
83174W        W55500  12.836   8.211   1.504
83175W        W55501  30.194  42.043   3.664
83176W        W55502  32.976  21.705   0.625
83177W        W55503  17.620  18.190  13.431
83178W        W55504  14.401  35.080  11.501
83179W        W55505  13.621  27.302   4.578
83180W        W55506  10.814  16.529   0.763
83181W        W55507  39.011  39.052   5.184
83182W        W55508  14.786  27.539   2.965
83183W        W55509   4.718   3.037   0.018
83184W        W55510  28.091  28.476  14.529
83185W        W55511  23.254  26.662  11.205
83186W        W55512  12.571  37.185  12.587
83187W        W55513  28.975   9.881  13.539
83188W        W55514  43.492   4.563   2.600
83189W        W55515   2.237  15.898  11.460
83190W        W55516  40.086  38.920  12.554
83191W        W55517  26.505  27.101  11.962
83192W        W55518   1.417  37.906   0.939
83193W        W55519  21.206  10.163   2.147
83194W        W55520   9.155  32.386   0.803
83195W        W55521  26.061  33.848  14.940
83196W        W55522   0.191  35.815   3.713
83197W        W55523   8.408  25.014   1.915
83198W        W55524  18.040   6.788  11.686
83199W        W55525  43.937  22.652   1.774
83200W        W55526   0.429  25.530  10.490
83201W        W55527  21.181  20.077  12.011
83202W        W55528  30.410  44.818   0.235
83203W        W55529  38.534   6.091   2.896
83204W        W55530  43.568  30.179   0.394
83205W        W55531  22.044  15.806   1.408
83206W        W55532  37.092   9.380  13.318
83207W        W55533  24.443  16.156  13.546
83208W        W55534  14.577  44.643   2.649
83209W        W55535   7.395  22.614  13.427
83210W        W55536  44.886  15.343  10.334
83211W        W55537  17.560   6.015   4.090
83212W        W55538  23.137   9.166  14.769
83213W        W55539  21.665  19.334   1.762
83214W        W55540  42.427  41.839   3.347
83215W        W55541   4.112   3.957  12.110
83216W        W55542  13.372  13.378  13.036
83217W        W55543  24.976  36.486  11.676
83218W        W55544  22.399  13.079  12.486
83219W        W55545  13.310   8.422   1.030
83220W        W55546   6.371  41.783   4.298
83221W        W55547  32.525  34.697   2.108
83222W        W55548   6.001  35.101  12.861
83223W        W55549  38.116  27.076  12.915
83224W        W55550  29.607  20.049  14.972
83225W        W55551   1.285  31.067   0.346
83226W        W55552   0.998  15.262   1.942
83227W        W55553  34.387  20.019  14.804
83228W        W55554  15.077  10.327  13.502
83229W        W55555  31.434  40.735   3.186
83230W        W55556  38.844  34.534   4.077
83231W        W55557  39.062  18.754   0.738
83232W        W55558  21.730  31.927  12.541
83233W        W55559  32.054  17.263  11.187
83234W        W55560  12.415  28.620  12.502
83235W        W55561   4.849  33.331   2.196
83236W        W55562   5.173   7.186   2.240
83237W        W55563  24.688  13.933   4.910
83238W        W55564   7.246   8.208  14.119
83239W        W55565  32.935  20.855   3.336
83240W        W55566  23.327  18.596  10.779
83241W        W55567  15.331  12.802  13.872
83242W        W55568   0.884  26.790   3.669
83243W        W55569   2.398  19.190   2.633
83244W        W55570  35.882   5.772   4.077
83245W        W55571  11.203  23.806  14.263
83246W        W55572  24.499  21.053   1.850
83247W        W55573   2.460  20.217   4.183
83248W        W55574  37.639  43.408  10.717
83249W        W55575   8.086  36.828  12.353
83250W        W55576  19.791   1.953   2.718
83251W        W55577   1.324  17.102  11.660
83252W        W55578  38.064  20.932  14.855
83253W        W55579  44.587  18.514  12.566
83254W        W55580  36.325   6.418   2.239
83255W        W55581  29.061  12.229   0.511
83256W        W55582   0.927  22.936   2.967
83257W        W55583  20.729  26.495   1.942
83258W        W55584   4.250  16.072  14.578
83259W        W55585  42.411  18.766  13.624
83260W        W55586  19.813  20.598  10.838
83261W        W55587  30.788  41.706   0.480
83262W        W55588  14.616   8.238   4.324
83263W        W55589  32.068   2.351   0.521
83264W        W55590  16.489  27.273  10.698
83265W        W55591  39.281  23.868   2.451
83266W        W55592  40.831  16.169   0.863
83267W        W55593   0.319  14.522  14.227
83268W        W55594  20.728  20.549  14.393
83269W        W55595  42.107  34.523  12.367
83270W        W55596  30.648  33.100   0.937
83271W        W55597  36.311  29.681   4.774
83272W        W55598  20.703   3.686  10.958
83273W        W55599  31.497  28.685   2.323
83274W        W55600  29.198  31.314   1.214
83275W        W55601  31.878  15.688  14.708
83276W        W55602  20.029  19.343  13.503
83277W        W55603  38.947  17.142  14.321
83278W        W55604  37.906  44.037  13.728
83279W        W55605  43.358  25.658   4.227
83280W        W55606  13.678  15.687  10.637
83281W        W55607  35.937  38.443  11.425
83282W        W55608  37.342  31.663  12.591
83283W        W55609  31.192  14.059  12.552
83284W        W55610  10.382  39.768   2.245
83285W        W55611  33.615  21.628   3.951
83286W        W55612  38.644  17.945   2.888
83287W        W55613  24.609  41.732  13.831
83288W        W55614   3.839  39.384  13.934
83289W        W55615  42.406   4.148   0.863
83290W        W55616  15.216  38.824   3.141
83291W        W55617  42.858  29.649  13.004
83292W        W55618   1.911  11.727  11.486
83293W        W55619  44.028  24.981  13.868
83294W        W55620   8.597   3.684  14.411
83295W        W55621  26.750  35.322   1.775
83296W        W55622  23.592  37.967   2.787
83297W        W55623  43.229  30.927  11.384
83298W        W55624  11.787  34.967  12.822
83299W        W55625  15.435  11.080   3.388
83300W        W55626   7.704   1.580   2.492
83301W        W55627   7.859  19.749  11.538
83302W        W55628  38.751  42.872   4.185
83303W        W55629  17.471  32.849  11.617
83304W        W55630   2.628  13.324  10.819
83305W        W55631  41.856  31.558   3.337
83306W        W55632  14.195  12.144   1.802
83307W        W55633  31.311  40.383  14.052
83308W        W55634  39.787  21.261   3.072
83309W        W55635  37.976  27.740  11.578
83310W        W55636  35.591  39.803  12.483
83311W        W55637  14.241  41.871   5.210
83312W        W55638  11.542  40.319   0.812
83313W        W55639   2.351  43.482   1.485
83314W        W55640   9.439  17.584  12.923
83315W        W55641  21.607   3.139  13.571
83316W        W55642  23.816  17.972  14.779
83317W        W55643  30.506  35.557  10.672
83318W        W55644   8.160   2.494   3.921
83319W        W55645  12.322   4.787  10.950
83320W        W55646   2.322  16.936  14.211
83321W        W55647  33.954  29.672  10.983
83322W        W55648  33.490  38.803  11.480
83323W        W55649  35.452  41.638   2.910
83324W        W55650  19.382  31.605   3.700
83325W        W55651  33.985  39.284  11.564
83326W        W55652  19.291  33.221   3.915
83327W        W55653  13.117  14.739  12.000
83328W        W55654  42.931  43.887   4.571
83329W        W55655  43.264  11.878   4.432
83330W        W55656  13.727  35.383  14.505
83331W        W55657  17.736  40.090   2.409
83332W        W55658  12.841  15.416   4.093
83333W        W55659  40.610  19.498  10.762
83334W        W55660   0.128  25.561  12.528
83335W        W55661  12.880  24.252   3.135
83336W        W55662  34.125   6.447  13.800
83337W        W55663  15.768   3.456   0.513
83338W        W55664  16.507  10.689  11.964
83339W        W55665  16.901   4.902   3.760
83340W        W55666  29.471   9.410  12.970
83341W        W55667  29.337   2.355   2.637
83342W        W55668   7.432  10.652  10.631
83343W        W55669  16.727  28.518   4.474
83344W        W55670  39.668  28.970  11.186
83345W        W55671  12.647  37.498  10.058
83346W        W55672  24.552  34.563  13.880
83347W        W55673  38.822  17.750  10.672
83348W        W55674  21.717  17.135  12.426
83349W        W55675  30.687  21.163  13.865
83350W        W55676  20.954  13.868  11.196
83351W        W55677   4.928  13.838   4.547
83352W        W55678  24.497  40.616  14.839
83353W        W55679  43.265  31.660   0.975
83354W        W55680  29.584  29.500   1.796
83355W        W55681  31.423  10.611  14.191
83356W        W55682  13.691  10.051   3.187
83357W        W55683  12.639  36.422  10.653
83358W        W55684  39.393   5.930   3.364
83359W        W55685   8.376   3.741  12.082
83360W        W55686  11.423  24.909   9.491
83361W        W55687   1.254  14.820   1.831
83362W        W55688  37.437  12.403  14.016
83363W        W55689  12.712  34.695   1.521
83364W        W55690   8.816  34.858  13.404
83365W        W55691   9.137  32.649  14.515
83366W        W55692  11.377  33.097  12.976
83367W        W55693   0.661  12.251  13.588
83368W        W55694  20.260   2.872   0.019
83369W        W55695  11.314  16.714  14.358
83370W        W55696  36.481  39.431   0.254
83371W        W55697  39.345  24.670  12.824
83372W        W55698  20.116   6.737  12.515
83373W        W55699  28.755   7.853   2.334
83374W        W55700  10.711  34.128   0.753
83375W        W55701   1.337  26.019   1.831
83376W        W55702  41.026  29.431  12.508
83377W        W55703  38.033  17.784   1.211
83378W        W55704  31.912   7.420  13.863
83379W        W55705  36.371   2.189  11.119
83380W        W55706  14.693  43.284   1.903
83381W        W55707  21.754   8.854  12.495
83382W        W55708  30.170  11.582   3.348
83383W        W55709  36.804  18.709  14.935
83384W        W55710  27.753  17.205   0.034
83385W        W55711  12.586  20.647  11.576
83386W        W55712  44.872  18.415  13.753
83387W        W55713  21.240   6.419  12.855
83388W        W55714  29.621  30.683   4.568
83389W        W55715  44.568  44.290  12.456
83390W        W55716  19.089   6.354   0.362
83391W        W55717  39.071   6.976  14.417
83392W        W55718  42.335  43.725  14.150
83393W        W55719  39.355  27.103  11.525
83394W        W55720  10.369  39.465   1.486
83395W        W55721  36.930   7.652   1.293
83396W        W55722  12.458  35.254   4.128
83397W        W55723   3.897  15.687   0.332
83398W        W55724   7.155  12.722  13.153
83399W        W55725  30.408  19.093  12.068
83400W        W55726  12.172  18.164   4.535
83401W        W55727   8.468  42.032   2.716
83402W        W55728  35.341   3.224  10.600
83403W        W55729  39.932  23.547   3.132
83404W        W55730  34.836  16.805   0.135
83405W        W55731  25.203  16.352  11.814
83406W        W55732  33.698  34.165   1.690
83407W        W55733  29.165  43.218  13.823
83408W        W55734  24.247  20.831   1.455
83409W        W55735  11.745   9.147  10.386
83410W        W55736  44.139   3.941  11.744
83411W        W55737  44.431  41.429  12.519
83412W        W55738  13.748  25.059   4.155
83413W        W55739  23.768  28.148   4.831
83414W        W55740   2.967   6.631   3.690
83415W        W55741  14.526  16.253  13.026
83416W        W55742  10.809  12.785  12.592
83417W        W55743  27.478  22.969   3.188
83418W        W55744  39.049  20.215   1.886
83419W        W55745  39.809   2.421  12.420
83420W        W55746   3.876  35.377   3.369
83421W        W55747  11.836   2.105  11.973
83422W        W55748  16.079  31.398   0.797
83423W        W55749  43.438  30.073  12.919
83424W        W55750  43.291  25.298   1.327
83425W        W55751  36.952  28.693  13.487
83426W        W55752   2.205   3.448   4.600
83427W        W55753  11.154  20.689   2.244
83428W        W55754  21.417  25.379  10.262
83429W        W55755  40.593  35.392   1.657
83430W        W55756  40.260  27.522  11.547
83431W        W55757  33.644  39.430  10.716
83432W        W55758  27.012  35.960   0.353
83433W        W55759  22.738  38.818  12.008
83434W        W55760  30.371  36.758   3.964
83435W        W55761  39.609  26.852  12.804
83436W        W55762   8.173  20.625  12.022
83437W        W55763  14.247  29.017   4.842
83438W        W55764  21.670  23.586   3.602
83439W        W55765  21.191   9.889  11.109
83440W        W55766  23.992  25.171  12.011
83441W        W55767  20.471   9.582   3.787
83442W        W55768   7.822  37.036   3.623
83443W        W55769  11.429   7.868  12.118
83444W        W55770  29.454  11.758  12.508
83445W        W55771  37.836  25.363   3.182
83446W        W55772  14.335   4.141  13.011
83447W        W55773  20.626  16.588   4.487
83448W        W55774  23.035  44.276   4.150
83449W        W55775  40.920  40.840  13.149
83450W        W55776  13.748  22.522   4.585
83451W        W55777   8.362  30.210   3.122
83452W        W55778  28.097  21.316  11.699
83453W        W55779  36.840  23.934  12.966
83454W        W55780  13.377  38.864  13.998
83455W        W55781  39.358  35.441   0.232
83456W        W55782   0.428  38.112   0.028
83457W        W55783  32.164  11.667  11.525
83458W        W55784  24.611  44.920  13.117
83459W        W55785  41.314  25.904  13.920
83460W        W55786  14.557   7.015  12.054
83461W        W55787   5.769   4.234  13.795
83462W        W55788  40.367   6.137  10.679
83463W        W55789  29.979   5.712   0.495
83464W        W55790   0.872  13.662  12.169
83465W        W55791  34.527  20.848  11.012
83466W        W55792  24.413  27.095  13.803
83467W        W55793  18.084   2.217   0.295
83468W        W55794  42.997   5.043  11.110
83469W        W55795  23.557  33.523  14.088
83470W        W55796  12.131  21.237   0.797
83471W        W55797  41.901  15.073   3.630
83472W        W55798  16.285  12.248  12.585
83473W        W55799  32.066  12.685   5.016
83474W        W55800  34.877  43.689  10.984
83475W        W55801  14.275  36.199   5.073
83476W        W55802  15.583  21.683  11.394
83477W        W55803  38.589   6.402  10.801
83478W        W55804  42.752  29.492   1.243
83479W        W55805  30.198  28.119   2.880
83480W        W55806  17.024   1.215   3.207
83481W        W55807   1.077  11.965   5.498
83482W        W55808  26.566   5.150   2.339
83483W        W55809  40.982  38.332  14.390
83484W        W55810   6.924  16.122   2.790
83485W        W55811  18.890   6.207   0.816
83486W        W55812  14.195  13.120  12.036
83487W        W55813  24.233  44.916   3.074
83488W        W55814  37.458  30.608   2.643
83489W        W55815  28.769  32.560   3.610
83490W        W55816  40.570  40.615  12.859
83491W        W55817  27.477  24.110   1.455
83492W        W55818  13.446  13.240  13.832
83493W        W55819  12.420  31.021   3.690
83494W        W55820  12.550  38.923   2.647
83495W        W55821  24.739   6.278  13.419
83496W        W55822   1.181  24.193   1.389
83497W        W55823  17.572  42.545   0.291
83498W        W55824  34.866  24.104   1.151
83499W        W55825  19.225   0.994   0.220
83500W        W55826   7.311  23.679   4.931
83501W        W55827   3.525  38.769  10.481
83502W        W55828  40.420  18.542  13.865
83503W        W55829  40.389  37.956   4.461
83504W        W55830  14.215   5.753   4.403
83505W        W55831  26.577   7.624  12.632
83506W        W55832  15.925  10.123  10.895
83507W        W55833  14.347   4.646  13.015
83508W        W55834  12.325  29.836  14.861
83509W        W55835  41.720  34.951  13.402
83510W        W55836  39.527  35.465   4.252
83511W        W55837  31.813  17.304  11.662
83512W        W55838   1.431  38.864   2.138
83513W        W55839  35.979  34.394  11.444
83514W        W55840   1.902   8.388  13.201
83515W        W55841  43.473  17.074   3.390
83516W        W55842   0.882  20.033  14.488
83517W        W55843  17.215  29.424  14.710
83518W        W55844   6.602  20.471   3.764
83519W        W55845  22.987  21.573  13.821
83520W        W55846  25.793  42.984   4.427
83521W        W55847  39.836  24.217  14.831
83522W        W55848  13.851   9.954  14.614
83523W        W55849  16.328   1.858   1.761
83524W        W55850  41.997  14.199  10.111
83525W        W55851  40.629   7.744  11.640
83526W        W55852  40.570  25.644   4.721
83527W        W55853   3.199  18.321   4.844
83528W        W55854   9.517   3.989   2.413
83529W        W55855   9.523  29.443   3.200
83530W        W55856  40.798  20.571   3.420
83531W        W55857  32.565  17.633  13.308
83532W        W55858  22.463  33.012  13.956
83533W        W55859  36.504   8.862   2.912
83534W        W55860  32.500  44.860   3.818
83535W        W55861  32.533  29.179   1.658
83536W        W55862  32.033   2.668   1.364
83537W        W55863  17.675   6.143  11.053
83538W        W55864  21.683  22.212   4.132
83539W        W55865  16.360  44.895   4.510
83540W        W55866  35.961  24.463   5.016
83541W        W55867  40.920  29.568   1.066
83542W        W55868  39.410  28.519  12.373
83543W        W55869  33.697  17.903  10.313
83544W        W55870   0.403  14.405  12.459
83545W        W55871  21.809  42.435  11.441
83546W        W55872  26.097  21.721   4.265
83547W        W55873   6.321  42.578  10.688
83548W        W55874  15.758  30.925  10.713
83549W        W55875  35.963   9.549  12.597
83550W        W55876  37.926  15.664  12.994
83551W        W55877  23.640  30.021  13.897
83552W        W55878  15.710  11.268   4.414
83553W        W55879   8.232  24.786  13.053
83554W        W55880  24.681  15.040   2.700
83555W        W55881  28.093  17.626  11.065
83556W        W55882  10.241  33.410  12.476
83557W        W55883  34.229  25.243   4.072
83558W        W55884  28.407  13.701   0.470
83559W        W55885  43.326  15.958  14.823
83560W        W55886  26.670  28.664   5.481
83561W        W55887  21.866   9.902   4.531
83562W        W55888  27.183  17.672  14.223
83563W        W55889  34.010  10.642  14.971
83564W        W55890  43.526  38.867  11.112
83565W        W55891  23.744  34.719   2.268
83566W        W55892  38.541  34.344   0.926
83567W        W55893  14.146  32.959   1.798
83568W        W55894  29.147  15.763  11.690
83569W        W55895  20.664  35.815  12.575
83570W        W55896  39.656   9.770  12.993
83571W        W55897  15.594  38.759  10.707
83572W        W55898  40.645  22.706  11.830
83573W        W55899  24.669  14.962   5.040
83574W        W55900  43.742  20.622   2.622
83575W        W55901   6.192   9.391   2.642
83576W        W55902  11.415  20.311  13.914
83577W        W55903  10.096   1.654   0.385
83578W        W55904   1.235  38.988  12.091
83579W        W55905  26.411   3.995  13.421
83580W        W55906  20.061  21.299   4.576
83581W        W55907  36.272  18.696   4.562
83582W        W55908   2.731  24.017   2.319
83583W        W55909  36.940  15.602  10.634
83584W        W55910  31.347   2.878   1.949
83585W        W55911  19.737  29.481   1.235
83586W        W55912  40.536  34.443  14.122
83587W        W55913   2.538  18.858   1.313
83588W        W55914   3.302  18.451  10.994
83589W        W55915  27.411  43.523  11.230
83590W        W55916   5.207   8.918   2.087
83591W        W55917  34.364  32.662   0.922
83592W        W55918  30.413  13.334   2.017
83593W        W55919  27.233  33.002  10.417
83594W        W55920  12.157  22.229   4.718
83595W        W55921  28.302   1.899   4.209
83596W        W55922  10.667  27.891  12.987
83597W        W55923  40.946  42.977  13.026
83598W        W55924  39.440   3.435  11.127
83599W        W55925  34.101   0.991   1.721
83600W        W55926  10.783  35.331  12.939
83601W        W55927  21.153  27.696  14.851
83602W        W55928  16.647  28.192  13.019
83603W        W55929  28.726  44.646  14.130
83604W        W55930  25.105  38.181  12.615
83605W        W55931  16.139   1.662  14.035
83606W        W55932  31.573  27.996  13.782
83607W        W55933  32.845  30.825  14.542
83608W        W55934  13.601  15.110  12.954
83609W        W55935  22.202  28.599   3.022
83610W        W55936  40.601   8.945   4.501
83611W        W55937   9.116  43.092  13.891
83612W        W55938  19.601  23.026   0.064
83613W        W55939  13.211  32.559   0.061
83614W        W55940  42.286   3.645   3.327
83615W        W55941  23.272  29.053   4.566
83616W        W55942  18.255   7.513   0.569
83617W        W55943  44.946   0.371  10.635
83618W        W55944  14.226  42.846   2.607
83619W        W55945  30.224  24.081  14.393
83620W        W55946  30.458  40.018  14.725
83621W        W55947  38.855  19.476  11.198
83622W        W55948  28.401  18.420   0.681
83623W        W55949  25.815  31.916   0.524
83624W        W55950  26.357   8.536   3.458
83625W        W55951  29.594  35.076   1.023
83626W        W55952  36.414  24.765  10.979
83627W        W55953  23.243   9.393  14.322
83628W        W55954  33.719  24.269   1.146
83629W        W55955  15.680   2.925   0.480
83630W        W55956  35.125  13.652  12.936
83631W        W55957  36.640  16.285  10.500
83632W        W55958  16.750  28.337  11.762
83633W        W55959   0.065   5.870   2.751
83634W        W55960  34.895  26.977  14.270
83635W        W55961   4.987  28.024   1.634
83636W        W55962  17.861   9.340   0.872
83637W        W55963  37.395  20.969   0.260
83638W        W55964   0.404  31.587  12.483
83639W        W55965  43.286  18.064   0.891
83640W        W55966  41.241   0.869   3.994
83641W        W55967   3.943  24.552   1.005
83642W        W55968  36.999  29.042  10.647
83643W        W55969  28.500  31.665   0.569
83644W        W55970  34.553  24.473  10.563
83645W        W55971   7.674   9.723  13.565
83646W        W55972  18.118  39.809  13.970
83647W        W55973  25.129  30.377  14.833
83648W        W55974  24.266  38.790   3.347
83649W        W55975   7.781  18.497  14.823
83650W        W55976  35.989   8.398   4.511
83651W        W55977  34.865  24.469  11.108
83652W        W55978  35.940  42.411   1.361
83653W        W55979  40.029  16.335   0.191
83654W        W55980   6.597  40.769   2.648
83655W        W55981  17.226  13.172  10.439
83656W        W55982   9.709  37.536  12.172
83657W        W55983  28.450  30.808   1.231
83658W        W55984   3.730  28.622   0.414
83659W        W55985  11.455  32.462   1.665
83660W        W55986   5.955  40.352  14.899
83661W        W55987  17.650  22.570   1.222
83662W        W55988  34.024   5.870  14.878
83663W        W55989  14.239  16.359  13.458
83664W        W55990  38.874  22.038   1.484
83665W        W55991  37.844  18.186  14.400
83666W        W55992  10.094  42.829  14.063
83667W        W55993  28.857  12.932  13.863
83668W        W55994  43.744  38.828   4.135
83669W        W55995   0.439  35.357   1.825
83670W        W55996  10.885  38.971   0.285
83671W        W55997  39.860   6.866   1.718
83672W        W55998  43.914  11.738  12.555
83673W        W55999  35.027   2.917  14.715
83674W        W56000   7.716  30.005   1.408
83675W        W56001  42.710  34.989  13.321
83676W        W56002  39.446  14.730  11.712
83677W        W56003  14.681   6.936   3.764
83678W        W56004  19.765  23.626   4.563
83679W        W56005  18.824   7.364   4.355
83680W        W56006  33.163   8.908  11.946
83681W        W56007  17.768  20.417  10.559
83682W        W56008  40.355  26.438   2.364
83683W        W56009   8.776  42.578  10.610
83684W        W56010  29.378   9.370   3.817
83685W        W56011  38.366  31.102   2.380
83686W        W56012  27.106  31.578  12.675
83687W        W56013  15.655   8.898   1.205
83688W        W56014   5.736   9.635  12.608
83689W        W56015   6.360  21.671   2.565
83690W        W56016  10.832   9.083  11.205
83691W        W56017   1.487  43.800   4.718
83692W        W56018  35.319  27.450  13.142
83693W        W56019  24.479  12.077   0.738
83694W        W56020  33.306  10.105   4.112
83695W        W56021  40.291   8.942   9.784
83696W        W56022   2.775  12.926  12.460
83697W        W56023  19.312   4.475   4.176
83698W        W56024  38.181  22.950   4.507
83699W        W56025  28.653  24.458   0.833
83700W        W56026  44.542   8.152  14.576
83701W        W56027  38.272  22.665  10.722
83702W        W56028  30.158   0.511  14.343
83703W        W56029  17.474  12.935  13.134
83704W        W56030  43.226  22.746  14.372
83705W        W56031  37.140   7.957  14.471
83706W        W56032   5.687   3.099   0.903
83707W        W56033  10.335  31.958  13.585
83708W        W56034  36.925   2.786  12.719
83709W        W56035   6.670  19.526  11.897
83710W        W56036  16.795  29.250   0.544
83711W        W56037  10.108  20.216  12.745
83712W        W56038  19.856  25.961  13.587
83713W        W56039   4.755  43.549   4.131
83714W        W56040  41.093  12.675  11.166
83715W        W56041  26.441  22.619   3.068
83716W        W56042  13.341  17.447  11.268
83717W        W56043  24.057   1.933  13.348
83718W        W56044  44.940  37.833  14.249
83719W        W56045  11.673  13.636  12.036
83720W        W56046  17.225   3.113  11.254
83721W        W56047  11.124  11.348   1.819
83722W        W56048  17.645  16.410  14.882
83723W        W56049  39.563  22.233  12.441
83724W        W56050   7.231  44.773  13.563
83725W        W56051   3.806  20.958   4.220
83726W        W56052   1.256  30.176   1.009
83727W        W56053  39.104  30.217   4.262
83728W        W56054  16.505  21.828   3.209
83729W        W56055  44.257  35.132  14.837
83730W        W56056  41.847  37.557  14.802
83731W        W56057  21.990  40.961  14.076
83732W        W56058  31.691  21.818   1.330
83733W        W56059  34.839  18.869   3.480
83734W        W56060  23.941  30.208   1.252
83735W        W56061  24.076  26.180  14.082
83736W        W56062  35.962  35.107   0.541
83737W        W56063  15.972  16.090  13.482
83738W        W56064  11.012  41.131  12.646
83739W        W56065   6.375   6.242  11.219
83740W        W56066   7.686  39.449   0.411
83741W        W56067  16.344  19.159  14.276
83742W        W56068  18.609  30.455   0.777
83743W        W56069  35.548   9.740   3.766
83744W        W56070  24.068  19.862   9.868
83745W        W56071   5.728   2.859  11.143
83746W        W56072   0.949   4.288   2.822
83747W        W56073   4.836  39.349  14.418
83748W        W56074   6.417  11.462  11.077
83749W        W56075  26.214   8.218  10.479
83750W        W56076  40.388  14.010   0.445
83751W        W56077  25.156  40.159   4.196
83752W        W56078   3.410  21.895   3.346
83753W        W56079   1.683  38.300   2.816
83754W        W56080  10.116  42.805   2.776
83755W        W56081  31.995  19.817  13.630
83756W        W56082  41.475  18.871  12.104
83757W        W56083  27.707  10.349  11.351
83758W        W56084  28.407  30.083  10.487
83759W        W56085  20.327  42.016   2.889
83760W        W56086  32.307  40.637  11.939
83761W        W56087  37.652  10.746  12.959
83762W        W56088   7.793   4.475   5.450
83763W        W56089  41.438  34.436   1.695
83764W        W56090  42.979  13.725  10.550
83765W        W56091  17.651  25.188   2.355
83766W        W56092   0.769  36.460   3.496
83767W        W56093   3.241  30.219   2.230
83768W        W56094  21.280   5.881   9.987
83769W        W56095  23.965  12.304   2.756
83770W        W56096  43.808  26.952  13.014
83771W        W56097  38.776  32.997   2.134
83772W        W56098  22.210  12.771  11.679
83773W        W56099  15.050  25.499  12.820
83774W        W56100  25.026  21.603   4.514
83775W        W56101  26.510   8.231   2.257
83776W        W56102   1.758  36.680   4.782
83777W        W56103  38.635  31.549   2.303
83778W        W56104   3.949   8.400  13.472
83779W        W56105  43.283   5.838   3.142
83780W        W56106  43.292  24.748   4.025
83781W        W56107  22.145  23.419   3.789
83782W        W56108   5.997   0.710  12.630
83783W        W56109   8.982  23.789   4.420
83784W        W56110   7.871  39.460   1.452
83785W        W56111  38.776  33.576   2.881
83786W        W56112  13.351  40.597   3.687
83787W        W56113  25.499  33.625   4.078
83788W        W56114  19.755  23.026   3.308
83789W        W56115  11.262  20.312   1.847
83790W        W56116  40.795  38.277  10.876
83791W        W56117  10.189  40.733   4.524
83792W        W56118   4.996  34.485   0.973
83793W        W56119  35.973  30.618  12.100
83794W        W56120  38.762  18.737  10.538
83795W        W56121  28.074  22.599  13.961
83796W        W56122   1.336  25.409  10.560
83797W        W56123   1.077  21.818  11.155
83798W        W56124  11.685  10.048  14.970
83799W        W56125  19.479  10.694   0.279
83800W        W56126  19.572  27.417  14.782
83801W        W56127   9.093  22.991   2.309
83802W        W56128   3.777  22.514   3.206
83803W        W56129   2.699  10.588  12.165
83804W        W56130  15.293   4.704  12.986
83805W        W56131  26.113   4.736  14.992
83806W        W56132  28.491  42.343   0.980
83807W        W56133  26.411   2.244  14.107
83808W        W56134  39.522   5.665   2.956
83809W        W56135  20.285  20.541  11.041
83810W        W56136   0.259  31.111  13.346
83811W        W56137  29.144  21.275   4.816
83812W        W56138  28.971  35.520  13.566
83813W        W56139   0.147  35.944  11.922
83814W        W56140   2.274  34.868  13.061
83815W        W56141  13.254  12.146   4.847
83816W        W56142  30.057  23.252  10.767
83817W        W56143  29.167  25.631   0.464
83818W        W56144   0.889   3.782   0.636
83819W        W56145  22.685  33.583   0.180
83820W        W56146  29.831  43.845   2.690
83821W        W56147  17.110   3.724  13.835
83822W        W56148  27.570  17.680  14.579
83823W        W56149  24.475  34.832  14.458
83824W        W56150  23.154  14.838  12.414
83825W        W56151  13.107  37.844  14.341
83826W        W56152  39.855  10.308   2.810
83827W        W56153  44.237  12.709   0.983
83828W        W56154   1.726   9.856  11.998
83829W        W56155  30.602  28.673  12.884
83830W        W56156   3.251  30.396  13.084
83831W        W56157   3.843  10.611  13.828
83832W        W56158  29.684  22.501  10.756
83833W        W56159   2.947   3.319  10.939
83834W        W56160   0.477  23.934  13.844
83835W        W56161  24.502  16.620   1.817
83836W        W56162  21.290  22.598   0.499
83837W        W56163  32.921  26.014  14.449
83838W        W56164   9.229   2.559  11.110
83839W        W56165  23.064  40.786   9.455
83840W        W56166  11.742   5.767  11.687
83841W        W56167  15.867   0.891   2.649
83842W        W56168  20.250   1.902  11.568
83843W        W56169  34.541  14.144  11.504
83844W        W56170  12.910  30.246   2.151
83845W        W56171   6.581  18.991  14.288
83846W        W56172  18.437  15.930  12.123
83847W        W56173   4.362   7.860   4.771
83848W        W56174  23.650   2.848   1.692
83849W        W56175  21.795  14.778   0.755
83850W        W56176  10.495  33.601  11.915
83851W        W56177  12.169  10.122  11.640
83852W        W56178  42.238  42.731  12.477
83853W        W56179  12.240   3.817  11.194
83854W        W56180  15.053  40.237  10.603
83855W        W56181  36.798   6.708   0.898
83856W        W56182  38.414  41.328  14.000
83857W        W56183   7.402  23.043  14.903
83858W        W56184  18.045  19.220   3.696
83859W        W56185  36.888  37.000   1.772
83860W        W56186  10.160   3.266  10.704
83861W        W56187  32.149  41.263   1.735
83862W        W56188   0.386  23.663  14.293
83863W        W56189   5.455  22.194  13.501
83864W        W56190  18.569  15.581  10.755
83865W        W56191  17.163  33.585   3.217
83866W        W56192  14.592   6.751  11.590
83867W        W56193  38.241  12.110   4.542
83868W        W56194   9.891  17.711  11.054
83869W        W56195  20.035  27.990   0.382
83870W        W56196   3.263   4.139  14.887
83871W        W56197   6.781  28.822  14.325
83872W        W56198  19.121  13.460  11.128
83873W        W56199  39.019  36.988   2.690
83874W        W56200  11.379  10.636   4.668
83875W        W56201  21.208  43.218  11.496
83876W        W56202  43.446   7.277   0.996
83877W        W56203  20.891  32.171   2.445
83878W        W56204  15.812  42.314   1.930
83879W        W56205  32.475   3.095   4.566
83880W        W56206   9.592  26.696   1.772
83881W        W56207   7.108  39.013   0.874
83882W        W56208  20.699  23.984  12.922
83883W        W56209  12.463  36.349   2.159
83884W        W56210  16.868  13.138  12.572
83885W        W56211  15.506  29.050  11.943
83886W        W56212  15.158  24.697   4.551
83887W        W56213  21.744   0.769  13.396
83888W        W56214  14.067   7.720  13.006
83889W        W56215  29.698   1.594   3.431
83890W        W56216  44.493  38.922   4.609
83891W        W56217  42.306  11.721  11.634
83892W        W56218  41.058  33.366   4.727
83893W        W56219  15.253  35.249   0.764
83894W        W56220   3.519  15.379  10.713
83895W        W56221  20.076  33.870  10.610
83896W        W56222   4.350  15.554  14.578
83897W        W56223  31.405  37.898  11.440
83898W        W56224  27.437  44.268   3.378
83899W        W56225  13.155   2.774   2.390
83900W        W56226  17.837  44.343   3.205
83901W        W56227  12.923  31.031  13.233
83902W        W56228  14.082   3.905  12.531
83903W        W56229  41.291  11.864  11.672
83904W        W56230  27.393  11.892  12.681
83905W        W56231  33.977  23.963   1.466
83906W        W56232  38.523   8.133   4.984
83907W        W56233  36.193  28.209  11.455
83908W        W56234  38.463  17.600   1.539
83909W        W56235  32.553  41.603   4.082
83910W        W56236  39.481   5.002  13.430
83911W        W56237  24.647  44.170  12.118
83912W        W56238  16.207  12.775   5.150
83913W        W56239  41.566   5.507   0.678
83914W        W56240  21.757  31.646   2.179
83915W        W56241  42.475   8.138   0.613
83916W        W56242   0.390  24.206  12.875
83917W        W56243  28.455  43.637   2.321
83918W        W56244  16.694  36.009   1.881
83919W        W56245  42.541  14.877   3.237
83920W        W56246  12.294  28.664   3.286
83921W        W56247  29.147  44.546   0.028
83922W        W56248  38.519   1.908  12.409
83923W        W56249  19.101  16.177   1.798
83924W        W56250  26.648  29.063   1.214
83925W        W56251  23.218  27.061   0.360
83926W        W56252   1.655  31.456   1.444
83927W        W56253   1.823  21.280  11.553
83928W        W56254  18.548  11.201  12.297
83929W        W56255   6.659   4.479   0.391
83930W        W56256   0.826   7.765   4.546
83931W        W56257  43.179  19.742   3.273
83932W        W56258  17.676   2.021  11.561
83933W        W56259  44.175   6.004  14.435
83934W        W56260  20.509  16.077   2.166
83935W        W56261  36.283   1.719   2.193
83936W        W56262  40.004  30.035  10.925
83937W        W56263  39.257  17.757  12.605
83938W        W56264  35.850   5.281  14.194
83939W        W56265  24.239  10.342   0.342
83940W        W56266  15.207  40.543  13.805
83941W        W56267  21.672  22.587  14.638
83942W        W56268  17.154  25.975  14.384
83943W        W56269  33.536  39.987   2.956
83944W        W56270  37.064  37.759  10.662
83945W        W56271  19.077   6.169  13.968
83946W        W56272  16.804  35.836  13.541
83947W        W56273  25.889  18.820   0.413
83948W        W56274  35.034  23.143  10.660
83949W        W56275  30.040  21.567  10.581
83950W        W56276   1.373   1.255  14.362
83951W        W56277  42.330  26.491  10.472
83952W        W56278   2.251   5.453   5.879
83953W        W56279  40.235  14.677   1.389
83954W        W56280  16.081  18.648  13.953
83955W        W56281  13.706   3.940  11.542
83956W        W56282  44.708  15.088   4.402
83957W        W56283   6.437   6.400   1.995
83958W        W56284  16.134  12.714   3.689
83959W        W56285  25.049   0.179  13.023
83960W        W56286  32.139  15.248  13.354
83961W        W56287  20.672   2.329   0.579
83962W        W56288  14.476   7.673   3.218
83963W        W56289   8.621  24.301   0.855
83964W        W56290  11.233  41.570   0.383
83965W        W56291  31.082  17.821   2.360
83966W        W56292  23.989   8.425  10.529
83967W        W56293  36.883  30.756  12.580
83968W        W56294  25.637  10.342  11.326
83969W        W56295  42.664  20.139   2.668
83970W        W56296  29.865   4.677   2.310
83971W        W56297  13.241  16.173  10.395
83972W        W56298  15.677  34.052   4.530
83973W        W56299  12.001  14.904   1.219
83974W        W56300   0.366  21.613  14.405
83975W        W56301  30.281  31.485   0.698
83976W        W56302  22.454   9.230  12.109
83977W        W56303  44.376  10.798  10.622
83978W        W56304  42.847  24.169   4.581
83979W        W56305  37.093  34.991  12.025
83980W        W56306  32.968   2.638  11.432
83981W        W56307  38.517  42.114  12.505
83982W        W56308  29.240  16.929   3.767
83983W        W56309  13.417  34.511   2.804
83984W        W56310  19.604  24.947   1.780
83985W        W56311  11.167  12.822   3.763
83986W        W56312   3.695   1.008   3.692
83987W        W56313  22.092  13.517   1.201
83988W        W56314  41.028   6.324   0.367
83989W        W56315  16.747  15.402   1.430
83990W        W56316  37.034  27.575   0.186
83991W        W56317  34.010  15.091  11.454
83992W        W56318   7.430  16.572  11.539
83993W        W56319  14.637   9.443  10.682
83994W        W56320  33.688  23.599  13.587
83995W        W56321  38.386   7.004  11.964
83996W        W56322  13.721  27.464   1.859
83997W        W56323  26.417  34.695   2.400
83998W        W56324  40.559  14.758   3.209
83999W        W56325   7.602  35.023  14.103
84000W        W56326   0.936  41.248  14.150
84001W        W56327   9.195  33.932  14.893
84002W        W56328  13.707   4.573  10.981
84003W        W56329  26.445  35.012   1.458
84004W        W56330  32.361  20.753   2.738
84005W        W56331  40.374  11.914  14.391
84006W        W56332   2.238   3.463   2.658
84007W        W56333  17.293  23.021  11.569
84008W        W56334  10.811  30.669  10.865
84009W        W56335  25.490  13.422   1.297
84010W        W56336  23.705  16.474  12.951
84011W        W56337  44.305  21.690   1.929
84012W        W56338  21.158  12.313   2.832
84013W        W56339  36.720  29.034  13.809
84014W        W56340   5.196  15.364   2.760
84015W        W56341  11.121  43.277   2.055
84016W        W56342   2.936  27.481   3.621
84017W        W56343  13.084  38.436   0.664
84018W        W56344  28.532  24.252  11.179
84019W        W56345  43.229  28.746   0.200
84020W        W56346  18.794  32.013   4.601
84021W        W56347  12.057  33.717  14.752
84022W        W56348  31.625  33.445   3.102
84023W        W56349  25.639   3.836  13.944
84024W        W56350   0.237   8.535   4.181
84025W        W56351   6.200  25.344   2.488
84026W        W56352   7.616  16.991   0.786
84027W        W56353  32.099   1.599  13.400
84028W        W56354  17.157  39.849   1.214
84029W        W56355  20.928  14.371  11.111
84030W        W56356  11.275   3.172   3.682
84031W        W56357  14.597  16.074   2.811
84032W        W56358  13.813  42.810   3.431
84033W        W56359  39.363  12.874  11.438
84034W        W56360  27.947  31.626  14.355
84035W        W56361  34.167   8.116  11.220
84036W        W56362   0.489   0.230   1.718
84037W        W56363   8.705  15.724  10.899
84038W        W56364  41.310   7.388   0.413
84039W        W56365  24.218  44.405   2.951
84040W        W56366   4.353  21.911   0.164
84041W        W56367  24.914   5.086  11.541
84042W        W56368  22.075  40.166  14.447
84043W        W56369   1.870  24.143   5.133
84044W        W56370  37.289  29.987  11.623
84045W        W56371  28.607  40.190  14.713
84046W        W56372   3.724  26.001   3.796
84047W        W56373  20.739   7.165  12.557
84048W        W56374  20.252  20.396  13.668
84049W        W56375  42.570  33.015   2.718
84050W        W56376   5.229  44.815  10.387
84051W        W56377  24.499  14.857   2.256
84052W        W56378  19.705  40.261  12.061
84053W        W56379  31.121   2.523  13.994
84054W        W56380  18.550  25.463  10.545
84055W        W56381  18.429  39.060  10.873
84056W        W56382  17.533  39.075   2.736
84057W        W56383   6.177  11.191  14.008
84058W        W56384   4.250  10.875  14.121
84059W        W56385  34.146  37.078   0.497
84060W        W56386  36.885  26.279  12.544
84061W        W56387   7.861  17.324   0.469
84062W        W56388   7.179   0.319   1.882
84063W        W56389  24.665  38.678   1.758
84064W        W56390  24.690   2.751  14.287
84065W        W56391  39.566  25.173  13.697
84066W        W56392  32.021  44.518   4.373
84067W        W56393   0.773  26.002   0.989
84068W        W56394   6.983  12.807  10.598
84069W        W56395   6.752  35.496   2.093
84070W        W56396  39.027  15.607   1.157
84071W        W56397   3.461  31.103   4.485
84072W        W56398  34.425   8.699   1.890
84073W        W56399   2.466  16.715  12.412
84074W        W56400   8.367   2.007   3.170
84075W        W56401  18.502  35.907  10.346
84076W        W56402   0.001  32.042   5.233
84077W        W56403  17.596  12.753   1.408
84078W        W56404  33.371  42.251   2.795
84079W        W56405   3.325  43.377  12.997
84080W        W56406  38.543  40.935   0.852
84081W        W56407  42.806   4.297   4.087
84082W        W56408  42.853  28.018  10.288
84083W        W56409  40.500  14.016   2.064
84084W        W56410  11.655  13.123  12.143
84085W        W56411  22.465  35.327  11.977
84086W        W56412   1.971  10.064  14.833
84087W        W56413  35.098  14.857  11.541
84088W        W56414  30.531  39.859  12.042
84089W        W56415   6.530   5.554   2.868
84090W        W56416  17.650  18.585   0.172
84091W        W56417   9.795  39.477  13.008
84092W        W56418  28.844  35.570   1.244
84093W        W56419  14.088  14.020  14.150
84094W        W56420  41.786  17.797   2.237
84095W        W56421   2.810  33.507   4.617
84096W        W56422  19.040  34.073  14.842
84097W        W56423   1.515  37.692  11.221
84098W        W56424  28.573   6.336   0.695
84099W        W56425  29.760  44.581   1.800
84100W        W56426  20.201  15.339   2.787
84101W        W56427  40.058  29.604  12.625
84102W        W56428  18.622  44.292  14.343
84103W        W56429   1.784  30.110  11.919
84104W        W56430  26.200  21.971  13.472
84105W        W56431  27.618  13.162   2.351
84106W        W56432  17.385   7.900   3.783
84107W        W56433  17.532   5.683  10.728
84108W        W56434  28.375  41.851  12.516
84109W        W56435  38.075   6.714  11.645
84110W        W56436  19.853  31.505   1.907
84111W        W56437  11.242  26.830   5.000
84112W        W56438   9.422  33.518   0.804
84113W        W56439  41.347  10.271  13.944
84114W        W56440  15.567  40.248  10.657
84115W        W56441  14.688  29.932  14.309
84116W        W56442   2.967   9.705   1.329
84117W        W56443  31.075  20.101  11.212
84118W        W56444  20.021   9.038  12.440
84119W        W56445  23.168   4.164  12.424
84120W        W56446  20.590  20.070   3.695
84121W        W56447  29.287  30.983   0.013
84122W        W56448  35.699  24.520  14.385
84123W        W56449  10.913  13.116  13.591
84124W        W56450  30.194  25.494   1.468
84125W        W56451  31.656  28.062  11.160
84126W        W56452  17.599   3.206   4.508
84127W        W56453  42.920  30.665   3.724
84128W        W56454  29.705  42.856  14.340
84129W        W56455  28.707  38.370  12.036
84130W        W56456  40.123  27.863   0.847
84131W        W56457   7.287  37.387   4.126
84132W        W56458  42.738  15.069  11.942
84133W        W56459   8.733  14.061  10.100
84134W        W56460  29.616  13.526  11.211
84135W        W56461  35.717  33.991   1.825
84136W        W56462  25.069  29.968  12.212
84137W        W56463  27.764   9.775   2.333
84138W        W56464  39.820  16.542  11.092
84139W        W56465  10.334  28.384  14.785
84140W        W56466  37.558  38.584   0.155
84141W        W56467   1.282  17.343   2.267
84142W        W56468  40.295  34.923  14.835
84143W        W56469  31.636  29.554  13.849
84144W        W56470  14.104   4.052  13.939
84145W        W56471  22.396  35.790   2.784
84146W        W56472   5.483   8.181  13.534
84147W        W56473  36.341  12.368   4.249
84148W        W56474  25.345  24.825  11.149
84149W        W56475   5.223  18.389   0.017
84150W        W56476   2.026   6.270  12.011
84151W        W56477  10.915   1.400  13.358
84152W        W56478  30.963  10.697   1.408
84153W        W56479  36.545  17.388   5.142
84154W        W56480   3.241  14.943  10.791
84155W        W56481   3.429  14.897  12.591
84156W        W56482  10.669   7.837  10.713
84157W        W56483  42.368  43.569  12.877
84158W        W56484  40.387  39.798  11.701
84159W        W56485   6.163  26.612   3.414
84160W        W56486  24.351  13.375  12.879
84161W        W56487  39.304  34.465  14.310
84162W        W56488  20.610   4.273   2.141
84163W        W56489  39.569  27.465   2.402
84164W        W56490  33.139   2.141  11.421
84165W        W56491  13.899  44.967   4.616
84166W        W56492  29.758   7.563  12.597
84167W        W56493  44.964  40.286   0.758
84168W        W56494  36.519  30.150  11.180
84169W        W56495  31.182  32.021   2.741
84170W        W56496  19.330  21.423  14.507
84171W        W56497  24.148  22.484  11.280
84172W        W56498   9.857  20.622  11.599
84173W        W56499   4.715  37.006   1.478
84174W        W56500  18.107  28.728   1.629
84175W        W56501  25.730  33.562  11.446
84176W        W56502  12.620  19.024  13.554
84177W        W56503  29.984   7.383   4.632
84178W        W56504  37.100   4.986   1.876
84179W        W56505   9.189  37.248   2.981
84180W        W56506  13.781   5.024  13.971
84181W        W56507   7.817  16.197  14.547
84182W        W56508  22.404   4.906   4.497
84183W        W56509  36.337   8.201   0.844
84184W        W56510  16.271  22.259   0.010
84185W        W56511  20.851  29.370   0.425
84186W        W56512   9.249  14.783  13.914
84187W        W56513  27.020   8.314  14.275
84188W        W56514  35.976  36.264  13.469
84189W        W56515  12.730   7.577  13.500
84190W        W56516  22.650  17.739   1.037
84191W        W56517  21.229  22.163  11.301
84192W        W56518  28.580  14.394   1.713
84193W        W56519  30.620  25.125   3.331
84194W        W56520  39.607  24.835  11.957
84195W        W56521  44.091  34.989   2.737
84196W        W56522  43.963  32.537   3.233
84197W        W56523   5.717  24.901  14.994
84198W        W56524  33.071  27.443  13.132
84199W        W56525   3.490  35.495  12.787
84200W        W56526  20.425  37.778  14.920
84201W        W56527  17.340   1.903   1.827
84202W        W56528  29.034  38.640  12.851
84203W        W56529  11.451  28.790  12.275
84204W        W56530  33.209   9.784  14.058
84205W        W56531   6.554   3.933  12.381
84206W        W56532  34.672  43.256   2.413
84207W        W56533  16.218  43.484  12.107
84208W        W56534  20.197  20.102  11.753
84209W        W56535  16.184   7.077   4.541
84210W        W56536  37.419  10.913   4.710
84211W        W56537  29.307  19.834  14.361
84212W        W56538  11.253   9.104  11.507
84213W        W56539  42.778  25.579   2.690
84214W        W56540  17.216   1.284  14.784
84215W        W56541  19.103  13.676   0.213
84216W        W56542   2.577   5.657   0.551
84217W        W56543  23.705  41.039   3.515
84218W        W56544  42.863   2.874   1.262
84219W        W56545  39.121  12.898  11.876
84220W        W56546  17.597  43.806  11.470
84221W        W56547  41.962  36.906   4.087
84222W        W56548  10.613  26.550  11.083
84223W        W56549  13.635   5.805  11.891
84224W        W56550  33.108   7.705   0.387
84225W        W56551  37.223   1.125   1.898
84226W        W56552  41.394  16.860   0.977
84227W        W56553  38.486   1.015  13.654
84228W        W56554  13.082   8.628   1.930
84229W        W56555  24.855  38.887   5.546
84230W        W56556   0.366  28.096  11.504
84231W        W56557  37.817  19.671  12.507
84232W        W56558   1.059  23.563  12.132
84233W        W56559  30.021   4.323  11.667
84234W        W56560   2.989  38.028   4.015
84235W        W56561  12.282  36.491   9.771
84236W        W56562  26.441   4.866  11.453
84237W        W56563   1.869  28.305  12.556
84238W        W56564  30.042  18.769   0.806
84239W        W56565  28.270  40.905  11.016
84240W        W56566  20.206  38.644  11.209
84241W        W56567  26.755  38.004   3.943
84242W        W56568  43.053  36.234   5.076
84243W        W56569   1.753  36.043  14.425
84244W        W56570  29.920  19.482  11.484
84245W        W56571  27.896  44.331  14.504
84246W        W56572   2.049   8.087   2.657
84247W        W56573  11.465  10.734   0.290
84248W        W56574   1.721   6.705   4.460
84249W        W56575  32.037  19.005  12.896
84250W        W56576  13.964  42.865   4.477
84251W        W56577  39.070  44.466  13.879
84252W        W56578  28.264   1.835  14.702
84253W        W56579  18.453   6.510  11.555
84254W        W56580  29.454  11.802  10.146
84255W        W56581  27.479  18.166   4.746
84256W        W56582  43.847  13.728   4.181
84257W        W56583  29.658  38.979   0.931
84258W        W56584   7.275   1.992  14.818
84259W        W56585   4.833   4.262  13.967
84260W        W56586  14.760  11.347   3.123
84261W        W56587  39.745  44.972   3.425
84262W        W56588  31.879  13.426   1.149
84263W        W56589  16.633  37.959   3.203
84264W        W56590  43.258  19.725   2.345
84265W        W56591  15.215  42.028   1.152
84266W        W56592  28.481   5.737   4.291
84267W        W56593  35.405  32.011   0.352
84268W        W56594  38.306  22.808   2.748
84269W        W56595  20.450   9.711   4.323
84270W        W56596  43.058   2.983  13.504
84271W        W56597  27.633   3.367   1.983
84272W        W56598  18.582  33.477  11.179
84273W        W56599  32.128  30.373  14.033
84274W        W56600   5.817  13.084   1.053
84275W        W56601  16.690  23.698   3.591
84276W        W56602  41.204  33.490   2.428
84277W        W56603  31.496  21.328   1.327
84278W        W56604  31.067  17.003   1.934
84279W        W56605  13.616  43.454  12.944
84280W        W56606   3.651  18.159   4.635
84281W        W56607  10.370  16.410   2.825
84282W        W56608  16.599  33.630  14.289
84283W        W56609   2.886  34.645   2.389
84284W        W56610  31.466  26.529  11.941
84285W        W56611   5.724  24.154   3.215
84286W        W56612  24.051   8.127  12.981
84287W        W56613  41.235  16.532  13.209
84288W        W56614   5.721   8.154   4.656
84289W        W56615  20.161  32.835   4.644
84290W        W56616  41.846   2.069  10.182
84291W        W56617   2.968  14.951   3.427
84292W        W56618   1.870   2.345   4.128
84293W        W56619  19.006  30.861   1.648
84294W        W56620  38.302  30.520   1.305
84295W        W56621  39.353   4.951   2.070
84296W        W56622   5.924  31.248  14.963
84297W        W56623  19.781  34.959  13.425
84298W        W56624  37.471   4.267   2.384
84299W        W56625  11.275  11.811  10.630
84300W        W56626   0.569  25.304   4.278
84301W        W56627  18.258  39.604  13.518
84302W        W56628  36.045  40.065   3.953
84303W        W56629  23.288  22.518  13.076
84304W        W56630   1.798  39.726  13.008
84305W        W56631  19.147  39.277  13.056
84306W        W56632  23.198  35.992   0.648
84307W        W56633   3.395  34.981   2.817
84308W        W56634   7.191  40.786  13.570
84309W        W56635  11.724   0.487  12.884
84310W        W56636  22.166   0.184   4.213
84311W        W56637  37.515  35.002  12.943
84312W        W56638  21.262  32.486   2.283
84313W        W56639  43.476  20.270   0.932
84314W        W56640  12.372  23.337  12.516
84315W        W56641   9.961  22.726   0.026
84316W        W56642   8.148  44.292  11.666
84317W        W56643  10.451  39.625  12.201
84318W        W56644  42.008  18.306  14.790
84319W        W56645  24.614  26.170   1.702
84320W        W56646  25.450  42.751   0.961
84321W        W56647  41.472  35.393  13.309
84322W        W56648  37.429  25.626  13.877
84323W        W56649  12.771   1.028  12.324
84324W        W56650  22.574  32.591  11.352
84325W        W56651  31.040  10.242   4.406
84326W        W56652   4.708   6.695   1.698
84327W        W56653   1.018  33.488  13.598
84328W        W56654  37.952  21.948  12.034
84329W        W56655   4.931  27.896  14.840
84330W        W56656  25.620   4.500  13.205
84331W        W56657   4.556  28.758  11.764
84332W        W56658  19.308  35.383   2.242
84333W        W56659  34.936  29.155  13.681
84334W        W56660  19.944  42.035   1.950
84335W        W56661  31.965  12.145   2.254
84336W        W56662   6.739  39.534  14.465
84337W        W56663  31.400   3.750  10.738
84338W        W56664  24.112  44.433   0.909
84339W        W56665   6.360  31.210   3.234
84340W        W56666   8.235  43.492   1.253
84341W        W56667  31.728   1.756  12.464
84342W        W56668   5.316  24.561   0.439
84343W        W56669  42.289  13.372  11.070
84344W        W56670  42.864   1.196   1.041
84345W        W56671  41.373  11.586   1.294
84346W        W56672  30.095  18.092   3.199
84347W        W56673  11.123  42.756   1.885
84348W        W56674  34.178   3.537   3.741
84349W        W56675  13.070  24.701  10.483
84350W        W56676   0.828  19.359  12.574
84351W        W56677   8.992  27.378   3.930
84352W        W56678  14.848  24.239  10.555
84353W        W56679  23.580  41.853   4.606
84354W        W56680   0.957  10.406  14.774
84355W        W56681  13.650  34.513   3.695
84356W        W56682  34.649  42.502   0.709
84357W        W56683  24.687  11.813   3.969
84358W        W56684  20.958  29.318   4.317
84359W        W56685  31.476  33.085   1.313
84360W        W56686  17.545   1.023  11.588
84361W        W56687  18.190  42.014  13.962
84362W        W56688  14.733  35.085  13.881
84363W        W56689  25.892  28.522  14.451
84364W        W56690  21.614  36.472  13.275
84365W        W56691   6.241  30.521  10.994
84366W        W56692  22.129  22.941   3.550
84367W        W56693   6.826   7.925   3.102
84368W        W56694  41.925  13.190   3.257
84369W        W56695  39.946   6.393  10.524
84370W        W56696  33.558  36.078  11.131
84371W        W56697  32.670   1.352   1.908
84372W        W56698  21.864   0.680  10.673
84373W        W56699  39.872  41.429  13.799
84374W        W56700  37.588   5.702   0.301
84375W        W56701  29.567   4.799   3.222
84376W        W56702  31.869  22.788  11.147
84377W        W56703  36.123   9.178   3.148
84378W        W56704  16.114  29.279  11.097
84379W        W56705  30.633   3.520  11.463
84380W        W56706  22.265   3.571  13.904
84381W        W56707   1.876  10.899   4.211
84382W        W56708  20.694  38.421   2.247
84383W        W56709  24.661  17.066  13.113
84384W        W56710  41.417  17.502   2.782
84385W        W56711  27.665  41.024  13.846
84386W        W56712  29.478  33.096  14.919
84387W        W56713  21.585  17.787   1.770
84388W        W56714  25.746  23.160   3.943
84389W        W56715  25.162  30.829   4.546
84390W        W56716   7.834  40.282  12.521
84391W        W56717  32.698  30.876  14.045
84392W        W56718  38.551  35.114  11.525
84393W        W56719  38.135  13.202   2.675
84394W        W56720  41.825   7.199   0.288
84395W        W56721  44.144  12.216   2.184
84396W        W56722  34.063  11.736  13.152
84397W        W56723  19.130  22.122   0.294
84398W        W56724   1.376   4.867  12.873
84399W        W56725  31.103  35.904  12.568
84400W        W56726  18.982  40.746   5.112
84401W        W56727  21.243  31.873   0.426
84402W        W56728  43.079  14.168  14.919
84403W        W56729  36.575  22.390   5.229
84404W        W56730  26.038  37.534  10.711
84405W        W56731   2.979  16.762  12.521
84406W        W56732   0.390  39.637   2.442
84407W        W56733  43.393  34.630  13.435
84408W        W56734  26.224  14.804   1.690
84409W        W56735  35.002  29.886   2.774
84410W        W56736  25.582  14.291  11.424
84411W        W56737  29.456  44.819   3.854
84412W        W56738  25.661  37.261   1.788
84413W        W56739  18.666  37.460  14.806
84414W        W56740  18.555  36.898  13.586
84415W        W56741   8.437  18.357  10.703
84416W        W56742  23.712  41.746   2.264
84417W        W56743  26.967  32.189   1.324
84418W        W56744   4.334   7.495  12.876
84419W        W56745  36.886  35.317  10.306
84420W        W56746  33.464  10.099   3.326
84421W        W56747  27.660   5.815   4.755
84422W        W56748  19.004  40.579   2.374
84423W        W56749  11.370  17.784   0.390
84424W        W56750   3.711  14.694   2.888
84425W        W56751  13.799  31.779  10.446
84426W        W56752   9.979   4.276   0.662
84427W        W56753  34.651  35.350   4.376
84428W        W56754  22.727  42.906  12.423
84429W        W56755  35.873  27.025   3.199
84430W        W56756  14.633   7.715   1.394
84431W        W56757  10.076  26.388  14.985
84432W        W56758  37.556  27.611   3.120
84433W        W56759  11.617   3.242  12.867
84434W        W56760   0.952  34.697  14.488
84435W        W56761  44.365  12.080  13.275
84436W        W56762  17.616  19.396  10.716
84437W        W56763   7.271  26.964  11.053
84438W        W56764  43.913  33.948  13.147
84439W        W56765  41.083  41.549   2.288
84440W        W56766  21.177   8.653   3.384
84441W        W56767  33.002  19.789   2.206
84442W        W56768  20.401  12.869   0.275
84443W        W56769   0.432  22.178   0.162
84444W        W56770  36.635  19.782  11.398
84445W        W56771  33.541  14.623  14.752
84446W        W56772  20.288  29.996   0.327
84447W        W56773  32.397   9.874  14.392
84448W        W56774   3.453  19.430  10.636
84449W        W56775  31.460  29.977  13.552
84450W        W56776   1.787  37.011   4.355
84451W        W56777  12.360  22.661   1.026
84452W        W56778  20.965   1.775  14.753
84453W        W56779  21.063  24.936  14.035
84454W        W56780   8.230  21.481   2.126
84455W        W56781  31.076   8.819   4.738
84456W        W56782  42.385  37.598  14.516
84457W        W56783   1.034  20.688  11.606
84458W        W56784  18.460  30.023   4.321
84459W        W56785  44.288   4.622   1.788
84460W        W56786  36.950  29.713  14.871
84461W        W56787  29.901  24.563  10.456
84462W        W56788  12.907   6.159   0.791
84463W        W56789   6.740   6.967   1.219
84464W        W56790  14.650  18.156  11.919
84465W        W56791  11.191  21.919   1.680
84466W        W56792  13.458   1.263   2.803
84467W        W56793   4.668  21.321  12.269
84468W        W56794  28.574  33.961   4.603
84469W        W56795  10.105   5.174  10.948
84470W        W56796  36.115  33.465   3.881
84471W        W56797  20.571  21.042   3.643
84472W        W56798  44.467  25.544   0.764
84473W        W56799  33.501  18.562  12.919
84474W        W56800  18.250  38.684   2.542
84475W        W56801   0.561  10.252  10.622
84476W        W56802  34.689  13.223   1.261
84477W        W56803  25.042  12.839   1.951
84478W        W56804  27.702   8.771  11.948
84479W        W56805   8.740   0.341   3.735
84480W        W56806  22.769   7.717  13.351
84481W        W56807  20.251   2.489  10.712
84482W        W56808  36.006  16.612  13.107
84483W        W56809   7.779  41.699   0.019
84484W        W56810  14.417   3.517   0.259
84485W        W56811  34.149   0.645  13.984
84486W        W56812   1.519   5.440   1.131
84487W        W56813  39.886  39.801  11.557
84488W        W56814  12.904   9.383   2.927
84489W        W56815  21.853  42.244   4.778
84490W        W56816  29.440  39.829   1.738
84491W        W56817  36.453  20.091  12.530
84492W        W56818  19.279  37.925   2.379
84493W        W56819  20.093  44.866  12.048
84494W        W56820  35.292  21.284  13.100
84495W        W56821  28.090  28.215  11.576
84496W        W56822  35.879  14.841  12.668
84497W        W56823  42.394   2.684  12.240
84498W        W56824  29.886  15.709   1.439
84499W        W56825   6.349  15.370  11.181
84500W        W56826  11.989  27.367   3.360
84501W        W56827   5.587  32.152  10.278
84502W        W56828   7.192  17.738   1.848
84503W        W56829  29.820  41.071   1.724
84504W        W56830  17.170  41.039  11.951
84505W        W56831  10.804   5.051  13.439
84506W        W56832  18.174   3.948   0.784
84507W        W56833   2.527  17.737   2.243
84508W        W56834  36.929  13.656   2.854
84509W        W56835  38.149  39.847  11.186
84510W        W56836   2.827  15.565   5.050
84511W        W56837  15.575  35.988  10.677
84512W        W56838   3.120   7.998   5.061
84513W        W56839  42.464  29.073   1.368
84514W        W56840  17.491  44.308   4.473
84515W        W56841   7.113   1.732  10.787
84516W        W56842  20.409  40.997   4.173
84517W        W56843  16.669   4.021  12.086
84518W        W56844  44.000  17.840   4.270
84519W        W56845  18.624  38.561   2.852
84520W        W56846  17.629  15.750   4.996
84521W        W56847  26.008  33.774  11.085
84522W        W56848  10.112  13.337  12.984
84523W        W56849  17.668  15.885  12.927
84524W        W56850  33.392   5.269   1.297
84525W        W56851  14.051   5.432  13.815
84526W        W56852  18.739  16.680   2.346
84527W        W56853  37.390   5.339  12.509
84528W        W56854  18.339   7.793   1.538
84529W        W56855  41.803  26.005   4.435
84530W        W56856  20.225  20.065   2.878
84531W        W56857  39.696   2.491   3.617
84532W        W56858  22.187   2.465  10.974
84533W        W56859  42.690  31.608  14.075
84534W        W56860  21.744  11.985   4.445
84535W        W56861  34.348  10.424   2.208
84536W        W56862  39.779  24.571   2.295
84537W        W56863  41.763   9.802   0.386
84538W        W56864  29.518  33.918  13.093
84539W        W56865  18.697  29.031  13.509
84540W        W56866  27.532   8.216  11.174
84541W        W56867  37.025  22.413  11.029
84542W        W56868   8.730  40.718   0.860
84543W        W56869  39.315  16.141   3.718
84544W        W56870  37.640  18.559   2.757
84545W        W56871   6.376   7.276   3.346
84546W        W56872   3.422   1.792   0.978
84547W        W56873   5.617   4.221  10.950
84548W        W56874  23.136  10.817   1.797
84549W        W56875  29.948  28.972   2.683
84550W        W56876   8.347  29.508   1.794
84551W        W56877  39.769  32.926  12.427
84552W        W56878  32.539  23.098  12.825
84553W        W56879  12.323  43.415  14.535
84554W        W56880  10.150  21.319   0.498
84555W        W56881   4.205  10.456  14.430
84556W        W56882  20.471  26.203  11.052
84557W        W56883   7.459  41.963  10.490
84558W        W56884   6.749  28.350  12.510
84559W        W56885  34.995  37.118  12.981
84560W        W56886  35.127  16.823   2.699
84561W        W56887  37.821  20.703   0.291
84562W        W56888  26.192  20.709  12.459
84563W        W56889   1.876  40.116  13.330
84564W        W56890  19.654  13.402   4.683
84565W        W56891  44.478  40.939  12.117
84566W        W56892  41.024  26.595   1.006
84567W        W56893   3.342   7.293   1.155
84568W        W56894  19.622  27.363   3.693
84569W        W56895  15.182  32.468  14.515
84570W        W56896  12.017  41.852  12.502
84571W        W56897  40.803   3.791  10.659
84572W        W56898   9.920  34.336   2.743
84573W        W56899  44.957  35.154   3.213
84574W        W56900  42.769   8.318  14.782
84575W        W56901   7.840   6.373   4.581
84576W        W56902  37.083  12.703   1.658
84577W        W56903  38.928  25.564   3.044
84578W        W56904   5.485  10.440  12.045
84579W        W56905  10.890   4.503  11.483
84580W        W56906  22.204  36.070   4.469
84581W        W56907  39.128  21.279   1.924
84582W        W56908  23.233  20.794  11.627
84583W        W56909  10.880  23.995   0.421
84584W        W56910  28.150  44.402   2.770
84585W        W56911  18.702  23.464   1.863
84586W        W56912  34.616  11.811  14.438
84587W        W56913  31.468   3.166  13.437
84588W        W56914  37.565   1.327  10.673
84589W        W56915  10.855  44.491  14.432
84590W        W56916   0.848  10.600  11.895
84591W        W56917  40.397  20.334  14.427
84592W        W56918  44.016  19.612  10.456
84593W        W56919  39.550  34.458   2.286
84594W        W56920  31.946  41.936  12.302
84595W        W56921  22.030  35.578   3.581
84596W        W56922   5.928   6.452   2.136
84597W        W56923  40.413  20.127   0.859
84598W        W56924  14.206  16.559  14.854
84599W        W56925  20.616  27.047   1.884
84600W        W56926  35.242  32.201  11.156
84601W        W56927  22.086  13.306  10.965
84602W        W56928  33.115  10.463   3.193
84603W        W56929  20.861  17.385   4.549
84604W        W56930   5.700  19.670   1.315
84605W        W56931  12.883   9.318  14.974
84606W        W56932   1.047  43.903   3.918
84607W        W56933   6.376   9.604  10.119
84608W        W56934  19.328  40.097   3.233
84609W        W56935  16.699  22.304   3.085
84610W        W56936  19.092  20.242  10.968
84611W        W56937  22.821   1.422  12.338
84612W        W56938  13.036  26.479   0.377
84613W        W56939   6.245  23.103   4.345
84614W        W56940   4.693   2.447   1.645
84615W        W56941  36.109   8.191   2.271
84616W        W56942  21.151  28.945   3.596
84617W        W56943  38.433  36.415   3.221
84618W        W56944   9.666  10.756  10.509
84619W        W56945  44.375  25.919   2.643
84620W        W56946  23.962   4.843   1.941
84621W        W56947   4.392  34.231   4.595
84622W        W56948  15.529  40.095  11.966
84623W        W56949   2.807  36.070   4.050
84624W        W56950   4.677  17.617  13.329
84625W        W56951  21.141   9.538  13.414
84626W        W56952  34.467  25.080  12.394
84627W        W56953   6.858  30.432   1.362
84628W        W56954   4.148  27.554   4.574
84629W        W56955  17.475  41.719  12.561
84630W        W56956  19.786  21.742   5.161
84631W        W56957  34.369  38.193   0.778
84632W        W56958  22.693   9.475  14.952
84633W        W56959  22.192   4.769   3.349
84634W        W56960  43.948   4.354  13.916
84635W        W56961  21.222  16.125   0.923
84636W        W56962  36.085  33.901   3.187
84637W        W56963  19.578  20.934   3.638
84638W        W56964  30.961  10.364  14.354
84639W        W56965  31.980   6.927  13.324
84640W        W56966   8.401   3.886  13.093
84641W        W56967   3.728  26.749  11.713
84642W        W56968   9.414  19.765   0.904
84643W        W56969   2.803   7.991   1.974
84644W        W56970   1.375  35.817  14.918
84645W        W56971  28.234  33.597  13.879
84646W        W56972  12.800  18.674   3.549
84647W        W56973  27.971  12.273  13.662
84648W        W56974  12.819  17.260  11.262
84649W        W56975  41.497  39.102   0.398
84650W        W56976  10.294  24.476  12.688
84651W        W56977  21.313   7.207  14.806
84652W        W56978   9.723  13.944  11.754
84653W        W56979  38.627  10.882  13.029
84654W        W56980   3.435  41.279   2.261
84655W        W56981   5.643   4.100  12.288
84656W        W56982  19.044   0.413  12.234
84657W        W56983  40.232  17.559  10.238
84658W        W56984  25.181  21.245   1.646
84659W        W56985  18.807   0.362  11.258
84660W        W56986  26.684  20.639  14.460
84661W        W56987   8.161  41.346   4.922
84662W        W56988  17.249  27.269   0.363
84663W        W56989   1.452   2.812  10.229
84664W        W56990  17.686  35.092  13.908
84665W        W56991  22.401  21.501  14.709
84666W        W56992  34.272   0.789  13.490
84667W        W56993   5.800  36.398   0.822
84668W        W56994  20.282  12.809  12.083
84669W        W56995   1.011  33.665  11.130
84670W        W56996  40.199   1.345   4.535
84671W        W56997  29.380  21.778  12.033
84672W        W56998   9.265  26.165  14.741
84673W        W56999  18.787  14.109  12.098
84674W        W57000  43.025   5.751  12.383
84675W        W57001  19.646   9.854   1.006
84676W        W57002  10.168  42.426  12.941
84677W        W57003  24.588  28.364  10.941
84678W        W57004   8.535  30.804  12.526
84679W        W57005  19.271  43.777   3.856
84680W        W57006  34.428  32.885   3.331
84681W        W57007   0.296  33.560   4.820
84682W        W57008  23.993  25.978  10.620
84683W        W57009  42.684  16.493  11.083
84684W        W57010  23.206  21.183  14.951
84685W        W57011  30.394  11.253   2.090
84686W        W57012  43.319  34.297   1.232
84687W        W57013   0.902  23.995   3.763
84688W        W57014   3.200  34.646   3.172
84689W        W57015  14.062  23.127  13.999
84690W        W57016  17.345  12.485  10.946
84691W        W57017  28.694  20.249   0.723
84692W        W57018  28.947  22.116   3.996
84693W        W57019   9.787  34.612   0.491
84694W        W57020   9.918  19.171   2.284
84695W        W57021  28.005  44.146   3.900
84696W        W57022  15.255  29.616  13.322
84697W        W57023  31.141  16.103  11.508
84698W        W57024  30.056  28.080   4.398
84699W        W57025  13.523  44.419  13.929
84700W        W57026  28.511  42.809   0.770
84701W        W57027   3.499   6.091  10.162
84702W        W57028  24.193   3.900  14.751
84703W        W57029  35.516   6.373  10.705
84704W        W57030  15.112  16.642  14.962
84705W        W57031  22.766  29.410   1.664
84706W        W57032   2.572  15.394   1.838
84707W        W57033   9.146  21.243   1.835
84708W        W57034  28.167  28.464   3.375
84709W        W57035  11.592  19.582   4.529
84710W        W57036  28.530   9.725  11.474
84711W        W57037  13.921  37.185  13.857
84712W        W57038  44.021  43.029   2.291
84713W        W57039  42.274  29.574  11.894
84714W        W57040  14.256  23.000   2.182
84715W        W57041   0.790  15.714   4.947
84716W        W57042   2.025  14.047   4.221
84717W        W57043   6.387  23.108   3.862
84718W        W57044  32.914  24.539   4.207
84719W        W57045  26.368  24.306  14.504
84720W        W57046  26.475   3.818  10.988
84721W        W57047   3.839  25.565   1.699
84722W        W57048  16.569   9.791  12.360
84723W        W57049  26.802  21.450  14.848
84724W        W57050  34.378  41.511   2.171
84725W        W57051   2.187  35.411  13.764
84726W        W57052  14.193  18.613   4.902
84727W        W57053  21.359  21.299   2.717
84728W        W57054  41.794   0.396   1.875
84729W        W57055  42.619  39.617  10.676
84730W        W57056  36.177  17.766   4.509
84731W        W57057  13.697  30.477  12.083
84732W        W57058  17.335  39.299  13.327
84733W        W57059  20.532  33.910   0.557
84734W        W57060  38.511  34.318   1.838
84735W        W57061  40.259  24.285   1.020
84736W        W57062   9.176  15.310   2.303
84737W        W57063   6.782  35.654  10.929
84738W        W57064  10.294  35.159   2.305
84739W        W57065   3.020   3.364  12.344
84740W        W57066   2.863  20.212  11.695
84741W        W57067  21.324  16.110  13.056
84742W        W57068  34.654  19.797   1.363
84743W        W57069   4.652  17.550   3.655
84744W        W57070  38.804  14.254  14.518
84745W        W57071  38.932   7.424  14.138
84746W        W57072   8.429  41.422  12.379
84747W        W57073  16.539  17.124  11.188
84748W        W57074  30.622  44.335   1.743
84749W        W57075  17.284   6.329  11.712
84750W        W57076  17.593  12.353   4.128
84751W        W57077  33.796  16.284   0.785
84752W        W57078  35.333   4.713   3.709
84753W        W57079   5.631  44.417   1.153
84754W        W57080   3.184   0.486   0.400
84755W        W57081  40.377   5.721  14.340
84756W        W57082  43.023  12.694  13.054
84757W        W57083  19.140  40.639  14.122
84758W        W57084  14.250  11.402   3.260
84759W        W57085  32.969  21.346   4.186
84760W        W57086  37.422  12.705   3.340
84761W        W57087  44.519  18.553   5.167
84762W        W57088  30.162  10.862   2.600
84763W        W57089  17.193  17.780   4.257
84764W        W57090   5.817  24.414  11.211
84765W        W57091  24.496  21.630  13.905
84766W        W57092  15.505   7.193   1.305
84767W        W57093  28.502  33.944   1.842
84768W        W57094   2.503  15.269  10.569
84769W        W57095  43.892  21.634   4.203
84770W        W57096  20.936  40.506   2.372
84771W        W57097  23.519   0.227   4.141
84772W        W57098  35.978   8.239  12.322
84773W        W57099  21.793   1.827   3.696
84774W        W57100   2.101  39.080   2.658
84775W        W57101  39.393   3.479   2.871
84776W        W57102  24.767  39.855   2.395
84777W        W57103  25.286  42.289  10.560
84778W        W57104   3.532  12.676   0.800
84779W        W57105  35.488  20.709   4.698
84780W        W57106  24.126  37.105  14.766
84781W        W57107  29.043   4.684   1.639
84782W        W57108  27.615   8.423   3.784
84783W        W57109  40.889  43.693   2.778
84784W        W57110  29.417  28.122   0.482
84785W        W57111   2.645  13.670  11.595
84786W        W57112  20.527  35.016  13.892
84787W        W57113   9.731  14.420  13.769
84788W        W57114  43.432  40.805   0.719
84789W        W57115  43.454   9.243   3.207
84790W        W57116  13.325  32.180   4.049
84791W        W57117  23.131   9.822   3.310
84792W        W57118  38.175   8.143  10.669
84793W        W57119   0.017   5.509   2.377
84794W        W57120  21.826   8.903   0.759
84795W        W57121  19.700  41.904   4.266
84796W        W57122  38.719  20.323   2.603
84797W        W57123  39.786  10.437  13.401
84798W        W57124  27.635  21.096   0.811
84799W        W57125  23.163  43.928   0.349
84800W        W57126  15.122  41.597   2.181
84801W        W57127   7.163  25.496   3.231
84802W        W57128   4.399  38.123   1.848
84803W        W57129   3.862  42.375   4.162
84804W        W57130  38.312   2.862   2.141
84805W        W57131  14.753  42.777   1.744
84806W        W57132  41.229  22.767  12.485
84807W        W57133   4.051  24.135  11.608
84808W        W57134  10.637  29.686  12.027
84809W        W57135   9.362  26.470  13.523
84810W        W57136  36.401  39.996   1.724
84811W        W57137  29.400  13.258  11.604
84812W        W57138  31.600  14.448   4.357
84813W        W57139  16.195  21.095  13.945
84814W        W57140  10.322  19.376   3.831
84815W        W57141  14.175  14.645  12.142
84816W        W57142   5.551  22.010  12.780
84817W        W57143  22.121  13.977   1.457
84818W        W57144  42.071  40.267  14.411
84819W        W57145   1.920   7.189  11.449
84820W        W57146  11.809  22.478   3.141
84821W        W57147  28.102  18.731   0.948
84822W        W57148  26.615  18.339   3.340
84823W        W57149  20.298  18.764   1.229
84824W        W57150  11.350   6.968   4.872
84825W        W57151   3.415  26.696  14.584
84826W        W57152  35.588  16.245  11.482
84827W        W57153  14.833  15.967   1.846
84828W        W57154  39.585  43.755  14.098
84829W        W57155   3.253  11.881   0.370
84830W        W57156  29.512  40.427   0.474
84831W        W57157   5.629  23.674   3.531
84832W        W57158  27.456  17.305   4.216
84833W        W57159   5.813   1.911  14.269
84834W        W57160  32.554   0.007  14.100
84835W        W57161  38.992  17.630  12.146
84836W        W57162  42.215  18.085   2.176
84837W        W57163  18.278   7.458   3.752
84838W        W57164  42.991  30.396   1.174
84839W        W57165  12.546  33.807  10.275
84840W        W57166  43.871  34.844  13.441
84841W        W57167  29.580  31.425  10.968
84842W        W57168  18.372  10.687  11.609
84843W        W57169  43.109  43.822  11.439
84844W        W57170  17.930  26.839  13.759
84845W        W57171   1.963   4.344   4.905
84846W        W57172  29.142  27.142   5.042
84847W        W57173  32.634   4.342  12.569
84848W        W57174   5.753  21.915  11.513
84849W        W57175  41.928  25.437  12.651
84850W        W57176  26.512  11.329   3.746
84851W        W57177  39.031  25.920  11.547
84852W        W57178   9.778  12.140   0.804
84853W        W57179  31.366  19.814   2.407
84854W        W57180  38.849  15.911  14.859
84855W        W57181  19.078  11.758   2.003
84856W        W57182  27.197  13.952   5.030
84857W        W57183  11.603   6.054  14.257
84858W        W57184   9.716   5.266   1.574
84859W        W57185   3.309  18.240  13.099
84860W        W57186  43.347  17.815  13.331
84861W        W57187  23.614  17.313   4.334
84862W        W57188  28.765  18.196  10.645
84863W        W57189  43.507  30.881  10.960
84864W        W57190   7.361  33.363  13.093
84865W        W57191  35.657  38.249   0.778
84866W        W57192  18.479  30.510  12.374
84867W        W57193   9.858   2.875  10.800
84868W        W57194   1.816  24.052  14.944
84869W        W57195  37.815  15.078   2.283
84870W        W57196  39.007   3.968  14.261
84871W        W57197  33.474   4.634   2.396
84872W        W57198   4.667  43.705  12.377
84873W        W57199   3.667  21.973   2.899
84874W        W57200  14.092  33.811   2.901
84875W        W57201  22.674  14.834   3.570
84876W        W57202  36.598  12.884   3.835
84877W        W57203  40.385  26.295   2.890
84878W        W57204   8.419   1.633   3.591
84879W        W57205   1.019  29.065   1.411
84880W        W57206  38.941  20.257  13.397
84881W        W57207  30.394  43.925  14.792
84882W        W57208  36.626  19.504  10.970
84883W        W57209  20.810  14.217   1.803
84884W        W57210  44.388  24.236  13.793
84885W        W57211  11.992  10.405   1.622
84886W        W57212   6.817  20.999  14.256
84887W        W57213   9.489  34.464  14.776
84888W        W57214   4.519  43.738   1.175
84889W        W57215  11.285  36.478  14.309
84890W        W57216  34.730   5.148  13.487
84891W        W57217   4.934   5.974   3.268
84892W        W57218  34.910   7.141   4.069
84893W        W57219  38.021  35.600   0.836
84894W        W57220  33.452  22.044   4.733
84895W        W57221  27.127  33.959  11.566
84896W        W57222  34.756  24.080  11.432
84897W        W57223  43.684  28.023   2.244
84898W        W57224  12.885  40.981   3.156
84899W        W57225   1.501  28.665  12.494
84900W        W57226   6.274   3.494   0.798
84901W        W57227  28.592   6.719   2.989
84902W        W57228   5.466  29.986   4.312
84903W        W57229  10.428   1.561   1.154
84904W        W57230   2.744  29.798   0.431
84905W        W57231  22.286  39.990  11.139
84906W        W57232  27.743  25.893   0.840
84907W        W57233   8.159  44.657  14.780
84908W        W57234  11.851  35.538   3.340
84909W        W57235  23.670  35.579  13.506
84910W        W57236  17.020  20.530   3.109
84911W        W57237  17.582   8.851   0.743
84912W        W57238  13.535  23.099   0.677
84913W        W57239  42.913  34.048   0.352
84914W        W57240  23.937  29.068   1.781
84915W        W57241  43.529   6.267  14.030
84916W        W57242  19.272  27.640  10.684
84917W        W57243  12.156  17.617   4.583
84918W        W57244  30.480   0.415  10.399
84919W        W57245   0.798  11.870   1.768
84920W        W57246  27.026  35.303   0.861
84921W        W57247  24.627  22.819   4.834
84922W        W57248  36.584  22.099   4.800
84923W        W57249  36.213  12.919  14.440
84924W        W57250  24.038   5.938   4.348
84925W        W57251   1.032  16.754  14.758
84926W        W57252  18.683  35.959   4.615
84927W        W57253  21.654  16.728   2.209
84928W        W57254  41.429  21.890   4.524
84929W        W57255  37.601  35.438  10.767
84930W        W57256  40.225  10.896   2.682
84931W        W57257  15.681   0.357  14.674
84932W        W57258  40.635  28.750   1.696
84933W        W57259  15.690  16.539  14.408
84934W        W57260   8.006  22.008   2.799
84935W        W57261  18.549  26.355   4.907
84936W        W57262  37.046  28.720  14.999
84937W        W57263  40.451  37.518  10.734
84938W        W57264  20.641  28.980   3.628
84939W        W57265   3.796  31.147   3.338
84940W        W57266  19.478  17.048   2.839
84941W        W57267  22.199   6.872  11.041
84942W        W57268  12.503  26.228  13.915
84943W        W57269  35.545   7.500  13.839
84944W        W57270  23.041  44.503  13.771
84945W        W57271  22.204  27.090   1.204
84946W        W57272  42.799   4.726  12.493
84947W        W57273  34.604  34.929   1.037
84948W        W57274  42.968   7.359   3.767
84949W        W57275  10.236  39.969   5.009
84950W        W57276  14.349  29.698   0.222
84951W        W57277  43.107  14.438  14.442
84952W        W57278  19.599  27.576  12.435
84953W        W57279   7.328  41.948   0.580
84954W        W57280  28.793  19.747  14.274
84955W        W57281  36.561  22.143   2.218
84956W        W57282   7.698   9.759  13.039
84957W        W57283   9.571   5.842   2.215
84958W        W57284  21.466  13.223   3.156
84959W        W57285  26.208  14.149  14.517
84960W        W57286   1.729  43.706  14.770
84961W        W57287  40.555  12.239  11.500
84962W        W57288   7.757   5.439  13.028
84963W        W57289  29.426  29.551   3.127
84964W        W57290  32.414  24.488  12.361
84965W        W57291  21.014  19.206  14.197
84966W        W57292  40.274  42.051  12.005
84967W        W57293  23.642  24.495  14.902
84968W        W57294   9.056   7.246  14.910
84969W        W57295  21.570   3.654  13.430
84970W        W57296  11.718  42.127   2.424
84971W        W57297  30.743  24.237   3.198
84972W        W57298  24.942  17.758  13.461
84973W        W57299  27.986  34.073  13.961
84974W        W57300   3.221  33.022   0.307
84975W        W57301   3.534  17.591   0.850
84976W        W57302  26.660  20.782  13.076
84977W        W57303  32.822  42.990  12.056
84978W        W57304  29.027  24.797   2.709
84979W        W57305  43.546  33.999   4.508
84980W        W57306  21.794   9.242   4.663
84981W        W57307  20.412   2.308  13.492
84982W        W57308  26.800   1.648  11.151
84983W        W57309  36.597   4.000  11.814
84984W        W57310   6.129  40.588   3.723
84985W        W57311  43.310  10.054  11.456
84986W        W57312  18.635   6.796  14.707
84987W        W57313  12.879  29.417   1.798
84988W        W57314   9.767  28.944   0.322
84989W        W57315  40.793  11.781  11.623
84990W        W57316  22.481  44.218   0.476
84991W        W57317  41.461  14.699  12.573
84992W        W57318  38.949  15.624   4.164
84993W        W57319  27.009   5.411   1.740
84994W        W57320  29.493  18.565  13.991
84995W        W57321  17.611  10.288   1.221
84996W        W57322  42.760  39.629   3.666
84997W        W57323  16.691  18.732  14.242
84998W        W57324   5.339  24.072  12.099
84999W        W57325  22.674  16.597   1.326
85000W        W57326  10.116  29.735  12.066
85001W        W57327  22.744  38.535  14.034
85002W        W57328  32.581  44.528  12.070
85003W        W57329  22.778  36.936   2.241
85004W        W57330  10.565  43.755   4.072
85005W        W57331  44.320   7.649   3.692
85006W        W57332  31.764  11.213  10.962
85007W        W57333  36.089   8.580   0.478
85008W        W57334  16.864  16.526   0.371
85009W        W57335  12.676  11.864   2.612
85010W        W57336  12.563   6.890   4.820
85011W        W57337   5.306   6.586  14.237
85012W        W57338  21.148  21.162  10.453
85013W        W57339  16.816  19.401  12.545
85014W        W57340   9.583  29.944  13.835
85015W        W57341  25.694  30.215   2.586
85016W        W57342  16.699  26.597   1.816
85017W        W57343   0.218  24.714   2.374
85018W        W57344  15.055  31.157  13.751
85019W        W57345  28.504  12.545  13.802
85020W        W57346   4.381  26.005  13.944
85021W        W57347  37.994  30.735   0.911
85022W        W57348  20.080  31.350  12.184
85023W        W57349  33.158   1.905   0.763
85024W        W57350   6.892  30.110  13.918
85025W        W57351  38.501  36.635   0.352
85026W        W57352  23.685  44.362  11.882
85027W        W57353  31.746  20.469   4.258
85028W        W57354   7.257  20.041   2.932
85029W        W57355  23.468  42.086  13.035
85030W        W57356  33.517   8.786   1.913
85031W        W57357  20.445  12.321   3.777
85032W        W57358  22.993  40.504  14.825
85033W        W57359  32.144  26.415  14.192
85034W        W57360  38.525  16.619   4.937
85035W        W57361  37.475  16.090  13.024
85036W        W57362  13.826   9.417  12.969
85037W        W57363   7.877  26.612  11.611
85038W        W57364  21.299  26.587   0.540
85039W        W57365  22.164  19.837   2.463
85040W        W57366  38.360  21.926  12.425
85041W        W57367   4.376  15.836   0.026
85042W        W57368  31.562  43.366  13.337
85043W        W57369   4.693  36.540   3.795
85044W        W57370   4.035  26.411   2.006
85045W        W57371  39.104  15.691  10.375
85046W        W57372  16.644  33.997   1.637
85047W        W57373   1.335  39.038   0.398
85048W        W57374  43.244  25.216   3.230
85049W        W57375   5.258   8.684  14.504
85050W        W57376  37.856  34.039  14.876
85051W        W57377  36.251  19.675   0.689
85052W        W57378  34.446  33.510  10.229
85053W        W57379  37.915  26.975   2.752
85054W        W57380   3.682   5.862  14.362
85055W        W57381  10.504  34.904  10.660
85056W        W57382  29.036  32.441  11.644
85057W        W57383  14.255  20.301  13.845
85058W        W57384  29.646  37.496   3.063
85059W        W57385  17.654   8.190   1.996
85060W        W57386   5.467  44.401   3.688
85061W        W57387  33.780   6.484  11.053
85062W        W57388   6.393  18.507   1.964
85063W        W57389  22.952  33.480   3.641
85064W        W57390  43.200  14.209   3.238
85065W        W57391  19.291   2.938  10.631
85066W        W57392  33.827  44.532   1.350
85067W        W57393  11.691  16.643  12.595
85068W        W57394  20.344  26.125   3.839
85069W        W57395  35.453   4.273  14.243
85070W        W57396  38.378  26.502   1.208
85071W        W57397  39.161  43.770  14.435
85072W        W57398  33.992   6.498   1.365
85073W        W57399  13.241  29.983   3.412
85074W        W57400  39.414   5.713  14.851
85075W        W57401  24.986  37.358   4.422
85076W        W57402  17.353  37.532   0.676
85077W        W57403  23.521  31.411   1.945
85078W        W57404   7.004  39.909   4.494
85079W        W57405   1.245  11.345   1.333
85080W        W57406  22.927  33.445   1.947
85081W        W57407  34.464   4.280   4.381
85082W        W57408  23.958  26.103   1.437
85083W        W57409  21.839  14.124   1.878
85084W        W57410   7.726  42.318   3.336
85085W        W57411  26.623   4.451  13.310
85086W        W57412  29.543  34.865   2.905
85087W        W57413  35.880   8.327   3.592
85088W        W57414   4.556  44.537  14.232
85089W        W57415  29.461  19.268   0.237
85090W        W57416  18.833  22.587   0.379
85091W        W57417  43.888  13.592   3.658
85092W        W57418  25.618   1.865   9.971
85093W        W57419  19.862   7.867  11.128
85094W        W57420  18.173  33.433   3.815
85095W        W57421  11.735  12.728   4.516
85096W        W57422  23.518  34.022  10.398
85097W        W57423  22.094  26.914  12.810
85098W        W57424  12.562  36.226  13.321
85099W        W57425   9.734   0.939   3.734
85100W        W57426  38.681  22.411  12.849
85101W        W57427  33.365   6.617  12.262
85102W        W57428  17.325  32.559  12.492
85103W        W57429  18.351  41.861  14.454
85104W        W57430  44.762  30.481   0.864
85105W        W57431  21.844  42.646   0.392
85106W        W57432  16.881  21.836   0.778
85107W        W57433   8.620  24.066   4.188
85108W        W57434  44.837   8.846  12.082
85109W        W57435   8.589  25.726   5.027
85110W        W57436  39.107  18.568   2.671
85111W        W57437  15.923  19.058   1.781
85112W        W57438  38.869  32.264   2.798
85113W        W57439   7.770  34.360  12.340
85114W        W57440   8.973  29.488   4.050
85115W        W57441  17.445  42.005   4.086
85116W        W57442  38.396  41.950   0.890
85117W        W57443   4.850  11.810   0.261
85118W        W57444   4.489  29.544  12.421
85119W        W57445   2.331  41.157   1.286
85120W        W57446   1.478  37.983   0.420
85121W        W57447  38.958  38.307  12.530
85122W        W57448  28.482  14.671   0.195
85123W        W57449  23.155  16.299  11.069
85124W        W57450   3.712  39.459  12.490
85125W        W57451   8.882   2.165  10.583
85126W        W57452   0.799  14.391  14.411
85127W        W57453  27.175  21.850   1.215
85128W        W57454  25.576  15.941  13.484
85129W        W57455   0.991  22.071  12.209
85130W        W57456   6.621  19.239  13.241
85131W        W57457   8.633  44.227  11.509
85132W        W57458  17.042   2.859   0.304
85133W        W57459  41.354  24.901  13.715
85134W        W57460  38.316   1.985   1.956
85135W        W57461  41.441  29.514  14.117
85136W        W57462  35.646  31.057   2.344
85137W        W57463  39.950   6.403  14.526
85138W        W57464  12.214  39.281   2.450
85139W        W57465  13.546  21.613  13.462
85140W        W57466   5.451  22.551   4.548
85141W        W57467   0.315   9.190  14.224
85142W        W57468  19.772  42.519   0.761
85143W        W57469  38.014  29.283  11.552
85144W        W57470   8.598  18.702  13.215
85145W        W57471  16.676  33.649   0.810
85146W        W57472  36.886   7.609   2.190
85147W        W57473  42.425  42.743  13.958
85148W        W57474  22.055  14.651  11.445
85149W        W57475   9.075  22.468   2.309
85150W        W57476  19.168  19.346   2.188
85151W        W57477  26.468  20.186   4.538
85152W        W57478  11.663  11.244   0.448
85153W        W57479   4.087   8.844  12.843
85154W        W57480   7.149  32.225   4.337
85155W        W57481  43.986  42.989  13.610
85156W        W57482   8.556  26.701   1.810
85157W        W57483  25.039  42.186  13.305
85158W        W57484   5.008  14.286   0.248
85159W        W57485  15.513  10.718   1.904
85160W        W57486   1.728  29.770   2.722
85161W        W57487  34.635  27.596  10.695
85162W        W57488   8.411  15.278   2.798
85163W        W57489   7.692  22.285  12.048
85164W        W57490  21.497  36.039  12.989
85165W        W57491  18.853  23.499   3.712
85166W        W57492  17.563   0.866  14.244
85167W        W57493  19.247  31.974  11.133
85168W        W57494  22.119   4.522  11.293
85169W        W57495  27.599  39.619   4.004
85170W        W57496  17.991  32.870   3.152
85171W        W57497  10.798  15.018  12.902
85172W        W57498  22.852  40.816   2.393
85173W        W57499  23.843  10.628  11.695
85174W        W57500  26.715  44.493   4.067
85175W        W57501   0.511  22.304  14.669
85176W        W57502  33.665   2.268   1.824
85177W        W57503  12.324  23.025  12.951
85178W        W57504  44.211  43.701  14.048
85179W        W57505   9.290  22.350   3.188
85180W        W57506   3.474  10.958  13.360
85181W        W57507  18.271  10.834  14.744
85182W        W57508  37.835  41.718   4.194
85183W        W57509  16.697   7.727  14.025
85184W        W57510  30.189  12.704  13.330
85185W        W57511  18.322  16.736   4.698
85186W        W57512  44.671   7.241  14.317
85187W        W57513  37.119  41.573  14.883
85188W        W57514  18.869  34.408   4.044
85189W        W57515  20.577  21.763  14.224
85190W        W57516  41.658  16.708  14.135
85191W        W57517  29.552   3.249  10.817
85192W        W57518   4.680  44.050   4.135
85193W        W57519   4.575  12.281   3.649
85194W        W57520   3.769   3.982   5.089
85195W        W57521  27.249  20.435   3.952
85196W        W57522  15.135  27.667  12.422
85197W        W57523   1.390  35.596   0.783
85198W        W57524  22.501  29.559  10.513
85199W        W57525  27.190  10.087  13.872
85200W        W57526  31.916  18.797   0.209
85201W        W57527  26.936  17.790  11.489
85202W        W57528  15.387  32.094   4.076
85203W        W57529  44.242  18.635  14.469
85204W        W57530  29.062  42.864   1.958
85205W        W57531  41.988  25.452  14.465
85206W        W57532   8.929  31.029  12.777
85207W        W57533  24.994  21.689  14.043
85208W        W57534   2.962  42.622   2.627
85209W        W57535  29.883   0.849   3.215
85210W        W57536   7.353   1.725   0.386
85211W        W57537  28.195  19.362  14.799
85212W        W57538  36.803  13.226  13.048
85213W        W57539  35.441  21.832  14.082
85214W        W57540  38.315  42.381  13.495
85215W        W57541  14.736  27.993   2.626
85216W        W57542   0.884  19.960   1.417
85217W        W57543  23.678  29.925   2.621
85218W        W57544   2.431  34.135   2.684
85219W        W57545  18.637  39.791  12.015
85220W        W57546  28.666  19.975  12.893
85221W        W57547  31.092  20.181  12.969
85222W        W57548   6.241  37.288  14.985
85223W        W57549  44.221   4.841   0.091
85224W        W57550  39.658  20.265   0.348
85225W        W57551  11.661  35.188  14.416
85226W        W57552  37.027  23.759  14.520
85227W        W57553   1.652  24.501  12.001
85228W        W57554  17.380  13.574   2.345
85229W        W57555  15.302  30.954   3.428
85230W        W57556  38.945  12.401   9.702
85231W        W57557   1.044  20.240   3.158
85232W        W57558   7.045   8.589  12.447
85233W        W57559  34.916  26.017   2.762
85234W        W57560  41.327  43.208  14.855
85235W        W57561  36.407  35.120  14.828
85236W        W57562   9.255  23.719   1.799
85237W        W57563   5.491  37.503  12.952
85238W        W57564  41.741   4.847  10.668
85239W        W57565  29.616  13.061  12.034
85240W        W57566  22.542  13.875  13.777
85241W        W57567  21.504  15.875   2.234
85242W        W57568  22.037   3.385   1.055
85243W        W57569   9.493  27.464   4.592
85244W        W57570   5.733  27.723  13.698
85245W        W57571  29.057   9.242   2.240
85246W        W57572  25.664   6.444  13.389
85247W        W57573  22.500  25.447  12.137
85248W        W57574  14.234  19.184  11.435
85249W        W57575  29.075  30.900  12.484
85250W        W57576  26.498  36.132  14.049
85251W        W57577   5.210  39.329  13.495
85252W        W57578  43.245  15.085  13.624
85253W        W57579  18.749  37.520  11.170
85254W        W57580  30.719  35.261  12.539
85255W        W57581  18.716  36.311  10.633
85256W        W57582  37.609  11.395   4.844
85257W        W57583  13.240  31.536  14.803
85258W        W57584  12.640  23.250   3.044
85259W        W57585  17.775   4.869   2.138
85260W        W57586  41.782  32.102  14.700
85261W        W57587  15.797  41.320   3.576
85262W        W57588  24.736  29.766  13.948
85263W        W57589   1.766   7.748  11.229
85264W        W57590  31.124  31.863  10.071
85265W        W57591  18.991  20.579   2.845
85266W        W57592  44.795  14.904   1.692
85267W        W57593  24.975  30.644   1.867
85268W        W57594  11.704  15.715   3.324
85269W        W57595   8.328   8.402  11.508
85270W        W57596  41.624   5.241   2.244
85271W        W57597  10.341  23.091  12.920
85272W        W57598  17.796  29.068  12.446
85273W        W57599  13.413  40.984  14.327
85274W        W57600  17.671  40.976  11.615
85275W        W57601  42.739  13.867   3.031
85276W        W57602   6.475  28.126   3.669
85277W        W57603  39.084  38.742  10.904
85278W        W57604   3.623  32.476  12.992
85279W        W57605  27.859  38.961  11.297
85280W        W57606  17.485  20.795  11.452
85281W        W57607  35.896  44.181   3.994
85282W        W57608  39.767  29.927   1.666
85283W        W57609  21.843  31.147  13.824
85284W        W57610  33.262   4.689  11.160
85285W        W57611  34.353  12.026  12.786
85286W        W57612  36.328  25.584  12.521
85287W        W57613  27.532  35.426  13.788
85288W        W57614  42.928  14.691   4.490
85289W        W57615  38.953   0.811   0.199
85290W        W57616  13.241  25.800   4.578
85291W        W57617  41.507  17.768   1.811
85292W        W57618  43.741  34.973  12.484
85293W        W57619  20.215  11.055   0.283
85294W        W57620  10.947  37.409  12.005
85295W        W57621  43.822  35.062   1.317
85296W        W57622   0.199  31.240   1.986
85297W        W57623   5.845  22.845  13.066
85298W        W57624  11.235  43.653  13.603
85299W        W57625   1.444   3.446  11.142
85300W        W57626  42.097   0.529   3.226
85301W        W57627  31.054  44.365   0.962
85302W        W57628  24.468  41.528  13.378
85303W        W57629   7.382   9.787  10.361
85304W        W57630   0.007  19.738  13.021
85305W        W57631  43.371   5.414  11.135
85306W        W57632  42.954  28.291   0.291
85307W        W57633   8.789  30.911   3.751
85308W        W57634  26.259  13.331   3.503
85309W        W57635  21.249   8.219  12.325
85310W        W57636   1.475  25.550   2.052
85311W        W57637   6.128  14.165   2.320
85312W        W57638  12.128  11.954   2.499
85313W        W57639  20.613  21.007  11.154
85314W        W57640  14.390  23.653   4.118
85315W        W57641  41.327  21.011   1.205
85316W        W57642  44.379  25.589   4.503
85317W        W57643  39.800  28.711  11.601
85318W        W57644  40.283  11.591  11.697
85319W        W57645  41.888  25.291   1.800
85320W        W57646  30.439  29.172   2.605
85321W        W57647  24.068  42.146   4.637
85322W        W57648  11.413  18.219  13.420
85323W        W57649   3.959  29.637   3.219
85324W        W57650  43.912  16.066   3.953
85325W        W57651  41.918  24.203  14.023
85326W        W57652  40.956  36.452   4.198
85327W        W57653  23.512  30.601  12.678
85328W        W57654  14.729  14.590   4.071
85329W        W57655  39.184  14.012   4.556
85330W        W57656  23.993   6.676  13.167
85331W        W57657  41.777  37.672  10.739
85332W        W57658  14.650   1.872  10.758
85333W        W57659   0.906  41.070   2.295
85334W        W57660  18.578  17.427  14.397
85335W        W57661   0.759  38.562   4.431
85336W        W57662   0.919  41.590   5.049
85337W        W57663   4.222  15.304   1.824
85338W        W57664  31.591  35.906  11.487
85339W        W57665  18.776  17.726   2.460
85340W        W57666  38.809  37.411  11.537
85341W        W57667  43.522  41.829   1.278
85342W        W57668  11.317  10.829   1.204
85343W        W57669  27.696  21.354  10.218
85344W        W57670  36.016   0.244  11.649
85345W        W57671  10.195  10.207   1.970
85346W        W57672  27.592  34.604  12.072
85347W        W57673   1.492   6.412   2.232
85348W        W57674  31.624   2.258  11.883
85349W        W57675  19.044  16.725  12.024
85350W        W57676  38.961  43.494   3.439
85351W        W57677  33.132  33.171  11.786
85352W        W57678   2.408  17.776   4.301
85353W        W57679   9.411  21.801  13.738
85354W        W57680   1.051  16.610   2.548
85355W        W57681  37.383  36.324  11.674
85356W        W57682  32.702  29.986   1.257
85357W        W57683  24.760  29.615  12.069
85358W        W57684  43.862   9.139  11.551
85359W        W57685  33.792  39.040  13.835
85360W        W57686  27.011  25.745  12.072
85361W        W57687  33.226  19.039   2.793
85362W        W57688   3.413   8.804  14.484
85363W        W57689  36.458  40.893  11.112
85364W        W57690  26.049  10.433  12.077
85365W        W57691   8.668  41.766   3.622
85366W        W57692   1.959  44.349   3.276
85367W        W57693  19.788  40.347  14.389
85368W        W57694  29.161  32.793   2.308
85369W        W57695  26.973  30.551  13.376
85370W        W57696   0.726  22.184   1.367
85371W        W57697  11.979  25.452  10.177
85372W        W57698   2.837  13.077   4.573
85373W        W57699   6.112  33.317   0.430
85374W        W57700  36.912  38.049   1.738
85375W        W57701  17.394  28.520  14.899
85376W        W57702   3.208   1.727   5.020
85377W        W57703  28.868  29.065   0.938
85378W        W57704   9.216  26.281  10.935
85379W        W57705   2.200  20.742  13.429
85380W        W57706  37.021  44.996  13.439
85381W        W57707  13.765  32.065   3.643
85382W        W57708  30.479  40.370  12.945
85383W        W57709  13.895  38.745   0.424
85384W        W57710  44.865  25.669   4.675
85385W        W57711   4.979  32.148  14.333
85386W        W57712  16.025  38.488   3.109
85387W        W57713  22.476  18.720  14.759
85388W        W57714  15.138  20.665   1.874
85389W        W57715  20.965  17.544   2.997
85390W        W57716  23.677   3.896   0.943
85391W        W57717  33.351  30.539   4.616
85392W        W57718  13.195  44.941   2.839
85393W        W57719  43.555  35.755   3.205
85394W        W57720  26.031  35.985  11.862
85395W        W57721  26.848  18.699   0.284
85396W        W57722  34.332  11.137   0.813
85397W        W57723   7.630  35.789  12.480
85398W        W57724  39.039   8.512   0.452
85399W        W57725  26.183  16.806  12.885
85400W        W57726  12.312  25.138   3.301
85401W        W57727  18.175  20.357  11.203
85402W        W57728  36.810  17.471  12.444
85403W        W57729  44.041  17.581   1.994
85404W        W57730  35.424  21.035   1.787
85405W        W57731  11.242  13.977   5.030
85406W        W57732  27.996   6.213  12.345
85407W        W57733  15.160  31.443   4.836
85408W        W57734  40.876  11.357  13.402
85409W        W57735  42.914   6.421   2.801
85410W        W57736  18.287  41.991   4.642
85411W        W57737   4.390  26.182  10.667
85412W        W57738  28.539  33.035   3.727
85413W        W57739  30.080   1.881   3.696
85414W        W57740  17.956   4.243   3.571
85415W        W57741   9.333  17.954   0.223
85416W        W57742  27.601  23.774   0.972
85417W        W57743  27.769  16.653  12.529
85418W        W57744  38.426  44.669   4.205
85419W        W57745   2.263   3.373   1.265
85420W        W57746  34.160  19.761  14.424
85421W        W57747  39.504  15.775   3.406
85422W        W57748  35.214  11.006   5.079
85423W        W57749  25.223   7.230   3.732
85424W        W57750  41.504   6.657   3.714
85425W        W57751  10.100  41.410  12.195
85426W        W57752  41.454  24.096   1.306
85427W        W57753  10.069  24.469  13.668
85428W        W57754  15.073  20.637  11.473
85429W        W57755  35.152  41.424   1.501
85430W        W57756  17.574  23.435  10.759
85431W        W57757   6.081  39.374   3.818
85432W        W57758  15.634   6.919  13.162
85433W        W57759   8.263  42.212  13.361
85434W        W57760  26.084  20.446  12.012
85435W        W57761  21.071  24.382  11.601
85436W        W57762  11.730  33.977  10.644
85437W        W57763  43.060  12.319  10.717
85438W        W57764  19.873  40.320   2.425
85439W        W57765  42.204   8.228  14.811
85440W        W57766  27.749  44.831  11.953
85441W        W57767  24.100  14.125  12.261
85442W        W57768  34.039  21.477   0.695
85443W        W57769  21.790   8.140  11.247
85444W        W57770  31.869  23.287   1.461
85445W        W57771  12.250  36.952  13.689
85446W        W57772   4.959  11.628  12.467
85447W        W57773  12.690  28.981   3.210
85448W        W57774  43.273   7.205   4.542
85449W        W57775  33.926  21.527   0.163
85450W        W57776  14.184  18.341  12.571
85451W        W57777  42.206   7.695   2.906
85452W        W57778  10.232  41.037  14.425
85453W        W57779  23.398  38.497   4.183
85454W        W57780  24.653  37.430  14.016
85455W        W57781   1.486  28.608   3.106
85456W        W57782  29.038  37.775   4.215
85457W        W57783  25.102  35.326   1.484
85458W        W57784  20.674   8.617   3.517
85459W        W57785   9.158   9.229   2.285
85460W        W57786  31.832   6.501  13.582
85461W        W57787  11.677   4.147  13.829
85462W        W57788   6.993  16.146  10.751
85463W        W57789   4.428  19.507  13.480
85464W        W57790  42.774  26.759  14.569
85465W        W57791  44.608   8.761   1.235
85466W        W57792  40.646   9.414   2.916
85467W        W57793   8.404  24.963  12.411
85468W        W57794  34.894  43.355   0.720
85469W        W57795  35.045   9.257   2.296
85470W        W57796   5.343  28.883   0.971
85471W        W57797   3.962   0.799   0.115
85472W        W57798  35.961  26.935   4.581
85473W        W57799  36.604  22.474   3.164
85474W        W57800  41.743  38.472  11.094
85475W        W57801   4.129  26.885   1.221
85476W        W57802  18.991   9.890   3.673
85477W        W57803   6.828  25.650   0.357
85478W        W57804  38.788  15.095  14.361
85479W        W57805   8.755  11.850   0.858
85480W        W57806  35.004  35.370  11.551
85481W        W57807  34.837  17.723  13.941
85482W        W57808  26.731  33.616   1.329
85483W        W57809  22.728  13.728   2.236
85484W        W57810  30.444   2.302   0.390
85485W        W57811  29.518  34.784  11.504
85486W        W57812  39.636   9.130  14.345
85487W        W57813  17.187  44.718   9.989
85488W        W57814  28.079  30.714  14.461
85489W        W57815  13.952  24.678   2.841
85490W        W57816  43.751   2.987   1.488
85491W        W57817  33.141  37.463   4.133
85492W        W57818  40.859  38.915  12.138
85493W        W57819  10.341  21.285  13.976
85494W        W57820   1.144   0.797  10.267
85495W        W57821  18.609   5.283  14.732
85496W        W57822   1.951  44.524   2.461
85497W        W57823  37.630  40.438  14.415
85498W        W57824  13.657  25.509  13.300
85499W        W57825  29.947  19.689   1.293
85500W        W57826  15.173  30.299  11.522
85501W        W57827  15.284  32.601  12.341
85502W        W57828  38.560   5.115   3.296
85503W        W57829  41.418  16.974   2.754
85504W        W57830  29.634  34.295  14.441
85505W        W57831  41.909  21.753   2.181
85506W        W57832  16.743  37.314   0.139
85507W        W57833  12.261  34.313   4.942
85508W        W57834  38.652  11.792  10.565
85509W        W57835  42.645  22.316   0.216
85510W        W57836  25.128  34.566   0.908
85511W        W57837  35.836  20.077   4.101
85512W        W57838  37.475  13.557  11.908
85513W        W57839   5.288  18.056  13.490
85514W        W57840   1.798   7.447  12.144
85515W        W57841  19.584  33.583   0.228
85516W        W57842  10.280  44.188   4.164
85517W        W57843  32.829  28.867  13.313
85518W        W57844  43.483   3.352  11.530
85519W        W57845  28.079  15.949   3.285
85520W        W57846  41.522   7.439  14.928
85521W        W57847   1.029   3.006   4.594
85522W        W57848  24.723  24.797   2.310
85523W        W57849  14.337  34.798   3.696
85524W        W57850   3.856  13.581   3.724
85525W        W57851  18.523  13.127  11.946
85526W        W57852  31.336   2.225   1.328
85527W        W57853  44.859   8.357  13.742
85528W        W57854  18.161   8.776   1.884
85529W        W57855  17.189  15.679   2.783
85530W        W57856  35.651   4.528   1.749
85531W        W57857  35.049  34.426  10.701
85532W        W57858  10.881  31.911   3.767
85533W        W57859  24.583   8.820   1.335
85534W        W57860  39.441  36.936   1.804
85535W        W57861   5.811  25.707   2.339
85536W        W57862  40.562  27.545  14.198
85537W        W57863  22.463  27.537   2.333
85538W        W57864  44.209   7.231  11.187
85539W        W57865   9.576  43.769   1.274
85540W        W57866  42.774  15.347  12.371
85541W        W57867   9.435   3.378  12.356
85542W        W57868  36.902  18.115  11.858
85543W        W57869  25.705  42.039  14.423
85544W        W57870  24.080  31.085   4.095
85545W        W57871  30.873   1.962   1.329
85546W        W57872  16.010  34.518  13.745
85547W        W57873   1.382  10.871   1.169
85548W        W57874  44.163  19.042   3.649
85549W        W57875  44.100   1.468  11.627
85550W        W57876  15.421  23.364  11.497
85551W        W57877  28.125   4.798  14.904
85552W        W57878  26.612  37.408  13.460
85553W        W57879  27.590  29.040  14.719
85554W        W57880  29.958   7.788   2.917
85555W        W57881  38.829  32.574  11.819
85556W        W57882  28.984  37.830  14.845
85557W        W57883  28.107   0.207  13.586
85558W        W57884   8.430  41.356   3.359
85559W        W57885   1.480  31.149   2.214
85560W        W57886  12.322  28.761  11.667
85561W        W57887  31.593  13.518  10.781
85562W        W57888   3.905  39.546  10.921
85563W        W57889  30.363  25.224   0.649
85564W        W57890  42.233  25.696   2.704
85565W        W57891  20.782  42.543   2.319
85566W        W57892  42.800   2.121   2.153
85567W        W57893   5.320  32.909  11.459
85568W        W57894  11.052  21.480  12.551
85569W        W57895  22.376  38.296   2.053
85570W        W57896  17.802  17.668  12.374
85571W        W57897  16.948  37.499  13.135
85572W        W57898   3.345  43.473   3.409
85573W        W57899  19.517  19.571   3.415
85574W        W57900  14.656  27.448  12.412
85575W        W57901  12.063  13.543  13.817
85576W        W57902  18.630   6.843  12.973
85577W        W57903  21.801   0.345   1.266
85578W        W57904  26.111  25.891   2.795
85579W        W57905   2.395  33.981  10.876
85580W        W57906  38.309  23.565   2.256
85581W        W57907  11.360  21.654  13.855
85582W        W57908   2.464  44.456   0.717
85583W        W57909  33.828  23.262   1.836
85584W        W57910  23.068  38.901   2.218
85585W        W57911  41.071  30.854  12.545
85586W        W57912   5.389  41.040   1.368
85587W        W57913  20.711  43.330   0.170
85588W        W57914  32.395  15.649   3.765
85589W        W57915  42.295  40.371   4.790
85590W        W57916  37.121  17.114  12.130
85591W        W57917  17.077  16.184   4.195
85592W        W57918  38.536   1.039   0.003
85593W        W57919  29.641  11.479   2.789
85594W        W57920   4.193  14.753   2.716
85595W        W57921  40.688  25.670   3.883
85596W        W57922  23.486   0.217  13.530
85597W        W57923  18.071  37.084   2.678
85598W        W57924   8.196   5.374  11.765
85599W        W57925   1.191   9.796  12.524
85600W        W57926   1.240  38.621   2.935
85601W        W57927  10.618  18.259  11.084
85602W        W57928   6.415  23.500  13.601
85603W        W57929  24.141   6.870  14.375
85604W        W57930  40.864  27.925  11.949
85605W        W57931   1.651   4.322   2.179
85606W        W57932  32.427  35.018  13.784
85607W        W57933  21.570  26.380  12.076
85608W        W57934  21.282   3.156   4.156
85609W        W57935   0.834  27.819   0.136
85610W        W57936   4.281  22.741   3.065
85611W        W57937  38.591  34.976   4.081
85612W        W57938   8.250  28.098   2.346
85613W        W57939  18.800  41.044   2.596
85614W        W57940  14.598  14.536  10.785
85615W        W57941  44.366  35.771   1.859
85616W        W57942  40.882  13.038  14.032
85617W        W57943   3.110  36.085   2.273
85618W        W57944  23.338  22.497   3.007
85619W        W57945  33.383  39.283   0.205
85620W        W57946  12.813   2.061  13.486
85621W        W57947  14.853  27.172   2.226
85622W        W57948  15.880  15.519  14.325
85623W        W57949  13.887  31.482   1.934
85624W        W57950  42.034  42.269  12.417
85625W        W57951  44.230  36.249  12.199
85626W        W57952   6.141   7.624   0.455
85627W        W57953   7.517  30.873   4.201
85628W        W57954  38.486  33.447   4.949
85629W        W57955   0.508   6.978   0.895
85630W        W57956  14.662   2.513   0.443
85631W        W57957   8.980   5.816   1.854
85632W        W57958  38.334  38.205  14.685
85633W        W57959   8.676  12.844   3.696
85634W        W57960   4.961   0.530   5.007
85635W        W57961   9.885  30.964   4.572
85636W        W57962  10.539  12.569   2.158
85637W        W57963  30.291  21.284   0.254
85638W        W57964  16.972  40.529   4.296
85639W        W57965  36.009  35.744   1.207
85640W        W57966  13.939  29.964   5.001
85641W        W57967  12.798  42.932   1.787
85642W        W57968  43.741  37.372   2.858
85643W        W57969  40.443   0.457   2.282
85644W        W57970  14.892  25.089  10.638
85645W        W57971  22.568  29.503   3.095
85646W        W57972  17.160  25.926   3.134
85647W        W57973  20.855  40.831  12.363
85648W        W57974  32.734  28.421   0.825
85649W        W57975  33.904  38.975  10.704
85650W        W57976   7.289  20.968  13.393
85651W        W57977  21.608  34.603   0.382
85652W        W57978  29.528   5.149  14.794
85653W        W57979  30.600  37.097   4.905
85654W        W57980   4.257   4.220   5.036
85655W        W57981  18.629  23.246  12.785
85656W        W57982   1.457  20.393   1.936
85657W        W57983  30.078   3.082  12.908
85658W        W57984  13.665   2.052   3.251
85659W        W57985  15.715  12.535  13.317
85660W        W57986  39.294  32.987   2.215
85661W        W57987  21.784  31.847  11.533
85662W        W57988  37.610  12.283   4.690
85663W        W57989  17.637  19.995   3.184
85664W        W57990  20.335  44.236   4.563
85665W        W57991  34.644  19.027  14.877
85666W        W57992  20.026  22.121   4.231
85667W        W57993  42.004   8.616  11.593
85668W        W57994  42.056  33.952  10.727
85669W        W57995  27.075  16.153   2.407
85670W        W57996  31.640  17.830  11.780
85671W        W57997  22.461   7.019   1.764
85672W        W57998  17.131   9.393  12.908
85673W        W57999  43.046  29.397  13.413
85674W        W58000   9.834  35.792  12.958
85675W        W58001  25.565  29.008  14.808
85676W        W58002   8.697  27.908  11.137
85677W        W58003  35.575  42.836  14.750
85678W        W58004  27.258  21.569   0.043
85679W        W58005  13.142  21.956  12.550
85680W        W58006  36.407  36.846   0.419
85681W        W58007  13.869  35.059   3.686
85682W        W58008  11.192  42.455  10.728
85683W        W58009   3.810  43.057   4.714
85684W        W58010  38.132  25.799  13.124
85685W        W58011  37.341  44.859   4.154
85686W        W58012   9.247   4.684   0.034
85687W        W58013  42.834  34.946  13.820
85688W        W58014  31.674   2.764   0.484
85689W        W58015  11.092  12.622   0.798
85690W        W58016   6.999  13.286   1.822
85691W        W58017  12.704   2.447  13.109
85692W        W58018  13.198  30.200  11.333
85693W        W58019  36.512   4.193  13.671
85694W        W58020  42.874   5.279  11.544
85695W        W58021   3.757  29.445  14.016
85696W        W58022  36.500  44.269   2.701
85697W        W58023  42.776  38.429  14.094
85698W        W58024  34.962  23.890  12.771
85699W        W58025  24.708   4.665   2.169
85700W        W58026  40.867  30.631   4.785
85701W        W58027   0.339  39.278   2.852
85702W        W58028  25.989  30.920  12.527
85703W        W58029   5.054  16.646   3.183
85704W        W58030  39.441  19.239   1.867
85705W        W58031  44.063  35.758  12.087
85706W        W58032  32.480  42.260  11.665
85707W        W58033  42.328  16.566  10.694
85708W        W58034  41.891  31.075   2.590
85709W        W58035   6.276  39.550   3.379
85710W        W58036  31.197  30.144  11.238
85711W        W58037   8.088  41.775  12.997
85712W        W58038  33.401   1.545  14.001
85713W        W58039   7.360  15.795   3.862
85714W        W58040  30.888   8.913   1.857
85715W        W58041  24.287   5.780  10.412
85716W        W58042  36.970  29.098   3.995
85717W        W58043   0.359  17.342   1.826
85718W        W58044  11.843  10.094   4.263
85719W        W58045  34.565  26.351  11.080
85720W        W58046  28.507   7.666   2.750
85721W        W58047  31.677  24.054  11.609
85722W        W58048  43.014  41.034   1.246
85723W        W58049  44.878  13.387  14.349
85724W        W58050  21.557   2.871   4.636
85725W        W58051   8.656  28.162   1.747
85726W        W58052  23.142  28.423  11.580
85727W        W58053   9.623  10.379   0.278
85728W        W58054   5.440  27.415   4.547
85729W        W58055  18.720  27.410   3.700
85730W        W58056   6.532  22.519   2.747
85731W        W58057  44.138   2.729   4.393
85732W        W58058  28.249  27.590  12.076
85733W        W58059  26.741  16.706   2.587
85734W        W58060  36.141  19.731  11.175
85735W        W58061  39.172  32.186  12.549
85736W        W58062  16.362   1.739   0.926
85737W        W58063  14.524  28.584  12.987
85738W        W58064  32.069  36.063  10.104
85739W        W58065   6.713  10.700   2.024
85740W        W58066  41.520  19.517   2.759
85741W        W58067   6.205  42.933  11.648
85742W        W58068   7.807   8.807   2.766
85743W        W58069   1.707  13.076   3.262
85744W        W58070  44.676  33.468   3.667
85745W        W58071  23.433  40.827  10.429
85746W        W58072  40.935  28.578  14.825
85747W        W58073  21.539  38.040  11.497
85748W        W58074   8.828  12.879   0.811
85749W        W58075  25.612  34.631  11.166
85750W        W58076  43.500  43.772  14.784
85751W        W58077  32.221  26.921   4.347
85752W        W58078  22.977  18.210  10.717
85753W        W58079  29.355  28.602  12.544
85754W        W58080  36.837  11.085   0.253
85755W        W58081  11.233  28.237   0.395
85756W        W58082  43.921  33.019  13.065
85757W        W58083   1.004  44.371   2.198
85758W        W58084  15.775  21.078   1.804
85759W        W58085  37.533  32.944   0.074
85760W        W58086  26.170  12.185  12.682
85761W        W58087  10.313   6.845   4.367
85762W        W58088  13.562  41.475   3.180
85763W        W58089  34.896  28.213   2.124
85764W        W58090   8.353  32.504  13.340
85765W        W58091  32.671   2.146  11.217
85766W        W58092  26.152  27.110  14.015
85767W        W58093  23.804  11.525  14.981
85768W        W58094  19.762  41.879   0.681
85769W        W58095  25.187  39.192  12.415
85770W        W58096   9.877  43.460  11.922
85771W        W58097  20.603  14.158   2.265
85772W        W58098  22.113  35.119   2.914
85773W        W58099   7.078  13.839   2.238
85774W        W58100   3.236  37.722   2.394
85775W        W58101  36.496  25.704   0.311
85776W        W58102  30.945  33.372   2.242
85777W        W58103   4.781  32.395   4.568
85778W        W58104  32.708  37.860   0.968
85779W        W58105  33.976   8.570  12.982
85780W        W58106  14.394  37.983  12.856
85781W        W58107  12.473  36.195   1.180
85782W        W58108  25.456  28.172   4.546
85783W        W58109  37.666   8.270  10.524
85784W        W58110  21.950   9.686   1.732
85785W        W58111  18.304   3.696  11.268
85786W        W58112  13.495  32.795  11.239
85787W        W58113  16.269  38.637   2.687
85788W        W58114  27.800  19.065  11.079
85789W        W58115  41.578  36.188   2.799
85790W        W58116  26.421  20.501  14.885
85791W        W58117   9.319   0.230   0.873
85792W        W58118  18.250  22.091  10.475
85793W        W58119  13.250  16.071   1.798
85794W        W58120  12.693   0.170  14.241
85795W        W58121  36.029  26.819  12.556
85796W        W58122  18.896  17.846  14.769
85797W        W58123  14.125  43.665  14.335
85798W        W58124   5.469  29.432  14.332
85799W        W58125   3.794  23.644  13.048
85800W        W58126  33.828  37.143  13.547
85801W        W58127  12.180  22.322   2.778
85802W        W58128   2.802  27.932   2.302
85803W        W58129  42.480  40.572  10.565
85804W        W58130  28.462   4.743  14.473
85805W        W58131  17.092  39.950   3.633
85806W        W58132   2.205  28.925  13.278
85807W        W58133  34.460   2.105   4.495
85808W        W58134  10.609  38.667   1.493
85809W        W58135  35.440   0.845   3.402
85810W        W58136  43.910  36.538  10.466
85811W        W58137  33.411   2.317   0.368
85812W        W58138  25.694  13.179   4.175
85813W        W58139  35.336  22.043   3.445
85814W        W58140   4.176  38.865   1.318
85815W        W58141  13.056  25.452   1.182
85816W        W58142  38.356  14.268  13.766
85817W        W58143  31.479  18.164   4.589
85818W        W58144   8.307   5.102  13.421
85819W        W58145  36.016  42.902  13.111
85820W        W58146   0.965  10.795   5.110
85821W        W58147   1.347  23.921   4.028
85822W        W58148  43.741   8.300   1.016
85823W        W58149  36.180  43.938   1.702
85824W        W58150  22.110  26.501   2.496
85825W        W58151   1.035  35.003   2.352
85826W        W58152  32.982   3.452  13.398
85827W        W58153   1.013  44.011   3.387
85828W        W58154  13.042  42.715   2.710
85829W        W58155  34.940  13.741   1.337
85830W        W58156  25.229  12.363   3.323
85831W        W58157   3.407  16.494   0.038
85832W        W58158  22.718   4.544  13.764
85833W        W58159  28.064  11.276   2.789
85834W        W58160  10.055  20.154   2.970
85835W        W58161  16.365  43.951  11.113
85836W        W58162  41.781   8.477  10.697
85837W        W58163  12.633   2.940  13.322
85838W        W58164  30.814   6.887   4.971
85839W        W58165  24.805  17.160   4.896
85840W        W58166  27.462  33.066   2.282
85841W        W58167  17.126  42.106   0.910
85842W        W58168  28.892  10.344   4.775
85843W        W58169  14.153   6.340  13.431
85844W        W58170  32.834  20.788  13.988
85845W        W58171  42.414  22.436   0.666
85846W        W58172  33.042  41.797  14.820
85847W        W58173  13.197  17.003   4.475
85848W        W58174  22.652  32.569  10.847
85849W        W58175  40.640  43.949   3.625
85850W        W58176  34.026   2.700   4.700
85851W        W58177   7.781  44.828   4.624
85852W        W58178  13.752   1.622  13.509
85853W        W58179  11.359   8.247  13.795
85854W        W58180  27.692   0.219   3.188
85855W        W58181   8.339  35.117   4.563
85856W        W58182  13.274   0.440   2.918
85857W        W58183  24.056  24.577   3.412
85858W        W58184  29.164  15.195  14.669
85859W        W58185   0.324  16.060   0.421
85860W        W58186  19.616   0.234  13.713
85861W        W58187   7.371  12.404   2.245
85862W        W58188  41.624  29.910  13.549
85863W        W58189  18.382  23.151   0.957
85864W        W58190  35.543  27.925  14.458
85865W        W58191   4.085  18.515   1.310
85866W        W58192   2.807  37.878   4.793
85867W        W58193  33.979   7.301  10.752
85868W        W58194  27.818  18.998   2.147
85869W        W58195   3.073  10.602  13.311
85870W        W58196  34.473  22.454  12.858
85871W        W58197  18.969   6.261   5.066
85872W        W58198   1.119  17.122  10.077
85873W        W58199  42.258   0.859   2.145
85874W        W58200  26.662  39.297  13.934
85875W        W58201  30.907  37.830   9.672
85876W        W58202   9.774  27.640  10.703
85877W        W58203  25.611  44.017   2.205
85878W        W58204  12.244  20.286  13.491
85879W        W58205  38.581  24.008  10.719
85880W        W58206   4.894  33.477   4.590
85881W        W58207  26.926  20.446  14.029
85882W        W58208  25.481  36.102   2.592
85883W        W58209  28.626  39.953   0.727
85884W        W58210  41.616  33.803   3.205
85885W        W58211  25.199  13.400  12.990
85886W        W58212  11.001  41.733   4.201
85887W        W58213  37.201   5.226  12.051
85888W        W58214   7.276   4.256  10.236
85889W        W58215  19.721  44.937  11.600
85890W        W58216  41.405  26.448  14.787
85891W        W58217   6.859  10.164   2.736
85892W        W58218  26.106  29.080  11.244
85893W        W58219  17.531  18.573   1.713
85894W        W58220   2.322  44.846  14.120
85895W        W58221  36.385  40.858  13.768
85896W        W58222   9.692  21.005  11.143
85897W        W58223   2.429   2.678  13.668
85898W        W58224  10.320  20.188   1.986
85899W        W58225  29.032  34.665  14.200
85900W        W58226  35.590  23.016   2.449
85901W        W58227  19.113  28.505   1.493
85902W        W58228   7.563  22.089  14.882
85903W        W58229   9.366  41.306  10.750
85904W        W58230   3.613   2.301   3.979
85905W        W58231   4.251  16.339   3.677
85906W        W58232  10.604  25.731   2.534
85907W        W58233  26.243  11.217   3.316
85908W        W58234  42.036   4.250  11.892
85909W        W58235  13.729  43.280   3.663
85910W        W58236  36.429  29.610   3.828
85911W        W58237  28.984  42.275   0.841
85912W        W58238  23.941   5.895  14.720
85913W        W58239  13.337   0.797   2.506
85914W        W58240  27.096   8.273   3.080
85915W        W58241  32.415  38.814   3.763
85916W        W58242   8.094   4.816   4.204
85917W        W58243  38.044  29.480   3.600
85918W        W58244   7.120  32.416   2.291
85919W        W58245   8.947   7.037   1.301
85920W        W58246  31.604  21.143   0.854
85921W        W58247  28.222  16.716   1.459
85922W        W58248   7.808  21.346  10.636
85923W        W58249  18.089  26.016   2.160
85924W        W58250  19.932  11.595  12.040
85925W        W58251  34.521  41.671  11.167
85926W        W58252  25.148  10.312  12.019
85927W        W58253  38.928  23.747  13.354
85928W        W58254   5.488  43.853  12.078
85929W        W58255   5.858  22.293   1.258
85930W        W58256   0.650  38.352  12.476
85931W        W58257   3.798  44.041  12.498
85932W        W58258   5.477  30.911   2.756
85933W        W58259  11.670  35.680   2.776
85934W        W58260   8.928  25.784  13.346
85935W        W58261  23.787  20.166  12.051
85936W        W58262  18.405  37.356  13.872
85937W        W58263  33.418  17.088  13.513
85938W        W58264  25.945  27.769  13.322
85939W        W58265  16.056  18.736   0.874
85940W        W58266  27.122  16.169  13.500
85941W        W58267  40.697   7.271  13.481
85942W        W58268  28.553  10.728  11.289
85943W        W58269  22.941  10.363  13.946
85944W        W58270   6.979  12.066   2.344
85945W        W58271   0.752  25.226   0.362
85946W        W58272  41.046  21.186   0.019
85947W        W58273  24.940   2.792   1.911
85948W        W58274  32.962  42.498  10.600
85949W        W58275  22.592   6.124   1.435
85950W        W58276   5.544   3.266   3.125
85951W        W58277  24.672  14.447   4.988
85952W        W58278  28.862  40.508   4.946
85953W        W58279  38.367  20.269   2.962
85954W        W58280  23.443   2.383  11.623
85955W        W58281  34.043  33.073   4.652
85956W        W58282  29.213  22.189   0.771
85957W        W58283  20.019   5.327   3.576
85958W        W58284   7.845  26.578   4.557
85959W        W58285  11.208   0.454   4.466
85960W        W58286  11.245  32.889  11.077
85961W        W58287  19.991   6.267   4.333
85962W        W58288  39.437  44.430  13.498
85963W        W58289  35.823  10.717   3.760
85964W        W58290  33.953  34.844  13.619
85965W        W58291  35.409   7.742   0.668
85966W        W58292  41.844   3.267  13.344
85967W        W58293  41.055   5.368  12.952
85968W        W58294  35.020   5.671   0.464
85969W        W58295   9.210  17.642   3.753
85970W        W58296  39.482   7.376   1.339
85971W        W58297  28.466   8.084  12.162
85972W        W58298   9.210  20.172  13.232
85973W        W58299  21.706  35.448   4.884
85974W        W58300  19.008  35.621   1.901
85975W        W58301   1.923  25.322   4.583
85976W        W58302   6.973  19.722   3.313
85977W        W58303   1.230  22.677  13.998
85978W        W58304  17.636  35.125  11.311
85979W        W58305  15.226  39.582   2.663
85980W        W58306  39.981  43.410  13.563
85981W        W58307  29.522  31.933  11.063
85982W        W58308   9.846  29.223  13.499
85983W        W58309  22.197  31.483  13.987
85984W        W58310   6.418   7.296  14.095
85985W        W58311  38.036   9.951   9.887
85986W        W58312  33.406   0.312   3.331
85987W        W58313  15.684  26.781   1.737
85988W        W58314  11.791  34.425  12.832
85989W        W58315  37.606  16.437   3.139
85990W        W58316  18.792  32.929   3.386
85991W        W58317  19.531   0.448   4.733
85992W        W58318   8.045  31.616   3.723
85993W        W58319  16.975  25.164  11.838
85994W        W58320   9.691  13.464  11.986
85995W        W58321  10.802  29.188  12.102
85996W        W58322  14.642  10.772  13.950
85997W        W58323   7.899  40.824   2.219
85998W        W58324  14.337   3.648  12.072
85999W        W58325  44.771  41.569   3.235
86000W        W58326  35.970  21.419  11.970
86001W        W58327  11.739  27.512  14.011
86002W        W58328  25.113  35.884   4.705
86003W        W58329   5.274  24.253  13.407
86004W        W58330   3.798   7.345   1.447
86005W        W58331  38.410  23.670  14.552
86006W        W58332  34.616  15.774   0.482
86007W        W58333  35.172  30.553   1.499
86008W        W58334  18.277  18.789  11.094
86009W        W58335  35.998  20.333   0.474
86010W        W58336  38.131   1.523   2.327
86011W        W58337  27.041  15.034  13.008
86012W        W58338  16.311  24.029   4.194
86013W        W58339  22.784   7.704   2.967
86014W        W58340  10.684  14.705  14.028
86015W        W58341  16.297  41.056  13.898
86016W        W58342  37.083  35.944  12.147
86017W        W58343  40.523  41.832  11.605
86018W        W58344  12.307  23.489   4.386
86019W        W58345  43.748   4.448   2.153
86020W        W58346  12.287  27.499   2.393
86021W        W58347  41.459   2.279   4.157
86022W        W58348  11.525  11.856   4.394
86023W        W58349  17.900  22.524   0.748
86024W        W58350  36.856  33.349   2.609
86025W        W58351  23.585  41.772  11.670
86026W        W58352  21.932  38.460  10.589
86027W        W58353  33.536   9.430   1.359
86028W        W58354  24.113  15.119  12.202
86029W        W58355  23.154  28.012   1.375
86030W        W58356   5.384   4.878   3.781
86031W        W58357  13.796  33.482   4.180
86032W        W58358  24.657  20.168  14.972
86033W        W58359  42.894  22.617   0.576
86034W        W58360  15.992  36.904  14.984
86035W        W58361  38.589  34.857   0.959
86036W        W58362   7.915  29.391   0.863
86037W        W58363  36.634  23.182   1.472
86038W        W58364  13.409  33.699   0.350
86039W        W58365  30.338  19.261   0.853
86040W        W58366  29.013   1.946   2.644
86041W        W58367  25.614   7.822   0.128
86042W        W58368   7.271   9.825  13.924
86043W        W58369  24.088  35.602  13.894
86044W        W58370  22.615  15.612   4.556
86045W        W58371  28.211  14.243   0.411
86046W        W58372  39.497  40.914  10.901
86047W        W58373  12.779  20.424   1.553
86048W        W58374  42.304  18.081   0.930
86049W        W58375  24.444   8.759  12.894
86050W        W58376  40.443  28.722   0.737
86051W        W58377   5.042  42.428  13.565
86052W        W58378  37.765  15.225  11.650
86053W        W58379  36.343  43.239  11.056
86054W        W58380  37.092  18.038  10.398
86055W        W58381  18.660  18.985   1.869
86056W        W58382  21.405  26.022  12.975
86057W        W58383  42.093  39.372  14.776
86058W        W58384  22.184   0.301   2.599
86059W        W58385  23.247   2.790  12.440
86060W        W58386  13.286  30.422   3.104
86061W        W58387  10.369   7.142   1.720
86062W        W58388  36.475  15.740   1.221
86063W        W58389  44.725  41.972  14.351
86064W        W58390  37.429   0.995   2.390
86065W        W58391  31.645  40.465  11.475
86066W        W58392  20.125  25.689  13.239
86067W        W58393   1.845   0.793   0.068
86068W        W58394  12.194  11.736   0.445
86069W        W58395  25.053  20.791   3.285
86070W        W58396  16.569  44.852   3.203
86071W        W58397  32.925   9.769   5.003
86072W        W58398  10.921  38.421  13.572
86073W        W58399  11.670  10.278  11.855
86074W        W58400  40.032  22.275   0.905
86075W        W58401  40.864  38.554   2.145
86076W        W58402  44.251   2.759  11.507
86077W        W58403   6.950   5.175   3.754
86078W        W58404  28.929  16.060   3.520
86079W        W58405  32.368  18.694   1.877
86080W        W58406  39.469   1.762  14.368
86081W        W58407  21.031  27.358   1.847
86082W        W58408  29.548  36.093   4.791
86083W        W58409  35.929  26.307  12.518
86084W        W58410  29.580   6.221   5.123
86085W        W58411  24.480  37.246   4.126
86086W        W58412   9.110  40.845   1.751
86087W        W58413  25.111   2.298  10.732
86088W        W58414   4.343  37.591  12.692
86089W        W58415  14.292  26.757  12.780
86090W        W58416  16.259   2.670   2.970
86091W        W58417  32.089  14.358  14.301
86092W        W58418   7.914  37.911   3.098
86093W        W58419  27.731  44.730  13.882
86094W        W58420  30.640  33.658   0.854
86095W        W58421   9.204  36.096   3.589
86096W        W58422   3.949  22.707   1.234
86097W        W58423  37.663  32.882  12.111
86098W        W58424  26.052   1.892   0.267
86099W        W58425  19.772   9.264   3.115
86100W        W58426  10.786   8.364   3.739
86101W        W58427   2.722  38.433  13.470
86102W        W58428  15.021  16.076   4.676
86103W        W58429   2.533   3.025   0.396
86104W        W58430  19.521  38.036  11.600
86105W        W58431  15.336  40.395  11.104
86106W        W58432   1.182  35.842   3.847
86107W        W58433   1.520  21.620   9.759
86108W        W58434  35.818   2.337   4.665
86109W        W58435  22.503  22.141   3.385
86110W        W58436  23.730  35.883  13.063
86111W        W58437   4.449   3.445  14.803
86112W        W58438  18.666  15.857  13.942
86113W        W58439  35.093  13.748   3.304
86114W        W58440  12.900  31.372  12.569
86115W        W58441  19.129   3.984   4.220
86116W        W58442  25.543   4.654  11.870
86117W        W58443  24.180  30.348   0.746
86118W        W58444  30.177   8.730   3.761
86119W        W58445  27.239  30.756   3.536
86120W        W58446  43.228  15.711   0.590
86121W        W58447   8.841  21.760  11.666
86122W        W58448  11.421   5.726  11.057
86123W        W58449  12.838  25.140   2.083
86124W        W58450   7.689   3.667  14.484
86125W        W58451  11.692  19.122   0.261
86126W        W58452  17.116  31.085  14.330
86127W        W58453   0.870  34.527   4.464
86128W        W58454   8.682  44.057  11.986
86129W        W58455  17.074  28.492  12.872
86130W        W58456  18.998  22.289  13.559
86131W        W58457  20.546   1.860   0.434
86132W        W58458  38.499  39.561   3.626
86133W        W58459  13.554  34.931  14.376
86134W        W58460  15.993  27.998   4.898
86135W        W58461  41.948  25.008  11.656
86136W        W58462  23.586  36.050  14.472
86137W        W58463  12.613   2.016  12.480
86138W        W58464   6.724   9.151   3.474
86139W        W58465  24.448  42.404  11.885
86140W        W58466  32.144  32.176   0.966
86141W        W58467   5.360  37.011  14.958
86142W        W58468  36.104   4.008   1.314
86143W        W58469  40.586  44.532   2.249
86144W        W58470  39.591  16.744   1.472
86145W        W58471  41.748  36.060  12.979
86146W        W58472  43.122  39.537  10.616
86147W        W58473  25.054   8.731  11.440
86148W        W58474  41.044   6.773  12.072
86149W        W58475  35.081  36.378  13.479
86150W        W58476   3.429   9.833  11.527
86151W        W58477  42.005  19.160  13.125
86152W        W58478  24.967  39.528   0.746
86153W        W58479  24.260  44.860  14.829
86154W        W58480  26.683  18.596  11.971
86155W        W58481  43.216  38.055  14.797
86156W        W58482  19.373  26.207   4.400
86157W        W58483   5.214   8.436  14.033
86158W        W58484  21.781  17.698   4.730
86159W        W58485  36.954  28.033  10.464
86160W        W58486  26.410   8.381  12.115
86161W        W58487  33.728  36.072   2.387
86162W        W58488  40.902  19.245  11.175
86163W        W58489  35.181  15.432   0.527
86164W        W58490   3.645  40.985   0.862
86165W        W58491  28.561  19.284  14.421
86166W        W58492  13.706  36.608   3.270
86167W        W58493  18.329   7.653  10.735
86168W        W58494  15.525   7.758  13.018
86169W        W58495  21.492  22.097  14.615
86170W        W58496  39.563  18.672  11.548
86171W        W58497  22.478  42.950  11.118
86172W        W58498  29.897  35.165  11.378
86173W        W58499   8.704  32.213   4.946
86174W        W58500  36.663  12.671   9.742
86175W        W58501   4.191  11.562  14.762
86176W        W58502  38.739  12.915  14.539
86177W        W58503  39.976  29.975  13.354
86178W        W58504  13.097  27.737   0.682
86179W        W58505  43.000  16.955   3.201
86180W        W58506  31.720   2.763   3.642
86181W        W58507  29.522  44.748  14.341
86182W        W58508  40.844  30.446  11.725
86183W        W58509  31.970  21.054   2.903
86184W        W58510  40.511   2.806   1.085
86185W        W58511  23.308  34.432   1.774
86186W        W58512   7.141   8.910   1.230
86187W        W58513  38.292  13.195   5.017
86188W        W58514  41.986  44.044   0.747
86189W        W58515  30.547  10.615  10.724
86190W        W58516  25.109  26.938   4.752
86191W        W58517  30.009  40.487   3.422
86192W        W58518  35.110  12.850  13.457
86193W        W58519   1.007   1.491   1.913
86194W        W58520  28.229   7.114   3.122
86195W        W58521  22.201  24.209   1.204
86196W        W58522  41.364  36.616   1.202
86197W        W58523   3.607  31.961   2.246
86198W        W58524  30.797  14.784  14.164
86199W        W58525  40.310   5.376   0.467
86200W        W58526  36.248  31.566  10.718
86201W        W58527  26.323  35.852   1.154
86202W        W58528   6.173  35.141  10.515
86203W        W58529  37.005  25.177  11.555
86204W        W58530  12.808  32.540   2.772
86205W        W58531  16.240  33.332   0.775
86206W        W58532  20.778  36.836   2.307
86207W        W58533   2.383  38.006   0.145
86208W        W58534  11.668  21.173   0.491
86209W        W58535  24.532   5.164  11.081
86210W        W58536  24.989   7.815  13.755
86211W        W58537   0.900   2.775   4.126
86212W        W58538  33.973  33.283   4.191
86213W        W58539  31.590  11.799   0.203
86214W        W58540   7.110  33.525  13.490
86215W        W58541   9.661  15.078   3.216
86216W        W58542  18.760  35.480  14.878
86217W        W58543  36.078  23.538   3.214
86218W        W58544  32.120  15.187   3.860
86219W        W58545  13.040  22.816   2.327
86220W        W58546  40.743   6.319  14.918
86221W        W58547  10.155  11.751   3.102
86222W        W58548   1.194  36.122   5.062
86223W        W58549  29.742   7.297   0.275
86224W        W58550  40.272   9.056  10.768
86225W        W58551  13.838   2.878  13.254
86226W        W58552  32.876   5.241   1.216
86227W        W58553  24.381  16.018   2.771
86228W        W58554  31.081   4.783  12.900
86229W        W58555  38.626  32.168  13.614
86230W        W58556  21.978  39.519   5.069
86231W        W58557   7.967  40.978  11.644
86232W        W58558  36.342  32.765   4.479
86233W        W58559   2.804  14.571   4.818
86234W        W58560  27.966   0.920   0.048
86235W        W58561  42.493  39.735  14.793
86236W        W58562  19.960  42.821  13.507
86237W        W58563  12.843  40.050  13.973
86238W        W58564  25.694  41.934   2.574
86239W        W58565  30.932   3.813   4.881
86240W        W58566   5.332  40.806   0.889
86241W        W58567  10.903   4.528  14.729
86242W        W58568  35.027   9.072  14.631
86243W        W58569  35.760  35.452  12.154
86244W        W58570  32.446  32.855  12.450
86245W        W58571   4.383  42.458  12.313
86246W        W58572  35.882  36.521  14.857
86247W        W58573   6.714  30.514   4.286
86248W        W58574  22.666   8.963  14.903
86249W        W58575  24.129  34.525  12.091
86250W        W58576  12.255  20.469  11.172
86251W        W58577  42.314   4.718  13.723
86252W        W58578  29.338  16.872   9.857
86253W        W58579  43.866  14.776   3.398
86254W        W58580  41.831  34.684   1.436
86255W        W58581  34.984   1.052  10.003
86256W        W58582  10.458  34.509   1.027
86257W        W58583  32.794   5.722  14.341
86258W        W58584   0.780   7.208  12.052
86259W        W58585  24.791  38.138  12.206
86260W        W58586  15.284  17.715  11.869
86261W        W58587  25.736  30.867   0.517
86262W        W58588  40.799  20.771  10.485
86263W        W58589  26.978  44.231   3.152
86264W        W58590  18.806  20.110   2.707
86265W        W58591  42.867  27.496   3.207
86266W        W58592  41.886  33.157   1.311
86267W        W58593  13.946  10.360   4.789
86268W        W58594   0.920  30.880   4.074
86269W        W58595  17.419  27.342  13.548
86270W        W58596  33.067   2.752   1.466
86271W        W58597  16.527  12.226  14.884
86272W        W58598  15.160  32.503   0.569
86273W        W58599  10.114   0.449  14.307
86274W        W58600   9.644   0.875  11.449
86275W        W58601  13.816  13.437   2.813
86276W        W58602  37.904  31.620   1.428
86277W        W58603   4.540   2.325   9.916
86278W        W58604  16.781  11.866   3.302
86279W        W58605  36.891  10.863   4.695
86280W        W58606  10.414   4.256  12.400
86281W        W58607  37.803  32.888  14.291
86282W        W58608  37.622  26.178   2.329
86283W        W58609  36.083  25.091  11.167
86284W        W58610  33.990  11.279  14.090
86285W        W58611  41.752  10.204  11.045
86286W        W58612  18.595   4.788   2.808
86287W        W58613   6.893  11.571   3.741
86288W        W58614  15.125  32.134   2.336
86289W        W58615  25.414  44.814  10.804
86290W        W58616  13.587  20.937   4.283
86291W        W58617  13.790  43.906   4.409
86292W        W58618   0.842  18.314  11.958
86293W        W58619   5.933   0.021   0.393
86294W        W58620  13.742  31.611   0.972
86295W        W58621  17.022   9.845  12.693
86296W        W58622   7.852   9.081   4.158
86297W        W58623   4.170  28.104  14.359
86298W        W58624   3.341   9.865   3.658
86299W        W58625  13.154  28.026   2.195
86300W        W58626  19.535  15.310   4.105
86301W        W58627  19.707  37.390   0.767
86302W        W58628  27.593  44.487   3.833
86303W        W58629  23.758  19.479  11.531
86304W        W58630  16.099   3.001   3.794
86305W        W58631  22.685  24.231   1.933
86306W        W58632  10.160  39.325  11.288
86307W        W58633  20.038  31.934   2.717
86308W        W58634   9.062  14.402   5.090
86309W        W58635  29.902  12.806   1.361
86310W        W58636  30.047  10.691   3.093
86311W        W58637   3.428  11.804   4.577
86312W        W58638  44.884   2.317  14.361
86313W        W58639  26.453  26.486   3.813
86314W        W58640  44.437  38.510   3.227
86315W        W58641  38.522   9.128   0.596
86316W        W58642  14.131  36.920   1.426
86317W        W58643  27.613  31.613  14.786
86318W        W58644  35.099  24.009  11.030
86319W        W58645  29.547  33.950   4.168
86320W        W58646  28.613  21.729   0.422
86321W        W58647  39.991  12.395   2.693
86322W        W58648  14.717   5.616   4.464
86323W        W58649  17.124  44.256   1.416
86324W        W58650  24.499  25.165  12.070
86325W        W58651  16.806  42.973  11.523
86326W        W58652  37.007  29.199  14.677
86327W        W58653  15.213  43.873  12.829
86328W        W58654  33.283  17.262   0.332
86329W        W58655   8.720  21.229  13.418
86330W        W58656  16.766  24.434  14.418
86331W        W58657  20.823  23.799  14.351
86332W        W58658  10.436  32.223   3.692
86333W        W58659  21.550   6.936   4.893
86334W        W58660  43.770  23.636  10.607
86335W        W58661  22.240   1.269   1.379
86336W        W58662  11.737  19.355   2.232
86337W        W58663  27.252   0.440   1.482
86338W        W58664  41.386  33.962  12.581
86339W        W58665   5.368  10.583   0.555
86340W        W58666  13.387   3.415   5.025
86341W        W58667   1.989   5.562  13.300
86342W        W58668  31.908  38.819   3.744
86343W        W58669  43.267   6.205   1.812
86344W        W58670  14.698  44.721   5.038
86345W        W58671  29.111   4.634  10.840
86346W        W58672  25.987  23.390   3.210
86347W        W58673  15.712  40.243  11.512
86348W        W58674   0.320   1.501  11.132
86349W        W58675  43.773  31.171  12.544
86350W        W58676  37.977  33.979   0.397
86351W        W58677  30.753  24.961   5.217
86352W        W58678   3.015  24.630  14.596
86353W        W58679  40.114  40.499  13.070
86354W        W58680  12.253   9.620  13.330
86355W        W58681  17.251  21.220   4.237
86356W        W58682  33.054  40.371   3.112
86357W        W58683  29.429  15.223   4.951
86358W        W58684  17.772  25.382  11.067
86359W        W58685  31.479  33.176  13.951
86360W        W58686  20.177  44.808   0.781
86361W        W58687  37.278   4.135   0.325
86362W        W58688  32.201  31.548  13.348
86363W        W58689  44.921  36.944   0.657
86364W        W58690  43.394  35.204   4.833
86365W        W58691  21.833   5.887  12.424
86366W        W58692  24.010  32.602  13.361
86367W        W58693  44.507  32.234  12.613
86368W        W58694  23.060  15.895   4.598
86369W        W58695  14.851  38.673   2.269
86370W        W58696  28.559   9.834   2.745
86371W        W58697  27.254   9.999  11.533
86372W        W58698  11.753  33.508  14.390
86373W        W58699  30.085  20.259   1.289
86374W        W58700  23.101   6.618  12.440
86375W        W58701  38.399  17.218  14.076
86376W        W58702  11.769  35.827  10.533
86377W        W58703  39.915  34.602  10.996
86378W        W58704  26.127  41.878  11.564
86379W        W58705  29.100  14.271   3.609
86380W        W58706  11.761   3.957   2.118
86381W        W58707   9.622   1.860   0.504
86382W        W58708  15.072  12.246   0.775
86383W        W58709  13.110  26.198  12.580
86384W        W58710  23.389  38.000  13.797
86385W        W58711  12.633   3.292  14.416
86386W        W58712  31.713  16.172  12.408
86387W        W58713  14.906  25.014   4.871
86388W        W58714  39.320   0.428  13.513
86389W        W58715  27.559   7.160  14.636
86390W        W58716  41.832  19.651  13.061
86391W        W58717  40.497  16.080  11.934
86392W        W58718  36.831  43.418  11.183
86393W        W58719   2.370   9.872   3.706
86394W        W58720  29.765  38.428   2.352
86395W        W58721   4.420  20.632  11.700
86396W        W58722  23.030  15.357  11.542
86397W        W58723   9.842  43.932   4.203
86398W        W58724   2.265   0.023  12.871
86399W        W58725  12.730  17.245  14.096
86400W        W58726  34.454  42.511  12.529
86401W        W58727  10.903  17.693  13.889
86402W        W58728  12.590   4.798   4.182
86403W        W58729  27.913  22.220   3.810
86404W        W58730  17.098  39.971   3.086
86405W        W58731  43.436   4.837   1.230
86406W        W58732   5.475  31.337   0.699
86407W        W58733  40.443  12.235   2.407
86408W        W58734   9.911  10.390  11.627
86409W        W58735  35.570  18.006   1.271
86410W        W58736  32.970  40.091   0.749
86411W        W58737  11.342  17.530   2.373
86412W        W58738   8.366  14.841   4.588
86413W        W58739  20.066  42.934  12.591
86414W        W58740   8.663  18.858   0.219
86415W        W58741  20.479  35.588  12.124
86416W        W58742  24.016   6.159  12.122
86417W        W58743  27.691   8.448  12.342
86418W        W58744  16.544  22.014   0.397
86419W        W58745   5.078  37.811   4.366
86420W        W58746  20.029  41.336   3.093
86421W        W58747   6.160  29.801  11.789
86422W        W58748  15.565  36.992  13.097
86423W        W58749  30.875  27.568  14.459
86424W        W58750  36.521  12.612  10.227
86425W        W58751  25.745   2.698   2.319
86426W        W58752  24.439  21.351   2.774
86427W        W58753  30.022   9.427   1.222
86428W        W58754   3.781  17.968   5.134
86429W        W58755  27.542  26.921  12.426
86430W        W58756  22.122  40.867  13.567
86431W        W58757   4.020  41.845   4.098
86432W        W58758  32.856  13.191   2.272
86433W        W58759   7.426   0.606  11.984
86434W        W58760   0.441   3.563   5.038
86435W        W58761  33.152  35.444  10.639
86436W        W58762  32.499   0.213   2.185
86437W        W58763  11.331  21.606  14.938
86438W        W58764  39.589  44.010   1.911
86439W        W58765  40.537   8.058   4.263
86440W        W58766  39.868  10.749   4.745
86441W        W58767  39.527  18.275   2.800
86442W        W58768  13.114  44.972  14.491
86443W        W58769   4.403  13.924  12.459
86444W        W58770   4.630  37.845   1.499
86445W        W58771  28.022  21.843   1.115
86446W        W58772  18.985  14.314  12.974
86447W        W58773  20.142  17.569  14.056
86448W        W58774  10.856  41.674   5.083
86449W        W58775  25.166  29.151  14.485
86450W        W58776   3.623  25.250  12.521
86451W        W58777  16.470  43.438   2.764
86452W        W58778   5.176  17.554  13.463
86453W        W58779  22.485  29.159  13.908
86454W        W58780  44.394  39.043  12.537
86455W        W58781  18.543  27.318  12.062
86456W        W58782  43.606  17.521   4.163
86457W        W58783  29.563  12.517  11.944
86458W        W58784   2.197  14.371  14.265
86459W        W58785  12.853  15.738   2.348
86460W        W58786  44.341   0.018  13.391
86461W        W58787   4.989   8.657   4.510
86462W        W58788  41.266   5.403   4.528
86463W        W58789  44.321  14.651   1.100
86464W        W58790   3.656  20.169  11.296
86465W        W58791  40.979  30.490   1.765
86466W        W58792  18.658  42.025  10.689
86467W        W58793  11.794  33.481  11.464
86468W        W58794  41.949  19.273  11.555
86469W        W58795   6.265  43.847  12.182
86470W        W58796  39.539  29.976   1.016
86471W        W58797  23.122   8.232  14.034
86472W        W58798  40.582  16.111   1.346
86473W        W58799   4.774  35.966  13.988
86474W        W58800  30.159  44.910  13.028
86475W        W58801  26.063  28.060  14.332
86476W        W58802  44.950  24.192  11.622
86477W        W58803  29.954   6.216   3.171
86478W        W58804   7.891  18.247  14.019
86479W        W58805  36.590  30.080  14.723
86480W        W58806  19.460  20.549  14.887
86481W        W58807  27.531   6.205   3.541
86482W        W58808  36.444  30.579  14.500
86483W        W58809  27.218  36.613  14.269
86484W        W58810  20.590  14.308   0.003
86485W        W58811  30.206  29.017  14.473
86486W        W58812  41.908  20.813   2.366
86487W        W58813  22.206  11.740   1.850
86488W        W58814  20.484  20.616  13.258
86489W        W58815  17.734  28.449   1.432
86490W        W58816  28.995  43.352   4.134
86491W        W58817   1.909  35.554  14.557
86492W        W58818  38.022  12.578   4.537
86493W        W58819  41.473  27.611   0.814
86494W        W58820  15.488  17.808  13.859
86495W        W58821   6.709  26.682   2.771
86496W        W58822  12.161  20.393   0.301
86497W        W58823  41.931  11.806  13.238
86498W        W58824  35.621  26.626  10.753
86499W        W58825  23.683  31.936   3.527
86500W        W58826  13.247  34.993   2.681
86501W        W58827   3.410  31.923   3.282
86502W        W58828  44.573  42.467  14.456
86503W        W58829  10.149  24.985  13.689
86504W        W58830  20.245  32.437  14.004
86505W        W58831  26.854   2.501  13.949
86506W        W58832  16.878  12.378   3.340
86507W        W58833  25.211   0.479   2.304
86508W        W58834  44.307   0.960   3.266
86509W        W58835  30.355  33.884   1.994
86510W        W58836  35.197  29.955   0.815
86511W        W58837  26.875  30.690   4.972
86512W        W58838   5.823  32.831  11.626
86513W        W58839   0.706  31.981   1.752
86514W        W58840   4.840   6.605   4.656
86515W        W58841  42.007  13.077  11.583
86516W        W58842  27.394  16.892   3.382
86517W        W58843  44.907  19.237   4.637
86518W        W58844  11.728  44.548  14.906
86519W        W58845   3.286   3.905   1.283
86520W        W58846  27.549   7.678  12.045
86521W        W58847  33.110  15.303  13.543
86522W        W58848  37.349  41.375   2.768
86523W        W58849   3.529  38.125   3.302
86524W        W58850  42.089  38.614  10.672
86525W        W58851  27.021  22.976   0.355
86526W        W58852  11.221  16.342   2.915
86527W        W58853   6.226   3.966  13.928
86528W        W58854  36.722  23.051  12.959
86529W        W58855   2.524  12.502  14.046
86530W        W58856   8.868   2.851   3.418
86531W        W58857  44.732  23.824   3.791
86532W        W58858  24.716   9.977  12.099
86533W        W58859  22.820  39.040   9.707
86534W        W58860   4.529  27.061  11.623
86535W        W58861  16.664   0.764  12.553
86536W        W58862   6.737  21.589  13.937
86537W        W58863  23.544  27.473   3.681
86538W        W58864  30.557  26.294  14.854
86539W        W58865  41.042   2.118  11.037
86540W        W58866  25.195   2.807   3.384
86541W        W58867  17.058  30.704   4.149
86542W        W58868   9.820  40.028  11.036
86543W        W58869   0.235  23.202   1.486
86544W        W58870  22.758  25.000  12.193
86545W        W58871  26.764  26.282  11.093
86546W        W58872   0.755  37.593  14.002
86547W        W58873  16.821  43.917  12.866
86548W        W58874  20.653  30.607  12.066
86549W        W58875  18.209  42.601   4.527
86550W        W58876   4.494  35.550  13.833
86551W        W58877  28.422   5.268  11.491
86552W        W58878  19.057  36.837   2.782
86553W        W58879  44.124   0.081   1.816
86554W        W58880  20.558  13.730  13.860
86555W        W58881   5.906  39.884   3.222
86556W        W58882   1.371  40.590  12.377
86557W        W58883  13.618   1.279  13.866
86558W        W58884  10.042  40.521  12.888
86559W        W58885  31.285  19.574  11.116
86560W        W58886  39.674   3.399   4.420
86561W        W58887  30.101  37.364  11.505
86562W        W58888   8.204   9.798   4.243
86563W        W58889   1.720  42.402   4.609
86564W        W58890  27.670   5.204   3.627
86565W        W58891  28.689   7.817  10.519
86566W        W58892  32.920   8.337  14.897
86567W        W58893  14.907  24.700  10.267
86568W        W58894  30.899   1.981   1.860
86569W        W58895  21.686   6.001  14.979
86570W        W58896   6.321  33.017  13.645
86571W        W58897   8.338  29.050  10.460
86572W        W58898   4.865   7.778  11.474
86573W        W58899   5.991  30.501  12.836
86574W        W58900  36.062  28.495  11.856
86575W        W58901   4.225   1.261  13.155
86576W        W58902  38.409  12.877   4.250
86577W        W58903   7.692  24.997  13.119
86578W        W58904   8.944  32.499   2.902
86579W        W58905   1.881  15.040   4.104
86580W        W58906  19.745  27.646   1.468
86581W        W58907  31.970  41.259  11.145
86582W        W58908  26.012  40.598   1.777
86583W        W58909  32.861   7.614   4.129
86584W        W58910   0.035  28.543  12.373
86585W        W58911  21.063  44.655   2.105
86586W        W58912   3.245  37.822  11.923
86587W        W58913  28.169  15.856  10.497
86588W        W58914  37.085  13.257   5.488
86589W        W58915   6.733  19.729   1.420
86590W        W58916  23.679  25.477  11.521
86591W        W58917  14.267  24.965   0.082
86592W        W58918   7.847   2.247   0.745
86593W        W58919  25.595   7.602   1.512
86594W        W58920  29.242  15.105   3.128
86595W        W58921  33.101   4.686  10.632
86596W        W58922  30.939  13.606  14.375
86597W        W58923   5.791   9.009   0.832
86598W        W58924  13.568  37.559   5.136
86599W        W58925  10.142  14.741  11.911
86600W        W58926  14.267  25.499   4.214
86601W        W58927  42.781   7.948   1.966
86602W        W58928   7.310  43.235  10.579
86603W        W58929   5.927   5.779   1.445
86604W        W58930  26.463  38.426   3.723
86605W        W58931  40.205  36.115   1.017
86606W        W58932  18.139  25.007  12.658
86607W        W58933  14.636  13.103  11.143
86608W        W58934   9.685  22.082  10.908
86609W        W58935  12.343  38.541  12.405
86610W        W58936  26.923  28.926  12.938
86611W        W58937  34.924   1.677  13.944
86612W        W58938  40.598  30.161   2.419
86613W        W58939  16.307  29.120  11.568
86614W        W58940  32.517  12.838  10.629
86615W        W58941  19.550  35.937   2.759
86616W        W58942  17.788  33.440  12.635
86617W        W58943  12.455  20.098  12.138
86618W        W58944   2.457  24.418   3.233
86619W        W58945   4.958  32.954  11.061
86620W        W58946   1.909  13.158   4.262
86621W        W58947  15.762  30.596  10.311
86622W        W58948  40.060  29.473  14.506
86623W        W58949  32.627   1.822   3.281
86624W        W58950  39.521  37.529  14.959
86625W        W58951  16.100  15.647   2.679
86626W        W58952  17.347  22.088  10.726
86627W        W58953   1.608  24.013   5.571
86628W        W58954  27.430  17.763   2.607
86629W        W58955  20.206  24.244  10.725
86630W        W58956  30.439   5.335   3.864
86631W        W58957   6.182  33.869   1.651
86632W        W58958  44.489  42.853   1.413
86633W        W58959  27.488  24.723  11.468
86634W        W58960  10.805  36.422   4.239
86635W        W58961  12.123   0.367  10.567
86636W        W58962  34.541  32.330   4.568
86637W        W58963  22.479   9.719  14.514
86638W        W58964  35.855  30.636  12.619
86639W        W58965  15.046  10.408  14.857
86640W        W58966  39.463  20.096   2.223
86641W        W58967   1.330  14.131  13.833
86642W        W58968   3.804  17.021   1.894
86643W        W58969  31.290  23.571  10.260
86644W        W58970  34.920  17.952   0.454
86645W        W58971  27.513  36.975  12.382
86646W        W58972  44.714  37.621   2.504
86647W        W58973  32.487  42.035  14.030
86648W        W58974  20.077  32.485   0.020
86649W        W58975  33.204   8.933  11.081
86650W        W58976  34.442  16.770   3.877
86651W        W58977  24.188  25.518   3.760
86652W        W58978   3.949  14.168  12.845
86653W        W58979  28.006   3.014  12.981
86654W        W58980   4.640  22.624   3.775
86655W        W58981  11.785  14.158   0.930
86656W        W58982  14.801  29.932   2.076
86657W        W58983  17.570  30.051   0.920
86658W        W58984   9.191  25.706  14.068
86659W        W58985   5.600  42.025   0.399
86660W        W58986  25.400  18.270   4.649
86661W        W58987  16.870   2.913  11.592
86662W        W58988  18.176  21.611  13.553
86663W        W58989   9.585  19.256  14.364
86664W        W58990  21.226  41.291  13.426
86665W        W58991  42.997  32.665   1.232
86666W        W58992  39.551   0.299  10.884
86667W        W58993  35.872  31.168   2.789
86668W        W58994  19.037  18.938  14.942
86669W        W58995  35.940  33.625  11.856
86670W        W58996   5.788  40.792   1.115
86671W        W58997   4.311  36.789  14.340
86672W        W58998  13.647  21.379  12.052
86673W        W58999  13.171  16.685   0.894
86674W        W59000  40.385  10.703   0.188
86675W        W59001  19.830  32.103   0.739
86676W        W59002   4.513  11.898   4.631
86677W        W59003  10.273  28.699  11.161
86678W        W59004  32.540  27.204   1.921
86679W        W59005  42.934  22.117   1.846
86680W        W59006  44.931  38.364   3.101
86681W        W59007  17.727  31.552  12.060
86682W        W59008  17.355  22.043   0.957
86683W        W59009  24.638  35.620   4.701
86684W        W59010  40.516   6.291   1.306
86685W        W59011  17.693   1.307  13.011
86686W        W59012  18.720   6.252   1.305
86687W        W59013   2.201  11.983  10.631
86688W        W59014  43.924  11.244   1.310
86689W        W59015  40.893  42.034  14.259
86690W        W59016  44.979   0.215   0.007
86691W        W59017  20.766  43.995   0.442
86692W        W59018  44.166  26.644  10.295
86693W        W59019  28.125  39.347   4.236
86694W        W59020  22.583  17.139  10.419
86695W        W59021  23.484  28.134  11.122
86696W        W59022   2.275  40.361   3.739
86697W        W59023  16.699  32.440  10.773
86698W        W59024   0.557  43.382   0.286
86699W        W59025   4.386   3.540   0.736
86700W        W59026   9.132  31.308  11.922
86701W        W59027  37.986  40.711   0.924
86702W        W59028  30.622  38.431   3.592
86703W        W59029  42.433  41.299  12.340
86704W        W59030  21.653  24.393   1.385
86705W        W59031  42.449  23.722   4.116
86706W        W59032  43.404  33.429  14.356
86707W        W59033  13.606  39.992  11.553
86708W        W59034  33.157  36.455   1.261
86709W        W59035  18.711  28.530  14.329
86710W        W59036  15.162   6.272   0.305
86711W        W59037  28.051  30.060  12.342
86712W        W59038   1.844  26.887  11.593
86713W        W59039  26.666  36.942  12.114
86714W        W59040   0.157   3.848  13.355
86715W        W59041  18.754   2.511   4.189
86716W        W59042  30.661  25.572   2.616
86717W        W59043  43.866  21.588  11.830
86718W        W59044   9.259  16.817  11.931
86719W        W59045  11.587  32.235  13.582
86720W        W59046  31.543  33.962  14.271
86721W        W59047  31.107  39.909  13.974
86722W        W59048  41.603   6.155  12.501
86723W        W59049  37.313  20.381  11.483
86724W        W59050   6.243  22.686   1.120
86725W        W59051   9.004  42.880  12.564
86726W        W59052  31.704  33.459   1.694
86727W        W59053  16.299  24.011   2.271
86728W        W59054  30.991  40.053   4.106
86729W        W59055  42.576  28.488   1.948
86730W        W59056  34.819  42.850  13.854
86731W        W59057  37.838  18.219   0.747
86732W        W59058  33.456  38.225   4.630
86733W        W59059  41.294   8.567   0.204
86734W        W59060  22.850  31.923   4.094
86735W        W59061  28.873  24.102   1.151
86736W        W59062  17.024  12.145   0.005
86737W        W59063  15.838  10.786   3.274
86738W        W59064  23.861  13.266  12.851
86739W        W59065   4.412   9.329   2.120
86740W        W59066  21.679  34.598   1.261
86741W        W59067   0.675  42.960  14.100
86742W        W59068  25.576   4.035   3.174
86743W        W59069   1.686  22.916  13.242
86744W        W59070  18.868  10.624   4.102
86745W        W59071  43.908   8.603  11.704
86746W        W59072  42.987  34.578   0.954
86747W        W59073   4.909  34.520   2.935
86748W        W59074  12.912  19.957  13.322
86749W        W59075   8.805  31.893   1.569
86750W        W59076  16.235  29.933  12.135
86751W        W59077  18.515  14.565   1.228
86752W        W59078  40.987  10.414  11.471
86753W        W59079  43.317  44.296  11.252
86754W        W59080  28.158  15.036  11.669
86755W        W59081  23.767   8.851   1.796
86756W        W59082  37.449  34.367   1.378
86757W        W59083   3.448  12.641  11.429
86758W        W59084  31.541  19.178  13.100
86759W        W59085  32.166  40.341  11.509
86760W        W59086  22.875  36.036   3.614
86761W        W59087  14.777   7.751   4.089
86762W        W59088  11.657   9.794  11.671
86763W        W59089   4.208   1.829  11.069
86764W        W59090  17.579  27.507  14.466
86765W        W59091  37.052  19.192  14.861
86766W        W59092  31.387  26.742   4.140
86767W        W59093  19.545   9.085  11.187
86768W        W59094  28.557  23.188   2.118
86769W        W59095  15.161   1.692  11.632
86770W        W59096  20.766  36.802  10.737
86771W        W59097  44.177  16.106   3.415
86772W        W59098  26.620  31.121   0.505
86773W        W59099   0.251  25.046   4.593
86774W        W59100   6.847   5.239  14.905
86775W        W59101  11.275   1.746   1.662
86776W        W59102  34.559  24.791   3.303
86777W        W59103  41.764  29.392   1.279
86778W        W59104  16.385  30.172   1.424
86779W        W59105  15.723  14.182  11.560
86780W        W59106  40.964  42.477  14.739
86781W        W59107  14.176   1.759  11.676
86782W        W59108   4.808   1.131  11.701
86783W        W59109  28.601  12.156   0.161
86784W        W59110   3.938   3.541  11.853
86785W        W59111   9.015   0.162  11.446
86786W        W59112  41.479  33.704   4.716
86787W        W59113  30.173  42.424   1.489
86788W        W59114  32.586  36.103  13.987
86789W        W59115  15.593  40.108   4.499
86790W        W59116  33.600  42.067  11.204
86791W        W59117  16.194   9.581  12.645
86792W        W59118  37.993  22.673   9.532
86793W        W59119  27.939  20.393  11.957
86794W        W59120   3.698  21.289   9.998
86795W        W59121  16.080   6.126  10.997
86796W        W59122  42.302   7.376  14.441
86797W        W59123  33.408  38.447   1.180
86798W        W59124   2.808  44.417   1.582
86799W        W59125  16.161  30.651  11.549
86800W        W59126   8.320  29.341  11.230
86801W        W59127  39.319  15.476   3.786
86802W        W59128  15.669   6.183   0.372
86803W        W59129  37.167  30.912   3.311
86804W        W59130  22.273  15.788  14.063
86805W        W59131   8.118  41.607   2.593
86806W        W59132  23.885  34.488  14.556
86807W        W59133  10.708   0.832   3.308
86808W        W59134  30.155   4.798  13.821
86809W        W59135  23.512  20.087  10.712
86810W        W59136   2.479  17.177  12.652
86811W        W59137  32.655  35.439  12.455
86812W        W59138  18.304  31.527   2.464
86813W        W59139  13.203  24.169   3.928
86814W        W59140  29.739  23.576   4.516
86815W        W59141  28.034  20.718   2.892
86816W        W59142  28.938  43.453   0.383
86817W        W59143  35.171  33.396  10.649
86818W        W59144  13.191  25.485   4.145
86819W        W59145  22.931  17.148   5.445
86820W        W59146  14.868  12.154   4.456
86821W        W59147  16.872  37.999  12.277
86822W        W59148   4.792  38.374   3.407
86823W        W59149   1.022  19.705  12.956
86824W        W59150  19.508  16.572  11.912
86825W        W59151  31.526  23.476  13.729
86826W        W59152  18.070  38.007   0.404
86827W        W59153  20.930  24.700  11.208
86828W        W59154   1.461  29.777   0.724
86829W        W59155  21.717  18.507  12.497
86830W        W59156  11.716  28.980  10.607
86831W        W59157  11.766  37.876   3.287
86832W        W59158   8.903  16.841   3.716
86833W        W59159   2.912  14.799   4.376
86834W        W59160  30.407  24.285  13.442
86835W        W59161   1.548  35.600   4.133
86836W        W59162  18.281  31.612  11.660
86837W        W59163  29.932  16.527   1.894
86838W        W59164  40.042  22.535  11.137
86839W        W59165   8.209  34.873  10.926
86840W        W59166  34.442  38.531  12.439
86841W        W59167  29.929  15.490  10.689
86842W        W59168   5.532   9.491  11.110
86843W        W59169  25.325  17.066   1.874
86844W        W59170  22.279  35.374   1.354
86845W        W59171  18.744  12.735  12.267
86846W        W59172  26.218  30.669  12.927
86847W        W59173  15.335   8.029   4.740
86848W        W59174   4.631  12.235   2.709
86849W        W59175  28.485  31.691  13.160
86850W        W59176  42.361  32.596  11.181
86851W        W59177   6.407  25.452  14.539
86852W        W59178  34.165  35.459  10.315
86853W        W59179  37.547  18.248   2.358
86854W        W59180  26.868  24.990  10.709
86855W        W59181  13.650  23.975   0.852
86856W        W59182  27.828  15.509  10.301
86857W        W59183  30.123  38.349   3.330
86858W        W59184  37.119  12.787  12.546
86859W        W59185  36.684  21.288   1.301
86860W        W59186  29.255   6.004   1.148
86861W        W59187   6.884  18.040  13.897
86862W        W59188   8.654   2.678   4.687
86863W        W59189  25.040  16.541   2.743
86864W        W59190  20.228  22.283  10.950
86865W        W59191  40.489  10.821   3.196
86866W        W59192  13.960  15.116  13.312
86867W        W59193  20.775   2.917  11.513
86868W        W59194  35.527   7.878  11.700
86869W        W59195  17.622  26.148  14.416
86870W        W59196   0.241  25.814  11.986
86871W        W59197  24.419  35.007   2.193
86872W        W59198  44.498  26.512   9.893
86873W        W59199  11.399  28.549  10.620
86874W        W59200  43.729  17.273  11.881
86875W        W59201  10.429  32.796  10.879
86876W        W59202  30.418  39.477   2.888
86877W        W59203  21.692  27.994  10.702
86878W        W59204  37.753  17.682  12.500
86879W        W59205  38.516  20.234   0.249
86880W        W59206   5.048  18.535   3.182
86881W        W59207  25.966   0.447  12.091
86882W        W59208  15.095  22.667   1.680
86883W        W59209  41.627  36.288  14.173
86884W        W59210  21.716  35.490  13.681
86885W        W59211  34.515  34.505   4.731
86886W        W59212  13.148  23.830   2.949
86887W        W59213  27.938  29.677   2.639
86888W        W59214  17.653  21.615  14.439
86889W        W59215  25.640   9.553  12.128
86890W        W59216  25.997  22.724  14.540
86891W        W59217  27.508  18.586  14.893
86892W        W59218   7.252  36.830   1.528
86893W        W59219  21.062  24.951  11.657
86894W        W59220  32.459  10.827  12.574
86895W        W59221   1.318  19.093  13.241
86896W        W59222  40.816   2.983   0.136
86897W        W59223  22.098   7.860   2.029
86898W        W59224  38.506  29.136  14.311
86899W        W59225  31.379  26.954  12.277
86900W        W59226  23.939   8.637  12.987
86901W        W59227  19.810  25.053  11.590
86902W        W59228   8.241  40.496  14.969
86903W        W59229  23.579  12.943  14.508
86904W        W59230  43.268  34.388  12.983
86905W        W59231  29.314  15.293   2.231
86906W        W59232  38.374  14.358   1.250
86907W        W59233  12.534  27.503  10.672
86908W        W59234  16.818  19.560   1.877
86909W        W59235  14.385   2.424   1.897
86910W        W59236  34.373  13.675   0.171
86911W        W59237  36.854  22.629   4.317
86912W        W59238  34.484  13.167   0.242
86913W        W59239   3.807  44.161  14.789
86914W        W59240   7.392   5.706  10.425
86915W        W59241   6.938   6.698  13.596
86916W        W59242   0.942  22.427   3.015
86917W        W59243   9.411  24.690   4.297
86918W        W59244  32.501  39.855  10.679
86919W        W59245  43.856  21.971  12.203
86920W        W59246  34.902   2.999  11.643
86921W        W59247  15.553  38.566  11.956
86922W        W59248   8.220   8.872   3.106
86923W        W59249  28.194  13.406  13.717
86924W        W59250   6.427   4.972  14.750
86925W        W59251  11.119  39.526   3.668
86926W        W59252   3.200  23.961  12.568
86927W        W59253  26.730  15.299  11.702
86928W        W59254   5.981   3.188  13.875
86929W        W59255   0.889  44.034  13.535
86930W        W59256  23.210  35.837  13.488
86931W        W59257  21.117  29.482   1.891
86932W        W59258  29.773  32.604   4.556
86933W        W59259  30.050  21.051  12.923
86934W        W59260  22.459   5.989   0.014
86935W        W59261  21.141  31.521  14.292
86936W        W59262  39.836  34.389  10.534
86937W        W59263  14.142  32.169  14.373
86938W        W59264   5.777  20.892  11.581
86939W        W59265   2.925  19.489  13.540
86940W        W59266  33.192   3.263   1.302
86941W        W59267  19.546   7.237  14.419
86942W        W59268  31.128  31.886  13.905
86943W        W59269  29.139  16.709  10.715
86944W        W59270  41.291  16.468   2.852
86945W        W59271  35.444  43.899   4.117
86946W        W59272  19.031  18.871   0.743
86947W        W59273  25.294  28.938  11.869
86948W        W59274  43.843   2.852   0.078
86949W        W59275  14.126  35.349   2.767
86950W        W59276  34.160  27.977  13.912
86951W        W59277   2.818  27.647   0.915
86952W        W59278   8.851  18.279  10.365
86953W        W59279   2.976   2.732   4.651
86954W        W59280   1.420   2.363   2.920
86955W        W59281  40.234  17.386   0.988
86956W        W59282  15.523  42.288   1.495
86957W        W59283  15.350  22.234   0.796
86958W        W59284   1.227  40.732   4.818
86959W        W59285  33.557   3.840  14.095
86960W        W59286   0.053  19.112  12.383
86961W        W59287  42.885  32.400   0.317
86962W        W59288  29.025  23.814   3.830
86963W        W59289  15.739  38.801   5.050
86964W        W59290  43.071  32.939   4.028
86965W        W59291  44.242  44.037  14.432
86966W        W59292  27.652   7.178  12.997
86967W        W59293  33.672  33.436  10.571
86968W        W59294  31.039  27.974   1.920
86969W        W59295  40.599  39.890   3.823
86970W        W59296  26.445   9.666   2.764
86971W        W59297   7.250   0.214  12.770
86972W        W59298   2.400  42.315   0.440
86973W        W59299   7.511   0.260  13.796
86974W        W59300   1.873   8.005  11.886
86975W        W59301   5.774  14.534  14.231
86976W        W59302  30.031  43.931  10.361
86977W        W59303   5.117  34.861  14.608
86978W        W59304  39.797  37.420  10.230
86979W        W59305  16.078   6.524  11.314
86980W        W59306   3.232  32.399   3.305
86981W        W59307  30.072  27.922   2.357
86982W        W59308  17.744  44.974  13.926
86983W        W59309  39.664  10.660   5.561
86984W        W59310  11.860  32.668   1.174
86985W        W59311  17.250  19.550   3.192
86986W        W59312  34.980  36.618   4.162
86987W        W59313  43.428   5.517   0.247
86988W        W59314   9.190  13.303  14.500
86989W        W59315   3.958  20.115   1.377
86990W        W59316  27.615  34.439  13.793
86991W        W59317   1.371   5.236  13.807
86992W        W59318  41.398   0.475  11.170
86993W        W59319   1.506  27.364   2.239
86994W        W59320  26.707  27.829   2.292
86995W        W59321   5.624  30.351  13.804
86996W        W59322  38.721  17.595   2.475
86997W        W59323  34.252   3.356  10.881
86998W        W59324   4.313  16.514   4.163
86999W        W59325  12.213  11.255   4.752
87000W        W59326  18.131  35.622  12.047
87001W        W59327   5.894   5.748  13.161
87002W        W59328  25.316  33.712  11.165
87003W        W59329   4.379  17.523   0.503
87004W        W59330   9.274  23.292   3.152
87005W        W59331  28.127  16.420   0.961
87006W        W59332   1.750  34.233  14.119
87007W        W59333   9.259  18.732  10.508
87008W        W59334  33.945  36.348   4.592
87009W        W59335   1.257  38.460   1.318
87010W        W59336   6.122  19.684   5.090
87011W        W59337  28.025   9.902   1.425
87012W        W59338  18.632  39.764  13.003
87013W        W59339  13.784  10.808   4.581
87014W        W59340   8.311  41.089  12.014
87015W        W59341  34.036   2.473   3.797
87016W        W59342  25.641  15.008  13.922
87017W        W59343   6.215   9.280  10.501
87018W        W59344  30.185  11.189   0.004
87019W        W59345  31.061  31.390   1.653
87020W        W59346  26.430  27.405   2.383
87021W        W59347  37.042   9.380   1.856
87022W        W59348  30.089  33.716   4.643
87023W        W59349  10.881  19.702  14.969
87024W        W59350   3.498  36.871   2.066
87025W        W59351  44.503  18.126   1.407
87026W        W59352  37.345   5.998  12.933
87027W        W59353  29.860   7.330   2.124
87028W        W59354  21.291  32.909  11.779
87029W        W59355   1.284  17.773   2.589
87030W        W59356  37.931   3.658  14.789
87031W        W59357   9.800   2.060  10.632
87032W        W59358   7.749  35.838   4.677
87033W        W59359  24.780   4.841   4.097
87034W        W59360  15.720  24.084   2.473
87035W        W59361  19.539  44.055   4.613
87036W        W59362  29.130  24.559   3.648
87037W        W59363  22.719  21.486  13.380
87038W        W59364   5.472   2.405  13.775
87039W        W59365   2.406  41.365   3.737
87040W        W59366   8.969  38.740   3.752
87041W        W59367  24.688  27.246   4.587
87042W        W59368   5.278  33.855   4.284
87043W        W59369   3.666  41.528   3.111
87044W        W59370  19.577  42.803  12.572
87045W        W59371  32.823  13.759   4.264
87046W        W59372  14.805  22.779  12.078
87047W        W59373   0.022   9.691   0.319
87048W        W59374   1.387  23.588  12.535
87049W        W59375  10.835  10.776   3.735
87050W        W59376  35.478  16.216  12.903
87051W        W59377  10.720  33.725   2.520
87052W        W59378  31.537  38.610  11.510
87053W        W59379  22.961  34.963   2.523
87054W        W59380  33.358   6.282  12.903
87055W        W59381  10.176  19.971   0.236
87056W        W59382   4.932  37.906   3.879
87057W        W59383  14.567  30.667   2.902
87058W        W59384  16.530   9.632   3.373
87059W        W59385   0.486   1.188  11.556
87060W        W59386  31.413  15.757   0.827
87061W        W59387  42.795   3.322   1.726
87062W        W59388  14.308  12.657   0.049
87063W        W59389  26.529  41.333   4.422
87064W        W59390  32.957  41.756  13.942
87065W        W59391   4.943  13.974   0.670
87066W        W59392  31.946  23.590  10.049
87067W        W59393  30.731  17.279  14.751
87068W        W59394   2.597   6.292   1.403
87069W        W59395  21.534  28.671  13.733
87070W        W59396  28.590   2.343   4.144
87071W        W59397   0.345  41.631   0.833
87072W        W59398   9.501  36.479   4.361
87073W        W59399  13.619  40.032   2.240
87074W        W59400  10.113  12.586   2.444
87075W        W59401  44.491   8.176   2.715
87076W        W59402   9.760  13.613  13.377
87077W        W59403  42.338  27.513  14.358
87078W        W59404  34.096  39.454  13.677
87079W        W59405  21.583  14.721  13.846
87080W        W59406  37.265   0.434   1.287
87081W        W59407  33.124  11.854  11.708
87082W        W59408  35.944  18.050  12.199
87083W        W59409  18.128  25.653   0.312
87084W        W59410  40.848  11.343  11.904
87085W        W59411   2.678  13.719   2.332
87086W        W59412  21.774  40.740   2.924
87087W        W59413  42.184  16.692  11.172
87088W        W59414  32.459  36.549  12.615
87089W        W59415   0.737  16.651   0.202
87090W        W59416  35.013  36.109   4.084
87091W        W59417  26.923  32.962  10.823
87092W        W59418  16.142  35.916   1.639
87093W        W59419  30.829  25.134  13.450
87094W        W59420  21.687  28.574   0.657
87095W        W59421  28.207   0.356  13.110
87096W        W59422  13.710  21.057   1.407
87097W        W59423  13.574  42.396   2.113
87098W        W59424   8.104  38.562  12.554
87099W        W59425   0.629  33.375   3.921
87100W        W59426  36.871  20.647  11.467
87101W        W59427  44.021   7.947   0.752
87102W        W59428  40.931   7.670   1.419
87103W        W59429  38.467  12.938   1.775
87104W        W59430   2.323  37.124   3.802
87105W        W59431  32.699  21.164  12.992
87106W        W59432   1.594  29.947  14.317
87107W        W59433  12.727  34.031  12.641
87108W        W59434   2.918   3.722  10.013
87109W        W59435  43.263  36.834   0.458
87110W        W59436  43.142   1.988   1.537
87111W        W59437  21.270  25.023   1.417
87112W        W59438  17.859   6.747  11.156
87113W        W59439   5.393  38.712  14.482
87114W        W59440  29.480  18.314  11.706
87115W        W59441   0.016  42.551  12.436
87116W        W59442  22.486  44.235   3.692
87117W        W59443   0.855  13.610   3.605
87118W        W59444  35.356   3.730   4.568
87119W        W59445  16.705  12.638  13.634
87120W        W59446   8.043  39.898   0.922
87121W        W59447   3.906  20.633   1.219
87122W        W59448  34.110  38.033   2.538
87123W        W59449  14.514  31.939  13.317
87124W        W59450  10.313  15.555   4.212
87125W        W59451   2.758  39.290   4.107
87126W        W59452  20.332  15.785   1.773
87127W        W59453  38.460  22.290   1.238
87128W        W59454  19.133  10.889  11.144
87129W        W59455  13.703  24.948   5.374
87130W        W59456  29.931  42.189  13.169
87131W        W59457  40.595  21.619  13.904
87132W        W59458  42.283  36.458  13.422
87133W        W59459  36.784  28.900   2.235
87134W        W59460  22.696  10.859   2.769
87135W        W59461  19.368   0.554  13.389
87136W        W59462   2.554  21.453  10.291
87137W        W59463  17.113  19.342   3.659
87138W        W59464  19.182  26.977   1.963
87139W        W59465   0.250  34.386   2.790
87140W        W59466  23.792  21.232   0.884
87141W        W59467  20.495  40.050   0.752
87142W        W59468   4.175  31.104   1.986
87143W        W59469  30.368   2.861   2.154
87144W        W59470  26.990  18.654   3.174
87145W        W59471  20.867  34.508  11.549
87146W        W59472   6.189  21.245   0.508
87147W        W59473  23.673   8.322   1.796
87148W        W59474  20.035   9.273  11.192
87149W        W59475   5.131  22.520   4.113
87150W        W59476  12.554   8.642  12.485
87151W        W59477  19.081   2.644  12.500
87152W        W59478  41.933  34.443   1.892
87153W        W59479  33.983  28.224   3.639
87154W        W59480  34.999   3.789  14.658
87155W        W59481   6.103  25.639  12.562
87156W        W59482  20.673   6.058   4.324
87157W        W59483  19.755  33.457  13.000
87158W        W59484  35.873  41.526   4.176
87159W        W59485   9.089   2.536  13.834
87160W        W59486   1.684  11.232  11.675
87161W        W59487   2.402  39.527   0.326
87162W        W59488  22.692  11.326   1.180
87163W        W59489  28.011  38.080  14.903
87164W        W59490  44.251  33.637   2.280
87165W        W59491  29.322  31.396  12.833
87166W        W59492  44.027  30.240  13.419
87167W        W59493  23.051  29.389   4.894
87168W        W59494   3.828  17.646   3.714
87169W        W59495   0.898  42.066   4.604
87170W        W59496   0.523  10.435  13.475
87171W        W59497   6.833  30.835  11.647
87172W        W59498  22.048  36.282   1.641
87173W        W59499  20.782  17.164  13.953
87174W        W59500  23.291   9.177  13.836
87175W        W59501   4.428  36.298   2.254
87176W        W59502   0.849  24.190   4.238
87177W        W59503  33.171  32.106   4.995
87178W        W59504   0.104  39.490  12.319
87179W        W59505  43.798  15.083  14.774
87180W        W59506  14.251   5.358   4.763
87181W        W59507   5.168   0.287  14.506
87182W        W59508  38.340  42.082  14.859
87183W        W59509  32.489  12.840   0.652
87184W        W59510   9.640  21.701   1.300
87185W        W59511   9.355   2.358  10.652
87186W        W59512  20.124  38.347  11.622
87187W        W59513  14.710   3.496   1.858
87188W        W59514  12.838  44.868   3.634
87189W        W59515  38.759   6.037   4.968
87190W        W59516  44.400  22.971  13.950
87191W        W59517   4.445  14.837  11.929
87192W        W59518  28.454   4.299  13.374
87193W        W59519   4.127  28.005   4.189
87194W        W59520  11.261  16.978   3.769
87195W        W59521  33.030  13.976   0.552
87196W        W59522  40.831   9.813   0.295
87197W        W59523  17.669   5.446  12.689
87198W        W59524  29.096  39.005  11.953
87199W        W59525   0.573  33.994  11.087
87200W        W59526  39.738  39.977   4.064
87201W        W59527  10.949  21.051   0.752
87202W        W59528  16.728   5.198  11.610
87203W        W59529   4.124  32.064  14.091
87204W        W59530   3.494  34.678   4.480
87205W        W59531  22.960  11.301  12.436
87206W        W59532   5.448  24.703   0.931
87207W        W59533  27.093   5.805  12.424
87208W        W59534  25.992  29.641  13.156
87209W        W59535  24.734  41.597   4.102
87210W        W59536  29.231  24.261   0.243
87211W        W59537  25.667  30.821  12.917
87212W        W59538  30.427  36.002  11.529
87213W        W59539   5.223  34.984  14.116
87214W        W59540  13.667   2.688   0.895
87215W        W59541   9.702  12.815   2.720
87216W        W59542   0.499  33.517   2.876
87217W        W59543   2.192   2.840  14.203
87218W        W59544   4.888   7.826   0.917
87219W        W59545   7.167   2.945   2.828
87220W        W59546  30.280  22.161  11.451
87221W        W59547  23.283  33.937  13.793
87222W        W59548  25.471  12.207  11.920
87223W        W59549  44.488   2.878   2.725
87224W        W59550  13.645  32.923   5.658
87225W        W59551  42.279  14.097   1.687
87226W        W59552  15.634  38.723   1.336
87227W        W59553  36.989  13.190   0.316
87228W        W59554  25.509  38.455   3.065
87229W        W59555  19.265  36.104  12.039
87230W        W59556  39.912  40.219   1.265
87231W        W59557  18.625   7.239   0.343
87232W        W59558  17.362  11.939   5.054
87233W        W59559  20.580  18.543  14.733
87234W        W59560  10.665  29.178  13.567
87235W        W59561  19.140  33.334   0.358
87236W        W59562  27.632   6.620  11.086
87237W        W59563   7.379  13.108   2.804
87238W        W59564  15.548  10.312   2.217
87239W        W59565  13.025  35.507  10.547
87240W        W59566   9.201  44.958  12.214
87241W        W59567  38.124   0.883  13.056
87242W        W59568  19.225   5.932  11.471
87243W        W59569  10.538  31.146   5.144
87244W        W59570  24.780   8.013  10.887
87245W        W59571  20.369  36.365   2.369
87246W        W59572  41.138  16.732  11.922
87247W        W59573  35.164  38.532   4.288
87248W        W59574  42.911   4.317   0.240
87249W        W59575  44.281   5.758  12.973
87250W        W59576  17.441   5.751  14.356
87251W        W59577  43.263   6.648  11.361
87252W        W59578  37.930  44.685  10.999
87253W        W59579   1.888  40.843   4.193
87254W        W59580   2.613  32.198  13.085
87255W        W59581  21.712   7.562   0.220
87256W        W59582  16.124  42.382  14.221
87257W        W59583   9.144  26.624  14.494
87258W        W59584  34.393  18.474  10.652
87259W        W59585   6.607  44.028   2.773
87260W        W59586  28.607  18.716  13.766
87261W        W59587   6.137  35.475  12.074
87262W        W59588  27.438  29.006  11.425
87263W        W59589  28.206   1.256   2.449
87264W        W59590  30.118  13.732  13.881
87265W        W59591  10.899  20.679   1.803
87266W        W59592   0.913   4.615  10.210
87267W        W59593   5.331   0.447  14.975
87268W        W59594  34.555   9.217  14.458
87269W        W59595  23.012  43.061   2.941
87270W        W59596  36.837  36.526   0.839
87271W        W59597  27.682  19.719  12.478
87272W        W59598  13.260  25.102   3.396
87273W        W59599   9.798  41.440   1.789
87274W        W59600  28.897   9.680   3.107
87275W        W59601   0.258  21.238   0.813
87276W        W59602  16.255  22.128  14.514
87277W        W59603  12.452  20.604   1.950
87278W        W59604  35.331  18.562  11.564
87279W        W59605  29.039  34.677  10.732
87280W        W59606  29.144  30.528   2.331
87281W        W59607  42.723  17.778   3.355
87282W        W59608   2.982  33.523  11.387
87283W        W59609  32.465  22.080   3.371
87284W        W59610  24.531  10.514  13.687
87285W        W59611  12.626   5.787  12.029
87286W        W59612  16.601  41.443   2.701
87287W        W59613  36.549  17.799  12.861
87288W        W59614  40.426  34.194  11.498
87289W        W59615  15.566  40.737   1.260
87290W        W59616  10.701   3.431   2.702
87291W        W59617  24.142  41.945   1.871
87292W        W59618  23.720  23.154  13.007
87293W        W59619  42.811  28.512  11.054
87294W        W59620  37.372   5.795  14.836
87295W        W59621   3.100  24.740   4.647
87296W        W59622  18.715  44.624  14.728
87297W        W59623  39.993  43.585   3.138
87298W        W59624  31.440  44.072  13.940
87299W        W59625  41.445  36.301   4.064
87300W        W59626   5.905  40.799  11.653
87301W        W59627   3.968   2.858   2.598
87302W        W59628   9.309  41.826  10.614
87303W        W59629  23.561  39.981  10.253
87304W        W59630   5.843   6.267  14.728
87305W        W59631  40.101   4.990  14.036
87306W        W59632  26.755  23.113  11.175
87307W        W59633   2.494  19.051  10.730
87308W        W59634  32.466  34.877   2.985
87309W        W59635   1.936  12.515   3.279
87310W        W59636  11.959  14.924   4.004
87311W        W59637  44.608   0.855  12.668
87312W        W59638  43.490  37.947   0.258
87313W        W59639   9.335  41.810   3.151
87314W        W59640   7.106  24.058   4.145
87315W        W59641  35.379   5.378  11.911
87316W        W59642   8.674  36.439  11.615
87317W        W59643  31.575  10.428  12.906
87318W        W59644  19.989  23.099  12.419
87319W        W59645  38.872  24.298   3.198
87320W        W59646  40.464   1.262   2.643
87321W        W59647   6.368  25.037  12.848
87322W        W59648   6.541   9.085  10.147
87323W        W59649   0.752  21.950  14.365
87324W        W59650   5.645   1.557   0.227
87325W        W59651  44.012  32.780  11.164
87326W        W59652  43.669  16.295  14.433
87327W        W59653  29.752  35.546   1.260
87328W        W59654  35.807  33.062   3.189
87329W        W59655  19.500  14.651   3.692
87330W        W59656   1.866  42.471   0.227
87331W        W59657  23.232  44.873  12.491
87332W        W59658  14.393  24.705  10.256
87333W        W59659  18.740  16.754  12.482
87334W        W59660  26.102  15.851   3.865
87335W        W59661  19.975  16.853   2.736
87336W        W59662  35.500  42.566   3.873
87337W        W59663   4.389  18.639  12.897
87338W        W59664  22.460  17.773   1.932
87339W        W59665  39.803   7.918  14.185
87340W        W59666   3.741  14.686   0.239
87341W        W59667   2.290  40.073   3.235
87342W        W59668  39.060  39.898   2.800
87343W        W59669  29.228  33.859   3.373
87344W        W59670  35.422  13.338  10.913
87345W        W59671  22.651   6.808  12.600
87346W        W59672  14.225  42.159  10.727
87347W        W59673  11.836  29.552  11.732
87348W        W59674  10.602  10.199  13.801
87349W        W59675   0.538  22.083   3.677
87350W        W59676  36.277  15.079   2.165
87351W        W59677  24.147  11.727  11.149
87352W        W59678  40.976   2.449   4.201
87353W        W59679  16.286  20.765   4.101
87354W        W59680  35.621  43.250  12.858
87355W        W59681   6.823  38.648   4.112
87356W        W59682  33.664  17.155  14.452
87357W        W59683  17.063  10.678   0.785
87358W        W59684   2.173   0.816   4.879
87359W        W59685  20.486  37.687   3.787
87360W        W59686  38.496  18.084   3.779
87361W        W59687  37.137  39.986   0.406
87362W        W59688  27.030  29.187   4.965
87363W        W59689  25.888   5.968   0.224
87364W        W59690  15.063   2.338  12.966
87365W        W59691  20.774  35.121  14.379
87366W        W59692  11.574  32.389   0.794
87367W        W59693   7.433  38.971   3.677
87368W        W59694  28.950  21.450   1.720
87369W        W59695  32.422  18.127  13.505
87370W        W59696  21.191  39.305   1.174
87371W        W59697  22.528  13.341   1.940
87372W        W59698  16.752  27.177  13.416
87373W        W59699  11.643  26.588  11.653
87374W        W59700  35.354  15.411   1.821
87375W        W59701  22.539  32.914   2.415
87376W        W59702   8.562  28.089  14.369
87377W        W59703   5.698  26.960   0.905
87378W        W59704   2.898  24.188  12.936
87379W        W59705   6.556  43.825  12.609
87380W        W59706   1.029  36.664  11.318
87381W        W59707  43.419  31.110   2.189
87382W        W59708   8.002  10.125  12.824
87383W        W59709  27.616  26.276  10.029
87384W        W59710  10.680  15.145  14.435
87385W        W59711  37.136  21.088   1.167
87386W        W59712  20.403  40.065   1.726
87387W        W59713  40.464  14.751   4.355
87388W        W59714  27.872  21.096  13.465
87389W        W59715   9.440  42.280  14.307
87390W        W59716   6.213  24.442   4.543
87391W        W59717  22.350   8.839   0.836
87392W        W59718  36.472  19.605   4.571
87393W        W59719  26.594   2.824  11.125
87394W        W59720  21.827  25.401  13.446
87395W        W59721  13.002  18.783  13.324
87396W        W59722  24.088  18.872  13.108
87397W        W59723   4.810  41.292  12.162
87398W        W59724  40.869  14.376  11.123
87399W        W59725   1.189  27.838   5.188
87400W        W59726   7.282  43.412   2.690
87401W        W59727  29.895  40.491  12.065
87402W        W59728  44.981   2.908   5.849
87403W        W59729  32.892  21.789  11.892
87404W        W59730  34.558   8.483  11.124
87405W        W59731  30.539  13.366   3.027
87406W        W59732  22.002  32.364  13.071
87407W        W59733  29.187  21.288  13.908
87408W        W59734  32.313   3.261  13.748
87409W        W59735  36.080  29.412  13.292
87410W        W59736  36.617  44.263  11.143
87411W        W59737  34.442  39.315   3.734
87412W        W59738  22.782  28.642  11.146
87413W        W59739  19.560  40.763  12.174
87414W        W59740  42.620  29.629  10.552
87415W        W59741  21.705  14.150  11.585
87416W        W59742  40.885  19.613   3.190
87417W        W59743  36.104  23.165  14.804
87418W        W59744  44.834   5.712   0.484
87419W        W59745  20.593  15.262  10.700
87420W        W59746  26.912  36.327   0.714
87421W        W59747   8.335  32.192  14.052
87422W        W59748   0.801  40.414   0.423
87423W        W59749  32.959   0.498   3.888
87424W        W59750  37.732   9.525   0.918
87425W        W59751   5.600  15.181   4.502
87426W        W59752   4.006  14.569  14.790
87427W        W59753  33.952   9.681   4.539
87428W        W59754  38.579  15.198   4.192
87429W        W59755  14.630  41.368  13.947
87430W        W59756  14.910  28.900  12.878
87431W        W59757  17.281  11.054   1.636
87432W        W59758   1.490   8.275   3.490
87433W        W59759  23.794  10.674   4.520
87434W        W59760  18.663  20.922   1.654
87435W        W59761  13.576  31.387  12.954
87436W        W59762  35.636  37.060  13.427
87437W        W59763   7.631  31.329   1.922
87438W        W59764  20.802   6.736   2.278
87439W        W59765  40.244  44.743  10.949
87440W        W59766   4.304  34.599  11.093
87441W        W59767  39.523  12.678  12.138
87442W        W59768  27.923  18.236  12.427
87443W        W59769  42.408  43.391   0.996
87444W        W59770  35.435  14.398   2.327
87445W        W59771   5.032  15.697  14.208
87446W        W59772  21.324  36.511   4.144
87447W        W59773  39.004  23.882  11.654
87448W        W59774  35.531  21.018  11.258
87449W        W59775  35.926  21.074  13.848
87450W        W59776  13.154   4.306   3.836
87451W        W59777   6.317  19.821  14.350
87452W        W59778  30.933  32.656  12.905
87453W        W59779  24.462  19.047   2.858
87454W        W59780  28.294  19.071  14.041
87455W        W59781  29.676  29.379   4.583
87456W        W59782   1.382   1.754  13.563
87457W        W59783   7.768   7.258   4.685
87458W        W59784   4.275  21.888  13.920
87459W        W59785  12.513   9.651  11.158
87460W        W59786   2.943  42.502  14.647
87461W        W59787   2.616  29.517  12.459
87462W        W59788  12.349  14.762   0.089
87463W        W59789   5.349  43.606   0.445
87464W        W59790  19.508  35.304  12.114
87465W        W59791  22.596  30.940   2.280
87466W        W59792  22.685  31.657  13.855
87467W        W59793  44.573  12.399   2.423
87468W        W59794  11.416  21.127   2.185
87469W        W59795  27.646   3.889  10.464
87470W        W59796  42.521  24.182   1.414
87471W        W59797  20.762   1.924  12.214
87472W        W59798  15.728  33.448  11.264
87473W        W59799  14.128  33.587  12.463
87474W        W59800   1.240  39.107   2.767
87475W        W59801  25.946  31.428  10.701
87476W        W59802  18.480  26.668   0.400
87477W        W59803   3.609   3.654   9.866
87478W        W59804  23.981  30.483  14.906
87479W        W59805  29.087  16.664   4.230
87480W        W59806  28.465  22.055  10.952
87481W        W59807  19.314   3.049  12.728
87482W        W59808  39.440  38.864   3.349
87483W        W59809  11.394  28.389   3.240
87484W        W59810  33.631  30.114   4.641
87485W        W59811  28.709  25.021  14.217
87486W        W59812  32.080  29.832   4.630
87487W        W59813  32.635  28.648   4.290
87488W        W59814  22.509  37.445   4.909
87489W        W59815  12.722   6.816   1.763
87490W        W59816  24.929  39.061   4.713
87491W        W59817  33.445  43.214   3.087
87492W        W59818  18.247  20.584   0.712
87493W        W59819   2.787  39.452  11.082
87494W        W59820   1.203  17.669  13.472
87495W        W59821  38.109  24.110  14.408
87496W        W59822  31.419  43.892  13.320
87497W        W59823  28.513  28.248   3.696
87498W        W59824   2.595  34.474  12.962
87499W        W59825  10.224   7.927   0.281
87500W        W59826  41.598  41.502  10.948
87501W        W59827  11.204  32.323  14.885
87502W        W59828  10.947  35.609   3.228
87503W        W59829   6.178   5.889  10.440
87504W        W59830  22.165  16.524   0.001
87505W        W59831   0.725  44.862   3.716
87506W        W59832  14.710  18.304  12.523
87507W        W59833  16.604  17.121  12.068
87508W        W59834   6.862  29.883   2.218
87509W        W59835   9.284  22.503  14.491
87510W        W59836  14.199  27.657  12.970
87511W        W59837  37.376  22.711  11.235
87512W        W59838  24.094  43.506   0.357
87513W        W59839  27.903   5.662  11.107
87514W        W59840  23.667  29.254   1.274
87515W        W59841  10.730  34.976  14.768
87516W        W59842  44.453  39.442   0.849
87517W        W59843  21.723  20.151   4.157
87518W        W59844  42.766  27.076   0.887
87519W        W59845   1.756   9.251  14.688
87520W        W59846   2.756  30.976   3.731
87521W        W59847   4.320  19.312  12.989
87522W        W59848  23.072   8.899  14.261
87523W        W59849   7.104  10.692  13.983
87524W        W59850  39.602  22.692  12.906
87525W        W59851   6.347  24.873   4.851
87526W        W59852   9.372  41.837  13.323
87527W        W59853  44.130  29.102  10.098
87528W        W59854   8.253  39.934  11.676
87529W        W59855   8.750  30.386   4.572
87530W        W59856  25.855  14.105   2.688
87531W        W59857  43.955   6.296   1.323
87532W        W59858  27.552  39.162  10.608
87533W        W59859  44.287  25.690   3.997
87534W        W59860  37.478  33.713   3.724
87535W        W59861  43.280  37.344   0.384
87536W        W59862   4.075  31.287  11.105
87537W        W59863   2.335  12.926   2.762
87538W        W59864  19.609  20.957   4.590
87539W        W59865  11.953  31.195  13.445
87540W        W59866  17.635  20.926  10.561
87541W        W59867  27.581  12.762  13.669
87542W        W59868   7.152   6.800   3.016
87543W        W59869   3.420  25.386   4.004
87544W        W59870  38.958  30.888  11.715
87545W        W59871  30.622  32.655  13.772
87546W        W59872  27.207  23.708  12.826
87547W        W59873  25.213  26.705  14.242
87548W        W59874  30.496  42.175  10.701
87549W        W59875  15.733  16.097   1.821
87550W        W59876  13.319  19.687   0.803
87551W        W59877  18.400   8.791   4.090
87552W        W59878   1.444  15.756  13.458
87553W        W59879  44.581  34.891   2.896
87554W        W59880  33.361   6.831   0.992
87555W        W59881  17.635   5.495   2.810
87556W        W59882  11.947  41.261   0.650
87557W        W59883   0.217  11.220  12.398
87558W        W59884  10.343   1.960   4.770
87559W        W59885  35.806  14.303  11.938
87560W        W59886  11.829  21.619   3.228
87561W        W59887  10.946  34.544   1.815
87562W        W59888   1.779   8.598   1.881
87563W        W59889  26.652  44.998   2.220
87564W        W59890   0.733  18.539   1.416
87565W        W59891  44.582  22.285  12.825
87566W        W59892  35.525  23.176  13.290
87567W        W59893  32.871  44.559  13.354
87568W        W59894  26.452  20.661   3.297
87569W        W59895  44.390  38.991   9.968
87570W        W59896  44.831  20.243   0.435
87571W        W59897  36.789  18.321   0.864
87572W        W59898  11.783  36.369  12.981
87573W        W59899  19.801  11.225  13.306
87574W        W59900  14.059  14.334  10.002
87575W        W59901  23.059  10.854   3.153
87576W        W59902  15.147  14.365   3.353
87577W        W59903  33.236  25.249  10.205
87578W        W59904  22.221  25.452   0.772
87579W        W59905  26.022  43.730  11.732
87580W        W59906  36.341   0.295   1.168
87581W        W59907  22.150  39.836   9.765
87582W        W59908  21.868  44.567   3.238
87583W        W59909  23.623  10.791  10.861
87584W        W59910  36.831  10.279   0.338
87585W        W59911  25.523  37.327  11.671
87586W        W59912  18.753  12.588  12.967
87587W        W59913  15.294  35.796  12.903
87588W        W59914  25.239  26.570  11.216
87589W        W59915  44.723  42.875  11.786
87590W        W59916   5.222  33.929   3.581
87591W        W59917  27.937  10.425   3.744
87592W        W59918  22.092  39.836  12.624
87593W        W59919  22.567  35.050   4.200
87594W        W59920  37.883  13.618  12.640
87595W        W59921  25.931   8.286   3.654
87596W        W59922  38.416   8.956  10.534
87597W        W59923   8.565  15.976  12.578
87598W        W59924  32.925  43.472   4.314
87599W        W59925  22.262  40.371   1.297
87600W        W59926  27.678  25.039   1.711
87601W        W59927  28.810  21.340   4.030
87602W        W59928  12.806  32.676  13.381
87603W        W59929  18.742  13.656   2.707
87604W        W59930   4.005  41.449  13.298
87605W        W59931  39.985  24.636   1.254
87606W        W59932  14.413   1.792   0.865
87607W        W59933   9.743   5.414  13.929
87608W        W59934  23.062  42.337   0.028
87609W        W59935  35.150  32.918  11.484
87610W        W59936  33.638  25.026  13.724
87611W        W59937  43.084  12.293   0.528
87612W        W59938  44.427  43.825   1.791
87613W        W59939   5.623  22.770   4.105
87614W        W59940  41.423  19.242   2.333
87615W        W59941   8.002  32.620  11.081
87616W        W59942  33.223  27.011  11.477
87617W        W59943  43.869  39.400   2.624
87618W        W59944   9.930   2.948   0.908
87619W        W59945  44.968  24.612   4.434
87620W        W59946  44.055  22.034   4.476
87621W        W59947   0.142  13.423   4.167
87622W        W59948  27.098   6.813   0.928
87623W        W59949  20.684  32.411  14.287
87624W        W59950  28.362   2.054   0.463
87625W        W59951  23.144  37.319   4.306
87626W        W59952  26.700  14.662   0.785
87627W        W59953  44.403  39.375   2.836
87628W        W59954  31.142  22.021   1.784
87629W        W59955  40.324  37.507   3.718
87630W        W59956   1.443  39.961  13.571
87631W        W59957  41.858  19.615  13.586
87632W        W59958  40.008  11.185   0.194
87633W        W59959   7.099   6.827  13.126
87634W        W59960  21.581  40.310  10.362
87635W        W59961  44.610  16.352   3.212
87636W        W59962  19.214   1.437   2.099
87637W        W59963  39.146   6.492   3.784
87638W        W59964   3.433   1.759   5.486
87639W        W59965  12.104  22.126  14.781
87640W        W59966  17.596  22.991  14.427
87641W        W59967  40.027  18.900  14.008
87642W        W59968  36.827  18.149   2.861
87643W        W59969  15.267  40.215   4.122
87644W        W59970  29.608   6.885  10.384
87645W        W59971   3.818  17.882   4.189
87646W        W59972  13.652  18.544  14.029
87647W        W59973  33.407  12.176   1.879
87648W        W59974  40.493  20.285   1.347
87649W        W59975  30.054  35.968   1.736
87650W        W59976  29.695   6.742  13.861
87651W        W59977  41.764  16.408  12.469
87652W        W59978   5.248  40.024   3.690
87653W        W59979  12.797  43.741   2.345
87654W        W59980  11.829  32.915   3.678
87655W        W59981  22.077   0.484  13.832
87656W        W59982  18.728  15.852   4.918
87657W        W59983  37.441   0.472  10.260
87658W        W59984  18.251  25.603   4.680
87659W        W59985  43.249   4.700  10.422
87660W        W59986  23.402  37.219   5.762
87661W        W59987  34.617   8.922   0.429
87662W        W59988  28.113  23.952  11.328
87663W        W59989   6.430   2.699   2.275
87664W        W59990   3.176  31.494   1.266
87665W        W59991  33.929  12.574   2.388
87666W        W59992  24.512  27.642  13.396
87667W        W59993  32.090  10.129  10.145
87668W        W59994  12.682  26.190   0.150
87669W        W59995  43.548  23.656   0.785
87670W        W59996  32.142   6.638   1.909
87671W        W59997  39.832  33.510  10.428
87672W        W59998  34.143  12.228   1.184
87673W        W59999  26.702  26.991   3.258
87674W        W60000  14.358   5.354   2.877
87675W        W60001   7.135  11.094  10.593
87676W        W60002  14.156  17.256  12.075
87677W        W60003  28.141  22.738   4.044
87678W        W60004  27.369  14.675  12.082
87679W        W60005  24.431  39.963  14.368
87680W        W60006  29.519  43.561  13.645
87681W        W60007  44.890  18.748   4.401
87682W        W60008  40.973  29.626   4.539
87683W        W60009  37.603  29.908   2.067
87684W        W60010  19.746  21.562   2.436
87685W        W60011  17.102  18.269  13.401
87686W        W60012  22.482   7.301   3.930
87687W        W60013  37.343  43.492  11.210
87688W        W60014  24.196  33.353   4.151
87689W        W60015  11.651  39.209  14.437
87690W        W60016  36.608  43.501  11.643
87691W        W60017  18.865  10.202  13.614
87692W        W60018  11.160   6.523   4.743
87693W        W60019  28.830  44.016   2.397
87694W        W60020  28.676  31.310  11.087
87695W        W60021  16.182  31.580   3.803
87696W        W60022  26.045  18.955   1.892
87697W        W60023  13.273   0.059   2.016
87698W        W60024  38.985  23.540   0.230
87699W        W60025  19.979  25.033  14.968
87700W        W60026  39.029  39.805  13.055
87701W        W60027  44.925  18.051  14.667
87702W        W60028   4.944  28.383  14.079
87703W        W60029  10.210   3.263  13.432
87704W        W60030  41.241  36.537  11.732
87705W        W60031  21.249  11.819   4.382
87706W        W60032   7.950  40.196  10.715
87707W        W60033  38.070   0.334  12.497
87708W        W60034  16.423  22.054   1.740
87709W        W60035  25.226  10.121   0.510
87710W        W60036  30.195   7.952   1.339
87711W        W60037  17.697   8.777  14.375
87712W        W60038  43.078  27.381   3.687
87713W        W60039  24.959   5.089   3.161
87714W        W60040   7.618  17.113   5.024
87715W        W60041  28.486  36.330   2.202
87716W        W60042  29.646  14.437  13.309
87717W        W60043  38.883  11.687  13.761
87718W        W60044   3.408  10.227   3.224
87719W        W60045  11.816  30.973   0.814
87720W        W60046   0.695  29.994   2.308
87721W        W60047  29.986  24.567  14.379
87722W        W60048   2.735  26.240   2.873
87723W        W60049  12.430  26.222   3.646
87724W        W60050  19.251   5.230   0.983
87725W        W60051  41.123  33.720   5.144
87726W        W60052   8.070  17.684   2.192
87727W        W60053  44.073  43.549   4.474
87728W        W60054  35.163  32.956   0.363
87729W        W60055  35.031  23.870   1.853
87730W        W60056  32.888  36.509  11.021
87731W        W60057  38.458  22.186  10.421
87732W        W60058   0.179  40.396  11.139
87733W        W60059  12.456  43.663   1.962
87734W        W60060   5.664  36.903  12.171
87735W        W60061  25.922   3.276   3.358
87736W        W60062  42.913  15.130   2.845
87737W        W60063  39.526  24.928  10.948
87738W        W60064  12.708  27.551  11.943
87739W        W60065  11.166  29.717  13.917
87740W        W60066  14.461   8.854   2.828
87741W        W60067   3.916  16.004   4.100
87742W        W60068   0.824  33.644   2.462
87743W        W60069  29.403   6.266   3.011
87744W        W60070  30.881  37.577   5.014
87745W        W60071  36.992  24.616  13.970
87746W        W60072  44.816  15.437   3.534
87747W        W60073   0.312   4.143   3.355
87748W        W60074  24.486   5.220   3.933
87749W        W60075  26.940  19.997  11.998
87750W        W60076   3.876   1.902   0.675
87751W        W60077  19.258  10.101  12.027
87752W        W60078  17.157   1.911  13.424
87753W        W60079   2.446  36.415   1.364
87754W        W60080  41.257  23.114  14.594
87755W        W60081  26.934  14.126   4.061
87756W        W60082   2.439  14.631   2.249
87757W        W60083  33.568  37.447   0.018
87758W        W60084   7.862  35.944   3.221
87759W        W60085  15.280  41.383  11.651
87760W        W60086  21.166  36.089   4.379
87761W        W60087  22.564  19.640  12.215
87762W        W60088  12.186  31.151   4.678
87763W        W60089  27.619  40.893   0.806
87764W        W60090  31.072  18.799   4.420
87765W        W60091  28.558  35.493  13.943
87766W        W60092  18.558   4.695  10.303
87767W        W60093  21.252  20.146  14.736
87768W        W60094  35.063  33.608   1.430
87769W        W60095  31.915  36.399  10.852
87770W        W60096   7.448   4.884   1.363
87771W        W60097  12.825  12.729  13.445
87772W        W60098  21.813   6.785   3.093
87773W        W60099   3.120  24.912   0.741
87774W        W60100   2.577  38.776  12.659
87775W        W60101   4.838   9.507   1.871
87776W        W60102  19.989  17.108   4.082
87777W        W60103  22.008   1.765   1.409
87778W        W60104  39.507  14.263  12.753
87779W        W60105  24.315   1.846  11.588
87780W        W60106  36.881  15.801   4.318
87781W        W60107   2.973  24.456   9.705
87782W        W60108  34.575  25.585  11.480
87783W        W60109   0.741   8.457  14.801
87784W        W60110  34.278  37.630   4.629
87785W        W60111  25.134  21.078  11.604
87786W        W60112  19.136  11.146  14.324
87787W        W60113  28.613  25.654  11.145
87788W        W60114  38.977  15.049  12.631
87789W        W60115  13.066  41.736  11.574
87790W        W60116  27.192  17.231   3.771
87791W        W60117  32.164  31.807   3.868
87792W        W60118  41.019  43.513   0.882
87793W        W60119   6.079   8.936  11.608
87794W        W60120   8.602  16.161   1.382
87795W        W60121  17.858  35.587  12.491
87796W        W60122  31.991   4.397  14.821
87797W        W60123  33.921  37.783   1.608
87798W        W60124  33.028  29.664   0.494
87799W        W60125  37.088  35.406  10.768
87800W        W60126  32.595  15.788  10.629
87801W        W60127  30.178  37.308  14.280
87802W        W60128  41.349  13.201   4.548
87803W        W60129  30.552  26.213   1.757
87804W        W60130  21.155  20.558  14.013
87805W        W60131  30.214  36.850  14.984
87806W        W60132  10.298  11.103  14.005
87807W        W60133  39.056  13.056  14.116
87808W        W60134   4.611  28.890   4.065
87809W        W60135  24.921  29.499  14.790
87810W        W60136  29.349  38.052   2.289
87811W        W60137   9.201  21.138  14.813
87812W        W60138  42.011  19.052   0.774
87813W        W60139  13.936  19.130  14.702
87814W        W60140   9.303  39.516   3.600
87815W        W60141  30.491  36.031   2.119
87816W        W60142  22.494  22.976  14.734
87817W        W60143  36.006  10.207   1.679
87818W        W60144  35.218  21.602   1.428
87819W        W60145  24.971   2.701  14.950
87820W        W60146  42.392  39.438   0.658
87821W        W60147   8.245  24.039  11.582
87822W        W60148   0.469  22.694   2.848
87823W        W60149  25.485   3.004  13.012
87824W        W60150  17.138  29.576  12.924
87825W        W60151  36.365  16.821   0.878
87826W        W60152  31.210  36.942   1.284
87827W        W60153  25.757   1.308   3.255
87828W        W60154   6.056   4.937   1.870
87829W        W60155  38.705  42.843  13.641
87830W        W60156  21.526  24.690  14.101
87831W        W60157   0.912  27.217  13.994
87832W        W60158  37.622  26.290   4.179
87833W        W60159  21.194  39.316  14.823
87834W        W60160  25.487   5.322   0.425
87835W        W60161  26.438  22.782   1.685
87836W        W60162  14.894  25.676  10.002
87837W        W60163  28.687  29.126   1.445
87838W        W60164  44.322  30.856   3.705
87839W        W60165   9.850  39.185   2.815
87840W        W60166   3.585  41.765   1.442
87841W        W60167  15.161   0.971  13.105
87842W        W60168  24.743  40.922   1.606
87843W        W60169  40.455  42.219   0.450
87844W        W60170  32.455  30.135   0.802
87845W        W60171  35.634   8.125   3.162
87846W        W60172  36.964  10.419  11.087
87847W        W60173  40.761  38.981  10.459
87848W        W60174  18.040  28.865   0.664
87849W        W60175  28.086   6.825   3.718
87850W        W60176  27.402  13.915   4.181
87851W        W60177  27.857  13.065   4.524
87852W        W60178  40.019  13.003   4.107
87853W        W60179  40.351   7.470  13.117
87854W        W60180  10.657   4.891   4.100
87855W        W60181  33.896  41.948   3.283
87856W        W60182   0.253   4.103   0.383
87857W        W60183  41.384   8.116  14.699
87858W        W60184  27.691  37.560   4.175
87859W        W60185  23.358   4.748  11.541
87860W        W60186  14.149  38.913   0.878
87861W        W60187   4.845  34.078   2.646
87862W        W60188  12.379  23.289   2.197
87863W        W60189   0.446   4.605  13.793
87864W        W60190  28.128  36.730   2.720
87865W        W60191  13.402  21.530   1.325
87866W        W60192  28.469  43.919   2.749
87867W        W60193  26.409   4.090  11.990
87868W        W60194  20.083  15.120  12.410
87869W        W60195  13.043   1.340  12.016
87870W        W60196  32.381  11.853   2.383
87871W        W60197  10.363  12.823   4.392
87872W        W60198  35.396  14.168  11.163
87873W        W60199  36.749  12.828  14.414
87874W        W60200  17.155  17.609   9.937
87875W        W60201  33.652  34.751   0.351
87876W        W60202  14.544  14.231  13.761
87877W        W60203  14.669  22.824  12.958
87878W        W60204  39.944   1.342   2.603
87879W        W60205  11.650  37.628  13.549
87880W        W60206  17.117  42.548  10.510
87881W        W60207   3.686  28.229  14.419
87882W        W60208  44.757  32.923  12.985
87883W        W60209  22.219  22.232  10.058
87884W        W60210  15.666   5.031  14.064
87885W        W60211  13.257  25.198   2.885
87886W        W60212  16.524   9.583  14.482
87887W        W60213  22.637  26.391   0.829
87888W        W60214  16.237  37.487  12.051
87889W        W60215  16.087   2.858  12.504
87890W        W60216   7.622  21.006  12.971
87891W        W60217  14.368  34.501  13.000
87892W        W60218  16.112   9.277  11.900
87893W        W60219  18.222   0.965   4.777
87894W        W60220  34.609   6.899   3.084
87895W        W60221  35.096  25.488  11.563
87896W        W60222  12.689   4.188  10.582
87897W        W60223   9.638  38.965  13.885
87898W        W60224  11.627   6.371   4.647
87899W        W60225  12.221  44.843   1.083
87900W        W60226  16.264   3.632  13.860
87901W        W60227  40.272  43.790  11.685
87902W        W60228   8.232  35.270  11.243
87903W        W60229  19.064   6.119   1.698
87904W        W60230   8.930  12.862   4.192
87905W        W60231  34.804   0.004   4.240
87906W        W60232  20.672  31.492   4.524
87907W        W60233  39.089   9.872  14.468
87908W        W60234   3.203  16.240   1.240
87909W        W60235  42.010  35.829   4.695
87910W        W60236   2.130  37.050   4.716
87911W        W60237  34.039   4.854   0.794
87912W        W60238   0.266  22.635   4.668
87913W        W60239  12.514   6.893   0.625
87914W        W60240  29.073  39.441   4.696
87915W        W60241  16.850  34.414   1.361
87916W        W60242  44.457  10.909  13.993
87917W        W60243  28.450  34.441   1.661
87918W        W60244  13.138  32.299  13.486
87919W        W60245  33.312  26.970  11.982
87920W        W60246  23.379  42.820  11.543
87921W        W60247   7.988  22.711  11.949
87922W        W60248  13.077  43.841  14.922
87923W        W60249  22.504  41.951   4.660
87924W        W60250  39.637   6.896   1.256
87925W        W60251  25.460  31.067  12.058
87926W        W60252  34.715  33.196  13.344
87927W        W60253   9.426   3.183   2.863
87928W        W60254   7.423  36.910  11.652
87929W        W60255  25.706   9.172   4.650
87930W        W60256   2.875  30.615   4.765
87931W        W60257  31.602  29.182  14.712
87932W        W60258   4.763   2.762   3.603
87933W        W60259  16.273   2.644  12.946
87934W        W60260  43.393  37.451   4.204
87935W        W60261  31.415  15.734  13.892
87936W        W60262  17.607  31.042   3.552
87937W        W60263   7.370   3.365  10.695
87938W        W60264  11.112  26.674  10.405
87939W        W60265  32.035   5.003   3.366
87940W        W60266   9.129  21.199   4.508
87941W        W60267   8.383  37.956   2.828
87942W        W60268  30.937  20.095   3.054
87943W        W60269  38.986  30.513   0.038
87944W        W60270   0.792  26.141  11.210
87945W        W60271  42.991  39.128   3.701
87946W        W60272  19.764  43.221   0.272
87947W        W60273  31.585  32.008   4.315
87948W        W60274   5.891  28.609   1.847
87949W        W60275  18.659  32.441  11.631
87950W        W60276   4.384  32.388  10.246
87951W        W60277  16.682  34.983   0.635
87952W        W60278   4.081  36.369   1.392
87953W        W60279  38.125  40.525  14.326
87954W        W60280  43.787  42.378  12.964
87955W        W60281   4.782  25.461   1.341
87956W        W60282  29.825  15.216   1.282
87957W        W60283  35.613  11.568  12.438
87958W        W60284  21.516   9.662  14.287
87959W        W60285  19.698  38.770  13.493
87960W        W60286  10.634  43.561  11.627
87961W        W60287  35.493  27.092  12.038
87962W        W60288   1.616  44.571   0.181
87963W        W60289  34.118   5.191  12.553
87964W        W60290   9.879  34.902  14.015
87965W        W60291  29.148  35.548   3.241
87966W        W60292  19.269  26.914  11.221
87967W        W60293   8.368   4.793  11.549
87968W        W60294   6.580  18.110  14.331
87969W        W60295   1.557  16.047   4.542
87970W        W60296  17.802   8.185  12.552
87971W        W60297   9.890  33.172  13.908
87972W        W60298  18.714  11.801  13.527
87973W        W60299  14.787  13.588  11.543
87974W        W60300  31.339   8.245  12.977
87975W        W60301  37.967  18.749   3.972
87976W        W60302  31.304   6.431   1.835
87977W        W60303   9.756   0.479   0.741
87978W        W60304  23.666  26.070   1.868
87979W        W60305  33.577  21.046  14.403
87980W        W60306  33.563  32.907   1.295
87981W        W60307  18.121   0.351   0.585
87982W        W60308  13.875  33.879   0.619
87983W        W60309  42.884  35.056  10.920
87984W        W60310   6.244  12.654   4.056
87985W        W60311  15.612  34.399  14.985
87986W        W60312   8.740  28.565   4.532
87987W        W60313  19.140   2.819  13.163
87988W        W60314   6.330  38.362  11.375
87989W        W60315  29.640  18.294  11.211
87990W        W60316  40.009  17.476   4.612
87991W        W60317  44.808  35.546  14.317
87992W        W60318  35.126  40.539   2.697
87993W        W60319  28.310  15.188   2.217
87994W        W60320  31.788  42.815  12.070
87995W        W60321  32.878  30.311  14.460
87996W        W60322  26.934  32.310  12.446
87997W        W60323   1.916   1.791   3.315
87998W        W60324  13.227  17.165   0.653
87999W        W60325   1.873  16.708  11.695
88000W        W60326  40.314  32.366   3.754
88001W        W60327  36.344  12.295  13.135
88002W        W60328   1.161  12.429  13.511
88003W        W60329  44.808  12.708  11.730
88004W        W60330  39.412  32.135   2.206
88005W        W60331  44.424  14.044  14.329
88006W        W60332  23.589  24.414   2.834
88007W        W60333  42.743   8.311   3.382
88008W        W60334  43.512  11.175   2.800
88009W        W60335   4.852  25.720   1.807
88010W        W60336  21.726  12.825   0.046
88011W        W60337  12.228  30.235  13.311
88012W        W60338  33.538  23.948  12.428
88013W        W60339  43.284   4.771  12.299
88014W        W60340  24.163  31.410   0.768
88015W        W60341   1.033  23.220   5.667
88016W        W60342  15.306  13.571  11.475
88017W        W60343   8.920  26.148   3.305
88018W        W60344  12.386  38.475   3.858
88019W        W60345  38.988   2.926   1.274
88020W        W60346  31.849  37.900   3.878
88021W        W60347   0.015  15.811   1.971
88022W        W60348  23.121  41.376   1.814
88023W        W60349  28.591  37.982  11.208
88024W        W60350   9.883   0.519  13.815
88025W        W60351   2.825  22.443  13.252
88026W        W60352   9.060  16.579  13.408
88027W        W60353  19.649  32.505   2.948
88028W        W60354   8.235   7.461  14.224
88029W        W60355   9.247   3.747   2.810
88030W        W60356  11.310   2.219  14.384
88031W        W60357   4.026  33.902   3.854
88032W        W60358  21.601  26.149  13.940
88033W        W60359  30.477  33.983   3.943
88034W        W60360  26.746  26.518   1.348
88035W        W60361  38.146  44.703  14.604
88036W        W60362  26.155  29.683   4.679
88037W        W60363  26.058  16.847   2.751
88038W        W60364   4.411  25.654  14.909
88039W        W60365   2.292   0.755  10.244
88040W        W60366   5.127  16.236  11.144
88041W        W60367  16.045  12.203   3.629
88042W        W60368  37.163  20.596   0.967
88043W        W60369   0.528  21.591   3.420
88044W        W60370  29.577  34.673  13.542
88045W        W60371  27.679  18.284  10.857
88046W        W60372  40.500   2.387   1.397
88047W        W60373  14.748   4.642  10.945
88048W        W60374  27.450  20.266   1.810
88049W        W60375  18.856  38.945  10.591
88050W        W60376  10.412  22.295   3.192
88051W        W60377  30.002  42.451   4.566
88052W        W60378  41.565  24.622   3.077
88053W        W60379  11.702  30.175  14.319
88054W        W60380  12.529  41.486  13.977
88055W        W60381  31.122  14.826  12.573
88056W        W60382  28.036  36.253  10.899
88057W        W60383  30.541   0.806  11.584
88058W        W60384  15.636   7.472  12.514
88059W        W60385  24.919  19.703   3.275
88060W        W60386  36.046   6.631   1.310
88061W        W60387  35.612  17.747   2.770
88062W        W60388  16.226  44.096   4.180
88063W        W60389  10.394  21.716  14.682
88064W        W60390  27.283  22.461  12.492
88065W        W60391  16.523  37.759  14.977
88066W        W60392  24.057  16.886   1.271
88067W        W60393   2.706   0.205  12.558
88068W        W60394  25.544  35.404  11.861
88069W        W60395  24.796  37.109  11.551
88070W        W60396   3.499   8.697   3.703
88071W        W60397   5.120  12.783  11.622
88072W        W60398  22.576  12.625   3.107
88073W        W60399   1.353  29.820  14.796
88074W        W60400   1.738  12.184  10.632
88075W        W60401  41.306  11.453   3.201
88076W        W60402  29.594  42.600  13.328
88077W        W60403  43.879  10.909   1.784
88078W        W60404  21.091  25.600   4.581
88079W        W60405   1.452   2.868   2.110
88080W        W60406  26.388  31.892  11.844
88081W        W60407  16.616  34.131  12.999
88082W        W60408  34.363  18.153  13.074
88083W        W60409  11.402  25.119  13.327
88084W        W60410  11.430   9.819   4.146
88085W        W60411  24.928  25.153   3.900
88086W        W60412  28.183  20.658  13.383
88087W        W60413  37.464  28.194   0.901
88088W        W60414  41.883  26.508  10.723
88089W        W60415  39.322  32.019   0.084
88090W        W60416  33.412  37.519  13.650
88091W        W60417   1.429   2.714  11.578
88092W        W60418  38.180  13.775  13.946
88093W        W60419  19.267  27.244  13.614
88094W        W60420  27.837   2.404  10.854
88095W        W60421  44.503  11.738   1.361
88096W        W60422   8.473  34.335  14.962
88097W        W60423   9.223  12.807   0.318
88098W        W60424  28.746  18.966  12.612
88099W        W60425  27.521  13.867   1.293
88100W        W60426  15.211  33.001   0.392
88101W        W60427  42.693   5.759  14.092
88102W        W60428   6.304  14.640   2.192
88103W        W60429  37.349  16.299   2.703
88104W        W60430  41.442  16.299  14.768
88105W        W60431  19.152  37.383  14.572
88106W        W60432   0.498  30.616   4.239
88107W        W60433  26.996  43.186  14.259
88108W        W60434  30.571   4.514   3.340
88109W        W60435   7.938  44.455  13.469
88110W        W60436  38.288  33.435   2.822
88111W        W60437  26.484   2.394   1.144
88112W        W60438  42.272  41.932  14.422
88113W        W60439  33.701   8.401   0.402
88114W        W60440  37.681  41.593   3.710
88115W        W60441  19.227   7.891  12.637
88116W        W60442  36.029  24.276  12.453
88117W        W60443  35.613   5.909   3.675
88118W        W60444  22.149   8.202   1.170
88119W        W60445  11.177  17.541  13.065
88120W        W60446  13.731  17.282   0.691
88121W        W60447  36.421  20.407   3.049
88122W        W60448  25.864  27.675   0.742
88123W        W60449   9.271  40.720   4.206
88124W        W60450  38.089   8.173  11.391
88125W        W60451  20.260  10.922  14.736
88126W        W60452  42.385  25.932  14.503
88127W        W60453   3.388  21.503   0.377
88128W        W60454   6.909   7.022   0.733
88129W        W60455  23.033   9.350   2.279
88130W        W60456  34.134  20.796  10.668
88131W        W60457  33.400  13.052  14.465
88132W        W60458  32.037  30.694   1.276
88133W        W60459  27.823  28.508   5.454
88134W        W60460  36.976  29.644  13.369
88135W        W60461   8.261  13.053   2.357
88136W        W60462  36.630  37.024   4.733
88137W        W60463   9.499  35.088  12.442
88138W        W60464  14.710   8.968  12.027
88139W        W60465  22.686  44.112  14.087
88140W        W60466  31.626   4.181   4.517
88141W        W60467  17.006  44.794   2.290
88142W        W60468  34.357   2.685  11.228
88143W        W60469  23.840  10.699   1.245
88144W        W60470   1.899  28.630  12.144
88145W        W60471  43.506  18.141  14.529
88146W        W60472  35.094  16.198  10.750
88147W        W60473   2.724  26.664  13.282
88148W        W60474  43.491  17.786   2.205
88149W        W60475  21.044   6.873   4.284
88150W        W60476   5.441  19.244  10.789
88151W        W60477  31.677   9.920  12.838
88152W        W60478   7.642  20.188  12.574
88153W        W60479   6.055   4.717   2.377
88154W        W60480  43.631  19.258   3.808
88155W        W60481  34.344  17.893  13.903
88156W        W60482   9.465  40.461  10.657
88157W        W60483  25.181  25.491  12.492
88158W        W60484  17.278  23.544   4.295
88159W        W60485  34.042   9.884   3.548
88160W        W60486  33.054  38.323  13.902
88161W        W60487  44.213  29.663   1.697
88162W        W60488  39.171  15.736  11.208
88163W        W60489  14.626  23.206   1.411
88164W        W60490  23.679   8.765   2.626
88165W        W60491   5.035  33.782  11.930
88166W        W60492  40.333   0.286   1.791
88167W        W60493   7.227  20.094   4.751
88168W        W60494  42.831  36.165  12.690
88169W        W60495  17.127  39.508   1.863
88170W        W60496  34.902  10.232  12.861
88171W        W60497  26.217   2.089  11.578
88172W        W60498  21.011  30.002   1.231
88173W        W60499   5.721   6.111  11.743
88174W        W60500  23.718  24.613  13.381
88175W        W60501  34.961  44.371  12.608
88176W        W60502   6.150  42.238   1.865
88177W        W60503  11.444  15.041  11.127
88178W        W60504  21.306  28.485   0.255
88179W        W60505  16.316   1.239  12.378
88180W        W60506   7.702  44.875   3.233
88181W        W60507  21.163  38.389   2.871
88182W        W60508  20.145   8.678  10.550
88183W        W60509  16.089   1.213   3.405
88184W        W60510  29.511  14.822  13.615
88185W        W60511  31.589  17.642   4.546
88186W        W60512   6.724  39.878   3.605
88187W        W60513  22.698  35.626  14.085
88188W        W60514  30.914   4.223   3.597
88189W        W60515  35.371   9.372  11.596
88190W        W60516  30.755   8.391  11.076
88191W        W60517  36.914  44.797  10.627
88192W        W60518   2.875  32.334  12.677
88193W        W60519  43.311  15.587   3.284
88194W        W60520  10.430  30.639   2.319
88195W        W60521  23.014  13.612  11.996
88196W        W60522   5.573  33.596  11.035
88197W        W60523  15.725   4.184  13.448
88198W        W60524  42.911   8.290   0.315
88199W        W60525  32.454  30.392   0.355
88200W        W60526  39.024  27.156   1.323
88201W        W60527  19.619  25.756  13.172
88202W        W60528  43.299  16.340  12.182
88203W        W60529  40.021  11.125  11.526
88204W        W60530   8.633  24.344  14.839
88205W        W60531  10.259  23.591   3.767
88206W        W60532  38.051  32.874  12.833
88207W        W60533  20.063  24.027   4.837
88208W        W60534   9.202  26.511  13.002
88209W        W60535  39.630  20.743  14.015
88210W        W60536  44.439   0.515  14.336
88211W        W60537  32.007  44.924  11.858
88212W        W60538  31.149  15.174   0.827
88213W        W60539  22.505  11.444  11.503
88214W        W60540  23.426  44.013   2.693
88215W        W60541  42.390  44.091  12.882
88216W        W60542  19.954  11.954   0.562
88217W        W60543  41.597  27.929  10.797
88218W        W60544   5.186   2.989  14.795
88219W        W60545   5.719  19.035   0.281
88220W        W60546  39.454   6.201  14.038
88221W        W60547   6.778  36.668   3.874
88222W        W60548  11.301  43.819  10.480
88223W        W60549   1.439  42.210   0.392
88224W        W60550   2.905  18.510  12.150
88225W        W60551  31.082  16.369  10.663
88226W        W60552   7.718  42.893   4.637
88227W        W60553   7.259  19.056   0.853
88228W        W60554  21.003  32.807  10.778
88229W        W60555  11.297  24.050  12.458
88230W        W60556  38.549  36.514  10.710
88231W        W60557  20.216   9.560   0.294
88232W        W60558   3.664  43.814   2.374
88233W        W60559  21.070   8.704  14.049
88234W        W60560   4.781   7.029   3.729
88235W        W60561  38.788  11.350   3.524
88236W        W60562   6.093  35.893   2.060
88237W        W60563  37.930  25.898   3.574
88238W        W60564  34.866  22.629  12.511
88239W        W60565   4.511  28.992  11.030
88240W        W60566  36.695  16.822  12.095
88241W        W60567  32.613  20.766  11.596
88242W        W60568  41.621  39.040  13.486
88243W        W60569  32.169  14.378   3.177
88244W        W60570  27.994  21.561   2.100
88245W        W60571  12.196   3.522  12.907
88246W        W60572   8.162  19.067   0.212
88247W        W60573  20.549   3.084   4.709
88248W        W60574  37.100  22.148  13.457
88249W        W60575  27.610  27.897   4.975
88250W        W60576   9.116  22.635  10.695
88251W        W60577  13.639  42.796   0.340
88252W        W60578  35.821  39.855  14.826
88253W        W60579  25.178   2.886   0.845
88254W        W60580   4.224  25.855   3.688
88255W        W60581  30.104  26.113   2.012
88256W        W60582  31.891  23.142   4.471
88257W        W60583   5.909  20.130  12.099
88258W        W60584   8.153  36.163   2.804
88259W        W60585  24.242  30.970  12.774
88260W        W60586  17.246  30.134   1.397
88261W        W60587  15.840  33.368  14.906
88262W        W60588   7.891  36.354  12.396
88263W        W60589  22.658  39.608   1.757
88264W        W60590  18.481  20.587   2.876
88265W        W60591  42.084  42.605  13.598
88266W        W60592  44.316  14.301  10.633
88267W        W60593  24.315  39.243  14.633
88268W        W60594  21.595  34.150  14.249
88269W        W60595  44.431   9.173  12.104
88270W        W60596  35.563  16.664   1.762
88271W        W60597  42.128  34.284   3.739
88272W        W60598  29.385  33.505   1.234
88273W        W60599  41.761   9.902   2.374
88274W        W60600  37.202  31.572   2.758
88275W        W60601  26.547  31.861   2.295
88276W        W60602  12.253  41.849  11.189
88277W        W60603   1.760  28.752   4.151
88278W        W60604  17.235  16.057   4.679
88279W        W60605  36.718  31.140  11.222
88280W        W60606   6.338   1.727  11.638
88281W        W60607   7.432  30.866   0.354
88282W        W60608  16.243   8.294  14.798
88283W        W60609   3.674   8.797   4.173
88284W        W60610  43.745  27.686  14.273
88285W        W60611   9.473  39.818  14.873
88286W        W60612  24.331  41.910   2.841
88287W        W60613  23.998   5.395  14.793
88288W        W60614  16.314  36.491   4.142
88289W        W60615  15.627  39.075  14.376
88290W        W60616   3.450  34.137  14.460
88291W        W60617  10.961  23.018   3.311
88292W        W60618  17.201  36.003  14.260
88293W        W60619  41.509  39.410  13.835
88294W        W60620  37.680  22.710  13.549
88295W        W60621  32.407  34.172   2.134
88296W        W60622  34.618  19.321  12.096
88297W        W60623  44.191  33.428  14.964
88298W        W60624  34.693  41.159  12.045
88299W        W60625   0.449  15.646   2.710
88300W        W60626  10.381  10.765   3.367
88301W        W60627  23.528  24.795   4.655
88302W        W60628   7.275  44.779  10.941
88303W        W60629  44.553  37.611  14.554
88304W        W60630   2.138  38.965  14.835
88305W        W60631  20.645  20.528   0.246
88306W        W60632  41.909  12.593  11.701
88307W        W60633  11.313  12.056   2.437
88308W        W60634  27.701  17.194   3.753
88309W        W60635  27.933  26.543  11.175
88310W        W60636  29.862  20.816   2.740
88311W        W60637  42.040   2.732   3.661
88312W        W60638  40.798  14.685  10.705
88313W        W60639  44.616  26.450   5.082
88314W        W60640   3.667   1.445  11.499
88315W        W60641  10.254  41.954   3.888
88316W        W60642  32.029  37.601   9.937
88317W        W60643  21.300  20.509  11.169
88318W        W60644  21.054  13.573  10.780
88319W        W60645  27.624  41.311   1.457
88320W        W60646  31.061  32.178  11.988
88321W        W60647  29.261  12.669   0.302
88322W        W60648  21.240  40.969  11.097
88323W        W60649  27.174  40.952  14.821
88324W        W60650  38.858   2.991   0.205
88325W        W60651  36.304  33.304   3.279
88326W        W60652  12.307  15.565   1.745
88327W        W60653  28.877  40.798   4.106
88328W        W60654  40.898  19.998   1.438
88329W        W60655   7.357   0.172   4.629
88330W        W60656  32.426  32.886  11.553
88331W        W60657  40.596   6.422   2.838
88332W        W60658   8.395  30.153  11.487
88333W        W60659  25.045   3.936  12.029
88334W        W60660  44.897  18.358  12.955
88335W        W60661   7.731  19.602   2.259
88336W        W60662  38.393   5.967   3.548
88337W        W60663   1.005  11.681  14.726
88338W        W60664   4.972   6.193  14.144
88339W        W60665  34.824  22.056   3.388
88340W        W60666  30.361  22.052   5.145
88341W        W60667   8.087  10.387  14.213
88342W        W60668  12.812  43.326  13.783
88343W        W60669  39.431   4.956  10.503
88344W        W60670   6.376  44.354   3.378
88345W        W60671  40.708  36.578  13.810
88346W        W60672  10.815  39.317  10.706
88347W        W60673   6.395   3.276   3.034
88348W        W60674  12.576   4.091   0.085
88349W        W60675  33.554  44.559   4.289
88350W        W60676  23.729  32.180  13.349
88351W        W60677  21.644  30.173  13.080
88352W        W60678  25.284  39.568   1.583
88353W        W60679  21.788  11.842  14.786
88354W        W60680  25.706  44.457   2.646
88355W        W60681  44.320  36.453   4.716
88356W        W60682  34.364  35.490  13.945
88357W        W60683  36.528  43.469   0.576
88358W        W60684  31.400  28.023  11.623
88359W        W60685  41.042  14.805  13.364
88360W        W60686  32.950   2.997  12.316
88361W        W60687  23.204   2.534   3.790
88362W        W60688  14.307  20.414   3.224
88363W        W60689   3.346  40.767  14.906
88364W        W60690  25.600  29.901   1.603
88365W        W60691   5.555  43.279   3.058
88366W        W60692  25.131  14.412  13.078
88367W        W60693  37.306  42.219  14.934
88368W        W60694  18.478  24.137   4.766
88369W        W60695   5.477  11.386   3.287
88370W        W60696   5.164  18.760  14.021
88371W        W60697   5.272  43.332   0.913
88372W        W60698  19.619  44.187   1.165
88373W        W60699  39.089   5.295  14.962
88374W        W60700  27.956  21.769  10.542
88375W        W60701  27.703   0.031   1.157
88376W        W60702  11.834  26.242  10.334
88377W        W60703  42.002   3.982  14.884
88378W        W60704  42.914  41.386   1.788
88379W        W60705  40.081  14.596   3.418
88380W        W60706  38.419   8.198   4.369
88381W        W60707  10.784   7.625   1.339
88382W        W60708   7.641   4.351  14.125
88383W        W60709  13.802  14.250   4.726
88384W        W60710   3.699  17.006   2.390
88385W        W60711  27.566  28.212  14.295
88386W        W60712  10.273  27.537  10.500
88387W        W60713  14.817  42.310   4.657
88388W        W60714  23.598  13.574  13.988
88389W        W60715   8.397  27.539  13.375
88390W        W60716  16.613  38.982  12.635
88391W        W60717  40.349  38.659  13.906
88392W        W60718   6.456  41.879  14.846
88393W        W60719  34.401   2.799  14.523
88394W        W60720  12.304   5.033  11.873
88395W        W60721  13.815  18.661   3.183
88396W        W60722   9.724  14.280   0.875
88397W        W60723  41.732  29.433   2.371
88398W        W60724  37.038  11.826  12.055
88399W        W60725  34.456   9.457  10.991
88400W        W60726  12.683  25.706  10.946
88401W        W60727  28.120  22.871   1.451
88402W        W60728   4.262   3.722   3.311
88403W        W60729  44.723  37.062  11.942
88404W        W60730  14.350  10.731  13.113
88405W        W60731   6.779   3.237  14.491
88406W        W60732  25.869  22.734   3.679
88407W        W60733   4.871  25.605   0.755
88408W        W60734   3.363  30.632  11.285
88409W        W60735  28.493   0.839  14.963
88410W        W60736  42.755   9.716   0.043
88411W        W60737  25.123  24.276   4.103
88412W        W60738   1.800  36.320  12.925
88413W        W60739  18.193  31.745  10.729
88414W        W60740  43.387  32.525  14.960
88415W        W60741  26.464  10.735   2.774
88416W        W60742  37.569   1.474  12.046
88417W        W60743  27.500  43.235  12.558
88418W        W60744  33.956  44.755  12.886
88419W        W60745  29.481  12.661  10.346
88420W        W60746   3.167  43.890  13.016
88421W        W60747  38.947  43.649  11.973
88422W        W60748  12.849  40.252  10.634
88423W        W60749  16.114  31.936  11.060
88424W        W60750  18.058  31.197   1.392
88425W        W60751  26.963  21.104  12.174
88426W        W60752  11.449  38.579   3.720
88427W        W60753  24.615  35.283  12.939
88428W        W60754   6.301  39.572   1.948
88429W        W60755  15.851  43.731  10.056
88430W        W60756  35.881  17.938  10.749
88431W        W60757  14.025  39.054   2.289
88432W        W60758  43.025  38.897   0.378
88433W        W60759  20.752  15.245  13.060
88434W        W60760  25.392   4.285  10.664
88435W        W60761  20.563  44.602   2.761
88436W        W60762  42.698  29.504   5.022
88437W        W60763  34.504  22.083  11.740
88438W        W60764  16.298  26.076  11.404
88439W        W60765  38.912  30.623  10.235
88440W        W60766  25.188  21.731  13.308
88441W        W60767  36.974  42.562   4.695
88442W        W60768  28.395  19.562   4.635
88443W        W60769   7.463   8.352   0.395
88444W        W60770   0.053  15.138   3.145
88445W        W60771  18.761  15.172   3.733
88446W        W60772   2.339  13.896   3.723
88447W        W60773  37.972  38.055   4.093
88448W        W60774   7.258  26.549   1.432
88449W        W60775  42.932   2.169   0.697
88450W        W60776  36.076  14.650  10.670
88451W        W60777   7.383  20.969  14.876
88452W        W60778  35.435  28.957   0.952
88453W        W60779  33.708  29.897   4.113
88454W        W60780   4.257  41.453  13.734
88455W        W60781   2.826  40.342   3.897
88456W        W60782  40.956   3.463  11.702
88457W        W60783  13.502  42.307   1.213
88458W        W60784   2.515  11.613   2.385
88459W        W60785  33.057  10.400  13.361
88460W        W60786   2.412   1.079   1.262
88461W        W60787   8.196   9.159   2.498
88462W        W60788  43.009  27.513  10.352
88463W        W60789  19.182  39.323   4.367
88464W        W60790  18.578   3.041   2.216
88465W        W60791  11.751  35.409  13.117
88466W        W60792  27.952  43.493   0.262
88467W        W60793  15.184   2.017  13.873
88468W        W60794   3.281   8.974  12.440
88469W        W60795  17.666   2.243  12.198
88470W        W60796  23.321  29.523  10.881
88471W        W60797  38.874  34.967  13.609
88472W        W60798   4.300  13.569  11.068
88473W        W60799  13.119  35.024   4.777
88474W        W60800  43.321  42.672  10.725
88475W        W60801   5.932  41.413   3.120
88476W        W60802   2.015  24.219   0.456
88477W        W60803  13.665  35.615  14.965
88478W        W60804   2.319   7.957  12.131
88479W        W60805   5.328  28.587   3.165
88480W        W60806  12.407   2.371   1.811
88481W        W60807  37.970  35.073  10.752
88482W        W60808   4.165  18.991  11.027
88483W        W60809  34.851  33.173   3.348
88484W        W60810  17.982   4.141  13.102
88485W        W60811  30.349  38.648  13.207
88486W        W60812   2.155   2.668   5.127
88487W        W60813  30.461  16.371  13.825
88488W        W60814  42.972   1.765  12.998
88489W        W60815  43.037  24.532  14.543
88490W        W60816  32.163  14.204   1.704
88491W        W60817  16.888  35.092   4.124
88492W        W60818  32.908  19.623   4.205
88493W        W60819  26.683  12.581   2.855
88494W        W60820  40.019  26.950   4.400
88495W        W60821   6.238  22.777  11.663
88496W        W60822  24.923  20.153  14.484
88497W        W60823  24.169  29.614   3.153
88498W        W60824  44.359  21.654   0.865
88499W        W60825  22.969  36.757   1.761
88500W        W60826  26.474  20.774  11.993
88501W        W60827  33.179  16.491  13.997
88502W        W60828  17.302  29.251   0.307
88503W        W60829  35.623  36.021  11.313
88504W        W60830  36.343  24.217  13.502
88505W        W60831  40.548  32.098  13.471
88506W        W60832  16.987   7.143   4.152
88507W        W60833  42.735  15.137   3.708
88508W        W60834  44.569  33.569  14.041
88509W        W60835  30.000  10.347   1.266
88510W        W60836   7.393  26.693  13.568
88511W        W60837  32.994  25.927   3.782
88512W        W60838  10.181  10.731  12.617
88513W        W60839  15.225  28.034  12.918
88514W        W60840  26.499   1.772  13.873
88515W        W60841  31.520  28.530  13.814
88516W        W60842   8.162  39.968   3.238
88517W        W60843  39.820  26.447  13.410
88518W        W60844   0.387  22.388  13.856
88519W        W60845  41.931  37.837  14.343
88520W        W60846  34.192  41.372  14.243
88521W        W60847  19.131  16.882   4.601
88522W        W60848   9.557   9.594  14.802
88523W        W60849  23.174  27.577  11.920
88524W        W60850   1.299  36.278  12.917
88525W        W60851  11.838  33.577  13.436
88526W        W60852   3.089  39.910   3.714
88527W        W60853  28.064  26.589   3.212
88528W        W60854  43.555  14.098   1.420
88529W        W60855  30.615  19.269   3.348
88530W        W60856   8.970  10.793   3.807
88531W        W60857  42.303  36.870  13.014
88532W        W60858  36.778  20.691  12.402
88533W        W60859  32.727  18.155  14.516
88534W        W60860  34.924  41.458   1.030
88535W        W60861  32.964  24.447  12.571
88536W        W60862   3.282  20.438  11.474
88537W        W60863  25.271  20.112   2.359
88538W        W60864  41.609  42.467   3.249
88539W        W60865  37.824  11.612  11.014
88540W        W60866  40.296  32.509   2.801
88541W        W60867  35.477  36.783   4.056
88542W        W60868  34.581  35.346   1.357
88543W        W60869  31.024  19.263  12.896
88544W        W60870   4.831  12.792   1.163
88545W        W60871  44.765  41.839   3.708
88546W        W60872  22.012   6.314   3.159
88547W        W60873  24.276   4.859   2.355
88548W        W60874   5.740  29.162   2.859
88549W        W60875   2.162  13.185  14.986
88550W        W60876  15.725   7.320   4.451
88551W        W60877   4.919  13.194  11.867
88552W        W60878  10.354  44.499  12.337
88553W        W60879  44.749  36.094  11.613
88554W        W60880   7.231   7.015  14.408
88555W        W60881  22.866   1.201  13.215
88556W        W60882  28.038  17.550   0.363
88557W        W60883  24.823  31.042   2.286
88558W        W60884   8.165  43.322   4.142
88559W        W60885  32.515  40.680  14.444
88560W        W60886   8.476  27.567   4.698
88561W        W60887  31.478  14.259  11.174
88562W        W60888   4.289  42.038   3.681
88563W        W60889  26.035  25.067  10.572
88564W        W60890  11.757  12.212   2.191
88565W        W60891   5.131  22.109  13.870
88566W        W60892  10.622  26.597  10.543
88567W        W60893  17.090  37.587  14.763
88568W        W60894   6.779   3.890  11.420
88569W        W60895  40.286  10.343  11.173
88570W        W60896  40.324  18.753   4.547
88571W        W60897   5.190  28.077  14.410
88572W        W60898  22.940  18.886  14.575
88573W        W60899  25.861  18.471   3.915
88574W        W60900  38.556  15.872  14.376
88575W        W60901   6.958  15.248  13.780
88576W        W60902  36.481  30.651   2.743
88577W        W60903  19.302   5.866   0.239
88578W        W60904  16.135  41.319  12.892
88579W        W60905   3.382  21.433  12.834
88580W        W60906  18.454  33.314   4.575
88581W        W60907  36.219  17.310   0.146
88582W        W60908  13.299   9.173   3.313
88583W        W60909  24.425  25.084   3.799
88584W        W60910  24.050  33.170   0.342
88585W        W60911  24.074  13.830  14.076
88586W        W60912  32.619  32.632   4.210
88587W        W60913  17.049  34.617   0.652
88588W        W60914  34.097   0.467   1.553
88589W        W60915  36.906  23.995  11.106
88590W        W60916  26.392  15.170  14.465
88591W        W60917  17.195  23.055   4.147
88592W        W60918  25.007   6.386   4.219
88593W        W60919   7.443  18.029   3.007
88594W        W60920  10.885  25.029  12.963
88595W        W60921  33.147  25.001   3.338
88596W        W60922  22.168   9.127   4.312
88597W        W60923  40.720  20.131   4.695
88598W        W60924   1.050  34.873   0.368
88599W        W60925  41.282  10.652   2.764
88600W        W60926  37.158  30.738   0.078
88601W        W60927   5.648  32.606  12.093
88602W        W60928  36.558   3.704   0.067
88603W        W60929  36.796   6.682   2.871
88604W        W60930  18.309  28.549   2.636
88605W        W60931  20.498  37.029  11.670
88606W        W60932  36.372  41.857   4.111
88607W        W60933  36.883  40.968  13.044
88608W        W60934  25.620  36.565   3.717
88609W        W60935  38.318  44.343  12.390
88610W        W60936  36.658   1.739   0.373
88611W        W60937  16.214  36.050   2.130
88612W        W60938  26.360   6.740   3.288
88613W        W60939  38.037  32.874   1.463
88614W        W60940   0.528  22.228   9.683
88615W        W60941  20.308  27.530  10.649
88616W        W60942   2.951  18.567  13.970
88617W        W60943   0.854   2.345  13.003
88618W        W60944  29.241  21.122  10.668
88619W        W60945  23.810   6.311   2.096
88620W        W60946   0.386  17.538  12.821
88621W        W60947  19.752  41.240  13.908
88622W        W60948   6.449  16.511   1.888
88623W        W60949   0.884  39.452   1.326
88624W        W60950   9.447   4.846  13.036
88625W        W60951  22.665  10.492   0.056
88626W        W60952  34.121  22.873   4.124
88627W        W60953  29.457  10.898   0.682
88628W        W60954  14.035   1.893   1.209
88629W        W60955  14.425  39.872   4.186
88630W        W60956  26.654  23.719   1.852
88631W        W60957  35.852  29.244   2.205
88632W        W60958  11.591  43.443  11.381
88633W        W60959  34.348  11.185  12.920
88634W        W60960   9.616  35.997  14.882
88635W        W60961  12.327   6.495   1.896
88636W        W60962  19.487  44.909  14.337
88637W        W60963  35.739  11.851  12.008
88638W        W60964  36.826  41.993  14.883
88639W        W60965   3.674   1.943  13.578
88640W        W60966   6.394  32.785  11.708
88641W        W60967  25.942  19.064  11.604
88642W        W60968   2.487  29.726   4.872
88643W        W60969   1.314  29.507   4.844
88644W        W60970  18.274   5.883   0.391
88645W        W60971  29.600   9.208  11.173
88646W        W60972  31.148  12.594   0.404
88647W        W60973  40.237   9.298  11.215
88648W        W60974  32.942   2.493  10.945
88649W        W60975   9.243  20.568  12.397
88650W        W60976  37.481   3.450   2.829
88651W        W60977  10.890  31.386   0.894
88652W        W60978  11.802  37.003   1.972
88653W        W60979  31.606   1.743  11.946
88654W        W60980  26.003  42.341  13.883
88655W        W60981  35.074  40.278  11.977
88656W        W60982  42.232  20.899  12.435
88657W        W60983  22.752  16.745   4.574
88658W        W60984   7.483  15.257  13.810
88659W        W60985  42.823  40.200   2.349
88660W        W60986  37.185  15.628  11.088
88661W        W60987   7.344  18.629   4.737
88662W        W60988  34.304  28.886   2.809
88663W        W60989  44.406  27.939  10.637
88664W        W60990  20.162  15.599  10.655
88665W        W60991  10.190  41.726   2.294
88666W        W60992  35.293  11.521  13.512
88667W        W60993  38.499   9.704   9.835
88668W        W60994  29.268  30.374   3.203
88669W        W60995  14.326  27.078   2.353
88670W        W60996  18.005  14.293   4.361
88671W        W60997  11.928  32.156  11.693
88672W        W60998  26.036   2.517   0.922
88673W        W60999  32.124  14.321   0.697
88674W        W61000  12.187  29.311  10.790
88675W        W61001   3.794  33.278  11.273
88676W        W61002  22.707  15.543   4.051
88677W        W61003   0.996   5.828   3.697
88678W        W61004  14.101  43.168  14.524
88679W        W61005  40.382  41.780   1.400
88680W        W61006  23.682  33.697   3.248
88681W        W61007  20.963  31.021  14.260
88682W        W61008   3.787  13.301   3.022
88683W        W61009   8.887  26.191   4.190
88684W        W61010  11.843  15.727   1.420
88685W        W61011  35.212  21.267  10.325
88686W        W61012  17.031  36.415   4.082
88687W        W61013  18.713  42.830  14.014
88688W        W61014   6.388  31.482  14.900
88689W        W61015  27.680  30.056  13.102
88690W        W61016   2.053  32.915   4.893
88691W        W61017  28.123  35.858  12.287
88692W        W61018  15.521  44.200  13.103
88693W        W61019  28.620  16.781   2.413
88694W        W61020   5.149   3.239  13.411
88695W        W61021  28.718   6.204   4.285
88696W        W61022  27.755  43.450  12.989
88697W        W61023  11.570  12.344   4.205
88698W        W61024  23.091  13.060   2.356
88699W        W61025  16.018   9.653  14.441
88700W        W61026  30.941  20.690  13.907
88701W        W61027   1.183  21.194  14.867
88702W        W61028  42.934  17.231  14.298
88703W        W61029  25.153  19.249  12.975
88704W        W61030  18.021  17.968  13.703
88705W        W61031  15.761   8.286   0.574
88706W        W61032  15.082   1.963   2.710
88707W        W61033  10.261  27.621   2.236
88708W        W61034  42.603  32.834   1.863
88709W        W61035   2.260  10.187  10.269
88710W        W61036  35.538  14.635   0.284
88711W        W61037   9.832  28.687  12.631
88712W        W61038  31.842  27.696  11.926
88713W        W61039  22.705  12.395   4.535
88714W        W61040   9.853   9.791   3.203
88715W        W61041  19.621  27.947  13.920
88716W        W61042  33.524   1.836   5.139
88717W        W61043   7.770  19.629   3.771
88718W        W61044  30.494  39.592  14.437
88719W        W61045   7.314   0.693   4.526
88720W        W61046  19.575  32.974  11.502
88721W        W61047   6.522  42.576  11.867
88722W        W61048  31.624   7.428  14.368
88723W        W61049   7.827  32.561  13.461
88724W        W61050  17.072  10.830  10.940
88725W        W61051  33.883  35.498   0.774
88726W        W61052  31.211  23.169   3.631
88727W        W61053  26.906  25.670   1.298
88728W        W61054  25.624   2.477  10.606
88729W        W61055  31.158  29.741  12.866
88730W        W61056  39.772  19.092  14.411
88731W        W61057  19.189  25.693  10.581
88732W        W61058  26.519  23.109   0.365
88733W        W61059   3.877  29.515   0.053
88734W        W61060  24.050  19.471   0.815
88735W        W61061  13.757  30.936  12.753
88736W        W61062  13.162  33.000  10.218
88737W        W61063  35.078  18.224  14.378
88738W        W61064  16.303  14.630  11.094
88739W        W61065  26.235  36.975  14.898
88740W        W61066  22.201  39.429   1.953
88741W        W61067   9.671  13.116  14.462
88742W        W61068  43.944  15.624   4.275
88743W        W61069  32.863  25.157   1.959
88744W        W61070  21.755  43.364  14.029
88745W        W61071  35.530  42.017   4.771
88746W        W61072  14.563   8.246  12.424
88747W        W61073  13.019   6.382  11.180
88748W        W61074  22.600  22.068  11.541
88749W        W61075  26.443  23.309  12.339
88750W        W61076  34.555   4.767  10.709
88751W        W61077  36.606  39.909   0.460
88752W        W61078  25.662  29.339  12.556
88753W        W61079   2.948  13.202  12.066
88754W        W61080  30.323  10.371  13.454
88755W        W61081   7.854  16.920   3.525
88756W        W61082  24.525  13.856   3.566
88757W        W61083  21.238   9.626   2.989
88758W        W61084  27.519  19.991   1.351
88759W        W61085  29.103  36.907  10.963
88760W        W61086  16.050  31.034   4.143
88761W        W61087  44.350  31.043  10.502
88762W        W61088  21.133  16.773   1.215
88763W        W61089  16.874  28.490   0.809
88764W        W61090   1.356  29.441   2.866
88765W        W61091  44.809  39.509   1.310
88766W        W61092   1.763  31.668   4.396
88767W        W61093  23.725  34.764  13.011
88768W        W61094  31.470  37.390  11.137
88769W        W61095  16.079  19.435  10.678
88770W        W61096   4.907  32.679  10.165
88771W        W61097  39.754   2.995  11.765
88772W        W61098  19.580  20.773  11.677
88773W        W61099  28.043  27.152  14.061
88774W        W61100  43.907  29.447   0.644
88775W        W61101  11.367  17.042   1.314
88776W        W61102  16.184  22.836  13.385
88777W        W61103   8.334  12.380   1.494
88778W        W61104  31.130  21.092  12.059
88779W        W61105   1.409  40.241  11.885
88780W        W61106  34.181  38.883   3.092
88781W        W61107  29.048  16.495   4.720
88782W        W61108  38.689  14.822   3.493
88783W        W61109  22.931  39.547   2.829
88784W        W61110  26.927   0.178  11.951
88785W        W61111  20.071  31.954  14.919
88786W        W61112  41.017  36.919  13.312
88787W        W61113  21.988  22.977  14.838
88788W        W61114  18.133  18.417   0.131
88789W        W61115  12.004  14.115  13.035
88790W        W61116   8.627  11.518  13.485
88791W        W61117  38.414  16.673  12.461
88792W        W61118   1.424   0.694  11.472
88793W        W61119   6.716  23.619   2.297
88794W        W61120   1.433  28.884  10.629
88795W        W61121   9.444   0.709   2.860
88796W        W61122  15.839  19.637  12.239
88797W        W61123  39.284  36.156   1.442
88798W        W61124  15.784   2.315   1.383
88799W        W61125  10.714   5.782   1.560
88800W        W61126  22.788  15.667   9.965
88801W        W61127  27.062  16.690   0.325
88802W        W61128  18.789  42.775  10.237
88803W        W61129  14.598  15.637   2.556
88804W        W61130  10.858   1.931  14.459
88805W        W61131  33.789  40.769   2.644
88806W        W61132  15.662  18.168  12.533
88807W        W61133   7.155   4.256  11.238
88808W        W61134   0.481  10.091   4.169
88809W        W61135  22.046  15.614  13.602
88810W        W61136   4.176  24.167   0.675
88811W        W61137   1.396  33.925   3.167
88812W        W61138  15.358  21.435   1.313
88813W        W61139  17.638   0.462  13.776
88814W        W61140  17.634   7.822   1.046
88815W        W61141  19.008  44.888  11.053
88816W        W61142  11.388  22.740   3.346
88817W        W61143  44.483  33.459   1.840
88818W        W61144  11.302  30.073   0.331
88819W        W61145  44.985  24.767   4.949
88820W        W61146  10.755  15.994   1.067
88821W        W61147  25.963  28.775  13.496
88822W        W61148  30.474  16.041   4.738
88823W        W61149  24.420  17.908  13.465
88824W        W61150  10.386  24.043   1.333
88825W        W61151  36.433  31.942  12.953
88826W        W61152  32.061   6.981   1.366
88827W        W61153  10.405  27.813   2.704
88828W        W61154  19.133  30.546   0.759
88829W        W61155  19.007  21.539   1.135
88830W        W61156  24.525  14.609   0.345
88831W        W61157  22.965   3.188  13.368
88832W        W61158   5.677  30.157  14.892
88833W        W61159  33.017   5.796   2.504
88834W        W61160   3.837  13.404  14.499
88835W        W61161   8.273   0.171  14.957
88836W        W61162  31.347  42.922   1.435
88837W        W61163  20.909  16.528  14.994
88838W        W61164  17.388  34.978   3.361
88839W        W61165  42.668  34.546   1.936
88840W        W61166   1.212  23.564   1.032
88841W        W61167  44.890  22.555   1.929
88842W        W61168   8.756  37.434   0.694
88843W        W61169  37.166   5.550  11.283
88844W        W61170  40.762  31.194  13.429
88845W        W61171  29.949  22.935   1.883
88846W        W61172   7.836  40.087   1.693
88847W        W61173  16.126   5.746   4.151
88848W        W61174  21.557  16.798  11.624
88849W        W61175  14.628   8.712   3.322
88850W        W61176  16.726  14.288   4.130
88851W        W61177  26.501  36.339  14.513
88852W        W61178   2.323  15.800  10.517
88853W        W61179  14.555  18.520  10.799
88854W        W61180   7.434   1.905  13.477
88855W        W61181  18.289  35.657  10.753
88856W        W61182  41.043   3.553   1.360
88857W        W61183   8.864  26.768  11.704
88858W        W61184   2.327  32.376   3.649
88859W        W61185   1.527  31.063  11.569
88860W        W61186  44.975  21.256   4.596
88861W        W61187  44.988  37.938  10.652
88862W        W61188   2.223  33.506   1.212
88863W        W61189   0.985   0.824   1.065
88864W        W61190  23.647  39.138   5.416
88865W        W61191   2.021  44.822  14.950
88866W        W61192   8.699   5.213  11.559
88867W        W61193  44.096  28.519  13.576
88868W        W61194  18.348  37.628   0.198
88869W        W61195  39.325  12.332  12.539
88870W        W61196  31.065   2.918  14.927
88871W        W61197  16.144  30.037   3.076
88872W        W61198  17.099   5.002  13.334
88873W        W61199  29.452  33.385   0.366
88874W        W61200  17.899  29.612  10.748
88875W        W61201  19.657  42.218   2.401
88876W        W61202  39.105  17.008   5.173
88877W        W61203  36.102  27.081   4.090
88878W        W61204   5.722  11.310  14.988
88879W        W61205  34.213  29.394  12.551
88880W        W61206   6.730  44.560  12.437
88881W        W61207  17.758  28.527   1.976
88882W        W61208  36.991   2.169  14.477
88883W        W61209   1.310  37.473   1.453
88884W        W61210   9.072  20.619  14.777
88885W        W61211  13.303   7.935  12.902
88886W        W61212  10.379  16.259  11.298
88887W        W61213  40.976  10.132   4.508
88888W        W61214  32.879  17.025  11.627
88889W        W61215  28.938  33.407   0.257
88890W        W61216  32.396  34.030   2.645
88891W        W61217  29.532  37.282   1.712
88892W        W61218  34.796  13.356   4.212
88893W        W61219  39.036   0.248  10.895
88894W        W61220  33.632  21.143   3.727
88895W        W61221   1.827  11.320  11.184
88896W        W61222  33.572  21.496  10.234
88897W        W61223   6.446  20.001   1.115
88898W        W61224  11.784  12.280   3.740
88899W        W61225  37.338  27.054   0.150
88900W        W61226  43.939  38.604   0.836
88901W        W61227   2.282   3.405   3.176
88902W        W61228  37.089  21.289   4.645
88903W        W61229   9.913  22.282   3.039
88904W        W61230  18.953  24.070  10.616
88905W        W61231  18.610  35.562  13.783
88906W        W61232  16.690  30.412   4.629
88907W        W61233   8.074  37.865  10.717
88908W        W61234  36.024   7.693  10.576
88909W        W61235  29.491   0.008   1.732
88910W        W61236   4.829  34.538  10.584
88911W        W61237  27.545   6.789  11.561
88912W        W61238   0.861  39.850   2.515
88913W        W61239  21.815   3.871   4.511
88914W        W61240  33.116  37.910  13.444
88915W        W61241  18.763   9.926   1.651
88916W        W61242  34.802  40.579  10.295
88917W        W61243  27.001  18.592  11.116
88918W        W61244  30.392  17.073   4.027
88919W        W61245  33.142  35.526  10.079
88920W        W61246  20.680  16.457  12.072
88921W        W61247   1.772  37.366  11.523
88922W        W61248  26.119  20.695   2.256
88923W        W61249  35.969  24.817  11.595
88924W        W61250  32.636  40.844   1.399
88925W        W61251  29.926  19.755  12.424
88926W        W61252   1.736   2.460  11.904
88927W        W61253  34.607  34.602   0.242
88928W        W61254  28.096  16.576   0.441
88929W        W61255  33.418   6.685   2.277
88930W        W61256  22.187  43.512  11.935
88931W        W61257  28.369  24.052   0.669
88932W        W61258  23.314  22.018  14.537
88933W        W61259   4.578  12.595   0.758
88934W        W61260   1.195  21.084   2.176
88935W        W61261  13.091   3.265  12.571
88936W        W61262  25.796  27.433  13.738
88937W        W61263   7.216   0.719  10.571
88938W        W61264  33.414   9.435  11.219
88939W        W61265  25.919   2.845   3.679
88940W        W61266  31.637  19.258  13.598
88941W        W61267  23.688   0.923   4.715
88942W        W61268  26.605   6.237  14.859
88943W        W61269  30.492  41.445  14.323
88944W        W61270  18.612  12.776   1.356
88945W        W61271  24.092   0.849   2.349
88946W        W61272  14.949   8.584   4.133
88947W        W61273  38.755  21.665   2.242
88948W        W61274  15.342  34.322  13.065
88949W        W61275  21.769   1.555   4.166
88950W        W61276  41.927  16.876   2.266
88951W        W61277  24.874  25.873  14.070
88952W        W61278  17.218  44.470   4.055
88953W        W61279  38.566  15.132   1.883
88954W        W61280  16.064   4.762  11.136
88955W        W61281  43.229   3.889  10.666
88956W        W61282  27.669  33.521  14.855
88957W        W61283  37.569  23.608   1.269
88958W        W61284  23.396  33.197   2.737
88959W        W61285   4.733  37.561   4.656
88960W        W61286  33.444  38.759  10.751
88961W        W61287   2.273   6.324  14.013
88962W        W61288  24.697  28.015   2.903
88963W        W61289  21.158   7.402   3.032
88964W        W61290  31.037   9.828  13.563
88965W        W61291  25.122  15.822   4.317
88966W        W61292  36.837  35.828  10.421
88967W        W61293  24.438  25.426   4.226
88968W        W61294  19.881  12.040  11.751
88969W        W61295  36.579  19.802  11.973
88970W        W61296  13.168  36.086  10.357
88971W        W61297  24.492  15.108   0.232
88972W        W61298   0.479   1.870   4.984
88973W        W61299   0.510  37.708  13.564
88974W        W61300  27.235  27.435  13.531
88975W        W61301  21.208  29.980  11.191
88976W        W61302   5.209  13.616   2.161
88977W        W61303  12.851  37.026   5.595
88978W        W61304  22.695  35.367  11.226
88979W        W61305  43.502  14.763   1.792
88980W        W61306   4.354  44.422   2.976
88981W        W61307  25.571  39.557  14.008
88982W        W61308   2.290  25.048  10.461
88983W        W61309  25.702  13.409   4.654
88984W        W61310  37.569  25.556   3.684
88985W        W61311  44.763   3.284   2.402
88986W        W61312   1.725  40.060   4.515
88987W        W61313   9.651  13.745   4.615
88988W        W61314  31.659  26.595   2.702
88989W        W61315   5.603  29.488  10.644
88990W        W61316   9.134   0.552  12.857
88991W        W61317  34.585  43.637  10.526
88992W        W61318  27.985  28.241   5.032
88993W        W61319  36.076  16.058   2.274
88994W        W61320  26.512  28.083  10.650
88995W        W61321  14.261  35.872  11.130
88996W        W61322  35.839  35.884   0.317
88997W        W61323  10.690  20.227   0.008
88998W        W61324  39.782  31.406   0.770
88999W        W61325  32.556  33.781   0.780
89000W        W61326  42.510   3.696  12.997
89001W        W61327  23.732  37.902  11.339
89002W        W61328  27.512   4.800   2.213
89003W        W61329  27.986  10.305  12.214
89004W        W61330  14.866  42.802   0.862
89005W        W61331  33.321   4.178   2.704
89006W        W61332   0.082  42.324  14.450
89007W        W61333  38.787  19.884  11.502
89008W        W61334  34.367  15.720  12.073
89009W        W61335  27.290  31.205   3.765
89010W        W61336  24.283  30.748   2.759
89011W        W61337  18.445  23.354  11.899
89012W        W61338  33.601  18.297   0.357
89013W        W61339  11.400  13.226  12.886
89014W        W61340  32.131   8.944  14.028
89015W        W61341  11.203  35.566  11.898
89016W        W61342  39.541   2.193   2.325
89017W        W61343  35.065   9.333   1.683
89018W        W61344  13.721  34.300   3.186
89019W        W61345  22.494  21.582   0.675
89020W        W61346  11.635   5.897   1.327
89021W        W61347  28.587   4.027   2.832
89022W        W61348  35.709   9.248   0.203
89023W        W61349  28.765  29.838  11.965
89024W        W61350  44.073  12.043  11.494
89025W        W61351  35.878  26.425   4.641
89026W        W61352  34.460   7.642   1.925
89027W        W61353  23.933  22.525   3.680
89028W        W61354  37.800  22.696  13.030
89029W        W61355  29.590  28.481  11.401
89030W        W61356  17.989  43.519   2.644
89031W        W61357  23.253   9.681  11.042
89032W        W61358  19.786  11.417  11.139
89033W        W61359  39.174  11.923  14.289
89034W        W61360  42.023   4.020  13.344
89035W        W61361  30.607   5.823  10.712
89036W        W61362  12.585   2.400  11.165
89037W        W61363  19.047  18.265  10.795
89038W        W61364  37.556   5.700  14.331
89039W        W61365  20.528   3.318   2.358
89040W        W61366  28.551  30.120  12.323
89041W        W61367  21.970   0.165  10.827
89042W        W61368   7.745  20.122   4.588
89043W        W61369  34.095   7.026  12.906
89044W        W61370  21.583   2.678  10.657
89045W        W61371   8.678  20.264   2.803
89046W        W61372  42.002  27.745   0.814
89047W        W61373  35.945  28.950  13.112
89048W        W61374   4.765  15.635  13.232
89049W        W61375  44.741  32.029  10.640
89050W        W61376   8.740   8.942   4.154
89051W        W61377  10.389  34.126   1.394
89052W        W61378  19.605   5.444   3.258
89053W        W61379  22.333  13.952   1.950
89054W        W61380  25.136   3.177  11.590
89055W        W61381  15.366  15.526  14.398
89056W        W61382   0.504  40.057  12.519
89057W        W61383  18.729   7.700   0.159
89058W        W61384  24.920  34.869   1.293
89059W        W61385  30.154  34.979   4.937
89060W        W61386  10.646  41.757  13.343
89061W        W61387  20.766   8.555  14.444
89062W        W61388   2.926  13.877   3.149
89063W        W61389  14.760  37.127  11.977
89064W        W61390  11.128  26.544   3.318
89065W        W61391  39.781  28.165   1.170
89066W        W61392  41.943  15.171  13.348
89067W        W61393  16.316  29.075  14.488
89068W        W61394  23.172   1.820   1.932
89069W        W61395   2.536  25.972   2.470
89070W        W61396  18.418  22.225   2.809
89071W        W61397  16.663  23.092   1.293
89072W        W61398  18.131   5.184  11.482
89073W        W61399  32.858  29.022  14.256
89074W        W61400  11.468   9.215   1.250
89075W        W61401  17.462   4.719  10.586
89076W        W61402  43.365  35.173  10.788
89077W        W61403  29.556  26.794  12.511
89078W        W61404  43.310  27.951  14.453
89079W        W61405  33.618   1.492   0.899
89080W        W61406  29.196   9.002   1.744
89081W        W61407  27.763  29.406  11.395
89082W        W61408  14.993   9.197  13.596
89083W        W61409  44.286  42.413   4.258
89084W        W61410   9.246   2.494   1.256
89085W        W61411   2.500  16.597   1.582
89086W        W61412  25.542   6.987  14.053
89087W        W61413  14.715   5.009   2.157
89088W        W61414  23.409   9.863   1.682
89089W        W61415  20.063  40.971  13.023
89090W        W61416  17.488  42.025   3.252
89091W        W61417  43.765  34.910   1.804
89092W        W61418  16.594  14.670  10.640
89093W        W61419   2.003   9.229  13.841
89094W        W61420  44.862  20.447   2.174
89095W        W61421  27.678  16.404   3.156
89096W        W61422  32.027   0.442   0.391
89097W        W61423  18.030   5.857   3.293
89098W        W61424  32.916   7.678  10.690
89099W        W61425  16.902  31.073  10.996
89100W        W61426  35.105  36.539  12.002
89101W        W61427  36.486   0.823  10.214
89102W        W61428  34.577  37.148   0.822
89103W        W61429   8.666  40.947   2.693
89104W        W61430   9.646  36.449   0.501
89105W        W61431  25.852   1.873  12.800
89106W        W61432   6.317  18.537  14.407
89107W        W61433  15.748  37.951   4.580
89108W        W61434  37.499  31.114   1.190
89109W        W61435  33.611  13.045   1.845
89110W        W61436  10.825  44.811  13.046
89111W        W61437  30.226  41.981   4.460
89112W        W61438  32.007   6.355   2.366
89113W        W61439   7.458  28.653  12.176
89114W        W61440  11.259  28.422  11.117
89115W        W61441  12.221  21.706   0.538
89116W        W61442   5.207  39.939   0.479
89117W        W61443  35.596  35.434   1.288
89118W        W61444  28.548   0.191   3.141
89119W        W61445   0.832  30.585  13.297
89120W        W61446  30.687  37.542  12.965
89121W        W61447   9.387  39.557  13.466
89122W        W61448  42.990  36.774   3.164
89123W        W61449  39.195  10.996  10.140
89124W        W61450   6.678  32.253   4.082
89125W        W61451  25.687  27.506  12.896
89126W        W61452  11.060  13.104   1.015
89127W        W61453  21.223  40.539  14.022
89128W        W61454  41.848  43.498   3.270
89129W        W61455  28.321  17.766   3.763
89130W        W61456  31.609  39.034   0.602
89131W        W61457  21.519   2.889  14.033
89132W        W61458  36.271  21.253  12.909
89133W        W61459  13.921  21.528   1.406
89134W        W61460  31.139  14.271   4.542
89135W        W61461  15.198  24.191   1.683
89136W        W61462  35.964   6.720   3.420
89137W        W61463  17.639  16.533   1.841
89138W        W61464  25.016  44.773  14.385
89139W        W61465  34.872   8.592  13.690
89140W        W61466   9.298  24.641  10.956
89141W        W61467  17.875  24.716  13.661
89142W        W61468  18.731   9.419   3.114
89143W        W61469   8.859  25.727   0.342
89144W        W61470   0.215   2.181   0.523
89145W        W61471  38.952  42.843  12.618
89146W        W61472  24.072  18.979   3.199
89147W        W61473  26.060  21.021  10.642
89148W        W61474   4.234   9.263   1.174
89149W        W61475  35.058  21.700  13.276
89150W        W61476  20.989   4.863   2.793
89151W        W61477  19.601  26.250   2.286
89152W        W61478  26.658   6.878   2.890
89153W        W61479   5.182  36.257  14.647
89154W        W61480  39.458  38.595   2.880
89155W        W61481  39.822  14.077  14.593
89156W        W61482  38.953  40.490   2.145
89157W        W61483  15.517  44.295  13.766
89158W        W61484  33.501   0.826   3.151
89159W        W61485  16.621   1.718   4.885
89160W        W61486  14.874  32.038   4.194
89161W        W61487  27.704   3.755  12.861
89162W        W61488  42.891   1.849   3.233
89163W        W61489  33.463  23.088  12.866
89164W        W61490  31.668  32.051   2.172
89165W        W61491  11.645  36.058  12.428
89166W        W61492  37.397  38.873  13.772
89167W        W61493  32.115   1.340   3.208
89168W        W61494  22.042  13.627   3.651
89169W        W61495  30.005  39.260   0.267
89170W        W61496   5.164   7.641  11.095
89171W        W61497  27.131  10.288   2.181
89172W        W61498  33.992   8.145   4.583
89173W        W61499  12.745   4.485  11.376
89174W        W61500  42.441   9.768   0.931
89175W        W61501   3.311  43.709  12.540
89176W        W61502   0.441  29.495  12.744
89177W        W61503   5.218  18.686   2.712
89178W        W61504  29.621  16.926  11.514
89179W        W61505  17.074  25.767   2.265
89180W        W61506   9.919  18.618   3.347
89181W        W61507  12.264   0.292  14.927
89182W        W61508  30.945  40.563   3.214
89183W        W61509  17.523   4.839   0.680
89184W        W61510  41.274  38.918  13.980
89185W        W61511  11.272   5.300   0.493
89186W        W61512  12.077  13.685  13.325
89187W        W61513   7.068   2.325  11.626
89188W        W61514  44.144  10.191  13.552
89189W        W61515   2.609  23.474   9.811
89190W        W61516  26.872  36.428   4.056
89191W        W61517  33.462  17.773   1.223
89192W        W61518  26.934  13.615  11.557
89193W        W61519  23.260  36.585  14.848
89194W        W61520  17.386   6.574  11.051
89195W        W61521   9.015   0.162  13.239
89196W        W61522  44.924  15.100  13.484
89197W        W61523   3.612   3.220   0.740
89198W        W61524  41.376  42.902  11.915
89199W        W61525  12.905  29.116  14.240
89200W        W61526  27.065   4.756   5.147
89201W        W61527  23.422  36.989  10.189
89202W        W61528  39.223   5.271  12.170
89203W        W61529  19.960  16.224  14.739
89204W        W61530  35.144  25.025   1.507
89205W        W61531  21.208  10.793   2.775
89206W        W61532   1.439  39.351  12.382
89207W        W61533  22.093  44.789  14.597
89208W        W61534  35.174  22.714   2.262
89209W        W61535  30.287  30.521   1.239
89210W        W61536  44.545  26.041  12.984
89211W        W61537  36.353   6.846  13.418
89212W        W61538  14.205  12.651  11.782
89213W        W61539  25.521  33.965  13.066
89214W        W61540  41.454  16.210  12.867
89215W        W61541  25.159  39.821   2.703
89216W        W61542  35.606  44.475  14.381
89217W        W61543   8.241  23.718  13.362
89218W        W61544  31.504  33.716  13.796
89219W        W61545  29.325  12.283   1.766
89220W        W61546  44.922   2.315  11.082
89221W        W61547  10.244  40.109   0.920
89222W        W61548  38.781  44.452   2.050
89223W        W61549   0.398   8.948   5.032
89224W        W61550  21.082  35.090   2.408
89225W        W61551   2.377   2.876   4.237
89226W        W61552  26.408  10.479   3.282
89227W        W61553   7.799  26.777  14.357
89228W        W61554  21.653  32.229  12.155
89229W        W61555  11.153   5.751  12.515
89230W        W61556  44.100   1.500   0.340
89231W        W61557  36.930  18.676   1.763
89232W        W61558  10.116  43.324  14.243
89233W        W61559  28.773  24.039   3.048
89234W        W61560  10.641   7.777  11.573
89235W        W61561  37.668  32.315  10.906
89236W        W61562  41.981  38.075  13.867
89237W        W61563  15.228  11.203   2.841
89238W        W61564  33.996  44.537  14.900
89239W        W61565  43.236  34.390   4.359
89240W        W61566   7.015   6.674  11.271
89241W        W61567  17.190  11.773  10.611
89242W        W61568  17.854  36.539  12.320
89243W        W61569   8.356  20.448  11.571
89244W        W61570  43.545  35.342   0.160
89245W        W61571  22.943  20.756   1.195
89246W        W61572   6.437   1.414  13.017
89247W        W61573  10.953   4.692   4.480
89248W        W61574  15.981  43.960  13.328
89249W        W61575  21.882  20.791   3.056
89250W        W61576  36.865   6.322   1.518
89251W        W61577  10.807  37.602   3.599
89252W        W61578   7.317  37.402  12.918
89253W        W61579  26.558  34.054  13.552
89254W        W61580  17.514   2.662  13.540
89255W        W61581  13.636  32.336  14.307
89256W        W61582  18.027  41.517   4.486
89257W        W61583  22.261  17.119  14.139
89258W        W61584  30.113   1.296   1.339
89259W        W61585  33.106  23.185  12.131
89260W        W61586  12.218  28.968   1.349
89261W        W61587  13.992   9.787  11.938
89262W        W61588  31.546  42.803   4.518
89263W        W61589  39.385   3.951  11.012
89264W        W61590  40.316  25.455   4.164
89265W        W61591  37.279  11.916  13.090
89266W        W61592  33.949   2.171   4.610
89267W        W61593  42.486  43.306  14.433
89268W        W61594  30.512  28.600  14.297
89269W        W61595  27.171  24.895   4.130
89270W        W61596  10.211   8.492   2.872
89271W        W61597  16.620  42.272   2.342
89272W        W61598  11.654  42.737   4.878
89273W        W61599  20.094  31.607   0.909
89274W        W61600   0.620  27.388  12.046
89275W        W61601  43.253  20.433  11.614
89276W        W61602   5.925   4.992   2.805
89277W        W61603  42.933  14.833  12.399
89278W        W61604  41.981  27.703  11.156
89279W        W61605   6.819   4.978  10.643
89280W        W61606  36.212  29.190  13.949
89281W        W61607   1.177   9.421  14.094
89282W        W61608   2.391  22.087  12.594
89283W        W61609  26.004  42.325   1.362
89284W        W61610  14.733   2.210  13.380
89285W        W61611  18.986  26.514   2.314
89286W        W61612   3.157  17.987  11.672
89287W        W61613  29.607   6.922   0.668
89288W        W61614  27.395  42.819   2.286
89289W        W61615  41.822  37.002   4.572
89290W        W61616  43.464  26.304   0.891
89291W        W61617   4.751  23.121   1.465
89292W        W61618  38.787  33.802  13.903
89293W        W61619  11.598   4.731   2.664
89294W        W61620  42.973  19.107  10.502
89295W        W61621  24.263   2.323  11.235
89296W        W61622   0.470  44.690   4.537
89297W        W61623  38.216   6.433  11.196
89298W        W61624  29.073  38.099  11.457
89299W        W61625  32.252   4.834  11.427
89300W        W61626  26.765  39.075   4.169
89301W        W61627   1.337  11.599  13.591
89302W        W61628  25.128  38.453   1.666
89303W        W61629   6.711  18.545  14.045
89304W        W61630  24.636   2.184   0.079
89305W        W61631  43.861  15.230   1.179
89306W        W61632  21.764  23.567   1.012
89307W        W61633  11.456  14.800   2.835
89308W        W61634  30.703  25.084   2.837
89309W        W61635  23.017  17.315   3.082
89310W        W61636  42.914  26.248   0.990
89311W        W61637   5.846  39.836  12.094
89312W        W61638  20.760  39.784   1.107
89313W        W61639   5.339  43.223  12.351
89314W        W61640  22.215  43.839   0.750
89315W        W61641  29.391  41.071   9.975
89316W        W61642  19.979  40.819   4.842
89317W        W61643  28.949   5.853  12.081
89318W        W61644  20.748  23.206  14.171
89319W        W61645  43.115  19.363   3.655
89320W        W61646  30.305  40.036   3.121
89321W        W61647  33.610  30.125  11.509
89322W        W61648   4.422  22.208   9.750
89323W        W61649  30.926   0.380  10.974
89324W        W61650  40.339  32.039  14.803
89325W        W61651   9.757   8.625  14.829
89326W        W61652  29.847  14.597   0.911
89327W        W61653   3.860  40.547  10.570
89328W        W61654  27.997  10.145  13.596
89329W        W61655  41.294  20.568  12.419
89330W        W61656  30.410  37.749   4.269
89331W        W61657  34.728  14.111   1.687
89332W        W61658  19.335   0.836  12.154
89333W        W61659  39.102  12.249   4.144
89334W        W61660  37.828  22.569   1.733
89335W        W61661  38.678   1.894  14.889
89336W        W61662   0.023  13.298   2.790
89337W        W61663  31.146  24.917  10.711
89338W        W61664   9.056  30.932  14.905
89339W        W61665  43.928   0.232  14.906
89340W        W61666  31.521  32.074   0.341
89341W        W61667  13.432  15.795  12.457
89342W        W61668  40.603  12.736   2.373
89343W        W61669  15.361  38.060   1.812
89344W        W61670  39.397  29.545  10.401
89345W        W61671  42.253  30.083   0.813
89346W        W61672  23.678   3.814  11.727
89347W        W61673  29.329  40.013   3.300
89348W        W61674   5.506  16.280  12.420
89349W        W61675  42.480  23.540  12.940
89350W        W61676  23.606   7.866  11.520
89351W        W61677  28.505  41.367   0.795
89352W        W61678  30.602   5.675  13.734
89353W        W61679  16.821  20.700   0.524
89354W        W61680  37.330  13.140   9.873
89355W        W61681   2.464  18.091   0.051
89356W        W61682  42.803  42.353  13.982
89357W        W61683  42.993  32.668   0.727
89358W        W61684  24.542  41.411   4.566
89359W        W61685  26.346   6.953   0.231
89360W        W61686  44.732   7.209   4.596
89361W        W61687   2.924  10.627   1.208
89362W        W61688  32.690  18.074   5.086
89363W        W61689  22.234   6.185  12.315
89364W        W61690   2.251  34.452  12.589
89365W        W61691  29.697  23.113   0.369
89366W        W61692  13.799  28.057  10.662
89367W        W61693  16.200  14.119   4.950
89368W        W61694  39.128  36.594   3.603
89369W        W61695  17.597  22.215  14.976
89370W        W61696  34.335  40.312   3.553
89371W        W61697  34.366  19.240  13.566
89372W        W61698  16.249  30.542  14.728
89373W        W61699  30.084   0.292   4.362
89374W        W61700  12.906  17.554   0.459
89375W        W61701  11.605  37.832  14.408
89376W        W61702  10.120  15.640  12.517
89377W        W61703   3.597  17.445   2.684
89378W        W61704   3.361  40.911   1.326
89379W        W61705   8.352  15.905   4.877
89380W        W61706  10.960  35.154  10.652
89381W        W61707  14.270  37.044  12.479
89382W        W61708   7.938  10.752   2.813
89383W        W61709   3.225  22.055  13.307
89384W        W61710  29.711  22.505  12.635
89385W        W61711  35.331  13.274  14.289
89386W        W61712  15.898  14.287  11.085
89387W        W61713  31.398  11.288   0.285
89388W        W61714  39.823  35.999   0.181
89389W        W61715  15.879  11.672   1.789
89390W        W61716  34.074  23.847   3.249
89391W        W61717  22.216  43.201  14.765
89392W        W61718   8.103  28.599   2.286
89393W        W61719   6.242  29.658  10.790
89394W        W61720   9.896  15.517   1.463
89395W        W61721  32.168  38.598   4.166
89396W        W61722  22.440   3.395   4.919
89397W        W61723  23.716   8.746  11.162
89398W        W61724  36.336  38.872  14.460
89399W        W61725  21.502  42.996   4.234
89400W        W61726  25.453  32.146  13.957
89401W        W61727   4.947  19.684   0.950
89402W        W61728  26.516   8.730   2.934
89403W        W61729  11.666  29.796  10.385
89404W        W61730  28.150  44.567  14.962
89405W        W61731  10.764  19.597  12.162
89406W        W61732  14.575  16.824   1.383
89407W        W61733  23.618  12.050  12.723
89408W        W61734  32.327  32.088  11.117
89409W        W61735  15.782  24.149  14.441
89410W        W61736  41.895  12.800   1.152
89411W        W61737  40.209  40.340  12.554
89412W        W61738   2.186  18.117  13.115
89413W        W61739  44.250  23.110  11.474
89414W        W61740  30.169   4.853   4.555
89415W        W61741  30.566   4.494   3.854
89416W        W61742   7.785  18.758   4.213
89417W        W61743  35.635  33.046   1.763
89418W        W61744  44.521  20.593  14.441
89419W        W61745  30.898   8.682  14.743
89420W        W61746  16.296  25.566   0.008
89421W        W61747  39.554  13.842  11.753
89422W        W61748  33.422  40.819  14.421
89423W        W61749  10.625  41.451   3.246
89424W        W61750  35.030  10.633  11.951
89425W        W61751   1.603  28.023   1.453
89426W        W61752  32.565  30.806   4.443
89427W        W61753  26.153  18.246  13.024
89428W        W61754  10.926   3.227   4.523
89429W        W61755  44.937  19.216  10.706
89430W        W61756   8.325  32.129   4.597
89431W        W61757  14.717   0.477   3.945
89432W        W61758  21.541  21.154   2.228
89433W        W61759  17.292  39.596  11.198
89434W        W61760  42.282   7.481  11.177
89435W        W61761  32.165  27.605  11.518
89436W        W61762  13.151   0.214   3.400
89437W        W61763  30.912  42.314  13.057
89438W        W61764   9.992  30.378   2.187
89439W        W61765   3.517  40.039   3.261
89440W        W61766  20.735   9.512  14.060
89441W        W61767  14.167   4.969   1.906
89442W        W61768  25.641  21.492  11.732
89443W        W61769   2.444  20.975   3.712
89444W        W61770  17.683  19.737  14.693
89445W        W61771  34.328  27.470   1.588
89446W        W61772  25.304   0.458   0.457
89447W        W61773  29.693   5.481  14.427
89448W        W61774   4.736  27.434  12.797
89449W        W61775  20.092   6.204  11.263
89450W        W61776  43.379  42.021   4.382
89451W        W61777  15.056  13.300   3.166
89452W        W61778  28.616  30.642  11.452
89453W        W61779   2.375  19.822   1.383
89454W        W61780   9.081  13.176  13.125
89455W        W61781   6.394   0.234   3.364
89456W        W61782  13.845  39.819   2.668
89457W        W61783  33.646  27.769  14.391
89458W        W61784   4.420  14.301  14.050
89459W        W61785  32.041  40.625  13.339
89460W        W61786  19.689   8.416  10.528
89461W        W61787   0.875  33.317  12.106
89462W        W61788   3.494  36.062  14.747
89463W        W61789  44.966  28.625  10.523
89464W        W61790  20.221  14.749   2.189
89465W        W61791  29.048  16.463  12.579
89466W        W61792   4.200  15.275  12.434
89467W        W61793  36.920   2.709  11.705
89468W        W61794  40.815  19.756   0.904
89469W        W61795  37.622  15.596  11.973
89470W        W61796  39.428  23.479   0.858
89471W        W61797   0.833   9.611  12.195
89472W        W61798  28.429   7.759   1.319
89473W        W61799  31.472  12.764  14.248
89474W        W61800  15.599  26.563  11.073
89475W        W61801  34.468  31.849  13.136
89476W        W61802  39.018  35.165   4.971
89477W        W61803  37.302  39.755   4.761
89478W        W61804  39.779  25.992   1.587
89479W        W61805  19.600  38.635   3.715
89480W        W61806   7.615  15.536   2.869
89481W        W61807  23.607   1.922  14.342
89482W        W61808  37.278  43.616  14.429
89483W        W61809  33.025  34.819  12.580
89484W        W61810   0.978   1.469  11.455
89485W        W61811  44.864  10.131   0.998
89486W        W61812  22.201  42.505  11.143
89487W        W61813  15.648  18.754   2.731
89488W        W61814  41.357  34.460  12.735
89489W        W61815  22.009  22.730  14.275
89490W        W61816  42.026  14.095  14.002
89491W        W61817  22.000  30.490  12.322
89492W        W61818  38.888  33.986   1.686
89493W        W61819  21.041  11.577   1.416
89494W        W61820  15.597   6.928   0.817
89495W        W61821  22.027  22.477   3.843
89496W        W61822  22.298  16.042   0.080
89497W        W61823  41.457  44.711   2.684
89498W        W61824  21.052  25.304   4.105
89499W        W61825   9.827  32.738  13.609
89500W        W61826  43.218   7.260  13.318
89501W        W61827  39.248   9.141  13.923
89502W        W61828  44.340  30.051   4.119
89503W        W61829  25.647  25.537   3.849
89504W        W61830  43.842  23.005  13.799
89505W        W61831  21.135   0.087   0.264
89506W        W61832  12.823  34.919   3.924
89507W        W61833  24.824  12.620  14.064
89508W        W61834  43.307  15.776  10.667
89509W        W61835  13.835  26.874   4.762
89510W        W61836  20.582  18.851  13.043
89511W        W61837  31.112  32.455  13.941
89512W        W61838  40.475  24.878  13.881
89513W        W61839   7.929  29.958  10.702
89514W        W61840  38.968  27.467  13.014
89515W        W61841  25.231  33.511   4.962
89516W        W61842  42.739   1.022   2.073
89517W        W61843   0.380  18.370   0.915
89518W        W61844  30.509   2.359  12.276
89519W        W61845  23.020  27.641   3.577
89520W        W61846  14.795  35.833   4.011
89521W        W61847   4.750  23.410   0.334
89522W        W61848   2.422  40.361   2.832
89523W        W61849  13.877  20.783   2.337
89524W        W61850  17.104  38.945   1.199
89525W        W61851   8.317  37.347   0.401
89526W        W61852  14.713  44.713  11.992
89527W        W61853  11.612  32.894   0.781
89528W        W61854  24.025  37.537   2.918
89529W        W61855   1.821  22.417  13.170
89530W        W61856  31.497  23.702   4.076
89531W        W61857  36.035  18.808  13.512
89532W        W61858   2.671   5.447  10.254
89533W        W61859  33.513   7.072   3.531
89534W        W61860  21.442  24.901   4.227
89535W        W61861  43.926  28.909  13.053
89536W        W61862  26.978  31.461  14.550
89537W        W61863   6.350   4.026  10.985
89538W        W61864  42.506  18.364   0.450
89539W        W61865  44.555   1.348   1.316
89540W        W61866  15.721   3.214   0.032
89541W        W61867  25.670   5.749   0.643
89542W        W61868  31.963  35.062  11.631
89543W        W61869  33.132  18.506  11.432
89544W        W61870  32.927  42.553  11.727
89545W        W61871  44.202   0.016  10.746
89546W        W61872  27.936   1.944  11.635
89547W        W61873  43.833  18.102  13.406
89548W        W61874  10.207   3.870  14.726
89549W        W61875  41.520  26.525   4.831
89550W        W61876   8.173  29.882  13.861
89551W        W61877  32.045  23.698  14.491
89552W        W61878   0.855   9.257   0.794
89553W        W61879  25.088  17.576  11.188
89554W        W61880  37.788   5.906  13.909
89555W        W61881  21.694  44.095   3.355
89556W        W61882  14.574  35.820   0.201
89557W        W61883  24.646  37.436  10.009
89558W        W61884   6.810  31.439   3.243
89559W        W61885  36.965  12.598   3.627
89560W        W61886  29.649  42.973   9.737
89561W        W61887   0.872  29.079  12.225
89562W        W61888   0.429  42.007  12.197
89563W        W61889  16.162  22.504   1.837
89564W        W61890  22.721  42.460   4.631
89565W        W61891   0.461  27.687  14.781
89566W        W61892   9.688  38.289   3.140
89567W        W61893  24.202  32.323  11.707
89568W        W61894  30.974  10.672   1.984
89569W        W61895  41.380  40.613   3.217
89570W        W61896  38.223   4.316   3.580
89571W        W61897  17.281  20.552   0.741
89572W        W61898   1.670  26.620  11.185
89573W        W61899  16.739  14.144   1.887
89574W        W61900  43.777  10.549   4.658
89575W        W61901  28.026  11.403   2.258
89576W        W61902  40.454  30.409  10.890
89577W        W61903   9.323  14.684   1.627
89578W        W61904  27.066  32.250   3.513
89579W        W61905  23.231   3.854  11.454
89580W        W61906  39.995  23.437   0.113
89581W        W61907  29.569  31.090   0.909
89582W        W61908  21.078  14.673   3.777
89583W        W61909  26.097  24.672   0.893
89584W        W61910  40.224  33.573  12.700
89585W        W61911  17.580  33.570  12.124
89586W        W61912  13.662  16.844   0.987
89587W        W61913  35.561   5.566  10.436
89588W        W61914  21.526  41.886   3.892
89589W        W61915  37.650  25.057   1.046
89590W        W61916   0.953  35.943  10.865
89591W        W61917  43.294  41.237   4.126
89592W        W61918  14.870  36.025   9.939
89593W        W61919  23.705  11.725   0.976
89594W        W61920  40.183  41.764  14.059
89595W        W61921  22.639  34.879   4.683
89596W        W61922  41.482   9.001   0.440
89597W        W61923  36.417  18.826  12.892
89598W        W61924   3.324  38.342  10.674
89599W        W61925   0.566  11.721  14.976
89600W        W61926  36.600  34.974  11.123
89601W        W61927   7.928  25.678   3.740
89602W        W61928  31.696  16.218   4.748
89603W        W61929   1.895  30.097  12.810
89604W        W61930  18.329  43.910   3.752
89605W        W61931  21.592   3.250   5.007
89606W        W61932  15.545   6.538   4.015
89607W        W61933  37.749  11.969  13.312
89608W        W61934   7.797  29.385   0.348
89609W        W61935  10.209   2.786   4.761
89610W        W61936   3.627   7.171  13.887
89611W        W61937  11.219   0.817  14.167
89612W        W61938   3.921  20.281  13.447
89613W        W61939  35.682  20.300  12.067
89614W        W61940  39.738  21.987  14.832
89615W        W61941  43.217  37.902   0.724
89616W        W61942  29.167  44.915  14.005
89617W        W61943  32.869  15.343   0.575
89618W        W61944  33.904   0.270  14.289
89619W        W61945  10.324  24.237  14.077
89620W        W61946  35.658  11.342  11.951
89621W        W61947  20.157   6.396  12.967
89622W        W61948  44.988   4.286  14.961
89623W        W61949  38.248   1.475  13.786
89624W        W61950  22.440  19.185  11.519
89625W        W61951  37.638  15.215  12.335
89626W        W61952  27.692  10.403  13.225
89627W        W61953  26.678  33.718  12.529
89628W        W61954  35.071   3.422  11.424
89629W        W61955  32.409  30.908   0.360
89630W        W61956  42.237  16.514   0.793
89631W        W61957  30.905   2.479   3.091
89632W        W61958  20.253  28.455   3.988
89633W        W61959  10.486  30.327   3.628
89634W        W61960  38.011  36.008  14.964
89635W        W61961   0.708  32.940   4.233
89636W        W61962   9.849  38.909   1.179
89637W        W61963  30.094  30.439   2.628
89638W        W61964   4.492  30.643  14.394
89639W        W61965   2.669  29.649   3.610
89640W        W61966   7.590  38.571   3.366
89641W        W61967  32.785  31.869  11.185
89642W        W61968  21.982  42.776  14.634
89643W        W61969  13.342   9.249  13.147
89644W        W61970  43.036  37.601  12.135
89645W        W61971  39.584  25.035   2.380
89646W        W61972  38.872  17.032  10.825
89647W        W61973  30.401  31.221  13.776
89648W        W61974  29.594   4.747   1.449
89649W        W61975  13.676  34.937   2.275
89650W        W61976  26.225  11.324  12.819
89651W        W61977   5.917  10.721  12.038
89652W        W61978  31.100  22.695  10.682
89653W        W61979  41.342   5.713  12.526
89654W        W61980   9.476   8.123  13.871
89655W        W61981  31.133  14.187  14.997
89656W        W61982   7.189  21.617   0.383
89657W        W61983  36.349   9.442   4.284
89658W        W61984  28.581  42.508   4.268
89659W        W61985  37.032  44.407   2.656
89660W        W61986  26.576   4.278  13.816
89661W        W61987   7.224  14.194   4.625
89662W        W61988  33.611   6.805   2.773
89663W        W61989   2.319   6.779  11.524
89664W        W61990  17.858   9.457   3.023
89665W        W61991  42.561   2.758   3.720
89666W        W61992  43.045  41.014  10.836
89667W        W61993  25.556  32.239   0.837
89668W        W61994  10.634  42.724  14.899
89669W        W61995  11.837   4.759  10.681
89670W        W61996  24.730  33.918  13.612
89671W        W61997  23.020   5.701   1.815
89672W        W61998   0.273  29.970  14.906
89673W        W61999  18.835  34.095  11.882
89674W        W62000  19.210  12.134   0.902
89675W        W62001   9.380   1.104   2.503
89676W        W62002  41.836  19.420  11.083
89677W        W62003   7.349  10.799   0.357
89678W        W62004  28.597  14.066   2.901
89679W        W62005   8.217   3.736   0.791
89680W        W62006  44.094  18.478  12.713
89681W        W62007  21.316   9.094   3.698
89682W        W62008  32.537  41.423   4.963
89683W        W62009  20.831  10.349   1.804
89684W        W62010  40.994  39.543   2.730
89685W        W62011  21.510  19.603   1.350
89686W        W62012  35.536  41.966  11.618
89687W        W62013  25.510  18.585   3.528
89688W        W62014   5.983  39.084  14.492
89689W        W62015   0.249  39.580   3.292
89690W        W62016   1.791  19.787  10.620
89691W        W62017  33.997  20.042   3.771
89692W        W62018   9.581  30.454  12.020
89693W        W62019  27.011  23.657   2.358
89694W        W62020   2.328   7.792  14.982
89695W        W62021  12.681  39.529  14.795
89696W        W62022  33.389  13.449  12.610
89697W        W62023   0.974  19.159   4.557
89698W        W62024  18.352  21.533  13.083
89699W        W62025  39.772   2.927  12.293
89700W        W62026   7.891  12.652   4.266
89701W        W62027   5.387  12.695   2.722
89702W        W62028  29.193  26.687   3.301
89703W        W62029  35.403  33.005   2.853
89704W        W62030  17.109  23.516  12.419
89705W        W62031  27.413  29.718  12.184
89706W        W62032  28.095   3.578   1.334
89707W        W62033  23.054  17.248   0.262
89708W        W62034  41.893  40.439   2.601
89709W        W62035  17.230  21.694  10.404
89710W        W62036  28.385  29.935   2.668
89711W        W62037  15.110  35.419   9.857
89712W        W62038  12.838  25.380  14.747
89713W        W62039  23.291  25.393   0.174
89714W        W62040  28.847   8.232  12.970
89715W        W62041  38.900  15.263  11.663
89716W        W62042  30.394  22.079   4.348
89717W        W62043  37.757  20.479  12.661
89718W        W62044  24.058   5.020   0.689
89719W        W62045   8.648  19.527   4.056
89720W        W62046  32.539   1.947   2.777
89721W        W62047  33.625   6.406   0.828
89722W        W62048  32.908  15.805  14.769
89723W        W62049   2.168  12.534   1.950
89724W        W62050  10.795  17.725   3.626
89725W        W62051  41.146  18.211   4.278
89726W        W62052   5.302  37.005   2.390
89727W        W62053  36.403  18.260  12.044
89728W        W62054  30.420  24.223   0.362
89729W        W62055  11.215  22.902   1.890
89730W        W62056  19.640  28.674   4.342
89731W        W62057  14.118   5.844  10.603
89732W        W62058  35.155  20.685  13.427
89733W        W62059   2.263  21.836   1.127
89734W        W62060  21.447   3.941   1.703
89735W        W62061  24.208  22.883   0.343
89736W        W62062  27.021   8.749   0.790
89737W        W62063  40.829   2.592   4.695
89738W        W62064  10.148  17.266  11.599
89739W        W62065   5.924  30.880  13.699
89740W        W62066  12.202  11.004  12.989
89741W        W62067   3.412   7.201  11.591
89742W        W62068  17.546  18.777  12.318
89743W        W62069  38.852  36.724  14.985
89744W        W62070   2.786  44.352   3.075
89745W        W62071  32.571  26.852   0.942
89746W        W62072   9.881   0.259   4.552
89747W        W62073  31.580   4.232   0.111
89748W        W62074  16.866  41.576  14.526
89749W        W62075  38.678   7.180   9.949
89750W        W62076  23.256  38.736  13.297
89751W        W62077  42.275  43.969  11.147
89752W        W62078  43.721   7.147  11.212
89753W        W62079  15.413  10.196  10.968
89754W        W62080  36.922  37.631  13.003
89755W        W62081  30.225  31.855  14.010
89756W        W62082  22.450   2.387   1.880
89757W        W62083  30.661  15.248  13.962
89758W        W62084  21.691  11.727   1.856
89759W        W62085   0.781  22.585  12.150
89760W        W62086   1.226  40.978   0.950
89761W        W62087  39.351  23.942  14.960
89762W        W62088  23.692  29.369   2.133
89763W        W62089  24.414  32.388  11.163
89764W        W62090   5.334  29.487   4.540
89765W        W62091  38.741  40.319  13.064
89766W        W62092  15.774  21.100  14.901
89767W        W62093  21.544  10.857   1.903
89768W        W62094  17.839  23.657  12.637
89769W        W62095  20.234  36.368  10.488
89770W        W62096  12.580  40.517   1.943
89771W        W62097   3.248   6.458   0.306
89772W        W62098  21.190  13.094   1.281
89773W        W62099  29.145  33.832   3.878
89774W        W62100   6.630   8.923   1.226
89775W        W62101  12.814   1.173   4.323
89776W        W62102   4.689  12.809  12.920
89777W        W62103  24.587  36.917   0.519
89778W        W62104  40.069  36.526   1.354
89779W        W62105   1.194   8.667   4.146
89780W        W62106   7.885  12.162   2.151
89781W        W62107  37.928  26.763   4.531
89782W        W62108  19.720  43.870   2.896
89783W        W62109   1.018  28.330  11.154
89784W        W62110   9.891   6.088   4.892
89785W        W62111  42.585  27.934  12.889
89786W        W62112   9.944  13.389  10.719
89787W        W62113  25.143  32.314   4.536
89788W        W62114  12.741  39.486   2.452
89789W        W62115  42.825  30.689   2.811
89790W        W62116  20.081  14.781   2.746
89791W        W62117  35.992  39.117  14.178
89792W        W62118  43.406  32.504   4.119
89793W        W62119  16.656  43.533   4.036
89794W        W62120   4.970   1.949   1.058
89795W        W62121  15.821  20.521   4.094
89796W        W62122  11.300  23.640   3.666
89797W        W62123  29.030   3.244  10.735
89798W        W62124   7.852  28.888   0.915
89799W        W62125  24.585  43.794  10.851
89800W        W62126  26.001  42.498   2.240
89801W        W62127   1.254  16.382   0.810
89802W        W62128  21.589   4.753  13.579
89803W        W62129  33.919  12.295   4.341
89804W        W62130  15.785   9.892   4.899
89805W        W62131  13.183  36.448   2.734
89806W        W62132   4.069  12.514   0.831
89807W        W62133   2.932  32.570   0.231
89808W        W62134  24.284  31.586  14.387
89809W        W62135   5.835  22.694  10.912
89810W        W62136   4.194   9.624  12.002
89811W        W62137  12.839  19.046   0.933
89812W        W62138  10.151  34.572  13.481
89813W        W62139  13.654  17.425  11.923
89814W        W62140  11.839  34.306  11.927
89815W        W62141  30.056  32.448  13.205
89816W        W62142  22.953  36.419  11.193
89817W        W62143   6.407  42.100  11.985
89818W        W62144  36.921  41.557  12.157
89819W        W62145  12.062  11.197   2.062
89820W        W62146  26.939  10.275  10.708
89821W        W62147   8.252  23.079   4.074
89822W        W62148  31.332  25.022   1.810
89823W        W62149  20.267  23.750   0.167
89824W        W62150  34.830  35.623  14.897
89825W        W62151  44.486   1.305  12.441
89826W        W62152  13.836  20.508   4.047
89827W        W62153  36.162   3.375  12.967
89828W        W62154  40.682  21.466   2.323
89829W        W62155   0.888   5.367   0.233
89830W        W62156  21.043  44.280   3.706
89831W        W62157  30.614  25.613   3.604
89832W        W62158  39.011   3.046   3.317
89833W        W62159  43.047  44.865  14.266
89834W        W62160  37.548  43.023  11.497
89835W        W62161  26.150  40.257  13.151
89836W        W62162  32.530   6.695   1.363
89837W        W62163  40.613  25.013   4.142
89838W        W62164  36.279  17.129  13.573
89839W        W62165  27.923  26.828   4.530
89840W        W62166   3.977  35.135  10.717
89841W        W62167   7.654   2.805   1.687
89842W        W62168  22.043   8.817   1.810
89843W        W62169  29.454  12.570   1.234
89844W        W62170   4.524   6.021   3.595
89845W        W62171   0.290  17.276   2.332
89846W        W62172  16.678  41.744   2.275
89847W        W62173  43.009  44.279  14.839
89848W        W62174   5.853  17.889  10.843
89849W        W62175  40.272   3.276   1.842
89850W        W62176  36.857  37.803   2.190
89851W        W62177  22.628  32.398  14.760
89852W        W62178   3.427  40.322   1.349
89853W        W62179  27.541   3.450   3.869
89854W        W62180  15.132  40.975  13.496
89855W        W62181  28.675   8.862   1.847
89856W        W62182   2.478  34.061   3.797
89857W        W62183  19.333  35.473   2.756
89858W        W62184  38.454  17.555   1.016
89859W        W62185   2.904  29.589  10.455
89860W        W62186   4.749   2.452  12.950
89861W        W62187  21.120  30.483  11.143
89862W        W62188   9.919  20.653   2.773
89863W        W62189   4.916  21.688  10.538
89864W        W62190   9.334   9.807   0.269
89865W        W62191  44.301   7.263  12.936
89866W        W62192  27.488  18.307  11.602
89867W        W62193  38.866   6.914  13.449
89868W        W62194  10.196   8.319  14.943
89869W        W62195  34.154   5.333  11.642
89870W        W62196  41.086  10.125  12.828
89871W        W62197   2.253  17.624  11.421
89872W        W62198   4.845  10.785   5.057
89873W        W62199  31.081  39.323  11.695
89874W        W62200  13.363  29.715   0.947
89875W        W62201  16.350  11.326  13.923
89876W        W62202  13.177  21.324   5.000
89877W        W62203  20.973  24.560  12.060
89878W        W62204  30.617   2.411   2.100
89879W        W62205  10.470  11.436  11.582
89880W        W62206   9.168  28.382  11.003
89881W        W62207   0.209  44.849  10.541
89882W        W62208  36.124  36.559   1.666
89883W        W62209  40.404  14.582  11.020
89884W        W62210  22.542   7.635  14.431
89885W        W62211   4.881  35.073  10.603
89886W        W62212   0.490  33.635  11.894
89887W        W62213  21.750  36.923  13.041
89888W        W62214  40.853  41.552  13.337
89889W        W62215  18.502   2.500  10.663
89890W        W62216  15.712  29.537   3.583
89891W        W62217  26.889   2.488   1.481
89892W        W62218  26.766  16.175  13.099
89893W        W62219  28.083  36.662   4.599
89894W        W62220  29.667  18.138   0.325
89895W        W62221   0.404  15.622   3.226
89896W        W62222  30.688  19.079  14.259
89897W        W62223   6.877  25.591  13.221
89898W        W62224  17.772  13.674   2.917
89899W        W62225  19.680  37.620   1.240
89900W        W62226   2.070   8.586  12.387
89901W        W62227   0.879  36.066  12.730
89902W        W62228  24.871  18.223   5.684
89903W        W62229   7.442   2.369  10.814
89904W        W62230  25.163  44.642   2.608
89905W        W62231  26.933  16.578   1.734
89906W        W62232   6.241  33.161  10.784
89907W        W62233   7.104  12.815  14.119
89908W        W62234  25.869   7.389   1.014
89909W        W62235  24.015  23.042  12.592
89910W        W62236  17.764  18.666  13.255
89911W        W62237  43.033  15.316  10.659
89912W        W62238  40.850  21.940   1.283
89913W        W62239  30.036   7.756  12.185
89914W        W62240  32.559  33.917   5.058
89915W        W62241  10.512  15.862   2.288
89916W        W62242  23.274  44.568   3.797
89917W        W62243  42.115  16.741  12.937
89918W        W62244  36.258  26.653   3.849
89919W        W62245  28.978   1.593  10.621
89920W        W62246  28.374  21.581  14.160
89921W        W62247   7.715  27.148  10.838
89922W        W62248  15.257  16.121   0.641
89923W        W62249  44.325  32.928   4.225
89924W        W62250  21.417  22.304   0.086
89925W        W62251  18.586  13.557  14.428
89926W        W62252  10.768   3.410   3.669
89927W        W62253  23.719  11.191   1.434
89928W        W62254  30.086   3.343  12.459
89929W        W62255  41.335  15.083   0.374
89930W        W62256  24.485  39.471   2.686
89931W        W62257  17.105   9.770   0.786
89932W        W62258   1.306  32.902   1.348
89933W        W62259   3.169   2.122  13.461
89934W        W62260  13.720  11.621   4.169
89935W        W62261  31.858  43.039  11.613
89936W        W62262  33.638  21.118   5.077
89937W        W62263  25.725  39.933   2.393
89938W        W62264   3.277  18.815   4.994
89939W        W62265  44.939   9.446  14.876
89940W        W62266   6.411   2.969  11.603
89941W        W62267  32.346   4.793  13.924
89942W        W62268  41.986  11.819   1.666
89943W        W62269  34.880   5.088   4.584
89944W        W62270  21.059  43.470  14.747
89945W        W62271  11.036  10.298   3.789
89946W        W62272  37.833  43.302  11.176
89947W        W62273  34.931  44.603   3.925
89948W        W62274  34.956  32.393   1.468
89949W        W62275  39.939  31.414  13.220
89950W        W62276  37.351  27.336   4.071
89951W        W62277  10.386  30.740  12.853
89952W        W62278   0.780   8.048   2.826
89953W        W62279  21.868  14.337   1.047
89954W        W62280  23.179  21.998  13.096
89955W        W62281   9.306  40.890  11.887
89956W        W62282  17.649   0.817   4.676
89957W        W62283  39.407   4.588   0.724
89958W        W62284  20.805   5.763  14.813
89959W        W62285  30.866  41.417   1.145
89960W        W62286  31.519  30.352   0.370
89961W        W62287  40.928  11.317   1.189
89962W        W62288  15.680  44.282   5.086
89963W        W62289  17.918  31.620   1.686
89964W        W62290  27.407  33.514  10.431
89965W        W62291   2.353  12.795  14.434
89966W        W62292  18.348  32.587   1.280
89967W        W62293  14.089   0.261  11.085
89968W        W62294  14.796  11.098  14.395
89969W        W62295  40.543  26.214   3.423
89970W        W62296  20.992  14.652  14.842
89971W        W62297  16.211  18.541  10.230
89972W        W62298  10.407  42.923  11.079
89973W        W62299  27.469  35.608  11.795
89974W        W62300  41.584   3.847   2.102
89975W        W62301  35.748  27.606   1.705
89976W        W62302  10.062   1.947  14.945
89977W        W62303  10.475  16.101  14.567
89978W        W62304  31.678   2.305  11.020
89979W        W62305  20.873  34.116  13.596
89980W        W62306   9.294  22.112   1.246
89981W        W62307  25.197   2.917  13.437
89982W        W62308  12.773  44.631  14.294
89983W        W62309  16.747  23.853  10.634
89984W        W62310   5.092  29.666   0.995
89985W        W62311   9.584  21.584   4.301
89986W        W62312  34.099  11.704   4.252
89987W        W62313  30.945   6.479   4.682
89988W        W62314  25.500  37.011  12.122
89989W        W62315  26.694  30.098  13.433
89990W        W62316  42.953  18.183   2.606
89991W        W62317  20.882  36.817  14.859
89992W        W62318  26.977  17.091   4.225
89993W        W62319  37.904  26.499  11.128
89994W        W62320  34.260   5.366  13.430
89995W        W62321  42.395  39.213  13.193
89996W        W62322  44.439  39.457   0.343
89997W        W62323  16.285  42.779  14.980
89998W        W62324  42.463   6.711   2.684
89999W        W62325  24.258   5.304  12.703
90000W        W62326  39.720  10.402  12.492
90001W        W62327  18.649  19.307  14.845
90002W        W62328  19.054   5.127  11.578
90003W        W62329   1.822  42.594  12.589
90004W        W62330  32.305  15.722  13.497
90005W        W62331  43.281  19.668  12.952
90006W        W62332   9.660  14.420  13.126
90007W        W62333  19.269   4.706   0.877
90008W        W62334   6.479  17.127   0.194
90009W        W62335   9.928  17.540   0.477
90010W        W62336  28.490  39.357   1.704
90011W        W62337   5.754  35.258  12.353
90012W        W62338  28.968  17.090   2.179
90013W        W62339  41.797   0.897   3.924
90014W        W62340  10.262  30.784   2.798
90015W        W62341   2.010  17.676   1.192
90016W        W62342  44.104  34.648   1.508
90017W        W62343  44.329   0.881   1.438
90018W        W62344  22.558  40.087  13.929
90019W        W62345   1.823  34.501   0.708
90020W        W62346  36.511  31.749   4.667
90021W        W62347  42.606  38.360  14.901
90022W        W62348  38.794  39.452  14.922
90023W        W62349  25.104  43.360   2.136
90024W        W62350   2.189  21.800  14.333
90025W        W62351   4.103  37.257  14.992
90026W        W62352   8.471  22.078   1.879
90027W        W62353  43.233  18.201  10.575
90028W        W62354  37.519  28.504  14.956
90029W        W62355  41.965  21.634  14.330
90030W        W62356  17.336  26.520  11.256
90031W        W62357  19.080  23.680   0.590
90032W        W62358  20.670  34.528   2.309
90033W        W62359  36.015  10.774   2.204
90034W        W62360   2.354   6.657  12.020
90035W        W62361  14.808  37.636  11.090
90036W        W62362  13.297  15.310   2.788
90037W        W62363  32.893  31.503   1.110
90038W        W62364  30.938   3.885  12.475
90039W        W62365  23.340   7.499   3.911
90040W        W62366  18.239  39.559   2.889
90041W        W62367  31.396  37.687  14.890
90042W        W62368  25.965  11.658  13.940
90043W        W62369   7.917  34.913   0.586
90044W        W62370   3.403   3.126  11.069
90045W        W62371  41.786  40.865  10.992
90046W        W62372  44.416  28.985   0.459
90047W        W62373  26.254  39.746   0.474
90048W        W62374  10.058  26.908   3.167
90049W        W62375  41.521  16.837   1.883
90050W        W62376  37.850  12.109   3.799
90051W        W62377  23.164   7.823  12.018
90052W        W62378  20.600  22.742  12.680
90053W        W62379   0.654  20.107   2.687
90054W        W62380  22.257   4.330   1.383
90055W        W62381  42.419   2.299   3.917
90056W        W62382  41.737  39.423   4.988
90057W        W62383  32.343   6.903  14.441
90058W        W62384  11.197  16.244   0.962
90059W        W62385  22.117  43.887   0.231
90060W        W62386  17.503  44.805  14.365
90061W        W62387  15.267  25.487  10.301
90062W        W62388   6.184  19.236   0.123
90063W        W62389   8.847   8.182   0.505
90064W        W62390  15.160   0.795  12.626
90065W        W62391  19.485  14.320  14.286
90066W        W62392  35.337   2.385  13.340
90067W        W62393   3.836  15.289  11.546
90068W        W62394  18.228  38.590   3.188
90069W        W62395   4.003  31.991   4.380
90070W        W62396  42.602  17.725  12.655
90071W        W62397  32.387  28.589   1.296
90072W        W62398  30.600   5.382   2.143
90073W        W62399  43.372  26.144  13.995
90074W        W62400  29.668  36.441   3.224
90075W        W62401  38.021  39.407  14.355
90076W        W62402  39.038  18.137  13.480
90077W        W62403  14.385  35.023  12.538
90078W        W62404  28.207  32.218   0.176
90079W        W62405  44.717  43.277   3.195
90080W        W62406  38.447  34.594   2.277
90081W        W62407  24.027  29.439  11.709
90082W        W62408  35.524  12.286  11.639
90083W        W62409  34.068  24.259   3.648
90084W        W62410   0.987  33.443  12.617
90085W        W62411  31.891  32.628  11.811
90086W        W62412   5.312  38.558  11.607
90087W        W62413   9.160   3.046  11.225
90088W        W62414  23.686  17.257  14.090
90089W        W62415  41.551  17.222   2.306
90090W        W62416  38.497  12.771  14.977
90091W        W62417  19.231  22.044   1.816
90092W        W62418  38.858  38.324   1.409
90093W        W62419  19.312  35.405  11.599
90094W        W62420  15.829  17.798   2.429
90095W        W62421  31.380  14.752  13.824
90096W        W62422  33.395   1.671  12.152
90097W        W62423  15.644  16.266  13.908
90098W        W62424   1.318   0.809   4.588
90099W        W62425  29.524  32.456   4.119
90100W        W62426  23.412  37.664  13.350
90101W        W62427  21.219  43.851   0.114
90102W        W62428   1.286  33.976   1.268
90103W        W62429  24.554  18.482  10.235
90104W        W62430   9.618  12.631  11.582
90105W        W62431  40.877   9.208   1.813
90106W        W62432   9.243  42.267   4.602
90107W        W62433  17.730  34.854  13.442
90108W        W62434  36.542  12.034   5.006
90109W        W62435  24.970  39.359   2.533
90110W        W62436  12.374  21.785   4.856
90111W        W62437  30.136  30.730   3.942
90112W        W62438  42.477   5.691  14.966
90113W        W62439  25.813   8.152   0.788
90114W        W62440  21.079  21.440  12.490
90115W        W62441   7.967  14.327   2.804
90116W        W62442  41.428   5.305  10.612
90117W        W62443  26.638  26.304   0.401
90118W        W62444  38.081  23.092   3.914
90119W        W62445  33.131  32.565  13.880
90120W        W62446   6.776   2.276  13.580
90121W        W62447  40.508  33.523   1.630
90122W        W62448  26.621  35.425   1.192
90123W        W62449   5.384   4.864   2.839
90124W        W62450  21.666  44.079  13.914
90125W        W62451  23.471  24.252  14.481
90126W        W62452   1.522   2.132   3.391
90127W        W62453  14.140  39.808  12.328
90128W        W62454  22.430   8.716   0.314
90129W        W62455  31.756  13.345   0.507
90130W        W62456  32.271   7.244  11.154
90131W        W62457  12.107  35.278   5.038
90132W        W62458  34.921  10.370  10.686
90133W        W62459  41.448  21.101   1.719
90134W        W62460  31.923  22.286   1.317
90135W        W62461  23.217  25.616   3.648
90136W        W62462  36.588  15.047   1.329
90137W        W62463  32.593  41.464  14.969
90138W        W62464  29.583  40.972   4.674
90139W        W62465   3.332  40.775  10.645
90140W        W62466  24.312   8.301   0.664
90141W        W62467  34.097   7.875   4.134
90142W        W62468  28.508  15.336  12.567
90143W        W62469   5.471  25.599  10.507
90144W        W62470  35.558  37.573  11.767
90145W        W62471  38.392  35.505   4.122
90146W        W62472   5.630  15.281  12.049
90147W        W62473  36.318  30.527   1.374
90148W        W62474  11.319  36.277   1.717
90149W        W62475  31.989  16.689  14.945
90150W        W62476  26.270   9.881   2.339
90151W        W62477  42.279  19.065  12.468
90152W        W62478  10.567   9.653  14.986
90153W        W62479   0.427  37.594   3.170
90154W        W62480  33.508  40.749  11.568
90155W        W62481  38.884  35.391   1.306
90156W        W62482  20.838   1.896   9.946
90157W        W62483  14.714  30.289  12.932
90158W        W62484  25.927  25.431   2.909
90159W        W62485   6.202  30.375   4.990
90160W        W62486  18.620  36.279  12.918
90161W        W62487   4.018  10.666   4.137
90162W        W62488  33.212   0.837  13.934
90163W        W62489  37.497  31.151   0.270
90164W        W62490   7.249  18.466  14.844
90165W        W62491   4.927  25.011   2.745
90166W        W62492   1.429  36.948   0.690
90167W        W62493  19.397  13.432  14.082
90168W        W62494  36.090  14.480  13.606
90169W        W62495  18.170  17.473  13.565
90170W        W62496  29.165  27.383  11.905
90171W        W62497  28.675   5.347  11.042
90172W        W62498  38.438  39.480   1.296
90173W        W62499  33.958  13.796   4.415
90174W        W62500  10.421  18.993   0.394
90175W        W62501  24.974  14.646   2.397
90176W        W62502  31.963  22.323   2.141
90177W        W62503  27.243  18.630  10.280
90178W        W62504  43.520  38.490  14.738
90179W        W62505  28.322  19.064   2.005
90180W        W62506   7.254  31.989  12.410
90181W        W62507  38.910   1.286  13.493
90182W        W62508  12.698   4.130   1.351
90183W        W62509  11.423   3.888  11.828
90184W        W62510   5.672  19.658  11.934
90185W        W62511   4.305   4.030  12.581
90186W        W62512  29.546  44.849  12.462
90187W        W62513  17.730   2.879   1.956
90188W        W62514  39.572  16.785   3.384
90189W        W62515   1.610  35.584   0.307
90190W        W62516   5.176   3.497  10.399
90191W        W62517  21.750  12.534   4.226
90192W        W62518  30.165  11.702   2.391
90193W        W62519  22.700   9.905  13.832
90194W        W62520  10.640  20.010  11.608
90195W        W62521  31.293  17.590   4.122
90196W        W62522  33.009  32.910   2.464
90197W        W62523  33.037  38.508  12.983
90198W        W62524  39.717  30.784  12.250
90199W        W62525  37.904  38.491  14.769
90200W        W62526   2.216  30.377   4.198
90201W        W62527  35.486  29.650   4.908
90202W        W62528  42.329   9.294   4.541
90203W        W62529  14.682  12.599  10.476
90204W        W62530  27.118   2.752   1.098
90205W        W62531  42.894  12.620   1.300
90206W        W62532   7.801   9.860   3.668
90207W        W62533  38.756  11.224   4.555
90208W        W62534  41.393  14.318   1.653
90209W        W62535  25.029  33.977   1.470
90210W        W62536  10.168   4.697  14.520
90211W        W62537  19.798  44.073   2.400
90212W        W62538   1.358  27.009   0.313
90213W        W62539  17.133  40.581  12.812
90214W        W62540  16.246  41.618  12.043
90215W        W62541  33.991  34.784   4.078
90216W        W62542  12.196  40.100   0.220
90217W        W62543  36.995  40.741  12.594
90218W        W62544  40.938  30.912   3.003
90219W        W62545  33.862  36.079  12.056
90220W        W62546   8.537  19.261  10.583
90221W        W62547  18.114  37.393  14.792
90222W        W62548   8.345  28.578   1.025
90223W        W62549  37.151  37.748   0.464
90224W        W62550  27.890   1.677  12.069
90225W        W62551   9.167  29.081  13.953
90226W        W62552  44.797  13.792  14.010
90227W        W62553  35.073  39.373   1.957
90228W        W62554  44.586  11.464   4.614
90229W        W62555  42.359   3.676   4.577
90230W        W62556  10.067   4.627  12.319
90231W        W62557  16.369  17.339   0.363
90232W        W62558  33.575  21.595  13.361
90233W        W62559   4.242   5.869   2.678
90234W        W62560  10.867   9.079  12.121
90235W        W62561  32.413  37.406  12.097
90236W        W62562  10.736   3.724   2.255
90237W        W62563  20.848  13.665   1.918
90238W        W62564   2.246  15.277   4.410
90239W        W62565  34.427  26.265  13.879
90240W        W62566  22.042  39.302  14.003
90241W        W62567  28.996  26.424  10.916
90242W        W62568  42.066  10.665  14.932
90243W        W62569   7.689  26.509  14.793
90244W        W62570  27.576  15.886   3.153
90245W        W62571  15.573  38.357   3.819
90246W        W62572  37.940  32.042  12.054
90247W        W62573  20.102   6.143   0.421
90248W        W62574  37.324  25.084  13.918
90249W        W62575  26.771   3.163  13.306
90250W        W62576  17.946  37.863  14.913
90251W        W62577   8.138  13.953   4.192
90252W        W62578   6.860  31.997  10.974
90253W        W62579  26.095   1.188   1.913
90254W        W62580  44.829  17.862  12.069
90255W        W62581  41.407  30.502   4.650
90256W        W62582  14.572  12.500  12.475
90257W        W62583  22.754  31.501  12.905
90258W        W62584  18.716  34.412  14.127
90259W        W62585  20.218  24.885  13.007
90260W        W62586  35.288  12.882  12.513
90261W        W62587  25.538  37.558  12.134
90262W        W62588   2.768  33.595   1.214
90263W        W62589   5.864  16.544   1.873
90264W        W62590  10.182  21.518  10.653
90265W        W62591  31.509  35.865  14.774
90266W        W62592  14.515  28.702   5.121
90267W        W62593  36.124  40.126   0.490
90268W        W62594  31.171   9.322  13.432
90269W        W62595   9.495  31.723   0.362
90270W        W62596   8.389   6.389   3.296
90271W        W62597  27.619  34.177   1.487
90272W        W62598  35.478   1.271  11.269
90273W        W62599   6.915   3.724  14.472
90274W        W62600  31.111   4.432  12.496
90275W        W62601  30.145  44.400   4.203
90276W        W62602  36.309  36.078   1.847
90277W        W62603  34.439  44.771  12.192
90278W        W62604  41.282   1.334   4.622
90279W        W62605  17.667  20.600   1.964
90280W        W62606   5.474  36.286  12.475
90281W        W62607  24.652  22.739   0.662
90282W        W62608  13.414  35.978  11.250
90283W        W62609  10.605  12.288  12.581
90284W        W62610  19.131  17.068   1.846
90285W        W62611  39.967  17.904  13.913
90286W        W62612  26.358  27.737  11.114
90287W        W62613  18.074  21.164   4.555
90288W        W62614  36.443  31.927   0.445
90289W        W62615  38.362  10.641   3.805
90290W        W62616  11.326  11.154   4.705
90291W        W62617  25.379  32.712  13.558
90292W        W62618  44.321  10.262  12.209
90293W        W62619  21.187  27.194  14.555
90294W        W62620  40.282  30.726  13.302
90295W        W62621   2.349  41.370  12.455
90296W        W62622  26.114  14.786  13.866
90297W        W62623   4.226  10.198  10.690
90298W        W62624  28.978  10.520  14.535
90299W        W62625  23.792  18.779   2.784
90300W        W62626  40.968  42.465   0.922
90301W        W62627  22.775  24.594  12.490
90302W        W62628  22.587   0.750   3.450
90303W        W62629  40.388  33.928  12.363
90304W        W62630  15.373  42.988   0.943
90305W        W62631  33.122  13.861   1.044
90306W        W62632  25.420  12.904   3.227
90307W        W62633  42.680  19.993  11.345
90308W        W62634   0.190  24.779  12.037
90309W        W62635   2.905  35.157  13.534
90310W        W62636  19.769  29.920   0.993
90311W        W62637  28.728  18.108  14.860
90312W        W62638  43.898   1.845   3.365
90313W        W62639  42.996  17.693   2.408
90314W        W62640  15.348  39.292  11.699
90315W        W62641  19.532   1.831   4.552
90316W        W62642  14.190  21.280  13.909
90317W        W62643  42.862  25.277  10.726
90318W        W62644  28.363  39.016   0.355
90319W        W62645  17.316  20.161   0.382
90320W        W62646  16.042  30.206  12.505
90321W        W62647  26.171  10.108   0.489
90322W        W62648  22.827  23.194   0.447
90323W        W62649   7.771  24.682   1.751
90324W        W62650  10.480  24.573   0.920
90325W        W62651  37.785  20.087   4.346
90326W        W62652  36.474   8.247  11.536
90327W        W62653  12.248  33.820   2.752
90328W        W62654  11.326  27.210   0.446
90329W        W62655  34.852  40.802  14.436
90330W        W62656  25.706   4.662   2.398
90331W        W62657  24.194  41.347  14.324
90332W        W62658  26.064  21.062  13.911
90333W        W62659  19.315  29.935  11.805
90334W        W62660   4.077  41.214   4.353
90335W        W62661   4.853   4.371   2.864
90336W        W62662   4.878  17.540   3.172
90337W        W62663  35.514  44.475   2.182
90338W        W62664   1.348  32.494  12.169
90339W        W62665   5.484  10.689   2.969
90340W        W62666  44.829  39.871   3.255
90341W        W62667   5.717  44.904  10.538
90342W        W62668  10.950  42.835   3.677
90343W        W62669  22.230   4.524   4.160
90344W        W62670   4.707  23.717  10.017
90345W        W62671  20.948  11.228  14.788
90346W        W62672  17.099  14.308  11.644
90347W        W62673  39.877  15.268   2.256
90348W        W62674   5.489  29.058   3.363
90349W        W62675   6.836  34.336   0.003
90350W        W62676  44.127  25.735  10.307
90351W        W62677  26.928  18.217  14.543
90352W        W62678  18.667   5.897  12.647
90353W        W62679  41.319   2.164   1.309
90354W        W62680  25.479  21.864  14.196
90355W        W62681  14.647  21.446   3.779
90356W        W62682  32.068  14.249  10.983
90357W        W62683  34.035  42.731   4.106
90358W        W62684  31.013  22.106   2.281
90359W        W62685  42.732  32.603  12.846
90360W        W62686   0.237  17.615  14.485
90361W        W62687   3.523  24.527  13.843
90362W        W62688  42.943  16.716  11.462
90363W        W62689  30.770  19.733  11.376
90364W        W62690  15.492  14.390   1.894
90365W        W62691   5.981   4.410   1.958
90366W        W62692  22.630  18.241  13.853
90367W        W62693   4.140   3.344  13.497
90368W        W62694  36.814  37.511  11.541
90369W        W62695   2.897  35.528   4.824
90370W        W62696  20.693   0.782   0.841
90371W        W62697  38.683   2.997   2.906
90372W        W62698  40.340  20.560  10.355
90373W        W62699  41.935  38.263   3.614
90374W        W62700  19.334  42.984   4.996
90375W        W62701  15.165  24.465   4.067
90376W        W62702  23.009   5.289  14.949
90377W        W62703  10.871  29.866   3.626
90378W        W62704  41.628  23.001   2.726
90379W        W62705  14.997   8.403   4.652
90380W        W62706  21.935   2.817  11.250
90381W        W62707  32.567   4.791   1.891
90382W        W62708  41.208  28.926   0.729
90383W        W62709  18.262   4.640  14.670
90384W        W62710   2.465  40.391  11.244
90385W        W62711  19.087   3.553  14.267
90386W        W62712  35.856  38.409   2.987
90387W        W62713  34.178  39.615  14.167
90388W        W62714  44.327   1.300   2.264
90389W        W62715  21.483  31.035   2.803
90390W        W62716   4.380  18.725  14.636
90391W        W62717  35.032   8.143   4.124
90392W        W62718  27.586  30.404   3.720
90393W        W62719   2.325  29.599   2.269
90394W        W62720  41.110  23.907  14.461
90395W        W62721  18.159  13.058   0.262
90396W        W62722  44.758  26.561   0.415
90397W        W62723  36.010  35.159   4.190
90398W        W62724   3.538   9.415   2.682
90399W        W62725  35.534  11.077  12.358
90400W        W62726   2.230  39.993   4.691
90401W        W62727  15.825   3.109   4.956
90402W        W62728  14.086  33.083  12.634
90403W        W62729   1.379  43.344  11.396
90404W        W62730  27.551  32.558   0.958
90405W        W62731  12.338  23.942   4.185
90406W        W62732  17.602  15.055   0.938
90407W        W62733  40.425  10.945   1.782
90408W        W62734  19.115   1.981  10.634
90409W        W62735  13.298  10.817   4.324
90410W        W62736  25.103  21.896   0.077
90411W        W62737  32.192  19.629   2.829
90412W        W62738  21.223   9.287  11.613
90413W        W62739   4.395  23.567   4.173
90414W        W62740  30.508  14.593  11.855
90415W        W62741  29.047  23.736   0.068
90416W        W62742  24.141  15.463  11.153
90417W        W62743  35.861  31.430  13.440
90418W        W62744   1.415   4.799  14.959
90419W        W62745  21.534  11.284  10.703
90420W        W62746  30.679  11.077  14.855
90421W        W62747  33.099  10.203  11.269
90422W        W62748  23.131  36.644  13.961
90423W        W62749   6.774  11.411  12.396
90424W        W62750  37.814   7.349   1.245
90425W        W62751  32.997  13.042  10.721
90426W        W62752  39.651  14.342  14.998
90427W        W62753  44.435  44.583   3.549
90428W        W62754  26.256  31.913  12.330
90429W        W62755  22.030   3.490   3.663
90430W        W62756  33.898  30.680  10.921
90431W        W62757   5.459  34.436  14.806
90432W        W62758  33.910  20.024   0.931
90433W        W62759   3.017   6.179   4.519
90434W        W62760   4.490   9.348   4.082
90435W        W62761   7.607  12.688  14.087
90436W        W62762  14.606  11.844  13.240
90437W        W62763  39.693  35.192   2.671
90438W        W62764  13.348   6.882  14.940
90439W        W62765  33.586  30.949   2.231
90440W        W62766  38.880  22.240  11.143
90441W        W62767  43.442  21.594   3.431
90442W        W62768  36.887   0.806  11.421
90443W        W62769   9.326  32.926  12.548
90444W        W62770  11.884  39.708   2.395
90445W        W62771  23.034  42.523   2.913
90446W        W62772  18.270  11.575  11.519
90447W        W62773  38.395  15.709   4.888
90448W        W62774  15.542  20.198   0.850
90449W        W62775  23.863  34.117   4.808
90450W        W62776  28.778  18.057   2.665
90451W        W62777  42.079  16.295   4.198
90452W        W62778   1.672  35.637  11.941
90453W        W62779  21.071  37.370   4.930
90454W        W62780  14.573  19.788  11.669
90455W        W62781   7.173  20.979   2.505
90456W        W62782   5.803  41.232  10.809
90457W        W62783   0.495  20.503   0.268
90458W        W62784  21.910   8.710  10.677
90459W        W62785  21.293  27.726  13.407
90460W        W62786  12.853  40.709   0.583
90461W        W62787  31.606  37.848  14.366
90462W        W62788   8.331  20.707  12.520
90463W        W62789   3.646   0.297  14.348
90464W        W62790   3.911   0.170  13.920
90465W        W62791  38.383  35.146   3.655
90466W        W62792  34.983  28.734  12.465
90467W        W62793  43.831  36.510   4.902
90468W        W62794  30.981   3.428  10.645
90469W        W62795  24.375  31.424   0.297
90470W        W62796  22.684   0.226  11.732
90471W        W62797  32.890  30.488   2.899
90472W        W62798  13.851  40.277   0.438
90473W        W62799  17.111   4.720  12.908
90474W        W62800  38.406  22.137  10.944
90475W        W62801  37.620  32.501  10.436
90476W        W62802  18.018  17.685  11.692
90477W        W62803  43.389   0.366   2.369
90478W        W62804  39.886   0.468   3.582
90479W        W62805   2.936  15.780  11.688
90480W        W62806  15.654  20.611   0.021
90481W        W62807  19.775  35.504  14.807
90482W        W62808  22.616   7.935  13.997
90483W        W62809  15.616  25.454   2.104
90484W        W62810   2.943  42.961   0.920
90485W        W62811  35.621  43.304   4.620
90486W        W62812  44.446  28.747   4.512
90487W        W62813  34.891  36.331   4.592
90488W        W62814  12.335   0.963   4.312
90489W        W62815  13.038   9.102   1.653
90490W        W62816  10.132  27.147   0.217
90491W        W62817  12.134  33.219  12.455
90492W        W62818  18.761  23.708   2.801
90493W        W62819  21.160  39.001   4.382
90494W        W62820  34.951  19.082   2.635
90495W        W62821  17.370   1.384  13.407
90496W        W62822  37.046   4.307  12.531
90497W        W62823  15.329  31.137  12.748
90498W        W62824  13.778  17.059  14.369
90499W        W62825  31.599  31.058  11.043
90500W        W62826  29.316   5.098  12.493
90501W        W62827  13.896   3.937   1.510
90502W        W62828  44.748   0.472  12.340
90503W        W62829  21.474  39.047  13.879
90504W        W62830  36.071   6.850   3.892
90505W        W62831  15.306  10.178   1.195
90506W        W62832   8.225  42.447   0.157
90507W        W62833  28.548   5.877  13.358
90508W        W62834  25.706  28.041   4.119
90509W        W62835  43.889  17.546   2.909
90510W        W62836  43.281  11.646   2.802
90511W        W62837  43.906  30.357   4.651
90512W        W62838   5.257  11.840   3.154
90513W        W62839  38.311  38.393  13.832
90514W        W62840  23.698   3.971   3.333
90515W        W62841  33.141  29.007  14.716
90516W        W62842  21.009  12.380   1.865
90517W        W62843  28.005  13.742   1.324
90518W        W62844  21.244  23.712   1.771
90519W        W62845  25.996  17.483   1.501
90520W        W62846  10.608  15.155   0.295
90521W        W62847  15.399  20.943  13.514
90522W        W62848  26.692   2.028   1.435
90523W        W62849   2.358  38.501   3.706
90524W        W62850   3.256  22.788  10.165
90525W        W62851  37.101  23.269  11.608
90526W        W62852  32.230  13.604  14.711
90527W        W62853   0.592  37.099   2.283
90528W        W62854  26.172   1.283  13.836
90529W        W62855  28.444  17.997  11.517
90530W        W62856  13.285  22.344  13.960
90531W        W62857  31.946  12.414  12.998
90532W        W62858  13.148  25.545   3.612
90533W        W62859  32.529  23.866  14.412
90534W        W62860  21.641   3.295   2.832
90535W        W62861   1.445  21.806   3.077
90536W        W62862  26.021  23.794   0.737
90537W        W62863  24.328  40.756   4.265
90538W        W62864   1.590  23.915   9.790
90539W        W62865  25.132  22.042   1.118
90540W        W62866  18.954   5.376  10.629
90541W        W62867  38.686  35.372   1.784
90542W        W62868  24.720   1.295   3.338
90543W        W62869  24.190  22.066   1.033
90544W        W62870   5.195  29.520  10.966
90545W        W62871  22.806   1.751  10.674
90546W        W62872   6.021  17.527  12.087
90547W        W62873  20.778  32.998  14.626
90548W        W62874   6.924   5.752   1.101
90549W        W62875  16.277  26.047   2.668
90550W        W62876   4.454  23.692  14.394
90551W        W62877  41.965  20.166  11.835
90552W        W62878  44.878  34.405  13.817
90553W        W62879   6.342  42.261   3.110
90554W        W62880  31.080  13.703  12.922
90555W        W62881  10.069  29.560   0.208
90556W        W62882   3.251  24.144  13.580
90557W        W62883  21.396   7.261  11.987
90558W        W62884  17.696  41.477   1.469
90559W        W62885  43.378  13.678   3.856
90560W        W62886  13.582   7.851   4.541
90561W        W62887  17.277  36.484   1.819
90562W        W62888  44.822  21.437   2.773
90563W        W62889  34.551  22.442  13.769
90564W        W62890  20.494  40.258  10.076
90565W        W62891  40.546  18.785  11.685
90566W        W62892   0.769  39.183   1.757
90567W        W62893  13.203  37.751   3.256
90568W        W62894  37.351   0.392   0.713
90569W        W62895   7.772  29.386   4.419
90570W        W62896   0.251  14.955  11.106
90571W        W62897  41.875  33.803   2.739
90572W        W62898  36.040   2.474   2.462
90573W        W62899   6.729  12.334   1.702
90574W        W62900  10.172  40.670   0.869
90575W        W62901  40.438  37.245  12.520
90576W        W62902  19.149  18.049   4.595
90577W        W62903  28.595  26.529  10.599
90578W        W62904  16.575  11.189   2.332
90579W        W62905  25.056  24.052  11.578
90580W        W62906  35.328  28.363  14.627
90581W        W62907  16.573  44.817  10.811
90582W        W62908  14.053  18.556   4.386
90583W        W62909   5.707  22.810  14.480
90584W        W62910  32.454  42.754   4.443
90585W        W62911  36.728  24.747   1.426
90586W        W62912  12.133  24.340   0.719
90587W        W62913  27.741  28.562  11.476
90588W        W62914  43.036  13.757   3.461
90589W        W62915  34.970  11.352   4.121
90590W        W62916  23.522  20.802  11.212
90591W        W62917  14.295  31.021  12.492
90592W        W62918   4.220   3.149   4.259
90593W        W62919  31.546  31.063   1.196
90594W        W62920  32.885  23.506   3.198
90595W        W62921  29.727   4.736  11.645
90596W        W62922   9.166  29.523  13.140
90597W        W62923  44.446  13.050  12.906
90598W        W62924  43.304  33.159  12.612
90599W        W62925   6.351  30.705  11.460
90600W        W62926  42.040  10.403  13.093
90601W        W62927  26.594   8.844  11.060
90602W        W62928   3.543  40.425   4.524
90603W        W62929  17.374   7.624   2.876
90604W        W62930   6.194  26.997  12.211
90605W        W62931   2.181  10.374  14.496
90606W        W62932   1.256  44.517  12.089
90607W        W62933  21.578  32.517   2.695
90608W        W62934   4.468  15.755  10.632
90609W        W62935   9.277  21.932  11.414
90610W        W62936  17.685  16.789  13.352
90611W        W62937  16.747  38.447  12.502
90612W        W62938  18.823  11.835   0.019
90613W        W62939  36.550   5.275  12.053
90614W        W62940  12.079  22.229   3.756
90615W        W62941  32.605  29.518   2.470
90616W        W62942  36.524   4.032   2.736
90617W        W62943   2.012   1.311  13.495
90618W        W62944  13.083  41.414  12.100
90619W        W62945  39.860  20.036   4.342
90620W        W62946   9.389   6.254  14.903
90621W        W62947  30.707  37.834   1.606
90622W        W62948  23.578  12.543   2.097
90623W        W62949  20.655  14.121  13.113
90624W        W62950  40.773   7.183   1.510
90625W        W62951  20.340  18.002  13.846
90626W        W62952   5.213   4.893  10.532
90627W        W62953   7.860  10.376   3.659
90628W        W62954  24.360  29.885  14.271
90629W        W62955   9.843  26.262  10.172
90630W        W62956   2.367  19.411  13.816
90631W        W62957  38.937  19.034  10.924
90632W        W62958  21.393   8.474  11.163
90633W        W62959  37.461  35.682   4.365
90634W        W62960  33.587  43.036  12.859
90635W        W62961  32.917  10.407   4.277
90636W        W62962   5.270  12.125  14.328
90637W        W62963  20.490  43.510  14.134
90638W        W62964   5.818   6.638  14.319
90639W        W62965  17.856  44.513  10.489
90640W        W62966  23.968  20.736   0.748
90641W        W62967  29.181  42.595  11.164
90642W        W62968  32.278  38.888  11.870
90643W        W62969  11.940   0.308  12.455
90644W        W62970  17.783  31.098   3.071
90645W        W62971   8.409  36.665  14.543
90646W        W62972  25.084  11.583   2.327
90647W        W62973  36.534   1.940  14.462
90648W        W62974   4.360  40.393  12.049
90649W        W62975  29.121   3.327  14.617
90650W        W62976  12.750   4.764  12.125
90651W        W62977  38.039  20.448   1.649
90652W        W62978  27.926   2.718  12.102
90653W        W62979   5.505  30.510  13.013
90654W        W62980  19.050  25.133  14.845
90655W        W62981  39.710  22.685   1.321
90656W        W62982  33.547   7.056  10.241
90657W        W62983  33.326  33.660  11.880
90658W        W62984  11.731  21.603   3.782
90659W        W62985   7.716  30.635   4.641
90660W        W62986   9.721  20.268  14.584
90661W        W62987   1.763  37.583   1.230
90662W        W62988   4.833   7.648   4.665
90663W        W62989  29.049   4.966  13.067
90664W        W62990  34.896   2.492   0.250
90665W        W62991  16.852  20.057  10.981
90666W        W62992  27.047  24.200  11.089
90667W        W62993  17.245  17.675  14.886
90668W        W62994   7.532  27.660  10.869
90669W        W62995  13.591  34.654   1.832
90670W        W62996  17.227  24.682   4.837
90671W        W62997   7.656   3.681  13.540
90672W        W62998  34.956  18.533   3.123
90673W        W62999  33.519  11.799  10.282
90674W        W63000  29.736  28.601   9.706
90675W        W63001  43.528  24.646  14.777
90676W        W63002  12.623  36.583   4.619
90677W        W63003  11.190  21.432   2.559
90678W        W63004  21.606  33.504   3.269
90679W        W63005  41.365  21.983   1.536
90680W        W63006  28.541  35.901  12.652
90681W        W63007  23.486  42.571   0.287
90682W        W63008   7.231  34.654   4.116
90683W        W63009  39.464  32.603  11.934
90684W        W63010  23.036  29.085  11.082
90685W        W63011  25.504  26.646  12.395
90686W        W63012  10.119  13.215  11.182
90687W        W63013  42.699  29.940  13.445
90688W        W63014  24.092   2.879   4.314
90689W        W63015   6.916  30.148   0.923
90690W        W63016  43.020  33.984  14.493
90691W        W63017  43.505  23.990   1.355
90692W        W63018  40.095  24.145   3.868
90693W        W63019  30.523  16.718  10.485
90694W        W63020  27.079   0.837   1.177
90695W        W63021  24.733  36.455   1.948
90696W        W63022   4.272   8.908  11.182
90697W        W63023  29.772  39.359  13.601
90698W        W63024  20.678  38.785  11.077
90699W        W63025   8.731  30.678   1.887
90700W        W63026  32.628   3.423  11.619
90701W        W63027   2.824  13.062   2.728
90702W        W63028  29.839  38.644   4.217
90703W        W63029  43.027  30.366   4.146
90704W        W63030  40.974  26.928   2.840
90705W        W63031  37.552  10.886   3.349
90706W        W63032   3.604  37.021  13.440
90707W        W63033  23.439   1.484  14.752
90708W        W63034  20.701  40.823   0.255
90709W        W63035  29.748   9.339  12.058
90710W        W63036  22.043  28.055   4.294
90711W        W63037  37.815   4.255  13.127
90712W        W63038   0.314   0.641   3.379
90713W        W63039   8.212   9.703   2.682
90714W        W63040  29.072  37.443   3.831
90715W        W63041   3.672  13.102   4.385
90716W        W63042  30.405   9.833   1.871
90717W        W63043  18.613   0.905   1.127
90718W        W63044  43.873   3.720  11.380
90719W        W63045  29.078  23.496  13.188
90720W        W63046  32.167  32.452  11.430
90721W        W63047  27.025   7.919  11.801
90722W        W63048  34.465  20.270   3.697
90723W        W63049   3.288  18.127   4.283
90724W        W63050  24.347  18.660  14.042
90725W        W63051  35.409  31.694  11.163
90726W        W63052  14.769   2.319   4.598
90727W        W63053  32.566  15.177  14.296
90728W        W63054  37.569   8.161   3.148
90729W        W63055  30.987   4.172  14.311
90730W        W63056  12.818  10.611   2.073
90731W        W63057  17.169  17.804   1.309
90732W        W63058  43.452  30.166   3.086
90733W        W63059  17.768  11.758   4.744
90734W        W63060  15.986  24.708  13.745
90735W        W63061  44.696   4.964  10.933
90736W        W63062   3.935  13.626  10.661
90737W        W63063  32.711  23.104   3.922
90738W        W63064  25.164  43.439  11.675
90739W        W63065  12.331   7.286  12.962
90740W        W63066  17.688   8.970   3.046
90741W        W63067   2.696  32.698  13.014
90742W        W63068   5.371   7.851  11.543
90743W        W63069  38.243  25.613   0.359
90744W        W63070   8.913  17.987   4.368
90745W        W63071  29.572  36.574  13.032
90746W        W63072  31.056  32.809   1.050
90747W        W63073  31.176  44.728  13.945
90748W        W63074  38.320  36.876   4.273
90749W        W63075  21.136  17.114  11.601
90750W        W63076   4.718  32.626  14.377
90751W        W63077  32.838  33.272   2.812
90752W        W63078  17.090   3.859   1.524
90753W        W63079  42.889  11.057   4.770
90754W        W63080  19.190  20.729   3.286
90755W        W63081   3.688  11.269  14.755
90756W        W63082  25.588  31.224   2.638
90757W        W63083  15.804  21.610  14.961
90758W        W63084  19.263  34.877   2.165
90759W        W63085  25.590  41.252   4.105
90760W        W63086  19.184  26.448  13.960
90761W        W63087  21.916  36.817   3.059
90762W        W63088   9.620   2.344   3.438
90763W        W63089  40.028   9.284  11.767
90764W        W63090  40.914  19.737  12.665
90765W        W63091   1.143  22.300  12.657
90766W        W63092   2.022  17.806   2.108
90767W        W63093   5.676  18.656  13.988
90768W        W63094  28.211  40.777   4.111
90769W        W63095  10.414   0.508  13.887
90770W        W63096  14.318   8.516  14.098
90771W        W63097   1.476  30.470   2.825
90772W        W63098  40.414  39.826  13.618
90773W        W63099  24.506  27.084  14.307
90774W        W63100   0.330  25.024  12.504
90775W        W63101  44.039   9.280   4.768
90776W        W63102  18.220  27.843  12.443
90777W        W63103   0.050  35.942  10.487
90778W        W63104  44.659  32.628   0.393
90779W        W63105  32.955  15.608  12.854
90780W        W63106  41.854  35.920   3.720
90781W        W63107  21.927  35.045   3.419
90782W        W63108   7.269  20.984  11.579
90783W        W63109  29.644   9.615   2.708
90784W        W63110  19.779  36.258  14.031
90785W        W63111  36.511   4.382   1.429
90786W        W63112   5.352  27.055  13.455
90787W        W63113   1.051   9.857  10.333
90788W        W63114  43.372   4.359   3.539
90789W        W63115  42.426  12.759  11.645
90790W        W63116  30.349   1.617   4.102
90791W        W63117  24.126  34.390  13.054
90792W        W63118  30.169  31.011   1.457
90793W        W63119   1.445   1.057  14.874
90794W        W63120  30.068  26.631   4.911
90795W        W63121  22.585  34.898  10.696
90796W        W63122  41.300  37.795  14.844
90797W        W63123   8.790  19.459   3.255
90798W        W63124   2.834   7.780  13.704
90799W        W63125  22.958   2.281  10.690
90800W        W63126  18.094  33.560   2.803
90801W        W63127   1.415  14.490   0.779
90802W        W63128  24.539  15.480   1.267
90803W        W63129  12.678  27.922  13.772
90804W        W63130  37.760   1.409  13.896
90805W        W63131  26.053   2.292   2.418
90806W        W63132  38.923  23.978  12.901
90807W        W63133  27.953   7.140  10.738
90808W        W63134  26.142  28.677   3.171
90809W        W63135  36.326  39.764   2.179
90810W        W63136  33.604  38.564   3.701
90811W        W63137  28.599  44.897  12.356
90812W        W63138   4.634  10.125   2.454
90813W        W63139  40.238  30.465   2.842
90814W        W63140  18.210  33.718   0.207
90815W        W63141  34.876  37.373   2.643
90816W        W63142  37.878  14.849  12.012
90817W        W63143   5.038  34.396   0.476
90818W        W63144  18.817  29.069  14.446
90819W        W63145  39.179   9.547   0.481
90820W        W63146  14.223  40.047  13.215
90821W        W63147  26.993  21.426   3.795
90822W        W63148   9.124  44.898  14.965
90823W        W63149  21.613   7.803   1.192
90824W        W63150  31.434   1.377  10.691
90825W        W63151  10.763  12.889   0.424
90826W        W63152   2.742   9.390  10.590
90827W        W63153  22.611  29.093   0.743
90828W        W63154  23.498  14.889   2.325
90829W        W63155   5.058  12.066   3.587
90830W        W63156   7.364  42.833  13.415
90831W        W63157   9.413  27.967  12.333
90832W        W63158  10.904  33.892  13.414
90833W        W63159  32.638  25.044   3.226
90834W        W63160   4.920   5.315   1.714
90835W        W63161   4.396  27.867  13.964
90836W        W63162  20.157  31.949   1.821
90837W        W63163  23.072  27.535  13.390
90838W        W63164  35.495   4.771   2.680
90839W        W63165  36.408  22.363  14.757
90840W        W63166  43.413   0.896   0.291
90841W        W63167   3.226  39.039   4.123
90842W        W63168  21.328  28.156  12.102
90843W        W63169  28.883   2.879  14.781
90844W        W63170  14.722  20.697   3.292
90845W        W63171  13.232  25.043   4.443
90846W        W63172  26.633   2.281  11.926
90847W        W63173  19.502  17.258  14.480
90848W        W63174  12.835   9.909  13.933
90849W        W63175  26.207  41.838   3.906
90850W        W63176  33.768   7.214   3.100
90851W        W63177   3.923   5.435  14.490
90852W        W63178   5.835  15.621  11.064
90853W        W63179  22.222   2.789   4.088
90854W        W63180  10.421  18.718  13.847
90855W        W63181  43.841  26.100  12.396
90856W        W63182  43.591  21.079   1.303
90857W        W63183  12.783  18.786  11.183
90858W        W63184  25.077   9.616  13.693
90859W        W63185  18.458  22.222   2.271
90860W        W63186  27.188  38.293   3.888
90861W        W63187   3.430  13.567   4.288
90862W        W63188  13.417  16.670  14.466
90863W        W63189  41.194  27.957  13.520
90864W        W63190   7.174  24.262  12.173
90865W        W63191  38.470  16.318   1.666
90866W        W63192  12.360  24.405   3.804
90867W        W63193  10.791  18.585  14.217
90868W        W63194  35.770   0.280   2.731
90869W        W63195  16.790  13.089  10.714
90870W        W63196   5.532  18.715   3.149
90871W        W63197  21.577  10.765   1.383
90872W        W63198  32.075  40.973  14.334
90873W        W63199   9.906  11.973  12.946
90874W        W63200  28.739  10.877   4.177
90875W        W63201  21.613   2.484   3.158
90876W        W63202  18.196  26.608  14.961
90877W        W63203  12.843   4.287   3.419
90878W        W63204  20.028  34.597   1.820
90879W        W63205  40.060   0.901  11.540
90880W        W63206  21.512  35.623   3.592
90881W        W63207  36.984  28.521  10.645
90882W        W63208  23.131  38.871  14.266
90883W        W63209  44.317   8.263   2.244
90884W        W63210  24.624  19.662  12.074
90885W        W63211  15.014   7.365   1.331
90886W        W63212  12.263  33.163  13.800
90887W        W63213  28.274  39.096  12.164
90888W        W63214  17.398  14.726   1.668
90889W        W63215  23.153  16.215  12.061
90890W        W63216   5.997  11.327  14.533
90891W        W63217  10.220  10.451  14.530
90892W        W63218  44.281  39.519  12.784
90893W        W63219   1.849  43.339  11.905
90894W        W63220  14.362  31.607  11.634
90895W        W63221  14.053  13.783   3.685
90896W        W63222  15.686  44.855   0.430
90897W        W63223  18.662  43.775   1.346
90898W        W63224  22.300  28.181   2.731
90899W        W63225  28.503  38.651   2.812
90900W        W63226  43.755  36.301  13.011
90901W        W63227  19.875  29.550   0.289
90902W        W63228   8.865  21.036  13.898
90903W        W63229  32.001  11.556   3.664
90904W        W63230  32.035  10.647  12.245
90905W        W63231  17.119  40.262  13.360
90906W        W63232  18.709  26.490  14.958
90907W        W63233  30.029   1.394   0.808
90908W        W63234  23.529  14.527   3.226
90909W        W63235  27.425  44.283  10.886
90910W        W63236   0.529  44.192  13.917
90911W        W63237   9.565  43.016  10.203
90912W        W63238  20.834   4.004  12.852
90913W        W63239  11.448  29.521  13.515
90914W        W63240  11.549  27.461   0.034
90915W        W63241  43.398  28.460  11.831
90916W        W63242  13.311  22.165   2.633
90917W        W63243  44.806   7.710  11.388
90918W        W63244  23.172  21.106  14.019
90919W        W63245  18.460   0.927   2.503
90920W        W63246  41.287  39.148  12.979
90921W        W63247   6.963  16.957   2.533
90922W        W63248  33.927  10.512  12.461
90923W        W63249  33.245  30.546   0.790
90924W        W63250   0.084  37.450  11.904
90925W        W63251  31.468  40.499   3.680
90926W        W63252  22.211  19.121   0.823
90927W        W63253  32.048  38.431   4.652
90928W        W63254  38.064  39.529   4.454
90929W        W63255  17.047  32.377   2.535
90930W        W63256  29.968  13.281   4.561
90931W        W63257  28.325  27.453   1.327
90932W        W63258  34.478   0.044   2.464
90933W        W63259  11.778   5.283   0.624
90934W        W63260  18.255   8.612   1.396
90935W        W63261  20.488  22.677  13.211
90936W        W63262  30.269  23.638   4.393
90937W        W63263  15.503  30.621   0.260
90938W        W63264   0.568   8.943  11.031
90939W        W63265  38.824   9.453  12.345
90940W        W63266  32.893  25.555   1.257
90941W        W63267  42.338  34.600   1.543
90942W        W63268  14.984  40.798  14.556
90943W        W63269  43.732  22.657  10.853
90944W        W63270  20.889   9.836   1.540
90945W        W63271  24.744  25.139   0.187
90946W        W63272   7.342  21.833  12.988
90947W        W63273  25.593  44.541  11.197
90948W        W63274  38.937  39.763   1.386
90949W        W63275  26.454  30.160   3.099
90950W        W63276   6.444  27.517  12.603
90951W        W63277  14.192   4.673  12.045
90952W        W63278  27.457   1.457  10.522
90953W        W63279  36.911   3.266  12.438
90954W        W63280  44.254  25.162  13.421
90955W        W63281  43.326  23.584   3.804
90956W        W63282  30.194  32.981  11.582
90957W        W63283  30.016  31.246  13.410
90958W        W63284  37.133  34.690   3.838
90959W        W63285   2.830  26.969   3.599
90960W        W63286  15.348   8.637  12.897
90961W        W63287  34.045  21.685  10.950
90962W        W63288   3.477  43.512  13.923
90963W        W63289  29.004   3.422   5.020
90964W        W63290  33.523  16.613   3.878
90965W        W63291   9.307  40.922  10.397
90966W        W63292  43.334  27.512   1.506
90967W        W63293  31.037   5.208  11.945
90968W        W63294   7.212  17.297   0.667
90969W        W63295  13.653  25.205  10.152
90970W        W63296  36.798  10.765   0.725
90971W        W63297   9.659  34.556   3.144
90972W        W63298  23.256  14.741   1.875
90973W        W63299   9.174  23.009   3.574
90974W        W63300  22.439  24.233   3.627
90975W        W63301  13.359  21.252   1.749
90976W        W63302   1.333  10.841   3.168
90977W        W63303  32.854  20.582  12.088
90978W        W63304  10.734  41.856  12.850
90979W        W63305  36.305  16.347  14.942
90980W        W63306  37.497  31.893   4.750
90981W        W63307  23.583  38.372  11.556
90982W        W63308  43.809   0.857   3.430
90983W        W63309  40.508  33.188  11.155
90984W        W63310   4.875  27.550  10.271
90985W        W63311   0.166  37.843   0.800
90986W        W63312  14.197  39.413  12.682
90987W        W63313  26.615   5.817  13.120
90988W        W63314  11.247  22.056   4.265
90989W        W63315  27.440  30.625  12.374
90990W        W63316  36.702  17.264   0.017
90991W        W63317   5.746  39.899  11.102
90992W        W63318  25.343  32.478  13.079
90993W        W63319  15.775  30.683   2.640
90994W        W63320  25.342  14.676  12.673
90995W        W63321   6.268   3.295  12.902
90996W        W63322  40.025   1.978  11.558
90997W        W63323  13.800  27.494  12.640
90998W        W63324   6.510   1.443   3.574
90999W        W63325  16.001  38.053  12.480
91000W        W63326  10.670  37.094   2.271
91001W        W63327  21.214  42.561  12.735
91002W        W63328   4.526  26.194  13.474
91003W        W63329  44.755  28.288   4.178
91004W        W63330  41.395  25.322   1.988
91005W        W63331  36.109  11.683  12.462
91006W        W63332  23.674  34.214   3.274
91007W        W63333  19.836  23.941   3.176
91008W        W63334  19.152  11.826  12.907
91009W        W63335  13.122  26.501   2.341
91010W        W63336  21.725  20.800  14.395
91011W        W63337   4.643  13.244  11.382
91012W        W63338  44.383  42.726   0.480
91013W        W63339  12.106  18.741  10.784
91014W        W63340  10.245  30.508  13.601
91015W        W63341  30.324  24.287   2.609
91016W        W63342  30.393  26.365   4.186
91017W        W63343  33.509  38.353  12.159
91018W        W63344  37.244  38.354   2.733
91019W        W63345  13.837  21.009   2.810
91020W        W63346  33.233  34.399  12.316
91021W        W63347   7.030  27.712   1.751
91022W        W63348  37.404  29.821  12.108
91023W        W63349  41.815  16.571   4.555
91024W        W63350  12.731  14.746  10.733
91025W        W63351  11.632  29.407   0.263
91026W        W63352  31.421  37.871  13.491
91027W        W63353  26.218  22.822  11.481
91028W        W63354  37.487  29.047  14.462
91029W        W63355  36.261  23.654   3.728
91030W        W63356  35.555   4.526   4.146
91031W        W63357  37.027  21.518   1.910
91032W        W63358   0.403   4.059  13.761
91033W        W63359   2.753  17.508   4.631
91034W        W63360  21.322  28.257  13.433
91035W        W63361  32.123  16.451  11.519
91036W        W63362  10.832  12.621   4.507
91037W        W63363   6.062  19.775  14.800
91038W        W63364  13.310  10.380   0.435
91039W        W63365  35.287  25.795   4.163
91040W        W63366  32.008  14.815  12.151
91041W        W63367  17.592   5.458   4.117
91042W        W63368  31.676  44.295   4.055
91043W        W63369   7.637   7.692   0.494
91044W        W63370  12.682  13.816  11.280
91045W        W63371  34.138   9.000  14.282
91046W        W63372  24.075  27.472   0.881
91047W        W63373  44.537  20.281   4.168
91048W        W63374   6.125  44.791   3.207
91049W        W63375  35.652   4.504  13.004
91050W        W63376   3.385  38.326   3.788
91051W        W63377  38.532  21.407   3.569
91052W        W63378   2.330   2.545   0.398
91053W        W63379  11.663  16.095   2.176
91054W        W63380  24.986  18.659  11.639
91055W        W63381  19.648  19.053  13.325
91056W        W63382   1.491  14.690   4.156
91057W        W63383  30.383  19.759  12.622
91058W        W63384  35.681  44.302  10.930
91059W        W63385  39.317  31.017  14.994
91060W        W63386  11.684  29.291   1.429
91061W        W63387  42.580  35.634  11.980
91062W        W63388  29.378  41.597  12.249
91063W        W63389  30.723   8.735   2.338
91064W        W63390  20.346   5.445  10.716
91065W        W63391  18.749  14.730   2.262
91066W        W63392  18.037   0.713  14.398
91067W        W63393  29.216  13.159  14.337
91068W        W63394  41.335  33.027   2.226
91069W        W63395   7.611  27.923   0.217
91070W        W63396   6.167  15.499   3.246
91071W        W63397  17.626  20.317  11.557
91072W        W63398  30.052   7.166   0.923
91073W        W63399  16.846  16.279  14.926
91074W        W63400   5.714  22.629   3.281
91075W        W63401   7.308  13.239  13.354
91076W        W63402   0.239  16.452   0.978
91077W        W63403  20.824  15.669   1.683
91078W        W63404  24.086  17.618   5.240
91079W        W63405  26.276  23.799  12.424
91080W        W63406  12.869   9.743   2.144
91081W        W63407  37.957  20.977   1.489
91082W        W63408  26.506  39.859   1.734
91083W        W63409  38.025  11.500  14.271
91084W        W63410  12.580   4.732   0.874
91085W        W63411   3.879  15.172   0.423
91086W        W63412  26.148  11.808  14.940
91087W        W63413   4.785   4.272  12.556
91088W        W63414  18.187  39.842   0.027
91089W        W63415  13.065  33.603   1.199
91090W        W63416   0.860  35.438   4.594
91091W        W63417  40.912  13.042  10.839
91092W        W63418  18.924   8.855   3.987
91093W        W63419   2.652  25.120  14.323
91094W        W63420   4.958  42.870  12.434
91095W        W63421  18.131  13.415   3.197
91096W        W63422  38.515  44.481   2.790
91097W        W63423   7.234  18.565   0.386
91098W        W63424  24.919  39.787   1.275
91099W        W63425  35.038  39.986   2.608
91100W        W63426  14.686   9.473  11.906
91101W        W63427   9.815  35.283  12.857
91102W        W63428  44.431  38.150   1.313
91103W        W63429  30.455  21.646  13.858
91104W        W63430  12.219  10.890  13.936
91105W        W63431  32.514   2.709   4.252
91106W        W63432  31.271   6.712   0.019
91107W        W63433   7.773  12.860   5.062
91108W        W63434   4.709  17.329   0.851
91109W        W63435   5.595  29.909  14.446
91110W        W63436  44.868  34.844  14.065
91111W        W63437   3.299  32.385  14.913
91112W        W63438  19.330  34.885   1.284
91113W        W63439  21.516  29.167   4.533
91114W        W63440  36.565   6.737   1.403
91115W        W63441  30.940   1.772  11.101
91116W        W63442   5.753  24.175  14.479
91117W        W63443   2.314   7.334   3.812
91118W        W63444  21.315  28.936  12.607
91119W        W63445  13.069  40.546   1.369
91120W        W63446  38.904  42.338  12.823
91121W        W63447   5.426  44.925  12.330
91122W        W63448  15.731  36.157   1.811
91123W        W63449  17.324  20.807  12.415
91124W        W63450   4.382   1.846   1.887
91125W        W63451   2.167  19.798  11.893
91126W        W63452  22.254  41.042  10.988
91127W        W63453  34.603   9.884  12.309
91128W        W63454   8.689  32.415   1.690
91129W        W63455  27.344  18.660  12.936
91130W        W63456  42.085  37.539  12.031
91131W        W63457   7.848  19.237   2.896
91132W        W63458  39.533   1.813   2.845
91133W        W63459  27.948  28.989   0.990
91134W        W63460  11.227  27.366  14.627
91135W        W63461  33.625  20.786  10.845
91136W        W63462  23.240  28.723   4.166
91137W        W63463  40.109   4.367   1.357
91138W        W63464  27.452  36.230  13.522
91139W        W63465  26.673  24.990   2.694
91140W        W63466   4.480  40.760  11.661
91141W        W63467   3.054  34.563   1.511
91142W        W63468  20.838   9.003  12.099
91143W        W63469  43.199  31.547   1.904
91144W        W63470  13.639   6.878  14.428
91145W        W63471  32.916  36.014   1.213
91146W        W63472  22.895  36.880   4.155
91147W        W63473  38.296  36.427  14.342
91148W        W63474  16.509  26.467  14.020
91149W        W63475  34.534  15.850   3.730
91150W        W63476  44.625  27.167   1.008
91151W        W63477  16.049  10.835   2.815
91152W        W63478  21.797  21.600   2.235
91153W        W63479   9.286  27.070  14.200
91154W        W63480  30.620  26.493  14.370
91155W        W63481  30.089  19.577   1.772
91156W        W63482  17.988  32.938  11.613
91157W        W63483  24.062  32.234   0.285
91158W        W63484  36.163   1.631   0.345
91159W        W63485   1.531  38.628  13.840
91160W        W63486   4.982  24.780  11.161
91161W        W63487   7.962  25.598   2.481
91162W        W63488   2.345  37.364  10.275
91163W        W63489  20.156  25.316   3.466
91164W        W63490  30.726  18.007  12.932
91165W        W63491   3.200  41.314  13.301
91166W        W63492   6.639  20.984   0.626
91167W        W63493   2.222   7.652   4.182
91168W        W63494  43.072   0.082  11.073
91169W        W63495  33.863   8.354   1.824
91170W        W63496   0.533  22.851  10.240
91171W        W63497  21.175  19.550  12.944
91172W        W63498  19.608  17.061  12.092
91173W        W63499  13.527  19.601   4.543
91174W        W63500  39.493  21.481  12.418
91175W        W63501  17.731  10.711   4.607
91176W        W63502   7.251  36.629  10.672
91177W        W63503  22.050  24.556  14.303
91178W        W63504   0.846  28.525   3.223
91179W        W63505  35.127  25.123   2.870
91180W        W63506  40.399  44.910   1.448
91181W        W63507   0.881  28.250  10.577
91182W        W63508  21.943  40.125   3.664
91183W        W63509  23.698   9.706   1.287
91184W        W63510  44.783  10.455  11.495
91185W        W63511  39.063  14.468  11.185
91186W        W63512  34.207  19.038  12.242
91187W        W63513  11.816   4.328   2.925
91188W        W63514  40.559  14.658  11.500
91189W        W63515   8.438   2.107   3.736
91190W        W63516   6.747  40.842   1.617
91191W        W63517  12.394  24.603  12.014
91192W        W63518   6.220  39.868  10.736
91193W        W63519  26.833  37.276  12.834
91194W        W63520  44.423  12.918  12.380
91195W        W63521  21.593  43.141  10.177
91196W        W63522   0.537  40.415  11.530
91197W        W63523   4.243  20.154  13.888
91198W        W63524  23.534  22.416  13.539
91199W        W63525   0.331  24.512  13.302
91200W        W63526  18.598  17.258   3.607
91201W        W63527  19.665  15.533   4.554
91202W        W63528  44.325  42.828   5.088
91203W        W63529   3.501  33.060   2.723
91204W        W63530  16.620  13.868   1.352
91205W        W63531   2.539  34.515   1.452
91206W        W63532  38.382  17.088   0.815
91207W        W63533   3.416   5.439  14.644
91208W        W63534  42.301   3.930   1.310
91209W        W63535  30.609   5.494  11.103
91210W        W63536  19.035  19.130   4.856
91211W        W63537  28.191  25.522  11.393
91212W        W63538  34.252  10.332   4.093
91213W        W63539  37.622  17.828   2.706
91214W        W63540   4.835  33.998   4.487
91215W        W63541   4.677  14.819  11.251
91216W        W63542   4.474   2.496  12.508
91217W        W63543  37.941  37.824  10.159
91218W        W63544  35.404  15.323  13.370
91219W        W63545  12.206  43.733   3.608
91220W        W63546   3.054   3.649  14.915
91221W        W63547  32.040  44.374   2.422
91222W        W63548  23.951  24.479  14.490
91223W        W63549   3.149  29.698   2.706
91224W        W63550  22.621   8.355  12.169
91225W        W63551  23.149  23.364  14.355
91226W        W63552   0.230  28.337   0.538
91227W        W63553  14.834   2.974  11.776
91228W        W63554  29.716  26.402   3.624
91229W        W63555   7.663   4.547   0.031
91230W        W63556  42.103  14.749  10.722
91231W        W63557  34.823  33.351  14.369
91232W        W63558   5.092   8.783  12.777
91233W        W63559  38.375  16.893  14.489
91234W        W63560  38.114  43.409   0.356
91235W        W63561   2.535  37.522  13.026
91236W        W63562   5.688  32.849   1.274
91237W        W63563  12.765  23.704   4.042
91238W        W63564  27.056  11.298   0.754
91239W        W63565  24.281  24.694  11.456
91240W        W63566  26.859  23.508   0.373
91241W        W63567  10.834  20.807   1.309
91242W        W63568  25.116  33.643   4.440
91243W        W63569  19.719  17.380   0.885
91244W        W63570  36.974  19.548   4.689
91245W        W63571  30.852  22.471  11.994
91246W        W63572   7.917  26.110   2.691
91247W        W63573  11.286  18.298   0.878
91248W        W63574   9.207  26.033   3.797
91249W        W63575  42.734  34.201   4.334
91250W        W63576  39.278  41.158   0.434
91251W        W63577  13.768  34.617  13.986
91252W        W63578  12.850   6.664   0.942
91253W        W63579  40.458  30.471  10.381
91254W        W63580  20.620  30.972   4.684
91255W        W63581  25.704  25.704   2.535
91256W        W63582  21.685  33.857   2.863
91257W        W63583  39.780  43.871  10.710
91258W        W63584  23.016  36.774  10.426
91259W        W63585  32.179   3.287  14.747
91260W        W63586  42.533  15.708   4.615
91261W        W63587  30.536   2.857   1.200
91262W        W63588  14.678  26.923   3.279
91263W        W63589  19.466  21.118   2.273
91264W        W63590  11.254   7.258   3.525
91265W        W63591  31.496  36.100  12.863
91266W        W63592  29.281  29.643  11.936
91267W        W63593  21.726  18.318   0.295
91268W        W63594  41.432  24.256  10.691
91269W        W63595   5.343  39.086   3.296
91270W        W63596   3.582   9.751   4.987
91271W        W63597  22.275  24.992  11.964
91272W        W63598  17.132  28.449   4.796
91273W        W63599  14.337  10.222   2.800
91274W        W63600   9.657   5.393  13.034
91275W        W63601  31.583  17.339   0.775
91276W        W63602  18.138   1.339  14.902
91277W        W63603  32.905  37.497  12.164
91278W        W63604  15.316  10.173   3.647
91279W        W63605  30.615   8.240   1.007
91280W        W63606   3.183   1.146   5.011
91281W        W63607  39.975  30.258  10.475
91282W        W63608  23.496   0.276   1.801
91283W        W63609  25.481   7.349  11.612
91284W        W63610  15.685  21.602   1.831
91285W        W63611  43.979  25.191  12.971
91286W        W63612  22.174  22.096  12.292
91287W        W63613   5.838  23.976  12.171
91288W        W63614  34.311  40.793   2.699
91289W        W63615   0.368  39.969   2.017
91290W        W63616   2.769   9.711   0.857
91291W        W63617  43.608  10.053   4.227
91292W        W63618  39.213  19.764  14.800
91293W        W63619  42.683  31.448   2.003
91294W        W63620   2.042  27.802   1.339
91295W        W63621   4.403  31.534  13.586
91296W        W63622  37.211  31.569  13.098
91297W        W63623   5.504  29.093  10.970
91298W        W63624  42.049  43.735  10.734
91299W        W63625  25.578   5.700   2.212
91300W        W63626  39.527   6.626  11.677
91301W        W63627  40.760   6.845  14.270
91302W        W63628   7.473  15.152  10.646
91303W        W63629  36.859  15.773  11.526
91304W        W63630  43.070  30.237   2.753
91305W        W63631  20.069  35.594   0.524
91306W        W63632  31.148  25.668  10.852
91307W        W63633  39.761   8.420   3.861
91308W        W63634   4.371  17.872  11.589
91309W        W63635  14.172  41.776   0.252
91310W        W63636  18.218   6.297   1.401
91311W        W63637  18.263   0.050   1.435
91312W        W63638  28.035  33.121   0.297
91313W        W63639  22.078  11.261   2.913
91314W        W63640   3.589  42.042   3.197
91315W        W63641   0.362  18.790   1.706
91316W        W63642  34.644   2.043   1.988
91317W        W63643   0.193  26.146   4.385
91318W        W63644  38.080   9.534   5.007
91319W        W63645  12.161   9.195  11.199
91320W        W63646  11.819  25.621  14.756
91321W        W63647  24.978  25.396  14.249
91322W        W63648  36.909   2.203  11.565
91323W        W63649  44.445  10.729  12.462
91324W        W63650   1.602  16.263   2.175
91325W        W63651  33.370  17.595   0.723
91326W        W63652  14.128  23.236   3.562
91327W        W63653  32.333  37.046  14.511
91328W        W63654  14.364   3.282   2.613
91329W        W63655   2.894  18.623   2.240
91330W        W63656  25.739  15.754  10.321
91331W        W63657  43.298  40.624   4.517
91332W        W63658  36.478  24.456  13.948
91333W        W63659  16.177  38.450  11.590
91334W        W63660  34.774   2.767   2.793
91335W        W63661  42.181  22.946  14.480
91336W        W63662   3.497  11.371  10.605
91337W        W63663  13.089   0.476  14.000
91338W        W63664  36.163  17.650  11.076
91339W        W63665  42.598  25.044  11.127
91340W        W63666  34.034  42.751  13.033
91341W        W63667  10.427  40.423  10.296
91342W        W63668  14.699  23.055  12.499
91343W        W63669  42.475  10.703   3.200
91344W        W63670  19.581  14.761  13.675
91345W        W63671  38.320  23.120   3.176
91346W        W63672  21.848  23.128  13.952
91347W        W63673  14.858  18.823  14.950
91348W        W63674  14.732  44.487   3.130
91349W        W63675  30.927   1.385   2.709
91350W        W63676  25.013  37.136  14.497
91351W        W63677   7.205  33.143  12.468
91352W        W63678  42.806  15.191   4.556
91353W        W63679  23.303  32.015   0.973
91354W        W63680   4.353   4.481  11.301
91355W        W63681  33.037  26.994  14.321
91356W        W63682  26.710  38.495  14.976
91357W        W63683  20.646  25.201   3.761
91358W        W63684   9.196  11.088  13.407
91359W        W63685  11.446  23.627   2.729
91360W        W63686  17.146  15.115   0.625
91361W        W63687  25.106   7.748   1.349
91362W        W63688  14.718   0.906  10.994
91363W        W63689  22.064   3.187   3.197
91364W        W63690   4.257  10.320  11.684
91365W        W63691  39.740  36.907   1.374
91366W        W63692  25.882  37.346  14.825
91367W        W63693  18.744  24.289  11.022
91368W        W63694  33.563  33.583   4.067
91369W        W63695  29.503  42.659   2.138
91370W        W63696  10.796  18.086   2.849
91371W        W63697  44.500  18.060  13.864
91372W        W63698  42.309  12.104  13.018
91373W        W63699   8.449  35.157  12.502
91374W        W63700  28.636   5.385  13.443
91375W        W63701  39.416  22.433  13.420
91376W        W63702  42.811   9.203  12.453
91377W        W63703  23.534  19.088   1.252
91378W        W63704  33.274   0.988   1.429
91379W        W63705   0.871  11.793  11.548
91380W        W63706  27.569  12.140  12.106
91381W        W63707   6.227  16.446  13.608
91382W        W63708   1.180  11.829   4.034
91383W        W63709   4.498  26.046   2.710
91384W        W63710  26.640   4.003   5.133
91385W        W63711  29.507  37.031   4.039
91386W        W63712   9.082  18.911  13.445
91387W        W63713  15.807   4.542   2.434
91388W        W63714  15.635  40.041   3.119
91389W        W63715  19.073  28.633  10.616
91390W        W63716  19.013   9.366  13.120
91391W        W63717  44.745  12.750   1.130
91392W        W63718  31.003  33.987  11.789
91393W        W63719  23.707   4.427   4.698
91394W        W63720  14.281  10.757  11.580
91395W        W63721   4.836  27.040  14.502
91396W        W63722   8.467  27.747   1.171
91397W        W63723  27.378  25.177  13.786
91398W        W63724   6.897  32.183   1.878
91399W        W63725  21.172  17.222   4.153
91400W        W63726   7.836  22.544   4.679
91401W        W63727  39.973  19.476   1.318
91402W        W63728  22.215   0.243   0.319
91403W        W63729  39.390  24.231   3.254
91404W        W63730  34.697   7.729  10.599
91405W        W63731  22.586  38.522  11.606
91406W        W63732   0.041  10.197  11.883
91407W        W63733  35.498   9.794   2.801
91408W        W63734  38.350  39.568  12.576
91409W        W63735  34.446   9.673   4.708
91410W        W63736  33.439  43.720   3.219
91411W        W63737   8.210  33.502   2.288
91412W        W63738  21.750  43.494   1.416
91413W        W63739  40.798   3.331   1.769
91414W        W63740  30.062  11.354  13.591
91415W        W63741   5.891   9.243  12.928
91416W        W63742  34.317   1.374  10.759
91417W        W63743  30.193  19.341  13.400
91418W        W63744  22.164  19.184  14.800
91419W        W63745   2.352  27.181   4.590
91420W        W63746   2.264  33.081  11.312
91421W        W63747  27.134  14.370   0.663
91422W        W63748  19.683  35.631  10.545
91423W        W63749   6.783  31.863   0.496
91424W        W63750  22.648  11.878   4.644
91425W        W63751  29.675  41.926   1.328
91426W        W63752   8.280  22.617   0.445
91427W        W63753  33.374   4.738   3.961
91428W        W63754  21.522  15.696   4.786
91429W        W63755  20.579  25.984   1.274
91430W        W63756   3.225  10.699   3.086
91431W        W63757   8.878   4.607  10.695
91432W        W63758   8.225  32.102   2.859
91433W        W63759  34.972  28.089  12.043
91434W        W63760  15.940  12.427   0.290
91435W        W63761   8.769  26.083  11.084
91436W        W63762  34.446  25.186   4.721
91437W        W63763   7.599  32.602  10.765
91438W        W63764  29.244   8.765   2.213
91439W        W63765  18.587   6.822  13.846
91440W        W63766  13.389  31.032  12.039
91441W        W63767  14.718   9.167   2.464
91442W        W63768  35.546  38.818  11.512
91443W        W63769  24.591  10.144   2.398
91444W        W63770  26.559  14.255  11.168
91445W        W63771  17.028  17.204  14.812
91446W        W63772  14.376  24.463   0.238
91447W        W63773   8.131  43.308  11.998
91448W        W63774  28.130  39.761  13.910
91449W        W63775   7.464  38.821   2.889
91450W        W63776  31.815  25.056  13.290
91451W        W63777  41.923  43.533   0.832
91452W        W63778  14.124  39.449   4.083
91453W        W63779  19.531   3.051   5.122
91454W        W63780   5.297  14.631  12.916
91455W        W63781  22.510  34.805   2.760
91456W        W63782  24.584   9.619   4.682
91457W        W63783  37.991  32.012   2.629
91458W        W63784  16.241  10.850  13.391
91459W        W63785  18.304  37.453   0.693
91460W        W63786  20.687  39.319   1.340
91461W        W63787  19.165  13.578   3.512
91462W        W63788  21.639  21.723   3.807
91463W        W63789   4.273  17.802   3.921
91464W        W63790  31.088   2.005   4.818
91465W        W63791  21.851  24.390  13.832
91466W        W63792  17.641  24.668  12.958
91467W        W63793  25.075  43.079  12.136
91468W        W63794   4.825   4.403   2.313
91469W        W63795  11.721  41.632  10.987
91470W        W63796  24.783  15.047   1.162
91471W        W63797  23.972  18.579   2.283
91472W        W63798  11.299  36.894   3.371
91473W        W63799  29.066  25.895   0.905
91474W        W63800   7.911   8.747  10.297
91475W        W63801  10.203   7.242   4.018
91476W        W63802  22.970  12.887  10.803
91477W        W63803  16.686  40.315   1.386
91478W        W63804  26.237  13.286  14.116
91479W        W63805  16.646  23.942  14.474
91480W        W63806  19.978   4.816  11.104
91481W        W63807   5.811  23.752  13.899
91482W        W63808  34.043   2.034   4.110
91483W        W63809  13.906  34.420   2.730
91484W        W63810  10.417   1.699  12.573
91485W        W63811  15.318  19.043  12.644
91486W        W63812   7.288  22.944  13.815
91487W        W63813  16.788  10.443   3.891
91488W        W63814  38.505   4.373  11.861
91489W        W63815  20.932  26.138  12.777
91490W        W63816  29.166   6.616   2.364
91491W        W63817   7.853  29.636  11.451
91492W        W63818  44.743   4.292   2.284
91493W        W63819  34.508   7.839  12.424
91494W        W63820   9.723  43.573  12.472
91495W        W63821  22.074   5.819  11.956
91496W        W63822   9.674  25.267   4.021
91497W        W63823   3.365  41.805   0.120
91498W        W63824  15.533  12.164   0.500
91499W        W63825   6.295  27.384   3.331
91500W        W63826  17.122  42.405   2.394
91501W        W63827  17.743  36.428  12.801
91502W        W63828  16.279   1.580   3.753
91503W        W63829  38.492  32.809   0.017
91504W        W63830  23.552  25.264   0.918
91505W        W63831  11.848  11.259  13.995
91506W        W63832  29.699  10.931  10.646
91507W        W63833  41.824   6.357   0.824
91508W        W63834  29.448  33.963   1.453
91509W        W63835  29.111   6.374   4.891
91510W        W63836   1.919  29.704  10.544
91511W        W63837  35.324  35.439  14.826
91512W        W63838  28.200  17.282   1.790
91513W        W63839  27.695  42.588  13.383
91514W        W63840  19.955   7.175   2.363
91515W        W63841  19.581  11.659   2.723
91516W        W63842  30.320  10.711   4.819
91517W        W63843   7.257  33.576   2.450
91518W        W63844  12.254   3.851   2.852
91519W        W63845  10.535  22.273  13.539
91520W        W63846  29.212   6.181  11.010
91521W        W63847  13.541  10.157   0.925
91522W        W63848  34.559  40.250   0.227
91523W        W63849  37.538  35.658  12.472
91524W        W63850  37.698  41.096   1.816
91525W        W63851  16.091  38.993   1.317
91526W        W63852  36.676  31.026  14.688
91527W        W63853  12.662   7.286   3.365
91528W        W63854  27.206  28.392   1.470
91529W        W63855  44.787  16.208   4.267
91530W        W63856   4.681  23.638  14.859
91531W        W63857   4.033  23.150   2.673
91532W        W63858  42.621  29.026  14.573
91533W        W63859  41.385  20.551   0.959
91534W        W63860  34.991  40.648   0.976
91535W        W63861  12.648  37.775   3.777
91536W        W63862  32.389  23.614  12.734
91537W        W63863  17.070   6.653   0.698
91538W        W63864  12.016   5.597   4.166
91539W        W63865  17.101  21.260  11.169
91540W        W63866  11.711   7.753   3.452
91541W        W63867  12.604  41.368   2.937
91542W        W63868   0.038  12.049   3.253
91543W        W63869  39.280  43.994  13.730
91544W        W63870  28.863   3.382   3.293
91545W        W63871  19.619  22.588  12.118
91546W        W63872  17.120  40.048  12.857
91547W        W63873   4.729  33.946   1.651
91548W        W63874  17.207  18.589  13.842
91549W        W63875  11.386   7.946   2.355
91550W        W63876   3.475   5.591  10.938
91551W        W63877  25.457  15.661   1.590
91552W        W63878  28.043  29.699  10.550
91553W        W63879  24.537   6.617   4.257
91554W        W63880  23.140  16.752   2.279
91555W        W63881   6.900  23.797   0.792
91556W        W63882  28.151  20.570   3.886
91557W        W63883   4.629  32.574  11.170
91558W        W63884  34.652  18.527  13.335
91559W        W63885   4.631  12.344   4.995
91560W        W63886  20.132  33.327   2.386
91561W        W63887   8.415  30.664   0.380
91562W        W63888  18.161  16.221   2.818
91563W        W63889  11.185  30.737  14.042
91564W        W63890  43.913   3.989   4.715
91565W        W63891  16.438  41.779   3.104
91566W        W63892  36.828  43.850  11.962
91567W        W63893   2.297  30.103  10.617
91568W        W63894  30.500   4.832  11.156
91569W        W63895   0.808  20.001   4.363
91570W        W63896  40.931  13.271  14.479
91571W        W63897  10.062  12.745   1.948
91572W        W63898  37.486  43.371  14.900
91573W        W63899  39.384   1.035   0.422
91574W        W63900  26.343  26.016   4.974
91575W        W63901  20.014  17.033   0.409
91576W        W63902   5.499  23.633   0.706
91577W        W63903  15.176  27.036   3.092
91578W        W63904  41.877  14.567   3.798
91579W        W63905  14.187  27.179  12.458
91580W        W63906  41.022  26.933   2.324
91581W        W63907   0.182  13.647   1.510
91582W        W63908   6.437  23.749   2.712
91583W        W63909  36.783  16.464  12.452
91584W        W63910  20.121   6.863   4.604
91585W        W63911  40.487  27.489  13.302
91586W        W63912  32.931  22.899  13.478
91587W        W63913   3.806   9.252   5.117
91588W        W63914  13.875  42.787   1.878
91589W        W63915  25.569  14.350  14.982
91590W        W63916   2.650  29.950   1.181
91591W        W63917  13.902  15.119  14.886
91592W        W63918   0.293  12.112  14.159
91593W        W63919  35.453  24.210  13.475
91594W        W63920  42.149  36.220  14.322
91595W        W63921  11.214  15.769  13.770
91596W        W63922   0.986  14.852  14.418
91597W        W63923   9.911  36.120  11.042
91598W        W63924  38.782   0.281   1.508
91599W        W63925  14.106  36.612  11.582
91600W        W63926  26.296  11.626   2.777
91601W        W63927  21.549  36.521  12.768
91602W        W63928  16.768  42.086  11.596
91603W        W63929  24.992  11.182  11.337
91604W        W63930  25.232  22.108  13.788
91605W        W63931  10.294  18.379   0.015
91606W        W63932   4.509  38.052   3.132
91607W        W63933  22.718   4.472   4.315
91608W        W63934  20.378  32.658  11.227
91609W        W63935  39.396  38.891  13.086
91610W        W63936   5.648   0.954   1.953
91611W        W63937  39.978  27.775   2.332
91612W        W63938  17.019  19.249   0.033
91613W        W63939  20.179  19.263  11.237
91614W        W63940  18.040  28.964  13.889
91615W        W63941  32.260  15.476   5.202
91616W        W63942  36.752  32.935   3.822
91617W        W63943   6.693  26.228  11.108
91618W        W63944  41.882   8.977  10.685
91619W        W63945   3.218   2.725  14.915
91620W        W63946  33.738  39.041  12.961
91621W        W63947  25.122  31.810   3.854
91622W        W63948   9.725  20.502   3.783
91623W        W63949  33.065  34.929  10.661
91624W        W63950   9.656   0.924  14.058
91625W        W63951  26.621  34.274  10.727
91626W        W63952   9.186  12.223  14.964
91627W        W63953  41.395  20.718  12.921
91628W        W63954  44.921   6.300  14.316
91629W        W63955  36.152  44.403  14.256
91630W        W63956  24.590  35.167   3.716
91631W        W63957  28.742  13.765   0.024
91632W        W63958  33.622  22.223  12.018
91633W        W63959  25.588   5.204  11.004
91634W        W63960  14.083  11.663   0.288
91635W        W63961  32.665  11.841   0.729
91636W        W63962  30.456  20.739  14.936
91637W        W63963  11.607  11.309   3.703
91638W        W63964  26.677  18.287  14.986
91639W        W63965  36.913  11.639  10.695
91640W        W63966  41.362   4.452   0.978
91641W        W63967  41.588   5.778   2.266
91642W        W63968  11.229  14.330  11.608
91643W        W63969  18.534   3.455   5.004
91644W        W63970  17.593  22.487  12.170
91645W        W63971  37.813  23.666  10.686
91646W        W63972   9.129  20.711   1.790
91647W        W63973  43.937  35.222   3.597
91648W        W63974  17.268  38.927  14.667
91649W        W63975  18.671  18.210   9.786
91650W        W63976  21.670  10.301   3.245
91651W        W63977  39.713  15.272   2.774
91652W        W63978  36.111  17.065  11.973
91653W        W63979  15.793  34.399   0.498
91654W        W63980   6.980  12.095   3.661
91655W        W63981   6.641  26.439   3.214
91656W        W63982   4.515   9.902   1.994
91657W        W63983  41.193  17.793   1.377
91658W        W63984  33.525  44.767  13.498
91659W        W63985  31.442   1.548  14.995
91660W        W63986  15.820  33.863   3.168
91661W        W63987  22.759  22.682  11.123
91662W        W63988   2.863  16.658   1.193
91663W        W63989  37.924  18.813   1.441
91664W        W63990  12.250  14.678  12.560
91665W        W63991  25.735   8.283  13.927
91666W        W63992  38.067  27.770  13.367
91667W        W63993  19.809  13.766   2.395
91668W        W63994  20.563  44.307  13.057
91669W        W63995  27.700  25.580  12.528
91670W        W63996  37.323  42.869   0.507
91671W        W63997  34.625  25.007  13.644
91672W        W63998  39.298   9.077  12.628
91673W        W63999   8.399   3.420  10.398
91674W        W64000   2.641  21.997  11.097
91675W        W64001  12.138  32.889   0.800
91676W        W64002  33.228  21.277   3.344
91677W        W64003   3.250  18.931   1.617
91678W        W64004  44.919  42.708  14.765
91679W        W64005   5.087  32.084  11.631
91680W        W64006  42.869  26.017   4.285
91681W        W64007   9.804  36.456   1.888
91682W        W64008  14.869  42.747   4.935
91683W        W64009  17.312  43.425  14.455
91684W        W64010  19.883  15.291  10.984
91685W        W64011  44.331  23.589  12.565
91686W        W64012  20.702  31.147  12.813
91687W        W64013  35.881  30.074  11.948
91688W        W64014  23.236   9.962   1.160
91689W        W64015  16.741  15.880  13.032
91690W        W64016  34.190  41.221  12.068
91691W        W64017  42.449  18.637   4.218
91692W        W64018  13.871  34.039   9.908
91693W        W64019  16.298  36.562  13.375
91694W        W64020  26.663  14.408  13.447
91695W        W64021  38.357  10.104  13.375
91696W        W64022  17.806   0.005  12.502
91697W        W64023  34.505  30.616   2.680
91698W        W64024  14.886  11.660  12.866
91699W        W64025   1.485  30.152   2.424
91700W        W64026  39.522  11.321   2.446
91701W        W64027  39.199  25.539   4.916
91702W        W64028  37.878   9.083   3.199
91703W        W64029  37.575  42.098  14.453
91704W        W64030  35.533  30.244  11.556
91705W        W64031  18.196  12.315   2.305
91706W        W64032  23.031  42.024  11.005
91707W        W64033  10.818   0.875   2.634
91708W        W64034  29.906  41.898   0.197
91709W        W64035  36.596  25.995   0.729
91710W        W64036   5.152  16.190   2.221
91711W        W64037  36.689  15.243   0.336
91712W        W64038  38.151  37.443  12.672
91713W        W64039  17.650  39.100   3.956
91714W        W64040  25.412  34.529   4.126
91715W        W64041  19.451  41.471  12.569
91716W        W64042  21.175   1.431  10.623
91717W        W64043   3.483  19.019   0.222
91718W        W64044  24.643  37.715   4.284
91719W        W64045  22.643  31.165  14.397
91720W        W64046  37.514  22.249   0.818
91721W        W64047   4.772  42.972  14.132
91722W        W64048  22.617  20.632   4.884
91723W        W64049  16.825  12.619   1.792
91724W        W64050   4.083  39.397  10.460
91725W        W64051   0.804  39.470   2.174
91726W        W64052  44.261  40.442  10.986
91727W        W64053  26.917  19.171  14.605
91728W        W64054   6.857  29.909  10.685
91729W        W64055  33.604  27.133   4.349
91730W        W64056   0.380  36.314   4.841
91731W        W64057  22.164   2.789  11.706
91732W        W64058  23.523  12.919  13.534
91733W        W64059  30.938   1.770  12.784
91734W        W64060  41.680  18.396  13.005
91735W        W64061  14.829  12.990   0.690
91736W        W64062   0.848  16.462   1.569
91737W        W64063  42.440  23.807  13.371
91738W        W64064  44.911  13.706  11.465
91739W        W64065  10.050   0.043   3.187
91740W        W64066  14.733  25.224   2.399
91741W        W64067  18.251  34.077  13.400
91742W        W64068  41.515  35.423   3.344
91743W        W64069  42.843   6.132   3.235
91744W        W64070  26.866  23.126   2.366
91745W        W64071   4.143  15.647  10.183
91746W        W64072  37.823   6.223   4.273
91747W        W64073  37.531  22.174   4.796
91748W        W64074  29.578  14.259   3.381
91749W        W64075  18.528  32.662  13.372
91750W        W64076  31.004   0.203   2.259
91751W        W64077  36.513  15.117   3.097
91752W        W64078   8.735  30.886   2.742
91753W        W64079   1.137  44.327  11.266
91754W        W64080  25.622  16.050   0.654
91755W        W64081  23.131  33.930   1.851
91756W        W64082   2.905  30.020  14.007
91757W        W64083  35.518  10.210   1.836
91758W        W64084  10.606  27.396  12.844
91759W        W64085  40.278  32.156   2.434
91760W        W64086  13.802  22.224   0.181
91761W        W64087   5.890   4.364  13.279
91762W        W64088  41.347  33.277   3.871
91763W        W64089  28.414  14.192  13.632
91764W        W64090  32.910  29.106   2.059
91765W        W64091  32.226  26.439   0.929
91766W        W64092  10.371   8.472  12.453
91767W        W64093  26.157  10.918  10.487
91768W        W64094  24.711  29.773  12.591
91769W        W64095  44.849   3.063   1.502
91770W        W64096  32.971  29.346   4.568
91771W        W64097  14.748  17.325  14.272
91772W        W64098  22.099  14.102  14.246
91773W        W64099  44.508  34.607   3.339
91774W        W64100  17.560  31.116  13.349
91775W        W64101  32.148  40.821   4.755
91776W        W64102   4.240  37.652   3.334
91777W        W64103  33.021  33.038   1.974
91778W        W64104  33.865  35.756   3.331
91779W        W64105  25.885  22.621  11.110
91780W        W64106  23.157  12.386  10.815
91781W        W64107   0.867   9.387  12.631
91782W        W64108  21.580  14.684   3.803
91783W        W64109  23.050  23.088   4.060
91784W        W64110  39.564  23.084   4.348
91785W        W64111  32.310   9.148   1.937
91786W        W64112   3.844  38.971   0.925
91787W        W64113  22.635   3.869   3.083
91788W        W64114  18.281  40.948  13.888
91789W        W64115   1.493  33.191  13.486
91790W        W64116  38.248  39.848   2.285
91791W        W64117  34.453  11.269  13.859
91792W        W64118  13.679  17.583   2.409
91793W        W64119   3.979  18.095  13.588
91794W        W64120  16.719  28.849  11.731
91795W        W64121  34.620  33.430  14.895
91796W        W64122   7.695  18.699   1.647
91797W        W64123  36.293  30.658   0.422
91798W        W64124   3.288  27.552   4.007
91799W        W64125   4.206  35.079  11.635
91800W        W64126  24.254  20.297  13.494
91801W        W64127  27.675  24.605   4.645
91802W        W64128   3.267  20.750  12.820
91803W        W64129   0.507  32.329  11.175
91804W        W64130   9.012  26.092  13.782
91805W        W64131   9.649   7.802   5.016
91806W        W64132  26.894   9.425  14.926
91807W        W64133  26.404  25.096   0.758
91808W        W64134  15.256  16.602   3.729
91809W        W64135   5.990   1.830  13.291
91810W        W64136  39.393  19.634   0.285
91811W        W64137  22.299   1.391  12.376
91812W        W64138  42.571  39.913   2.718
91813W        W64139  20.329  19.592  11.838
91814W        W64140  11.683  34.127   1.220
91815W        W64141  37.450  11.184   0.426
91816W        W64142  37.930  14.192  13.483
91817W        W64143  19.658  27.686   4.707
91818W        W64144  19.351  44.484  11.071
91819W        W64145   9.376   9.939  11.503
91820W        W64146   7.027  37.935  13.023
91821W        W64147  18.841  25.993   1.902
91822W        W64148  18.768   1.222  14.211
91823W        W64149  39.022  14.553  12.755
91824W        W64150   8.628  32.445   0.855
91825W        W64151   2.982   7.413   4.092
91826W        W64152  11.263  33.575   2.450
91827W        W64153  36.582  28.440   3.205
91828W        W64154  30.746  39.906  13.011
91829W        W64155  37.000  40.409  11.601
91830W        W64156   3.851  16.918  10.253
91831W        W64157  14.205   5.225  11.510
91832W        W64158  12.886  21.796   2.257
91833W        W64159   5.497  40.499  14.299
91834W        W64160  17.515  19.918  13.338
91835W        W64161  26.011  25.709   4.650
91836W        W64162  18.421  40.045   1.803
91837W        W64163  23.891   1.696  13.856
91838W        W64164  30.947  28.763  12.017
91839W        W64165  33.123   8.572   1.318
91840W        W64166   8.770  42.255   1.870
91841W        W64167  25.532  40.577  12.475
91842W        W64168   8.395   2.105   2.621
91843W        W64169  15.914  22.211   0.758
91844W        W64170  10.560   8.921  13.781
91845W        W64171  12.242  38.538   1.324
91846W        W64172  29.092  24.696  12.036
91847W        W64173  39.342  31.102  12.053
91848W        W64174  28.494  43.404  12.323
91849W        W64175  34.115  32.518   2.778
91850W        W64176  40.079  20.696  11.063
91851W        W64177   3.006  36.606  14.475
91852W        W64178  23.589  10.315   0.903
91853W        W64179  22.918   2.941  14.883
91854W        W64180  40.554  18.785   3.088
91855W        W64181  21.072  34.695  11.128
91856W        W64182  15.291  42.704  13.643
91857W        W64183  14.405  22.485  11.547
91858W        W64184   5.547  19.573   3.585
91859W        W64185  40.346  15.457   2.312
91860W        W64186  11.296  25.174  14.304
91861W        W64187  11.123  14.554   0.793
91862W        W64188  16.087  24.154   1.220
91863W        W64189  33.897   2.495   0.850
91864W        W64190  19.720  28.693  14.578
91865W        W64191  28.905  15.598   3.268
91866W        W64192  23.179  29.515  11.357
91867W        W64193  19.826  25.522   4.707
91868W        W64194  18.549  19.272   3.656
91869W        W64195  19.053  26.423  11.225
91870W        W64196  28.819  32.944  13.354
91871W        W64197  39.049   2.719   3.727
91872W        W64198  13.768  25.792  14.294
91873W        W64199  28.328  35.041  13.874
91874W        W64200   8.912  33.248  13.266
91875W        W64201  20.273   9.580   2.234
91876W        W64202  25.798   0.995   3.684
91877W        W64203  25.480   0.831   3.218
91878W        W64204   6.400  27.991  12.383
91879W        W64205  44.498  44.323   1.072
91880W        W64206  32.416  25.420   4.248
91881W        W64207  22.008  37.866   3.275
91882W        W64208  19.221  20.091  11.451
91883W        W64209  38.658  23.631  12.022
91884W        W64210   0.931  17.629   4.508
91885W        W64211  41.030   6.770  12.894
91886W        W64212  28.375   4.321  10.541
91887W        W64213  21.607  19.115   2.248
91888W        W64214  42.983   6.436  13.010
91889W        W64215  26.408  37.137  10.558
91890W        W64216  24.050   9.216  11.160
91891W        W64217  14.875  26.065   0.259
91892W        W64218  12.346   6.369   3.717
91893W        W64219  29.841  33.228   3.511
91894W        W64220  44.413  34.543  11.077
91895W        W64221  13.803  29.090   0.487
91896W        W64222  31.388   2.423  11.456
91897W        W64223  43.267  11.286  12.167
91898W        W64224  39.358  28.991  12.568
91899W        W64225  35.379  32.531   3.249
91900W        W64226  44.141  19.420  14.753
91901W        W64227  43.732  14.667  13.080
91902W        W64228  32.684   3.844   1.577
91903W        W64229  30.391  33.030   1.822
91904W        W64230  33.357  40.785   0.389
91905W        W64231  26.465  31.488  14.423
91906W        W64232  39.892  33.112   1.291
91907W        W64233  11.365   9.432   2.280
91908W        W64234  16.900  23.273  13.567
91909W        W64235   2.110  27.656  14.167
91910W        W64236  12.680  27.377   5.064
91911W        W64237  38.463  25.135   0.432
91912W        W64238   6.831  18.616  14.558
91913W        W64239   0.674  24.640  12.026
91914W        W64240   8.164   6.004   0.813
91915W        W64241   5.440  17.749  13.936
91916W        W64242   4.673  28.526   3.693
91917W        W64243  37.403  39.850   0.854
91918W        W64244  42.205  34.346  12.895
91919W        W64245  40.938  23.319   4.739
91920W        W64246  37.885  37.936   4.586
91921W        W64247  14.848  19.521   4.290
91922W        W64248  27.542  25.109  11.818
91923W        W64249  41.549   5.734   4.041
91924W        W64250  28.447  30.834  10.999
91925W        W64251  10.580  25.095   3.761
91926W        W64252  25.079  29.372  11.636
91927W        W64253   3.186  35.819  11.857
91928W        W64254   1.809  21.489   4.167
91929W        W64255  32.417  12.763   1.154
91930W        W64256  21.235  24.480  14.952
91931W        W64257  31.108   9.703  14.562
91932W        W64258  29.399  40.112  13.602
91933W        W64259  34.491   7.338   3.330
91934W        W64260  12.523  16.853   3.185
91935W        W64261  28.959  31.029  11.447
91936W        W64262  43.728   8.321   1.538
91937W        W64263  42.894  44.096   2.145
91938W        W64264   6.700   2.997   4.151
91939W        W64265   5.351  14.522  11.480
91940W        W64266  17.267  33.017   0.926
91941W        W64267  34.611  38.715  14.063
91942W        W64268  11.353  42.127   4.274
91943W        W64269  29.928  28.947   0.947
91944W        W64270   7.394  37.457  12.385
91945W        W64271   6.414  37.965   2.729
91946W        W64272  33.448  21.043  13.444
91947W        W64273  37.891  12.352  11.573
91948W        W64274  17.769  35.957  14.093
91949W        W64275  40.514  32.030   2.899
91950W        W64276  23.819  16.026  11.583
91951W        W64277   6.246  20.681   2.813
91952W        W64278  21.303   3.825   0.474
91953W        W64279  25.764   8.712   4.944
91954W        W64280   0.277  39.065  11.413
91955W        W64281  22.180   6.359   0.251
91956W        W64282  42.849  27.070  12.613
91957W        W64283   5.662   0.799  13.113
91958W        W64284  37.323  40.257  13.848
91959W        W64285  32.086  19.104  13.832
91960W        W64286  43.956  27.444   4.598
91961W        W64287  14.331  34.206   0.304
91962W        W64288  11.419  44.410  14.456
91963W        W64289  17.238   3.210  13.829
91964W        W64290  29.672   9.788   3.774
91965W        W64291  29.600   6.244   2.547
91966W        W64292  36.394  44.253   3.752
91967W        W64293   1.481   2.215  14.487
91968W        W64294  14.852  33.576  12.888
91969W        W64295  14.690  24.357   3.142
91970W        W64296  40.773  24.106  14.044
91971W        W64297   6.689  44.830   2.281
91972W        W64298   3.556  17.804   2.297
91973W        W64299  44.034   0.895   2.446
91974W        W64300  20.160  10.604  13.448
91975W        W64301  19.111   1.054   2.939
91976W        W64302   7.156  39.627  12.372
91977W        W64303  34.890  15.929   4.088
91978W        W64304  39.597  13.561  10.691
91979W        W64305  22.730  19.304   3.706
91980W        W64306  23.681  18.574  12.867
91981W        W64307  37.821   4.371   2.761
91982W        W64308   7.104  40.421   3.741
91983W        W64309  16.786  31.065   1.806
91984W        W64310  35.593  42.579   0.606
91985W        W64311  18.019   8.132   1.289
91986W        W64312  23.716  30.155  12.879
91987W        W64313  33.786   3.512   0.866
91988W        W64314  39.331  14.160  14.457
91989W        W64315   9.748  27.871   4.342
91990W        W64316  24.984  37.871  13.001
91991W        W64317  31.368  44.646  10.938
91992W        W64318  43.449  11.785  14.731
91993W        W64319   2.666   2.686   0.011
91994W        W64320   9.752  34.439  13.773
91995W        W64321  31.854  25.720  11.595
91996W        W64322  17.884  34.840  10.951
91997W        W64323  11.839  36.703  13.443
91998W        W64324  23.753   7.808   3.639
91999W        W64325  39.331  12.208   1.230
92000W        W64326  10.820  39.545  14.888
92001W        W64327  41.364  15.626  10.077
92002W        W64328  15.720  16.334  12.091
92003W        W64329  36.912  35.998  14.397
92004W        W64330   9.122  23.836  13.884
92005W        W64331   8.126  16.188  14.975
92006W        W64332  38.114  31.066   2.822
92007W        W64333   6.220  23.117   4.878
92008W        W64334  20.648  43.398  13.107
92009W        W64335  27.226   1.802  13.489
92010W        W64336  34.367  33.814  11.031
92011W        W64337  32.912  43.552   3.810
92012W        W64338  11.806  14.056  13.540
92013W        W64339  24.106  18.355  13.054
92014W        W64340  26.626  28.061  12.570
92015W        W64341   0.554  26.503   0.908
92016W        W64342  18.552  18.178  14.030
92017W        W64343  37.561   7.226  11.171
92018W        W64344  35.379   9.243   3.756
92019W        W64345  20.479  18.531   1.652
92020W        W64346  23.474  43.073  12.919
92021W        W64347  38.595  16.805   2.402
92022W        W64348   9.381  10.737   1.272
92023W        W64349   1.886   7.633   3.513
92024W        W64350  28.020  34.972  13.451
92025W        W64351   1.946  15.779   0.811
92026W        W64352  33.393   9.813  12.154
92027W        W64353  16.930  20.046   1.759
92028W        W64354   1.529  26.117   4.309
92029W        W64355  25.370  13.722  13.578
92030W        W64356  29.582  21.009  12.157
92031W        W64357  40.071  40.761   3.665
92032W        W64358  24.269   3.338   4.112
92033W        W64359   9.305  18.557   3.421
92034W        W64360  39.286  38.101   3.630
92035W        W64361  15.070  21.234  14.267
92036W        W64362  30.458  38.321  13.571
92037W        W64363  18.487   1.635  14.087
92038W        W64364  21.199  42.874   2.408
92039W        W64365  12.551  17.458  14.514
92040W        W64366   5.515   3.606  13.539
92041W        W64367  44.988  11.476   4.281
92042W        W64368   3.656  40.315  11.822
92043W        W64369   3.310   1.347   0.689
92044W        W64370  34.944  13.433  11.178
92045W        W64371  39.815   4.883  14.799
92046W        W64372   7.174  34.709   0.505
92047W        W64373  43.189  43.722   0.240
92048W        W64374  32.912   2.359  11.834
92049W        W64375  10.670   4.273  12.949
92050W        W64376  33.898  35.586   2.395
92051W        W64377  37.549  33.517   4.658
92052W        W64378  28.990   7.473   1.636
92053W        W64379  14.133   0.681  14.384
92054W        W64380  29.476  37.631  14.959
92055W        W64381  18.197  17.312   1.779
92056W        W64382  38.983  39.766  10.826
92057W        W64383  17.311  30.498   3.716
92058W        W64384  15.030  19.497  14.825
92059W        W64385  38.404  31.673   3.907
92060W        W64386   5.378   3.655   0.190
92061W        W64387  17.748  33.787   1.933
92062W        W64388   8.315  17.736  11.649
92063W        W64389   4.776  40.069  12.087
92064W        W64390  16.346   2.954  11.651
92065W        W64391  19.107  18.652   1.674
92066W        W64392  26.197  31.539   0.465
92067W        W64393  38.337  33.630  12.611
92068W        W64394   2.170  32.958  12.315
92069W        W64395  21.280  17.372  14.870
92070W        W64396  41.766  24.213   4.301
92071W        W64397   2.793  30.009  10.745
92072W        W64398  22.678  28.802   2.961
92073W        W64399  26.405  17.682  13.048
92074W        W64400  17.661   7.156   0.172
92075W        W64401  44.476  44.941   0.880
92076W        W64402  22.603  44.494   0.889
92077W        W64403   3.705  38.040  10.531
92078W        W64404  18.262  18.235   1.691
92079W        W64405  40.158  14.659  12.587
92080W        W64406   4.308  38.173   2.695
92081W        W64407  30.633  35.448   3.320
92082W        W64408   5.004   5.265   2.808
92083W        W64409  27.872  25.511   1.377
92084W        W64410  11.664  20.726  11.250
92085W        W64411   6.626  29.619  11.616
92086W        W64412  41.583  34.888   3.243
92087W        W64413  26.716  17.274  14.927
92088W        W64414  29.140  28.938   0.024
92089W        W64415  39.916  33.427   3.165
92090W        W64416  32.024  28.175   4.670
92091W        W64417  13.285   9.664  14.881
92092W        W64418  44.103  22.423  11.617
92093W        W64419  23.917   6.901   4.129
92094W        W64420  24.654   9.259   4.323
92095W        W64421   0.606  10.195   2.685
92096W        W64422   3.464  13.368   1.978
92097W        W64423  43.757   2.775  11.722
92098W        W64424  35.149   7.357  11.238
92099W        W64425   3.978  24.604  14.235
92100W        W64426   4.663  16.177   0.306
92101W        W64427  33.641  22.461   0.434
92102W        W64428   7.888  15.169  12.000
92103W        W64429  26.735  38.504   2.230
92104W        W64430  33.658  18.565  12.411
92105W        W64431  27.620  38.052   4.078
92106W        W64432  42.312  39.484   2.807
92107W        W64433  15.764  14.044  12.537
92108W        W64434   0.746  40.906  14.576
92109W        W64435  36.720   4.792   4.619
92110W        W64436  18.235  12.765   3.941
92111W        W64437  22.573  38.393  13.342
92112W        W64438  20.796  14.192   3.800
92113W        W64439  16.006   1.976  14.465
92114W        W64440  18.469   8.621  14.921
92115W        W64441   2.293  27.970   4.149
92116W        W64442  26.408  36.637   4.162
92117W        W64443  34.594  25.006  14.814
92118W        W64444   3.004  23.558   2.195
92119W        W64445  32.986   9.663   2.505
92120W        W64446  40.793  23.341  12.545
92121W        W64447   8.394   4.743  13.066
92122W        W64448  44.357  31.494  12.055
92123W        W64449   6.953  31.684  14.417
92124W        W64450  32.447   1.283  10.525
92125W        W64451   5.358  10.597  14.009
92126W        W64452  40.155  28.920  13.864
92127W        W64453   8.612  28.385   3.607
92128W        W64454   2.285   5.755  10.641
92129W        W64455  21.949  37.832   5.175
92130W        W64456  18.715  10.862  14.469
92131W        W64457  10.204  41.074  11.619
92132W        W64458  42.227  38.501   2.726
92133W        W64459  27.502  28.601   9.695
92134W        W64460  15.244  22.186  12.015
92135W        W64461  35.017  21.098   1.501
92136W        W64462  30.116  24.369  14.864
92137W        W64463  41.711  41.356  13.868
92138W        W64464   7.957   3.419   4.975
92139W        W64465  33.114  36.270   3.227
92140W        W64466  37.055  36.749  14.854
92141W        W64467   6.901  22.881   0.015
92142W        W64468  44.689  11.682  13.205
92143W        W64469  29.120  38.536  11.752
92144W        W64470  30.026   9.365  12.470
92145W        W64471  37.370  24.303   0.607
92146W        W64472  11.777  41.324   2.849
92147W        W64473  40.951  15.573  14.241
92148W        W64474  24.466  35.995   1.952
92149W        W64475  24.598  37.422   5.159
92150W        W64476   3.247   7.282   2.838
92151W        W64477   7.680  38.352  14.515
92152W        W64478   4.175  30.188  10.738
92153W        W64479  42.755  19.515  10.183
92154W        W64480  42.294   3.682  11.185
92155W        W64481  20.088  40.475   1.805
92156W        W64482  22.604  31.923  11.136
92157W        W64483   7.665  40.538   1.864
92158W        W64484  33.433  43.406  10.622
92159W        W64485  31.217  44.924  11.887
92160W        W64486  29.141  25.719   1.399
92161W        W64487  20.111   7.711  10.681
92162W        W64488  41.859   5.841   0.969
92163W        W64489   9.277  27.426   3.064
92164W        W64490  22.599   9.247  12.630
92165W        W64491  12.082  26.006   4.053
92166W        W64492  40.652  25.112   5.136
92167W        W64493  19.460  19.134  11.557
92168W        W64494  18.608  15.641   2.385
92169W        W64495  27.574  23.160   3.662
92170W        W64496  20.680  21.293  10.707
92171W        W64497  14.641   9.403   0.461
92172W        W64498   3.366  20.388  12.457
92173W        W64499   2.623  35.951   2.291
92174W        W64500  18.768  23.739  11.690
92175W        W64501  41.143  32.442  14.677
92176W        W64502   5.924  31.333  12.530
92177W        W64503  11.596  19.937  12.729
92178W        W64504   1.464   4.408  11.913
92179W        W64505   7.662  32.522  12.975
92180W        W64506  35.415  14.706  14.792
92181W        W64507   9.603  43.995  14.608
92182W        W64508   2.510  22.606  12.640
92183W        W64509  40.008  22.205  11.531
92184W        W64510  29.956  35.906   4.519
92185W        W64511  40.382   5.129   2.702
92186W        W64512  31.847  21.666  11.952
92187W        W64513  36.107  26.570   0.351
92188W        W64514  18.024   1.190   3.520
92189W        W64515  39.271   0.683  11.156
92190W        W64516   0.946  34.182   3.300
92191W        W64517  14.195  17.079  14.869
92192W        W64518  43.754  42.630   2.080
92193W        W64519  29.641  42.217  14.807
92194W        W64520  40.768  32.330  11.056
92195W        W64521  27.758  13.092   0.826
92196W        W64522  30.811  22.210  11.524
92197W        W64523  40.709  18.555  12.112
92198W        W64524   3.671  18.472   5.055
92199W        W64525   2.780  21.580  14.256
92200W        W64526  28.046  25.147   3.545
92201W        W64527  34.876  34.960   4.577
92202W        W64528  30.607  25.648  12.609
92203W        W64529  41.433  30.059   0.259
92204W        W64530   4.237  38.317  11.140
92205W        W64531  25.172  18.138   4.207
92206W        W64532  36.738  24.243   1.298
92207W        W64533   5.899   9.220  10.890
92208W        W64534  36.147  13.915  12.060
92209W        W64535  40.475   0.010  14.495
92210W        W64536   0.777  11.899   0.406
92211W        W64537  14.268  25.482  11.719
92212W        W64538   8.478  10.164   2.761
92213W        W64539  39.989  32.495   3.340
92214W        W64540  39.921  31.112   1.181
92215W        W64541   3.367  14.552   0.977
92216W        W64542   9.239   3.257  13.570
92217W        W64543  22.735  26.744   4.137
92218W        W64544   5.212  42.533  12.923
92219W        W64545  11.534  30.625   1.680
92220W        W64546  41.761   7.437   2.718
92221W        W64547  37.141  18.538  11.191
92222W        W64548   2.927  43.457   1.630
92223W        W64549  34.826   7.669  12.795
92224W        W64550  43.535  42.333  13.457
92225W        W64551  25.759   6.201   4.957
92226W        W64552   6.526   9.228   4.381
92227W        W64553  39.503  24.189   4.525
92228W        W64554  16.350   4.758  12.086
92229W        W64555   4.718  31.886   2.389
92230W        W64556   4.216  43.791  11.594
92231W        W64557  36.920  16.731  13.069
92232W        W64558  15.788  33.363  12.290
92233W        W64559  31.488  38.950   1.650
92234W        W64560  14.875  15.488   4.577
92235W        W64561  20.634   6.931   1.812
92236W        W64562  40.842  42.107  13.339
92237W        W64563  33.040  30.720  11.206
92238W        W64564  41.829   0.754  11.159
92239W        W64565   9.116  17.324   3.324
92240W        W64566  29.430   2.727  13.725
92241W        W64567  25.562   5.885  12.445
92242W        W64568  17.702   2.993  13.915
92243W        W64569  32.585  13.718  10.708
92244W        W64570  43.593  16.752   3.784
92245W        W64571   4.304  39.267   0.920
92246W        W64572  38.469   8.628  12.502
92247W        W64573  22.379   2.167   0.342
92248W        W64574  30.668   1.095  12.775
92249W        W64575  39.671  25.235   4.368
92250W        W64576  33.180  29.642   1.891
92251W        W64577   8.726  34.123  10.445
92252W        W64578  27.517  12.310  11.575
92253W        W64579  42.509  11.602   0.480
92254W        W64580  18.323  36.699  12.198
92255W        W64581  44.644   8.278   1.058
92256W        W64582  15.699   6.295  12.391
92257W        W64583  12.128   3.409  10.351
92258W        W64584  25.586  15.968   5.081
92259W        W64585  12.043   4.332   2.440
92260W        W64586  30.436  18.679   0.004
92261W        W64587  27.086  27.455  14.941
92262W        W64588  42.533   4.515  14.532
92263W        W64589  24.697   4.745  11.858
92264W        W64590  26.778   6.764   1.974
92265W        W64591   9.195  10.238  13.486
92266W        W64592  19.067   7.724  14.777
92267W        W64593   7.456  33.498  14.780
92268W        W64594   1.898  26.920   2.138
92269W        W64595  23.530   4.848   2.917
92270W        W64596  20.664  28.525   3.235
92271W        W64597   0.816  28.656   4.111
92272W        W64598  21.264  18.769  12.577
92273W        W64599   5.941  25.254   0.293
92274W        W64600  15.042  29.424  12.879
92275W        W64601  15.802  18.764  11.133
92276W        W64602  26.438  12.938   0.317
92277W        W64603  31.433   8.748  12.574
92278W        W64604  10.824  37.750  14.942
92279W        W64605  19.907  30.817  10.802
92280W        W64606   2.879  31.494   3.632
92281W        W64607  10.137  12.505  14.867
92282W        W64608   7.230  14.828  14.029
92283W        W64609  43.731  22.639  14.463
92284W        W64610  21.764  27.142   4.318
92285W        W64611  24.456  29.504   0.194
92286W        W64612  23.717  38.413   1.994
92287W        W64613   5.839  21.071   2.700
92288W        W64614  33.098  34.344   9.797
92289W        W64615  11.841   3.815  10.043
92290W        W64616   8.174  20.537   0.314
92291W        W64617  20.037  42.897   2.861
92292W        W64618  34.956   2.930   2.311
92293W        W64619   6.623  13.569   2.302
92294W        W64620  43.521  26.551  10.591
92295W        W64621   8.194   8.610   1.852
92296W        W64622  13.735  42.031   4.424
92297W        W64623  29.989  20.134   3.047
92298W        W64624  38.578  33.602   1.315
92299W        W64625  10.252  40.962  11.117
92300W        W64626  25.360   7.585  12.804
92301W        W64627  15.641  43.446  11.022
92302W        W64628  30.609  14.191   4.580
92303W        W64629  16.286   5.947  13.782
92304W        W64630  33.667  34.722  10.189
92305W        W64631  34.875  20.278  11.575
92306W        W64632  41.308  10.522   0.417
92307W        W64633  33.793   7.650   4.498
92308W        W64634  27.497  28.896   1.719
92309W        W64635  43.889   9.849   3.067
92310W        W64636  44.896   6.911   1.752
92311W        W64637  11.218   9.905  11.939
92312W        W64638  14.137   9.274  10.621
92313W        W64639  12.183  35.092  12.081
92314W        W64640  29.634  26.901   4.175
92315W        W64641  27.098   8.413   4.601
92316W        W64642  12.623  12.603  12.927
92317W        W64643  18.615  19.687   0.301
92318W        W64644  20.960  11.769   0.549
92319W        W64645  20.986  10.882   0.466
92320W        W64646  38.637  20.166   1.160
92321W        W64647  13.302  10.649   0.882
92322W        W64648  31.861   8.849  11.712
92323W        W64649   6.133  16.084  11.754
92324W        W64650  40.848   4.913   2.509
92325W        W64651  39.825  29.400   0.883
92326W        W64652  34.527  21.632   3.534
92327W        W64653   9.289   6.342  11.662
92328W        W64654  40.418  44.251   4.187
92329W        W64655  25.666  37.108   4.544
92330W        W64656   3.400  10.881   1.276
92331W        W64657  40.976  17.716   1.880
92332W        W64658   2.754  35.533  11.971
92333W        W64659   2.002  20.539  11.047
92334W        W64660  32.581  36.627  13.800
92335W        W64661   4.804  18.549   3.638
92336W        W64662  34.529  39.356  12.866
92337W        W64663  19.758  12.167   4.750
92338W        W64664   8.197  18.780  13.987
92339W        W64665  22.578  27.023   3.205
92340W        W64666   2.282   6.668   1.191
92341W        W64667  33.472  44.055  13.825
92342W        W64668  31.191   0.810   4.426
92343W        W64669  25.058   5.856   3.965
92344W        W64670  39.085  24.072  10.776
92345W        W64671  38.971  32.968   4.426
92346W        W64672  24.977  15.108   2.144
92347W        W64673  38.484  29.607   4.599
92348W        W64674   1.276  23.551  11.558
92349W        W64675   6.969  15.159  12.492
92350W        W64676  38.951  24.977  13.039
92351W        W64677  27.173  24.483  10.671
92352W        W64678  21.351  36.067  13.513
92353W        W64679  24.765  27.139   3.232
92354W        W64680  35.320  12.103   2.540
92355W        W64681  19.022  31.023  12.901
92356W        W64682  39.392  19.205  12.347
92357W        W64683   5.857   7.234   4.674
92358W        W64684  36.829   7.101   2.233
92359W        W64685  22.687  16.822   0.275
92360W        W64686  28.874  12.853  12.921
92361W        W64687   5.619  15.372  11.447
92362W        W64688  16.318  10.155  13.025
92363W        W64689  19.554   1.367   4.966
92364W        W64690  44.546  18.234  14.348
92365W        W64691   0.359  35.580   2.352
92366W        W64692   5.901  37.247  13.174
92367W        W64693  21.706  33.684  14.043
92368W        W64694  31.918  26.996  12.906
92369W        W64695  40.840  10.297   0.479
92370W        W64696  24.819  16.648  14.775
92371W        W64697  21.806  15.253   0.929
92372W        W64698  33.850  40.437  12.994
92373W        W64699  27.716  40.688   4.027
92374W        W64700  28.407  25.126  12.356
92375W        W64701  12.344  33.438  13.356
92376W        W64702   3.106  22.023  11.880
92377W        W64703  39.526  39.956  11.974
92378W        W64704  29.362  23.751  10.867
92379W        W64705  42.461  17.201   1.623
92380W        W64706  29.155  26.477  11.804
92381W        W64707  17.892   0.868   2.653
92382W        W64708  29.356  13.239  14.845
92383W        W64709   3.992   0.028  11.148
92384W        W64710  34.187  24.973  12.835
92385W        W64711  18.219  42.529   1.726
92386W        W64712  41.942  32.012   2.120
92387W        W64713  11.876  23.194  10.259
92388W        W64714  41.117  42.850  13.845
92389W        W64715  24.403   5.542   1.750
92390W        W64716  23.664   4.935  13.264
92391W        W64717  35.736  31.520  11.592
92392W        W64718  43.280  26.938  12.899
92393W        W64719  44.988  26.272  13.324
92394W        W64720  24.732  25.172   3.397
92395W        W64721  13.346   6.655  13.380
92396W        W64722   0.284  27.655   3.336
92397W        W64723  12.894  16.192  14.449
92398W        W64724  19.751  35.618   4.645
92399W        W64725  16.337  24.601   2.859
92400W        W64726  18.328  36.865  11.733
92401W        W64727   6.276  10.103   3.193
92402W        W64728  38.392  12.632  10.369
92403W        W64729  23.638  26.728  13.385
92404W        W64730  11.317   1.889   3.274
92405W        W64731   6.645  43.983  11.198
92406W        W64732   5.647   7.803  11.125
92407W        W64733  36.649   6.241   0.717
92408W        W64734  34.258  38.937   4.099
92409W        W64735  17.627  42.533  10.475
92410W        W64736  17.685  34.890  11.762
92411W        W64737  30.832  27.926   2.900
92412W        W64738  23.688   1.303   1.323
92413W        W64739  34.382  35.625   0.793
92414W        W64740   6.753  44.301  11.984
92415W        W64741  43.829  12.135   3.540
92416W        W64742  42.698   1.963  14.412
92417W        W64743  22.824  16.278  10.674
92418W        W64744  31.616  32.901   3.301
92419W        W64745   3.404  16.302   4.717
92420W        W64746  37.433   5.853  12.449
92421W        W64747  20.564  20.119  11.408
92422W        W64748  31.479  35.839  10.967
92423W        W64749  29.406  37.247   0.325
92424W        W64750  39.834   0.224  12.335
92425W        W64751  41.486   6.441   4.527
92426W        W64752  20.129  20.088   0.573
92427W        W64753  17.676  24.564  14.490
92428W        W64754  32.587  22.070   4.908
92429W        W64755   8.665  42.945  13.065
92430W        W64756  25.687  36.383  13.471
92431W        W64757   7.450  25.461  11.140
92432W        W64758   9.769  16.785   3.576
92433W        W64759  10.743  33.104  11.141
92434W        W64760  14.796   0.055  11.554
92435W        W64761   7.313   5.393  14.704
92436W        W64762  22.878  24.729  11.632
92437W        W64763   5.321  10.853   1.456
92438W        W64764  15.188  28.801   4.062
92439W        W64765   0.296  30.317   4.628
92440W        W64766  14.390   3.851   1.425
92441W        W64767   4.490   8.431  11.129
92442W        W64768  21.499  30.609  12.109
92443W        W64769  27.696  16.661  10.917
92444W        W64770   7.959  27.510   4.599
92445W        W64771  44.990  13.125  12.440
92446W        W64772  13.251  30.849   2.791
92447W        W64773  17.619  15.989  12.055
92448W        W64774   3.199  36.706   0.286
92449W        W64775   0.024  31.438   3.900
92450W        W64776   7.443   2.830   0.274
92451W        W64777  43.960  39.976  11.623
92452W        W64778  38.356  41.353   0.246
92453W        W64779  41.833  38.939   2.781
92454W        W64780   2.464   1.771   1.672
92455W        W64781  33.708   8.750   4.143
92456W        W64782  26.392  11.335  14.875
92457W        W64783  18.553  17.374   2.155
92458W        W64784  30.277  17.790   0.832
92459W        W64785  22.264  16.859   4.685
92460W        W64786   4.932  10.287   2.039
92461W        W64787  20.763  35.984  10.974
92462W        W64788  24.194  26.875  14.730
92463W        W64789  23.421  34.628  14.348
92464W        W64790  12.784  39.427  11.900
92465W        W64791  13.702  33.585  14.249
92466W        W64792   4.818  39.458   1.756
92467W        W64793  40.858  29.626  10.771
92468W        W64794  34.853  10.723  11.056
92469W        W64795  29.038  28.084   4.473
92470W        W64796   7.471  10.190  12.879
92471W        W64797  29.709  38.011   2.675
92472W        W64798  16.115  42.684  13.209
92473W        W64799  40.444  12.395   4.925
92474W        W64800  42.920  15.998  10.999
92475W        W64801  34.152  22.967   3.094
92476W        W64802  39.598  35.712   3.415
92477W        W64803  24.824   0.988  14.252
92478W        W64804  20.896  29.141   1.111
92479W        W64805  22.123  39.187   3.711
92480W        W64806   9.126   0.826  10.512
92481W        W64807   0.751  18.519   5.042
92482W        W64808  13.901   7.746  11.009
92483W        W64809  16.519  26.371   1.336
92484W        W64810  40.128  24.655  14.835
92485W        W64811   4.322  15.084  11.491
92486W        W64812  34.967  16.450   4.176
92487W        W64813   6.362  24.615   1.746
92488W        W64814  23.005  21.370   1.382
92489W        W64815  10.705   4.366   0.204
92490W        W64816  17.748  25.327   1.727
92491W        W64817  13.785  42.343   1.638
92492W        W64818  13.150  29.567   1.387
92493W        W64819   6.311  13.359  10.879
92494W        W64820  43.825  40.859  14.033
92495W        W64821   3.982  30.671  10.641
92496W        W64822  40.129  44.979   0.651
92497W        W64823  17.619  39.889  14.777
92498W        W64824   6.864  41.831   0.830
92499W        W64825  11.838  14.669  14.265
92500W        W64826  44.450   3.943  11.299
92501W        W64827  34.364  23.441   3.091
92502W        W64828  29.518  12.461  14.809
92503W        W64829  38.276  26.943  13.823
92504W        W64830  34.761   5.422   3.753
92505W        W64831  41.375  39.468   3.860
92506W        W64832  23.988   5.304  11.747
92507W        W64833  21.692  43.859   4.161
92508W        W64834  37.999  34.141   2.706
92509W        W64835   4.220  27.550  13.550
92510W        W64836  27.061  16.978  13.049
92511W        W64837  24.688  14.269   4.486
92512W        W64838   7.208  10.745   1.683
92513W        W64839  27.020   2.977   1.566
92514W        W64840  22.540   5.473   1.745
92515W        W64841  32.641  33.574  10.930
92516W        W64842  26.315  43.286   1.930
92517W        W64843  37.551  36.343  10.789
92518W        W64844  28.092   1.866   3.710
92519W        W64845  21.537  25.399  14.846
92520W        W64846  38.021   0.505   2.183
92521W        W64847  35.601  15.829  13.257
92522W        W64848   1.787  10.119   4.674
92523W        W64849  17.931   1.806   3.196
92524W        W64850  33.165  28.857  11.463
92525W        W64851  39.387  10.790   4.585
92526W        W64852   2.426  43.158  12.927
92527W        W64853   2.814   2.009   3.264
92528W        W64854   4.794   8.557   0.238
92529W        W64855  19.006   2.039   3.317
92530W        W64856  41.509  10.277   4.543
92531W        W64857  15.632  30.088  10.319
92532W        W64858   0.970  31.166   2.238
92533W        W64859  33.961  17.620   1.344
92534W        W64860  31.512  24.490   4.555
92535W        W64861  15.040   2.054   1.291
92536W        W64862  21.084  33.018   4.303
92537W        W64863  38.042   2.649  14.675
92538W        W64864   8.779   8.603  11.684
92539W        W64865  16.014  40.967   4.167
92540W        W64866   9.945  34.613  14.998
92541W        W64867   2.711  43.515  12.348
92542W        W64868  40.322   4.568  13.830
92543W        W64869   6.507   0.688   0.759
92544W        W64870  12.058   3.505   4.122
92545W        W64871  41.948   9.350  14.740
92546W        W64872  25.483  15.123   9.924
92547W        W64873   7.415  42.573  13.869
92548W        W64874  31.902  18.593  13.832
92549W        W64875  37.416   8.163   1.225
92550W        W64876  39.668  22.169  12.960
92551W        W64877  20.517  39.270  11.100
92552W        W64878   2.446   2.950  11.872
92553W        W64879  34.300  17.815   2.314
92554W        W64880  41.567  30.125  11.228
92555W        W64881   9.832  41.371   0.048
92556W        W64882  36.084  26.581  11.106
92557W        W64883  28.803  41.559   0.365
92558W        W64884   7.668   6.200  14.539
92559W        W64885  10.208  13.035  14.875
92560W        W64886  23.116  32.525   1.032
92561W        W64887   7.072  35.062  13.580
92562W        W64888  12.526  17.233   3.756
92563W        W64889   4.484   3.201   5.011
92564W        W64890  39.275   7.716  10.889
92565W        W64891  26.308  13.143  14.819
92566W        W64892   6.653  32.023   2.389
92567W        W64893  10.881  20.280  11.160
92568W        W64894  22.675  41.340  12.499
92569W        W64895  11.606  22.744  14.511
92570W        W64896   0.141  34.385   3.731
92571W        W64897  28.939   1.221   4.689
92572W        W64898  16.777  24.059  13.151
92573W        W64899  18.738  38.499  14.767
92574W        W64900  41.524  32.026  11.872
92575W        W64901   1.765  25.101  10.494
92576W        W64902  33.023  24.110  10.675
92577W        W64903  15.944  34.905  12.462
92578W        W64904  38.338  18.261   0.348
92579W        W64905  17.738  42.304  13.955
92580W        W64906  10.940  21.025  12.150
92581W        W64907  28.503  36.832  12.369
92582W        W64908  42.006  29.956  12.130
92583W        W64909  40.108  40.800   0.973
92584W        W64910   4.661  16.914   4.079
92585W        W64911  31.956   4.441  11.685
92586W        W64912  43.302  19.714   0.926
92587W        W64913  31.558  10.203  13.814
92588W        W64914  36.531   7.330  13.726
92589W        W64915  39.498  11.707   1.392
92590W        W64916   9.621  14.598   5.039
92591W        W64917  31.808  37.053   0.436
92592W        W64918  17.902  17.273  12.673
92593W        W64919  13.266  35.860  11.712
92594W        W64920  25.575  33.152   0.946
92595W        W64921  23.276  33.327  14.502
92596W        W64922  12.841  41.320  13.403
92597W        W64923  33.677  20.744  13.075
92598W        W64924   6.811  27.145  11.437
92599W        W64925   4.965  27.147   4.555
92600W        W64926  31.986   9.901  14.001
92601W        W64927  13.829  17.384   1.180
92602W        W64928  20.966  40.933   4.795
92603W        W64929  31.463  10.371   0.747
92604W        W64930  44.774  21.943   1.044
92605W        W64931  18.044  40.093  10.694
92606W        W64932  29.614   9.714   1.342
92607W        W64933  13.399  35.472  11.361
92608W        W64934  19.102  25.443  12.545
92609W        W64935  22.207  29.344   3.785
92610W        W64936  40.456  11.284   2.913
92611W        W64937  39.518  26.189   0.327
92612W        W64938  34.802  12.356   4.094
92613W        W64939  35.957  36.728  12.094
92614W        W64940  38.552  39.576  14.359
92615W        W64941  38.356  14.613   3.852
92616W        W64942   6.261  13.134   0.791
92617W        W64943  28.380  33.007   3.249
92618W        W64944  19.778  40.131   1.422
92619W        W64945  40.313  14.333  13.881
92620W        W64946  27.112  41.525  11.641
92621W        W64947  39.383  29.377   4.142
92622W        W64948  15.639   4.888   2.768
92623W        W64949  29.945  19.559   2.257
92624W        W64950  28.942  12.732  10.446
92625W        W64951  22.280  16.351   5.472
92626W        W64952  34.851  43.529  14.878
92627W        W64953   5.714   0.105   3.256
92628W        W64954  44.874  22.723  12.606
92629W        W64955  37.520  14.839  14.576
92630W        W64956  39.932  18.406  14.007
92631W        W64957  14.683   6.366  13.531
92632W        W64958   4.720   5.236   2.231
92633W        W64959  13.739  28.223   2.772
92634W        W64960   1.445  27.007   3.846
92635W        W64961  15.110  37.996  12.118
92636W        W64962  30.550  28.708   0.944
92637W        W64963  15.185  39.822   3.175
92638W        W64964  41.769   5.309  10.998
92639W        W64965   5.681  22.244   2.926
92640W        W64966  32.568  21.256  12.507
92641W        W64967  17.766  14.669   2.032
92642W        W64968  42.365  34.550   2.897
92643W        W64969   3.668  23.044  13.988
92644W        W64970   4.398  31.147  13.942
92645W        W64971  29.182   9.842  12.174
92646W        W64972   2.253   2.873  10.925
92647W        W64973  16.659  20.715   1.864
92648W        W64974  33.400   8.194  13.562
92649W        W64975   9.897  22.025   4.281
92650W        W64976  42.581  13.041   0.327
92651W        W64977  39.828  32.120  10.863
92652W        W64978   9.225   4.244   2.865
92653W        W64979  12.749  20.026   3.752
92654W        W64980   4.343   0.352   3.148
92655W        W64981  29.511  10.189   1.216
92656W        W64982  11.751  11.686   2.251
92657W        W64983   8.761  30.372   2.764
92658W        W64984   7.256  22.859  12.919
92659W        W64985   9.191  42.319  10.865
92660W        W64986  17.702  36.798   3.908
92661W        W64987  11.542  27.552   1.931
92662W        W64988  30.726  31.409   3.413
92663W        W64989  31.969  39.065   1.421
92664W        W64990  37.124  34.536   0.252
92665W        W64991   4.516  22.744  10.546
92666W        W64992  34.550  27.406  11.184
92667W        W64993  33.120  27.537   1.926
92668W        W64994  34.517  42.483   4.114
92669W        W64995  38.127   3.420  10.775
92670W        W64996  37.390  17.751   3.181
92671W        W64997  14.398  26.786  11.656
92672W        W64998  29.542  30.793   3.268
92673W        W64999  20.669  22.273  12.946
92674W        W65000  39.998  10.341  12.044
92675W        W65001  30.863  16.489  13.501
92676W        W65002   6.221  33.368   4.967
92677W        W65003  41.545  14.676  14.477
92678W        W65004  41.734  39.403  14.382
92679W        W65005   1.442  39.739   4.223
92680W        W65006   7.339  39.281   2.082
92681W        W65007  35.875  17.328  12.431
92682W        W65008  30.673  20.260  13.977
92683W        W65009  16.302  43.911  12.859
92684W        W65010  28.306  19.816   2.840
92685W        W65011  17.690  17.257  14.244
92686W        W65012   9.461   3.173   3.590
92687W        W65013  36.948   8.001  10.518
92688W        W65014  33.163  43.984  11.559
92689W        W65015   0.297   5.634  12.826
92690W        W65016  12.759  34.048  13.910
92691W        W65017  36.381  25.202  13.302
92692W        W65018  22.692  17.599  12.572
92693W        W65019   1.961  12.160  11.087
92694W        W65020  19.653  19.093  13.858
92695W        W65021  24.226  19.771  11.505
92696W        W65022  38.558  39.034   1.019
92697W        W65023  18.506   0.212   4.760
92698W        W65024  26.041   7.816   1.756
92699W        W65025   3.783  14.568   3.780
92700W        W65026  24.041  10.633   4.075
92701W        W65027   1.739   8.187   1.183
92702W        W65028  22.737  43.312  11.899
92703W        W65029  44.499  21.707   3.231
92704W        W65030  20.101   6.396   4.852
92705W        W65031  29.057  10.844  11.171
92706W        W65032  14.811  28.401  12.026
92707W        W65033  42.820  23.046  11.722
92708W        W65034  33.969  16.777   3.637
92709W        W65035  27.824  38.836  10.267
92710W        W65036  30.946  41.921  10.856
92711W        W65037  34.083  26.141   1.405
92712W        W65038  37.782   8.672   1.939
92713W        W65039  40.493  19.735   4.994
92714W        W65040  38.897  28.849   4.481
92715W        W65041  13.934  18.431  10.108
92716W        W65042   9.491   5.532   0.295
92717W        W65043  13.692   3.306   3.618
92718W        W65044  30.957  43.039   2.258
92719W        W65045   6.918  11.134   1.845
92720W        W65046  24.195  29.294   3.603
92721W        W65047   6.586  21.514   2.121
92722W        W65048   2.880  34.128   2.396
92723W        W65049  12.600  20.884  11.120
92724W        W65050  10.056  39.004  10.871
92725W        W65051   3.554   1.062  14.337
92726W        W65052   4.802  32.131  10.985
92727W        W65053  43.322  16.512   2.877
92728W        W65054  20.670  30.900   3.186
92729W        W65055   7.169  40.745   1.184
92730W        W65056  42.771  27.508  11.218
92731W        W65057  14.392  38.031  14.000
92732W        W65058  38.558  14.806   0.406
92733W        W65059  41.593  27.800  14.162
92734W        W65060  22.504   6.359  14.063
92735W        W65061  28.676  40.003   0.200
92736W        W65062  14.507  17.857   3.717
92737W        W65063  19.832  14.656  10.441
92738W        W65064  36.473  25.228   1.444
92739W        W65065  44.914  29.033  12.584
92740W        W65066  18.686  35.205   3.860
92741W        W65067   8.255   0.076   4.725
92742W        W65068  16.023   9.591   3.137
92743W        W65069  34.103  22.479   1.335
92744W        W65070  44.550   9.251   1.967
92745W        W65071  17.158  14.257  14.287
92746W        W65072  36.804  15.168  12.178
92747W        W65073  19.008   2.436  11.565
92748W        W65074  29.042  18.009  11.052
92749W        W65075   5.230  20.666  12.539
92750W        W65076  33.474  24.971  10.642
92751W        W65077  34.342  23.117   1.769
92752W        W65078   3.369   1.285  12.836
92753W        W65079  12.030  31.174  11.545
92754W        W65080  31.529  11.356   3.755
92755W        W65081  10.858   0.353  14.853
92756W        W65082  34.831   1.469  14.861
92757W        W65083  38.158   5.523   2.329
92758W        W65084  16.237  21.615   2.271
92759W        W65085  25.006  17.831  10.735
92760W        W65086  39.793  40.564   1.675
92761W        W65087  41.870  25.963  14.457
92762W        W65088  28.023  35.948  12.781
92763W        W65089  19.680  34.860   0.903
92764W        W65090  14.776  23.647   0.214
92765W        W65091   6.698   5.745   4.582
92766W        W65092  28.269  34.563  14.818
92767W        W65093  42.364  19.734   4.339
92768W        W65094   7.638  23.214   2.304
92769W        W65095  27.138  30.436  14.285
92770W        W65096  20.388  36.418  13.389
92771W        W65097  21.316  39.524  12.715
92772W        W65098  42.402  12.318   4.726
92773W        W65099  16.386  43.341  11.570
92774W        W65100  14.021  30.109   0.308
92775W        W65101  20.723   1.073   3.767
92776W        W65102  11.619  20.638  11.746
92777W        W65103  19.762  17.136  14.051
92778W        W65104  32.340  25.130   4.668
92779W        W65105  20.748  28.936  11.658
92780W        W65106  36.024  18.509   4.105
92781W        W65107  10.071  22.667   2.315
92782W        W65108  29.146  22.613   3.290
92783W        W65109   9.388  31.607  10.589
92784W        W65110  10.090  28.956  11.586
92785W        W65111  30.528   4.903   4.147
92786W        W65112   0.645   2.829  14.965
92787W        W65113  12.378  36.057   5.483
92788W        W65114  25.607  16.205  14.783
92789W        W65115  34.983  10.841   4.102
92790W        W65116  38.783  12.246  11.740
92791W        W65117  44.695  31.187   2.121
92792W        W65118  40.614  25.406   1.261
92793W        W65119   0.506  24.699   1.935
92794W        W65120  13.602  26.919   0.927
92795W        W65121  37.008  30.029   4.200
92796W        W65122  33.090  12.803  14.858
92797W        W65123  28.077  14.510  14.898
92798W        W65124  17.868  26.155  14.883
92799W        W65125  14.855  41.481  12.436
92800W        W65126  42.884  31.833   1.578
92801W        W65127   6.826  25.969  14.030
92802W        W65128  28.886  38.146   0.264
92803W        W65129  43.311  41.267  14.355
92804W        W65130  29.561  37.881  12.836
92805W        W65131   1.322  29.691   1.356
92806W        W65132  10.264   1.342   2.654
92807W        W65133  26.234  30.107   3.668
92808W        W65134  11.839  16.195   1.710
92809W        W65135  15.499  17.666  10.519
92810W        W65136  12.286   4.201  11.559
92811W        W65137  12.791   1.312  11.493
92812W        W65138  35.615   1.362  14.537
92813W        W65139  24.955  43.524   0.799
92814W        W65140  16.757   0.747  11.034
92815W        W65141  40.767  17.391  11.252
92816W        W65142  44.135  16.643   2.224
92817W        W65143   7.418   4.301   0.685
92818W        W65144   5.364  39.932   4.715
92819W        W65145  27.083  37.694  11.535
92820W        W65146  23.019  30.643   4.392
92821W        W65147  32.096  13.408   1.678
92822W        W65148  27.512  11.622  11.962
92823W        W65149  19.038  12.213   3.346
92824W        W65150  26.818  26.041  14.918
92825W        W65151  15.564  10.112  13.511
92826W        W65152  30.596  14.321  10.957
92827W        W65153  41.741   8.408  14.985
92828W        W65154  16.568  38.533  12.994
92829W        W65155  14.588   8.450  12.999
92830W        W65156   2.093  22.717   0.441
92831W        W65157  18.261   0.018   4.328
92832W        W65158   6.493  20.707  13.931
92833W        W65159  34.637  24.587  12.283
92834W        W65160  14.392   4.696   3.561
92835W        W65161  26.679   6.144   4.597
92836W        W65162   1.873  40.422  14.105
92837W        W65163   3.363  29.434   4.493
92838W        W65164  15.067  20.543  13.469
92839W        W65165  12.777   7.525   2.920
92840W        W65166  29.465  10.062  12.658
92841W        W65167  34.855  39.542   2.411
92842W        W65168  32.981  16.350   1.480
92843W        W65169   0.814   5.887  10.803
92844W        W65170  14.925  19.087  14.512
92845W        W65171  28.601  39.408  14.410
92846W        W65172  23.681   7.688  12.019
92847W        W65173  41.992   4.425  10.399
92848W        W65174  36.799  34.966   1.893
92849W        W65175  17.057  28.950   4.492
92850W        W65176  31.465  41.383   3.747
92851W        W65177  28.477  36.971  10.295
92852W        W65178  16.750  38.595   4.168
92853W        W65179  43.841   2.222  13.138
92854W        W65180  34.922  29.097  11.174
92855W        W65181  43.329   8.083   1.267
92856W        W65182  29.849  26.418   4.119
92857W        W65183  21.075   9.136   0.939
92858W        W65184  41.593  34.577  14.224
92859W        W65185   6.711  16.577   1.340
92860W        W65186  27.593   1.457  11.307
92861W        W65187  30.610  44.998   2.907
92862W        W65188  26.444   2.007   3.941
92863W        W65189  34.479  35.709   1.743
92864W        W65190  21.173   6.881  11.191
92865W        W65191  11.330  32.456  12.190
92866W        W65192  40.631  33.294   0.301
92867W        W65193  13.114   4.056  12.196
92868W        W65194  44.586  10.150   5.167
92869W        W65195  22.468  12.682  12.118
92870W        W65196  32.308  30.511  11.485
92871W        W65197  30.534  35.775   1.673
92872W        W65198   2.851  29.372   2.328
92873W        W65199  32.796  18.499  10.632
92874W        W65200   3.857  25.516   3.757
92875W        W65201  32.382   6.693  13.043
92876W        W65202  19.980  16.391  12.939
92877W        W65203  19.812   1.703  11.787
92878W        W65204  25.245  38.518  13.876
92879W        W65205   4.712  10.298   4.549
92880W        W65206  37.278  20.292  12.893
92881W        W65207   7.183  10.607   2.181
92882W        W65208   2.912  21.756  12.498
92883W        W65209  13.738  28.178   4.842
92884W        W65210  24.147  40.716   3.423
92885W        W65211   6.074  37.297   5.140
92886W        W65212  41.466  34.948  12.084
92887W        W65213   8.142   9.445  10.723
92888W        W65214  34.278  18.366  14.169
92889W        W65215  29.208  18.655   3.197
92890W        W65216  14.288   9.418  11.092
92891W        W65217  10.054   0.549  11.607
92892W        W65218  17.530  25.636  12.915
92893W        W65219   4.682   5.384  11.786
92894W        W65220  44.294  30.699   0.885
92895W        W65221  24.588  31.199  12.437
92896W        W65222  37.005  28.033  12.759
92897W        W65223  21.449  27.642   3.590
92898W        W65224   1.364  23.600   4.439
92899W        W65225   9.779  14.221  12.657
92900W        W65226  38.653  13.265   9.997
92901W        W65227  32.030   5.759   2.686
92902W        W65228  43.449  25.696  11.508
92903W        W65229  42.846  11.627  10.696
92904W        W65230  14.399  38.021   0.736
92905W        W65231  14.322   7.816   4.379
92906W        W65232  21.985  39.031  11.584
92907W        W65233   1.997  35.488   2.853
92908W        W65234  17.053  21.249   3.773
92909W        W65235  40.836   9.798  14.763
92910W        W65236  36.798  38.444  12.375
92911W        W65237  33.114  43.821  10.551
92912W        W65238  28.980  30.381  14.560
92913W        W65239  30.652   2.547   0.792
92914W        W65240   4.193   3.331  11.464
92915W        W65241   1.495  17.729   1.186
92916W        W65242  34.009  17.055   4.993
92917W        W65243  38.899  26.632   2.845
92918W        W65244  24.718  38.434  10.942
92919W        W65245  41.288  35.095   0.954
92920W        W65246  22.386  35.469  14.926
92921W        W65247  21.360  21.497   1.357
92922W        W65248  29.466  17.740  14.624
92923W        W65249  28.009  18.519   4.632
92924W        W65250  10.627  14.251   0.540
92925W        W65251  12.727  43.791   1.451
92926W        W65252  34.375  19.370  11.103
92927W        W65253  13.791  10.610   1.051
92928W        W65254  14.822  17.605  14.723
92929W        W65255  36.220   8.671   2.112
92930W        W65256  39.556  12.807  14.049
92931W        W65257  15.081   1.242  14.550
92932W        W65258   3.986  25.678   2.196
92933W        W65259  39.727  43.892  13.392
92934W        W65260  17.331   3.199   2.348
92935W        W65261   3.985  19.788  14.426
92936W        W65262  17.311  35.002  12.125
92937W        W65263  32.578  33.993  11.215
92938W        W65264   7.354  17.619   3.304
92939W        W65265   5.366  18.644   4.578
92940W        W65266  31.573   2.459  14.213
92941W        W65267  14.501   7.406   3.652
92942W        W65268  11.709   7.231  10.589
92943W        W65269  17.556  40.006   4.135
92944W        W65270  34.138  15.435  13.285
92945W        W65271   2.266  41.068  13.069
92946W        W65272  23.075  20.529  11.165
92947W        W65273  22.277  39.950   1.748
92948W        W65274  19.146   4.895  14.254
92949W        W65275   2.194  37.868  12.826
92950W        W65276   6.141  43.908  13.445
92951W        W65277   1.402   7.868  12.036
92952W        W65278  42.823  36.465  10.466
92953W        W65279  11.522  15.637   2.376
92954W        W65280  28.731  35.624  10.714
92955W        W65281   9.630   2.371  13.893
92956W        W65282  37.388  17.909  13.435
92957W        W65283   4.509   7.047  11.643
92958W        W65284  21.217  38.149   2.311
92959W        W65285  28.184  35.129   0.404
92960W        W65286  27.834  30.609  10.135
92961W        W65287  14.945  39.778   4.135
92962W        W65288  16.875  34.436  14.226
92963W        W65289   6.474  43.388  14.404
92964W        W65290  34.280  11.756  14.042
92965W        W65291  42.942   0.138   2.362
92966W        W65292  19.948   8.271   4.656
92967W        W65293  15.873  23.418  13.455
92968W        W65294  44.791  44.715  13.311
92969W        W65295  42.237  25.078   3.231
92970W        W65296  21.553  11.696  12.925
92971W        W65297   5.465  37.566   1.266
92972W        W65298   4.683  37.219  11.945
92973W        W65299  11.241  35.920  14.911
92974W        W65300   0.253  35.294  13.545
92975W        W65301  20.616  40.159  12.916
92976W        W65302  36.907  27.908  13.248
92977W        W65303  34.571  43.255   2.918
92978W        W65304   0.187   3.660  14.438
92979W        W65305  10.260  14.930   2.629
92980W        W65306   6.333  12.598   0.280
92981W        W65307  36.278  34.733   0.834
92982W        W65308  28.722  15.134   3.095
92983W        W65309   9.567   5.346  14.764
92984W        W65310  23.531  11.421  11.722
92985W        W65311  38.520  18.218  11.016
92986W        W65312   7.761  17.481   9.808
92987W        W65313  14.181   0.038   0.493
92988W        W65314  41.332   8.555  12.779
92989W        W65315  17.016   8.541  12.954
92990W        W65316   1.053   2.741   2.915
92991W        W65317   2.630  14.069   1.862
92992W        W65318  25.989  19.041  14.923
92993W        W65319  15.170  38.677  13.475
92994W        W65320  23.951   0.951  10.357
92995W        W65321   6.749  24.727  14.042
92996W        W65322   5.052  10.875   4.069
92997W        W65323  12.417  25.672   0.918
92998W        W65324  12.876  41.837   2.207
92999W        W65325  33.454  25.856  14.321
93000W        W65326  28.079   8.334   3.319
93001W        W65327  24.578  27.753   2.455
93002W        W65328  29.534  19.988  13.607
93003W        W65329  25.550  19.223  14.727
93004W        W65330  22.193  26.644   0.946
93005W        W65331   7.637  41.467  10.452
93006W        W65332  21.916   4.987  11.995
93007W        W65333  14.305  35.587  11.591
93008W        W65334  21.218  14.073  13.459
93009W        W65335  16.286   9.114  12.890
93010W        W65336  39.025   3.237   3.812
93011W        W65337  19.918  38.561  14.459
93012W        W65338  20.607  32.184  12.898
93013W        W65339  44.100  44.561   1.806
93014W        W65340  14.842  10.253   2.891
93015W        W65341  12.931  31.073  11.860
93016W        W65342   9.417  17.746   3.298
93017W        W65343  30.529  28.079   4.154
93018W        W65344  41.897  28.368  13.382
93019W        W65345  20.005  35.595  14.354
93020W        W65346  30.194  17.122   3.551
93021W        W65347  18.813  14.793  11.469
93022W        W65348  41.772  37.149  10.757
93023W        W65349   1.914   8.457   3.842
93024W        W65350  31.574   9.668  11.341
93025W        W65351  15.898  16.611   0.310
93026W        W65352  40.409  28.718  13.452
93027W        W65353  42.996  38.455  14.558
93028W        W65354  19.038  26.837   0.149
93029W        W65355  32.041  39.236  12.907
93030W        W65356  31.499  30.590  13.472
93031W        W65357   4.922  43.207   4.975
93032W        W65358  15.875  37.338   5.079
93033W        W65359  29.626  25.513  10.650
93034W        W65360  19.521  12.653   1.271
93035W        W65361  23.271  30.801  10.888
93036W        W65362  13.580   9.420   0.397
93037W        W65363  18.173  40.469  14.096
93038W        W65364  23.157  39.704   5.057
93039W        W65365  30.107  20.039   2.122
93040W        W65366   5.924  35.427  11.061
93041W        W65367  26.619  16.870  10.126
93042W        W65368  43.791   5.925  12.896
93043W        W65369  21.525  11.792   1.395
93044W        W65370  33.344  10.830  13.298
93045W        W65371  40.031  17.239   2.273
93046W        W65372  26.052  38.047   3.686
93047W        W65373  28.062  23.239   3.825
93048W        W65374  21.233  29.692  10.740
93049W        W65375  13.237  11.138  13.854
93050W        W65376  20.278  30.095  11.605
93051W        W65377  40.662  12.200   0.211
93052W        W65378  39.036  19.763  11.986
93053W        W65379  19.316  12.381  11.159
93054W        W65380  30.849  14.183   0.519
93055W        W65381  36.384   2.324  14.758
93056W        W65382  43.352   0.346  13.012
93057W        W65383  41.369  24.563   0.836
93058W        W65384  31.111  40.589   1.381
93059W        W65385  44.346  27.184  14.587
93060W        W65386  32.199   2.083  13.292
93061W        W65387  35.502  12.077   0.428
93062W        W65388  29.936  28.627  11.072
93063W        W65389  36.404  15.825  10.614
93064W        W65390  22.082   7.317  10.728
93065W        W65391  21.861  36.903   9.907
93066W        W65392  34.783  30.737   4.779
93067W        W65393  26.640  23.832  14.534
93068W        W65394  31.507  42.428   1.297
93069W        W65395  36.619  23.502  11.605
93070W        W65396  36.566   2.082   4.176
93071W        W65397  37.418  34.715  14.337
93072W        W65398  20.735   9.776   2.420
93073W        W65399  13.595  28.358  12.948
93074W        W65400   8.532   6.268  14.220
93075W        W65401  26.775  41.879  14.411
93076W        W65402  30.345  23.687  10.705
93077W        W65403   9.929  24.936   4.992
93078W        W65404  39.587  38.542   1.107
93079W        W65405  31.023  44.364   2.412
93080W        W65406  17.481   7.716  14.911
93081W        W65407  14.017   2.440   3.204
93082W        W65408  25.471   8.060  13.000
93083W        W65409  16.149  20.261   4.834
93084W        W65410  36.023  17.131   1.141
93085W        W65411  37.343   3.385   0.808
93086W        W65412   5.589  18.333   1.329
93087W        W65413  31.895   4.410  13.099
93088W        W65414   0.364  39.382   1.476
93089W        W65415  16.070  24.790   1.667
93090W        W65416  38.572  20.948  12.357
93091W        W65417  37.747  12.588   0.410
93092W        W65418  29.394  28.979   2.770
93093W        W65419  18.595  28.381  10.798
93094W        W65420  40.491  38.295  11.657
93095W        W65421  12.757  43.303   0.330
93096W        W65422  31.758  27.396   0.877
93097W        W65423   4.009  14.559  12.012
93098W        W65424  37.336   0.946  14.392
93099W        W65425   3.914  32.111   1.813
93100W        W65426  41.875  11.303   4.037
93101W        W65427  28.128   0.548   3.222
93102W        W65428  20.965  22.634   1.788
93103W        W65429   8.838  19.596   4.915
93104W        W65430  26.158  11.419  10.332
93105W        W65431  19.191  32.845   4.262
93106W        W65432  24.253   9.804   2.237
93107W        W65433  40.946  44.111  11.116
93108W        W65434  13.042  19.507   1.229
93109W        W65435   9.359  44.350   3.112
93110W        W65436   1.505  12.168   5.753
93111W        W65437   6.235  44.946  10.588
93112W        W65438  38.160  10.616   0.455
93113W        W65439  32.605  32.143   4.370
93114W        W65440  14.737  36.142  10.977
93115W        W65441  40.306  17.065  12.919
93116W        W65442  42.442  18.915   2.081
93117W        W65443  24.952  22.566   3.986
93118W        W65444  31.988  18.570   3.662
93119W        W65445  43.071   0.166   1.851
93120W        W65446   1.515  27.144  11.234
93121W        W65447  34.040  17.993   4.587
93122W        W65448  11.739  42.486  10.775
93123W        W65449  44.691  28.665  11.435
93124W        W65450  34.103  34.945   1.099
93125W        W65451  36.377   9.814  12.428
93126W        W65452  35.824  43.902  13.429
93127W        W65453  33.160  12.609  13.570
93128W        W65454  44.472  44.317   2.101
93129W        W65455  36.144  42.266   2.760
93130W        W65456  39.961  26.199   2.056
93131W        W65457  32.586  26.638  10.415
93132W        W65458   6.978  13.339   4.026
93133W        W65459  41.969   4.237  12.876
93134W        W65460  14.198  22.626   1.068
93135W        W65461  30.029  31.244   3.893
93136W        W65462  31.868  31.186   4.094
93137W        W65463  15.468  23.543   4.088
93138W        W65464  35.689  25.428   0.705
93139W        W65465  41.815   3.942   1.150
93140W        W65466  35.292   0.748  11.509
93141W        W65467   3.254  36.794   1.538
93142W        W65468  27.467   7.767   2.730
93143W        W65469  37.968  21.506   3.763
93144W        W65470   8.636  33.312   2.610
93145W        W65471  20.020  30.298  10.755
93146W        W65472  33.503  37.884   5.031
93147W        W65473  22.869   7.410   4.724
93148W        W65474   6.680  31.943   4.559
93149W        W65475  32.805   6.007  14.805
93150W        W65476  33.394  38.487   3.007
93151W        W65477  44.159  42.038   3.666
93152W        W65478   5.598  37.822   4.520
93153W        W65479  23.667  34.259  13.890
93154W        W65480   2.230  30.612  14.387
93155W        W65481  43.347  42.770   2.369
93156W        W65482  12.096   9.779  10.462
93157W        W65483  16.296  26.500  14.529
93158W        W65484   8.546  16.402  13.390
93159W        W65485  25.716  27.506  14.708
93160W        W65486  27.164  27.673   2.061
93161W        W65487  43.401  41.644  10.194
93162W        W65488  41.485   4.288   0.069
93163W        W65489   3.664  36.335  11.110
93164W        W65490  20.551  14.405   1.378
93165W        W65491  10.255  20.708  13.924
93166W        W65492  41.537  37.418   4.893
93167W        W65493  10.774  33.010   1.787
93168W        W65494  43.837  32.282  14.329
93169W        W65495  12.850  11.218  11.059
93170W        W65496  24.754   0.263   1.323
93171W        W65497  23.156  16.857   4.870
93172W        W65498   8.661  18.298  14.524
93173W        W65499  35.261   4.265  12.490
93174W        W65500  23.362   9.790   2.189
93175W        W65501   9.913  24.542  12.335
93176W        W65502  44.803  28.123   0.303
93177W        W65503  21.261  37.771  10.596
93178W        W65504  33.537  33.838  14.742
93179W        W65505  22.457  20.031   2.840
93180W        W65506   1.406   9.133  11.077
93181W        W65507  43.726   6.710  11.560
93182W        W65508  21.037  29.443  13.906
93183W        W65509  35.845   5.786   0.030
93184W        W65510  21.015   6.893   4.824
93185W        W65511   3.274   8.339  11.674
93186W        W65512  35.647  40.663  12.800
93187W        W65513   3.148  29.962  12.067
93188W        W65514  29.052  10.940   0.344
93189W        W65515   0.791  13.345   2.273
93190W        W65516  43.865  32.584  10.702
93191W        W65517  43.836  13.374   4.578
93192W        W65518   4.709  25.969  12.022
93193W        W65519  11.294  16.794  13.313
93194W        W65520  19.158   8.134   0.745
93195W        W65521  19.328  14.644   0.962
93196W        W65522  23.071  19.637  13.133
93197W        W65523  22.590  33.501  13.819
93198W        W65524   3.970  31.787  11.914
93199W        W65525  25.488  36.419  11.548
93200W        W65526  26.531   7.233  13.392
93201W        W65527  43.532  13.736  13.496
93202W        W65528  20.633  16.335   3.149
93203W        W65529  17.646  20.741  14.940
93204W        W65530  26.625   6.753  10.690
93205W        W65531  30.537  44.528  10.890
93206W        W65532   3.326  18.449   0.920
93207W        W65533  32.582   5.576   2.292
93208W        W65534  36.566  34.979  11.993
93209W        W65535  21.802  13.051  12.682
93210W        W65536  10.655  18.857   1.275
93211W        W65537  37.104  43.824  12.417
93212W        W65538  25.640  20.701   0.479
93213W        W65539  31.597  44.180   1.648
93214W        W65540  24.543  20.953   4.095
93215W        W65541  32.107  21.981   2.594
93216W        W65542   0.143  26.767   0.678
93217W        W65543  32.526   5.318  14.026
93218W        W65544  19.633  20.571  13.871
93219W        W65545  25.248   6.677   0.489
93220W        W65546  20.710  31.109  10.566
93221W        W65547  40.713  43.584  14.958
93222W        W65548  24.034  43.104  14.740
93223W        W65549  22.182  15.100  11.223
93224W        W65550   2.220  24.048   2.255
93225W        W65551   9.425   2.764   0.817
93226W        W65552  17.111  21.591   2.356
93227W        W65553  40.842  33.229  11.557
93228W        W65554   9.873  17.020  12.058
93229W        W65555   0.291   9.719  14.332
93230W        W65556  13.760   6.125   1.231
93231W        W65557  39.878   2.932   3.889
93232W        W65558  18.050  40.050  14.485
93233W        W65559  17.122  27.079   4.015
93234W        W65560  28.729   3.061  12.420
93235W        W65561  40.760   2.263   3.754
93236W        W65562  33.993   9.131   3.374
93237W        W65563  30.389  31.091   4.748
93238W        W65564  40.224  23.664   3.993
93239W        W65565  18.320  44.461   0.081
93240W        W65566   6.884  35.063   1.814
93241W        W65567  18.405  42.999   3.299
93242W        W65568  31.426  25.754  13.757
93243W        W65569  23.034  43.433   0.562
93244W        W65570  24.926   1.135   4.551
93245W        W65571  22.070   0.128   3.364
93246W        W65572  11.183   6.256  12.574
93247W        W65573  16.718  31.166  14.695
93248W        W65574  28.718  16.264  13.776
93249W        W65575   0.195  36.829  11.985
93250W        W65576  35.930  38.850  10.611
93251W        W65577  30.407  25.734   1.874
93252W        W65578  21.835  14.653  14.300
93253W        W65579  43.713   0.986  14.407
93254W        W65580  24.063  10.147  11.113
93255W        W65581  25.606  39.266  11.469
93256W        W65582  43.427  24.200  11.562
93257W        W65583  23.793  28.495  12.897
93258W        W65584  20.695  32.911  11.570
93259W        W65585   1.206   0.511  11.905
93260W        W65586  30.114  13.111   0.225
93261W        W65587  16.105   9.980  14.839
93262W        W65588  25.732  15.833   0.201
93263W        W65589   8.035   3.260   0.885
93264W        W65590  17.085  20.775   4.029
93265W        W65591  30.495   8.835  14.329
93266W        W65592   6.728  33.655  11.903
93267W        W65593  28.134  12.406   3.784
93268W        W65594   1.531   2.675   3.308
93269W        W65595   0.465   5.615  14.833
93270W        W65596  17.799  43.707   1.420
93271W        W65597  42.662   8.692  12.702
93272W        W65598  27.302   5.364  10.679
93273W        W65599  43.524  12.586  12.951
93274W        W65600   2.762  36.959   1.342
93275W        W65601  27.552  14.187  13.031
93276W        W65602   9.833  28.710  13.521
93277W        W65603  37.445  30.944  10.542
93278W        W65604  23.556   8.877   4.018
93279W        W65605   3.453   6.084  11.096
93280W        W65606   2.394  38.491  14.861
93281W        W65607  34.544  30.079  12.454
93282W        W65608  23.300  43.268  14.053
93283W        W65609  32.029  15.608   1.660
93284W        W65610  44.887  41.698  14.761
93285W        W65611   0.218  14.693   3.748
93286W        W65612  29.169  39.395   1.300
93287W        W65613  15.118  10.705   0.315
93288W        W65614  13.698   7.437   1.713
93289W        W65615  14.845  28.557   1.798
93290W        W65616   9.100  34.514   2.272
93291W        W65617  18.047  10.668   0.604
93292W        W65618   7.812  13.532   1.855
93293W        W65619  33.231  15.128  13.079
93294W        W65620   5.939  32.689  13.853
93295W        W65621  32.956   6.948   2.238
93296W        W65622  25.862  37.552   3.707
93297W        W65623  32.547  28.701  12.038
93298W        W65624  13.350  18.493   0.278
93299W        W65625  38.003   0.655   1.671
93300W        W65626  15.413   8.156  10.744
93301W        W65627  39.582  14.617   0.432
93302W        W65628  23.246  15.102   5.063
93303W        W65629   0.260  19.381  11.077
93304W        W65630  12.393  27.359   1.350
93305W        W65631  37.125   7.929  11.474
93306W        W65632  28.981  41.937   3.157
93307W        W65633   3.109  23.474  11.500
93308W        W65634  30.580  28.245   0.338
93309W        W65635  26.473  13.788   3.299
93310W        W65636  27.520  39.657   3.096
93311W        W65637  27.765  25.828  14.309
93312W        W65638  34.456  12.693  14.512
93313W        W65639  34.897  18.749   3.958
93314W        W65640  38.855  44.872   5.169
93315W        W65641  39.059  12.756   0.872
93316W        W65642  35.052  40.104  10.816
93317W        W65643  14.802  35.490   0.987
93318W        W65644  14.577  30.482   0.201
93319W        W65645  23.683  36.300  14.969
93320W        W65646   2.933  17.084  13.929
93321W        W65647  20.244  31.363   3.819
93322W        W65648  29.110   5.921  14.516
93323W        W65649  23.487   0.839   2.854
93324W        W65650  43.544  14.652  13.560
93325W        W65651  21.195  27.884   0.827
93326W        W65652  16.849  39.565   0.249
93327W        W65653  44.709  18.085  13.360
93328W        W65654  23.687  14.744  13.875
93329W        W65655  16.728   2.393  12.120
93330W        W65656  30.789   2.892  12.137
93331W        W65657  44.366  43.825   2.818
93332W        W65658  33.924  21.033  12.488
93333W        W65659  16.082  19.756   4.577
93334W        W65660   3.477  23.225   1.816
93335W        W65661  35.836  13.573  14.967
93336W        W65662  28.570  19.203   3.226
93337W        W65663   2.773  14.051   4.700
93338W        W65664   7.443  16.008   2.734
93339W        W65665  35.000  32.340   1.985
93340W        W65666  15.693   9.662  14.931
93341W        W65667  24.615  21.042  11.843
93342W        W65668  25.625  12.645  13.277
93343W        W65669  26.686   1.318  13.748
93344W        W65670  14.587  31.203   1.427
93345W        W65671  13.190  28.852  10.725
93346W        W65672   7.803  27.910   0.724
93347W        W65673   0.884  20.977  14.277
93348W        W65674  32.869  24.571   3.313
93349W        W65675   0.475  24.989   3.331
93350W        W65676  20.145   7.264  10.425
93351W        W65677  37.689  10.725   0.283
93352W        W65678  33.376  27.715  13.964
93353W        W65679  26.186  18.283   4.301
93354W        W65680  29.579   1.550  14.914
93355W        W65681  24.258  32.140  12.542
93356W        W65682  25.978  23.040   2.694
93357W        W65683  43.445   6.436   0.425
93358W        W65684  41.573   8.204   1.498
93359W        W65685   3.280   5.943   2.250
93360W        W65686  18.039   0.312  10.989
93361W        W65687   2.994  34.563   4.539
93362W        W65688   7.009  13.850  11.571
93363W        W65689  44.227  29.586  14.828
93364W        W65690  32.689  38.918  12.868
93365W        W65691   3.409  17.714  12.968
93366W        W65692  40.661  21.823  13.421
93367W        W65693   3.379  20.866  11.720
93368W        W65694  12.562  32.614  12.132
93369W        W65695  32.078  15.277   0.657
93370W        W65696  17.123  35.005   0.988
93371W        W65697  40.300   2.993   4.186
93372W        W65698  24.204   6.226   1.203
93373W        W65699  26.523  42.500   2.238
93374W        W65700  39.504  14.784  14.086
93375W        W65701   2.867  29.473   1.258
93376W        W65702  38.323   8.681  13.868
93377W        W65703  38.880   8.944   4.071
93378W        W65704  39.782  40.076  13.972
93379W        W65705  43.077  37.054  11.102
93380W        W65706  43.656  39.476  10.578
93381W        W65707  37.862  13.958   4.294
93382W        W65708  23.012   5.501  13.891
93383W        W65709  44.820   4.293  13.326
93384W        W65710   8.017  26.536   4.064
93385W        W65711  29.644  27.922   3.244
93386W        W65712  15.820  30.582  14.379
93387W        W65713  34.110  11.666   1.780
93388W        W65714  25.076  22.672   1.809
93389W        W65715  35.046   7.815   3.695
93390W        W65716  32.892   9.723  14.469
93391W        W65717  23.944  11.012   1.912
93392W        W65718   9.629  13.733   4.092
93393W        W65719  43.505  23.928   2.815
93394W        W65720  15.782  25.170  13.929
93395W        W65721  28.672  17.162   0.857
93396W        W65722  35.951   5.932   0.787
93397W        W65723  40.264  22.428  13.991
93398W        W65724   7.413  31.488   0.918
93399W        W65725  23.274  38.740   3.087
93400W        W65726  30.358  38.821  10.664
93401W        W65727   0.864  10.197  13.783
93402W        W65728   8.241  10.582  12.782
93403W        W65729  24.956  25.976   5.022
93404W        W65730   1.235  25.583  11.054
93405W        W65731   2.809  20.816  12.522
93406W        W65732  42.734   4.318   2.128
93407W        W65733  25.274  19.803  10.590
93408W        W65734  36.555  39.843  12.561
93409W        W65735  35.441  11.985   0.927
93410W        W65736  34.841  31.477   2.405
93411W        W65737  24.330  26.521   0.842
93412W        W65738   1.232   8.263   2.996
93413W        W65739  44.426   7.678  11.036
93414W        W65740  30.119   2.962  11.643
93415W        W65741  39.274  16.293   0.763
93416W        W65742   8.138   2.643  11.977
93417W        W65743  40.608  31.629   0.970
93418W        W65744  11.219   3.970  13.710
93419W        W65745  10.956  11.251   0.812
93420W        W65746  35.042   8.636   4.229
93421W        W65747  14.733  10.319   1.723
93422W        W65748  21.698  40.909   0.173
93423W        W65749  18.764   9.703  14.343
93424W        W65750   5.635  38.246   3.137
93425W        W65751   5.841  29.629   4.587
93426W        W65752   7.477  14.646   4.669
93427W        W65753  25.693  12.137  11.448
93428W        W65754  11.605  18.006  11.084
93429W        W65755  36.211  13.400   4.602
93430W        W65756  42.145  40.866  12.486
93431W        W65757   5.984  12.369   3.274
93432W        W65758  19.879  15.569  12.519
93433W        W65759  18.125  27.677  14.522
93434W        W65760  16.169   4.903  14.311
93435W        W65761  40.813  37.401  13.357
93436W        W65762  41.298   2.264  10.612
93437W        W65763  20.266  35.158  11.180
93438W        W65764  12.197  25.545  13.235
93439W        W65765  31.954  28.578  12.095
93440W        W65766  14.151  21.180  12.924
93441W        W65767  25.270  25.627  11.578
93442W        W65768   1.361  43.314   4.688
93443W        W65769   1.879  44.876  12.551
93444W        W65770  41.118  26.685  11.192
93445W        W65771   3.579  22.462   5.224
93446W        W65772  16.895   5.105  13.797
93447W        W65773  10.900   5.002  12.374
93448W        W65774  27.703  10.168   1.953
93449W        W65775   1.407  17.768   3.669
93450W        W65776  37.811   4.479   1.428
93451W        W65777  14.524  15.609   3.080
93452W        W65778  25.153  36.894   4.612
93453W        W65779  42.889  25.746   0.819
93454W        W65780  23.000  26.286   1.207
93455W        W65781  37.917  16.813  10.221
93456W        W65782  37.333  13.723  12.429
93457W        W65783  14.475  26.174   5.557
93458W        W65784  10.040  11.355  10.834
93459W        W65785  44.255  25.097  14.401
93460W        W65786  30.826  26.061  10.999
93461W        W65787   5.334   9.766   0.338
93462W        W65788   0.797  21.155   3.284
93463W        W65789  25.924  18.303  14.370
93464W        W65790   9.486  26.085  10.543
93465W        W65791  32.115  24.429   2.888
93466W        W65792  30.409  29.795   0.159
93467W        W65793  29.211  14.059  14.224
93468W        W65794   8.744  40.981  11.143
93469W        W65795   7.227   3.493   4.348
93470W        W65796  34.509   7.001  11.115
93471W        W65797   5.058  26.691   2.784
93472W        W65798  28.917  23.057   3.469
93473W        W65799  33.891   6.816   0.959
93474W        W65800  28.955   7.907   1.309
93475W        W65801  23.058  36.030   3.121
93476W        W65802  23.769   9.475  11.561
93477W        W65803  20.737   7.146   3.213
93478W        W65804  25.088  23.033  12.616
93479W        W65805  42.050  14.087  11.718
93480W        W65806  22.769   5.579   2.967
93481W        W65807  26.024  36.901  13.814
93482W        W65808   4.346  28.584  11.297
93483W        W65809   6.487  37.524   0.392
93484W        W65810  15.259   3.549  12.231
93485W        W65811  41.590  38.779  12.680
93486W        W65812  13.140  14.610   2.387
93487W        W65813   0.095  10.568   3.280
93488W        W65814  19.058  24.876  12.702
93489W        W65815  18.208  34.567  10.636
93490W        W65816   2.942  40.056  14.603
93491W        W65817  21.913   8.744   0.258
93492W        W65818   2.972  39.441   2.690
93493W        W65819  30.433  26.116  12.785
93494W        W65820  13.357  15.241  10.690
93495W        W65821  17.769   4.306  10.719
93496W        W65822  35.360  21.550   0.372
93497W        W65823  26.998  26.790  12.632
93498W        W65824  13.852   6.778  13.417
93499W        W65825  23.922   0.463   4.858
93500W        W65826   8.734  11.327   2.149
93501W        W65827  25.614   9.715  14.895
93502W        W65828  41.775  26.431   0.365
93503W        W65829  38.434  14.581   4.921
93504W        W65830  12.143   7.724   1.266
93505W        W65831   6.256  29.357   2.817
93506W        W65832  32.956  20.985  13.518
93507W        W65833  16.394  13.913   0.135
93508W        W65834  42.126   7.817   4.107
93509W        W65835  24.652  36.318   2.461
93510W        W65836  24.097  10.301  12.004
93511W        W65837  38.056  17.298  14.456
93512W        W65838  45.000  21.605   3.235
93513W        W65839  37.090  36.057   4.246
93514W        W65840  10.295  10.048   4.515
93515W        W65841  17.188  21.651   3.490
93516W        W65842  16.270  25.241  14.181
93517W        W65843   9.146   3.773  13.556
93518W        W65844  22.659   0.263  10.706
93519W        W65845  23.239  12.843   0.452
93520W        W65846  27.885  21.794   4.150
93521W        W65847   0.597  34.786   2.557
93522W        W65848   2.373   4.836   0.253
93523W        W65849  38.912  20.738   1.915
93524W        W65850  38.041  23.428  12.878
93525W        W65851  13.751  16.307  14.779
93526W        W65852  37.569  20.221   1.821
93527W        W65853  37.322  37.430  14.378
93528W        W65854   7.673  14.738   2.719
93529W        W65855  13.161  37.628   3.779
93530W        W65856  41.210  21.049  12.590
93531W        W65857  22.925  32.992   2.783
93532W        W65858  43.791  22.127   3.215
93533W        W65859  29.842  40.413  12.586
93534W        W65860  37.917   2.216   1.718
93535W        W65861  19.503  41.039   1.313
93536W        W65862  15.153  36.906   1.450
93537W        W65863  30.376  29.372  11.265
93538W        W65864  24.971   6.388   1.841
93539W        W65865  14.467  37.855  10.362
93540W        W65866  13.636  42.181  14.326
93541W        W65867  36.107  21.913   4.007
93542W        W65868  17.311  24.463   0.427
93543W        W65869  15.223   3.413  13.572
93544W        W65870   4.596  20.655   4.595
93545W        W65871  35.857  13.152  14.036
93546W        W65872  16.121  37.333   3.747
93547W        W65873  37.515  21.262  14.835
93548W        W65874  36.249  42.479  10.691
93549W        W65875  15.571  22.603  14.412
93550W        W65876  35.407  32.618   1.292
93551W        W65877  26.594   1.008   3.204
93552W        W65878   1.428  16.279  12.859
93553W        W65879  31.074  13.832   3.733
93554W        W65880  25.544  12.601  10.246
93555W        W65881  34.373  33.067   0.585
93556W        W65882   6.546  24.094  12.839
93557W        W65883  11.452   7.918  12.623
93558W        W65884  33.870  27.626   1.421
93559W        W65885  24.155  24.459  12.580
93560W        W65886   3.987  36.054   2.630
93561W        W65887   7.898   2.359  11.068
93562W        W65888  26.902  26.281   4.156
93563W        W65889  10.179  11.613   3.629
93564W        W65890  12.129  41.895  13.563
93565W        W65891  16.703   2.375   2.932
93566W        W65892  24.735  40.363  13.468
93567W        W65893  23.972  34.965  14.324
93568W        W65894  36.256  13.920  10.093
93569W        W65895  18.707  24.266   1.195
93570W        W65896  16.737  13.069   0.358
93571W        W65897  25.644   0.438  11.650
93572W        W65898  25.716  17.110   9.747
93573W        W65899  21.212  24.163  14.312
93574W        W65900  28.170  13.722   2.792
93575W        W65901  18.788  15.246   1.684
93576W        W65902  10.638  39.015   0.736
93577W        W65903  16.642   6.747  13.832
93578W        W65904   2.383  22.499   2.258
93579W        W65905  40.923  20.246  11.027
93580W        W65906  32.584  22.306  11.240
93581W        W65907  39.675  29.092  13.771
93582W        W65908  31.886  39.249  11.100
93583W        W65909  16.183  15.147   1.408
93584W        W65910  30.898  18.317  13.815
93585W        W65911  34.501   2.913  13.981
93586W        W65912   1.774  40.246  12.320
93587W        W65913  22.959   7.619  14.758
93588W        W65914  15.444  33.119   9.569
93589W        W65915  21.216  41.101   3.336
93590W        W65916  32.560  15.082  13.700
93591W        W65917  15.746  24.967  13.363
93592W        W65918  35.580  11.785   5.495
93593W        W65919   7.702  32.153   4.519
93594W        W65920  19.902  26.393  11.817
93595W        W65921   8.178  34.582   1.874
93596W        W65922  32.008  38.331   1.928
93597W        W65923  27.558  16.347   2.231
93598W        W65924  14.741   0.798  13.813
93599W        W65925  26.156   6.269   3.391
93600W        W65926  13.773  27.049  13.421
93601W        W65927  17.615  17.381  10.053
93602W        W65928   8.597   4.325  11.553
93603W        W65929  20.068  44.385  14.980
93604W        W65930   7.901  18.265   1.476
93605W        W65931  22.395   3.039   4.520
93606W        W65932  19.887  18.127  10.647
93607W        W65933  19.042   5.225   3.881
93608W        W65934  36.472  15.846  13.348
93609W        W65935  32.872  27.639  10.951
93610W        W65936  22.520  32.113  14.044
93611W        W65937  31.179   6.377  11.096
93612W        W65938  28.121  39.081   0.821
93613W        W65939  28.538  25.239  10.851
93614W        W65940  15.155  14.340   0.578
93615W        W65941   9.231  30.385   4.363
93616W        W65942  25.688  25.924   0.361
93617W        W65943  13.641  25.786  11.826
93618W        W65944  17.820   3.124  14.847
93619W        W65945  27.064  43.354   2.959
93620W        W65946  15.793   5.967   2.175
93621W        W65947  20.009  26.037   1.341
93622W        W65948  14.331  23.728  10.665
93623W        W65949  26.071  35.079   1.854
93624W        W65950  20.235  17.240  10.686
93625W        W65951   5.807  39.750  12.603
93626W        W65952   6.790  23.381   4.140
93627W        W65953  43.895   1.741   1.802
93628W        W65954  24.582   8.257   2.768
93629W        W65955  21.004  27.581   4.392
93630W        W65956  44.929   5.903  12.598
93631W        W65957  14.694  24.235   2.326
93632W        W65958  33.773  36.034   4.175
93633W        W65959  34.901  24.714   3.722
93634W        W65960   4.533  42.952   0.412
93635W        W65961  14.256  44.889   0.982
93636W        W65962  20.731  33.479  14.433
93637W        W65963  34.309   4.464   2.803
93638W        W65964  28.456   4.433  11.511
93639W        W65965   0.368  26.382  12.896
93640W        W65966  12.319  33.626   4.236
93641W        W65967  17.168   3.472   1.920
93642W        W65968  43.044  12.065  14.530
93643W        W65969   8.789  37.934   4.104
93644W        W65970  12.668  22.827  11.992
93645W        W65971  33.043  44.787  12.835
93646W        W65972  33.345  11.198   2.782
93647W        W65973  37.101  41.060  12.192
93648W        W65974  21.396  36.865   1.754
93649W        W65975  26.604   7.330  14.369
93650W        W65976   4.943  42.798   3.543
93651W        W65977  35.613  41.031  12.381
93652W        W65978   4.978  21.296   4.118
93653W        W65979   6.650  33.984   1.010
93654W        W65980  24.598   8.692  11.992
93655W        W65981  13.876  36.028   4.363
93656W        W65982  16.350  18.464  12.022
93657W        W65983  30.885  24.070  13.455
93658W        W65984  25.055  10.929  14.409
93659W        W65985  33.563  26.692   0.447
93660W        W65986  13.794  12.538   0.201
93661W        W65987  13.158  31.187  14.420
93662W        W65988  31.991  33.167  11.602
93663W        W65989  12.735  36.232   9.787
93664W        W65990   0.253  15.566   0.602
93665W        W65991   0.080  32.658   1.863
93666W        W65992  44.038  36.341   0.253
93667W        W65993  22.121  10.936   0.784
93668W        W65994  14.676  23.187  14.949
93669W        W65995   4.679   5.724  13.415
93670W        W65996  22.654   1.615  11.897
93671W        W65997   3.183   5.895  14.236
93672W        W65998  23.586  38.492  13.601
93673W        W65999  23.032  28.108   3.255
93674W        W66000  44.741  22.459   2.871
93675W        W66001  33.457   0.846  10.744
93676W        W66002  16.192   3.949  13.413
93677W        W66003  35.122  15.137  11.991
93678W        W66004  28.619  10.144   1.425
93679W        W66005  32.783  32.209  13.748
93680W        W66006  33.464  44.928  11.439
93681W        W66007  18.678  16.568   0.817
93682W        W66008  13.525  11.252  13.374
93683W        W66009  31.444  23.108  14.112
93684W        W66010  18.026  23.558  11.490
93685W        W66011  32.955  24.342   2.862
93686W        W66012  21.010  21.738   1.882
93687W        W66013   9.873   6.773  11.585
93688W        W66014  43.373  18.318   3.139
93689W        W66015  43.746   3.680   0.380
93690W        W66016  16.796  30.402  13.477
93691W        W66017  10.209  25.069   1.297
93692W        W66018  24.064  35.214   4.941
93693W        W66019  20.644   0.833  10.997
93694W        W66020  41.004   7.649   3.106
93695W        W66021   4.715   4.829   1.920
93696W        W66022  24.517   2.901  12.008
93697W        W66023  41.450  23.238   1.183
93698W        W66024   1.489   8.743   3.744
93699W        W66025  41.279  22.463  12.920
93700W        W66026  25.445  13.788  10.757
93701W        W66027  39.895  20.815  10.548
93702W        W66028  42.076   5.183  13.780
93703W        W66029  26.399  19.855  10.019
93704W        W66030  24.618  44.753   1.325
93705W        W66031   7.839  34.364   3.653
93706W        W66032  25.975  25.888   4.145
93707W        W66033  43.548  42.836  13.372
93708W        W66034  25.404  14.710  12.164
93709W        W66035   3.072  10.790  11.427
93710W        W66036  39.355  43.005  10.849
93711W        W66037  18.680  11.897   3.774
93712W        W66038  22.258   0.733  13.387
93713W        W66039  14.908  22.220   1.465
93714W        W66040  20.656  39.970  14.773
93715W        W66041   0.226  21.156  12.885
93716W        W66042  12.114   4.300   0.295
93717W        W66043  20.122  33.874  11.481
93718W        W66044  31.077  23.316  12.344
93719W        W66045  19.749   6.245   2.714
93720W        W66046  19.040  12.446   1.309
93721W        W66047   3.123  15.278  13.802
93722W        W66048  14.105  43.990   3.165
93723W        W66049   8.793  14.570   0.275
93724W        W66050  32.154  36.583   0.387
93725W        W66051  15.738  23.258   2.497
93726W        W66052  19.088  42.359  14.298
93727W        W66053   6.464  29.882   3.695
93728W        W66054  21.318  19.711  14.447
93729W        W66055  36.469   7.391  14.253
93730W        W66056   2.800  21.224   1.937
93731W        W66057  19.666   5.181   4.546
93732W        W66058  40.830  17.193   4.611
93733W        W66059   1.050  37.318   2.122
93734W        W66060  40.852  14.865   0.340
93735W        W66061  20.662   7.447   2.802
93736W        W66062   8.170  23.145   3.569
93737W        W66063  22.263  35.457   4.073
93738W        W66064   2.287  36.694  13.373
93739W        W66065   3.848  33.052   2.309
93740W        W66066  23.990  30.410  11.537
93741W        W66067  14.344  10.098   4.602
93742W        W66068  43.545  22.187  14.999
93743W        W66069  17.800  17.265  11.502
93744W        W66070   4.460  10.766  11.393
93745W        W66071  42.994  16.183   0.693
93746W        W66072  31.036  24.775  12.395
93747W        W66073  37.125  24.952  10.601
93748W        W66074   8.324  14.377  11.001
93749W        W66075   9.881  43.385  10.440
93750W        W66076  20.891  18.102   0.922
93751W        W66077   6.708  39.042  10.729
93752W        W66078  37.092  31.051  10.891
93753W        W66079  27.487  33.906   1.931
93754W        W66080   4.263   4.196   1.289
93755W        W66081   3.867  20.767  12.496
93756W        W66082  13.709   7.630   2.647
93757W        W66083  41.662  41.807   1.558
93758W        W66084  44.554  13.123   2.769
93759W        W66085  32.274  44.743   2.175
93760W        W66086  28.659  37.431  10.480
93761W        W66087  37.927  26.838  14.871
93762W        W66088  43.786  26.252   1.321
93763W        W66089   7.139  20.287  12.883
93764W        W66090  16.670  20.021   4.137
93765W        W66091  42.242  43.229   3.107
93766W        W66092   0.181  42.064  13.965
93767W        W66093  41.968  26.926  12.496
93768W        W66094  10.577   4.293   1.412
93769W        W66095  42.061   8.862  13.108
93770W        W66096  15.512  15.638  10.710
93771W        W66097  17.414   1.404   4.917
93772W        W66098   4.388   9.064  14.702
93773W        W66099  16.504  17.682  11.282
93774W        W66100   5.908   8.561   3.651
93775W        W66101  26.980  34.510   0.358
93776W        W66102  44.845   5.838  11.246
93777W        W66103   5.330  18.902   0.895
93778W        W66104   0.325  25.974  14.298
93779W        W66105  12.860  33.090   1.263
93780W        W66106  42.480  39.558  12.380
93781W        W66107  34.474  16.052  14.902
93782W        W66108  31.963  33.037  12.493
93783W        W66109   3.920  39.523  13.007
93784W        W66110   2.639   7.377  14.917
93785W        W66111   3.610  16.535  13.048
93786W        W66112  43.437   5.351   0.748
93787W        W66113  10.762  34.680   3.238
93788W        W66114  18.736  16.501  14.550
93789W        W66115   3.550  41.008  14.027
93790W        W66116  33.868  14.316   0.010
93791W        W66117   0.866  19.194   0.155
93792W        W66118  25.765  31.548   2.969
93793W        W66119  23.774  30.376   0.375
93794W        W66120  12.731  27.414   2.143
93795W        W66121  23.764  26.597  11.108
93796W        W66122  34.328  33.855  11.962
93797W        W66123  37.970  24.464  13.030
93798W        W66124  37.891  38.706  13.868
93799W        W66125  24.428  17.496   4.057
93800W        W66126  35.245  33.442  11.530
93801W        W66127  21.969  12.316  11.614
93802W        W66128   7.966  28.851   2.716
93803W        W66129  22.228  25.904  10.822
93804W        W66130  15.113  13.649   3.970
93805W        W66131  38.001  38.436   3.496
93806W        W66132   5.100   3.920   2.779
93807W        W66133  11.961  36.380   1.278
93808W        W66134  39.755   0.091   0.306
93809W        W66135   2.448   9.083  13.584
93810W        W66136  36.446  27.132  10.492
93811W        W66137  23.972  16.575   3.029
93812W        W66138  35.524  13.349   2.396
93813W        W66139  17.104  29.859  12.400
93814W        W66140   1.921   6.973  14.348
93815W        W66141  24.709   0.235   3.230
93816W        W66142   6.239  24.132  14.707
93817W        W66143  43.793  42.358   4.438
93818W        W66144  18.163  37.883   0.936
93819W        W66145  34.354  20.141   1.981
93820W        W66146  38.342  10.612  13.383
93821W        W66147  18.538  24.512   4.081
93822W        W66148  17.666  20.416  13.370
93823W        W66149  29.803  39.552   3.709
93824W        W66150  39.723  25.687   3.627
93825W        W66151  29.401  38.322  13.054
93826W        W66152  12.115  28.259   5.233
93827W        W66153  19.051  12.712  14.936
93828W        W66154  20.236  15.257   1.952
93829W        W66155  21.819   3.824   0.327
93830W        W66156  16.354   1.635  11.894
93831W        W66157  30.748  24.560   2.744
93832W        W66158  16.893  13.450   2.250
93833W        W66159  39.632  21.517  11.415
93834W        W66160   0.999  20.379   4.057
93835W        W66161  37.776  34.133   3.679
93836W        W66162  18.501  12.741   2.738
93837W        W66163  18.613   2.704  11.904
93838W        W66164   4.880  15.748  10.945
93839W        W66165  20.676  32.199  13.807
93840W        W66166   9.904  35.420   3.371
93841W        W66167  39.958   7.314   3.341
93842W        W66168   9.246  22.042   0.732
93843W        W66169  16.714   1.277   4.486
93844W        W66170  27.833  12.846   1.292
93845W        W66171  44.802   5.940   1.433
93846W        W66172  19.137  16.696   1.023
93847W        W66173   4.313   4.691   3.258
93848W        W66174  15.356  32.932  14.337
93849W        W66175  31.593  19.585  10.703
93850W        W66176  14.170   2.322   0.916
93851W        W66177  21.145  22.187  10.803
93852W        W66178  29.692  16.054   1.764
93853W        W66179  30.424  31.572   3.816
93854W        W66180  24.647  12.855   2.708
93855W        W66181  40.728  24.353   0.775
93856W        W66182  33.183  44.573   0.209
93857W        W66183  21.521   3.894  11.646
93858W        W66184  25.104  39.482  13.761
93859W        W66185  14.803   6.263  10.758
93860W        W66186  30.632  24.108  10.565
93861W        W66187  34.547  35.198   1.864
93862W        W66188  24.234  28.197  12.936
93863W        W66189  12.212  13.616  12.033
93864W        W66190  10.902  33.034  14.280
93865W        W66191  26.539  23.718   0.913
93866W        W66192  34.347  13.648   2.800
93867W        W66193  18.592  35.569  11.141
93868W        W66194   7.822  16.476   3.278
93869W        W66195  30.669  29.155   3.556
93870W        W66196  27.061   7.702  10.898
93871W        W66197  33.899  12.822   4.326
93872W        W66198  37.510  33.260  11.091
93873W        W66199  14.433  18.700   2.319
93874W        W66200  17.612   0.276  12.067
93875W        W66201  21.417  40.380   1.712
93876W        W66202   3.333   7.335  12.499
93877W        W66203   9.237  38.727   2.533
93878W        W66204  19.211  17.544   0.985
93879W        W66205  33.249  28.337  11.603
93880W        W66206  11.672   7.285   4.228
93881W        W66207  38.894  11.325   0.501
93882W        W66208   8.764   7.696   1.767
93883W        W66209  11.183  10.327   0.517
93884W        W66210   5.397  27.532   1.028
93885W        W66211  39.884  38.803   0.748
93886W        W66212   5.338   1.717   1.843
93887W        W66213  26.974  42.940   3.785
93888W        W66214  31.779  32.052  14.859
93889W        W66215  28.591  38.981   4.660
93890W        W66216   1.410  24.552   4.324
93891W        W66217  36.943  39.543   3.180
93892W        W66218  22.729  18.577   2.815
93893W        W66219  31.104  23.511  14.015
93894W        W66220  43.757   1.157  11.948
93895W        W66221   2.038   4.303  12.895
93896W        W66222  14.653  16.083  10.472
93897W        W66223  42.265  33.854  12.809
93898W        W66224  27.965   0.673   4.484
93899W        W66225  27.717  30.932   3.721
93900W        W66226  42.040   2.846  14.429
93901W        W66227  14.554  43.181   2.913
93902W        W66228   9.878   0.444   3.564
93903W        W66229  17.165   3.812   2.909
93904W        W66230   9.889   8.269  10.671
93905W        W66231   1.311  39.993   2.252
93906W        W66232   3.917  12.325   1.300
93907W        W66233  40.857  13.291  13.526
93908W        W66234  21.733  24.342   0.033
93909W        W66235  33.354  10.097  14.474
93910W        W66236  11.223  36.571   2.957
93911W        W66237   6.133   8.865  12.571
93912W        W66238  44.544   6.261  11.060
93913W        W66239  23.803  29.092  14.465
93914W        W66240  40.117  13.567   3.242
93915W        W66241  11.800  23.095  12.927
93916W        W66242  43.722  19.039   2.663
93917W        W66243   7.789  28.612   3.865
93918W        W66244   2.753  14.700  12.837
93919W        W66245  43.078  38.690  10.913
93920W        W66246  38.568   4.927  10.530
93921W        W66247  44.034   5.846   3.745
93922W        W66248  14.286   9.727   0.745
93923W        W66249  44.542  14.185   1.171
93924W        W66250  32.401  23.655  11.127
93925W        W66251  36.920   9.724  14.931
93926W        W66252  31.873  24.269   0.358
93927W        W66253  21.223  11.374   4.123
93928W        W66254  10.421  15.360  14.850
93929W        W66255  32.009  15.669   2.607
93930W        W66256  36.327   6.910  13.946
93931W        W66257  37.953  30.944  10.719
93932W        W66258  12.807  10.607  11.149
93933W        W66259  10.769   7.104   1.380
93934W        W66260  44.256  13.492  13.137
93935W        W66261  33.733  16.401  12.956
93936W        W66262  31.531   1.166   4.303
93937W        W66263   5.126  41.922   3.051
93938W        W66264  25.538  30.105  10.908
93939W        W66265   6.420  19.026   1.267
93940W        W66266  36.898  36.602  13.794
93941W        W66267  36.635   9.194  12.407
93942W        W66268  37.347   1.947  14.856
93943W        W66269  20.108  36.079   0.750
93944W        W66270  16.767   9.922   3.769
93945W        W66271   7.214  12.629  12.625
93946W        W66272  14.797  41.680  14.805
93947W        W66273  33.917  34.323   0.464
93948W        W66274  33.064  22.176  12.939
93949W        W66275  40.068  30.991   4.117
93950W        W66276  19.718  14.053   4.714
93951W        W66277  26.022  19.608  13.369
93952W        W66278  43.875  30.026  14.834
93953W        W66279  13.384  11.573  12.070
93954W        W66280   0.674   4.799  13.352
93955W        W66281   5.188  18.153   2.001
93956W        W66282  16.049   1.853   1.347
93957W        W66283  40.925  29.218   3.290
93958W        W66284  38.799  29.929   3.714
93959W        W66285  44.469  15.636  11.861
93960W        W66286  24.170  29.869   0.939
93961W        W66287  26.149   3.580   0.898
93962W        W66288  31.592  27.534  10.660
93963W        W66289  36.093   1.645  14.417
93964W        W66290  22.980  18.713   2.399
93965W        W66291  39.007  32.492  13.852
93966W        W66292  33.029  40.205  13.887
93967W        W66293  34.360  22.926  13.679
93968W        W66294  43.104  23.388   1.715
93969W        W66295  42.581  37.907   1.834
93970W        W66296  10.424  28.657   3.252
93971W        W66297  11.399   5.618   4.187
93972W        W66298   7.163  34.304   2.391
93973W        W66299  36.587  20.679  10.979
93974W        W66300  32.935   2.737   4.561
93975W        W66301  11.871   1.175   3.260
93976W        W66302  30.494  10.685  11.281
93977W        W66303   8.293  22.042  14.424
93978W        W66304  22.609  13.981   3.198
93979W        W66305   7.975  29.030   4.746
93980W        W66306  13.800  17.117  13.432
93981W        W66307  31.141   9.727  10.720
93982W        W66308  27.994  23.081   3.291
93983W        W66309  30.942  30.272   3.579
93984W        W66310  32.532   3.218  12.064
93985W        W66311  25.449  35.806   4.164
93986W        W66312   6.963  20.561   4.516
93987W        W66313   9.429  14.624   1.128
93988W        W66314  14.182  34.607   2.331
93989W        W66315   4.365  18.800   3.677
93990W        W66316   5.254  31.162   3.707
93991W        W66317  14.940  34.322   5.568
93992W        W66318  41.344   5.204  12.538
93993W        W66319  10.721  40.998   0.531
93994W        W66320  21.066   0.243  12.530
93995W        W66321   6.182  36.644  11.670
93996W        W66322  16.113   4.162  11.005
93997W        W66323  14.619  44.944  14.572
93998W        W66324  19.933   1.837   4.895
93999W        W66325  42.784  39.360   0.983
94000W        W66326   6.306  44.702  12.731
94001W        W66327   6.963   0.967  13.281
94002W        W66328  43.455  15.649  11.480
94003W        W66329   5.939  35.476  13.214
94004W        W66330  27.127   1.314   4.480
94005W        W66331  10.797  25.713   3.000
94006W        W66332  36.057  31.058  12.374
94007W        W66333   6.368  40.525  12.925
94008W        W66334  11.540  17.708   1.896
94009W        W66335   9.373  17.851   4.190
94010W        W66336  36.946   4.024  14.002
94011W        W66337  19.074  37.782   3.672
94012W        W66338  25.746   9.742  10.557
94013W        W66339  11.108  43.083   4.114
94014W        W66340   0.704  32.671   2.365
94015W        W66341  28.475  39.860   4.808
94016W        W66342  25.316  11.243  10.301
94017W        W66343  26.397   7.211  11.460
94018W        W66344   2.302  40.263  13.833
94019W        W66345   8.707  36.096   1.150
94020W        W66346  36.336  43.822  13.378
94021W        W66347  10.763  33.695   3.372
94022W        W66348  20.636  25.220  13.924
94023W        W66349  28.440  37.919   2.303
94024W        W66350  28.430  43.570  11.013
94025W        W66351   6.933  13.774   0.010
94026W        W66352  15.167  11.301   4.242
94027W        W66353  29.155  13.838  12.058
94028W        W66354   1.058  36.620   2.727
94029W        W66355  18.099   9.249  11.493
94030W        W66356  44.376  29.215   2.748
94031W        W66357  22.157  27.414  12.895
94032W        W66358   5.797  18.732   0.718
94033W        W66359  32.900  41.520  14.396
94034W        W66360  33.411  27.706   3.241
94035W        W66361   7.917   1.959   3.667
94036W        W66362  37.277   0.558  12.173
94037W        W66363   6.330   5.735   2.399
94038W        W66364  43.704  22.082   0.479
94039W        W66365  41.933   8.490   1.253
94040W        W66366  31.391  38.807   2.769
94041W        W66367  31.019  15.493   1.727
94042W        W66368   5.168  37.755  14.235
94043W        W66369   2.033  36.379  14.738
94044W        W66370  27.906  13.773   0.416
94045W        W66371  28.904  24.606   1.256
94046W        W66372   3.409  30.743  14.049
94047W        W66373  10.389  36.666  12.063
94048W        W66374  20.443   9.666   1.317
94049W        W66375  39.988  18.823   3.921
94050W        W66376   6.960  41.992  11.578
94051W        W66377  20.024  40.475   0.680
94052W        W66378  34.043   4.683  14.183
94053W        W66379  22.521  39.521  12.410
94054W        W66380   7.489   6.880  12.156
94055W        W66381  24.036  32.410  13.835
94056W        W66382   9.397  10.433  11.586
94057W        W66383   8.886  25.093  12.561
94058W        W66384  42.493  43.806  14.891
94059W        W66385  33.565  41.455   0.961
94060W        W66386  27.193   4.399   0.143
94061W        W66387  43.055  43.068  10.906
94062W        W66388  36.451  29.442   2.799
94063W        W66389  33.396  11.767  12.144
94064W        W66390  21.721  38.850   9.769
94065W        W66391   7.266  34.844  11.161
94066W        W66392  10.223  18.769  11.782
94067W        W66393  33.169  31.495  13.112
94068W        W66394  30.382  28.746   2.919
94069W        W66395   1.254  18.233   2.352
94070W        W66396  37.565   7.320  10.665
94071W        W66397  11.253  16.032  12.812
94072W        W66398  14.490  13.183  13.753
94073W        W66399   9.491  19.088   3.644
94074W        W66400  36.097  24.997  14.922
94075W        W66401  23.568   2.667  14.006
94076W        W66402   2.563  43.072   4.242
94077W        W66403  15.574  39.916   0.025
94078W        W66404  42.008  35.621   3.321
94079W        W66405  42.425   5.633   1.747
94080W        W66406  32.662  24.272  11.540
94081W        W66407   7.377  15.067   1.782
94082W        W66408   8.927  31.098   4.697
94083W        W66409  11.845  17.535   4.165
94084W        W66410  43.056  42.491  12.522
94085W        W66411   3.843  33.953  14.755
94086W        W66412  35.573  13.085   2.841
94087W        W66413  37.150   9.712  10.632
94088W        W66414   9.699  43.499  10.916
94089W        W66415  40.275  15.112  14.319
94090W        W66416  25.969  43.280  12.483
94091W        W66417  18.146  19.519  14.816
94092W        W66418  17.663  26.430  11.628
94093W        W66419   6.543  29.085   3.201
94094W        W66420  16.274  18.984  11.988
94095W        W66421   3.921  29.476   3.779
94096W        W66422  18.040  37.672  10.424
94097W        W66423   1.716  21.116  13.970
94098W        W66424  27.349   4.176  11.939
94099W        W66425  23.806  40.854   4.288
94100W        W66426  31.363  22.469   1.889
94101W        W66427  42.213  38.568   1.711
94102W        W66428  18.056  36.073  12.592
94103W        W66429   3.773  22.276  12.673
94104W        W66430  23.182  26.703   3.252
94105W        W66431  41.774  30.407  13.498
94106W        W66432  38.411  27.799   0.877
94107W        W66433  24.464   9.518   1.859
94108W        W66434   9.434  14.032   2.728
94109W        W66435   7.159   4.450   0.262
94110W        W66436  28.435  17.793  10.659
94111W        W66437  37.366  21.407  11.656
94112W        W66438  13.115  28.563  14.095
94113W        W66439  19.831   2.707  13.529
94114W        W66440   7.854  37.199  13.026
94115W        W66441  13.611  15.148   0.321
94116W        W66442  13.367  44.194   2.296
94117W        W66443  33.229  11.788  14.876
94118W        W66444  27.459  42.974  14.275
94119W        W66445  28.117  27.010   0.925
94120W        W66446   9.925  40.535   2.663
94121W        W66447  19.297  16.319  10.739
94122W        W66448  32.137   5.838   2.172
94123W        W66449  20.172  37.081  13.796
94124W        W66450  28.783  44.182  14.342
94125W        W66451  30.139  29.079  10.920
94126W        W66452  20.559   7.622   3.293
94127W        W66453  17.022  27.528   3.720
94128W        W66454  32.004  30.344   1.640
94129W        W66455  16.734  35.589  12.846
94130W        W66456  39.974  38.806  11.094
94131W        W66457  44.710  20.958  11.955
94132W        W66458  13.894  41.283  11.704
94133W        W66459   2.845   3.765  11.163
94134W        W66460  36.512   3.215   0.763
94135W        W66461  24.221   0.891  13.484
94136W        W66462   0.596  16.399   2.381
94137W        W66463  22.508   7.919   1.695
94138W        W66464  13.431  36.447   1.241
94139W        W66465  19.071  26.788   0.664
94140W        W66466   8.423  14.368   4.902
94141W        W66467  19.220   1.289  12.354
94142W        W66468  18.134  36.333  14.977
94143W        W66469  33.981  19.529  11.942
94144W        W66470  14.620  26.679   0.811
94145W        W66471  10.080  44.287  13.259
94146W        W66472  43.398  23.464   1.256
94147W        W66473   5.844   6.169   4.128
94148W        W66474  32.090  44.468  10.490
94149W        W66475  17.775  16.257   2.267
94150W        W66476   5.959   3.728   2.371
94151W        W66477  29.638  40.137   1.368
94152W        W66478   7.240  15.301  14.257
94153W        W66479  21.833  41.533   2.234
94154W        W66480  10.459  22.817  11.097
94155W        W66481  25.968  35.288   4.598
94156W        W66482  33.505   3.348   4.488
94157W        W66483  28.660  24.975   0.144
94158W        W66484   2.771  12.580   4.641
94159W        W66485  23.595  27.618   0.719
94160W        W66486  30.402  13.399  11.639
94161W        W66487  11.808  18.589  12.866
94162W        W66488  34.932  43.744   4.503
94163W        W66489  15.695  24.147   3.401
94164W        W66490  39.906  22.545   4.915
94165W        W66491  17.222   7.079  11.898
94166W        W66492  27.271  14.928  12.529
94167W        W66493   1.873  12.647   4.131
94168W        W66494  11.134  19.974  11.508
94169W        W66495  26.247  14.888   3.763
94170W        W66496   2.980  27.920  13.061
94171W        W66497  15.844  40.642  14.514
94172W        W66498  22.474  15.680   2.165
94173W        W66499  43.302   3.875  13.385
94174W        W66500  14.203  41.516  10.270
94175W        W66501  21.067   7.671  11.585
94176W        W66502  13.817  44.115  11.596
94177W        W66503  15.361  34.526  14.536
94178W        W66504  42.423  21.710  10.577
94179W        W66505  30.599  37.455   3.216
94180W        W66506  32.481   5.181  12.141
94181W        W66507  43.793  35.571  14.208
94182W        W66508   8.326  34.907  10.427
94183W        W66509   9.747  13.280   4.360
94184W        W66510  28.554  28.249  10.984
94185W        W66511  40.828  40.310  11.217
94186W        W66512  10.640  17.114  11.512
94187W        W66513  26.131   0.484   4.710
94188W        W66514  15.783  11.815  11.618
94189W        W66515   2.770  20.434   0.838
94190W        W66516  30.540   4.387  11.430
94191W        W66517   9.208   5.303  10.416
94192W        W66518  41.832  11.284  11.939
94193W        W66519  39.712  44.173  12.436
94194W        W66520  14.966  43.304   0.918
94195W        W66521  40.332   3.869   4.085
94196W        W66522  14.872   9.149   3.415
94197W        W66523  25.268  39.977  14.013
94198W        W66524  16.315  17.999   4.127
94199W        W66525  27.052  26.644   0.342
94200W        W66526  36.568  21.554   0.459
94201W        W66527   1.671  37.222   4.835
94202W        W66528  33.038  30.402  13.971
94203W        W66529  23.710  41.414   5.003
94204W        W66530  10.896  20.602  13.481
94205W        W66531   6.796  22.456   0.265
94206W        W66532  17.766  32.093   1.790
94207W        W66533  13.973  15.086   4.500
94208W        W66534   1.771  36.341  13.845
94209W        W66535  16.291  20.106   2.334
94210W        W66536  12.735  32.812  12.894
94211W        W66537  43.391  35.562   3.876
94212W        W66538  12.611  44.503   0.835
94213W        W66539  41.838  27.461  14.453
94214W        W66540  23.017  12.587  12.076
94215W        W66541  36.064  17.995   4.059
94216W        W66542  31.118  41.402   0.190
94217W        W66543   1.821  28.485   1.357
94218W        W66544  16.109  36.320   1.313
94219W        W66545  21.505   2.013  13.906
94220W        W66546  13.418  44.395  11.881
94221W        W66547  35.221  31.887  14.660
94222W        W66548  21.760  17.394   9.826
94223W        W66549  44.794  29.973   0.887
94224W        W66550   0.571  41.866   4.157
94225W        W66551  41.254  29.601   2.380
94226W        W66552  34.401   0.283  13.404
94227W        W66553  44.063  34.293  11.829
94228W        W66554  23.516  44.449  12.380
94229W        W66555  24.444  10.371   0.834
94230W        W66556  42.761  14.365   4.087
94231W        W66557  38.646   4.008   1.942
94232W        W66558  26.962   8.353   0.213
94233W        W66559  19.104   0.055  11.867
94234W        W66560  31.850   8.855   1.327
94235W        W66561   4.724  19.148  11.142
94236W        W66562   0.979   0.135   3.169
94237W        W66563   7.351   9.792   0.333
94238W        W66564  14.603  19.631   2.692
94239W        W66565  16.782  44.636  14.855
94240W        W66566  29.655  15.843   3.803
94241W        W66567   3.010   9.216   2.928
94242W        W66568  19.392  22.265  14.821
94243W        W66569  31.006  35.698  10.755
94244W        W66570  20.746  22.175   1.888
94245W        W66571  15.012   1.457  10.814
94246W        W66572  37.061  26.245   4.165
94247W        W66573  21.016  22.056   2.305
94248W        W66574  25.900  21.720  14.480
94249W        W66575   6.958   9.270  11.565
94250W        W66576  34.079  22.228   1.819
94251W        W66577  37.874  14.324  11.970
94252W        W66578  35.575  12.291  13.841
94253W        W66579  18.800  22.491   3.782
94254W        W66580   6.444   6.675   0.862
94255W        W66581  44.248  17.149   2.253
94256W        W66582  10.926  44.537  13.544
94257W        W66583  24.574  28.668  13.400
94258W        W66584  28.044   4.228  14.866
94259W        W66585  40.525  10.442   1.846
94260W        W66586  26.873  25.085  13.860
94261W        W66587  28.814   9.379   1.810
94262W        W66588  29.579  40.077  14.609
94263W        W66589  31.946   9.179   2.810
94264W        W66590  23.211  19.268  14.824
94265W        W66591  37.004   3.741   1.784
94266W        W66592  18.581  10.198   2.404
94267W        W66593  41.831  38.984   0.009
94268W        W66594  44.348  30.182   3.091
94269W        W66595  44.930  42.846  13.779
94270W        W66596  40.240   5.841   1.297
94271W        W66597  10.814  21.091  10.765
94272W        W66598   1.988  42.111   1.469
94273W        W66599  34.381  10.120   3.227
94274W        W66600  13.030   8.851  14.795
94275W        W66601  33.952   0.472   1.060
94276W        W66602   6.735   8.685  12.875
94277W        W66603  24.450  19.455   2.545
94278W        W66604  36.472  37.431   2.682
94279W        W66605  32.132  12.972  10.297
94280W        W66606  35.432  33.296  11.066
94281W        W66607   3.640  43.536   4.726
94282W        W66608  39.815   1.957   3.694
94283W        W66609   2.132  21.913   2.866
94284W        W66610   3.130  43.220  12.530
94285W        W66611  41.242  40.113  13.608
94286W        W66612  30.618  36.029   2.627
94287W        W66613  22.479  43.980   4.735
94288W        W66614  40.825  34.870   0.974
94289W        W66615  44.737  16.187  10.710
94290W        W66616  11.632  31.647  10.794
94291W        W66617  12.112   6.757   0.982
94292W        W66618  14.684   0.984   3.859
94293W        W66619  29.983  36.390   3.824
94294W        W66620  43.440  29.677   0.499
94295W        W66621  13.220  43.081  14.467
94296W        W66622  27.102  29.380  11.174
94297W        W66623  17.086   8.865   3.700
94298W        W66624  37.591  30.459  10.669
94299W        W66625  36.789  20.791   2.813
94300W        W66626   9.568  36.268   2.317
94301W        W66627  18.952  12.914  11.788
94302W        W66628  28.101   4.757   1.774
94303W        W66629  23.201  27.621  14.907
94304W        W66630  24.168  37.667  11.140
94305W        W66631  35.819  29.460  11.178
94306W        W66632  27.259  38.389   2.387
94307W        W66633  14.994  36.444   1.322
94308W        W66634  27.572  18.697   4.840
94309W        W66635  32.074   7.319   0.914
94310W        W66636   8.279  22.314   3.140
94311W        W66637   9.302  20.274   3.539
94312W        W66638  31.877  26.013   3.264
94313W        W66639  44.818  35.665  11.334
94314W        W66640   0.008  42.846   1.440
94315W        W66641   2.461  13.633   4.810
94316W        W66642  17.497  26.669   2.435
94317W        W66643  20.522   2.130   1.872
94318W        W66644   0.423  43.942  10.591
94319W        W66645   6.918  21.160   1.810
94320W        W66646  17.418  28.605   4.395
94321W        W66647  15.707   8.813   0.680
94322W        W66648  39.425  21.006  13.161
94323W        W66649  30.937  42.744   5.088
94324W        W66650  20.148   7.142   1.830
94325W        W66651  38.113   8.716   1.401
94326W        W66652  28.477  29.583   0.626
94327W        W66653  14.228  28.053   2.816
94328W        W66654  37.112   7.418  11.524
94329W        W66655  20.938  38.924  13.844
94330W        W66656   7.289  41.549   0.940
94331W        W66657  27.514   3.946  11.486
94332W        W66658  37.584   8.622   1.418
94333W        W66659  15.146  19.876  14.492
94334W        W66660  17.152  43.047   2.191
94335W        W66661  41.674  28.513  11.624
94336W        W66662  22.232  20.984   3.358
94337W        W66663  18.763  12.448   1.762
94338W        W66664  15.770  10.824   4.704
94339W        W66665  34.626  10.792  13.784
94340W        W66666  44.089   1.013  12.597
94341W        W66667  27.969  39.881   2.894
94342W        W66668  31.425  31.637   1.920
94343W        W66669  21.119   9.060  13.618
94344W        W66670  41.877  21.018  11.743
94345W        W66671  38.273  20.600  12.613
94346W        W66672  20.355  43.215   5.184
94347W        W66673  32.244  29.665  10.726
94348W        W66674   6.919   9.142  14.932
94349W        W66675  33.588  19.177   4.656
94350W        W66676  20.705   6.869  10.540
94351W        W66677  39.043  21.264   3.545
94352W        W66678  36.533   8.944   2.404
94353W        W66679   7.011  39.082  14.510
94354W        W66680  26.609   4.338   4.557
94355W        W66681  20.073  29.712  13.816
94356W        W66682  26.724  44.480  10.457
94357W        W66683  11.088   5.698  11.452
94358W        W66684  30.468  16.567   4.199
94359W        W66685   2.239  13.690   0.335
94360W        W66686  32.932   6.580   4.179
94361W        W66687  28.086  37.115  14.754
94362W        W66688   6.774   1.647   0.877
94363W        W66689   8.361  25.893   0.306
94364W        W66690  19.667  33.593  14.721
94365W        W66691  37.906  36.032  12.518
94366W        W66692  40.167  11.119   4.966
94367W        W66693   5.188  36.632   3.605
94368W        W66694   6.847   9.755   0.353
94369W        W66695  43.365  25.072   2.283
94370W        W66696   3.434  26.390  11.940
94371W        W66697  35.572  31.069  12.627
94372W        W66698  21.519  10.795  10.880
94373W        W66699  41.538  41.962   3.409
94374W        W66700  40.453  26.962   4.124
94375W        W66701  13.636  23.779  11.946
94376W        W66702  33.405   2.862  14.325
94377W        W66703  10.248   3.825   0.617
94378W        W66704  27.872  11.236   4.079
94379W        W66705   5.445  18.241   2.923
94380W        W66706  43.378  27.669   0.568
94381W        W66707  10.431   1.301  14.276
94382W        W66708  38.429   1.128   1.444
94383W        W66709   0.362   1.195  12.414
94384W        W66710  11.629  29.649  14.417
94385W        W66711  15.642  12.840   0.207
94386W        W66712  19.033  21.310  14.909
94387W        W66713   4.274   2.206   3.312
94388W        W66714  30.605   6.163  13.932
94389W        W66715  19.601  21.100  13.809
94390W        W66716  28.692   5.659  14.336
94391W        W66717  39.170  35.659  13.046
94392W        W66718  16.229  13.797  12.447
94393W        W66719  13.608   4.885   2.776
94394W        W66720   7.351  22.488   2.654
94395W        W66721  42.890  33.928  12.690
94396W        W66722   7.078  33.057   4.515
94397W        W66723  16.743  42.768   2.386
94398W        W66724   8.939  10.783  14.475
94399W        W66725  34.130   6.766   2.700
94400W        W66726  13.330  32.045   2.722
94401W        W66727  22.714  13.308  11.657
94402W        W66728  17.914  30.205  13.673
94403W        W66729  41.761  12.653  13.587
94404W        W66730  44.780  36.943   2.253
94405W        W66731  28.232  41.372   2.857
94406W        W66732  19.279  12.970  13.864
94407W        W66733  21.247  23.867   3.486
94408W        W66734   1.036   5.935  14.039
94409W        W66735  41.446   1.054   3.571
94410W        W66736   8.749  29.172   0.362
94411W        W66737  24.037   2.903   2.380
94412W        W66738   0.776   8.296   3.305
94413W        W66739  30.311  13.612   3.531
94414W        W66740  10.355   6.320  11.643
94415W        W66741   5.096  39.379  12.527
94416W        W66742  35.349  34.355   4.179
94417W        W66743  43.954  25.472   0.792
94418W        W66744   3.791   1.992   0.152
94419W        W66745  38.413  22.158  11.952
94420W        W66746  15.030   7.688  12.964
94421W        W66747  22.184  16.849   0.395
94422W        W66748  44.510  10.214   4.105
94423W        W66749  11.733   2.440   3.825
94424W        W66750  12.641  14.357  13.818
94425W        W66751  12.841  43.411  11.187
94426W        W66752   0.152   6.898   3.839
94427W        W66753   5.634  33.658  13.466
94428W        W66754  42.732   0.898   0.146
94429W        W66755  43.207  15.467  14.583
94430W        W66756  27.053  28.100  13.942
94431W        W66757  11.821  17.644  14.171
94432W        W66758  44.820  11.824   4.921
94433W        W66759   7.818  42.773   2.249
94434W        W66760  25.962  31.035  13.792
94435W        W66761  36.083  13.418  10.143
94436W        W66762  19.124  44.833  12.855
94437W        W66763  24.037  15.104   4.489
94438W        W66764  32.256  23.533  10.635
94439W        W66765  40.058  41.000  14.019
94440W        W66766  24.490  17.126  12.509
94441W        W66767  27.985  36.475   2.287
94442W        W66768  21.503  31.654   1.157
94443W        W66769  44.589  37.490   5.093
94444W        W66770   1.476   7.576  13.540
94445W        W66771   8.133  16.869  10.853
94446W        W66772   1.238  28.573  14.291
94447W        W66773  38.438  42.260  13.008
94448W        W66774  25.512  19.812  11.065
94449W        W66775  32.359  28.095  13.359
94450W        W66776   4.581  44.244   1.326
94451W        W66777  11.088   7.873   4.625
94452W        W66778   7.204  43.277   0.699
94453W        W66779  37.594  34.783  13.854
94454W        W66780  18.993   0.944   2.450
94455W        W66781  43.566   4.192  10.900
94456W        W66782   7.147   4.289   2.684
94457W        W66783   8.107  34.790  11.424
94458W        W66784  13.645  30.542  14.918
94459W        W66785  12.293  13.012  10.909
94460W        W66786  15.607  44.972  11.973
94461W        W66787   6.676   2.031  10.608
94462W        W66788  14.868  36.688   1.848
94463W        W66789   0.699  17.728  11.131
94464W        W66790   3.263  34.783   1.078
94465W        W66791   0.833  31.849   0.961
94466W        W66792  37.748  40.976  11.588
94467W        W66793  21.366  18.538  13.511
94468W        W66794  44.858  43.242   4.178
94469W        W66795  34.325  30.484  13.212
94470W        W66796  11.340   7.169  12.739
94471W        W66797   2.905  41.053  14.829
94472W        W66798   2.463  15.746  12.472
94473W        W66799   5.228  25.666   1.105
94474W        W66800  42.080  21.424   4.172
94475W        W66801   2.440  12.886   1.394
94476W        W66802  24.250  19.303   1.941
94477W        W66803  36.645  10.681   1.969
94478W        W66804  14.834  20.980   4.581
94479W        W66805  18.428  26.925  13.815
94480W        W66806  20.091   3.827   3.708
94481W        W66807   0.445  28.885  14.391
94482W        W66808  16.055   0.062   1.356
94483W        W66809  23.704   9.656   3.389
94484W        W66810   3.963  33.638  11.613
94485W        W66811  31.708  18.921   0.681
94486W        W66812   9.942  28.652   3.406
94487W        W66813  36.910  29.356   3.151
94488W        W66814  31.017  16.618  12.676
94489W        W66815  27.635  37.378   3.278
94490W        W66816  37.376   4.030  13.303
94491W        W66817  14.270  12.035  13.588
94492W        W66818  16.835   5.322   0.842
94493W        W66819   3.774  20.920   0.722
94494W        W66820  38.331  14.292  12.949
94495W        W66821  43.007  27.983   4.365
94496W        W66822  26.902   9.692  14.047
94497W        W66823  21.179  10.756  14.981
94498W        W66824  21.878  32.961   2.838
94499W        W66825  20.803   4.107   4.280
94500W        W66826  44.227  31.123  14.976
94501W        W66827  44.498  34.496   1.202
94502W        W66828  40.156  35.528  13.027
94503W        W66829  21.298  38.797   1.217
94504W        W66830   2.001  32.131   2.822
94505W        W66831  23.801  22.653  13.158
94506W        W66832  36.331  20.163   1.381
94507W        W66833  27.020   5.882   2.906
94508W        W66834  27.288  37.800   0.504
94509W        W66835  12.109  15.813  14.411
94510W        W66836  25.542  33.760   2.325
94511W        W66837   4.416  27.694   0.508
94512W        W66838  14.513  23.166   4.149
94513W        W66839  23.330  22.771  10.751
94514W        W66840  44.516  15.579  14.392
94515W        W66841  11.481  14.409  13.282
94516W        W66842   0.512  20.129   3.174
94517W        W66843  31.503  36.834   0.867
94518W        W66844  12.609  41.815  13.407
94519W        W66845  41.493  37.440  11.583
94520W        W66846   0.405  29.545  11.009
94521W        W66847   1.333  37.746  12.058
94522W        W66848  29.579  24.837   0.429
94523W        W66849  12.808  32.989  10.625
94524W        W66850  25.056  18.172  10.340
94525W        W66851   4.411  22.217  11.595
94526W        W66852  17.081  27.565  12.178
94527W        W66853  36.927  26.468   4.655
94528W        W66854  39.427  15.228   0.984
94529W        W66855   7.923  40.246   3.631
94530W        W66856   7.440  17.674   1.401
94531W        W66857   4.212   6.237  11.452
94532W        W66858  16.506  42.927  10.064
94533W        W66859  14.057  21.943   1.727
94534W        W66860  26.693  18.987  11.099
94535W        W66861  20.158  35.453  10.648
94536W        W66862  28.592   6.370  13.918
94537W        W66863  12.114  25.164   4.680
94538W        W66864  33.617  13.431   2.596
94539W        W66865  14.290  44.403   3.427
94540W        W66866  19.266  43.352  13.252
94541W        W66867  18.315  20.591  12.487
94542W        W66868  43.278  38.972   1.165
94543W        W66869  41.097  29.147  14.277
94544W        W66870  21.046   5.263  13.568
94545W        W66871  19.729   9.880  11.978
94546W        W66872  30.571  23.248  10.883
94547W        W66873  35.367  13.195  12.903
94548W        W66874  43.578  44.646  10.898
94549W        W66875  30.122  38.946  11.090
94550W        W66876   0.419  21.267   4.913
94551W        W66877  18.718   2.027   0.990
94552W        W66878   4.778   8.820  14.230
94553W        W66879  25.864  21.187  14.502
94554W        W66880  39.495  18.108   2.290
94555W        W66881  40.578  20.535   3.916
94556W        W66882  26.090  44.305  13.226
94557W        W66883  19.810  16.013  13.322
94558W        W66884   0.812   7.979  10.778
94559W        W66885  17.561   3.192  13.396
94560W        W66886   9.398  38.934   4.897
94561W        W66887   7.164   0.628  13.724
94562W        W66888  28.193  17.764   1.239
94563W        W66889  27.816  19.951  11.179
94564W        W66890  12.664  38.577  13.916
94565W        W66891  23.060  24.009  10.651
94566W        W66892  35.925  43.500   1.834
94567W        W66893  26.095  43.920   1.936
94568W        W66894  17.867  31.416   2.168
94569W        W66895  42.015   8.308   0.775
94570W        W66896  23.354  18.284  11.962
94571W        W66897  23.918  15.051  10.047
94572W        W66898  15.528  10.769   2.867
94573W        W66899  32.117   1.834   3.047
94574W        W66900  18.702  15.711   0.434
94575W        W66901  42.893  42.019  11.579
94576W        W66902  30.717  15.672   2.456
94577W        W66903  19.821   0.869  10.671
94578W        W66904  32.035  29.429   3.887
94579W        W66905  34.257   0.877   1.193
94580W        W66906  35.996  31.642   0.811
94581W        W66907  40.032  12.055   0.322
94582W        W66908  34.548   1.128   1.941
94583W        W66909  26.686  34.178  14.035
94584W        W66910  30.504  13.352   1.520
94585W        W66911  32.694  43.054   2.164
94586W        W66912  39.109   1.955  10.255
94587W        W66913   3.236  11.685  14.885
94588W        W66914  29.953   0.658   0.258
94589W        W66915  15.606  42.841  12.402
94590W        W66916  26.878  33.229  14.898
94591W        W66917   8.863  25.523   4.625
94592W        W66918  12.841  31.859   0.934
94593W        W66919   2.256   2.247   4.864
94594W        W66920  33.959   1.701   4.893
94595W        W66921  42.213  23.686   2.596
94596W        W66922  43.257  32.067   0.230
94597W        W66923   9.618  33.021  14.898
94598W        W66924  38.550   3.255  11.069
94599W        W66925  41.577  38.620  10.631
94600W        W66926  25.182  26.656  12.012
94601W        W66927  22.110  13.321   2.740
94602W        W66928   1.474  26.477  14.367
94603W        W66929   8.868  21.199   3.144
94604W        W66930  10.430  29.998  10.491
94605W        W66931  22.489  35.309   2.613
94606W        W66932  43.043   3.373   1.268
94607W        W66933   0.397  28.078   0.964
94608W        W66934  28.101   9.244   3.140
94609W        W66935   5.483  14.383  13.843
94610W        W66936  26.959   0.673  12.047
94611W        W66937  19.220   7.133  10.735
94612W        W66938  40.518  22.814   4.206
94613W        W66939  26.583  26.903   2.291
94614W        W66940  22.913  36.426   0.684
94615W        W66941  39.955  39.408  12.328
94616W        W66942  17.530  36.385   4.158
94617W        W66943  11.720  43.042  10.087
94618W        W66944  26.514  22.353  13.276
94619W        W66945   7.790  18.395   4.592
94620W        W66946  12.284  25.452   3.720
94621W        W66947  22.401   1.496   0.758
94622W        W66948  11.325  21.002  11.507
94623W        W66949  32.897  11.411  11.548
94624W        W66950  35.082  25.023  13.435
94625W        W66951  27.500   7.897   0.441
94626W        W66952  40.278   7.682   2.143
94627W        W66953   7.722  18.237  12.040
94628W        W66954  37.037  32.589   2.167
94629W        W66955   6.339   0.054  13.122
94630W        W66956  28.102  25.511   0.892
94631W        W66957   8.432   6.245  14.721
94632W        W66958  34.711  34.574  12.552
94633W        W66959  22.050  32.942   4.598
94634W        W66960  15.740   9.835  12.566
94635W        W66961  41.414  38.278  11.999
94636W        W66962  10.369  37.508   2.346
94637W        W66963  41.739   2.934   2.629
94638W        W66964  11.125   4.313   2.177
94639W        W66965   3.343  13.644  12.656
94640W        W66966   3.817   7.199   2.451
94641W        W66967  16.685   8.386  13.552
94642W        W66968  20.171  13.400   1.611
94643W        W66969  23.069  30.542   1.315
94644W        W66970   4.448  35.930  10.693
94645W        W66971   0.858  21.529   2.897
94646W        W66972  39.897  15.084  12.519
94647W        W66973   0.799  41.002  13.139
94648W        W66974   0.247  29.831   4.468
94649W        W66975  14.090  42.478  11.915
94650W        W66976   2.063  10.728   0.820
94651W        W66977  30.291  40.525  13.974
94652W        W66978   7.594  19.660  10.589
94653W        W66979   1.308  24.419  10.629
94654W        W66980  19.212  42.801  10.535
94655W        W66981  26.716   1.004  12.384
94656W        W66982  17.526  27.705   3.282
94657W        W66983   6.189  14.835  14.080
94658W        W66984  11.508  37.893   4.318
94659W        W66985  12.705  26.124   1.651
94660W        W66986   3.617  15.750   3.355
94661W        W66987  37.856   1.410  14.931
94662W        W66988  16.988  34.093   2.408
94663W        W66989  42.191  43.065   2.604
94664W        W66990   4.880  23.700   3.063
94665W        W66991  24.943  42.084   1.909
94666W        W66992  17.314  36.650  10.758
94667W        W66993  29.815  39.896   3.194
94668W        W66994  21.523  27.995   4.169
94669W        W66995   4.977  12.369   1.942
94670W        W66996  28.598  37.761  12.768
94671W        W66997  35.495  13.227  11.403
94672W        W66998  35.893  18.161  11.216
94673W        W66999  39.943  13.107  13.552
94674W        W67000  17.823  27.553   1.841
94675W        W67001   4.377   1.277  11.926
94676W        W67002  32.988  16.858  12.455
94677W        W67003  44.407  42.732  14.021
94678W        W67004  13.367  37.861  13.061
94679W        W67005  10.866  17.640   2.126
94680W        W67006  17.571  27.187   4.260
94681W        W67007  23.526  41.393  12.055
94682W        W67008  23.813  25.810  14.380
94683W        W67009  24.561  30.586   2.334
94684W        W67010  20.241  32.647  13.510
94685W        W67011  10.344  42.076  14.432
94686W        W67012  29.544  37.552   4.030
94687W        W67013  10.284  32.583   4.205
94688W        W67014  41.846  12.559   0.015
94689W        W67015  40.342  34.266   4.022
94690W        W67016  36.622  15.637   3.867
94691W        W67017   6.840   9.711  13.115
94692W        W67018  43.884  22.404   4.776
94693W        W67019  12.024  30.012   0.884
94694W        W67020  24.107  41.864  11.555
94695W        W67021  29.521  23.599   3.232
94696W        W67022  14.207  32.878  14.915
94697W        W67023  22.575  21.540  12.489
94698W        W67024  43.238   8.378  13.502
94699W        W67025  31.553  19.126   0.041
94700W        W67026  20.923   3.684   3.522
94701W        W67027  43.371  13.566  10.898
94702W        W67028  13.274  41.036   1.769
94703W        W67029   8.121   1.592   4.486
94704W        W67030  35.625  35.613  10.481
94705W        W67031   2.147  17.556   1.672
94706W        W67032  20.686  16.530  13.539
94707W        W67033   3.342  21.957  12.802
94708W        W67034  24.548   4.529  12.896
94709W        W67035  17.304  12.787  11.871
94710W        W67036  26.333   6.363  14.360
94711W        W67037   3.863  22.319  14.463
94712W        W67038  42.344  39.430   1.899
94713W        W67039  39.426   5.482   2.004
94714W        W67040  24.251  12.487  11.514
94715W        W67041  16.824  25.743  12.385
94716W        W67042   4.830  38.206   1.129
94717W        W67043  44.749  24.268   3.183
94718W        W67044  13.610  22.251   4.151
94719W        W67045  14.449   2.800   1.405
94720W        W67046  36.322   5.913   2.315
94721W        W67047  16.164  23.811  14.365
94722W        W67048  26.249  44.802   1.252
94723W        W67049  38.498  35.643  13.650
94724W        W67050  27.869  19.174  12.434
94725W        W67051   7.432  12.124   0.793
94726W        W67052  32.593  44.546  11.220
94727W        W67053  39.593  26.439   2.376
94728W        W67054  19.028  28.527  11.103
94729W        W67055  38.833   6.179  14.729
94730W        W67056   9.945   8.653   4.864
94731W        W67057   8.332  23.599   0.819
94732W        W67058  40.553  42.769   0.408
94733W        W67059   4.666   8.268  12.267
94734W        W67060   6.157  35.610   4.924
94735W        W67061  17.065  36.170  12.748
94736W        W67062  41.905  35.203   1.474
94737W        W67063  15.295  27.108  13.557
94738W        W67064  27.504  30.473  13.311
94739W        W67065  43.679  25.388  13.893
94740W        W67066  21.118  18.823  11.716
94741W        W67067  13.582  24.444   2.203
94742W        W67068  19.255  30.501   4.436
94743W        W67069  42.052  16.119   2.419
94744W        W67070  32.568  39.321   3.791
94745W        W67071  28.288  28.066   2.768
94746W        W67072  43.306  33.551  11.107
94747W        W67073  11.775  28.415  13.980
94748W        W67074  35.928  44.253  12.770
94749W        W67075  13.439   3.319   4.060
94750W        W67076  15.261  33.528  13.490
94751W        W67077   0.330  33.058   4.578
94752W        W67078  35.323  36.978  14.324
94753W        W67079   6.891  29.071  14.793
94754W        W67080  23.978  22.956   0.807
94755W        W67081   1.183  26.913  14.345
94756W        W67082  11.062  11.682   4.596
94757W        W67083  28.780   9.934   0.944
94758W        W67084  39.480  25.755  12.833
94759W        W67085  19.487  32.467  13.335
94760W        W67086  30.752  31.944   2.988
94761W        W67087   5.190  25.413   2.525
94762W        W67088   7.391  25.040   1.788
94763W        W67089  20.328  37.450   0.300
94764W        W67090  27.434   8.425  13.901
94765W        W67091  26.125  31.616  13.084
94766W        W67092   4.215  37.606   1.837
94767W        W67093  18.931  26.487  14.462
94768W        W67094  17.680  19.035   1.534
94769W        W67095  22.592  23.138   3.755
94770W        W67096   6.995   9.074   2.746
94771W        W67097  32.942   5.859   3.484
94772W        W67098  34.087  22.158  13.068
94773W        W67099  20.247   3.406  10.433
94774W        W67100  25.837  33.589  12.868
94775W        W67101   0.470   3.431   1.173
94776W        W67102  24.011   7.390   0.437
94777W        W67103  22.647  25.713  10.577
94778W        W67104  15.759  44.544   0.843
94779W        W67105  35.993  17.290   4.511
94780W        W67106   9.498  37.706  10.885
94781W        W67107   9.164  26.673  12.145
94782W        W67108  37.166  17.164  12.991
94783W        W67109  10.944  33.002   3.801
94784W        W67110  33.652   0.939  13.003
94785W        W67111  19.284  15.127   1.773
94786W        W67112  31.277   7.538   4.190
94787W        W67113  32.548  29.321   2.953
94788W        W67114  17.298  17.039   2.992
94789W        W67115  13.997  32.353   4.634
94790W        W67116  32.830  21.256   3.017
94791W        W67117  15.063  44.686   4.082
94792W        W67118  39.363  38.066  14.921
94793W        W67119  26.746  36.058  14.888
94794W        W67120  14.181  18.058   4.203
94795W        W67121   0.100  40.404  13.374
94796W        W67122  37.392   8.607   2.926
94797W        W67123  43.621  34.818   3.481
94798W        W67124  28.075   2.830   3.658
94799W        W67125  38.398  14.307   0.416
94800W        W67126  18.620  21.447   2.423
94801W        W67127  19.782  34.488  14.969
94802W        W67128  34.640  41.532  11.670
94803W        W67129  17.633  35.325  14.374
94804W        W67130  30.962  18.938  12.477
94805W        W67131   2.671  30.645   0.133
94806W        W67132  26.467  31.448   3.659
94807W        W67133  13.295  14.125  13.186
94808W        W67134  12.609  33.649   2.382
94809W        W67135  35.853  31.503  12.533
94810W        W67136  33.605  30.452   2.391
94811W        W67137  18.719   2.994   3.438
94812W        W67138  32.833  10.898  11.535
94813W        W67139   3.452  15.549  13.486
94814W        W67140  43.429  10.292   1.534
94815W        W67141  30.943  42.306   2.729
94816W        W67142  22.935  38.735   1.725
94817W        W67143  22.553   1.145   3.861
94818W        W67144  28.570  30.333  11.044
94819W        W67145   2.258  30.910   3.833
94820W        W67146  39.803  23.180  13.688
94821W        W67147  35.553   1.925   4.883
94822W        W67148  20.966  36.087   0.872
94823W        W67149  36.066  19.216   2.674
94824W        W67150  10.445   8.757  12.013
94825W        W67151  20.680  19.561  10.875
94826W        W67152  32.066  18.302   2.396
94827W        W67153  14.615  23.194   0.459
94828W        W67154  27.142  15.577   1.347
94829W        W67155  32.649  40.234  11.560
94830W        W67156  33.328  21.658   4.382
94831W        W67157  30.899  18.466  13.331
94832W        W67158  37.319  35.800  11.675
94833W        W67159  15.309  13.802  13.782
94834W        W67160  10.124  21.697  14.223
94835W        W67161  10.939  19.005   2.086
94836W        W67162  18.910   3.139  13.518
94837W        W67163   7.968  29.082  14.933
94838W        W67164  18.315  23.153  10.768
94839W        W67165   3.282   3.288   2.130
94840W        W67166  33.974   3.656   1.652
94841W        W67167  18.490  40.894  14.369
94842W        W67168  30.258  10.737   4.304
94843W        W67169   0.333  27.395  12.561
94844W        W67170  40.398  27.681   1.726
94845W        W67171  31.197  23.261   0.514
94846W        W67172  11.295   2.982   0.526
94847W        W67173  13.875   2.440  10.660
94848W        W67174  33.449  32.138  10.713
94849W        W67175  11.856  41.444   1.833
94850W        W67176  10.563   5.293   2.175
94851W        W67177  16.334  10.565  12.432
94852W        W67178  41.553  10.090   3.685
94853W        W67179  31.246  11.781  13.075
94854W        W67180  39.285  36.616  10.024
94855W        W67181  13.751  17.065   2.394
94856W        W67182   1.515  22.099  12.370
94857W        W67183   7.703   3.938   0.439
94858W        W67184  11.376  32.470  12.709
94859W        W67185  24.771   0.910  12.569
94860W        W67186  10.365   5.876   4.975
94861W        W67187  35.662  31.639   4.728
94862W        W67188  21.237  37.695   4.566
94863W        W67189  13.239  14.097   3.109
94864W        W67190  20.113  21.049   0.925
94865W        W67191  35.382  33.073   0.825
94866W        W67192  28.076  10.844   2.229
94867W        W67193  40.253  39.814  12.528
94868W        W67194   7.194  42.051  14.332
94869W        W67195   5.817  12.656   1.364
94870W        W67196  26.917  41.966  14.949
94871W        W67197  32.567  30.468   2.479
94872W        W67198   7.738  29.548   4.903
94873W        W67199  34.972  23.991   4.911
94874W        W67200   7.674   3.006   2.756
94875W        W67201  20.688  35.625  11.374
94876W        W67202  21.597   5.944   1.804
94877W        W67203  42.797  20.069   1.840
94878W        W67204  35.567  15.552   3.745
94879W        W67205  11.390  20.156   0.956
94880W        W67206   5.259  12.875  13.874
94881W        W67207   8.054   4.642  13.449
94882W        W67208  24.364  26.586   5.026
94883W        W67209  24.068  32.383   2.754
94884W        W67210  28.712   2.401  14.903
94885W        W67211  40.052  10.065  10.794
94886W        W67212  16.020  43.393  14.047
94887W        W67213  37.204   8.441   0.300
94888W        W67214   7.907  19.740  12.484
94889W        W67215  29.158  28.519  13.882
94890W        W67216  11.364  12.817   0.391
94891W        W67217   1.734  39.754   0.988
94892W        W67218  27.937  22.659  13.438
94893W        W67219  25.778   0.771   1.728
94894W        W67220  10.788  18.596  12.944
94895W        W67221   0.273  20.037   0.298
94896W        W67222  36.556   0.440  12.377
94897W        W67223  25.222  31.533  12.122
94898W        W67224  22.662  31.688   3.668
94899W        W67225   7.907  28.045   4.593
94900W        W67226  11.767   2.914  14.550
94901W        W67227   9.213  21.124  13.541
94902W        W67228  38.507   9.200  12.009
94903W        W67229  18.155   7.166  10.828
94904W        W67230  36.614  25.229  11.075
94905W        W67231  15.198  39.880  14.572
94906W        W67232  14.131  16.068   4.544
94907W        W67233  21.021  25.148  10.604
94908W        W67234  44.447  17.779  10.667
94909W        W67235   2.254  16.970   4.967
94910W        W67236  24.244  36.375   4.518
94911W        W67237  41.369   5.536   1.869
94912W        W67238   5.645  26.474  10.640
94913W        W67239   9.329   1.828   4.128
94914W        W67240   9.235  11.656  12.425
94915W        W67241  38.960  42.792  11.095
94916W        W67242  21.131  43.051  12.894
94917W        W67243  30.437  26.120   0.310
94918W        W67244  25.029  32.436  11.633
94919W        W67245  35.608  12.155  10.270
94920W        W67246  10.047  37.106  11.195
94921W        W67247  10.901  31.464  14.887
94922W        W67248  30.737  22.138  14.962
94923W        W67249  44.671   1.765  10.669
94924W        W67250   4.234  36.576   1.863
94925W        W67251  38.862   4.367  14.995
94926W        W67252  41.851  20.741   0.085
94927W        W67253  31.500   9.238  10.602
94928W        W67254  17.866  16.631  12.488
94929W        W67255  14.681  35.353   4.967
94930W        W67256  14.580  10.786   3.732
94931W        W67257  22.008  44.803  11.185
94932W        W67258  13.359  14.728   1.410
94933W        W67259  24.085  19.770   2.801
94934W        W67260  29.936   1.750  13.826
94935W        W67261   3.134  31.150   1.890
94936W        W67262  26.022   0.367  14.230
94937W        W67263  29.951   1.710   3.003
94938W        W67264  36.591   8.285  13.512
94939W        W67265  19.990   9.369   2.641
94940W        W67266  37.818  27.106   0.869
94941W        W67267  43.161  43.904  13.861
94942W        W67268   7.937  16.504  11.601
94943W        W67269   7.924   2.138  14.343
94944W        W67270   5.675  26.987   3.558
94945W        W67271  17.628  22.614  13.148
94946W        W67272  42.857  30.144   3.707
94947W        W67273  32.587  44.839  12.549
94948W        W67274  17.930  28.880   2.740
94949W        W67275   9.638  12.982  11.175
94950W        W67276  44.584  35.841  12.043
94951W        W67277   3.232   9.297  10.741
94952W        W67278   1.475   8.264   4.005
94953W        W67279  40.036  18.516  12.634
94954W        W67280  12.360  16.326   3.026
94955W        W67281  23.938   7.192  12.834
94956W        W67282  18.830  44.340   4.273
94957W        W67283   0.198  14.135   3.004
94958W        W67284  26.732  42.882   0.440
94959W        W67285  23.258  38.623  14.755
94960W        W67286   0.297  14.709  10.653
94961W        W67287  22.569   5.722   3.439
94962W        W67288  24.039  39.282  13.814
94963W        W67289   6.234   2.740  14.047
94964W        W67290   0.076   6.173   0.764
94965W        W67291  14.733   9.629   0.965
94966W        W67292  15.032   4.708  14.388
94967W        W67293  25.102   1.122  13.815
94968W        W67294  44.375   1.004  11.137
94969W        W67295  35.110  39.699  11.126
94970W        W67296  27.669  27.436   2.137
94971W        W67297   9.900  19.608   3.077
94972W        W67298   9.854   9.509  11.062
94973W        W67299   0.300   9.881   3.721
94974W        W67300  10.382   0.070   0.183
94975W        W67301   5.934   2.836  11.613
94976W        W67302  39.500  29.881  13.530
94977W        W67303  13.223   7.626   1.781
94978W        W67304   1.067  16.727   1.170
94979W        W67305  15.035  25.303   3.346
94980W        W67306  20.535  34.887  14.776
94981W        W67307  12.345  11.311   4.259
94982W        W67308  39.990  40.401   2.634
94983W        W67309  22.906  20.033  12.356
94984W        W67310  24.650  33.290   3.229
94985W        W67311  20.245  33.155   3.288
94986W        W67312   9.253  29.184  12.047
94987W        W67313  41.553  42.419   2.678
94988W        W67314  15.622   1.993   4.085
94989W        W67315  16.218  21.681   4.701
94990W        W67316  22.275  29.474  14.282
94991W        W67317  25.525  39.396   3.788
94992W        W67318  39.119  28.420   3.280
94993W        W67319  22.603  37.600   1.705
94994W        W67320  37.210  11.249  14.923
94995W        W67321  13.675  36.309  11.604
94996W        W67322   4.548   5.216  13.389
94997W        W67323  20.489  11.174  11.598
94998W        W67324  11.566  17.261  13.243
94999W        W67325  41.410  35.912  13.890
95000W        W67326  31.907  23.476  12.576
95001W        W67327  23.093  37.980   4.557
95002W        W67328  32.484   6.227  12.866
95003W        W67329   1.249  24.480   1.807
95004W        W67330  36.870   1.678   3.155
95005W        W67331  35.907  12.688   3.105
95006W        W67332  37.175  11.751  13.954
95007W        W67333  22.701  26.751  10.775
95008W        W67334  21.649  35.361   4.375
95009W        W67335  33.442  29.639   4.543
95010W        W67336  33.992   7.158   0.487
95011W        W67337  33.566   1.529   1.955
95012W        W67338  19.102  29.511  12.607
95013W        W67339  30.097  42.468   2.304
95014W        W67340  36.439  39.773   2.694
95015W        W67341  43.269  20.290  13.628
95016W        W67342  13.701   2.568  14.517
95017W        W67343   8.051   7.254   0.166
95018W        W67344  21.824  16.775  12.884
95019W        W67345  24.562  34.375  13.399
95020W        W67346   9.401  30.439   0.477
95021W        W67347   5.197  29.688  14.818
95022W        W67348   0.358  39.952   4.198
95023W        W67349  37.872  16.913   1.035
95024W        W67350  21.302  43.837  12.442
95025W        W67351  41.383  14.885  14.033
95026W        W67352  36.725  12.316   1.604
95027W        W67353  35.135  27.431  14.429
95028W        W67354  34.391  16.637   4.926
95029W        W67355   7.801  33.581  12.974
95030W        W67356  15.700   0.737   3.612
95031W        W67357  42.813  15.682   2.860
95032W        W67358   0.468  15.691   4.529
95033W        W67359  26.094   5.163  13.081
95034W        W67360  19.593   3.012  11.994
95035W        W67361  42.576  13.422   2.729
95036W        W67362  44.985  11.905   1.319
95037W        W67363  18.568  30.007   1.471
95038W        W67364   6.056  18.747  11.852
95039W        W67365  31.534   6.171  13.866
95040W        W67366  43.988  37.063  13.361
95041W        W67367   4.989  11.479  10.009
95042W        W67368  35.625  23.220  11.281
95043W        W67369   3.878  37.242   0.460
95044W        W67370   5.239  34.983  13.608
95045W        W67371  41.610  28.979  11.836
95046W        W67372  18.528   6.251   4.106
95047W        W67373  32.129  39.745  12.974
95048W        W67374   6.121  20.729   1.615
95049W        W67375  42.248   1.892  10.790
95050W        W67376  26.123   6.450  13.873
95051W        W67377  40.343  18.636   0.414
95052W        W67378  38.477  11.835   0.493
95053W        W67379   1.074  29.631  10.386
95054W        W67380  23.250   9.402   4.642
95055W        W67381  18.084  27.652  11.987
95056W        W67382  31.019  44.785  14.449
95057W        W67383  40.333  13.552   1.954
95058W        W67384  39.980   7.375   4.233
95059W        W67385   8.394  18.047   2.766
95060W        W67386  37.466  33.873  13.666
95061W        W67387  34.377  12.241  14.244
95062W        W67388  44.562  27.766   1.946
95063W        W67389   3.231  19.189  11.171
95064W        W67390   2.772   0.519  12.151
95065W        W67391  41.550   6.719  10.710
95066W        W67392  29.045  27.727  11.520
95067W        W67393   0.241  39.921   0.091
95068W        W67394  16.124  43.465  12.615
95069W        W67395  27.527  43.010   3.689
95070W        W67396  20.044  31.488  14.699
95071W        W67397  27.869   6.833  14.336
95072W        W67398  34.795  31.189   4.028
95073W        W67399  19.128  15.854   2.280
95074W        W67400  12.615   8.378  11.827
95075W        W67401  37.360  20.118  14.186
95076W        W67402  26.812   2.636   3.464
95077W        W67403  11.253  27.900   2.282
95078W        W67404  33.327   2.357   3.249
95079W        W67405  36.153  25.413  10.766
95080W        W67406  40.017  19.304  12.183
95081W        W67407  26.557  12.690  14.830
95082W        W67408   2.839  44.360   4.118
95083W        W67409  18.591   5.405  11.551
95084W        W67410  28.798  28.241   2.797
95085W        W67411  39.512   6.478   1.699
95086W        W67412  26.196  22.739  13.140
95087W        W67413   8.071   4.373   4.584
95088W        W67414  41.385  29.412  14.628
95089W        W67415  28.118  16.622   3.968
95090W        W67416  43.738  37.679  12.589
95091W        W67417  36.464  31.278   3.258
95092W        W67418   6.619   8.264  12.030
95093W        W67419  37.605  28.736   4.200
95094W        W67420  20.998  42.308  11.744
95095W        W67421  41.592  21.277  14.421
95096W        W67422  31.897  10.992  13.953
95097W        W67423  17.666  43.300   4.551
95098W        W67424   9.845   3.023   4.032
95099W        W67425  44.694  40.080  13.475
95100W        W67426  13.196  21.655   2.677
95101W        W67427  20.285  19.163   2.702
95102W        W67428   8.118   9.652  13.841
95103W        W67429  38.112   5.259  13.340
95104W        W67430  29.853  28.010  13.608
95105W        W67431  33.479  38.877   2.308
95106W        W67432  29.792   2.754  10.743
95107W        W67433   6.046   2.363   4.937
95108W        W67434  20.681  39.847   2.589
95109W        W67435  22.235  42.280  13.433
95110W        W67436  38.597   6.958  12.972
95111W        W67437  34.891  35.450   2.378
95112W        W67438  19.123  29.196   4.474
95113W        W67439  11.630  24.715   3.132
95114W        W67440  38.997  13.310   4.261
95115W        W67441   1.063  42.386   2.682
95116W        W67442  26.061  43.476   3.715
95117W        W67443  26.235  14.140   1.022
95118W        W67444  33.416  35.159   9.801
95119W        W67445  29.922  33.938   1.711
95120W        W67446  21.111  41.057  13.926
95121W        W67447  37.783  33.317   1.518
95122W        W67448  41.980  23.427  10.682
95123W        W67449   4.249  10.449  13.124
95124W        W67450  11.280   3.377   0.053
95125W        W67451  34.707  31.911  14.515
95126W        W67452   4.750  42.982   1.679
95127W        W67453  32.381  19.600  13.959
95128W        W67454  21.928   2.264   0.626
95129W        W67455  20.072  23.760  13.873
95130W        W67456  32.512   3.273   0.149
95131W        W67457  37.843  17.745  14.117
95132W        W67458  30.531  10.889   1.721
95133W        W67459  23.334  23.707   2.612
95134W        W67460   4.327   9.989  14.247
95135W        W67461  17.366  20.907  10.084
95136W        W67462  20.279  43.893  10.984
95137W        W67463  29.590  26.536   4.567
95138W        W67464  24.600  34.416   3.199
95139W        W67465  18.246  41.501   1.398
95140W        W67466  31.522   0.893  12.368
95141W        W67467   0.870  31.046  14.393
95142W        W67468  44.027   8.641  12.954
95143W        W67469  18.015  37.170  12.042
95144W        W67470   8.540  11.666   3.769
95145W        W67471  42.562  16.430   4.734
95146W        W67472  43.428  27.455  14.613
95147W        W67473   5.783  23.944   1.404
95148W        W67474  41.112   5.280   2.227
95149W        W67475   3.290  32.941   4.065
95150W        W67476  37.215  30.978  11.386
95151W        W67477  23.694  30.508  11.112
95152W        W67478  41.463   1.780  10.394
95153W        W67479  24.071  21.952   1.970
95154W        W67480   6.287  20.809   1.035
95155W        W67481   9.014  20.196  12.138
95156W        W67482  27.944  39.822   4.324
95157W        W67483  17.716  29.400  13.837
95158W        W67484  13.874  35.767  14.214
95159W        W67485  20.536  14.784  10.439
95160W        W67486  39.011  44.271   4.794
95161W        W67487  11.785  33.619   2.690
95162W        W67488  17.653   4.422  13.516
95163W        W67489  16.380   3.159   1.291
95164W        W67490  44.738  15.726   1.546
95165W        W67491  38.557   6.037  11.166
95166W        W67492  10.635   3.258   1.229
95167W        W67493  35.883  15.825   0.494
95168W        W67494  26.653  11.690   4.660
95169W        W67495  15.628  42.241  10.687
95170W        W67496  25.069   2.223   1.402
95171W        W67497   0.333  26.008   0.650
95172W        W67498  28.672  40.895  13.372
95173W        W67499   0.710   3.249  12.090
95174W        W67500   8.762  22.193   0.558
95175W        W67501  14.346  35.949   0.998
95176W        W67502  28.693  42.741  11.157
95177W        W67503  15.320   2.402   2.161
95178W        W67504  24.907  24.861  11.933
95179W        W67505   4.509  42.488  11.815
95180W        W67506  29.457  32.993  11.161
95181W        W67507   0.282   7.287   2.398
95182W        W67508  34.085   7.338  14.750
95183W        W67509   0.112  10.792  14.873
95184W        W67510  10.218   0.799   3.804
95185W        W67511   2.733   0.486  13.958
95186W        W67512  32.741  36.683  10.531
95187W        W67513  29.806   2.105   3.322
95188W        W67514  21.295   8.169   3.160
95189W        W67515   7.184  40.139   3.306
95190W        W67516  20.705  40.826   1.174
95191W        W67517  40.842   0.358  14.935
95192W        W67518  19.179  39.017  12.603
95193W        W67519  20.571   8.968  10.665
95194W        W67520  42.800   9.824   0.552
95195W        W67521  32.589  38.573  13.869
95196W        W67522  35.542  11.263   2.792
95197W        W67523   5.142  14.076   3.417
95198W        W67524  14.618   4.012  13.868
95199W        W67525  34.293   5.485   2.699
95200W        W67526  28.895  21.128  14.348
95201W        W67527  43.365  21.656  13.280
95202W        W67528   8.243  39.085  13.815
95203W        W67529   5.645   0.741   0.912
95204W        W67530  42.714   3.379  11.125
95205W        W67531  35.541  30.360   3.682
95206W        W67532   7.662   9.164   2.428
95207W        W67533  42.318  41.407  14.012
95208W        W67534  27.222   0.036  13.938
95209W        W67535  25.333  21.249   3.672
95210W        W67536  41.298   5.697  11.573
95211W        W67537  16.656  44.887   4.079
95212W        W67538  22.107   4.319   2.410
95213W        W67539  19.088  40.366   1.830
95214W        W67540   2.872   2.699  14.538
95215W        W67541  29.059  27.475   0.831
95216W        W67542  34.726   5.247   2.831
95217W        W67543  37.432  37.906   0.934
95218W        W67544  42.676   8.743   1.671
95219W        W67545  44.432  18.541   4.646
95220W        W67546   2.358   2.173   5.356
95221W        W67547  31.459  22.686   3.585
95222W        W67548   5.418  37.988   1.871
95223W        W67549  16.716  15.049  14.453
95224W        W67550  43.617  34.496  12.630
95225W        W67551   9.827  37.427   3.863
95226W        W67552  10.724  31.595  10.740
95227W        W67553   5.223  21.001  11.586
95228W        W67554  27.139  25.910   3.760
95229W        W67555  18.332  13.184   1.169
95230W        W67556   2.190  19.118   4.021
95231W        W67557  42.004   3.732  13.900
95232W        W67558  12.575   3.137   1.253
95233W        W67559  22.038  34.884  11.603
95234W        W67560  16.308  15.426  10.682
95235W        W67561  24.205  13.750   4.811
95236W        W67562  40.063   8.957  14.104
95237W        W67563  19.651  42.419  11.619
95238W        W67564   4.299  26.620  11.014
95239W        W67565  24.292  19.182   3.652
95240W        W67566   7.929  25.167   1.838
95241W        W67567   0.468  44.432   2.225
95242W        W67568  33.018  22.960   3.093
95243W        W67569  11.545  40.885  14.901
95244W        W67570  31.390  19.414  14.248
95245W        W67571  33.354  16.629  12.706
95246W        W67572  27.415  29.552   9.879
95247W        W67573  16.638   2.180   1.473
95248W        W67574  43.439  42.529   3.729
95249W        W67575   4.814  14.131   4.982
95250W        W67576  34.031  41.805  11.059
95251W        W67577  26.627  27.160  12.504
95252W        W67578  24.059  30.730  12.031
95253W        W67579   4.940  24.410   4.236
95254W        W67580  41.559  32.220   4.110
95255W        W67581   3.000   2.314  11.010
95256W        W67582  36.852   4.322   3.573
95257W        W67583  37.890  24.223   0.716
95258W        W67584  15.626  31.387   4.242
95259W        W67585   7.254  37.319   1.919
95260W        W67586  28.420  24.816   3.866
95261W        W67587  26.199  36.076  10.830
95262W        W67588  39.061  33.882  11.765
95263W        W67589   6.665  43.748   0.118
95264W        W67590  17.066  40.979   2.107
95265W        W67591  16.636  21.540   3.638
95266W        W67592  11.073  10.846  14.973
95267W        W67593  22.090  26.213   1.200
95268W        W67594  27.496  22.434  10.987
95269W        W67595  33.965  36.828  13.945
95270W        W67596  11.224  34.207   4.649
95271W        W67597  43.284  43.675  11.903
95272W        W67598  19.841  17.609  12.811
95273W        W67599  19.795  13.028  11.591
95274W        W67600  41.648  12.799  11.280
95275W        W67601  38.952   7.372   2.589
95276W        W67602  18.631  17.748  13.571
95277W        W67603   2.487  40.239  10.767
95278W        W67604   2.510  20.740   4.191
95279W        W67605  42.115  20.897   4.195
95280W        W67606   4.377   0.039   1.741
95281W        W67607  13.188  20.784   1.669
95282W        W67608  38.903  37.882   1.147
95283W        W67609  40.573  28.207   2.607
95284W        W67610   0.807  16.947  11.608
95285W        W67611  42.438  30.393  10.902
95286W        W67612   6.973  14.888  10.654
95287W        W67613  17.356  27.895  12.503
95288W        W67614  12.396  38.911  13.075
95289W        W67615  38.857  17.338   1.292
95290W        W67616  40.373  25.080   3.689
95291W        W67617  40.876  35.306  14.076
95292W        W67618   8.639  12.433   3.298
95293W        W67619  19.098  31.302  14.191
95294W        W67620  28.508  19.752  11.536
95295W        W67621  29.292  19.583  13.903
95296W        W67622  21.761   4.231   4.876
95297W        W67623  37.991  37.433  14.982
95298W        W67624  42.915   2.310  13.024
95299W        W67625  11.278  18.508   1.443
95300W        W67626  14.152  12.701  12.293
95301W        W67627   9.952  32.653   1.273
95302W        W67628  43.614  28.102   1.291
95303W        W67629   4.390  32.422  12.635
95304W        W67630   6.218  30.715   0.861
95305W        W67631  11.814   8.608   4.072
95306W        W67632   4.847  35.996   4.558
95307W        W67633  20.163  35.914  14.754
95308W        W67634  37.295  39.330  14.032
95309W        W67635  23.117  23.253   2.688
95310W        W67636  26.781   4.588  10.362
95311W        W67637  31.245  39.066  14.806
95312W        W67638  44.461  17.360   3.151
95313W        W67639  39.278   3.081  12.495
95314W        W67640  38.556  43.400   3.087
95315W        W67641  36.409   4.133   3.788
95316W        W67642  25.021  42.534   4.195
95317W        W67643  25.394  44.402   1.376
95318W        W67644  28.845  20.007   2.868
95319W        W67645  32.451   0.384   3.598
95320W        W67646   4.416  36.089   3.642
95321W        W67647  23.941   1.771   2.980
95322W        W67648   9.762  36.974   3.602
95323W        W67649   2.717   1.968  13.827
95324W        W67650   5.439  34.913   4.213
95325W        W67651  26.294   1.035   0.688
95326W        W67652  44.434  22.506  13.732
95327W        W67653  41.371  39.609  12.693
95328W        W67654   7.683  31.314   0.505
95329W        W67655  26.153  40.496  11.680
95330W        W67656   0.405  19.091   4.595
95331W        W67657  24.733  19.181   3.323
95332W        W67658  40.039  26.420   0.752
95333W        W67659  21.641  12.132   0.215
95334W        W67660  23.570  18.214   3.094
95335W        W67661   3.384  14.687  12.097
95336W        W67662  24.222  10.240  12.920
95337W        W67663   1.873  18.746  13.690
95338W        W67664  24.077  29.001   4.024
95339W        W67665  40.038  37.163   0.686
95340W        W67666   6.175  39.376   4.867
95341W        W67667  19.598  33.852   1.839
95342W        W67668   8.561  21.460  12.988
95343W        W67669  31.939  18.396   9.994
95344W        W67670  25.776  32.087  12.478
95345W        W67671  34.436   0.451  14.349
95346W        W67672  39.296  11.355   0.838
95347W        W67673  14.991  34.315  10.638
95348W        W67674   5.889  35.895  14.957
95349W        W67675  38.025  36.458   0.240
95350W        W67676  44.749  16.532  12.376
95351W        W67677  22.321  19.509   3.381
95352W        W67678   5.794   6.544  11.464
95353W        W67679  28.038  37.584   2.304
95354W        W67680  31.796  39.975   4.468
95355W        W67681  21.380  20.542   1.318
95356W        W67682  14.150  27.234   4.580
95357W        W67683  33.882  21.488  11.511
95358W        W67684   8.770  12.588   1.303
95359W        W67685  39.128  39.377  10.053
95360W        W67686  17.117  36.856   2.743
95361W        W67687  35.411  13.651   4.643
95362W        W67688  43.946  21.415  10.905
95363W        W67689  19.787  25.435  13.598
95364W        W67690  12.570  44.277  11.585
95365W        W67691  31.860  20.735  11.085
95366W        W67692  22.299  11.429  11.032
95367W        W67693  10.153  32.221   1.913
95368W        W67694  43.079  31.497   2.400
95369W        W67695   5.960  30.087   1.894
95370W        W67696   8.263   7.305   4.413
95371W        W67697  10.901  35.353   1.278
95372W        W67698   2.140  43.910   1.307
95373W        W67699  10.342  37.085  10.731
95374W        W67700  15.282  41.502  12.138
95375W        W67701  17.618  15.676   3.104
95376W        W67702  24.020  31.095   1.981
95377W        W67703  24.313  37.533  14.959
95378W        W67704  34.234  41.320  10.906
95379W        W67705  28.191  12.233  10.387
95380W        W67706  12.484   5.267  10.819
95381W        W67707  19.966  15.628   1.010
95382W        W67708  30.423  35.282  14.263
95383W        W67709  14.699   6.843  13.788
95384W        W67710  40.639   2.759   0.584
95385W        W67711  30.908  16.712   2.337
95386W        W67712  15.704  27.570   3.640
95387W        W67713  17.849  26.774   3.738
95388W        W67714  30.517  35.570   2.358
95389W        W67715  12.855  26.532   3.756
95390W        W67716   5.949   2.374  11.024
95391W        W67717  14.664   3.599   4.622
95392W        W67718  16.701  13.058   2.545
95393W        W67719   9.018  32.941   1.265
95394W        W67720  40.537  43.418  10.462
95395W        W67721  42.728  20.578  14.662
95396W        W67722  15.214  15.543  12.032
95397W        W67723  30.470  31.189  11.447
95398W        W67724  27.448  28.978  13.883
95399W        W67725  11.121   7.310   4.063
95400W        W67726   6.711  21.622   4.538
95401W        W67727  37.829   0.678  11.021
95402W        W67728  24.711  22.092   4.041
95403W        W67729   4.434  22.210   1.897
95404W        W67730  14.239  25.031   9.553
95405W        W67731  31.475   8.921   2.747
95406W        W67732  34.601  15.993  12.522
95407W        W67733  24.149  13.907  14.567
95408W        W67734   3.006  27.050   1.241
95409W        W67735  43.780  25.786   4.651
95410W        W67736  18.105   7.224   2.490
95411W        W67737   5.187  13.606   3.152
95412W        W67738  37.028  22.253  13.956
95413W        W67739  39.903  20.220   2.459
95414W        W67740  17.804  18.555  11.889
95415W        W67741  44.219  14.666   4.112
95416W        W67742   8.211  22.247  12.013
95417W        W67743   4.166  44.498   3.445
95418W        W67744  42.417  33.046   1.407
95419W        W67745  36.778  27.144  11.531
95420W        W67746   0.456  12.895  12.354
95421W        W67747  33.022  11.200   2.278
95422W        W67748  29.957   0.731   1.815
95423W        W67749   2.866  16.178  14.414
95424W        W67750  15.746  40.075  10.175
95425W        W67751  13.677  29.683   1.362
95426W        W67752  35.020  30.813   3.758
95427W        W67753  33.093  13.114  13.476
95428W        W67754   7.898   3.846  14.960
95429W        W67755  11.266  26.700  13.914
95430W        W67756  26.083  16.334   4.635
95431W        W67757  43.980  13.213   1.169
95432W        W67758  31.404  26.427  11.430
95433W        W67759  10.981  18.165  14.462
95434W        W67760  43.337   7.411   0.457
95435W        W67761  15.855  18.862  13.418
95436W        W67762   6.362  30.657   1.393
95437W        W67763  22.112  37.456  14.001
95438W        W67764  23.504  39.775   0.400
95439W        W67765  13.302  21.486   2.199
95440W        W67766  38.872  14.168   0.315
95441W        W67767  28.156  12.378   0.356
95442W        W67768   6.536  11.158   2.257
95443W        W67769  34.796   5.861   4.034
95444W        W67770  13.794  24.753  11.082
95445W        W67771   1.249   6.240   0.370
95446W        W67772   9.137  20.408   2.538
95447W        W67773  24.669   1.892  14.326
95448W        W67774  29.418   0.255   3.557
95449W        W67775  42.516  13.708  13.521
95450W        W67776  19.115  44.507   1.223
95451W        W67777  26.023   2.198   1.357
95452W        W67778   6.487  26.656   3.901
95453W        W67779  32.124  23.760   3.686
95454W        W67780  27.591   5.922  12.396
95455W        W67781  33.627  30.126  14.948
95456W        W67782  20.025  32.676   3.256
95457W        W67783   6.529  12.135  12.075
95458W        W67784  24.277  35.903  12.021
95459W        W67785   1.704   2.422   5.083
95460W        W67786  42.959   8.735   3.593
95461W        W67787  30.662  33.462   3.810
95462W        W67788  16.047  20.151   0.870
95463W        W67789  23.784  44.397   3.825
95464W        W67790  11.188  21.298  11.076
95465W        W67791  16.580  15.111  11.911
95466W        W67792  25.113  43.960   4.361
95467W        W67793   3.813  37.055  14.628
95468W        W67794  27.459  19.373  14.112
95469W        W67795  18.120  38.606   1.748
95470W        W67796  42.174  13.450  12.855
95471W        W67797  44.230  44.270   0.172
95472W        W67798  22.706   2.511   2.324
95473W        W67799  17.236   7.798  14.033
95474W        W67800  43.506  19.081  14.113
95475W        W67801  13.473  14.263   0.208
95476W        W67802  14.264   0.773  10.728
95477W        W67803  42.506  30.080   1.311
95478W        W67804  15.029  18.534   0.919
95479W        W67805  14.839  38.294   1.437
95480W        W67806  20.235  41.037   2.682
95481W        W67807  24.154   0.381  13.624
95482W        W67808   7.378   4.731   2.544
95483W        W67809   8.221  34.076   1.417
95484W        W67810  41.644  21.644  13.111
95485W        W67811  26.227  17.091  14.080
95486W        W67812  35.807   1.996  12.149
95487W        W67813  10.357  32.089   0.058
95488W        W67814  34.995  15.621  13.776
95489W        W67815  34.484   1.437  14.064
95490W        W67816  36.054   6.908  14.962
95491W        W67817  16.848  15.305   4.118
95492W        W67818  20.307  13.799  14.321
95493W        W67819  18.187  43.375  12.597
95494W        W67820  29.594  43.988   0.782
95495W        W67821  20.094  18.801  13.373
95496W        W67822  30.669  29.984  14.422
95497W        W67823  10.352  19.553  10.954
95498W        W67824  38.547  10.022   0.924
95499W        W67825  24.146  35.287   4.000
95500W        W67826  39.427  15.858  12.578
95501W        W67827   2.446  35.474   1.396
95502W        W67828  36.615   5.317   0.836
95503W        W67829  31.355  39.540   2.442
95504W        W67830   5.442  13.241  12.976
95505W        W67831  29.711   7.955   1.093
95506W        W67832  27.593  33.356   0.429
95507W        W67833  29.956  43.005   2.321
95508W        W67834  41.785  10.307   0.519
95509W        W67835  15.908  14.565   2.122
95510W        W67836   2.491  35.372   3.818
95511W        W67837  11.400  15.798   0.281
95512W        W67838  12.914   4.297  13.047
95513W        W67839  30.887  12.629  14.021
95514W        W67840  10.825  20.926   4.891
95515W        W67841   9.685  32.919   1.669
95516W        W67842  26.737  31.067  14.299
95517W        W67843  14.112  36.220   3.763
95518W        W67844  40.054   0.739  10.787
95519W        W67845  14.429  17.393   2.948
95520W        W67846  24.464  37.906   5.342
95521W        W67847  19.498  14.368   4.137
95522W        W67848  32.110  36.532   3.615
95523W        W67849   9.350  39.068   3.867
95524W        W67850  19.700  14.295   0.740
95525W        W67851  35.111   9.087   1.229
95526W        W67852  43.237  26.540   1.804
95527W        W67853   9.343  40.103   0.296
95528W        W67854  36.662  42.274   1.306
95529W        W67855  27.546  33.302   4.377
95530W        W67856  23.711  25.277  14.347
95531W        W67857  35.038  34.849  11.517
95532W        W67858  15.281   7.865   4.220
95533W        W67859  32.221  17.083   4.773
95534W        W67860  12.454  27.507   5.534
95535W        W67861  30.382  44.308   0.238
95536W        W67862  22.966   6.757   1.847
95537W        W67863  20.076  42.184  11.463
95538W        W67864  42.383  29.152   4.226
95539W        W67865   0.902  34.451  12.711
95540W        W67866  30.196   5.693   2.277
95541W        W67867  38.928  26.604  12.011
95542W        W67868  31.032  40.491  10.663
95543W        W67869  23.158  26.382  14.492
95544W        W67870   2.842  16.253   0.837
95545W        W67871  26.705  40.212   3.358
95546W        W67872  42.474  22.136  12.191
95547W        W67873  23.124   2.233   4.593
95548W        W67874  26.688  10.766   4.400
95549W        W67875  24.699   3.219  13.301
95550W        W67876  37.594  12.903  13.983
95551W        W67877  28.174  29.539   4.728
95552W        W67878  40.917   3.026  14.631
95553W        W67879  18.435  16.071  13.279
95554W        W67880  27.172  19.024   4.947
95555W        W67881  16.326   2.779   2.471
95556W        W67882   1.343   3.124   3.108
95557W        W67883  19.710  43.331  12.588
95558W        W67884   1.338  42.047  11.683
95559W        W67885  44.405   9.122   4.278
95560W        W67886  21.963  42.400  14.301
95561W        W67887  16.159   5.268   3.608
95562W        W67888  16.137  21.748   4.202
95563W        W67889  43.228  43.183  10.073
95564W        W67890  42.988   7.415  11.480
95565W        W67891  29.558  43.228  10.780
95566W        W67892   5.935  19.579   2.404
95567W        W67893  31.322  29.839   2.726
95568W        W67894   0.665   1.744   2.215
95569W        W67895  42.321  28.229   4.795
95570W        W67896   0.851  13.889  14.436
95571W        W67897  32.690   6.935   3.850
95572W        W67898  11.347  44.828  13.775
95573W        W67899  33.173  22.160  13.823
95574W        W67900  38.306  32.639   0.480
95575W        W67901  23.157  32.459   3.741
95576W        W67902  12.869   4.160   4.245
95577W        W67903   1.413  42.275  14.885
95578W        W67904  25.298  43.995  12.377
95579W        W67905  35.569   8.468   0.461
95580W        W67906  20.254  21.215  13.606
95581W        W67907  20.256  24.082  11.199
95582W        W67908   6.177  10.248   0.341
95583W        W67909  41.070  31.086  14.378
95584W        W67910   7.334   2.388   0.794
95585W        W67911   6.741  18.279  13.004
95586W        W67912  22.480  25.237   1.926
95587W        W67913  12.612  39.385   3.423
95588W        W67914  26.785   9.767  11.532
95589W        W67915   1.415  23.114  12.844
95590W        W67916  34.517  18.652   0.791
95591W        W67917  33.018  20.139   1.156
95592W        W67918  16.773  38.624   2.877
95593W        W67919   5.946  42.549   4.048
95594W        W67920  25.747  37.865  13.326
95595W        W67921  37.849  41.956   4.680
95596W        W67922   5.469  15.923   0.911
95597W        W67923  17.745   9.857   2.484
95598W        W67924  33.105   1.940   3.512
95599W        W67925   3.270  33.126  11.274
95600W        W67926  35.631  14.315  13.423
95601W        W67927   5.965  30.076   0.949
95602W        W67928  40.534   3.656  13.945
95603W        W67929  19.587  23.044  10.674
95604W        W67930   2.938   5.389  12.322
95605W        W67931  30.494  14.622  11.348
95606W        W67932  12.807  22.606   4.428
95607W        W67933   0.558  23.045   4.735
95608W        W67934  29.180   5.432  12.857
95609W        W67935  41.214  36.118  12.955
95610W        W67936  24.700   0.994   3.777
95611W        W67937   5.111  37.527  14.920
95612W        W67938  40.279   2.617  12.469
95613W        W67939  23.951   4.890   3.319
95614W        W67940  12.863  31.422   0.365
95615W        W67941  34.305  21.800   0.393
95616W        W67942   1.948  37.874   3.045
95617W        W67943  12.172   9.336  12.213
95618W        W67944  40.503  42.385   4.366
95619W        W67945  38.916  23.623   4.698
95620W        W67946  20.110   7.392  11.444
95621W        W67947  32.061   9.719  13.465
95622W        W67948  12.854  20.792  11.978
95623W        W67949  28.255  19.045  11.440
95624W        W67950   0.913  12.597   9.998
95625W        W67951  28.252  30.410  12.008
95626W        W67952   0.881  13.389  10.671
95627W        W67953  43.470   4.629   1.708
95628W        W67954  19.938  12.671   2.345
95629W        W67955   0.145  14.765   4.259
95630W        W67956  34.457  37.583  14.867
95631W        W67957   7.174  41.020  11.172
95632W        W67958  33.651  37.947  13.384
95633W        W67959  14.538  28.856  11.999
95634W        W67960  44.277  10.833  11.573
95635W        W67961  39.882  32.472   1.454
95636W        W67962  28.076  21.733   3.674
95637W        W67963  42.701  42.962  12.394
95638W        W67964   8.676  30.506  12.136
95639W        W67965  35.483  30.011  13.409
95640W        W67966  16.734   3.394  13.889
95641W        W67967  32.843  12.024  13.724
95642W        W67968   3.962  36.873   3.241
95643W        W67969  32.512  39.509   0.479
95644W        W67970  27.547  39.352  14.527
95645W        W67971  37.538  17.603  12.976
95646W        W67972  31.269  34.569  13.490
95647W        W67973  20.740  22.533   2.269
95648W        W67974  26.373   0.469  11.214
95649W        W67975  23.035   7.914  11.044
95650W        W67976  41.896   1.035  14.996
95651W        W67977  16.836  33.593   1.919
95652W        W67978  16.619  43.863  10.652
95653W        W67979  18.164  12.576  11.347
95654W        W67980  25.925  40.744   1.285
95655W        W67981  11.101   8.349  14.909
95656W        W67982  41.858  28.982   4.098
95657W        W67983  22.631  40.431  13.079
95658W        W67984   8.633  27.094  11.351
95659W        W67985   2.265  14.044   2.269
95660W        W67986  14.805  32.898  10.488
95661W        W67987  32.708  12.369  13.360
95662W        W67988  20.050  12.816  11.214
95663W        W67989  28.911  34.306  11.150
95664W        W67990  34.977  20.136   4.112
95665W        W67991   5.532  42.364  12.096
95666W        W67992  32.670   5.699   1.184
95667W        W67993  10.324  40.713   0.356
95668W        W67994  14.814  34.042  11.859
95669W        W67995   5.955  10.658   4.568
95670W        W67996  38.537  25.438  11.574
95671W        W67997  26.595  21.301  13.117
95672W        W67998  42.047   3.299   2.965
95673W        W67999  25.613  34.829   3.324
95674W        W68000  29.084  15.551   0.953
95675W        W68001   7.563   2.981   3.682
95676W        W68002  19.586  23.035  13.353
95677W        W68003  35.858  15.734   3.346
95678W        W68004  22.628  27.183   1.504
95679W        W68005  13.748   0.562  11.337
95680W        W68006  29.110   9.910   1.355
95681W        W68007  19.679  36.186  12.344
95682W        W68008  29.226  34.523   1.855
95683W        W68009  19.520  30.482  10.768
95684W        W68010  17.265  22.497   3.404
95685W        W68011  15.144  26.890   4.758
95686W        W68012  23.497   6.706   1.782
95687W        W68013   1.020  18.874   0.549
95688W        W68014  10.685   7.022   4.073
95689W        W68015   5.338  30.444   1.692
95690W        W68016  13.624  17.297   1.948
95691W        W68017  29.088  22.580   1.678
95692W        W68018   2.916  28.759   4.939
95693W        W68019  24.462  15.703  10.347
95694W        W68020   6.936  36.453  13.443
95695W        W68021  42.231  42.511  11.947
95696W        W68022   8.656  23.027   3.747
95697W        W68023  27.165  28.522  13.610
95698W        W68024   8.916  40.920   0.420
95699W        W68025   9.825  24.183   0.405
95700W        W68026  27.105  44.224  12.370
95701W        W68027  19.170  36.097   0.973
95702W        W68028  36.964  31.041   1.959
95703W        W68029   3.089  43.102   2.762
95704W        W68030  20.173   8.626   3.553
95705W        W68031  37.194  11.363  11.924
95706W        W68032  34.494  36.031  12.607
95707W        W68033  43.321  35.885  12.412
95708W        W68034  13.430  16.171  14.324
95709W        W68035  12.688  23.400   0.199
95710W        W68036  25.233   5.761  12.859
95711W        W68037  13.781  18.189   3.411
95712W        W68038  21.470  38.011   0.896
95713W        W68039  27.315  23.041  11.945
95714W        W68040   3.753  17.336  14.273
95715W        W68041  28.553  43.990   4.091
95716W        W68042   1.691  39.262   2.391
95717W        W68043  36.709  25.035   1.009
95718W        W68044  23.427  27.108  14.844
95719W        W68045  39.647  20.618  11.402
95720W        W68046   3.701   9.765  10.276
95721W        W68047  17.190  15.730  12.783
95722W        W68048  23.765  24.205   0.301
95723W        W68049  22.230  39.430  10.078
95724W        W68050  42.358  44.995   0.618
95725W        W68051  18.739  34.923   0.790
95726W        W68052   6.715  39.861   0.279
95727W        W68053  38.905  29.362   4.487
95728W        W68054  14.816  22.759   0.243
95729W        W68055  32.895  44.446  11.632
95730W        W68056  30.214  29.039   3.811
95731W        W68057  19.579  34.042  13.942
95732W        W68058  29.453  35.451  13.781
95733W        W68059  31.902  16.160   1.291
95734W        W68060  27.526  22.193   2.335
95735W        W68061  20.701   1.032   0.393
95736W        W68062  44.881   8.185   3.327
95737W        W68063  31.015  16.615   0.799
95738W        W68064  10.616  14.155   2.245
95739W        W68065   1.871  35.358   1.478
95740W        W68066  42.338  39.436  11.894
95741W        W68067   9.115  41.342  11.198
95742W        W68068  22.338  44.524  12.036
95743W        W68069  25.590  38.814   0.780
95744W        W68070  26.701   7.173  12.888
95745W        W68071  36.134   0.441  11.185
95746W        W68072  23.531  34.140   0.434
95747W        W68073  19.877  10.655  11.434
95748W        W68074   9.397  16.350  12.544
95749W        W68075  25.530   1.476   3.694
95750W        W68076  33.944  14.906   4.915
95751W        W68077  42.062  39.992  11.039
95752W        W68078  25.586  36.599   4.599
95753W        W68079  10.075  12.172  12.503
95754W        W68080  21.163  40.446   4.100
95755W        W68081  33.433   0.125   5.359
95756W        W68082   9.280  40.604   0.176
95757W        W68083   7.599   1.753  14.355
95758W        W68084  40.415  44.770   3.714
95759W        W68085  25.279  15.606  10.131
95760W        W68086  13.479  42.925   4.276
95761W        W68087  44.321  25.623  12.560
95762W        W68088   1.673  35.566   2.449
95763W        W68089  12.751  26.787  13.096
95764W        W68090  27.917  10.190  14.559
95765W        W68091   7.498  41.053   3.667
95766W        W68092  23.657   8.162   2.675
95767W        W68093  14.181  32.344  13.496
95768W        W68094  18.159   1.222  14.320
95769W        W68095  17.075   8.389  14.330
95770W        W68096  42.525  41.356   4.568
95771W        W68097   4.667  30.125  13.515
95772W        W68098  10.790  38.851  14.349
95773W        W68099   5.822  18.743  12.648
95774W        W68100  36.142  20.323   1.842
95775W        W68101   0.956  37.974   2.177
95776W        W68102   0.030  18.744   0.797
95777W        W68103  11.847  25.208  12.941
95778W        W68104   8.264   5.626   1.291
95779W        W68105  23.276  39.993   2.825
95780W        W68106   6.973   4.229  11.728
95781W        W68107   2.223  24.675   1.868
95782W        W68108  29.613   6.768   3.730
95783W        W68109   9.310  35.409  14.975
95784W        W68110   6.523  36.941  14.728
95785W        W68111   9.035  20.565  11.304
95786W        W68112   6.823  42.104   4.277
95787W        W68113  38.922   9.859   3.763
95788W        W68114  37.319  31.059  14.660
95789W        W68115  30.594  19.323  11.653
95790W        W68116   5.075   6.209   2.482
95791W        W68117  30.050  28.072   4.903
95792W        W68118  24.933  42.775   4.651
95793W        W68119  27.428   8.002   4.677
95794W        W68120  14.875  22.218   2.454
95795W        W68121  16.132  29.671   4.346
95796W        W68122  13.346  31.934  14.478
95797W        W68123  25.213  15.202   2.598
95798W        W68124  32.076   6.254   0.946
95799W        W68125  41.253  18.855  13.619
95800W        W68126  24.533  41.754  11.150
95801W        W68127  15.138   6.375   2.262
95802W        W68128  11.864   9.270   2.193
95803W        W68129  30.843   8.300  12.013
95804W        W68130  27.455  30.463   0.667
95805W        W68131  41.475  33.170  12.949
95806W        W68132  27.522  41.493   3.615
95807W        W68133  38.062  44.885  11.455
95808W        W68134  11.719   0.292  14.389
95809W        W68135   8.628  34.849   1.833
95810W        W68136  26.695  14.096  13.886
95811W        W68137   6.401   8.742   3.128
95812W        W68138   2.712  18.082   0.581
95813W        W68139  35.041  41.847   4.705
95814W        W68140   1.272  17.761   3.121
95815W        W68141  34.532  14.626   1.701
95816W        W68142  44.080  25.596   2.210
95817W        W68143  12.912  43.461   1.832
95818W        W68144  13.224  44.085   0.364
95819W        W68145  42.371  12.356  14.801
95820W        W68146   8.808  24.826   3.625
95821W        W68147   4.870  18.682   0.763
95822W        W68148   2.857  36.115   1.832
95823W        W68149  13.147  14.916   4.689
95824W        W68150  16.730  30.970   3.401
95825W        W68151  34.104  31.045  14.914
95826W        W68152  34.536  28.852   0.946
95827W        W68153  30.675  20.840   1.366
95828W        W68154   9.196  42.868   1.790
95829W        W68155  42.443  27.485   0.893
95830W        W68156  24.538  11.764  10.676
95831W        W68157   3.862  22.085  10.236
95832W        W68158  36.124  21.622  11.119
95833W        W68159   1.491   3.943  11.136
95834W        W68160   6.691  29.722   0.401
95835W        W68161  15.875  17.060  11.623
95836W        W68162  26.398  38.090   2.238
95837W        W68163  21.130  13.575  14.797
95838W        W68164  30.503  28.443  14.792
95839W        W68165  10.096   7.778   4.222
95840W        W68166  11.964  20.611   1.711
95841W        W68167  39.377   7.958  14.952
95842W        W68168  34.900  26.072   4.584
95843W        W68169   8.661  10.250   3.246
95844W        W68170   7.328  25.943  14.157
95845W        W68171  30.528  25.176   0.148
95846W        W68172  11.381   6.151  13.047
95847W        W68173  34.666   4.195   0.928
95848W        W68174   2.763  24.676   0.434
95849W        W68175  11.250  10.340   0.005
95850W        W68176  19.890  12.499   5.153
95851W        W68177  43.716  10.490  13.611
95852W        W68178  27.182  38.403  14.148
95853W        W68179  31.117  37.487  14.047
95854W        W68180  21.113  38.533  13.380
95855W        W68181  41.229  14.534   0.360
95856W        W68182  36.433  43.739  11.206
95857W        W68183   1.003  37.335  12.075
95858W        W68184   7.134  34.440  12.386
95859W        W68185  40.633  33.813   0.214
95860W        W68186  25.698   2.845  10.964
95861W        W68187  39.029  37.286   2.260
95862W        W68188  26.292  19.220  13.563
95863W        W68189  15.732  32.199   2.750
95864W        W68190  14.130  25.221   3.785
95865W        W68191  42.306  40.560  13.532
95866W        W68192   6.657  12.609  10.950
95867W        W68193  16.164  20.381  11.583
95868W        W68194  15.288   7.423   2.242
95869W        W68195  34.977  18.233  10.708
95870W        W68196  41.892   8.855  14.477
95871W        W68197  10.196  21.439  11.481
95872W        W68198  22.662  10.111   3.217
95873W        W68199  14.537  33.127   3.606
95874W        W68200  28.180  12.106   0.815
95875W        W68201  36.533  21.696  12.993
95876W        W68202  19.707  23.499   1.735
95877W        W68203   0.707  42.654   5.036
95878W        W68204  12.605  40.367   0.898
95879W        W68205  14.242  17.362  14.436
95880W        W68206  21.134  41.445   1.685
95881W        W68207  38.035  15.091  10.701
95882W        W68208  19.983   0.325  11.880
95883W        W68209   9.945  19.257  10.820
95884W        W68210   6.432   6.335   0.447
95885W        W68211  31.385   7.394  12.014
95886W        W68212  10.319  20.434  10.729
95887W        W68213  12.107  36.505   4.641
95888W        W68214  28.126  42.559   0.223
95889W        W68215  25.141  11.905  12.894
95890W        W68216  39.409  41.409   1.210
95891W        W68217   1.070  30.611   1.243
95892W        W68218  39.836  22.235  12.009
95893W        W68219  13.249  30.903   0.960
95894W        W68220  17.547  28.936  13.979
95895W        W68221  28.699  32.967  12.502
95896W        W68222  27.460  42.447  14.173
95897W        W68223  25.955   4.337  10.262
95898W        W68224  25.703  39.073  11.932
95899W        W68225  31.214  18.269   0.868
95900W        W68226  35.847  14.756  11.125
95901W        W68227  31.099  37.793  14.469
95902W        W68228  15.342  23.282  10.566
95903W        W68229   3.927  10.559  14.883
95904W        W68230  41.298  32.336   3.672
95905W        W68231  44.787  39.322   4.477
95906W        W68232   6.053  13.751  13.276
95907W        W68233  11.012   6.016   4.112
95908W        W68234  13.356  19.277  12.446
95909W        W68235  43.411  18.979   4.283
95910W        W68236  42.802  43.955  14.298
95911W        W68237  32.026  12.841   2.976
95912W        W68238  37.577  37.057   3.143
95913W        W68239  39.029  38.827   2.642
95914W        W68240  25.202  17.041   2.793
95915W        W68241  34.443  29.666  10.662
95916W        W68242  23.029  30.051   3.647
95917W        W68243  21.049   0.861   4.138
95918W        W68244  42.443   8.631   1.220
95919W        W68245  25.662  29.832  12.752
95920W        W68246   2.949  37.095  10.725
95921W        W68247  41.984  34.927  12.065
95922W        W68248  10.614   4.924   0.931
95923W        W68249  26.545  18.853   3.315
95924W        W68250  30.252  23.737   0.498
95925W        W68251   1.512  34.143   2.701
95926W        W68252   0.755   3.532   3.762
95927W        W68253  44.968  30.498  11.578
95928W        W68254  30.485  43.470   2.392
95929W        W68255  39.930  44.513   3.216
95930W        W68256  40.547  28.220   1.714
95931W        W68257  17.660  17.240   4.259
95932W        W68258   7.397  26.436   2.320
95933W        W68259  17.103  31.014  11.504
95934W        W68260  32.931   5.659  13.825
95935W        W68261   7.769  11.592  14.720
95936W        W68262  41.404  44.243  12.934
95937W        W68263  20.060  21.854   1.454
95938W        W68264  23.017  18.727  11.607
95939W        W68265  27.702  37.005   4.777
95940W        W68266  34.501  15.048  14.306
95941W        W68267  23.702  40.007   1.873
95942W        W68268  18.237  25.477  12.457
95943W        W68269  22.481  40.670  10.575
95944W        W68270  32.921   0.894  12.032
95945W        W68271   4.292  15.536   4.082
95946W        W68272  15.372   5.371  11.182
95947W        W68273  29.132  29.601   1.578
95948W        W68274  10.431  32.744  11.392
95949W        W68275  28.151  37.564  14.492
95950W        W68276  15.173  30.150  13.984
95951W        W68277  11.106   3.477   0.528
95952W        W68278  21.113  26.212  12.313
95953W        W68279  24.987  38.990   3.771
95954W        W68280  21.220   8.736   2.845
95955W        W68281  10.230  37.868  13.396
95956W        W68282  29.585  26.294  14.926
95957W        W68283  33.868  11.764   3.223
95958W        W68284  18.259   2.887  11.570
95959W        W68285  35.867   1.446  14.980
95960W        W68286  43.202  19.074  11.057
95961W        W68287  15.114  31.935   3.659
95962W        W68288  38.352  19.230  14.368
95963W        W68289  13.406   0.242  12.501
95964W        W68290   0.523  14.655   0.824
95965W        W68291  31.116  38.836  12.106
95966W        W68292  43.473  44.867  11.344
95967W        W68293   7.405   1.114  12.083
95968W        W68294  33.641  17.661   4.267
95969W        W68295  10.566  37.087   0.917
95970W        W68296  10.473  24.916  13.274
95971W        W68297  24.549   6.092   4.209
95972W        W68298  17.807  20.102  12.950
95973W        W68299   6.873  22.781  14.467
95974W        W68300   4.560  18.768  10.819
95975W        W68301   0.831   4.502  11.662
95976W        W68302  30.525   2.419  14.468
95977W        W68303  36.148  33.093   1.670
95978W        W68304   2.950  14.245   0.370
95979W        W68305  30.862   1.470  13.975
95980W        W68306   8.643  44.426  13.120
95981W        W68307  11.910  42.364   0.740
95982W        W68308  18.841  40.840   3.094
95983W        W68309  12.396  36.409   5.066
95984W        W68310  16.902  22.642   4.146
95985W        W68311  27.439  12.579  12.517
95986W        W68312  26.518  38.568  12.330
95987W        W68313  41.502  39.410  10.465
95988W        W68314   0.208  13.789  14.965
95989W        W68315  37.321   7.179  11.939
95990W        W68316  38.800  19.068  14.064
95991W        W68317  33.271  15.050   0.477
95992W        W68318  19.108   1.511  13.365
95993W        W68319  18.261  29.851  12.732
95994W        W68320  25.417  11.695  11.687
95995W        W68321  39.728  12.643   1.338
95996W        W68322  17.066  19.952   2.246
95997W        W68323  20.250  19.280  14.844
95998W        W68324  30.634  15.068   0.850
95999W        W68325   6.817  21.953   2.250
96000W        W68326   9.219  27.865  10.976
96001W        W68327   8.750  12.498  13.458
96002W        W68328  28.056  27.370  14.985
96003W        W68329  29.198  13.852   4.548
96004W        W68330   4.177   7.734  11.127
96005W        W68331  26.524   9.835  11.058
96006W        W68332  20.105  41.033  12.104
96007W        W68333  15.398   6.115   1.866
96008W        W68334  12.288   4.697  11.461
96009W        W68335   6.392  38.979   4.569
96010W        W68336  42.022  42.314   2.395
96011W        W68337  35.462  40.830  11.571
96012W        W68338   8.790  42.918   5.034
96013W        W68339  25.521  38.004   1.171
96014W        W68340  19.674  18.630  13.619
96015W        W68341  31.479   6.883  11.989
96016W        W68342  15.256  10.599  10.629
96017W        W68343  37.341  35.654   2.956
96018W        W68344   3.453  42.873  13.105
96019W        W68345  27.450  38.602  12.384
96020W        W68346  15.786  21.337   2.255
96021W        W68347  42.971  36.568  10.952
96022W        W68348  38.868  22.061  12.513
96023W        W68349  37.913  10.910  13.378
96024W        W68350  37.983  37.895  11.928
96025W        W68351  18.719  20.982   3.169
96026W        W68352  35.913   3.493   2.226
96027W        W68353  13.227  42.723  11.625
96028W        W68354   5.736  25.149   2.320
96029W        W68355  43.845   6.671  12.450
96030W        W68356  21.104  41.734   0.700
96031W        W68357  34.937  22.589  10.685
96032W        W68358  24.531  39.950   4.969
96033W        W68359  35.180  17.959  11.983
96034W        W68360  34.565  30.536   2.172
96035W        W68361  37.029  25.117  14.988
96036W        W68362  25.513  41.440   2.643
96037W        W68363  36.842  11.392  11.503
96038W        W68364   8.051  33.447  12.131
96039W        W68365   4.517  20.042   2.902
96040W        W68366  43.163  17.857   3.026
96041W        W68367   0.986  15.078   2.832
96042W        W68368  39.076   9.846   0.901
96043W        W68369  16.198  14.945  13.763
96044W        W68370  36.428  10.794  13.515
96045W        W68371  36.837  13.155   9.675
96046W        W68372  10.597  33.793  13.825
96047W        W68373   8.060  14.056   2.084
96048W        W68374  30.511  17.839   2.811
96049W        W68375  36.052  34.248   0.787
96050W        W68376  29.335  37.879  13.846
96051W        W68377  28.880  39.066   0.335
96052W        W68378   3.432  33.127  13.399
96053W        W68379   9.210  26.958   2.208
96054W        W68380  28.546  35.940   4.478
96055W        W68381  40.251  22.127   2.761
96056W        W68382  37.909  11.887  12.476
96057W        W68383  23.598  33.766  12.927
96058W        W68384  30.481  13.608   4.411
96059W        W68385  37.453  18.275  13.042
96060W        W68386  14.228  37.141   2.457
96061W        W68387   2.771  37.731   0.367
96062W        W68388  36.535  19.510   1.659
96063W        W68389  41.433  36.209  11.398
96064W        W68390  41.847  24.497  11.568
96065W        W68391  16.810  13.568  11.616
96066W        W68392   0.121  40.089  11.558
96067W        W68393  34.785  40.489   1.455
96068W        W68394  28.523   6.070  12.440
96069W        W68395  31.313  24.906  13.388
96070W        W68396  16.764  10.861  13.439
96071W        W68397  42.699  18.754  14.505
96072W        W68398  41.451  13.077   4.073
96073W        W68399  38.485  22.115   0.314
96074W        W68400   1.722  35.403  12.811
96075W        W68401  21.532  41.889   0.950
96076W        W68402  21.569  25.670   2.902
96077W        W68403   4.613  32.164   3.010
96078W        W68404   8.124   2.869  11.129
96079W        W68405  31.004  15.738   3.252
96080W        W68406  19.725  10.885   3.699
96081W        W68407  14.265  44.803  12.271
96082W        W68408  34.632  37.574   1.706
96083W        W68409  17.090  38.931   0.671
96084W        W68410  25.952  12.148  13.713
96085W        W68411  35.836  29.046  13.602
96086W        W68412  43.545  41.569  13.970
96087W        W68413  10.145  16.580   3.267
96088W        W68414  37.463  33.681  12.851
96089W        W68415   5.001  31.349   4.966
96090W        W68416  18.277  32.650  11.906
96091W        W68417  16.528  13.824   4.161
96092W        W68418  24.648   3.615  11.339
96093W        W68419  11.330  42.327   4.770
96094W        W68420  25.468  10.369   4.187
96095W        W68421  18.010  31.376   3.463
96096W        W68422  32.375  21.989  14.437
96097W        W68423   1.342  11.299   0.813
96098W        W68424  36.962  33.391  10.994
96099W        W68425  16.809  17.590  12.249
96100W        W68426  26.013  44.672  11.480
96101W        W68427  24.196  30.947  14.878
96102W        W68428  24.925   7.474   1.736
96103W        W68429  17.032  16.040  14.262
96104W        W68430  38.471   2.673  10.327
96105W        W68431  38.285  29.084  12.535
96106W        W68432  26.586  43.564  11.089
96107W        W68433  33.047  11.554  10.825
96108W        W68434  27.996  41.359  14.840
96109W        W68435  13.114  25.283  12.602
96110W        W68436  17.145  44.054  11.538
96111W        W68437   0.999  13.867   1.780
96112W        W68438   2.510  34.935  10.852
96113W        W68439   4.853  22.760  12.107
96114W        W68440  21.203  31.466   4.524
96115W        W68441   4.671   7.944  11.017
96116W        W68442  43.922   9.960  10.694
96117W        W68443  14.295  33.570   0.807
96118W        W68444  30.398  41.647   1.991
96119W        W68445  38.989   3.920  13.003
96120W        W68446  12.693   8.422   2.511
96121W        W68447  37.506   7.201  13.319
96122W        W68448   3.351  22.770  12.013
96123W        W68449  38.484  41.429  11.930
96124W        W68450  27.577  16.318  11.623
96125W        W68451  39.384   9.424   2.356
96126W        W68452   9.968  32.893  11.544
96127W        W68453  33.475  37.013  12.582
96128W        W68454  17.778  16.796   4.052
96129W        W68455  32.905   4.708   3.689
96130W        W68456  20.134  28.290   0.817
96131W        W68457  11.697  43.412   0.748
96132W        W68458  11.776  15.729   5.474
96133W        W68459   6.403  10.432  13.607
96134W        W68460  33.547  28.979  11.969
96135W        W68461   8.775  18.674  14.195
96136W        W68462  42.356  21.265  13.890
96137W        W68463  16.644   8.821   4.578
96138W        W68464   7.947  37.799   4.115
96139W        W68465   7.815  15.515   3.349
96140W        W68466  36.467  33.144  13.688
96141W        W68467  17.805  21.454  13.214
96142W        W68468  12.552  43.174   5.129
96143W        W68469  13.626   1.273  11.211
96144W        W68470  25.423   5.584   4.201
96145W        W68471  43.977   2.516   1.504
96146W        W68472  21.232   4.424   4.224
96147W        W68473  22.657  27.862  13.355
96148W        W68474  14.191  11.153   4.558
96149W        W68475  23.993   7.909  10.608
96150W        W68476  25.650  31.421  13.001
96151W        W68477  19.148  28.559   2.437
96152W        W68478  31.630  32.357  14.386
96153W        W68479  13.844  32.962   4.127
96154W        W68480  39.981  44.788  13.706
96155W        W68481  32.945  12.658   0.853
96156W        W68482  24.001  33.864   3.607
96157W        W68483  22.478  31.670  12.001
96158W        W68484  17.827  24.799   2.807
96159W        W68485  18.224  14.685  12.555
96160W        W68486  39.603  43.779   0.433
96161W        W68487   7.253  16.718  11.072
96162W        W68488  20.501  23.269   1.353
96163W        W68489  14.755  30.583   4.677
96164W        W68490   3.681  42.985   3.405
96165W        W68491  36.859  18.393  14.468
96166W        W68492  26.923  35.139   3.737
96167W        W68493   0.639  29.092  10.966
96168W        W68494   9.849   0.770   1.190
96169W        W68495  14.329   4.359  12.561
96170W        W68496  22.749  22.589  14.931
96171W        W68497  21.275   4.635  14.888
96172W        W68498  18.577  37.351   1.932
96173W        W68499  22.061  34.227  13.309
96174W        W68500  28.090  44.867   1.446
96175W        W68501  31.440  10.135  14.346
96176W        W68502  25.994  12.431   1.917
96177W        W68503  38.823   2.948  10.076
96178W        W68504  39.894  38.753  10.581
96179W        W68505  36.010  12.590   2.618
96180W        W68506  41.962  41.332  12.622
96181W        W68507  21.644  43.687   0.396
96182W        W68508  43.699  26.683  14.361
96183W        W68509  12.364  13.983  11.703
96184W        W68510  39.905  20.650  13.436
96185W        W68511  24.430  23.226   0.682
96186W        W68512   2.837  11.844  13.253
96187W        W68513  16.589  22.961   2.288
96188W        W68514  24.006  28.373   3.178
96189W        W68515   9.348  13.091   3.040
96190W        W68516  38.904   3.478   3.044
96191W        W68517  36.318  36.760  13.974
96192W        W68518   9.078   3.453  13.117
96193W        W68519   7.838  28.611  10.673
96194W        W68520  42.554   6.368   0.428
96195W        W68521  39.147   7.195  10.993
96196W        W68522  10.699  25.119   2.848
96197W        W68523  22.142  10.681  12.576
96198W        W68524   4.728  22.490  14.996
96199W        W68525  25.625   8.177  11.146
96200W        W68526  24.906  27.047  10.688
96201W        W68527  16.631  38.121   0.338
96202W        W68528  21.007   3.188   3.727
96203W        W68529  18.109  40.045   2.774
96204W        W68530  21.139  28.212  14.839
96205W        W68531  10.599  30.197  11.932
96206W        W68532  38.041  40.351   2.255
96207W        W68533  41.551  16.300   4.147
96208W        W68534  41.588   3.118  10.639
96209W        W68535  28.212  20.477   4.454
96210W        W68536  34.606  29.774   1.197
96211W        W68537  17.364  37.604  11.152
96212W        W68538  36.529  22.151  12.742
96213W        W68539  27.884  19.947   1.753
96214W        W68540   5.730  11.653   2.901
96215W        W68541  14.778  28.081   0.171
96216W        W68542  21.334   7.319   1.109
96217W        W68543  25.622  28.033   5.002
96218W        W68544   3.965   4.443  11.916
96219W        W68545  29.844   0.859   1.296
96220W        W68546  40.387  25.090  10.897
96221W        W68547   8.980  31.108   1.773
96222W        W68548  29.952   6.690  10.736
96223W        W68549  27.990   1.225   4.569
96224W        W68550   4.922   9.204  12.512
96225W        W68551   3.050  17.824  13.332
96226W        W68552  16.772   1.498  10.668
96227W        W68553  35.530  43.475  13.549
96228W        W68554  23.789  11.245  14.510
96229W        W68555   3.007  40.879  13.046
96230W        W68556  25.656  32.028  12.992
96231W        W68557  16.600  36.709  11.145
96232W        W68558  28.056   4.981   1.269
96233W        W68559  11.300  28.530   4.538
96234W        W68560  20.732  27.933   0.053
96235W        W68561  24.402  34.323  14.454
96236W        W68562   0.280  11.430   3.841
96237W        W68563  32.001   8.006  10.778
96238W        W68564   4.973  17.094  13.404
96239W        W68565  38.785  22.637   0.334
96240W        W68566   8.292   0.313  11.954
96241W        W68567  43.458  33.906  12.922
96242W        W68568   7.017   1.158   2.526
96243W        W68569  25.029  25.570   2.584
96244W        W68570  24.534  35.822   0.391
96245W        W68571  20.135  35.117   0.970
96246W        W68572  17.890  42.981   3.331
96247W        W68573  23.680  32.420   3.712
96248W        W68574  19.214  29.421   1.901
96249W        W68575  39.052  36.165   9.891
96250W        W68576  18.580  20.179   0.940
96251W        W68577  32.960  43.946   4.537
96252W        W68578  13.885  16.142  11.595
96253W        W68579  38.079   5.805  13.440
96254W        W68580  39.726  16.707   4.099
96255W        W68581  23.589  30.175  12.364
96256W        W68582   6.066  26.557  11.916
96257W        W68583  44.118  34.904   3.245
96258W        W68584  26.561   0.933  11.592
96259W        W68585  33.480  29.245   1.828
96260W        W68586  24.155  17.139   0.807
96261W        W68587   5.878   9.606   3.721
96262W        W68588  19.533   9.297  13.105
96263W        W68589  42.200   5.240   2.750
96264W        W68590  42.042  27.539   2.802
96265W        W68591   0.840  15.713  12.666
96266W        W68592   2.954  24.903  13.364
96267W        W68593   3.967  30.432  11.147
96268W        W68594  25.582  12.002   3.439
96269W        W68595  18.828  44.845   4.567
96270W        W68596  35.609  38.579  14.914
96271W        W68597  29.238   2.501  14.846
96272W        W68598  22.588   7.216  10.801
96273W        W68599  26.256  42.588   2.705
96274W        W68600   7.699  23.087  12.795
96275W        W68601  15.533  18.699  13.807
96276W        W68602   2.924   6.322   2.559
96277W        W68603  24.956  14.112  13.472
96278W        W68604  35.555  42.498  11.951
96279W        W68605   3.761  11.808   1.732
96280W        W68606  32.582  44.336  10.201
96281W        W68607  17.652   2.140   3.792
96282W        W68608  31.675  41.878  13.152
96283W        W68609  44.838  37.501  11.434
96284W        W68610  36.411   8.791  14.197
96285W        W68611  41.190  16.262  14.315
96286W        W68612  37.420  26.628  11.388
96287W        W68613  24.566  38.677   4.591
96288W        W68614  12.220   4.344   4.807
96289W        W68615  16.869  39.670  11.947
96290W        W68616  42.780  18.190   9.928
96291W        W68617   8.240  18.807  12.678
96292W        W68618  27.649   2.335  11.425
96293W        W68619  33.119   7.886  11.963
96294W        W68620   1.363   2.289   4.713
96295W        W68621  44.308  39.742  11.957
96296W        W68622  15.046  36.000   0.129
96297W        W68623  26.439  35.666   0.292
96298W        W68624  19.267   6.270   4.569
96299W        W68625   7.406  23.330   4.550
96300W        W68626  11.292  38.107  10.801
96301W        W68627  37.584   5.189   1.003
96302W        W68628  22.932  16.553   1.828
96303W        W68629  26.563  25.110   4.651
96304W        W68630  23.482  16.610  10.797
96305W        W68631  22.084  24.515   2.869
96306W        W68632  26.422  29.858  12.944
96307W        W68633  25.135   9.164   3.407
96308W        W68634  10.241   6.756   0.988
96309W        W68635  28.197  39.317   2.116
96310W        W68636  25.230  41.262   0.383
96311W        W68637   0.927  38.850   3.318
96312W        W68638  36.962   8.814  14.976
96313W        W68639   0.391  35.809   2.831
96314W        W68640  18.914   5.745   2.421
96315W        W68641  19.415   8.933   4.762
96316W        W68642  24.365  34.685  11.639
96317W        W68643  23.394  12.196   0.243
96318W        W68644   0.331  30.039  10.833
96319W        W68645  37.423  14.586  12.055
96320W        W68646   5.610  34.827  11.414
96321W        W68647  14.835  13.983  12.457
96322W        W68648   0.542  39.449  11.161
96323W        W68649  23.202  30.181   0.354
96324W        W68650  23.814   1.490   2.315
96325W        W68651  10.825  13.101  13.043
96326W        W68652  35.662  43.775  12.570
96327W        W68653  36.803   7.148   1.206
96328W        W68654  40.334  22.572   4.630
96329W        W68655  18.803   8.182   3.570
96330W        W68656  29.062  28.169  11.257
96331W        W68657   3.140  23.230   5.008
96332W        W68658  25.478  38.566  10.791
96333W        W68659  38.439   0.321   0.772
96334W        W68660  32.423  27.136   2.758
96335W        W68661  37.781  27.167   3.208
96336W        W68662   2.141  36.317   0.260
96337W        W68663  18.470   2.701   3.787
96338W        W68664   8.450  22.739  13.448
96339W        W68665  42.097  30.177  11.249
96340W        W68666  37.285  30.111   4.637
96341W        W68667  10.824  38.978  11.095
96342W        W68668  29.601  20.094  12.157
96343W        W68669  33.030  23.185   2.177
96344W        W68670  15.216   0.843   0.880
96345W        W68671   0.498   8.877   3.659
96346W        W68672  22.102  43.743  10.762
96347W        W68673  14.098   2.035   4.092
96348W        W68674  29.638   1.712   4.682
96349W        W68675  18.526  16.779  13.797
96350W        W68676   0.874  20.234   2.233
96351W        W68677  43.867  25.560   3.713
96352W        W68678   8.649  30.035  11.903
96353W        W68679  39.041   3.402  12.950
96354W        W68680   5.353  10.474  11.236
96355W        W68681   0.872   4.705  12.906
96356W        W68682  44.866  26.704   4.645
96357W        W68683   8.570   1.659   4.233
96358W        W68684  40.157   7.177  11.139
96359W        W68685  24.025  15.565  11.635
96360W        W68686  14.661  26.547   0.302
96361W        W68687   0.205   8.368  12.106
96362W        W68688  43.263   4.465   4.296
96363W        W68689  38.842  36.424   1.281
96364W        W68690  37.092  28.847  12.998
96365W        W68691   4.230   0.454   0.605
96366W        W68692  27.166  13.382   2.494
96367W        W68693  10.962  17.153  14.073
96368W        W68694  35.386  26.110   3.738
96369W        W68695  13.332  19.864  10.811
96370W        W68696  32.320  30.271  11.953
96371W        W68697  30.425  24.632   3.166
96372W        W68698  28.023   9.907  11.423
96373W        W68699  22.799  20.557   0.269
96374W        W68700   5.528   6.689  11.017
96375W        W68701  39.882   5.741  11.938
96376W        W68702  16.776  40.570  10.514
96377W        W68703  35.103  33.219   2.357
96378W        W68704  43.647  21.519  12.301
96379W        W68705  38.447   3.476   3.786
96380W        W68706  10.243   8.569   0.956
96381W        W68707   8.279  39.897   3.765
96382W        W68708  16.019   0.230  12.129
96383W        W68709   0.235   5.489  11.364
96384W        W68710   4.911  24.972   1.275
96385W        W68711  30.648  37.243   4.149
96386W        W68712  22.489  29.951  10.898
96387W        W68713   7.720  15.322   4.245
96388W        W68714   2.436  42.886   0.840
96389W        W68715  36.615  22.723   1.120
96390W        W68716  16.909  17.008   4.826
96391W        W68717  38.920  36.209  14.946
96392W        W68718   2.337   6.852  13.950
96393W        W68719  28.984  42.769   0.956
96394W        W68720   7.882  13.784   0.495
96395W        W68721   6.243  40.004  13.818
96396W        W68722  39.944  32.602  10.674
96397W        W68723  15.161   9.899  13.809
96398W        W68724  30.087  22.509   2.184
96399W        W68725  38.440   3.452   2.826
96400W        W68726  27.134  33.145   0.324
96401W        W68727  29.589  20.499   4.497
96402W        W68728  33.619  35.915  12.553
96403W        W68729  26.607  40.607  10.401
96404W        W68730  44.747  35.611  12.836
96405W        W68731  41.326  21.955  12.863
96406W        W68732   3.261  16.246  12.814
96407W        W68733  43.076  14.283   2.740
96408W        W68734  15.505  40.990   4.124
96409W        W68735  13.381  38.807   0.424
96410W        W68736  30.670  39.038   0.958
96411W        W68737  29.644  16.077   4.270
96412W        W68738  10.915  18.021  13.404
96413W        W68739  37.301  40.354   0.714
96414W        W68740  30.536  40.966  12.609
96415W        W68741  25.097  44.326   4.727
96416W        W68742   4.837  23.657   1.741
96417W        W68743  16.211  36.826  13.840
96418W        W68744  10.331  20.976   1.301
96419W        W68745  19.213  30.514  12.948
96420W        W68746  15.200  36.024  11.206
96421W        W68747  34.606  33.605  13.979
96422W        W68748  15.691  35.626   0.771
96423W        W68749  10.195  14.759   1.806
96424W        W68750  41.418  28.702   4.094
96425W        W68751  25.420  42.438   3.250
96426W        W68752  44.176  43.991  13.008
96427W        W68753  23.954   4.532   0.778
96428W        W68754  28.191  31.934   2.817
96429W        W68755  44.820  26.742  10.913
96430W        W68756  24.242   0.287  14.120
96431W        W68757  30.165  21.252  10.997
96432W        W68758  19.763  36.780  13.952
96433W        W68759  22.262  38.779  14.257
96434W        W68760  21.066   1.501  13.814
96435W        W68761   9.676   3.758  13.535
96436W        W68762   7.051  28.965   3.242
96437W        W68763  29.622   8.699   3.709
96438W        W68764  40.580  28.113   5.055
96439W        W68765  22.184  31.294  14.584
96440W        W68766  42.046  23.449  14.406
96441W        W68767  39.941  34.394  11.487
96442W        W68768  41.578   9.151   1.309
96443W        W68769  16.001  27.189   1.755
96444W        W68770   2.420   8.790   4.966
96445W        W68771   6.816  12.596   1.270
96446W        W68772  22.076   9.910   3.474
96447W        W68773   6.827  19.344  13.809
96448W        W68774  17.599  44.796   0.214
96449W        W68775  37.014  21.055  14.827
96450W        W68776  40.250  36.150  10.615
96451W        W68777  29.151  42.510  11.865
96452W        W68778  39.370  36.404   4.845
96453W        W68779   4.782   2.920   1.434
96454W        W68780  16.976  34.946  13.016
96455W        W68781  35.168  25.513   0.713
96456W        W68782  34.047  35.819  11.649
96457W        W68783  35.759  14.030  12.397
96458W        W68784   9.417  34.673   1.859
96459W        W68785  28.588  38.001  11.713
96460W        W68786  38.519   8.210  14.463
96461W        W68787  29.314  33.583   2.146
96462W        W68788  44.326  34.424   5.120
96463W        W68789  22.027   6.874  14.478
96464W        W68790   9.699   9.218  13.877
96465W        W68791  44.888  27.471   2.241
96466W        W68792  22.441  28.888   2.072
96467W        W68793   3.602   7.657   2.450
96468W        W68794  16.692  31.856   1.190
96469W        W68795  44.475  33.533   5.025
96470W        W68796  40.448  21.074  10.181
96471W        W68797   3.527  13.678   0.791
96472W        W68798  44.364  29.354   3.387
96473W        W68799  35.347  22.407  14.399
96474W        W68800  40.122  28.643  13.001
96475W        W68801  27.937  40.932  14.544
96476W        W68802   8.478   8.291  11.024
96477W        W68803  18.175  31.204  10.723
96478W        W68804   2.491  30.669   0.770
96479W        W68805  43.909   6.424  12.937
96480W        W68806  26.781  42.904   4.695
96481W        W68807   0.028   6.923   2.654
96482W        W68808   6.452  23.617  14.529
96483W        W68809  40.291  30.989   3.650
96484W        W68810  14.145  30.108   1.687
96485W        W68811  31.450  42.808   5.033
96486W        W68812   6.136   7.811   4.750
96487W        W68813  36.533  23.527  12.484
96488W        W68814   9.846  25.483   2.729
96489W        W68815  10.457  26.110  10.461
96490W        W68816  41.325  36.914   0.299
96491W        W68817   1.855  13.754  12.592
96492W        W68818  35.419  22.303   0.712
96493W        W68819   9.699  41.512   0.535
96494W        W68820  34.969  12.758  14.328
96495W        W68821   5.165  39.116  12.071
96496W        W68822  35.098  17.864   3.652
96497W        W68823   2.151   1.546   9.817
96498W        W68824  35.900  10.649   1.240
96499W        W68825  31.375  21.775   3.131
96500W        W68826  20.234  17.035   2.297
96501W        W68827  30.377  12.826  10.740
96502W        W68828  17.986  42.851  13.538
96503W        W68829   9.796  43.205   2.351
96504W        W68830   7.183   2.269   1.282
96505W        W68831   0.034  32.112  11.050
96506W        W68832  14.228  44.058   1.730
96507W        W68833  38.820  27.100   3.051
96508W        W68834   0.667  16.266  12.106
96509W        W68835  14.182  33.076   2.333
96510W        W68836   8.601  18.947  11.701
96511W        W68837  25.137  15.902  11.538
96512W        W68838  20.203  24.636  12.478
96513W        W68839  29.338  17.993   3.812
96514W        W68840  36.783  15.226   2.186
96515W        W68841  28.951  23.453   2.337
96516W        W68842  37.710  34.994   2.673
96517W        W68843  18.305  40.932   1.748
96518W        W68844  29.454  40.068   0.892
96519W        W68845   9.914  11.135  12.396
96520W        W68846  19.633  30.547  14.827
96521W        W68847   3.883  12.917   0.493
96522W        W68848  44.647   3.430   4.595
96523W        W68849  25.761  34.476  12.906
96524W        W68850  26.967   7.850   2.757
96525W        W68851  10.482  27.164  11.159
96526W        W68852  18.640  31.873  13.781
96527W        W68853  18.338  38.231  11.658
96528W        W68854  16.795  22.043  13.291
96529W        W68855   4.294  21.395   0.266
96530W        W68856  31.032  14.583  11.122
96531W        W68857  42.469  37.311  11.197
96532W        W68858   7.737  11.474   2.116
96533W        W68859  39.732  12.577   0.373
96534W        W68860   0.374  36.118   0.508
96535W        W68861   1.019  37.633   2.562
96536W        W68862  33.619   6.479   1.814
96537W        W68863  28.125  34.247  14.429
96538W        W68864   2.034  20.814  11.590
96539W        W68865  28.458   4.262   0.881
96540W        W68866   3.945  11.422   0.206
96541W        W68867   3.912  34.168  13.793
96542W        W68868  44.936  19.081  14.684
96543W        W68869   2.929  25.172   0.330
96544W        W68870  40.064  43.780  14.417
96545W        W68871  12.230  36.521   0.866
96546W        W68872  22.717  31.652   4.590
96547W        W68873   9.674   4.707  14.363
96548W        W68874  20.751  28.945   2.300
96549W        W68875  44.384   6.681  10.658
96550W        W68876  26.006   4.409   3.293
96551W        W68877  21.044   1.440  14.321
96552W        W68878  37.026  10.287   3.597
96553W        W68879  37.727  33.242  13.045
96554W        W68880  42.369  32.968  14.867
96555W        W68881  37.012   9.319   3.468
96556W        W68882  33.326   6.026  14.908
96557W        W68883  22.873  32.016  14.434
96558W        W68884  25.227  27.370  11.580
96559W        W68885   2.382  40.495   0.331
96560W        W68886   0.268  40.497   4.029
96561W        W68887   8.891  10.826   0.121
96562W        W68888  26.600  12.709  13.364
96563W        W68889  19.236  35.978   0.237
96564W        W68890  24.516  40.423  12.067
96565W        W68891  18.249  40.499  10.946
96566W        W68892  34.572  32.615  13.966
96567W        W68893  21.090  32.112  14.482
96568W        W68894  41.371  39.326   0.849
96569W        W68895   0.942  10.359   3.076
96570W        W68896  37.062  20.117  13.732
96571W        W68897   9.154   5.633  13.412
96572W        W68898  34.851  40.213  13.945
96573W        W68899  22.198  42.321  14.802
96574W        W68900   9.534  37.880   2.336
96575W        W68901  15.723  33.958  11.053
96576W        W68902  24.212  15.813   4.662
96577W        W68903  43.246  21.222  14.031
96578W        W68904  37.619  19.737  12.034
96579W        W68905  34.559  25.857   2.405
96580W        W68906  16.894  22.805   3.231
96581W        W68907  24.008  12.694   2.363
96582W        W68908  29.418   8.360   0.924
96583W        W68909  36.818  14.266  11.738
96584W        W68910  39.461  13.883  13.131
96585W        W68911  17.512  40.326  13.040
96586W        W68912  21.259  26.317   5.093
96587W        W68913  21.224  30.524   1.024
96588W        W68914   3.463  29.249   3.664
96589W        W68915  43.888  26.048   1.795
96590W        W68916   6.397  12.313   2.966
96591W        W68917  39.651   8.862  12.988
96592W        W68918  32.665  13.266  10.367
96593W        W68919   7.212  40.884  14.846
96594W        W68920  39.770   5.784   0.230
96595W        W68921  41.572  20.980   0.738
96596W        W68922  11.136  12.611  14.028
96597W        W68923  35.283   8.931  13.432
96598W        W68924  34.639  24.752  12.779
96599W        W68925  33.576   4.133  11.154
96600W        W68926  44.984   5.707   0.999
96601W        W68927  41.386  41.781   0.930
96602W        W68928  40.931  37.992   3.511
96603W        W68929   5.811  34.136   1.363
96604W        W68930   2.331  11.723  14.374
96605W        W68931  40.841  19.723  11.673
96606W        W68932  32.148  36.526  11.363
96607W        W68933  38.484  22.126  11.448
96608W        W68934  43.517   3.560   4.055
96609W        W68935  19.682  23.671   0.693
96610W        W68936  34.983  38.297  13.532
96611W        W68937   9.687  38.468   1.465
96612W        W68938   8.364  31.221  14.098
96613W        W68939   5.663  25.746   3.124
96614W        W68940  39.275   6.347   2.167
96615W        W68941   4.956  40.584  13.472
96616W        W68942  12.823  25.445   0.689
96617W        W68943  31.586   1.497   0.881
96618W        W68944  37.764  43.476  14.460
96619W        W68945  26.987  33.098   1.334
96620W        W68946  14.768  25.528   1.261
96621W        W68947   5.092   0.996  13.974
96622W        W68948  21.592  28.157  12.990
96623W        W68949  18.105   4.834   1.471
96624W        W68950   3.828  20.891  11.969
96625W        W68951  32.384  22.102   0.596
96626W        W68952  14.011  26.030   1.191
96627W        W68953  38.533  12.666   0.851
96628W        W68954  10.267  38.858   3.508
96629W        W68955  44.861  26.209   0.777
96630W        W68956  43.071  17.095   0.904
96631W        W68957  30.403  44.927  13.496
96632W        W68958   1.292  31.643   2.127
96633W        W68959  33.965  29.155   2.013
96634W        W68960  19.543  11.154  14.005
96635W        W68961  34.100  32.127  12.882
96636W        W68962  35.680  43.877   0.952
96637W        W68963  11.090  27.587  12.894
96638W        W68964  10.139  42.936  13.100
96639W        W68965   1.499  24.188   0.342
96640W        W68966  16.474  26.647   2.786
96641W        W68967   6.517  27.833   1.782
96642W        W68968  27.119  42.404  12.145
96643W        W68969  27.442  18.093   0.861
96644W        W68970  43.426  13.592  11.483
96645W        W68971  31.356  36.644  10.832
96646W        W68972  39.526  18.191   4.822
96647W        W68973  11.063  31.000   0.013
96648W        W68974  24.224   4.402   2.095
96649W        W68975   9.175  16.962   4.205
96650W        W68976  30.850  31.864  14.830
96651W        W68977  25.151  27.637  12.938
96652W        W68978  40.855   1.711   3.571
96653W        W68979  36.462  18.061  14.412
96654W        W68980  23.091  19.655   3.575
96655W        W68981  15.539  22.063   0.344
96656W        W68982  19.132  29.546  12.096
96657W        W68983  40.926  16.833  13.568
96658W        W68984  32.461  43.262   0.579
96659W        W68985   6.641  38.011  11.620
96660W        W68986  11.774  43.038   2.408
96661W        W68987  41.459  25.738  13.369
96662W        W68988   7.307  33.385  11.217
96663W        W68989  17.530  31.614   4.833
96664W        W68990  22.120  35.025   0.006
96665W        W68991  28.866   0.521  14.826
96666W        W68992  38.318  14.613  13.357
96667W        W68993  29.515  15.644   9.976
96668W        W68994  13.470   8.469  12.874
96669W        W68995  43.705  20.716  11.557
96670W        W68996  33.356  16.528  14.488
96671W        W68997   3.189  10.554  11.939
96672W        W68998  13.639  35.823   0.458
96673W        W68999  35.081   3.714   0.794
96674W        W69000  21.323  34.295  11.408
96675W        W69001   8.915  10.758  11.118
96676W        W69002  25.442  28.445   1.161
96677W        W69003  32.684   4.278   1.900
96678W        W69004   7.385  26.218  12.805
96679W        W69005  29.512  39.410  11.294
96680W        W69006  39.867  14.342   4.879
96681W        W69007  35.827  36.515   0.775
96682W        W69008   0.267   0.701   2.853
96683W        W69009  37.532  30.597   3.643
96684W        W69010  18.357  13.274   1.688
96685W        W69011  23.753  36.107   3.869
96686W        W69012  43.614  40.591   3.076
96687W        W69013  34.593  24.222   0.175
96688W        W69014  16.473  25.209   1.662
96689W        W69015   6.497  14.668  10.712
96690W        W69016  18.675   4.952  10.731
96691W        W69017   9.364  32.493  11.092
96692W        W69018  36.068  15.728   4.697
96693W        W69019   1.318  30.125  13.514
96694W        W69020   6.373   3.485   9.901
96695W        W69021  31.833  32.500   0.716
96696W        W69022  32.969  40.574   4.955
96697W        W69023  31.566  21.941  13.623
96698W        W69024  30.890  20.184   0.319
96699W        W69025   5.550   9.235   0.396
96700W        W69026  36.226  10.833  10.574
96701W        W69027  32.086  40.421  10.567
96702W        W69028  12.391  27.957  11.936
96703W        W69029   4.632  38.917   0.171
96704W        W69030  30.157   7.837  14.075
96705W        W69031   6.302  30.997  14.686
96706W        W69032  39.838  15.422   3.646
96707W        W69033  40.209   8.807   2.733
96708W        W69034  19.628  24.215   2.220
96709W        W69035   3.879  31.430  11.558
96710W        W69036  20.871  34.179   2.864
96711W        W69037  44.306  13.599   4.412
96712W        W69038  23.044  21.288  10.128
96713W        W69039  42.598  35.913  14.680
96714W        W69040  16.564  18.077   3.676
96715W        W69041   0.780  31.188   0.368
96716W        W69042  23.694  44.703  14.029
96717W        W69043  31.502  12.708  12.918
96718W        W69044   5.811  22.986   2.456
96719W        W69045  27.294  29.541  11.629
96720W        W69046  12.580   7.834  10.682
96721W        W69047   3.228   4.993   5.072
96722W        W69048  34.912  44.899   2.706
96723W        W69049  13.275   4.981   3.231
96724W        W69050   9.456  24.717   0.863
96725W        W69051  22.307  12.248  12.973
96726W        W69052   7.379   7.941  11.281
96727W        W69053   9.519  25.696  14.486
96728W        W69054  18.327  41.411  11.354
96729W        W69055  29.964  41.543   0.987
96730W        W69056  17.552   2.531   0.459
96731W        W69057  11.827  16.717   3.718
96732W        W69058  43.364  41.118  12.985
96733W        W69059  39.367  12.236  13.411
96734W        W69060  11.428  25.715   0.832
96735W        W69061  44.965   5.803  13.569
96736W        W69062  37.443  22.290  14.922
96737W        W69063   8.349   9.539   4.692
96738W        W69064   5.317  38.882   0.001
96739W        W69065  43.415   8.320  12.190
96740W        W69066  22.126  35.463  13.334
96741W        W69067   4.456  32.140  13.085
96742W        W69068  26.063   7.469   4.843
96743W        W69069  24.143  24.671   3.911
96744W        W69070  37.010  42.389  12.122
96745W        W69071   4.399  20.986   2.751
96746W        W69072  33.708  33.475   9.834
96747W        W69073  28.469  28.893  10.230
96748W        W69074   0.141  24.630  12.839
96749W        W69075  14.678  34.389  12.570
96750W        W69076  43.552  17.099  11.100
96751W        W69077  17.866  28.458   0.941
96752W        W69078  14.878  38.625  14.860
96753W        W69079   7.267  35.926   3.346
96754W        W69080  20.100  41.925   2.426
96755W        W69081  41.227  33.564   4.267
96756W        W69082  12.349  39.436  12.575
96757W        W69083  34.679  24.007   2.256
96758W        W69084  24.513  21.670   3.788
96759W        W69085  29.513   6.620  11.641
96760W        W69086  14.199  31.420   1.166
96761W        W69087  30.874  42.852   1.785
96762W        W69088  24.851  33.340  13.021
96763W        W69089  27.711  22.694   2.363
96764W        W69090  42.869  20.681   2.240
96765W        W69091   2.456  44.303   1.210
96766W        W69092   0.702  43.940   4.776
96767W        W69093  17.208  23.612   1.915
96768W        W69094  21.368  14.810   1.528
96769W        W69095  42.508  22.577  13.836
96770W        W69096   5.780  11.898   0.246
96771W        W69097  29.380  20.790   2.945
96772W        W69098  38.393   2.009  13.936
96773W        W69099  43.495  43.851  10.524
96774W        W69100  13.082  31.979   3.194
96775W        W69101  28.999  22.173   4.534
96776W        W69102  16.024  39.476   2.309
96777W        W69103  10.224  18.004  10.764
96778W        W69104  18.317  17.517  12.485
96779W        W69105  29.643  35.883   2.410
96780W        W69106   3.650  19.772  12.550
96781W        W69107  33.346  22.050   0.866
96782W        W69108  13.500  36.780   4.167
96783W        W69109  40.879   6.911   2.797
96784W        W69110   4.598  41.811  11.209
96785W        W69111  26.654  21.153   4.823
96786W        W69112  28.933  18.767   1.908
96787W        W69113  16.626  11.041  12.861
96788W        W69114  11.340  43.938   2.194
96789W        W69115  26.915  36.972   1.341
96790W        W69116   8.292  35.399  14.524
96791W        W69117   3.375  16.755   4.975
96792W        W69118   6.739  10.356  12.430
96793W        W69119  25.311  25.086  11.694
96794W        W69120  36.418  18.578  12.443
96795W        W69121   6.213  15.078  14.533
96796W        W69122  20.035  34.961  11.637
96797W        W69123   2.378  35.797   1.837
96798W        W69124  28.613   1.790   0.072
96799W        W69125  27.250  30.398  11.120
96800W        W69126  21.992  22.201  14.365
96801W        W69127  25.193  18.329   2.446
96802W        W69128  15.048  27.179  12.213
96803W        W69129  41.789   9.432  13.725
96804W        W69130  42.854   9.326   0.368
96805W        W69131   6.099  35.018  14.769
96806W        W69132  26.214  31.632  13.584
96807W        W69133  40.388  26.174  14.097
96808W        W69134   2.910  19.670   1.464
96809W        W69135  25.672  37.504  14.374
96810W        W69136   1.963  29.038   3.721
96811W        W69137  10.413  23.976   2.267
96812W        W69138  38.950   3.836   1.181
96813W        W69139  19.705  10.849  10.489
96814W        W69140   9.214  24.967  11.346
96815W        W69141  27.917  43.932   1.099
96816W        W69142   9.389   8.399   0.275
96817W        W69143  35.098  14.100   2.628
96818W        W69144  36.735  35.487  12.000
96819W        W69145  13.430   0.843  14.751
96820W        W69146  35.329  22.729   4.778
96821W        W69147  14.347  20.086   2.816
96822W        W69148  23.116  15.609  10.356
96823W        W69149  32.815  35.702   5.067
96824W        W69150   7.408   9.644   4.840
96825W        W69151  41.536  17.538   0.017
96826W        W69152  36.592  14.192   2.808
96827W        W69153  39.044  40.778  10.692
96828W        W69154   4.853  32.707   4.160
96829W        W69155  13.634  11.843   4.639
96830W        W69156  21.648  15.188  13.037
96831W        W69157  26.720  27.542   1.322
96832W        W69158  30.938  26.037   0.474
96833W        W69159  30.468  26.899   0.809
96834W        W69160  36.491  41.363   4.187
96835W        W69161   4.757   8.170   4.576
96836W        W69162   0.507  24.700   2.802
96837W        W69163  39.531  10.265  12.960
96838W        W69164  29.985  21.789   4.429
96839W        W69165  36.287  14.089   1.253
96840W        W69166   1.170  25.916  11.960
96841W        W69167  16.706  20.485   4.382
96842W        W69168  42.289  14.009   3.358
96843W        W69169  30.451  16.747  12.300
96844W        W69170  34.423  31.026   4.994
96845W        W69171   6.823  37.160   4.001
96846W        W69172  20.966  19.707   2.401
96847W        W69173  22.441   2.319  12.532
96848W        W69174  13.426  40.495  13.530
96849W        W69175  39.023  37.440  12.027
96850W        W69176  26.228  27.562   5.008
96851W        W69177  10.844  37.671  12.448
96852W        W69178  20.436  20.048  12.641
96853W        W69179   4.797  15.712   3.388
96854W        W69180  23.106  28.543   0.829
96855W        W69181  11.710  14.589  11.181
96856W        W69182  34.985  24.654   0.494
96857W        W69183  11.853  28.142  11.817
96858W        W69184  10.768  10.874   0.480
96859W        W69185  30.569  35.103   1.516
96860W        W69186  28.355  36.086  13.705
96861W        W69187  39.867  13.052  10.671
96862W        W69188  13.524   3.636   1.243
96863W        W69189  12.088  17.987   0.429
96864W        W69190  17.007  33.025   1.369
96865W        W69191  23.236  24.108   4.241
96866W        W69192  23.486  10.399  11.436
96867W        W69193   8.284  22.585  11.524
96868W        W69194  17.033  44.610   4.550
96869W        W69195  13.231   6.938   3.635
96870W        W69196  34.112  10.832  13.849
96871W        W69197   0.914  40.441  10.577
96872W        W69198  33.539   8.306   4.367
96873W        W69199  22.480   3.573  11.622
96874W        W69200  39.336   1.678  13.880
96875W        W69201  36.447  25.023   4.620
96876W        W69202   0.961  14.743   3.216
96877W        W69203   8.874  32.971  12.835
96878W        W69204  25.512  36.501  11.027
96879W        W69205  43.835  28.170   2.733
96880W        W69206   8.727  41.422   0.304
96881W        W69207  12.404  37.455   2.145
96882W        W69208  38.148  13.128  14.240
96883W        W69209  41.823   2.546  14.794
96884W        W69210   6.200  37.086   4.585
96885W        W69211  42.252   7.942   1.945
96886W        W69212  11.836  16.188   3.133
96887W        W69213  39.821  40.591  13.785
96888W        W69214   4.637  34.526   3.818
96889W        W69215  33.539  32.369   1.460
96890W        W69216  18.581  24.798  11.386
96891W        W69217   4.858  25.935  14.839
96892W        W69218   0.937  39.374  13.480
96893W        W69219  42.781  26.154  12.163
96894W        W69220  30.647  34.439  11.890
96895W        W69221   0.285  41.441   4.066
96896W        W69222   1.785  39.173  11.067
96897W        W69223  35.403   8.969   0.510
96898W        W69224  23.202  40.061  11.022
96899W        W69225   0.275  25.060  13.392
96900W        W69226  16.361  10.246   3.653
96901W        W69227  31.252   2.331   2.735
96902W        W69228  29.720  12.813   4.704
96903W        W69229  19.528   9.915   1.500
96904W        W69230  19.680   0.400   1.307
96905W        W69231  33.024  36.820  13.991
96906W        W69232  20.102  26.743  10.327
96907W        W69233  20.686  38.047  14.524
96908W        W69234  28.691  21.190  13.870
96909W        W69235  35.054   0.094  11.442
96910W        W69236   6.806  15.128  11.105
96911W        W69237  30.031  29.036  14.955
96912W        W69238  32.444   5.730  11.074
96913W        W69239  13.217  41.601  10.812
96914W        W69240  19.803  30.681   1.982
96915W        W69241  40.863  11.158   4.278
96916W        W69242  12.648  10.847  10.722
96917W        W69243  12.126  40.452  12.877
96918W        W69244  43.759   4.856  12.113
96919W        W69245  17.720  20.954  13.344
96920W        W69246  20.086  23.070   0.329
96921W        W69247   1.013  31.055  12.891
96922W        W69248   5.180  11.225   4.603
96923W        W69249  37.944  40.071   1.829
96924W        W69250  23.899  44.901  13.587
96925W        W69251  33.839  20.233   2.842
96926W        W69252  29.088  24.984   3.209
96927W        W69253  20.486  21.298   9.986
96928W        W69254   1.682  40.075   1.877
96929W        W69255  22.789   8.720   2.711
96930W        W69256  38.765  30.071  11.755
96931W        W69257  43.213  23.502   2.793
96932W        W69258  40.783  17.748  12.660
96933W        W69259  25.970  34.307   0.146
96934W        W69260  36.401  44.498  13.796
96935W        W69261  28.287  29.378  10.250
96936W        W69262   1.242  37.239  13.897
96937W        W69263  23.900   8.109   2.234
96938W        W69264  34.129  31.962   3.674
96939W        W69265   9.271  22.681   2.743
96940W        W69266  43.956  10.939  12.560
96941W        W69267   5.286  29.974   4.794
96942W        W69268  24.703  11.566  13.445
96943W        W69269  21.266   5.010  12.847
96944W        W69270  44.384  41.326  10.744
96945W        W69271  43.694   7.306   2.361
96946W        W69272  25.457  27.495  13.353
96947W        W69273   6.474  26.022  12.595
96948W        W69274  40.243   2.225   3.742
96949W        W69275   9.795  27.740  11.615
96950W        W69276  25.714  43.060  11.050
96951W        W69277  36.500  23.532  12.998
96952W        W69278  37.912  42.478   2.472
96953W        W69279  43.274  10.813  13.041
96954W        W69280  24.614  18.296  11.555
96955W        W69281  17.236  38.742   4.071
96956W        W69282  44.071  12.082   3.098
96957W        W69283  23.000  18.350  14.561
96958W        W69284  32.540  24.903   4.182
96959W        W69285  20.458  14.175  11.088
96960W        W69286  16.342  36.894   0.364
96961W        W69287   2.510  20.460  10.135
96962W        W69288   3.909   6.846   3.728
96963W        W69289   9.287  40.844   3.105
96964W        W69290  10.731  23.036   1.991
96965W        W69291  20.332  28.129  13.634
96966W        W69292  32.013  24.190   1.290
96967W        W69293   8.207  17.805   4.067
96968W        W69294  37.819  20.972   2.365
96969W        W69295  35.061  21.680  11.139
96970W        W69296  36.872  20.257  10.788
96971W        W69297  19.671   7.163  13.514
96972W        W69298  43.764  36.977   3.644
96973W        W69299  24.593  43.097   3.809
96974W        W69300  40.420  23.710   4.503
96975W        W69301  37.444   0.934   4.180
96976W        W69302  15.121   1.558   1.420
96977W        W69303  43.023  12.576  14.462
96978W        W69304  10.735  17.834  14.782
96979W        W69305  28.463  17.017   4.155
96980W        W69306  27.176   1.830   3.168
96981W        W69307  28.000  24.152  13.197
96982W        W69308   0.829   5.753   4.747
96983W        W69309  31.012  31.965   3.444
96984W        W69310  19.401   1.735  12.114
96985W        W69311  12.797  11.670  13.445
96986W        W69312  27.095  27.648   3.120
96987W        W69313  44.043  31.306   3.754
96988W        W69314  37.019  44.859   0.229
96989W        W69315  41.850  12.869   2.126
96990W        W69316  32.463  27.686  12.021
96991W        W69317   9.152   4.771  14.373
96992W        W69318  37.039  33.838  12.499
96993W        W69319  19.698  21.755  14.343
96994W        W69320   9.964  33.417   2.736
96995W        W69321  17.087   9.416  10.726
96996W        W69322  19.111  10.280   1.439
96997W        W69323  22.420  17.389   2.322
96998W        W69324   0.946  29.087   1.932
96999W        W69325   1.921  32.940  13.318
97000W        W69326  41.729  19.159   0.335
97001W        W69327  10.562  33.556  12.863
97002W        W69328  16.482  12.126   0.385
97003W        W69329  25.218   6.316   2.312
97004W        W69330   2.670  44.977   0.680
97005W        W69331  34.914   9.747   0.623
97006W        W69332  28.174  11.603   3.157
97007W        W69333  12.212  43.951   4.504
97008W        W69334  27.983   8.739  10.612
97009W        W69335  35.153  26.706  12.143
97010W        W69336  36.177  11.799  13.816
97011W        W69337  29.471  28.095  12.631
97012W        W69338   5.386  30.928   3.261
97013W        W69339  30.492  16.802   2.646
97014W        W69340  27.383  34.443  13.319
97015W        W69341   2.802  21.495   4.168
97016W        W69342  44.074  42.448  14.306
97017W        W69343  36.031  35.943  13.056
97018W        W69344  11.380  37.102  12.013
97019W        W69345  41.883  16.337   1.528
97020W        W69346  44.985  19.183   4.114
97021W        W69347  11.622  21.640   4.311
97022W        W69348   8.535   8.661  14.754
97023W        W69349  33.269  32.858  13.013
97024W        W69350  12.618  38.426   0.412
97025W        W69351   3.403  31.921  11.080
97026W        W69352  13.772  10.465  13.716
97027W        W69353  34.360   1.340   2.667
97028W        W69354  32.438  39.776  11.581
97029W        W69355  25.738   3.396  14.159
97030W        W69356  21.713  43.382  11.563
97031W        W69357  15.700  14.313   1.286
97032W        W69358  14.040  16.673   3.217
97033W        W69359  38.934   1.839  10.720
97034W        W69360   2.840  29.089  13.904
97035W        W69361  33.657   8.898  12.129
97036W        W69362   1.266  20.904  11.039
97037W        W69363   9.260  37.496   0.835
97038W        W69364  25.490   3.190  13.756
97039W        W69365   5.138  13.666   1.077
97040W        W69366  20.621  20.694   1.099
97041W        W69367  11.773  22.802  11.216
97042W        W69368  24.040  17.748  14.304
97043W        W69369  18.593   8.344   2.277
97044W        W69370   9.804   9.549   0.738
97045W        W69371   8.237  18.348   1.885
97046W        W69372  22.155  32.403   0.463
97047W        W69373  30.883  28.098  10.786
97048W        W69374  37.098  10.858  14.573
97049W        W69375  13.486  15.691   3.385
97050W        W69376  22.594  43.194  12.858
97051W        W69377  23.201  13.073   3.389
97052W        W69378   1.463  22.520  13.552
97053W        W69379   8.416  26.719   5.242
97054W        W69380   4.442  35.389  10.695
97055W        W69381  43.672  41.549  14.634
97056W        W69382  36.920  11.718   2.841
97057W        W69383  32.636  14.341   0.507
97058W        W69384  39.002   5.984  14.260
97059W        W69385  36.086  44.346  11.780
97060W        W69386   5.311   9.671   3.135
97061W        W69387   8.674  19.024  12.528
97062W        W69388  20.457  27.336   3.164
97063W        W69389  33.766  27.082  12.167
97064W        W69390   2.631   9.680   1.743
97065W        W69391  21.407  15.459   5.243
97066W        W69392  29.868  27.532   2.042
97067W        W69393  40.092  10.849  13.428
97068W        W69394  39.480   8.761   0.321
97069W        W69395   5.904  41.067  13.505
97070W        W69396  14.736   9.912   0.451
97071W        W69397   3.723  35.984   0.863
97072W        W69398   4.454  36.978  11.532
97073W        W69399  14.139  25.332  12.690
97074W        W69400  32.099  13.877   5.011
97075W        W69401  39.393  28.495   1.287
97076W        W69402  40.690  23.734  12.854
97077W        W69403  24.510   4.684   4.746
97078W        W69404  11.465  21.752  11.187
97079W        W69405  27.485  18.349   0.383
97080W        W69406   6.007   6.476   3.615
97081W        W69407  33.987   2.970  12.489
97082W        W69408  29.468  18.354   4.719
97083W        W69409  41.870  12.491   0.713
97084W        W69410  37.716  44.865  11.834
97085W        W69411  16.224  38.534  12.456
97086W        W69412  16.913  30.219   2.385
97087W        W69413  29.599  23.087   4.621
97088W        W69414   6.180  16.653   4.852
97089W        W69415  29.050  17.723   4.205
97090W        W69416  12.474  29.468   3.322
97091W        W69417  41.318  34.056   0.813
97092W        W69418   0.250   2.528  13.604
97093W        W69419   2.817  34.342  14.072
97094W        W69420  19.466  15.658  10.670
97095W        W69421  11.946  36.623  12.087
97096W        W69422  40.379  43.802   0.290
97097W        W69423   0.979   2.331   2.611
97098W        W69424  14.413  22.118  13.391
97099W        W69425  33.139  43.358   1.385
97100W        W69426  21.336  17.883  14.787
97101W        W69427  40.658  15.180  10.554
97102W        W69428  15.879  14.884   0.688
97103W        W69429  24.980  20.868   1.918
97104W        W69430  30.161  28.249   9.854
97105W        W69431  19.128  37.291   0.095
97106W        W69432  35.227  31.473  11.647
97107W        W69433  25.446   6.216   1.711
97108W        W69434  34.554  25.402  11.990
97109W        W69435  30.467  15.628  14.365
97110W        W69436  38.575  16.582   3.351
97111W        W69437  24.029  18.253   4.406
97112W        W69438  22.817  10.913  13.305
97113W        W69439  43.949  17.774   2.453
97114W        W69440  42.195  32.482   0.935
97115W        W69441  43.233  34.865  12.482
97116W        W69442   7.347  40.339  13.400
97117W        W69443  35.116  29.317   2.768
97118W        W69444  21.068  12.079   1.444
97119W        W69445  10.123  28.311   2.512
97120W        W69446   6.183   2.281  11.465
97121W        W69447  13.897  28.209   0.279
97122W        W69448  23.463  16.365   0.774
97123W        W69449   3.977  21.613   3.628
97124W        W69450  39.505  15.282  13.975
97125W        W69451  21.543  25.489  11.146
97126W        W69452  41.985  41.500  14.859
97127W        W69453  39.931  25.931  14.273
97128W        W69454  43.624  33.166   2.813
97129W        W69455  36.899  16.134   0.802
97130W        W69456  13.625  10.262   2.267
97131W        W69457  28.669  43.242   1.352
97132W        W69458  40.944   0.368  14.418
97133W        W69459  39.529  19.803   1.285
97134W        W69460  25.355  36.099   3.118
97135W        W69461  16.590  24.138   0.941
97136W        W69462   3.402  37.915   2.832
97137W        W69463  39.479  17.694   4.621
97138W        W69464   1.784  16.430   0.126
97139W        W69465  14.457   6.452  14.463
97140W        W69466  29.235  23.507   2.794
97141W        W69467  37.028  26.808  11.085
97142W        W69468  20.790   3.890   0.603
97143W        W69469  23.964  33.639   5.045
97144W        W69470  17.045  34.565  12.008
97145W        W69471   1.637  16.245  11.857
97146W        W69472   2.363  44.322   4.691
97147W        W69473  31.494  17.684  10.821
97148W        W69474  43.459  26.639   2.289
97149W        W69475   0.845  10.589  12.867
97150W        W69476  15.145  26.745  13.912
97151W        W69477  14.698  39.572  12.009
97152W        W69478  26.999  35.650   3.701
97153W        W69479  42.839  18.718   2.864
97154W        W69480  33.097  19.131   1.397
97155W        W69481   1.808  15.917   0.235
97156W        W69482  10.739  41.559   0.774
97157W        W69483  17.151  41.597  13.887
97158W        W69484  40.104   1.954   1.771
97159W        W69485  23.895  37.363   0.755
97160W        W69486  43.033   3.352   2.158
97161W        W69487  39.640   7.867   1.294
97162W        W69488  38.375  28.070  11.463
97163W        W69489   2.386   1.495  12.071
97164W        W69490  26.192  29.004   0.263
97165W        W69491   7.071  26.077   4.154
97166W        W69492  44.746   9.261   2.468
97167W        W69493  29.752   8.734   2.276
97168W        W69494  14.768  39.959   3.692
97169W        W69495  19.512   0.987   2.642
97170W        W69496  24.016  19.585   2.307
97171W        W69497  42.620   1.364  13.477
97172W        W69498  44.860  12.408  14.085
97173W        W69499   8.907  38.594  14.319
97174W        W69500   6.380  12.272   4.387
97175W        W69501  38.674   2.346  10.704
97176W        W69502  34.582  27.803   1.995
97177W        W69503  21.523  14.949  12.021
97178W        W69504  18.810  20.292   3.792
97179W        W69505  16.456  26.123  10.912
97180W        W69506  40.501  12.497  11.971
97181W        W69507  22.138  19.516   2.905
97182W        W69508   6.307   0.749   3.126
97183W        W69509  15.616  19.579  13.952
97184W        W69510  26.475  19.714   1.798
97185W        W69511   7.841   6.420  10.594
97186W        W69512   8.810  34.185  12.306
97187W        W69513  35.707  17.671   4.244
97188W        W69514  36.093  22.286   0.411
97189W        W69515   2.812  44.358   3.597
97190W        W69516  40.019  35.977  11.552
97191W        W69517  25.619  19.023   0.805
97192W        W69518  42.584  43.870   1.784
97193W        W69519  14.365  15.970  11.710
97194W        W69520  27.154  34.456   2.795
97195W        W69521  28.877   3.328   1.021
97196W        W69522  43.460   8.119  11.535
97197W        W69523  27.263   5.223  13.589
97198W        W69524  38.073  42.854   2.125
97199W        W69525  27.672  25.086   2.699
97200W        W69526  34.544  35.003  13.782
97201W        W69527  15.365  38.715   2.254
97202W        W69528  13.562  31.192   2.192
97203W        W69529  36.448  32.848   2.041
97204W        W69530  43.354  24.786  13.413
97205W        W69531  33.236  23.689  12.069
97206W        W69532  29.949  25.756   4.691
97207W        W69533  16.232  28.956   2.785
97208W        W69534   5.559  17.013  14.254
97209W        W69535  10.237  30.671   1.805
97210W        W69536  25.667  42.382  12.075
97211W        W69537  13.331   2.873   0.398
97212W        W69538  15.693   8.655  10.717
97213W        W69539  32.561  23.571   2.768
97214W        W69540  34.636  17.296  13.084
97215W        W69541  43.971  16.150   0.987
97216W        W69542   3.802  25.874  14.465
97217W        W69543  11.302   7.777  13.513
97218W        W69544  35.639  42.129   2.927
97219W        W69545  22.107   1.249   0.415
97220W        W69546  19.442  16.221  13.013
97221W        W69547  40.978  29.171  10.520
97222W        W69548  14.866  25.902  14.400
97223W        W69549  10.174  31.989  12.554
97224W        W69550  13.016  37.834   1.430
97225W        W69551   2.392  20.626   1.786
97226W        W69552  21.028  31.384  12.030
97227W        W69553   8.772   1.808   1.986
97228W        W69554  44.977  11.237  10.884
97229W        W69555  24.715  36.950   1.015
97230W        W69556  30.695  43.284  12.046
97231W        W69557  35.311  43.049  13.348
97232W        W69558   5.852  26.505  13.284
97233W        W69559  31.094  35.069   1.247
97234W        W69560  26.107  41.286  12.861
97235W        W69561  38.910   9.773  13.544
97236W        W69562   7.496  32.047  12.859
97237W        W69563  42.436  28.258  11.547
97238W        W69564  28.593  25.958   9.665
97239W        W69565  41.469   8.701   3.574
97240W        W69566   2.424  35.180   2.730
97241W        W69567   5.915  44.252   0.695
97242W        W69568  14.237  14.544  14.077
97243W        W69569  19.485   0.407  11.900
97244W        W69570  12.776   3.785  11.896
97245W        W69571  18.499  21.053  12.913
97246W        W69572  12.791   5.180   2.915
97247W        W69573  38.074  21.783  12.857
97248W        W69574   4.870   9.250  14.512
97249W        W69575  20.227  20.396  14.180
97250W        W69576  14.753   5.451  12.975
97251W        W69577  13.394  38.078   0.957
97252W        W69578  20.920  24.049   4.977
97253W        W69579  36.339  33.072   1.189
97254W        W69580  10.872  34.615   0.725
97255W        W69581  21.030   7.776   3.366
97256W        W69582  12.962  15.315  14.816
97257W        W69583   9.378  10.865   0.268
97258W        W69584   2.480  16.569   4.671
97259W        W69585  24.495   5.827  13.493
97260W        W69586  27.717  10.692   1.133
97261W        W69587   3.412  28.471  10.791
97262W        W69588  43.723  38.132  13.489
97263W        W69589  34.920  41.056  13.116
97264W        W69590  34.332  29.380   1.013
97265W        W69591  11.160  32.466  13.915
97266W        W69592  33.918   3.843  14.734
97267W        W69593   3.967  10.219   3.254
97268W        W69594  31.519  23.461  13.200
97269W        W69595  18.803   0.132  14.822
97270W        W69596  29.653  14.566  11.206
97271W        W69597  37.118   7.449   1.728
97272W        W69598   4.250  18.204  11.980
97273W        W69599  14.520  22.196   3.333
97274W        W69600  33.145   4.128  14.980
97275W        W69601  13.352  24.532   1.695
97276W        W69602  42.383  43.464   1.519
97277W        W69603   7.581   0.804   0.924
97278W        W69604  27.562  28.909  10.554
97279W        W69605  14.814  43.982   4.226
97280W        W69606  18.185  36.127  13.581
97281W        W69607  30.487  28.231   1.169
97282W        W69608  40.121  12.615   2.222
97283W        W69609  23.696  16.999   3.615
97284W        W69610  35.845   8.365   0.903
97285W        W69611  31.012  37.494  11.929
97286W        W69612  34.488  25.646   3.831
97287W        W69613  28.708  18.811  14.285
97288W        W69614  31.531  18.732   4.689
97289W        W69615  32.090  44.439  12.893
97290W        W69616  40.092  11.475   4.077
97291W        W69617  44.448  43.417   1.453
97292W        W69618  25.481  17.515   1.164
97293W        W69619  22.218  20.604  10.964
97294W        W69620   6.858   1.316   4.647
97295W        W69621  12.398  42.582  14.734
97296W        W69622  16.885  29.694   3.250
97297W        W69623  19.356   6.171   3.055
97298W        W69624  25.883  27.541   4.195
97299W        W69625  42.410   0.960   3.181
97300W        W69626  43.663  28.565  13.303
97301W        W69627  41.078  28.353   2.733
97302W        W69628  38.648   6.428   3.785
97303W        W69629  15.578  34.883  11.451
97304W        W69630  14.669   0.731   0.177
97305W        W69631  39.000  28.199  12.467
97306W        W69632  25.467  28.867  12.357
97307W        W69633  29.664   7.492  14.377
97308W        W69634   1.203   1.017  13.053
97309W        W69635   5.382  14.544   0.485
97310W        W69636   4.863  24.161  11.974
97311W        W69637  33.186  21.188   0.535
97312W        W69638  21.409  11.415  14.683
97313W        W69639  44.028  23.033   4.179
97314W        W69640  30.454   5.247  11.529
97315W        W69641  19.051  13.313  13.539
97316W        W69642  39.825  16.136   2.899
97317W        W69643  16.432  20.267   1.726
97318W        W69644   9.773  31.274   0.486
97319W        W69645  37.227   6.174   4.275
97320W        W69646   6.202  10.223   2.303
97321W        W69647   0.751   7.924  12.531
97322W        W69648  40.984   2.524   1.412
97323W        W69649  19.712  25.914  11.890
97324W        W69650   1.888  12.265  14.965
97325W        W69651  12.748  36.220   4.257
97326W        W69652  27.314  40.934  10.969
97327W        W69653   5.878  42.802   4.513
97328W        W69654  16.665  29.652   2.792
97329W        W69655   7.439  39.458   3.157
97330W        W69656  36.962  29.705   0.406
97331W        W69657  19.485  40.961  11.346
97332W        W69658   8.912   6.324   1.859
97333W        W69659  20.117  26.497   4.660
97334W        W69660   1.401   9.608  14.537
97335W        W69661  16.546   7.409   4.343
97336W        W69662  10.548  13.069   0.865
97337W        W69663  32.137  12.189  12.559
97338W        W69664  13.202  15.972   4.553
97339W        W69665  10.756  42.588   5.156
97340W        W69666  37.479   2.458   1.848
97341W        W69667  39.961  41.022   2.832
97342W        W69668  25.699  43.690  14.873
97343W        W69669  29.950  12.116  11.059
97344W        W69670   7.789  12.587   1.306
97345W        W69671  41.873  15.786   2.815
97346W        W69672   6.390  34.464  11.938
97347W        W69673   9.419  17.145   1.210
97348W        W69674  38.753   6.302   2.143
97349W        W69675  17.861   7.196  12.555
97350W        W69676   3.419   3.306  13.906
97351W        W69677   9.059  34.140   4.204
97352W        W69678  20.194  10.914   2.674
97353W        W69679  10.325  31.486  13.877
97354W        W69680  25.291  15.654   2.861
97355W        W69681  14.410  41.791  13.776
97356W        W69682  40.600   0.249  12.865
97357W        W69683  32.309   2.964   1.868
97358W        W69684  36.369  30.639  12.535
97359W        W69685  17.887  28.794   4.297
97360W        W69686  44.241  40.267  13.305
97361W        W69687  10.130  27.627  11.988
97362W        W69688  21.727  39.460   0.999
97363W        W69689  43.404  14.751  12.640
97364W        W69690  31.463  36.324   0.886
97365W        W69691  34.561  24.542   0.789
97366W        W69692   7.200  26.430   3.197
97367W        W69693  34.022  15.822   2.191
97368W        W69694  15.151  35.759   5.161
97369W        W69695  23.100  30.877  11.365
97370W        W69696  26.055  38.376   4.610
97371W        W69697   0.045   6.297  11.108
97372W        W69698  12.936  21.012   4.662
97373W        W69699  38.264   1.285   4.160
97374W        W69700  32.102  41.299  14.794
97375W        W69701  44.447  13.431  12.310
97376W        W69702  13.353  30.901   3.353
97377W        W69703  20.048   6.344  13.893
97378W        W69704   6.080  23.172  13.388
97379W        W69705  21.122  32.690  13.454
97380W        W69706  13.037  12.091  13.599
97381W        W69707  44.779  11.755  10.133
97382W        W69708  13.635   9.891  13.074
97383W        W69709   0.978  21.451   0.292
97384W        W69710  41.970  12.405   4.459
97385W        W69711  12.149  22.149  11.048
97386W        W69712   9.213  31.576  11.122
97387W        W69713   4.451  16.023   4.065
97388W        W69714  27.922  34.532   4.919
97389W        W69715  14.863  43.444  13.661
97390W        W69716  30.443  27.222  14.447
97391W        W69717  17.251   7.313   4.633
97392W        W69718  14.597  19.259  14.982
97393W        W69719  15.041  28.864  12.031
97394W        W69720  13.894  28.944   1.763
97395W        W69721  29.125  43.094   4.569
97396W        W69722  30.825  17.417   5.047
97397W        W69723   6.480  43.592  10.499
97398W        W69724   2.677   0.650  14.466
97399W        W69725   3.531  39.895   4.015
97400W        W69726  42.408  31.180  13.320
97401W        W69727  28.048  36.062   1.935
97402W        W69728  38.027   8.244   2.928
97403W        W69729  16.592  22.252   2.556
97404W        W69730  27.489  16.772  13.906
97405W        W69731  12.318   7.153   2.640
97406W        W69732  14.915   0.953   4.859
97407W        W69733   6.421  35.851  13.000
97408W        W69734  23.830   3.981   3.826
97409W        W69735  44.548   0.811   2.329
97410W        W69736  21.008   2.360  12.159
97411W        W69737   9.089   0.410   4.143
97412W        W69738  14.679  37.554   0.892
97413W        W69739   7.251  25.068   0.816
97414W        W69740  27.195  36.956   2.310
97415W        W69741   0.329  34.150  13.773
97416W        W69742  31.398  15.029   0.380
97417W        W69743  14.748  29.424  14.412
97418W        W69744  34.696  34.518  13.573
97419W        W69745   2.207  27.926  12.504
97420W        W69746  42.977  13.432  14.438
97421W        W69747  42.273  41.856   2.266
97422W        W69748   5.819  11.672   2.386
97423W        W69749  20.765   7.709  12.062
97424W        W69750  31.515  17.745   1.733
97425W        W69751   8.303  14.694  10.575
97426W        W69752  33.152  36.054   1.669
97427W        W69753   7.389  44.053   0.285
97428W        W69754  40.663  37.040  10.751
97429W        W69755  10.905   0.826  14.579
97430W        W69756  27.527  37.074   0.907
97431W        W69757   9.296  33.484   4.632
97432W        W69758  28.433  29.985   4.575
97433W        W69759   7.116   7.258  13.451
97434W        W69760  36.110   8.153  12.799
97435W        W69761   8.156   1.999   4.146
97436W        W69762  26.889  36.550  11.637
97437W        W69763   7.215  36.019   1.227
97438W        W69764  12.549   5.691   4.184
97439W        W69765  17.854   8.912   1.203
97440W        W69766  35.549   0.396   3.646
97441W        W69767  30.929  27.959   3.396
97442W        W69768  12.782  36.899   3.327
97443W        W69769  29.806  32.161   2.828
97444W        W69770   6.181  15.927  13.707
97445W        W69771  21.553  17.297  11.360
97446W        W69772  32.486   8.689   1.714
97447W        W69773   2.925  28.718   4.251
97448W        W69774   9.861   7.207  12.808
97449W        W69775   3.945  13.238  12.126
97450W        W69776  22.307  25.599  11.233
97451W        W69777  22.000   2.347  11.927
97452W        W69778  10.432  12.193  11.560
97453W        W69779  15.278  22.448  13.049
97454W        W69780  35.237  36.780  11.225
97455W        W69781  29.975   5.826  12.149
97456W        W69782   3.859  16.336  14.358
97457W        W69783  41.264  44.557  13.890
97458W        W69784   8.348  21.276   4.070
97459W        W69785   5.744  11.073  10.660
97460W        W69786  21.284  11.027  11.874
97461W        W69787  32.650  42.532   2.289
97462W        W69788  27.848   6.289  14.581
97463W        W69789  40.397  36.236   3.834
97464W        W69790  42.278  21.563   0.547
97465W        W69791   2.842  40.443  12.032
97466W        W69792   3.671  42.881  14.989
97467W        W69793  41.003  32.342  11.508
97468W        W69794  27.277  13.405   3.263
97469W        W69795  23.681  17.697   1.398
97470W        W69796   8.737  38.131   0.140
97471W        W69797  23.034  13.864  13.530
97472W        W69798  41.650  22.035   0.382
97473W        W69799   4.095  21.520  13.580
97474W        W69800  36.332  17.910   9.892
97475W        W69801  34.872  33.537   3.819
97476W        W69802  26.403  11.194   1.318
97477W        W69803  27.655  39.743  11.568
97478W        W69804  42.063   8.625  10.283
97479W        W69805  34.074  36.431   4.074
97480W        W69806  12.800  15.314   1.871
97481W        W69807  13.701  34.906   4.166
97482W        W69808   3.524  43.894  12.083
97483W        W69809  13.939  39.959  12.795
97484W        W69810  25.119   7.112  14.310
97485W        W69811  38.407  34.766  14.251
97486W        W69812  20.560  36.811   3.183
97487W        W69813  36.612   6.076   1.892
97488W        W69814  40.878  13.195  11.677
97489W        W69815  37.109  43.428  11.662
97490W        W69816  10.701  22.178  11.611
97491W        W69817  31.032   8.220  10.684
97492W        W69818  37.052  10.743  14.060
97493W        W69819  26.787  35.829  10.808
97494W        W69820  43.547  23.435  11.011
97495W        W69821   0.748  42.650   0.089
97496W        W69822  34.134  41.858  14.440
97497W        W69823  30.399  13.853  14.309
97498W        W69824  41.146   2.697   0.416
97499W        W69825  36.593  41.830   1.592
97500W        W69826  23.405  39.999   2.300
97501W        W69827   2.365  28.429   0.793
97502W        W69828  10.144  24.711  14.140
97503W        W69829  14.831  40.398   0.854
97504W        W69830  44.450  19.138  13.061
97505W        W69831  26.955  25.699  14.529
97506W        W69832  15.306   2.367   1.614
97507W        W69833  41.664  19.140   1.793
97508W        W69834  27.886  19.861  13.777
97509W        W69835  25.698  21.453   4.013
97510W        W69836  35.136  44.182  11.707
97511W        W69837  40.468   3.453  11.525
97512W        W69838  35.017  34.743  14.343
97513W        W69839  38.060  19.663   0.873
97514W        W69840  17.999  22.494   2.620
97515W        W69841   9.557  16.598  14.430
97516W        W69842  15.554  22.454   4.126
97517W        W69843  25.541   6.782   4.500
97518W        W69844  11.719   9.756  12.636
97519W        W69845  18.667  31.926  11.735
97520W        W69846  22.400  12.250   4.937
97521W        W69847  32.144   6.443   3.291
97522W        W69848  17.142  34.049   1.921
97523W        W69849  17.687  35.984  13.058
97524W        W69850  24.738  28.737   0.778
97525W        W69851  26.981  28.107  12.191
97526W        W69852  43.559  39.172  14.302
97527W        W69853  18.721  31.550   0.999
97528W        W69854  32.489  14.608   4.709
97529W        W69855  38.506  43.256  13.360
97530W        W69856   7.878  29.216  12.957
97531W        W69857  39.799  39.249  13.577
97532W        W69858  27.191  28.022   4.099
97533W        W69859   8.539  30.884  14.888
97534W        W69860  29.415  13.960  13.343
97535W        W69861  39.832   9.215   1.866
97536W        W69862  13.934  40.221  11.954
97537W        W69863  38.906   3.209  14.389
97538W        W69864  23.839   6.251   3.303
97539W        W69865  44.278  39.406   1.342
97540W        W69866  30.936  18.548  11.205
97541W        W69867  29.976  14.117   1.809
97542W        W69868  32.324  22.627  12.013
97543W        W69869  27.438  25.483  14.510
97544W        W69870  17.197  10.365  12.437
97545W        W69871  32.368   8.901   1.235
97546W        W69872  42.970  32.592  10.548
97547W        W69873  36.492  14.719  13.250
97548W        W69874   1.950  38.803   3.607
97549W        W69875  35.002  27.042   2.565
97550W        W69876  11.815  42.971  10.605
97551W        W69877   4.332  36.608   1.011
97552W        W69878  29.012  35.578  11.137
97553W        W69879   6.588   2.219   4.472
97554W        W69880   7.418  44.115   4.793
97555W        W69881   6.506  35.293  10.060
97556W        W69882  39.046   2.414   2.333
97557W        W69883  35.346  30.094  12.012
97558W        W69884  23.976  23.082   2.626
97559W        W69885  39.488  38.983  11.698
97560W        W69886  35.316   8.236   0.909
97561W        W69887  43.225   0.113  12.405
97562W        W69888  27.694  35.161   2.697
97563W        W69889  24.140   9.730  12.849
97564W        W69890  36.202  36.459  14.434
97565W        W69891  20.062  24.727   0.550
97566W        W69892   9.327   2.924  12.630
97567W        W69893  26.635  41.049  14.815
97568W        W69894  18.788   9.707   0.393
97569W        W69895  13.234  27.254   0.781
97570W        W69896  29.075  14.218   3.107
97571W        W69897  11.703   8.574  12.127
97572W        W69898  18.267  41.075   0.558
97573W        W69899  34.413  10.822  13.305
97574W        W69900  30.236  22.196   3.888
97575W        W69901  19.949   3.168  11.220
97576W        W69902  40.860  29.117  14.765
97577W        W69903  25.265  38.817  11.966
97578W        W69904  10.059  18.671  13.468
97579W        W69905   2.047  26.168   0.810
97580W        W69906  28.248  33.452   9.915
97581W        W69907   2.329  36.820  11.588
97582W        W69908   3.664  38.367   2.765
97583W        W69909  14.558   1.932   4.306
97584W        W69910   6.954  15.791  11.963
97585W        W69911   8.091  41.460  14.707
97586W        W69912  24.314  33.233   2.850
97587W        W69913  12.995   0.172  14.961
97588W        W69914  30.956  11.589   1.871
97589W        W69915   0.927   3.464  14.969
97590W        W69916  25.176  27.120  11.126
97591W        W69917  34.610   5.647  14.024
97592W        W69918  40.083  18.867  13.011
97593W        W69919  37.429  26.572   4.587
97594W        W69920  27.072  11.831  13.653
97595W        W69921  14.871  20.636   2.360
97596W        W69922  43.722  28.970   0.989
97597W        W69923  35.787  39.848   0.863
97598W        W69924   2.729  35.689  14.442
97599W        W69925  28.619   8.404  12.540
97600W        W69926   2.343   1.766  11.629
97601W        W69927  38.913  38.168  13.431
97602W        W69928  35.991  13.303   0.425
97603W        W69929  11.176  24.080   2.754
97604W        W69930  44.779  25.871   4.218
97605W        W69931  20.494  31.720  13.816
97606W        W69932  25.169  20.945  10.665
97607W        W69933  37.290  37.886   2.499
97608W        W69934  37.876   8.737   5.114
97609W        W69935  35.765  18.119   0.770
97610W        W69936  25.122  35.151  14.221
97611W        W69937  20.226  28.884  11.730
97612W        W69938  36.675  32.519   2.913
97613W        W69939  30.669  12.910   1.830
97614W        W69940   5.248  22.678   0.904
97615W        W69941  11.800  41.038   2.438
97616W        W69942  41.802   5.583  11.627
97617W        W69943  31.651   1.958  11.433
97618W        W69944   7.907   0.047   2.353
97619W        W69945  28.615   5.218  12.938
97620W        W69946  21.111   5.945  14.265
97621W        W69947  41.093  20.504   3.863
97622W        W69948   1.819  20.163   3.594
97623W        W69949   6.377  25.243   1.617
97624W        W69950  32.125  36.964   0.013
97625W        W69951  22.143  24.937   1.678
97626W        W69952  26.862   2.263   3.827
97627W        W69953   0.296   5.830  10.987
97628W        W69954  12.885  28.545   4.279
97629W        W69955   3.519  27.096  13.362
97630W        W69956  33.316  25.116   0.997
97631W        W69957  12.271   8.667   1.249
97632W        W69958  20.217  39.695  12.119
97633W        W69959   3.991  11.143   3.341
97634W        W69960  32.373  40.378   1.359
97635W        W69961  43.487  40.077  12.783
97636W        W69962  26.076  39.542   1.738
97637W        W69963  26.351  16.295   3.895
97638W        W69964   0.259   1.323  13.642
97639W        W69965   3.799  14.291  11.442
97640W        W69966  37.194  31.030   4.567
97641W        W69967   5.854  42.831  10.722
97642W        W69968  41.027  19.398   4.184
97643W        W69969  33.639  28.688  11.548
97644W        W69970  12.571  42.391  12.039
97645W        W69971  36.396  24.781  11.986
97646W        W69972   8.206  37.829  12.367
97647W        W69973  36.590  40.262   2.784
97648W        W69974  37.636   2.303  12.105
97649W        W69975  36.627  22.115  11.701
97650W        W69976  23.050  40.229  13.814
97651W        W69977   9.768  20.169   4.355
97652W        W69978  30.984  32.098  14.354
97653W        W69979   3.564   4.665   0.789
97654W        W69980   3.619  19.510  14.640
97655W        W69981  40.338   0.375  14.884
97656W        W69982   9.891  36.537   3.263
97657W        W69983  20.487   9.439  10.451
97658W        W69984   5.263  35.388   2.436
97659W        W69985  10.674  33.478   1.543
97660W        W69986  44.501  18.285  12.094
97661W        W69987  30.148  37.315   4.037
97662W        W69988  15.654   2.064   2.350
97663W        W69989  31.529  12.910   3.834
97664W        W69990   4.876  20.633  12.926
97665W        W69991  38.914  37.017   1.726
97666W        W69992  23.163   7.942  12.883
97667W        W69993   9.909  24.411  11.517
97668W        W69994  36.899  17.079  11.169
97669W        W69995  12.157  34.976   0.453
97670W        W69996  39.496  43.527   2.684
97671W        W69997  18.927  19.995   1.317
97672W        W69998  28.274  14.839  14.254
97673W        W69999  16.722  16.599  10.487
97674W        W70000  29.720  16.801   1.186
97675W        W70001  10.306  14.244  10.192
97676W        W70002  25.687  38.443  13.345
97677W        W70003  24.682  24.176   3.176
97678W        W70004  23.476  37.621   4.550
97679W        W70005   9.494   8.143  11.216
97680W        W70006  44.073  24.131  14.608
97681W        W70007  40.573  21.102  13.676
97682W        W70008  42.296  37.523   0.524
97683W        W70009  11.423  21.185   4.086
97684W        W70010   7.688  21.715   1.427
97685W        W70011  33.876  21.996  13.514
97686W        W70012   8.693  20.131  14.821
97687W        W70013   3.480  16.050   0.293
97688W        W70014  29.605  36.313  11.463
97689W        W70015  27.685  11.679  11.022
97690W        W70016  36.282  21.019  12.157
97691W        W70017  21.277  18.825  14.450
97692W        W70018  43.127  27.289  13.276
97693W        W70019  11.193  41.272  12.181
97694W        W70020  33.965  37.318  12.857
97695W        W70021  24.242   8.205   4.236
97696W        W70022  27.137   4.890   1.750
97697W        W70023   3.892  32.677   1.861
97698W        W70024  20.743  27.443   0.229
97699W        W70025  11.327   3.762  14.201
97700W        W70026   7.957  26.167  10.455
97701W        W70027  12.106  24.456  14.000
97702W        W70028  27.754  40.335   0.465
97703W        W70029  31.111  22.702   2.291
97704W        W70030  20.608  29.186   2.733
97705W        W70031   0.825  23.967   2.445
97706W        W70032  39.889   2.373   2.765
97707W        W70033  11.299  21.125  10.595
97708W        W70034  36.929  31.944  12.882
97709W        W70035  43.713  28.512   4.020
97710W        W70036  20.120  25.211   2.351
97711W        W70037  35.812   2.826  14.053
97712W        W70038  18.191  17.932   0.284
97713W        W70039   4.790  31.414  13.277
97714W        W70040   1.732   0.085   0.280
97715W        W70041  42.503  17.761   4.687
97716W        W70042  21.880  29.687   0.727
97717W        W70043   3.971  35.657  10.734
97718W        W70044  39.438  34.103  12.885
97719W        W70045  43.339  21.218   3.822
97720W        W70046  16.522  18.533  11.547
97721W        W70047  15.816   8.252  11.048
97722W        W70048  43.869  28.699   2.745
97723W        W70049   7.716  20.517  10.861
97724W        W70050  34.828   5.837   3.183
97725W        W70051  40.629  32.060   4.713
97726W        W70052   6.335   0.700  13.861
97727W        W70053  37.638  17.645  11.155
97728W        W70054  37.190   9.626  11.269
97729W        W70055  25.063   6.165  12.537
97730W        W70056  34.999  12.519   3.360
97731W        W70057  20.928   7.888  14.935
97732W        W70058   0.773  31.123  13.358
97733W        W70059  26.102  15.920  13.411
97734W        W70060  27.232  15.212   1.770
97735W        W70061  24.002   3.464   2.221
97736W        W70062   5.630  18.197   2.420
97737W        W70063   1.828  30.677   4.002
97738W        W70064  33.052   3.879  14.051
97739W        W70065  28.696  42.963   3.152
97740W        W70066  40.183  23.766  12.018
97741W        W70067  29.014  11.305  13.818
97742W        W70068   5.332   2.301  11.941
97743W        W70069   6.238  30.404   4.455
97744W        W70070  39.353  42.520   1.836
97745W        W70071  20.322  44.790  13.991
97746W        W70072  33.179   8.237   0.362
97747W        W70073  38.029  41.428  13.233
97748W        W70074   1.862   7.359   0.625
97749W        W70075  18.224  12.769  12.198
97750W        W70076  44.548  24.178  14.837
97751W        W70077  41.892  33.969   4.487
97752W        W70078  40.857  23.074   3.300
97753W        W70079  20.066   7.888  11.597
97754W        W70080   8.908  40.426  10.986
97755W        W70081  23.978  29.615  13.887
97756W        W70082   2.554  33.379  11.622
97757W        W70083  42.943  30.122  13.932
97758W        W70084  42.390  20.193  13.599
97759W        W70085  25.442  18.583   4.195
97760W        W70086   3.000  26.494  10.695
97761W        W70087  26.853   5.133  11.569
97762W        W70088  20.564  17.513  14.998
97763W        W70089  26.704  41.885   3.704
97764W        W70090  14.368  26.686   1.684
97765W        W70091  23.960  14.037   0.912
97766W        W70092  12.166   5.491  11.674
97767W        W70093  28.869   8.451  12.087
97768W        W70094   1.871  23.995  11.186
97769W        W70095  11.365   8.467   2.356
97770W        W70096   4.190  12.290  13.506
97771W        W70097  43.341  18.886   1.165
97772W        W70098  23.383  26.189   0.884
97773W        W70099  30.117  19.089   2.373
97774W        W70100  30.922  38.429   4.618
97775W        W70101  21.128   2.811  14.401
97776W        W70102   9.036   3.322  14.406
97777W        W70103  40.733  34.412   1.371
97778W        W70104  44.900  24.997   1.570
97779W        W70105  21.078  22.169  13.383
97780W        W70106  26.466   7.709   4.588
97781W        W70107  38.017   3.497  12.031
97782W        W70108   7.859  26.577  11.083
97783W        W70109  20.501  34.467  13.439
97784W        W70110  20.739  43.820  14.963
97785W        W70111  35.640  12.309   1.296
97786W        W70112   6.004  27.377  11.627
97787W        W70113  39.319  40.392   0.793
97788W        W70114  13.909  10.664  12.886
97789W        W70115  29.960  35.403   2.701
97790W        W70116  33.102   9.763  10.968
97791W        W70117  39.316  43.967   2.895
97792W        W70118  17.238  18.737  14.910
97793W        W70119  18.824  17.045  13.459
97794W        W70120   9.066   8.628  14.884
97795W        W70121  31.578  32.148  13.911
97796W        W70122  22.060  38.995  12.987
97797W        W70123  21.286   3.888  12.084
97798W        W70124  17.987  13.144   3.637
97799W        W70125  25.996  28.029  10.548
97800W        W70126  11.735  12.857  11.663
97801W        W70127   7.948  28.237   5.095
97802W        W70128   2.564   1.030  12.875
97803W        W70129  39.505   6.899  13.093
97804W        W70130   9.717  16.548  12.164
97805W        W70131  14.527  20.743   3.775
97806W        W70132  10.583   4.391  11.088
97807W        W70133   2.797   7.302  11.071
97808W        W70134  35.936  42.327   4.604
97809W        W70135   0.618  16.129   3.271
97810W        W70136  39.239  33.516  13.047
97811W        W70137  19.704   7.106  12.726
97812W        W70138  12.328   3.699  11.673
97813W        W70139  42.450   7.243  11.607
97814W        W70140   7.267   2.622  12.018
97815W        W70141  20.821  44.330   2.412
97816W        W70142  18.366  16.009  11.047
97817W        W70143  27.952  19.613  10.805
97818W        W70144  39.762   3.293  10.314
97819W        W70145   5.072  18.689   4.092
97820W        W70146  34.275   0.226   0.701
97821W        W70147  28.550  34.924  10.594
97822W        W70148  40.442  24.567  11.708
97823W        W70149   5.714  17.297  13.846
97824W        W70150  27.890  28.670  14.952
97825W        W70151  41.420  10.790  13.104
97826W        W70152  41.145  25.585  14.935
97827W        W70153  40.815   0.477  12.411
97828W        W70154   1.811   2.394   1.226
97829W        W70155  36.462  17.156   3.328
97830W        W70156  29.145  22.999   2.503
97831W        W70157  18.899  27.630   1.252
97832W        W70158  39.589  32.099   3.259
97833W        W70159   0.850  11.823   3.271
97834W        W70160  25.655   9.161   1.671
97835W        W70161  41.774   9.283  11.087
97836W        W70162  43.074  12.247   2.276
97837W        W70163  32.942   7.396  12.075
97838W        W70164  11.334  22.252   3.155
97839W        W70165  14.599  20.531   2.792
97840W        W70166  17.142  19.664  14.671
97841W        W70167  37.953  23.927   1.156
97842W        W70168   0.449  25.992  13.249
97843W        W70169  37.075  28.037   4.663
97844W        W70170  13.755   1.013  11.639
97845W        W70171   5.791   5.301  14.808
97846W        W70172  16.120   5.241   4.780
97847W        W70173  42.766  14.191  13.466
97848W        W70174  34.556  11.593   0.947
97849W        W70175   3.025  20.054   2.358
97850W        W70176   8.692  13.406  12.900
97851W        W70177  35.530  30.900   3.674
97852W        W70178  26.317  23.794  11.572
97853W        W70179  24.787  28.575   4.094
97854W        W70180  20.521  43.034   0.683
97855W        W70181   4.783   5.416   4.192
97856W        W70182   1.350  33.728  10.425
97857W        W70183  28.004  33.115   3.642
97858W        W70184   1.223   3.917  14.807
97859W        W70185  39.446  24.143  11.718
97860W        W70186  10.872  18.595  11.505
97861W        W70187   9.357  39.475  10.709
97862W        W70188  10.265  15.562  13.618
97863W        W70189  13.775  19.693   0.475
97864W        W70190  20.271  20.886  10.667
97865W        W70191  21.730  16.625  14.750
97866W        W70192  14.686  17.547   0.954
97867W        W70193   6.192  22.047  14.878
97868W        W70194   6.421   7.530  11.297
97869W        W70195  28.482   4.828   2.366
97870W        W70196   7.209   6.450  14.555
97871W        W70197  34.982  22.071  10.469
97872W        W70198  20.235  32.602  12.033
97873W        W70199  10.662   6.304   4.355
97874W        W70200  36.496  21.980   0.128
97875W        W70201  38.919  41.581  10.444
97876W        W70202  11.271   7.421  10.777
97877W        W70203  24.048  38.446  11.342
97878W        W70204  25.924   7.211  10.714
97879W        W70205  15.109  39.581   3.627
97880W        W70206  41.297  30.025   3.598
97881W        W70207  14.581  44.784  10.294
97882W        W70208   2.952  38.638  11.363
97883W        W70209   7.756  42.215   0.001
97884W        W70210   8.174  39.440  11.517
97885W        W70211  41.339  28.092  11.203
97886W        W70212  11.007  19.759  13.487
97887W        W70213  38.156  37.995  11.457
97888W        W70214   3.361   6.781  11.930
97889W        W70215  42.511  20.303  12.152
97890W        W70216  39.367   1.536  12.426
97891W        W70217  14.162  29.920   4.422
97892W        W70218  14.101  32.558   0.849
97893W        W70219  38.826  35.416   0.264
97894W        W70220  23.734   9.375  14.483
97895W        W70221  25.164  33.037   0.664
97896W        W70222  18.638  27.108   0.661
97897W        W70223   4.889  41.389  11.127
97898W        W70224  37.503  13.862   4.724
97899W        W70225  21.570   5.289  13.601
97900W        W70226   5.230   0.919  11.973
97901W        W70227   4.490  28.386   4.179
97902W        W70228  18.297  17.844   0.883
97903W        W70229   9.620  32.604   0.867
97904W        W70230  31.192  20.184   2.047
97905W        W70231  42.535  27.837   4.527
97906W        W70232   1.889  27.149  14.938
97907W        W70233  37.180  13.670   3.316
97908W        W70234  22.321  36.929  11.210
97909W        W70235  19.656  20.000  13.013
97910W        W70236  43.785   8.319   3.281
97911W        W70237  38.488  26.464   0.297
97912W        W70238  10.280  27.523  14.243
97913W        W70239  41.336   1.531   3.727
97914W        W70240  31.447  15.615  14.419
97915W        W70241  30.419  15.305  12.096
97916W        W70242  37.040  22.762  14.105
97917W        W70243   3.227  27.488   3.148
97918W        W70244  43.246  30.570   4.815
97919W        W70245  41.762  16.762   4.076
97920W        W70246   2.298   6.004   3.309
97921W        W70247  23.837  33.453   2.820
97922W        W70248  42.931  42.872   1.511
97923W        W70249  32.452  32.018   3.361
97924W        W70250  22.607  34.004  12.578
97925W        W70251  43.127  31.694  13.810
97926W        W70252  26.059   4.071  11.179
97927W        W70253  22.656  43.294  10.530
97928W        W70254  43.272   8.263  14.904
97929W        W70255  15.055   7.789   5.104
97930W        W70256  21.657  37.604  12.333
97931W        W70257  32.043  21.021   2.400
97932W        W70258   9.543  41.710  14.727
97933W        W70259  44.086   5.381   1.287
97934W        W70260  13.113  21.142  10.593
97935W        W70261  39.779  22.802  13.362
97936W        W70262  16.750  34.912   2.082
97937W        W70263  33.574   6.786   3.957
97938W        W70264  29.334  27.310   1.694
97939W        W70265   9.853   9.173   4.881
97940W        W70266  17.857  42.686  10.925
97941W        W70267  15.781  37.760  10.958
97942W        W70268  37.904  42.372  12.975
97943W        W70269  40.651  13.868   3.787
97944W        W70270   0.384  34.550   2.154
97945W        W70271  44.365  21.510   3.696
97946W        W70272  44.250  26.086   2.178
97947W        W70273  12.630  21.898  11.070
97948W        W70274  22.680  30.863   3.350
97949W        W70275  34.572  25.153  13.140
97950W        W70276  25.121  25.544   0.752
97951W        W70277  32.649   5.382   0.231
97952W        W70278   9.318   5.393   0.755
97953W        W70279  33.691  24.030  13.945
97954W        W70280  32.722  25.525  14.537
97955W        W70281  17.566   2.371   1.921
97956W        W70282  20.475  31.323   0.679
97957W        W70283  13.079  38.037   2.350
97958W        W70284  13.278  14.253   1.638
97959W        W70285  14.275  42.585  12.383
97960W        W70286  44.834  19.981   1.423
97961W        W70287  35.918  30.909  11.387
97962W        W70288  20.242  28.963   2.232
97963W        W70289   5.718  41.408  12.188
97964W        W70290  28.692  29.343  11.128
97965W        W70291  33.397   7.693   0.966
97966W        W70292  19.719   2.167  13.981
97967W        W70293  12.110  15.598  11.460
97968W        W70294  25.678  20.069   0.816
97969W        W70295   1.984  38.055   0.466
97970W        W70296   6.482   0.663  12.465
97971W        W70297  40.930  16.665  10.704
97972W        W70298  22.598  42.344   1.253
97973W        W70299  44.379  26.287   1.715
97974W        W70300  26.712  21.945  11.023
97975W        W70301   2.738  34.953   3.682
97976W        W70302  34.555  13.224   3.716
97977W        W70303  27.686  32.512  14.325
97978W        W70304  12.054  27.849   5.551
97979W        W70305  34.624  31.861   0.803
97980W        W70306  28.138   1.287  13.488
97981W        W70307   2.439  30.644  13.478
97982W        W70308  33.340  23.563  10.686
97983W        W70309  19.684   1.748   3.994
97984W        W70310  34.559  28.636   3.167
97985W        W70311  34.522  35.776   5.717
97986W        W70312  33.562  10.405  11.088
97987W        W70313  17.157  20.105  12.133
97988W        W70314  30.455  37.941   3.405
97989W        W70315  16.160  16.359  14.329
97990W        W70316  21.838  22.543  10.639
97991W        W70317  22.400   9.819  10.569
97992W        W70318  11.761  21.185  10.334
97993W        W70319  26.607  35.587   4.140
97994W        W70320  43.027  23.125   5.057
97995W        W70321  24.574  38.517   1.275
97996W        W70322  37.779  13.396  14.806
97997W        W70323  34.519  23.743   4.937
97998W        W70324   4.323  29.763  13.273
97999W        W70325  37.280  30.182   2.401
98000W        W70326  38.849  17.851   1.133
98001W        W70327   7.791  17.786  10.748
98002W        W70328  20.977  12.917   1.753
98003W        W70329   8.794   1.511  11.369
98004W        W70330  16.031  21.929   0.335
98005W        W70331   4.995  25.413  13.912
98006W        W70332  44.300  42.298  12.925
98007W        W70333  10.090  10.767  12.102
98008W        W70334  30.201  15.463  13.922
98009W        W70335  41.422   4.259   2.353
98010W        W70336  44.230  44.821   4.859
98011W        W70337  28.047  40.279  14.401
98012W        W70338   3.871  40.820   1.337
98013W        W70339  21.499  40.357   0.869
98014W        W70340  37.483  26.068   3.721
98015W        W70341   1.301  28.054   0.177
98016W        W70342  37.135   4.200  11.146
98017W        W70343   9.037  28.347  14.340
98018W        W70344   3.659  24.301   0.449
98019W        W70345   0.051  30.551   2.710
98020W        W70346  34.423   3.164  12.095
98021W        W70347   5.242  23.608  11.155
98022W        W70348   7.791  31.070   0.038
98023W        W70349  34.893   3.948  10.758
98024W        W70350  37.506   9.418   3.315
98025W        W70351  41.798  11.100  14.923
98026W        W70352   2.580  34.838  11.348
98027W        W70353  11.404  34.771   2.955
98028W        W70354   5.724  16.768   4.670
98029W        W70355  17.982  43.987   4.129
98030W        W70356  13.372  42.482   4.574
98031W        W70357  21.637   4.344   3.148
98032W        W70358  21.445  43.827   2.299
98033W        W70359  18.306   0.232   3.328
98034W        W70360  11.310  21.760   2.940
98035W        W70361  10.382  28.686  13.844
98036W        W70362  32.711   7.828   1.497
98037W        W70363  42.279  10.230   3.140
98038W        W70364   3.063  41.820   2.293
98039W        W70365  36.469   3.732   0.581
98040W        W70366  29.499  36.225   3.712
98041W        W70367   7.765  13.108   1.311
98042W        W70368  11.838  43.468   2.672
98043W        W70369  30.966  22.196  10.717
98044W        W70370  10.820  40.046  12.858
98045W        W70371  41.408   0.422   0.797
98046W        W70372  10.069  29.470  11.198
98047W        W70373  11.530   8.276  14.517
98048W        W70374  25.483  37.539   4.297
98049W        W70375  31.988   0.725  12.578
98050W        W70376  18.174  35.518   1.662
98051W        W70377  14.541  30.978   1.905
98052W        W70378  37.456   4.330  14.573
98053W        W70379  30.442  22.573  14.897
98054W        W70380  40.547   3.402  13.070
98055W        W70381  24.507   7.887   1.723
98056W        W70382  22.097  15.784  12.428
98057W        W70383   2.366  35.212   0.929
98058W        W70384  29.639  28.527   0.791
98059W        W70385  17.856  34.475   1.384
98060W        W70386  18.737  44.855   2.614
98061W        W70387   0.800   5.722  12.107
98062W        W70388  17.646  18.301  14.534
98063W        W70389   5.289  37.064   1.396
98064W        W70390  14.265   5.426  13.350
98065W        W70391  32.572  42.527  12.093
98066W        W70392   7.395  28.692   2.937
98067W        W70393  32.720  19.300   0.781
98068W        W70394  37.602  36.401   0.549
98069W        W70395  32.695  17.868  11.888
98070W        W70396  36.524  26.300  10.482
98071W        W70397  27.692   6.387  14.097
98072W        W70398  20.589  44.932  14.396
98073W        W70399  13.167  24.233  14.981
98074W        W70400  34.604  30.886  12.962
98075W        W70401  28.589   0.700   2.979
98076W        W70402   6.810   2.552  10.718
98077W        W70403  22.130   1.192   4.186
98078W        W70404  41.534   3.092   0.298
98079W        W70405  32.158   7.432  14.312
98080W        W70406  14.715  12.070   1.738
98081W        W70407  18.309  23.952  11.643
98082W        W70408  17.042  26.245  13.529
98083W        W70409  36.527  22.679  11.186
98084W        W70410  13.565   0.263  13.843
98085W        W70411  37.528  11.801   1.287
98086W        W70412  15.257   4.473  11.021
98087W        W70413  18.796   9.804   2.165
98088W        W70414   3.071  23.633   5.302
98089W        W70415  13.719  43.759   2.385
98090W        W70416  16.314  28.576   3.187
98091W        W70417   9.576  15.121   1.312
98092W        W70418   9.873  21.939  12.072
98093W        W70419  28.445   6.433  10.583
98094W        W70420   5.343  33.214  13.346
98095W        W70421  30.934   6.143   2.617
98096W        W70422  16.697  18.021   4.582
98097W        W70423  42.986  31.411  11.526
98098W        W70424  33.359  42.196  10.450
98099W        W70425  23.106  34.670   0.707
98100W        W70426  24.187   5.188   0.219
98101W        W70427  24.004   7.911   0.808
98102W        W70428  24.085  34.552  11.183
98103W        W70429  24.417  39.587   3.208
98104W        W70430   3.321  34.177   3.018
98105W        W70431  29.490   8.146   0.467
98106W        W70432  41.536   5.805  13.409
98107W        W70433  16.552  26.576   3.296
98108W        W70434   6.438   6.769   3.674
98109W        W70435  44.919  18.118  12.495
98110W        W70436  38.904  29.731  12.568
98111W        W70437  42.738  27.987   1.845
98112W        W70438  42.948  40.527  14.876
98113W        W70439   2.383  28.673   0.325
98114W        W70440  10.743  10.998   1.876
98115W        W70441   2.317  26.473   1.395
98116W        W70442   1.680  32.556   0.080
98117W        W70443  36.454  11.104   1.697
98118W        W70444   4.477   8.284   0.962
98119W        W70445   1.972  14.076  10.645
98120W        W70446  10.579  35.013   3.909
98121W        W70447  25.183  40.847  13.750
98122W        W70448  30.809  22.558  13.963
98123W        W70449  42.345  26.705  13.328
98124W        W70450   1.490  12.836  11.969
98125W        W70451  25.815  19.854  10.651
98126W        W70452   9.595  32.059   0.768
98127W        W70453   8.865  32.593   0.416
98128W        W70454  14.093  32.174  10.687
98129W        W70455  25.298   0.972   5.016
98130W        W70456   7.887  29.996   2.430
98131W        W70457  40.566  35.595  13.345
98132W        W70458   8.854  40.217   0.974
98133W        W70459  42.102  44.841   2.804
98134W        W70460  34.988  42.714   1.457
98135W        W70461  12.364  13.162  13.561
98136W        W70462  12.414  15.309  10.471
98137W        W70463  44.032   3.222  12.989
98138W        W70464  28.831  19.827  13.772
98139W        W70465   4.742   8.133   0.518
98140W        W70466   2.196  40.826  12.635
98141W        W70467  18.309  18.716  12.750
98142W        W70468   0.205  30.548  10.676
98143W        W70469  44.491  17.362   0.932
98144W        W70470   2.757  26.932  11.552
98145W        W70471   2.017   8.843  11.548
98146W        W70472  20.467  38.961  12.053
98147W        W70473   3.019  12.806   2.164
98148W        W70474   7.894  36.002  14.274
98149W        W70475   1.477  16.697  12.054
98150W        W70476  24.824  10.597   4.509
98151W        W70477  42.785  33.794  14.905
98152W        W70478   7.950  24.708   2.624
98153W        W70479   9.859  29.190  14.409
98154W        W70480  15.178  19.133   0.218
98155W        W70481  35.000   8.062   2.303
98156W        W70482   2.718  26.650   2.363
98157W        W70483  16.145  22.180  12.569
98158W        W70484  35.765  35.584  11.045
98159W        W70485  38.197   0.030  11.971
98160W        W70486   9.389  43.920  11.574
98161W        W70487  38.319  31.161  12.306
98162W        W70488  26.174   3.127  11.615
98163W        W70489  33.634  10.737   4.715
98164W        W70490  40.747  32.970   3.108
98165W        W70491  27.663  36.062  11.596
98166W        W70492  36.336  11.231  14.321
98167W        W70493  23.341  25.897   0.212
98168W        W70494  38.099  19.090  13.378
98169W        W70495  25.118  25.621  10.559
98170W        W70496  32.877  24.254   1.913
98171W        W70497  42.086  44.229  13.300
98172W        W70498  44.744  26.177   4.658
98173W        W70499  43.532  13.195   2.786
98174W        W70500  26.169  42.337  11.312
98175W        W70501  23.677  18.777  11.107
98176W        W70502   4.904  43.167  14.600
98177W        W70503  33.692   8.174  11.435
98178W        W70504   8.852  37.225  13.297
98179W        W70505  39.261  12.205   2.190
98180W        W70506  16.163  27.758  11.389
98181W        W70507  28.554  18.492   2.845
98182W        W70508  36.041  24.611   3.079
98183W        W70509  44.885  40.134   4.100
98184W        W70510   2.216  10.873   2.940
98185W        W70511  12.184  12.862  12.844
98186W        W70512  35.354  37.662   3.740
98187W        W70513  44.750  17.552  14.680
98188W        W70514   9.811  16.177   4.579
98189W        W70515  43.924   4.387   1.469
98190W        W70516  11.601  10.305  13.565
98191W        W70517  11.358  22.774  12.811
98192W        W70518  17.215   0.557   4.921
98193W        W70519  16.974  38.987  13.057
98194W        W70520  31.626  28.474   2.822
98195W        W70521   6.671   0.986   3.401
98196W        W70522  21.654  26.900  12.302
98197W        W70523  39.123  37.509  13.932
98198W        W70524  17.839  15.392  10.137
98199W        W70525  40.666  20.153  11.459
98200W        W70526  19.443  34.494   4.077
98201W        W70527   7.426  35.665   0.604
98202W        W70528   5.022  30.500  13.292
98203W        W70529   4.850  41.326   0.356
98204W        W70530  38.379   2.403   0.944
98205W        W70531   2.744  39.087   1.794
98206W        W70532   5.150   6.486  13.752
98207W        W70533  22.140  13.052  13.291
98208W        W70534  22.500  33.731   3.729
98209W        W70535  17.146  10.189   4.160
98210W        W70536  16.338  17.144   1.407
98211W        W70537  13.007  44.121  14.445
98212W        W70538  29.816  20.839   4.170
98213W        W70539  22.624   4.882  11.279
98214W        W70540  13.659   4.341   1.284
98215W        W70541  31.113  25.221   4.245
98216W        W70542  37.905   7.663   0.812
98217W        W70543  32.520  44.163  14.907
98218W        W70544  30.654  32.582   1.856
98219W        W70545  11.199  38.399   0.465
98220W        W70546  21.519   6.808  14.481
98221W        W70547  27.670   3.203   0.270
98222W        W70548  33.562  23.955  14.474
98223W        W70549  32.006   7.871  12.650
98224W        W70550  26.445   4.961   0.428
98225W        W70551   4.274  21.788  12.904
98226W        W70552   6.765  38.533  11.622
98227W        W70553  21.524  13.779   3.616
98228W        W70554  16.180  30.933  11.079
98229W        W70555  30.024  23.341  14.989
98230W        W70556  11.324  36.763   1.967
98231W        W70557   4.823  34.020  10.677
98232W        W70558  28.924  27.734   0.377
98233W        W70559  44.472  37.952   4.823
98234W        W70560  11.860  25.509   4.055
98235W        W70561  38.877  44.030  11.593
98236W        W70562  31.183  39.058   2.217
98237W        W70563  21.112  37.894   5.027
98238W        W70564   6.294  34.453   5.064
98239W        W70565  35.910  23.637  14.905
98240W        W70566  14.172  21.665   4.571
98241W        W70567  17.722  29.861   2.576
98242W        W70568   2.320   5.133  14.522
98243W        W70569  44.445  26.442  14.022
98244W        W70570  36.360   1.365  12.531
98245W        W70571   4.818  25.475  12.142
98246W        W70572  21.534  28.182  13.912
98247W        W70573  20.642  10.715  12.665
98248W        W70574   3.450  31.614   2.614
98249W        W70575  11.848   1.854   4.670
98250W        W70576   6.383   7.184  10.923
98251W        W70577  13.821  37.382  11.421
98252W        W70578   0.903   2.929  12.970
98253W        W70579  28.999   8.937  11.020
98254W        W70580   2.550  38.718   1.441
98255W        W70581  23.056  41.766  12.352
98256W        W70582  38.775  20.941   3.844
98257W        W70583  20.835  10.398   0.213
98258W        W70584  43.219  27.798   4.994
98259W        W70585  15.923  43.029  11.166
98260W        W70586  41.404  15.739   3.152
98261W        W70587  42.761  30.375  14.372
98262W        W70588  12.671  43.774  14.593
98263W        W70589  12.332  14.826   2.392
98264W        W70590  30.269   3.994   0.224
98265W        W70591  39.894  16.551  11.591
98266W        W70592  11.349  25.987   0.386
98267W        W70593  29.053  18.691   4.712
98268W        W70594  23.043  12.694  14.509
98269W        W70595  31.503   5.382  11.192
98270W        W70596  11.773  14.662   0.823
98271W        W70597   5.549   8.500  14.924
98272W        W70598   8.297  24.619   1.636
98273W        W70599  37.085  30.500  11.590
98274W        W70600  10.798   8.675  13.401
98275W        W70601  16.808  30.678   0.837
98276W        W70602  11.760  42.283  14.374
98277W        W70603  14.285  42.719  11.487
98278W        W70604  18.560  26.523  11.447
98279W        W70605  11.365  32.367  11.193
98280W        W70606  27.993  29.503   0.806
98281W        W70607  22.144  15.132  13.413
98282W        W70608   8.323  26.408   3.251
98283W        W70609  20.131  32.447   2.788
98284W        W70610  37.588   6.680   5.040
98285W        W70611  35.847  36.996   1.834
98286W        W70612  28.924  12.764   4.212
98287W        W70613  19.912  10.578  14.548
98288W        W70614  35.943  23.907  13.363
98289W        W70615  43.365   6.458   2.262
98290W        W70616   6.261  13.138   0.279
98291W        W70617  42.686  28.629  13.711
98292W        W70618   7.371  18.669   3.346
98293W        W70619  28.166  33.405  14.833
98294W        W70620  16.757  27.560   2.849
98295W        W70621  24.097   8.561  12.084
98296W        W70622  14.826  43.241   0.377
98297W        W70623  16.373   6.368   2.805
98298W        W70624  16.446  29.470  14.782
98299W        W70625  15.117  41.329   4.135
98300W        W70626  14.330   7.290   4.647
98301W        W70627  39.709  33.647   4.306
98302W        W70628  43.542   9.579   4.092
98303W        W70629  28.776   7.892  12.556
98304W        W70630  35.382  32.538  12.615
98305W        W70631  30.373  28.140  10.731
98306W        W70632  26.238   1.827  14.759
98307W        W70633  22.182  34.627   4.596
98308W        W70634  14.101  37.988  14.427
98309W        W70635  21.129  32.865   3.811
98310W        W70636  38.809  37.053   0.407
98311W        W70637  17.221  40.340   1.376
98312W        W70638  35.638  42.818  14.248
98313W        W70639   0.627   8.895   2.660
98314W        W70640  29.200  28.424  12.081
98315W        W70641  12.296  40.477  12.363
98316W        W70642  44.326  20.101  14.318
98317W        W70643  22.573  23.653  11.973
98318W        W70644   8.179  21.063  14.053
98319W        W70645  12.361  36.850  11.847
98320W        W70646  43.756  40.825  12.785
98321W        W70647  28.556  41.014   1.765
98322W        W70648   7.833  18.250   4.078
98323W        W70649  41.896  34.425  13.428
98324W        W70650   1.264   9.514   2.865
98325W        W70651  38.559  23.113  10.659
98326W        W70652  30.590   6.644  13.732
98327W        W70653  30.092  29.739  11.532
98328W        W70654  18.509  42.268   0.438
98329W        W70655  14.152  27.628  14.430
98330W        W70656  15.660  36.927  11.627
98331W        W70657  35.049   2.968   0.244
98332W        W70658  30.865  39.364   2.653
98333W        W70659  20.346  14.019  12.646
98334W        W70660  23.222  44.918  13.037
98335W        W70661   6.816  27.044  10.434
98336W        W70662  35.425  41.825   1.730
98337W        W70663  43.919   9.427  10.640
98338W        W70664  14.099  11.201   2.803
98339W        W70665  37.522   1.836  10.882
98340W        W70666  38.554  41.517   4.347
98341W        W70667  14.324  10.782  10.590
98342W        W70668  23.518  23.935   1.393
98343W        W70669   0.368   5.025   0.952
98344W        W70670  15.563  31.988  13.410
98345W        W70671   2.778  32.018   1.447
98346W        W70672  19.062  19.985  10.496
98347W        W70673  39.222   1.365   0.950
98348W        W70674  44.155  37.384   0.486
98349W        W70675   5.308  39.291   1.688
98350W        W70676   1.600  23.765   1.312
98351W        W70677  38.819  25.639   1.325
98352W        W70678  15.742  35.182   1.039
98353W        W70679  38.887   4.832  13.870
98354W        W70680  27.948  27.591   3.865
98355W        W70681  21.661  44.381   1.199
98356W        W70682  33.007   3.821   4.591
98357W        W70683  18.488  22.055  13.006
98358W        W70684  18.257  35.095   4.688
98359W        W70685  38.862  13.092   4.699
98360W        W70686  42.288  36.049   4.033
98361W        W70687   2.614  32.131   2.469
98362W        W70688   8.205  37.306  13.986
98363W        W70689  21.752  19.632   3.872
98364W        W70690  36.807  40.869   0.242
98365W        W70691   2.347  39.523   3.876
98366W        W70692  24.602  34.575   4.558
98367W        W70693  19.849  32.487   2.362
98368W        W70694  14.222   8.840   2.345
98369W        W70695  15.645  18.362  13.428
98370W        W70696  12.441  16.393  14.247
98371W        W70697  24.528  13.506   4.091
98372W        W70698  32.508  30.895   1.146
98373W        W70699  42.439  37.093  14.438
98374W        W70700  35.381  19.781   0.973
98375W        W70701  40.294  23.098   3.764
98376W        W70702  23.293   3.863   4.535
98377W        W70703  35.598  31.808   1.697
98378W        W70704   6.215   1.917  12.513
98379W        W70705  44.741   9.238   0.420
98380W        W70706  18.325  25.589  13.364
98381W        W70707  12.552  31.071  11.511
98382W        W70708  13.924  40.550   4.033
98383W        W70709  22.479  10.707  14.227
98384W        W70710   3.367  23.922  10.333
98385W        W70711  37.402  43.225  12.033
98386W        W70712  19.548  27.519   0.304
98387W        W70713  13.308  14.172   2.598
98388W        W70714  12.126  13.195   1.029
98389W        W70715  35.626  14.563  13.890
98390W        W70716  26.269  29.138   4.646
98391W        W70717  11.937  34.937   5.400
98392W        W70718  38.256  17.689  11.535
98393W        W70719   4.840  11.335   0.832
98394W        W70720  28.920  32.992   3.310
98395W        W70721  10.113  12.673  10.339
98396W        W70722  18.515  36.118  14.485
98397W        W70723   2.190   6.872   1.644
98398W        W70724  20.939  21.175   4.007
98399W        W70725  18.304  30.643   3.922
98400W        W70726  17.613  42.374  11.495
98401W        W70727  44.983   7.414   2.811
98402W        W70728  43.805  22.045   2.700
98403W        W70729  42.346  14.537  13.936
98404W        W70730  18.819  33.013   3.913
98405W        W70731   5.012  25.791   3.284
98406W        W70732   5.706   7.138  12.899
98407W        W70733   6.810   6.130  14.441
98408W        W70734   8.262   7.914  12.397
98409W        W70735  20.534  24.973  10.432
98410W        W70736  25.171  38.403   2.274
98411W        W70737  38.024  39.932   4.104
98412W        W70738  24.987  34.661  13.254
98413W        W70739  43.376  24.695  11.532
98414W        W70740  16.631  37.563  12.397
98415W        W70741   1.864  16.083  10.584
98416W        W70742   1.235  42.482  13.421
98417W        W70743   4.082   4.754  12.397
98418W        W70744  24.272   6.330  11.712
98419W        W70745  16.051  19.768  13.216
98420W        W70746   1.235  33.429  13.102
98421W        W70747  28.342  32.704   0.293
98422W        W70748   2.174   4.307   2.159
98423W        W70749   3.551  12.769  13.298
98424W        W70750   8.838   4.769   3.214
98425W        W70751  29.613   2.826  11.686
98426W        W70752   0.359  11.003   1.905
98427W        W70753  30.153  27.203  10.219
98428W        W70754  12.121  16.553  13.877
98429W        W70755  10.317   5.715   1.898
98430W        W70756  21.043  37.114  12.566
98431W        W70757  10.015  41.761   4.509
98432W        W70758  34.859  26.998   1.187
98433W        W70759  34.163   7.384  11.233
98434W        W70760  21.888  38.318   0.850
98435W        W70761  25.344  36.477  10.547
98436W        W70762  29.963  39.398   3.134
98437W        W70763  27.019  11.157  10.950
98438W        W70764  40.340  27.162   1.743
98439W        W70765  17.069  41.586   0.967
98440W        W70766  17.899  12.940   1.057
98441W        W70767  40.867  32.375   1.927
98442W        W70768  43.981  44.729  13.136
98443W        W70769  37.440  32.390   4.596
98444W        W70770  18.651  16.732   0.315
98445W        W70771  22.540   4.002   4.096
98446W        W70772  37.687  31.695   2.925
98447W        W70773  43.341  44.318   2.339
98448W        W70774  20.949  38.842   3.050
98449W        W70775  30.946   9.238  10.752
98450W        W70776  25.666   2.184  12.431
98451W        W70777  10.283   0.120  10.281
98452W        W70778   9.659   5.207   1.075
98453W        W70779  31.146  27.680  14.923
98454W        W70780  28.027   3.605  11.116
98455W        W70781  15.270  13.746   3.442
98456W        W70782   8.330  12.793  10.945
98457W        W70783  10.662   1.730   2.336
98458W        W70784  43.333   6.926   4.084
98459W        W70785  39.450  18.752   1.687
98460W        W70786  23.487  23.749   3.273
98461W        W70787  27.401  10.064  12.965
98462W        W70788  19.792  37.297   4.199
98463W        W70789   4.916  31.685  10.754
98464W        W70790  44.823  17.741   4.529
98465W        W70791  10.192  25.355  13.329
98466W        W70792  26.361  38.908  14.127
98467W        W70793  20.743   2.812   2.200
98468W        W70794   1.927  31.467   3.414
98469W        W70795  42.577  44.937  11.123
98470W        W70796  29.073   0.352  11.710
98471W        W70797   4.394   3.988  10.240
98472W        W70798  15.735  27.636  10.192
98473W        W70799  12.831  36.739   9.744
98474W        W70800  13.317   6.187  12.929
98475W        W70801  15.302  36.852  14.210
98476W        W70802   9.393  26.819  11.717
98477W        W70803  10.797  36.445  11.153
98478W        W70804  37.084   7.273   0.789
98479W        W70805  30.541  17.679  13.730
98480W        W70806  42.497  26.437   2.213
98481W        W70807   1.793  41.825   1.867
98482W        W70808  27.077  11.795   3.283
98483W        W70809  42.381   4.184   4.629
98484W        W70810  36.640  37.013  14.966
98485W        W70811  25.191  29.480  10.765
98486W        W70812  23.237   7.930   2.854
98487W        W70813  30.135   8.191   0.803
98488W        W70814  28.094   4.894  13.102
98489W        W70815  35.953  31.134  13.890
98490W        W70816   6.315  36.450   3.769
98491W        W70817  12.331   1.909  12.037
98492W        W70818  23.384  31.839   3.104
98493W        W70819  42.477  20.611   4.429
98494W        W70820  14.345  37.993   1.813
98495W        W70821   1.429   5.175  11.482
98496W        W70822  41.614  41.135  10.583
98497W        W70823  18.529   4.166  13.876
98498W        W70824  16.834  24.688  14.869
98499W        W70825  24.045   9.609   0.909
98500W        W70826  23.662  36.106  13.548
98501W        W70827  36.069  11.865  13.031
98502W        W70828  26.009  24.607  13.684
98503W        W70829  31.484   5.175  13.533
98504W        W70830  20.395   3.693   3.293
98505W        W70831  40.536  10.641   0.747
98506W        W70832   3.751   4.218  13.916
98507W        W70833  20.057  20.686  12.898
98508W        W70834  11.880  18.796  11.436
98509W        W70835  41.480   8.694   4.115
98510W        W70836  25.098   4.726  12.905
98511W        W70837  39.305  36.903  10.904
98512W        W70838   6.009  17.638  13.073
98513W        W70839  29.629  13.022  11.148
98514W        W70840  24.957   0.131   2.612
98515W        W70841   9.661  13.390   1.149
98516W        W70842  37.088   6.354   1.986
98517W        W70843   5.656  33.138  11.989
98518W        W70844  30.007  31.129   2.407
98519W        W70845  42.565  27.062   0.205
98520W        W70846  36.596  43.720   1.886
98521W        W70847   0.536  29.940   4.913
98522W        W70848  10.854  38.419   2.371
98523W        W70849  27.049   3.050  12.880
98524W        W70850  31.680   9.378   4.443
98525W        W70851   4.406  12.763   4.495
98526W        W70852  31.088  21.317  14.439
98527W        W70853  23.497  25.974  11.604
98528W        W70854   8.746  38.563   2.276
98529W        W70855  24.379   3.563  10.090
98530W        W70856  11.738   3.395  14.794
98531W        W70857  10.986  37.243  11.116
98532W        W70858  43.387  32.347  13.118
98533W        W70859   8.173  30.604   1.961
98534W        W70860  19.619  28.517  12.844
98535W        W70861  30.352  32.035  11.215
98536W        W70862  30.579  24.923  14.179
98537W        W70863  19.765  29.700  11.113
98538W        W70864  30.032  31.647  12.095
98539W        W70865  10.320  27.855  14.689
98540W        W70866  13.228  22.236   0.797
98541W        W70867  26.377  36.990   3.209
98542W        W70868  41.011  12.493  14.987
98543W        W70869  28.188  30.932  12.095
98544W        W70870  12.746  34.925   3.432
98545W        W70871  17.397  41.841  11.060
98546W        W70872  44.786  40.962  13.084
98547W        W70873  35.091  29.601  11.948
98548W        W70874  11.633   2.382   1.305
98549W        W70875   8.352   6.539  12.402
98550W        W70876  29.162  12.314   4.099
98551W        W70877  13.754  22.696  13.080
98552W        W70878   0.928  23.352   4.566
98553W        W70879  23.435  37.617  12.035
98554W        W70880  30.074  41.792  13.439
98555W        W70881  42.315  34.373   0.578
98556W        W70882  38.809  30.412   3.894
98557W        W70883  21.579   7.924  13.719
98558W        W70884  39.174  11.166   4.879
98559W        W70885   3.100   9.162   5.257
98560W        W70886  21.493   3.352   0.375
98561W        W70887   7.501  14.256  13.459
98562W        W70888  29.983   8.790  14.430
98563W        W70889   1.724  31.606  12.589
98564W        W70890  22.660   8.275  10.903
98565W        W70891  13.623  25.470  13.873
98566W        W70892  37.698   6.228  13.517
98567W        W70893  33.442  39.303  11.599
98568W        W70894   5.905  16.652  14.463
98569W        W70895  29.557  16.374  12.384
98570W        W70896  26.983  43.703  14.389
98571W        W70897  29.109   7.463   1.103
98572W        W70898   1.776   9.965   5.442
98573W        W70899  38.578  34.498  13.842
98574W        W70900  25.026  32.671  14.470
98575W        W70901  16.828  36.287   2.686
98576W        W70902  14.510  21.512  12.169
98577W        W70903  42.433  20.565  11.221
98578W        W70904  37.040  10.863  10.316
98579W        W70905  26.636   0.524   2.488
98580W        W70906  25.227  40.223   1.188
98581W        W70907   4.217  15.798   3.641
98582W        W70908  20.757   2.200   0.033
98583W        W70909  15.577  36.850  12.615
98584W        W70910   3.341  37.936   4.932
98585W        W70911  32.607  26.686  13.102
98586W        W70912  39.558   5.984   1.948
98587W        W70913   6.245  31.418   2.768
98588W        W70914  44.433  31.720  12.526
98589W        W70915   1.390  26.056  13.381
98590W        W70916  19.857  33.938  13.353
98591W        W70917  31.840   7.769   0.413
98592W        W70918   8.757   1.882  11.945
98593W        W70919   7.299  18.240  12.983
98594W        W70920  39.968  37.458  14.715
98595W        W70921  37.036  16.673   0.535
98596W        W70922   2.442  40.793  14.859
98597W        W70923   5.742  39.544   1.501
98598W        W70924  25.854  25.000  12.917
98599W        W70925  20.099  12.892  14.281
98600W        W70926  37.609  32.571  12.917
98601W        W70927  40.636  34.502   4.794
98602W        W70928   6.376   7.812   3.311
98603W        W70929  30.702   7.715   2.223
98604W        W70930  40.423  29.072   2.621
98605W        W70931  10.883  42.977   1.373
98606W        W70932   1.813  37.501  12.476
98607W        W70933  19.306  21.262  13.380
98608W        W70934  27.667   6.218   0.833
98609W        W70935  39.965   0.115   2.124
98610W        W70936  17.725  37.911   1.806
98611W        W70937  23.481   6.366  11.184
98612W        W70938   2.650  33.189   1.524
98613W        W70939  25.389   6.819   0.008
98614W        W70940  28.365  24.142   1.184
98615W        W70941   9.770  39.688   2.825
98616W        W70942  33.618  31.477  11.201
98617W        W70943  33.408  20.051   2.023
98618W        W70944  37.363  23.718  10.384
98619W        W70945   3.254  26.865   1.669
98620W        W70946  27.950   3.232  12.076
98621W        W70947  20.286   9.647  13.419
98622W        W70948   1.034   6.242  12.891
98623W        W70949  13.180  33.162   3.844
98624W        W70950  44.373  16.748  10.623
98625W        W70951  12.561   5.029   4.748
98626W        W70952   0.273  33.927  13.292
98627W        W70953   9.617  23.036   2.211
98628W        W70954  19.645  27.623   4.181
98629W        W70955   3.307  42.291  14.311
98630W        W70956   7.889  41.614   1.868
98631W        W70957  18.614  31.624   0.006
98632W        W70958  19.684  34.758   3.651
98633W        W70959   0.021  33.414  10.711
98634W        W70960   6.906  34.154  11.142
98635W        W70961  26.169  21.252   4.057
98636W        W70962   0.820  11.353   3.086
98637W        W70963   2.987  17.596  13.820
98638W        W70964  38.077  34.932   4.018
98639W        W70965  32.410  38.863  12.400
98640W        W70966   3.776   7.099   3.304
98641W        W70967   5.416  36.558   2.613
98642W        W70968  29.740  44.279   1.239
98643W        W70969  34.004  27.571  12.086
98644W        W70970   4.387   0.422   1.363
98645W        W70971  37.101  14.141   2.743
98646W        W70972  37.514  30.550  14.743
98647W        W70973   9.271  32.439  10.559
98648W        W70974   6.397  35.932  11.150
98649W        W70975  21.762   8.346   3.289
98650W        W70976  25.171  10.161  14.998
98651W        W70977   7.355   7.517  14.355
98652W        W70978  29.086  31.916   1.209
98653W        W70979  10.339   2.871   3.333
98654W        W70980   6.994  23.571  11.967
98655W        W70981  14.789  37.367  13.310
98656W        W70982   2.728  34.313  11.081
98657W        W70983  18.602  37.642  12.510
98658W        W70984  39.276  37.917   4.546
98659W        W70985  38.080  36.795   3.262
98660W        W70986  44.500  38.558  11.927
98661W        W70987  43.032   4.189   1.683
98662W        W70988  25.133   9.244   2.412
98663W        W70989  30.942  38.117  13.608
98664W        W70990   5.978  44.752   0.827
98665W        W70991  36.658  44.346  10.648
98666W        W70992  32.050   1.465  12.028
98667W        W70993  36.044  27.092   0.426
98668W        W70994  38.900   5.721   1.148
98669W        W70995  38.325  33.828  14.799
98670W        W70996  22.707  20.953   2.003
98671W        W70997  11.325  35.110  13.023
98672W        W70998  13.648   5.791  11.384
98673W        W70999  36.571  22.593  11.894
98674W        W71000  29.037  42.909  11.560
98675W        W71001   3.923  26.406  10.745
98676W        W71002  12.023  12.564   2.698
98677W        W71003   2.724  16.296  13.523
98678W        W71004  32.657  37.966  10.865
98679W        W71005  14.232  25.161   5.474
98680W        W71006  30.996  41.080  12.425
98681W        W71007  22.269  34.850  12.068
98682W        W71008  42.229  35.008  12.504
98683W        W71009  32.717  16.292  10.725
98684W        W71010  35.174  15.832  12.518
98685W        W71011  20.747  41.811  12.416
98686W        W71012  26.242  41.432  11.308
98687W        W71013  44.943   3.738   3.259
98688W        W71014  10.431  19.081   4.827
98689W        W71015  15.637  39.400  13.954
98690W        W71016  31.740  17.678  13.100
98691W        W71017  11.676  15.287  11.525
98692W        W71018  19.172   3.970  13.943
98693W        W71019  36.954  12.213  12.367
98694W        W71020  30.193  36.884   2.196
98695W        W71021   8.940  40.381   0.503
98696W        W71022  14.320  38.271   5.091
98697W        W71023  38.811  23.631   2.392
98698W        W71024  25.171  22.136  12.388
98699W        W71025  20.816  20.713   2.493
98700W        W71026  33.875  37.838  12.919
98701W        W71027  33.591   1.006   1.833
98702W        W71028  31.534  44.344   2.562
98703W        W71029   9.173  41.451   0.537
98704W        W71030  31.668  14.664   1.274
98705W        W71031  29.718   3.087   0.864
98706W        W71032  32.202  34.556  14.197
98707W        W71033  18.246  19.333  12.090
98708W        W71034  42.840   8.274  11.466
98709W        W71035  14.076  36.441  10.633
98710W        W71036  33.710   1.842  10.821
98711W        W71037  23.621  31.581  11.210
98712W        W71038  23.836  39.802   4.366
98713W        W71039   8.364  16.627   2.425
98714W        W71040  17.161  43.248  11.918
98715W        W71041  36.162   0.199  10.745
98716W        W71042  39.923  35.538  11.281
98717W        W71043  37.595  11.777   0.336
98718W        W71044  11.694   2.449  12.365
98719W        W71045  23.583   1.107  13.844
98720W        W71046  42.064  44.237   5.035
98721W        W71047  21.504   1.212   2.828
98722W        W71048   7.846  16.281  14.027
98723W        W71049  40.406   9.343   4.844
98724W        W71050  33.093   6.738   2.682
98725W        W71051  27.710   5.761   3.757
98726W        W71052   2.342  22.269   4.178
98727W        W71053  11.623  16.591   2.353
98728W        W71054  37.570  17.758   0.914
98729W        W71055   2.540  38.861  11.582
98730W        W71056  35.023   3.373   1.768
98731W        W71057  23.446  22.660  14.412
98732W        W71058  14.161   6.679   2.402
98733W        W71059  44.466   0.760   4.842
98734W        W71060   6.920  33.832   0.036
98735W        W71061  12.128  39.538   4.232
98736W        W71062  17.101  10.854  13.843
98737W        W71063  11.902  39.060   0.299
98738W        W71064   5.624  18.284  11.758
98739W        W71065   0.767  18.839   2.912
98740W        W71066  21.286  13.876  14.368
98741W        W71067  25.603  39.975   1.464
98742W        W71068  34.154  27.039   0.947
98743W        W71069  37.886  36.418  11.958
98744W        W71070   1.144  15.874  13.050
98745W        W71071  12.578   3.319   0.020
98746W        W71072  31.446  41.225   4.660
98747W        W71073  44.800   5.805  13.081
98748W        W71074  29.040  44.391  11.565
98749W        W71075  39.773  35.058  14.822
98750W        W71076  41.839  13.835   2.337
98751W        W71077  34.564  36.462  13.363
98752W        W71078   6.734  42.425   3.873
98753W        W71079  33.259  36.114   4.215
98754W        W71080   7.736  15.192  14.393
98755W        W71081  20.636  38.652   1.733
98756W        W71082  16.529  26.591   0.371
98757W        W71083  25.488   1.739   1.998
98758W        W71084  20.157  38.365   1.401
98759W        W71085   1.514  15.610   1.076
98760W        W71086   4.395  11.163  12.015
98761W        W71087  30.370  12.823  12.431
98762W        W71088  18.005  34.191  12.968
98763W        W71089   6.833  11.860   4.154
98764W        W71090  39.613  36.926  14.590
98765W        W71091  19.324   0.535   2.466
98766W        W71092   8.963  30.073  11.519
98767W        W71093  37.067   3.141   3.279
98768W        W71094  17.549  38.070  13.514
98769W        W71095  18.611  41.220   3.735
98770W        W71096  15.464  26.535   4.984
98771W        W71097  16.314   0.309  13.436
98772W        W71098  28.893  24.257  13.816
98773W        W71099  41.572  34.332   3.208
98774W        W71100  22.821   5.366  11.129
98775W        W71101   9.427   6.202  10.155
98776W        W71102  10.812  14.123   1.754
98777W        W71103   8.642   8.761  11.212
98778W        W71104  21.600   1.689  11.676
98779W        W71105  20.666  31.426  13.400
98780W        W71106   9.464  44.143   3.575
98781W        W71107  20.702  25.023  13.415
98782W        W71108  41.379  22.427   4.628
98783W        W71109  12.342  12.696  14.347
98784W        W71110  35.653  16.877   2.726
98785W        W71111  12.648   7.384  11.497
98786W        W71112  36.607  20.703   0.871
98787W        W71113  15.532   7.705   0.075
98788W        W71114  18.156  32.910   0.742
98789W        W71115   4.827   2.503  14.313
98790W        W71116  33.171  30.052   2.894
98791W        W71117   9.139  21.178   2.670
98792W        W71118  10.421  43.299   1.459
98793W        W71119  33.204  25.263   4.145
98794W        W71120  41.798  37.619   0.695
98795W        W71121  21.182   0.014   4.193
98796W        W71122   1.185   3.242   3.689
98797W        W71123  19.188  26.495   2.816
98798W        W71124  44.813  18.710  11.585
98799W        W71125  40.854   5.981   0.740
98800W        W71126  23.310  34.345  10.788
98801W        W71127  32.432  42.016  12.147
98802W        W71128  23.163  35.495  13.861
98803W        W71129  10.350  10.111  11.605
98804W        W71130  12.057  34.887  14.558
98805W        W71131  23.834  13.457  14.443
98806W        W71132   3.585  10.435  13.353
98807W        W71133   1.452  32.951  13.014
98808W        W71134  33.619  38.555   0.221
98809W        W71135  28.248  22.141   1.996
98810W        W71136   9.728   3.734  11.412
98811W        W71137  37.474   3.865  14.898
98812W        W71138   1.096  25.007  10.022
98813W        W71139  38.385  43.540   1.529
98814W        W71140  29.277   4.352   3.322
98815W        W71141   5.211  16.006  11.608
98816W        W71142  35.786  25.679   2.578
98817W        W71143  38.384  16.130   2.667
98818W        W71144  42.089  25.138   4.804
98819W        W71145   4.458  25.676  10.571
98820W        W71146   9.132  19.319  12.529
98821W        W71147  27.257  35.828   3.298
98822W        W71148  43.924  14.123   2.251
98823W        W71149  39.041  16.149  13.479
98824W        W71150  19.222  43.777   4.916
98825W        W71151   3.619   9.960   1.907
98826W        W71152  22.049  43.055   1.803
98827W        W71153  19.605  37.070  14.360
98828W        W71154  31.814  38.005  13.877
98829W        W71155  25.061   5.932  13.908
98830W        W71156   4.350  16.294   2.787
98831W        W71157  38.053  18.447  11.024
98832W        W71158  36.590  19.088   3.856
98833W        W71159   0.947   9.878   4.261
98834W        W71160  33.783   8.306  12.572
98835W        W71161  23.097  18.703  14.134
98836W        W71162   5.921  36.569  12.478
98837W        W71163  29.984  32.204   4.210
98838W        W71164  11.655   4.848  14.362
98839W        W71165   2.486  39.836   2.131
98840W        W71166  17.834  31.109  13.834
98841W        W71167  30.721  30.456   0.920
98842W        W71168   5.899  43.495  11.183
98843W        W71169  29.429  27.501  11.269
98844W        W71170  25.954  19.560  14.935
98845W        W71171  28.132  30.886   4.570
98846W        W71172  20.479  39.044   3.713
98847W        W71173  34.568  12.525  12.943
98848W        W71174  25.476  17.000   3.224
98849W        W71175   9.926   5.217  13.478
98850W        W71176  17.522  20.167   2.259
98851W        W71177   7.950  42.441  11.867
98852W        W71178  18.134  43.699  14.776
98853W        W71179  13.098  31.477  11.110
98854W        W71180   2.950   6.944  11.640
98855W        W71181  41.447  32.580  11.576
98856W        W71182  44.631  28.134   1.311
98857W        W71183  29.728  39.020  14.852
98858W        W71184  30.894  16.832  10.818
98859W        W71185  30.360  23.727   1.018
98860W        W71186  38.300  37.380   0.678
98861W        W71187  13.617   6.348  12.527
98862W        W71188  21.313  36.083  11.057
98863W        W71189  33.169  18.470   4.599
98864W        W71190  22.967  24.163  11.145
98865W        W71191  10.930  43.386  13.952
98866W        W71192  20.568  42.145  12.045
98867W        W71193  41.408  18.165   2.166
98868W        W71194  14.746  43.931  12.566
98869W        W71195  43.324  44.458   4.642
98870W        W71196  42.919  23.660  13.204
98871W        W71197  36.114  37.668   3.342
98872W        W71198  28.083  32.896  14.820
98873W        W71199   9.060   9.529  14.887
98874W        W71200   1.455  32.986  14.856
98875W        W71201  26.038  22.674  12.652
98876W        W71202  17.643  27.184  14.031
98877W        W71203  30.990   1.324   4.462
98878W        W71204  24.941  12.138  13.351
98879W        W71205  25.548  32.137   4.245
98880W        W71206  15.976  31.475  13.888
98881W        W71207  42.507  14.933   1.013
98882W        W71208  23.615  26.825  14.274
98883W        W71209  28.603   2.936  10.781
98884W        W71210  19.506  19.095  10.724
98885W        W71211  44.586  30.410  14.542
98886W        W71212   2.401  32.819   4.455
98887W        W71213  13.320  12.385   0.554
98888W        W71214  35.034   5.665   2.731
98889W        W71215  37.317  27.228   1.002
98890W        W71216  21.573  10.562   4.135
98891W        W71217  28.522  33.455  14.283
98892W        W71218  32.549  35.460   4.102
98893W        W71219  43.004  19.144   3.165
98894W        W71220  27.251  34.001   2.428
98895W        W71221  29.516  29.443   1.218
98896W        W71222  38.022  21.462   2.719
98897W        W71223  27.719  19.707  11.617
98898W        W71224   6.381  29.364   1.859
98899W        W71225  16.170  21.116  12.896
98900W        W71226   7.435  41.279   4.159
98901W        W71227  39.153  22.612   2.373
98902W        W71228  44.090  22.966  12.104
98903W        W71229  41.027  26.353  12.894
98904W        W71230  11.065   5.302  12.750
98905W        W71231   0.036  32.895  13.927
98906W        W71232  27.469  16.064   3.688
98907W        W71233  21.235  43.672   1.860
98908W        W71234  16.223  25.326   3.328
98909W        W71235  20.612  15.622  14.060
98910W        W71236  41.436  22.478   1.775
98911W        W71237  43.800   0.761  12.271
98912W        W71238  27.909  42.295  10.610
98913W        W71239  27.645  33.952  12.883
98914W        W71240  10.132  26.736   1.650
98915W        W71241  12.395  35.898   1.892
98916W        W71242  35.090  26.287  11.141
98917W        W71243   9.734   9.945  12.183
98918W        W71244  10.688  39.052   3.682
98919W        W71245  25.002  28.682  12.201
98920W        W71246   0.369  43.735   2.690
98921W        W71247  39.492  35.228  11.454
98922W        W71248   7.785  41.765   1.026
98923W        W71249  19.062   0.848  13.082
98924W        W71250  10.517  17.252  11.998
98925W        W71251  37.518   6.152  12.029
98926W        W71252  38.427   4.146   0.142
98927W        W71253  27.713  32.729   4.496
98928W        W71254  23.024  37.325   0.352
98929W        W71255  12.318  32.939   2.873
98930W        W71256  29.598  43.107   2.845
98931W        W71257  26.743  41.671   4.743
98932W        W71258  11.616   2.874  11.645
98933W        W71259  34.446  28.425   4.568
98934W        W71260  39.899  30.225   4.765
98935W        W71261  22.347  23.081   0.341
98936W        W71262   3.869  42.864  13.407
98937W        W71263  21.030  17.277   1.186
98938W        W71264   8.567  42.054   1.393
98939W        W71265  13.287   8.918   3.789
98940W        W71266  32.467  25.337  12.369
98941W        W71267  30.086   0.713   2.754
98942W        W71268   8.677   6.174   1.401
98943W        W71269  33.901   6.879   4.373
98944W        W71270  17.683  33.332  11.689
98945W        W71271   9.714   6.865  14.551
98946W        W71272  29.390  15.875   1.359
98947W        W71273  31.219   2.598  11.965
98948W        W71274  17.733  33.214   0.891
98949W        W71275  29.594  39.467   4.695
98950W        W71276  28.419  34.647  13.391
98951W        W71277   5.340   4.483  14.775
98952W        W71278  40.951  35.784   2.208
98953W        W71279   0.424  15.664  11.497
98954W        W71280   7.647  17.575   0.894
98955W        W71281  26.164  18.050   3.409
98956W        W71282  29.549   1.674  12.953
98957W        W71283  35.086  34.485   3.725
98958W        W71284  30.561  30.129   3.257
98959W        W71285  23.115  33.537  13.033
98960W        W71286  26.628  17.789   1.224
98961W        W71287  27.065   0.861   2.754
98962W        W71288  21.787  12.751   3.722
98963W        W71289  43.778  11.232  14.916
98964W        W71290  15.818  12.053  13.046
98965W        W71291   6.015  35.986  10.763
98966W        W71292  18.547  16.218   3.169
98967W        W71293  37.604  27.785   4.001
98968W        W71294  14.612  37.134   4.840
98969W        W71295  44.771  42.401   1.269
98970W        W71296   9.353   2.986  10.760
98971W        W71297  27.124  23.490  10.328
98972W        W71298  28.388  22.706   2.796
98973W        W71299  31.127  17.853   3.226
98974W        W71300  24.309   4.744   4.271
98975W        W71301  24.855  35.188  11.098
98976W        W71302  26.562  30.437   1.124
98977W        W71303  13.716  17.031   4.156
98978W        W71304  36.952  34.080   1.893
98979W        W71305  40.690  33.410  12.509
98980W        W71306  11.936  10.623   3.218
98981W        W71307  29.448  32.090   0.863
98982W        W71308  10.643  22.186   3.620
98983W        W71309  37.405  37.413   0.769
98984W        W71310  22.659  31.956   2.341
98985W        W71311  26.402  28.931  13.825
98986W        W71312   4.149  29.330  13.032
98987W        W71313  10.307  23.932  14.478
98988W        W71314  44.442  41.733   0.046
98989W        W71315  38.014  29.720  11.841
98990W        W71316  26.323  13.769   0.068
98991W        W71317  35.635  35.542   3.668
98992W        W71318  36.362   7.832   4.094
98993W        W71319   2.818  38.817   4.336
98994W        W71320  30.625  44.491   1.214
98995W        W71321  39.861  18.570   4.377
98996W        W71322  12.811  21.368  14.146
98997W        W71323   8.106  16.716   2.877
98998W        W71324   8.837  25.942  10.589
98999W        W71325   7.702   8.939  11.234
99000W        W71326  24.228  33.435  13.669
99001W        W71327  43.491  30.108   4.159
99002W        W71328   8.290  10.058  11.934
99003W        W71329  10.364  17.323  11.119
99004W        W71330  23.560   8.876  14.492
99005W        W71331  15.960  24.639   2.512
99006W        W71332  26.082   8.493  14.816
99007W        W71333   1.698  19.127   0.846
99008W        W71334  40.438  39.026   1.331
99009W        W71335   1.911  44.816   4.196
99010W        W71336   2.374  16.744   2.098
99011W        W71337  44.003   2.757  13.896
99012W        W71338  29.212  43.012   0.553
99013W        W71339   0.276  40.402   0.353
99014W        W71340  12.680  33.939   4.544
99015W        W71341  23.017  11.301  13.754
99016W        W71342  42.970  33.026   1.585
99017W        W71343  27.286  19.716  10.727
99018W        W71344  14.549   4.358  11.762
99019W        W71345   6.346  40.774   4.284
99020W        W71346   4.018  36.642  13.856
99021W        W71347   9.014  27.085  13.767
99022W        W71348  40.638   3.711   4.664
99023W        W71349  26.378  37.100  12.549
99024W        W71350  35.556  21.731  13.096
99025W        W71351  37.797  12.826   2.596
99026W        W71352  18.175  15.829   1.075
99027W        W71353  16.315   7.655  14.376
99028W        W71354  36.828  29.855   4.676
99029W        W71355  17.583   9.624  10.712
99030W        W71356  33.841  19.512   0.903
99031W        W71357   5.716  40.253   3.560
99032W        W71358  10.933  32.865  11.545
99033W        W71359  16.281  26.120   3.182
99034W        W71360  42.333  24.645  10.896
99035W        W71361  29.375   9.881  13.129
99036W        W71362   1.973  15.783  13.431
99037W        W71363  17.763  14.105  11.204
99038W        W71364  38.889  10.946  14.361
99039W        W71365  34.844  39.501   0.992
99040W        W71366  31.596   5.220   3.132
99041W        W71367  19.324  22.657   3.718
99042W        W71368  34.634  31.999   3.695
99043W        W71369   3.990  17.775  14.486
99044W        W71370   8.745  12.590   0.359
99045W        W71371  18.075  20.632   4.136
99046W        W71372  25.964  28.146   4.536
99047W        W71373  35.458  18.263  10.495
99048W        W71374  11.145  41.628  12.602
99049W        W71375   9.739   4.873  14.959
99050W        W71376  36.083   2.668  14.474
99051W        W71377   3.515   3.976   0.305
99052W        W71378  44.054   7.844   3.082
99053W        W71379   7.454  12.647   0.869
99054W        W71380   6.256  43.517   0.460
99055W        W71381  41.536  23.677  11.221
99056W        W71382  13.274   3.906   0.540
99057W        W71383   7.286  25.306  13.004
99058W        W71384   1.188  34.145  11.214
99059W        W71385  19.602  33.571   4.977
99060W        W71386  22.873  42.892   1.752
99061W        W71387  11.315  28.030  11.665
99062W        W71388  21.312  22.226   0.901
99063W        W71389  41.674  17.598  11.273
99064W        W71390   7.335  16.263   4.102
99065W        W71391  21.716   7.217  13.305
99066W        W71392  16.499  25.062   0.001
99067W        W71393  39.943   2.758  10.999
99068W        W71394  39.735   3.217   1.980
99069W        W71395  27.457   6.377  10.643
99070W        W71396   9.830  18.943   1.778
99071W        W71397   5.887   2.533   0.048
99072W        W71398  27.692   8.964  12.433
99073W        W71399  36.866   7.692  11.884
99074W        W71400  21.783  36.308  13.731
99075W        W71401   1.877   7.344   3.078
99076W        W71402  41.913  10.049   1.887
99077W        W71403  27.609  15.796  11.596
99078W        W71404  29.683  10.754  12.356
99079W        W71405  35.602  38.358   1.297
99080W        W71406  19.080  30.163  10.752
99081W        W71407  13.765  21.978   3.740
99082W        W71408  37.908  31.929  11.146
99083W        W71409  43.767   7.798   2.650
99084W        W71410  32.479  24.958  12.030
99085W        W71411   4.408  11.690  11.653
99086W        W71412  43.333  22.264  14.533
99087W        W71413  36.134  32.110  12.571
99088W        W71414  12.442  43.137  12.153
99089W        W71415   4.379  19.755  10.619
99090W        W71416  13.207   7.345   2.657
99091W        W71417  35.540  44.302  10.428
99092W        W71418  25.743  23.474  13.980
99093W        W71419  35.139  32.656   9.676
99094W        W71420  39.994  15.776  13.471
99095W        W71421   1.060  16.905  11.149
99096W        W71422  13.249   2.154   0.297
99097W        W71423  28.649  33.389  13.006
99098W        W71424  26.624  41.412  12.797
99099W        W71425  43.347  24.667   0.868
99100W        W71426  33.031   9.241  13.327
99101W        W71427  32.796  35.587  11.983
99102W        W71428  32.396  34.395   3.546
99103W        W71429  40.477  41.222   4.152
99104W        W71430  27.637  37.028   3.854
99105W        W71431  43.481  25.495  14.555
99106W        W71432   8.945  27.424   0.522
99107W        W71433  38.628  33.072   2.833
99108W        W71434  32.074  31.540  12.408
99109W        W71435   7.668  29.545  10.477
99110W        W71436  35.320  44.822  13.507
99111W        W71437  17.660   8.717   2.082
99112W        W71438   7.401  20.368   1.213
99113W        W71439   4.270  40.050   0.353
99114W        W71440  17.661  20.569  11.030
99115W        W71441   7.913   1.798   1.676
99116W        W71442   8.819  14.192   1.887
99117W        W71443   7.045  30.522   0.573
99118W        W71444  42.627  21.288   1.461
99119W        W71445   3.796  27.602  11.226
99120W        W71446  42.285  24.117  14.786
99121W        W71447  36.064  38.322  10.774
99122W        W71448  15.757  31.569  14.368
99123W        W71449  20.578  33.587   2.247
99124W        W71450   7.167  26.150  11.407
99125W        W71451  41.918  42.788   1.398
99126W        W71452  40.757   3.880  11.512
99127W        W71453  29.741  12.905  14.914
99128W        W71454  20.685   2.193  10.407
99129W        W71455  30.394  42.383   2.721
99130W        W71456   9.782  38.391   0.958
99131W        W71457  35.976  12.689  13.266
99132W        W71458  36.894  10.644   5.540
99133W        W71459  12.813  33.174  13.550
99134W        W71460  36.590  28.478  14.884
99135W        W71461   3.785  31.556   0.789
99136W        W71462  30.504   1.585  14.854
99137W        W71463  17.646  13.607  11.522
99138W        W71464  37.612  27.049  11.165
99139W        W71465  26.497   9.691   0.789
99140W        W71466  33.872  18.082  13.984
99141W        W71467  17.964  21.494   2.865
99142W        W71468  18.856  44.447  11.270
99143W        W71469  15.813   3.431  12.971
99144W        W71470   1.293  18.566  11.878
99145W        W71471   7.393  29.339   3.386
99146W        W71472  35.287  10.023   1.404
99147W        W71473   1.289   3.289  12.983
99148W        W71474  31.222  15.407  10.563
99149W        W71475   8.161  28.392   1.825
99150W        W71476  44.480  37.300   4.268
99151W        W71477  22.980  37.414  14.522
99152W        W71478   6.314  32.038   1.293
99153W        W71479  33.167   4.805   1.257
99154W        W71480  41.445  33.427   1.428
99155W        W71481  32.113  32.182   4.225
99156W        W71482  25.248  31.970   2.234
99157W        W71483  12.045   9.278   3.277
99158W        W71484   2.110   5.477  11.033
99159W        W71485  12.817  32.305   4.205
99160W        W71486  16.512  32.989  11.602
99161W        W71487   2.640   9.003   3.652
99162W        W71488  32.972  11.112  14.282
99163W        W71489  27.678  40.942  14.997
99164W        W71490  17.758  16.864   3.143
99165W        W71491  33.032  38.994  14.502
99166W        W71492   7.858   1.320  10.442
99167W        W71493  12.690  11.879  12.068
99168W        W71494  20.086  27.736  13.359
99169W        W71495  40.436  35.938   4.804
99170W        W71496  19.816  31.979   3.699
99171W        W71497  11.591  37.380   4.533
99172W        W71498  17.628  22.167  11.160
99173W        W71499  31.182  28.364   3.604
99174W        W71500  36.065  27.990  14.418
99175W        W71501  14.651  41.024   4.838
99176W        W71502   7.218  33.370  14.333
99177W        W71503  13.835   6.400  12.999
99178W        W71504  34.675  40.054   1.729
99179W        W71505  35.468   6.483  13.768
99180W        W71506  43.218  11.676  14.210
99181W        W71507  13.798  15.210   2.645
99182W        W71508   6.448  16.539   0.857
99183W        W71509  21.081  28.669   1.228
99184W        W71510  21.135   2.518  11.677
99185W        W71511  35.940   2.939  13.552
99186W        W71512  15.472  43.481  12.635
99187W        W71513  34.424  22.769  11.945
99188W        W71514  44.533  37.794  13.829
99189W        W71515  35.307  35.323  12.988
99190W        W71516  20.330   0.769   1.763
99191W        W71517  24.703  27.936  14.313
99192W        W71518   4.144  21.173   3.387
99193W        W71519  20.488  40.905   3.669
99194W        W71520  34.866  10.456   2.334
99195W        W71521  12.448  19.409   0.322
99196W        W71522  34.506  26.686  13.574
99197W        W71523  39.958  42.870   2.594
99198W        W71524  25.732  18.055   1.708
99199W        W71525  43.553  25.682   3.274
99200W        W71526   0.663  33.023  12.494
99201W        W71527  19.125  21.222   5.018
99202W        W71528  44.735   4.905  10.393
99203W        W71529  18.544  23.249   2.714
99204W        W71530  35.097   6.960   1.090
99205W        W71531  40.895   0.622  11.055
99206W        W71532   3.168  35.483  14.287
99207W        W71533   0.438  27.414  13.071
99208W        W71534  21.338  44.487   3.310
99209W        W71535  44.690  34.785   1.631
99210W        W71536  38.606  23.015  11.519
99211W        W71537  12.646  36.324   3.742
99212W        W71538  36.460  20.309   2.317
99213W        W71539  35.113   8.162  13.550
99214W        W71540  10.927  23.437   4.363
99215W        W71541  30.637  24.555   3.660
99216W        W71542  19.264  29.884  11.171
99217W        W71543  30.097  11.260   4.308
99218W        W71544  17.733  39.057  13.563
99219W        W71545  12.366  36.827  11.334
99220W        W71546  41.898  30.614   4.487
99221W        W71547  21.676   4.670   3.543
99222W        W71548  34.993   8.666  12.773
99223W        W71549  37.139  18.673   2.731
99224W        W71550   1.525   6.286   1.449
99225W        W71551  21.403  13.360  14.419
99226W        W71552  40.407   0.049   4.662
99227W        W71553  22.528   6.705  13.573
99228W        W71554  31.071  25.568  11.848
99229W        W71555  26.418   3.375   3.231
99230W        W71556   5.423  13.852  12.443
99231W        W71557  29.002  28.991   3.850
99232W        W71558  15.373  25.211  10.717
99233W        W71559  32.500  11.365   2.234
99234W        W71560   0.549  13.146   4.336
99235W        W71561  22.350  27.471  11.680
99236W        W71562  31.875  16.727   4.939
99237W        W71563  34.944   9.447  13.326
99238W        W71564   7.879  37.287   4.202
99239W        W71565   8.373  11.458   3.306
99240W        W71566   7.107  13.696  14.251
99241W        W71567  26.748   0.502   1.461
99242W        W71568  39.013  13.616   1.490
99243W        W71569  40.943  27.930  14.880
99244W        W71570  30.629  38.540  11.518
99245W        W71571  25.726   0.811  14.560
99246W        W71572  12.145  21.719   4.392
99247W        W71573  15.688  26.663  10.571
99248W        W71574  18.571  38.580  11.030
99249W        W71575   4.897  23.751   2.252
99250W        W71576  24.266   1.801   3.398
99251W        W71577  31.367  21.608  11.105
99252W        W71578   6.234  18.430   3.716
99253W        W71579  36.542  10.150   9.896
99254W        W71580  44.937  15.575  12.157
99255W        W71581  19.911  40.096   0.262
99256W        W71582  40.847  28.439   1.327
99257W        W71583  35.451  20.331   3.322
99258W        W71584  11.935  18.234  10.738
99259W        W71585   1.108  11.882  11.081
99260W        W71586  31.473  21.971   0.460
99261W        W71587  34.936  37.090  13.944
99262W        W71588   2.450  31.075   4.753
99263W        W71589   4.545  33.486   5.261
99264W        W71590  17.741  17.585   2.588
99265W        W71591   0.852  18.124   1.752
99266W        W71592   7.710  43.054   4.119
99267W        W71593   7.430  18.002   4.727
99268W        W71594  36.568  14.527   1.315
99269W        W71595  24.999  23.626  14.318
99270W        W71596  42.908   9.482   0.953
99271W        W71597  30.510  37.518   0.276
99272W        W71598  33.054   4.384   3.323
99273W        W71599  31.770  25.116   0.823
99274W        W71600  13.460  26.676   5.042
99275W        W71601   2.434  26.075   0.482
99276W        W71602  38.124  24.207  12.489
99277W        W71603  23.917  37.348   4.673
99278W        W71604   7.391   8.921   3.047
99279W        W71605  25.672  22.729  13.512
99280W        W71606  22.000  37.758  10.051
99281W        W71607  36.758  30.287   3.165
99282W        W71608  27.470  42.367   1.425
99283W        W71609  22.027  14.877  12.254
99284W        W71610  31.816  17.470   4.096
99285W        W71611  13.150  32.817   0.952
99286W        W71612   5.479  34.378   3.465
99287W        W71613  37.438  11.130  13.309
99288W        W71614  27.840  32.585   0.211
99289W        W71615  13.880  22.984  13.516
99290W        W71616  28.117  15.407   1.789
99291W        W71617   5.657   6.835   3.764
99292W        W71618  43.265  16.931  10.336
99293W        W71619  20.387  33.730   4.129
99294W        W71620  18.580   1.981   2.348
99295W        W71621  44.373  21.496  14.627
99296W        W71622  15.604  17.746   1.429
99297W        W71623  42.199  13.283  14.577
99298W        W71624  29.713   9.242  13.390
99299W        W71625  27.517  15.148   4.903
99300W        W71626  20.733  27.119   4.550
99301W        W71627  29.207  23.006  13.399
99302W        W71628  44.917  31.706   1.267
99303W        W71629  38.923  41.431  14.481
99304W        W71630  12.293  40.434  11.454
99305W        W71631  10.125   1.341   0.809
99306W        W71632  12.551   8.275  11.018
99307W        W71633  31.010  43.543  11.714
99308W        W71634  32.934   7.042   1.424
99309W        W71635  25.541   2.540  14.805
99310W        W71636  22.002  12.862  11.212
99311W        W71637   5.408   8.782  11.951
99312W        W71638  19.721  25.120   0.417
99313W        W71639  36.683   6.609  14.148
99314W        W71640  26.265  40.595  13.600
99315W        W71641  44.200  22.193   0.399
99316W        W71642  13.873  24.142  12.878
99317W        W71643  34.618  44.937   0.995
99318W        W71644  24.203   0.786   3.924
99319W        W71645   9.141  11.478   0.762
99320W        W71646   8.463  30.537  11.164
99321W        W71647  24.504  10.622  13.165
99322W        W71648  17.735  10.048   3.786
99323W        W71649  39.382   6.461   3.305
99324W        W71650   0.888  16.581   3.024
99325W        W71651  15.136  42.790  12.638
99326W        W71652   0.530  27.091   0.768
99327W        W71653   2.473  11.227  14.500
99328W        W71654  39.787  28.180  12.999
99329W        W71655   6.404  10.696  12.241
99330W        W71656  13.956  24.776   4.557
99331W        W71657  43.930   6.499   4.591
99332W        W71658   8.625  42.569   3.820
99333W        W71659   6.814  12.433  13.443
99334W        W71660  16.163  39.311   0.882
99335W        W71661  30.631  27.934  13.801
99336W        W71662  13.279  17.063  12.901
99337W        W71663   9.724  38.252   4.394
99338W        W71664  17.497   1.845  13.941
99339W        W71665  15.438  39.701   4.008
99340W        W71666  37.321  37.406  11.619
99341W        W71667   6.768  29.371   2.215
99342W        W71668  36.536  25.938   1.621
99343W        W71669  11.725  38.584   4.396
99344W        W71670  41.676  14.250  12.694
99345W        W71671  12.821  42.928  11.384
99346W        W71672  35.878  11.831  14.786
99347W        W71673  12.722   0.768  13.731
99348W        W71674  25.661  37.960   2.810
99349W        W71675  36.534  26.879  13.287
99350W        W71676  11.381  11.088  10.530
99351W        W71677  14.650  13.420  13.323
99352W        W71678  44.761  16.577  10.317
99353W        W71679   6.214  17.322   3.105
99354W        W71680  29.061  22.128   3.490
99355W        W71681  15.529  21.775  11.903
99356W        W71682  42.009   8.718  12.110
99357W        W71683  24.552  37.981  14.869
99358W        W71684  18.716  31.206  11.015
99359W        W71685   7.695  28.610  11.184
99360W        W71686  10.259  25.208  11.913
99361W        W71687   0.738  26.292   5.052
99362W        W71688   5.162  13.413   4.767
99363W        W71689  27.944   1.458  13.032
99364W        W71690   5.682  40.752  14.688
99365W        W71691  14.047  14.219  11.454
99366W        W71692  13.209  43.063   0.269
99367W        W71693  15.330  28.165  13.436
99368W        W71694  34.603  35.012   2.372
99369W        W71695   7.864  10.917   3.689
99370W        W71696  24.647   5.759  12.181
99371W        W71697  33.429  13.999   3.300
99372W        W71698  36.028   8.715  14.540
99373W        W71699   7.842  29.583   1.700
99374W        W71700  18.728  41.243  11.098
99375W        W71701  30.418  40.316   0.996
99376W        W71702  18.967  40.355   2.926
99377W        W71703  16.555  36.935   2.886
99378W        W71704  18.335  29.145   0.308
99379W        W71705  21.255   0.618   2.196
99380W        W71706  29.679  28.646  10.597
99381W        W71707  41.719   5.477   2.702
99382W        W71708  38.956  28.032   0.173
99383W        W71709  34.796  14.319   4.385
99384W        W71710  14.433  36.394  13.468
99385W        W71711  42.503  32.213  12.609
99386W        W71712  41.702  20.192   4.594
99387W        W71713  10.533  29.954   2.811
99388W        W71714  13.234  26.913   2.709
99389W        W71715  44.460   4.243  10.832
99390W        W71716  27.318  12.131  14.351
99391W        W71717  15.707  27.631   2.740
99392W        W71718  29.876  12.867  10.668
99393W        W71719  27.528  44.993  14.334
99394W        W71720  21.977  15.627   0.019
99395W        W71721  23.610  37.142  11.932
99396W        W71722   4.435  19.384   0.227
99397W        W71723  36.071  20.260   2.669
99398W        W71724  43.570  23.015  13.327
99399W        W71725   4.893  24.157   1.923
99400W        W71726  30.061  21.720   3.896
99401W        W71727  10.740   8.879   4.683
99402W        W71728  21.761  34.282   0.750
99403W        W71729  17.687  20.552   3.297
99404W        W71730   7.215  18.166  12.096
99405W        W71731  25.116  44.858   1.294
99406W        W71732  40.283  31.255   0.862
99407W        W71733  21.428   7.158  12.852
99408W        W71734  37.531  13.448   3.750
99409W        W71735  36.571  34.033  13.594
99410W        W71736  28.194  15.538   0.688
99411W        W71737   0.130   2.390   3.663
99412W        W71738  33.092  16.340  12.373
99413W        W71739  17.687  13.740  12.014
99414W        W71740  19.619  39.309  14.678
99415W        W71741  29.663  44.407  13.324
99416W        W71742  13.296  11.334   4.264
99417W        W71743  30.069  19.206  14.013
99418W        W71744   9.383  22.078   4.318
99419W        W71745  41.880  11.535   4.892
99420W        W71746   3.406   1.314   1.705
99421W        W71747  26.042  43.930  10.757
99422W        W71748  23.021   9.138   0.917
99423W        W71749  40.526  16.307   3.222
99424W        W71750  18.587   2.435  14.622
99425W        W71751  29.766  27.347  10.535
99426W        W71752  22.588  37.115  11.628
99427W        W71753  27.158  26.071  12.820
99428W        W71754   8.887  23.312   0.899
99429W        W71755  41.377  27.282  12.873
99430W        W71756  24.019  22.610   4.176
99431W        W71757  36.074   8.648   3.140
99432W        W71758  40.584  35.989   2.972
99433W        W71759  13.654  34.862  12.065
99434W        W71760  44.274  14.081   5.084
99435W        W71761  12.182   7.922   3.638
99436W        W71762  21.608  36.404   1.930
99437W        W71763  27.862   3.415  11.574
99438W        W71764  32.727  38.605   1.697
99439W        W71765  27.084  26.805   2.416
99440W        W71766  17.095  28.951  14.920
99441W        W71767   1.265  21.766   5.117
99442W        W71768  15.987   0.621   4.056
99443W        W71769  32.398  36.433   1.760
99444W        W71770   3.735  29.712  12.464
99445W        W71771  14.790  34.797   2.416
99446W        W71772  24.763  16.204  12.060
99447W        W71773  44.349   2.915  12.730
99448W        W71774  17.548  20.321  12.451
99449W        W71775  15.060  40.718   4.155
99450W        W71776   9.281  38.091  12.104
99451W        W71777  17.924  16.073  13.344
99452W        W71778   6.939   4.759   2.830
99453W        W71779  24.395  27.937  10.753
99454W        W71780  43.624   0.074   0.869
99455W        W71781  15.053  40.966  11.919
99456W        W71782  38.918   9.923   2.769
99457W        W71783  20.617  32.811   4.096
99458W        W71784  28.535  36.440  12.916
99459W        W71785  17.286  19.107   1.883
99460W        W71786  41.801  14.292  10.795
99461W        W71787  30.630  28.647   1.954
99462W        W71788  25.636  19.096   3.479
99463W        W71789  36.098  18.636  11.155
99464W        W71790  28.484  44.803  11.454
99465W        W71791   5.257  26.645  12.567
99466W        W71792  34.529  36.906  12.913
99467W        W71793  12.010  20.341   4.131
99468W        W71794   2.633  29.196   2.839
99469W        W71795  25.050  25.458  13.739
99470W        W71796  29.713  40.960  10.960
99471W        W71797   6.040   5.482   2.743
99472W        W71798   7.746  14.426  11.137
99473W        W71799  40.880  11.439   2.677
99474W        W71800  43.721  32.437   3.676
99475W        W71801  41.610  31.236  10.307
99476W        W71802  44.352  14.733   3.601
99477W        W71803  33.249  38.099  14.356
99478W        W71804  35.435  15.748   0.214
99479W        W71805   8.852  27.298  13.324
99480W        W71806  38.351  44.476   1.087
99481W        W71807  37.806  28.247   4.155
99482W        W71808  36.793   4.346   3.056
99483W        W71809  40.694   0.170  11.987
99484W        W71810  12.550  31.382  13.983
99485W        W71811   8.018  12.260  12.114
99486W        W71812  14.340  17.475  11.531
99487W        W71813  36.826  18.706   0.466
99488W        W71814  38.053   9.348   1.261
99489W        W71815  31.370  32.400   2.420
99490W        W71816  35.416  18.066  11.493
99491W        W71817   9.679  26.523  11.399
99492W        W71818  18.732  12.817   0.432
99493W        W71819  30.059  18.824   4.564
99494W        W71820  42.836  39.901   3.205
99495W        W71821   2.149  44.065  13.097
99496W        W71822   5.883  35.609   1.285
99497W        W71823  14.868  41.871   4.378
99498W        W71824   7.933   7.920  10.670
99499W        W71825  20.754  33.201  14.001
99500W        W71826   8.883  17.689   0.283
99501W        W71827   0.574  18.504  11.108
99502W        W71828   4.767  14.668  12.946
99503W        W71829  42.599  41.631   0.535
99504W        W71830   2.708  27.696   3.227
99505W        W71831  33.682  44.456  12.039
99506W        W71832  22.064   4.919   3.854
99507W        W71833  22.771  24.927  13.516
99508W        W71834  24.023  32.842   2.282
99509W        W71835  14.788   4.667  14.862
99510W        W71836  29.627  37.799   3.561
99511W        W71837  16.561   0.711   2.233
99512W        W71838   4.780  30.894   3.713
99513W        W71839  22.668  19.692  11.174
99514W        W71840  25.490  20.439   3.265
99515W        W71841  28.460  23.878  10.844
99516W        W71842  16.639  39.939   3.316
99517W        W71843  10.673  19.763   3.659
99518W        W71844  36.084  39.591   4.310
99519W        W71845  27.190  37.615  12.370
99520W        W71846  37.429  36.101  14.270
99521W        W71847  14.758  16.118  14.085
99522W        W71848  33.418  38.721  12.540
99523W        W71849  39.512  42.183   3.703
99524W        W71850  35.579   9.774  12.343
99525W        W71851  11.806  15.669   1.931
99526W        W71852  27.796   1.491   2.208
99527W        W71853  27.137  34.374  10.647
99528W        W71854  24.198   9.351  14.250
99529W        W71855  30.994  34.976   4.196
99530W        W71856   5.188  20.204   0.728
99531W        W71857   0.001  34.019   0.570
99532W        W71858  25.160  41.609   1.972
99533W        W71859  32.461  26.576   3.384
99534W        W71860  38.091  14.794  11.522
99535W        W71861  24.265  36.119  12.997
99536W        W71862   8.810   2.043  11.459
99537W        W71863  12.372  16.220  13.497
99538W        W71864   0.845  12.330   4.631
99539W        W71865  37.173  28.845  11.603
99540W        W71866   6.162   2.387  12.829
99541W        W71867   3.310  28.461  14.997
99542W        W71868  17.590   6.381  13.811
99543W        W71869  16.102  31.900   0.088
99544W        W71870  40.997  28.477  11.216
99545W        W71871   2.158   9.991   5.017
99546W        W71872   5.753  12.179  13.478
99547W        W71873  40.286   7.119  12.219
99548W        W71874  37.911   0.394   0.855
99549W        W71875   3.643  15.613   0.789
99550W        W71876   1.878  26.574   1.110
99551W        W71877  43.771  22.028   1.403
99552W        W71878   0.182  34.867   1.772
99553W        W71879  20.093  18.423   0.230
99554W        W71880  24.175  19.758  14.355
99555W        W71881  38.753  12.484   3.858
99556W        W71882  24.766  20.610  10.645
99557W        W71883  16.530  31.880   2.120
99558W        W71884  17.063  44.558   5.092
99559W        W71885  10.896  39.023   1.178
99560W        W71886  14.587   0.310   1.026
99561W        W71887  26.559  36.866  14.526
99562W        W71888  10.868  24.630   3.624
99563W        W71889  33.111  26.056  13.949
99564W        W71890  10.065  13.893  14.314
99565W        W71891  36.148   9.782   4.886
99566W        W71892  10.852   0.764   4.727
99567W        W71893  13.546  12.854   3.624
99568W        W71894  11.595  40.938   0.427
99569W        W71895  28.133  12.138   4.262
99570W        W71896  22.843  29.124   3.334
99571W        W71897  17.107  24.583  10.569
99572W        W71898  37.099  20.114   0.193
99573W        W71899  37.587   5.212   0.494
99574W        W71900  31.224  24.080   2.531
99575W        W71901  34.974  32.388   3.714
99576W        W71902  11.078   3.515  11.679
99577W        W71903  17.044  30.598  10.736
99578W        W71904  42.249  18.011  12.478
99579W        W71905  23.593  20.559   4.271
99580W        W71906  37.579  15.786  10.104
99581W        W71907  29.035  34.876   4.304
99582W        W71908  10.048  38.960  11.629
99583W        W71909  16.528  34.064   3.843
99584W        W71910  29.372   8.195   1.445
99585W        W71911  16.733  43.883  14.266
99586W        W71912  42.789  13.737   1.280
99587W        W71913   1.799  20.368  11.484
99588W        W71914   3.736  20.315   4.644
99589W        W71915  13.785  15.595  13.276
99590W        W71916  41.956   5.398   3.973
99591W        W71917  11.529   4.817   4.269
99592W        W71918   2.274  33.380  13.934
99593W        W71919  37.863  10.212   0.363
99594W        W71920  43.212  30.970  14.882
99595W        W71921  42.920  17.686  11.763
99596W        W71922  27.827  29.690   2.150
99597W        W71923   8.235  15.705   3.566
99598W        W71924   3.846  31.526  14.884
99599W        W71925   8.252  14.353   3.872
99600W        W71926  42.384  20.462   2.347
99601W        W71927  32.246  42.252  12.582
99602W        W71928  18.154  17.339   3.885
99603W        W71929  13.522   9.118  11.499
99604W        W71930   0.214   1.100   3.218
99605W        W71931  32.068  38.737  13.094
99606W        W71932  13.634  21.473   2.885
99607W        W71933  38.796  33.709   9.830
99608W        W71934  33.619  41.041   2.215
99609W        W71935   8.360  17.388   0.488
99610W        W71936  22.117  22.095  10.533
99611W        W71937   8.665  41.033  14.943
99612W        W71938  27.481  11.806   0.474
99613W        W71939  11.516  35.910   0.909
99614W        W71940  18.614  29.531  14.730
99615W        W71941  12.196  37.036  12.290
99616W        W71942  11.867  13.280  12.638
99617W        W71943  26.411   5.160   4.680
99618W        W71944   6.141  17.283   2.432
99619W        W71945  44.457  44.228  14.001
99620W        W71946   2.688  27.796   0.424
99621W        W71947  19.487  11.868  11.160
99622W        W71948  27.540  33.348  11.344
99623W        W71949  10.218  38.634  13.103
99624W        W71950  19.393  13.687   2.070
99625W        W71951  17.138  32.130   1.350
99626W        W71952  17.235  29.022  11.127
99627W        W71953  41.558  18.858  13.177
99628W        W71954  12.563  35.741   4.273
99629W        W71955  16.793  26.098  11.332
99630W        W71956  35.020  10.176   0.947
99631W        W71957  31.203  19.533   1.659
99632W        W71958  30.529  32.161   1.521
99633W        W71959  13.935  34.404   0.559
99634W        W71960  30.049  37.765  13.385
99635W        W71961  11.325  13.348   2.670
99636W        W71962  43.326  34.163   2.766
99637W        W71963  38.265   4.261   1.625
99638W        W71964  27.705  18.019  11.993
99639W        W71965   4.494  35.514   3.533
99640W        W71966  34.281  30.518   4.841
99641W        W71967  25.548   0.824   4.144
99642W        W71968  14.727  22.920  11.570
99643W        W71969  29.876  41.343  13.546
99644W        W71970  15.836  40.806   2.655
99645W        W71971   5.145  43.908   2.349
99646W        W71972  26.968   2.650   1.964
99647W        W71973  23.136  25.493  10.670
99648W        W71974  39.567  37.666   4.156
99649W        W71975  42.256  27.099   4.592
99650W        W71976  23.696  11.875  10.942
99651W        W71977  20.829   3.931   3.066
99652W        W71978  38.301  29.510   4.112
99653W        W71979  42.786   3.713  14.524
99654W        W71980  13.011  34.422  12.480
99655W        W71981  42.733   0.514   3.719
99656W        W71982  19.120  28.131   0.994
99657W        W71983  17.019  16.231  10.713
99658W        W71984  20.233  14.576  10.821
99659W        W71985   3.080   5.238   4.018
99660W        W71986  14.212  10.101   3.690
99661W        W71987  21.238   1.977  11.925
99662W        W71988  27.986  12.676  10.797
99663W        W71989  12.888  26.555  13.964
99664W        W71990  18.698   0.018  10.644
99665W        W71991  12.305  27.969   4.753
99666W        W71992  38.124  38.875  10.962
99667W        W71993  31.983  26.768   4.852
99668W        W71994  23.118  32.432  13.882
99669W        W71995  16.658  15.340  12.930
99670W        W71996   6.219   3.141  13.412
99671W        W71997  13.045  28.381   1.411
99672W        W71998  39.493  30.492  10.422
99673W        W71999  43.243   1.202   0.688
99674W        W72000  44.919   7.975   1.865
99675W        W72001   0.375  38.531   0.901
99676W        W72002   9.311  42.776  14.277
99677W        W72003  12.779  22.464  14.837
99678W        W72004   2.336  41.099   2.384
99679W        W72005  30.054   3.999  13.248
99680W        W72006  24.639   4.295   1.773
99681W        W72007  43.286  30.462  14.311
99682W        W72008  31.637  19.675  13.292
99683W        W72009   4.832  18.622   1.791
99684W        W72010  14.155  26.452   2.635
99685W        W72011   2.171  31.619  14.940
99686W        W72012  17.009  32.551   1.634
99687W        W72013  43.765  11.217   3.618
99688W        W72014  11.206   4.379  10.630
99689W        W72015   2.327  24.219   4.227
99690W        W72016   3.788  21.457   0.811
99691W        W72017   7.409   9.646   2.299
99692W        W72018   8.458  21.623  11.203
99693W        W72019   0.248   9.717  11.653
99694W        W72020  38.877  41.874   2.721
99695W        W72021  23.055  31.596   0.218
99696W        W72022  39.369   7.727   2.635
99697W        W72023  29.054  12.290  12.043
99698W        W72024  31.156   0.958  11.999
99699W        W72025   1.654  27.025   1.251
99700W        W72026   0.263  44.545   4.074
99701W        W72027  39.095  43.566  13.951
99702W        W72028   1.978  32.939  14.823
99703W        W72029  29.981  33.632  10.946
99704W        W72030  25.066  21.254  13.613
99705W        W72031  15.778  43.356   1.906
99706W        W72032  21.598  22.723   4.078
99707W        W72033  30.676  13.819  11.683
99708W        W72034  21.232  21.284   1.823
99709W        W72035  15.109  10.676   1.590
99710W        W72036  31.968  38.605   0.936
99711W        W72037   2.216   0.328  12.443
99712W        W72038  40.517  13.398  12.763
99713W        W72039  17.100   6.227   3.292
99714W        W72040  30.230  39.428  11.924
99715W        W72041  33.499  10.753   0.155
99716W        W72042  39.394  14.697   0.901
99717W        W72043  19.721  19.561   0.885
99718W        W72044  19.646  39.237  13.317
99719W        W72045  30.600  37.026  10.735
99720W        W72046  37.714  12.646   9.747
99721W        W72047  27.359   6.718  14.396
99722W        W72048   9.102   5.779   3.647
99723W        W72049  25.169  11.744   5.195
99724W        W72050   1.813  43.003   0.282
99725W        W72051  32.857   7.890   4.573
99726W        W72052  21.126  24.287  10.637
99727W        W72053  10.924   0.903   4.211
99728W        W72054  43.011   5.171   3.156
99729W        W72055  10.876  40.324   2.890
99730W        W72056  26.491  14.356   4.198
99731W        W72057  40.468  24.588  10.793
99732W        W72058  27.154  18.060  11.930
99733W        W72059  19.845   2.424   3.795
99734W        W72060  27.111  14.908   4.628
99735W        W72061   8.304  44.935   0.995
99736W        W72062   4.094  29.405   1.861
99737W        W72063  14.367  42.278   4.910
99738W        W72064   6.499  31.872  12.992
99739W        W72065  24.287  44.440   3.934
99740W        W72066  12.590  37.032   4.313
99741W        W72067   2.658  22.532   1.797
99742W        W72068  35.003  39.895   2.083
99743W        W72069   9.247  32.150   4.202
99744W        W72070  27.779   2.948   2.281
99745W        W72071   0.224   4.536  11.125
99746W        W72072  13.136   0.953  11.166
99747W        W72073  40.276  33.444  12.184
99748W        W72074  14.693  43.165   3.802
99749W        W72075  40.520   3.192   4.666
99750W        W72076  23.546  23.735   0.386
99751W        W72077   1.598  44.506  13.278
99752W        W72078  23.523  37.452   3.121
99753W        W72079  18.903  23.894  12.516
99754W        W72080  30.523  41.752   0.038
99755W        W72081   3.284   7.696   3.766
99756W        W72082  43.362  35.938   0.803
99757W        W72083   9.313  39.855   4.019
99758W        W72084  18.600  40.076   1.310
99759W        W72085   2.387  43.738   3.703
99760W        W72086  22.516   5.453  14.066
99761W        W72087  32.970  40.990  12.418
99762W        W72088  44.313  40.634   3.202
99763W        W72089  38.971   8.410  14.318
99764W        W72090   8.904  10.222  12.381
99765W        W72091   6.686  12.847   1.760
99766W        W72092   6.423  17.771   2.331
99767W        W72093  12.334  19.103   4.758
99768W        W72094  29.071  12.255   2.702
99769W        W72095  23.656  30.720  13.556
99770W        W72096  18.473   7.718  14.701
99771W        W72097  13.825  18.017  10.928
99772W        W72098  42.472  30.008   2.325
99773W        W72099   4.341   8.609  14.465
99774W        W72100  11.934  35.874   4.607
99775W        W72101   5.948   8.892  13.320
99776W        W72102  34.150  15.285   1.319
99777W        W72103  28.718   7.307  13.312
99778W        W72104  36.365  14.059   2.363
99779W        W72105  24.877  32.380   5.007
99780W        W72106   9.788  34.742   4.488
99781W        W72107  26.486  44.021   4.101
99782W        W72108   5.252  25.853   2.801
99783W        W72109  44.202  38.409  11.534
99784W        W72110  27.003   5.342  14.933
99785W        W72111  12.144   2.042   3.106
99786W        W72112  29.936   8.238   2.242
99787W        W72113  40.458   9.755   0.641
99788W        W72114  36.325   0.804  13.420
99789W        W72115   6.874  28.905   3.769
99790W        W72116  41.760  17.625   4.186
99791W        W72117  12.193  31.953  14.969
99792W        W72118  41.408  28.997   3.253
99793W        W72119  41.799  40.944   2.017
99794W        W72120  40.994  40.326  13.047
99795W        W72121  36.875  43.558  13.442
99796W        W72122   3.496  21.045  13.199
99797W        W72123  32.774  14.849   0.420
99798W        W72124  34.156  27.680  10.996
99799W        W72125  23.880  18.681   4.066
99800W        W72126  40.595  30.453   1.429
99801W        W72127  26.153  41.981   2.283
99802W        W72128  37.621  41.343   9.774
99803W        W72129   4.313  35.257  12.721
99804W        W72130  22.733  29.707  14.322
99805W        W72131  17.986  10.212  13.289
99806W        W72132  12.508  28.110  12.446
99807W        W72133   2.255  11.182   2.254
99808W        W72134  33.505  22.231  14.941
99809W        W72135   8.691  14.134  14.904
99810W        W72136  12.074  34.772   4.919
99811W        W72137  23.647  29.074  12.093
99812W        W72138  18.617   1.433   0.310
99813W        W72139   3.773  15.050   2.511
99814W        W72140  15.987  34.710  11.974
99815W        W72141  43.361  20.248   3.301
99816W        W72142  22.906  18.310   1.464
99817W        W72143  44.662  20.241  13.957
99818W        W72144  10.129  43.561   3.198
99819W        W72145  39.041  17.348  10.437
99820W        W72146  42.636  41.406  13.591
99821W        W72147  31.360  39.688   3.279
99822W        W72148  28.391   9.672   3.214
99823W        W72149  22.971   1.005   1.522
99824W        W72150  15.760  44.377   4.167
99825W        W72151  19.860  10.174  13.486
99826W        W72152   6.958  30.922   2.384
99827W        W72153   7.312  32.006   0.739
99828W        W72154  43.564  24.135  12.508
99829W        W72155  28.077  41.322   1.159
99830W        W72156  35.502  27.929  10.788
99831W        W72157  35.990  20.974   4.101
99832W        W72158  18.013  20.322   1.698
99833W        W72159  29.467  36.036  13.147
99834W        W72160  37.452   6.770   1.695
99835W        W72161  43.871  39.548   1.624
99836W        W72162  17.965   7.723  14.763
99837W        W72163   7.791   5.371  10.557
99838W        W72164  13.146  40.983   0.224
99839W        W72165   5.857  44.753   3.645
99840W        W72166  20.881  28.988   3.136
99841W        W72167  15.322  38.342  14.734
99842W        W72168   8.182   4.393   2.394
99843W        W72169  41.863  35.590  11.143
99844W        W72170  13.720  38.920   3.613
99845W        W72171   2.881  39.364   0.462
99846W        W72172   7.383  26.962   2.293
99847W        W72173  25.277  36.335   0.080
99848W        W72174  31.049  37.030  11.064
99849W        W72175   8.410   6.768   4.656
99850W        W72176  40.245   3.145  11.886
99851W        W72177  28.666  15.726  13.020
99852W        W72178  22.056  44.446  11.555
99853W        W72179   9.740   9.751   3.713
99854W        W72180  19.842  10.866   3.071
99855W        W72181   2.553  19.184   2.124
99856W        W72182  43.881   1.173  13.056
99857W        W72183  18.014   6.369   3.157
99858W        W72184  44.515  22.150   4.672
99859W        W72185  12.733  16.117  10.201
99860W        W72186  36.386   7.764   2.045
99861W        W72187  33.398  15.623  11.116
99862W        W72188  19.084  32.626   0.802
99863W        W72189  17.246   0.954  11.165
99864W        W72190  11.172   7.918  10.874
99865W        W72191  37.852  40.932   4.503
99866W        W72192  10.630  30.324   1.922
99867W        W72193  21.295  23.149  11.968
99868W        W72194  11.728   2.453  13.263
99869W        W72195  23.649  13.563   0.340
99870W        W72196  33.978  23.361   0.416
99871W        W72197  17.099  42.792   0.255
99872W        W72198  10.666   3.939   2.738
99873W        W72199  35.387  21.806  10.767
99874W        W72200  32.950  11.884   4.258
99875W        W72201   3.666  37.508  11.662
99876W        W72202  44.009  13.232   2.614
99877W        W72203  27.387  41.080  11.948
99878W        W72204  42.009  10.810  13.844
99879W        W72205  14.859  29.548   3.211
99880W        W72206  12.583  16.394  13.033
99881W        W72207  35.500  19.178   3.712
99882W        W72208  20.225   7.136   2.891
99883W        W72209   4.231  28.746   0.309
99884W        W72210  26.757  20.674  11.550
99885W        W72211  21.503   9.212   2.800
99886W        W72212  21.754   2.463  13.856
99887W        W72213   3.603  38.071   0.177
99888W        W72214  41.693  25.638   3.759
99889W        W72215  16.720   2.707   3.323
99890W        W72216  37.108  12.800   4.086
99891W        W72217   1.013  27.676   4.680
99892W        W72218  21.659  34.557   2.314
99893W        W72219  10.794  36.388   0.022
99894W        W72220  34.801  15.764   1.933
99895W        W72221  38.798  11.350   1.034
99896W        W72222  39.364  42.296   2.312
99897W        W72223  13.498  22.538  11.077
99898W        W72224  31.898  17.503   2.839
99899W        W72225   3.918  34.399   1.354
99900W        W72226  13.597  23.880   0.004
99901W        W72227  21.309  28.494  11.359
99902W        W72228  24.877  14.955   0.547
99903W        W72229  20.789  23.127  11.950
99904W        W72230  44.757  16.077   2.811
99905W        W72231  18.048  35.624  14.425
99906W        W72232  10.096  30.256  12.077
99907W        W72233  29.641   6.313   0.293
99908W        W72234  43.060  24.095  11.216
99909W        W72235  24.054  13.711   1.286
99910W        W72236   6.808  39.051  11.630
99911W        W72237  26.498  34.803  14.427
99912W        W72238   1.722  21.983  14.443
99913W        W72239  17.203   0.510   1.873
99914W        W72240  39.513  13.305  12.799
99915W        W72241  44.897  43.345  13.777
99916W        W72242   2.923  37.405  13.964
99917W        W72243  39.056  39.009  10.456
99918W        W72244  10.466  22.242  13.016
99919W        W72245   3.288   2.306   0.274
99920W        W72246  17.825  31.194  11.107
99921W        W72247   2.372  16.334  10.588
99922W        W72248  21.986   6.833  13.549
99923W        W72249  43.229  29.431  14.075
99924W        W72250   6.410  21.101   1.857
99925W        W72251  27.589  42.098  13.276
99926W        W72252  26.266  26.341  11.092
99927W        W72253  26.575   9.259  13.893
99928W        W72254  34.012  17.990   0.513
99929W        W72255   5.754  21.589   3.746
99930W        W72256  41.435  35.961   2.371
99931W        W72257  20.211  25.695  10.331
99932W        W72258  24.875  28.491   2.826
99933W        W72259  39.519  10.860  10.919
99934W        W72260  18.188  32.413  12.997
99935W        W72261  25.496   0.117   0.091
99936W        W72262  42.835  42.484   0.022
99937W        W72263  17.889  22.030  14.592
99938W        W72264  36.541  26.218  11.885
99939W        W72265  39.056  33.445   2.115
99940W        W72266   9.335  21.312  10.869
99941W        W72267  44.987  29.393   1.671
99942W        W72268  17.881  38.039  14.412
99943W        W72269   5.297  16.391   2.683
99944W        W72270   7.898  35.578  12.022
99945W        W72271  16.642   4.162   2.844
99946W        W72272  36.043  10.638   5.080
99947W        W72273  16.366  37.027  10.495
99948W        W72274   3.994  27.354   1.400
99949W        W72275  13.618   3.601  14.807
99950W        W72276  10.935  42.546   1.068
99951W        W72277  39.484  17.303  11.361
99952W        W72278  21.282  36.578   3.208
99953W        W72279  27.467   4.398   2.566
99954W        W72280  32.670   7.328  12.542
99955W        W72281  44.031  43.316   0.363
99956W        W72282  43.349  23.632   4.714
99957W        W72283  33.384   4.250   0.457
99958W        W72284  22.488  31.435   0.021
99959W        W72285  16.110   5.867  11.902
99960W        W72286  35.620  38.486   3.593
99961W        W72287  29.634   9.691  10.961
99962W        W72288  25.084  29.180   2.398
99963W        W72289  28.230  38.124   0.516
99964W        W72290  14.121  43.409   3.218
99965W        W72291  30.709  41.951  14.006
99966W        W72292   8.382  38.490   0.917
99967W        W72293  25.096  27.453   1.277
99968W        W72294  37.871  41.165   5.004
99969W        W72295  31.195  10.015  11.149
99970W        W72296  24.706  32.699   0.972
99971W        W72297  35.093   7.690   0.221
99972W        W72298  43.750  37.015  11.969
99973W        W72299   0.377  13.346   1.043
99974W        W72300  29.006  18.086  13.673
99975W        W72301  33.040  18.967  11.657
99976W        W72302  11.928  28.724  12.424
99977W        W72303   5.605  12.100   4.727
99978W        W72304  10.876  24.063  10.620
99979W        W72305  19.110  25.634   1.640
99980W        W72306  19.154  20.230   4.166
99981W        W72307  24.048  33.383  11.517
99982W        W72308  26.151  40.470   3.212
99983W        W72309   4.094   1.920  14.028
99984W        W72310  44.748  16.776  13.846
99985W        W72311  40.011  42.358  10.570
99986W        W72312  16.127   6.625   2.171
99987W        W72313  29.740  44.359  10.290
99988W        W72314  28.090  35.336   2.949
99989W        W72315  19.566  19.206   4.783
99990W        W72316  41.508   7.221   3.563
99991W        W72317  33.934  11.795  12.022
99992W        W72318  13.268   3.796   2.147
99993W        W72319  43.196  29.495  14.602
99994W        W72320  19.190  20.659  12.695
99995W        W72321  32.193  20.209   0.808
99996W        W72322   7.836   9.947   0.371
99997W        W72323   3.042  32.065   4.293
99998W        W72324  14.701  10.420   0.287
99999W        W72325  24.196  36.589  13.543
    0W        W72326  12.849  25.173   1.570
    1W        W72327  40.436  36.811   1.573
    2W        W72328   9.687   3.981   2.914
    3W        W72329  43.331  37.394   2.420
    4W        W72330  38.090  22.968   1.510
    5W        W72331  40.880  42.358  13.795
    6W        W72332   0.932   1.821   2.677
    7W        W72333  21.565   5.402  14.121
    8W        W72334  16.632  29.534  14.311
    9W        W72335  19.659  25.867   5.097
   10W        W72336  43.766  20.928   3.804
   11W        W72337  13.830  38.221  11.703
   12W        W72338  33.379  19.868  10.319
   13W        W72339  10.917  44.027  13.452
   14W        W72340  17.160   9.672  14.975
   15W        W72341  13.580  20.568   2.690
   16W        W72342   7.255  44.665   4.698
   17W        W72343  29.589  35.183  14.788
   18W        W72344  23.681  34.069   4.296
   19W        W72345  15.352  11.154  12.431
   20W        W72346   2.327  35.836  13.517
   21W        W72347  42.588   1.258   4.193
   22W        W72348  23.769  11.122  14.025
   23W        W72349  19.582   8.849   1.005
   24W        W72350  44.630   3.934   4.333
   25W        W72351  24.058  40.078   4.747
   26W        W72352   4.245  16.368   0.009
   27W        W72353  11.141  34.346  13.601
   28W        W72354  29.468   6.460  10.651
   29W        W72355  21.464  15.225  14.032
   30W        W72356  32.051  34.907  12.100
   31W        W72357   8.334  28.963  12.971
   32W        W72358   4.744  28.915  10.582
   33W        W72359  38.799  41.053  13.462
   34W        W72360  10.088  30.574  12.478
   35W        W72361   0.079  19.234   2.357
   36W        W72362  31.435  25.776   4.164
   37W        W72363  41.777   4.612   2.401
   38W        W72364  19.695  17.612   2.333
   39W        W72365   3.745   9.731  14.789
   40W        W72366   2.466   2.712   4.719
   41W        W72367  42.371  42.176   1.288
   42W        W72368   9.102  37.969  10.660
   43W        W72369  36.640   6.596   1.888
   44W        W72370  34.584  32.831  11.244
   45W        W72371   3.847   6.750  12.128
   46W        W72372  27.455  13.294   0.449
   47W        W72373  42.266  18.077   2.696
   48W        W72374  11.380  30.042  12.376
   49W        W72375   7.124  43.869   1.958
   50W        W72376  25.831   6.727   4.936
   51W        W72377  25.701  13.713   4.230
   52W        W72378  41.358  40.755  14.661
   53W        W72379  24.294  36.981  11.559
   54W        W72380  33.331  20.736   1.437
   55W        W72381   0.987  34.628   3.953
   56W        W72382  15.148  23.776  14.451
   57W        W72383  10.347  18.231   4.537
   58W        W72384  27.556   9.775  11.213
   59W        W72385  22.175  32.896   0.544
   60W        W72386  41.943  20.645   3.204
   61W        W72387   2.015   6.661   2.698
   62W        W72388  32.117  34.148  11.393
   63W        W72389  23.209  24.544   3.969
   64W        W72390  17.105  36.464  14.548
   65W        W72391  19.239  18.921   3.566
   66W        W72392  43.809  15.779   2.775
   67W        W72393  10.918   1.851  11.189
   68W        W72394  38.174  21.590   1.728
   69W        W72395  29.811  20.847  11.135
   70W        W72396  17.121  20.790  10.538
   71W        W72397  36.615  12.492   5.213
   72W        W72398  44.805   0.824  10.881
   73W        W72399  40.073   6.952   3.674
   74W        W72400  21.161  19.643   3.283
   75W        W72401   9.084  13.643   2.151
   76W        W72402  26.040  10.343   1.334
   77W        W72403  12.095  33.888   1.782
   78W        W72404  10.810   2.757  13.055
   79W        W72405  16.586  34.827  10.712
   80W        W72406   9.651  42.706  14.929
   81W        W72407   5.373  36.696   0.967
   82W        W72408  33.359  31.883   1.304
   83W        W72409   1.525  16.653  11.204
   84W        W72410   1.391   5.197   0.280
   85W        W72411  35.159  37.127   4.239
   86W        W72412  42.348  31.937   0.807
   87W        W72413  32.098  32.869   0.324
   88W        W72414  21.098   4.168  12.457
   89W        W72415  12.079   6.468  10.758
   90W        W72416   5.350  37.933   0.476
   91W        W72417  20.596  13.566  11.384
   92W        W72418  37.754   1.362   4.156
   93W        W72419  43.881  37.831   3.060
   94W        W72420   8.388  33.076  10.667
   95W        W72421  29.347  44.273  12.938
   96W        W72422  28.082  38.833   4.167
   97W        W72423   3.174  14.847   2.951
   98W        W72424  14.300  36.849  10.856
   99W        W72425  42.501  23.479   0.866
  100W        W72426   5.513  25.261   4.618
  101W        W72427  18.134  21.272   2.325
  102W        W72428  26.572  40.704  14.014
  103W        W72429   5.540  24.064   0.417
  104W        W72430  11.710  33.089  11.118
  105W        W72431  35.949  18.297  14.379
  106W        W72432  20.114  14.855   0.307
  107W        W72433  40.336  14.172   5.043
  108W        W72434   4.648  18.301  11.549
  109W        W72435  42.072  43.509   4.520
  110W        W72436  17.075   8.805   0.859
  111W        W72437   0.211   2.880   3.783
  112W        W72438  27.966  24.594  12.896
  113W        W72439  24.845  18.853  12.834
  114W        W72440  11.451  20.165  11.899
  115W        W72441  30.661  36.778  12.536
  116W        W72442  32.412  24.170  11.116
  117W        W72443  24.812  32.455  12.983
  118W        W72444  29.171  20.279  12.490
  119W        W72445  22.572  30.027  13.267
  120W        W72446  41.351  19.209   1.326
  121W        W72447  18.186   9.919   2.749
  122W        W72448  39.853  19.189   2.211
  123W        W72449   9.339  27.130  10.475
  124W        W72450  21.483  41.069   3.798
  125W        W72451  32.488  18.171  14.056
  126W        W72452  13.343  33.987  14.937
  127W        W72453  35.643  19.013  14.801
  128W        W72454  17.001  13.032  14.857
  129W        W72455  37.620  24.908  10.422
  130W        W72456  29.047  44.785   4.253
  131W        W72457  43.012   7.910   3.144
  132W        W72458  16.213   4.038  14.849
  133W        W72459  13.401   0.177  11.585
  134W        W72460   4.782  23.560   1.186
  135W        W72461  22.100  44.385   0.904
  136W        W72462  31.594   4.374   1.798
  137W        W72463  10.878  30.279  10.545
  138W        W72464  36.910   0.049   1.243
  139W        W72465  32.805   4.533  14.891
  140W        W72466   5.625  43.131  13.891
  141W        W72467   4.236  41.028   3.887
  142W        W72468   7.123  22.496   1.179
  143W        W72469  35.675  32.985   5.131
  144W        W72470  13.684   1.342   3.771
  145W        W72471  41.504  31.559  11.091
  146W        W72472  28.395   5.353   2.589
  147W        W72473  21.083  12.584  14.553
  148W        W72474  18.772   4.832   0.856
  149W        W72475  19.148  27.178   3.580
  150W        W72476  27.720  33.634   4.750
  151W        W72477  29.469  30.961  13.689
  152W        W72478  41.474  29.157  12.296
  153W        W72479   7.672  32.535  11.514
  154W        W72480   4.737   3.470   0.289
  155W        W72481   2.362  11.382   0.366
  156W        W72482  33.032  10.153   1.405
  157W        W72483  18.294  28.776   1.141
  158W        W72484  20.556   1.727  13.138
  159W        W72485  17.214  27.232   1.301
  160W        W72486  12.572  11.707  10.818
  161W        W72487  16.267  20.843  12.429
  162W        W72488  26.430  11.764   1.430
  163W        W72489   6.955  22.821   2.794
  164W        W72490  39.366   7.939   0.850
  165W        W72491   3.180  29.266   4.988
  166W        W72492   1.803  14.585  13.167
  167W        W72493  44.197   3.715  12.996
  168W        W72494  29.074  37.888  12.939
  169W        W72495  35.504  24.239   2.926
  170W        W72496   7.266  23.370  12.824
  171W        W72497  13.824  26.025   2.522
  172W        W72498  39.374  12.401   4.552
  173W        W72499  38.036  24.537   1.689
  174W        W72500  31.101   9.818  11.640
  175W        W72501  13.921  14.274   3.824
  176W        W72502  36.423  43.304  13.431
  177W        W72503  23.926  12.192   4.581
  178W        W72504  43.561   6.739  10.967
  179W        W72505   2.774   2.273   0.372
  180W        W72506  16.114  35.374  13.871
  181W        W72507  24.936   3.708  12.516
  182W        W72508  34.798  35.562  11.996
  183W        W72509   0.926   7.747  14.379
  184W        W72510   6.651  25.101  10.716
  185W        W72511  19.680  11.123   4.180
  186W        W72512  12.620  27.883   5.151
  187W        W72513  39.140   9.997  11.223
  188W        W72514   6.157  25.654  14.952
  189W        W72515  25.419  40.101  10.208
  190W        W72516  13.169  16.175   0.359
  191W        W72517  29.636  31.640  11.457
  192W        W72518  23.060  20.507   0.723
  193W        W72519   9.361  33.116  12.051
  194W        W72520  28.779  31.116  14.940
  195W        W72521  27.943  27.221   0.474
  196W        W72522  33.337   1.309  13.538
  197W        W72523  19.026  43.888  12.127
  198W        W72524  38.503  20.406   3.453
  199W        W72525  40.950  19.029   2.288
  200W        W72526  15.825   7.753  14.258
  201W        W72527  23.153  24.644   3.471
  202W        W72528   2.940   1.764   4.583
  203W        W72529  14.165  16.364   2.829
  204W        W72530  17.982  14.160   2.501
  205W        W72531  35.593   1.507   2.292
  206W        W72532  18.807  10.161  12.379
  207W        W72533  17.586  40.507   2.681
  208W        W72534  26.227  21.370   1.006
  209W        W72535   8.326  23.206   1.673
  210W        W72536   3.693  14.301   2.464
  211W        W72537  41.452  31.052   0.353
  212W        W72538   8.694   1.614  10.109
  213W        W72539  31.386  11.247  13.567
  214W        W72540  30.590   1.805   0.326
  215W        W72541   8.275  34.887   2.363
  216W        W72542  19.892  12.852   0.368
  217W        W72543  29.430  25.375   1.694
  218W        W72544  38.042  19.242   1.743
  219W        W72545  12.352  25.943   0.473
  220W        W72546   4.261   1.148   4.599
  221W        W72547  28.963   9.443  11.875
  222W        W72548  23.638  15.212   1.718
  223W        W72549  42.496  35.400   3.241
  224W        W72550  28.778  11.885  13.159
  225W        W72551  13.310  24.215  12.074
  226W        W72552  13.112  37.380   5.317
  227W        W72553  31.814  42.055   4.252
  228W        W72554  14.089   9.846  12.828
  229W        W72555  31.161   3.349   3.089
  230W        W72556  42.929   2.420   1.722
  231W        W72557  13.975  21.186   4.508
  232W        W72558  42.778  31.786   3.323
  233W        W72559  19.539   2.892  14.481
  234W        W72560  23.682  13.629   2.426
  235W        W72561  26.989  30.213   4.754
  236W        W72562  41.104  25.244   0.726
  237W        W72563  43.354  22.466   0.402
  238W        W72564  15.736  25.767   1.713
  239W        W72565  10.305  11.319  12.885
  240W        W72566  13.800   2.095  11.551
  241W        W72567  41.990   9.916  12.088
  242W        W72568  20.526  23.953   2.413
  243W        W72569   2.617  13.296   0.204
  244W        W72570  17.115  23.005  12.472
  245W        W72571  20.103  36.840  12.632
  246W        W72572  43.074  34.043   4.750
  247W        W72573   5.978  35.041   2.365
  248W        W72574  36.590   0.869   0.938
  249W        W72575  41.729  24.135  12.878
  250W        W72576  15.834  35.195  11.146
  251W        W72577   0.021  22.062   1.990
  252W        W72578  17.716  38.462   0.843
  253W        W72579  12.281  31.573  13.541
  254W        W72580  38.121   7.801   1.272
  255W        W72581  26.015  40.081   1.760
  256W        W72582  21.014  21.729   2.775
  257W        W72583  17.540  17.295   2.190
  258W        W72584  36.913  17.525   2.266
  259W        W72585  34.568  30.862  13.475
  260W        W72586  44.010  32.155   1.392
  261W        W72587  39.926  28.892   0.746
  262W        W72588  44.549  13.787  13.524
  263W        W72589   2.540  24.212   0.488
  264W        W72590  27.998  19.866  12.058
  265W        W72591  17.206  38.872  13.570
  266W        W72592  23.678  16.269   3.325
  267W        W72593  19.180  23.206  14.755
  268W        W72594  28.531  21.168   2.926
  269W        W72595   2.890  33.592   3.293
  270W        W72596  44.270  40.900   3.674
  271W        W72597  20.188  34.906   3.925
  272W        W72598  44.995  36.457   2.351
  273W        W72599  12.364  40.522   0.470
  274W        W72600  24.589  27.760   3.419
  275W        W72601   8.718  18.154  13.099
  276W        W72602  14.855  16.205   3.230
  277W        W72603   3.775  17.266  11.978
  278W        W72604  33.044  14.245   3.592
  279W        W72605   7.053  40.164  11.051
  280W        W72606  23.695  20.143  12.862
  281W        W72607  11.698  30.886   0.286
  282W        W72608   8.334   4.934   3.322
  283W        W72609   8.677  33.943   0.719
  284W        W72610  38.660   9.800  13.095
  285W        W72611  12.677  12.400  13.827
  286W        W72612   2.333  41.612   4.186
  287W        W72613   9.636  37.290  13.686
  288W        W72614  28.497  42.496  14.423
  289W        W72615  43.921  29.649  11.007
  290W        W72616  11.737   4.290  14.853
  291W        W72617   4.278  43.707  14.923
  292W        W72618  41.774  21.110   2.790
  293W        W72619  27.604  32.796  12.913
  294W        W72620  26.013  23.942   2.604
  295W        W72621  21.565  22.164  13.601
  296W        W72622  43.755  41.858   2.649
  297W        W72623  33.456  29.385   0.279
  298W        W72624   8.408   8.098   2.706
  299W        W72625  20.238   3.937  10.562
  300W        W72626  26.160  11.308  10.844
  301W        W72627  29.104  40.706   0.632
  302W        W72628  29.631  33.885  11.669
  303W        W72629  27.572  38.420   1.957
  304W        W72630  34.556   5.956   0.386
  305W        W72631  25.218  44.987   2.178
  306W        W72632   5.382  38.810   3.725
  307W        W72633  16.758  28.882   2.859
  308W        W72634  16.984  41.564  10.792
  309W        W72635  10.363  24.489   4.048
  310W        W72636  23.618   4.739   0.436
  311W        W72637  18.180  39.063  12.613
  312W        W72638  29.086  29.597  12.906
  313W        W72639  13.110  20.042   1.246
  314W        W72640  10.890  19.067  10.616
  315W        W72641  34.856  13.027   3.315
  316W        W72642  23.035  28.085   0.067
  317W        W72643  13.152  10.923   1.296
  318W        W72644   3.813  36.906  12.952
  319W        W72645  39.035   3.338  13.897
  320W        W72646  15.383   7.279  12.912
  321W        W72647   8.798  20.205   3.305
  322W        W72648   4.901  25.916  13.960
  323W        W72649   8.184  23.676   1.340
  324W        W72650  27.150  41.029  11.507
  325W        W72651  13.981   4.731   1.479
  326W        W72652  10.383  38.165  10.620
  327W        W72653  37.941  19.490  11.075
  328W        W72654  11.400  34.311  14.524
  329W        W72655  35.499  34.934   1.200
  330W        W72656   6.927  23.507   3.279
  331W        W72657  14.591  36.549  14.424
  332W        W72658  11.377  44.510   3.468
  333W        W72659  41.289  20.671  14.391
  334W        W72660  13.032   6.015   2.771
  335W        W72661  41.698  15.777  11.448
  336W        W72662  40.551  38.114   0.295
  337W        W72663  29.410  35.915   0.441
  338W        W72664  10.332  39.737   3.163
  339W        W72665   9.639  11.462  11.183
  340W        W72666   6.290  40.332  10.498
  341W        W72667  31.282   5.400  14.505
  342W        W72668  34.958  16.983  13.856
  343W        W72669   6.929  40.362   1.454
  344W        W72670   3.204  31.605   2.165
  345W        W72671  39.283  27.675   0.469
  346W        W72672  35.417  11.792   0.014
  347W        W72673   2.835  15.076  14.281
  348W        W72674  13.103  17.118   0.163
  349W        W72675  41.975  20.447  11.015
  350W        W72676  30.046  24.851  13.926
  351W        W72677  15.378  36.492  11.277
  352W        W72678   3.338  35.421  10.690
  353W        W72679   5.757  33.022   1.763
  354W        W72680   1.259   3.448  13.925
  355W        W72681   3.025  36.401   2.710
  356W        W72682  20.507  39.555   4.761
  357W        W72683  27.666  21.075  14.863
  358W        W72684  31.021  16.903  10.320
  359W        W72685   5.902  22.974  14.936
  360W        W72686  33.352  23.258   0.011
  361W        W72687   6.301  36.886  10.687
  362W        W72688  29.914  41.494   2.051
  363W        W72689   0.814  14.123  13.957
  364W        W72690  41.286  34.950  10.930
  365W        W72691  32.805  17.515  11.512
  366W        W72692  22.022  24.095   1.662
  367W        W72693  22.282  25.654  13.451
  368W        W72694  32.107  12.687   4.492
  369W        W72695   3.025  11.207   0.974
  370W        W72696  44.183  37.851   2.141
  371W        W72697  14.661   1.535  11.597
  372W        W72698  28.704  26.595  14.490
  373W        W72699   5.270  15.192  14.549
  374W        W72700  40.820  36.232  12.596
  375W        W72701  35.209  23.249  12.079
  376W        W72702  15.101  25.481  12.315
  377W        W72703  11.236  43.357   4.577
  378W        W72704  34.355  31.608  12.448
  379W        W72705  20.088   5.127   3.083
  380W        W72706  12.153  13.431   2.427
  381W        W72707  10.226  23.676   3.064
  382W        W72708  39.564   3.495  14.740
  383W        W72709  32.071  30.264  14.954
  384W        W72710  20.504  15.047  12.103
  385W        W72711  20.780  41.780   2.774
  386W        W72712  40.973  29.940   2.695
  387W        W72713  39.340  16.626   1.922
  388W        W72714   5.896  38.921   3.638
  389W        W72715  38.748   0.632  11.148
  390W        W72716  37.217  36.634  12.591
  391W        W72717  20.052  33.881  13.839
  392W        W72718  21.314   4.448   1.787
  393W        W72719  43.888  21.768  11.336
  394W        W72720  38.367  24.105   2.448
  395W        W72721  25.938  19.264   2.787
  396W        W72722  38.259  13.508   9.778
  397W        W72723  28.868  35.432  12.594
  398W        W72724   0.660  14.455  11.467
  399W        W72725  13.154  17.618  14.981
  400W        W72726   2.034  33.343  10.198
  401W        W72727  37.450   3.159   0.326
  402W        W72728   0.488  32.131  12.496
  403W        W72729   3.259  34.171  11.130
  404W        W72730  18.095  23.678  13.496
  405W        W72731  19.525  31.920   1.133
  406W        W72732  42.786  33.077  13.508
  407W        W72733   8.859  10.677   1.517
  408W        W72734  34.922  42.789   2.353
  409W        W72735  19.077  32.570  14.843
  410W        W72736  40.807  43.694  10.816
  411W        W72737  41.306  30.916   3.719
  412W        W72738   6.877   2.254   3.606
  413W        W72739  20.976  41.342  11.903
  414W        W72740  44.421   3.689  14.891
  415W        W72741  30.100  28.112  11.209
  416W        W72742  23.140   6.242   3.961
  417W        W72743   1.525   4.479   4.132
  418W        W72744  40.304  38.851   4.670
  419W        W72745  32.994  26.791  10.698
  420W        W72746  10.242  28.982   3.711
  421W        W72747  35.317  41.303   3.296
  422W        W72748  38.066  40.301   1.297
  423W        W72749   8.936   0.280   3.275
  424W        W72750  35.075  19.517  11.982
  425W        W72751  10.742  24.756  14.956
  426W        W72752  12.193  22.637  11.964
  427W        W72753   4.521   6.950   0.810
  428W        W72754  20.181  40.178  14.829
  429W        W72755  31.131  28.853   1.952
  430W        W72756  27.635  30.180  12.086
  431W        W72757  28.662  33.883  10.761
  432W        W72758  18.197  26.605  10.819
  433W        W72759  38.398  11.607  12.569
  434W        W72760  32.016   2.841   4.500
  435W        W72761   9.398  29.430   0.882
  436W        W72762  32.140  32.127  14.487
  437W        W72763  20.139   1.202  11.951
  438W        W72764  19.096  32.594   1.844
  439W        W72765  31.844  19.651  14.547
  440W        W72766   4.074  32.893   4.628
  441W        W72767   0.344   2.015  11.171
  442W        W72768  40.878   4.362  13.928
  443W        W72769  39.808   8.219  12.655
  444W        W72770  16.679  20.942   1.387
  445W        W72771  17.726  17.469  11.021
  446W        W72772  25.007  11.423  12.879
  447W        W72773  18.962   8.152   4.439
  448W        W72774  25.134  17.685  12.040
  449W        W72775  21.100  25.944   2.822
  450W        W72776   2.516  27.598   1.342
  451W        W72777   7.325  26.992  14.448
  452W        W72778  14.334  19.453  14.592
  453W        W72779  20.227  29.069  13.948
  454W        W72780  39.023   6.803  13.927
  455W        W72781  29.267  18.822  14.383
  456W        W72782  44.420  41.485  14.006
  457W        W72783  23.328  15.299  13.587
  458W        W72784   0.688  40.804  14.073
  459W        W72785   9.555   9.707   4.222
  460W        W72786  15.548   0.474   0.691
  461W        W72787   9.803  20.442  14.070
  462W        W72788  11.322  16.781   4.264
  463W        W72789  38.455  11.415  13.913
  464W        W72790  26.716  11.589   5.152
  465W        W72791  22.677  20.714  12.931
  466W        W72792  29.164   0.766  11.412
  467W        W72793  34.423   7.099   4.214
  468W        W72794  36.342  12.918  11.988
  469W        W72795  41.067  28.695  13.920
  470W        W72796   6.203  31.977  14.942
  471W        W72797  30.640  30.912   1.179
  472W        W72798  34.222  14.044   3.118
  473W        W72799  30.507  12.059   4.539
  474W        W72800  17.902  22.162  11.598
  475W        W72801   5.919  19.257  12.596
  476W        W72802   9.084  43.736  11.987
  477W        W72803  31.325  20.170   3.703
  478W        W72804  15.195  44.040   1.285
  479W        W72805  11.731  34.643   3.377
  480W        W72806  30.365  21.441  12.955
  481W        W72807   9.120  29.412   1.345
  482W        W72808  32.034  29.923  14.254
  483W        W72809   6.652  11.905   1.968
  484W        W72810  32.592  40.356  10.621
  485W        W72811  32.721   7.741   2.022
  486W        W72812  27.412  14.752  10.700
  487W        W72813  11.376  24.192  10.558
  488W        W72814  39.929  13.574  11.547
  489W        W72815  27.980  40.326   9.992
  490W        W72816  12.849  19.008   2.992
  491W        W72817  11.319   9.693   0.330
  492W        W72818  38.181  17.793  14.506
  493W        W72819  10.685  11.204   3.127
  494W        W72820  35.397   3.280   2.269
  495W        W72821   8.364  20.966   0.533
  496W        W72822  40.793   5.814  10.789
  497W        W72823  35.674  30.164   0.800
  498W        W72824  19.635  28.181   4.541
  499W        W72825  25.387  42.765  14.800
  500W        W72826  20.510  44.859  11.101
  501W        W72827   6.167   5.231   2.305
  502W        W72828  20.394  30.898  10.906
  503W        W72829  11.755   7.843  11.458
  504W        W72830  32.696   5.441   3.665
  505W        W72831  15.631  24.463   3.835
  506W        W72832  26.279   8.930  12.623
  507W        W72833  43.988   3.321  10.636
  508W        W72834   4.316   5.036  12.762
  509W        W72835  40.165  34.518   4.560
  510W        W72836   3.816  38.974   4.762
  511W        W72837  20.561  10.388   4.909
  512W        W72838  25.741   4.724   3.828
  513W        W72839  29.457  22.000   0.348
  514W        W72840  12.250  22.538  13.999
  515W        W72841  34.553   1.474  13.147
  516W        W72842  22.963  12.039  11.180
  517W        W72843  39.738   1.776  14.792
  518W        W72844  37.673  32.106  12.489
  519W        W72845   0.303  35.551  14.461
  520W        W72846  39.588  10.363   1.930
  521W        W72847  12.702  17.771  11.153
  522W        W72848   2.883   2.482   2.115
  523W        W72849  33.969  43.911   4.604
  524W        W72850  13.541  44.289  11.202
  525W        W72851  41.870  23.431   2.900
  526W        W72852  10.387  18.369   2.664
  527W        W72853  11.334  29.192  11.968
  528W        W72854  43.882  35.885   0.958
  529W        W72855   8.703  10.315  12.850
  530W        W72856   2.636   0.402   0.340
  531W        W72857  19.690  32.132   0.205
  532W        W72858   6.204  29.639  11.304
  533W        W72859   3.892  11.896  13.413
  534W        W72860  34.499  18.147  12.550
  535W        W72861  19.103  44.715   1.829
  536W        W72862  43.021  17.742  10.722
  537W        W72863  10.248  24.005  11.381
  538W        W72864  40.275  12.207  13.984
  539W        W72865  27.515  39.390   3.548
  540W        W72866  32.898  31.920   3.062
  541W        W72867  26.960  27.230   2.843
  542W        W72868   9.630  18.114  11.292
  543W        W72869  38.483  40.424   4.750
  544W        W72870  17.248  34.139  13.404
  545W        W72871   0.016  37.284   4.249
  546W        W72872  26.650   9.180  10.242
  547W        W72873  25.137  29.145   1.882
  548W        W72874  29.373  11.220  10.948
  549W        W72875  33.565   6.325  11.492
  550W        W72876  44.122  20.648   1.668
  551W        W72877   2.652  24.813   3.579
  552W        W72878  29.593  17.681  12.786
  553W        W72879  20.798   7.930  11.226
  554W        W72880   4.765  29.017   2.359
  555W        W72881  15.205  16.747  10.407
  556W        W72882  12.020  18.488   3.448
  557W        W72883  13.199   0.851   4.194
  558W        W72884   8.830  34.633  10.328
  559W        W72885   9.945  16.193  14.489
  560W        W72886  18.269   7.249   4.223
  561W        W72887  34.129  28.468   4.105
  562W        W72888  11.226   6.970   1.154
  563W        W72889  25.642  22.476  14.850
  564W        W72890  25.067  35.241   0.170
  565W        W72891  27.745  32.630   1.425
  566W        W72892   6.020  11.186   2.370
  567W        W72893  44.020  31.542  11.515
  568W        W72894  43.854  39.593  13.481
  569W        W72895  26.225  23.061   4.110
  570W        W72896  34.878  36.339  12.407
  571W        W72897  26.567  24.377  12.746
  572W        W72898  23.510  38.888  11.634
  573W        W72899  34.708  24.902  11.859
  574W        W72900   1.241  21.606  12.130
  575W        W72901  18.360   7.963   3.666
  576W        W72902  24.141  41.336   4.235
  577W        W72903  24.551  17.006   1.403
  578W        W72904  19.105  25.527  13.825
  579W        W72905  15.137  41.860  11.525
  580W        W72906  44.458  17.581   4.151
  581W        W72907  22.069  14.635  14.800
  582W        W72908   2.028  27.109  12.026
  583W        W72909   8.140  33.528  10.774
  584W        W72910  32.862  31.371   2.368
  585W        W72911  32.258  31.092  12.580
  586W        W72912  15.951   0.785  14.827
  587W        W72913  28.884   0.206   0.731
  588W        W72914  43.807   7.215   0.396
  589W        W72915  40.147  37.098  14.380
  590W        W72916  22.201   0.131   2.079
  591W        W72917   2.809   9.724  10.203
  592W        W72918  20.216   9.838  12.046
  593W        W72919  35.165  27.225  13.872
  594W        W72920  27.157   8.969  13.511
  595W        W72921  32.339   8.917   3.114
  596W        W72922   3.709  21.179  11.507
  597W        W72923   2.774  11.654  14.147
  598W        W72924   0.677  17.140   0.007
  599W        W72925  22.626  41.851  12.622
  600W        W72926  30.490  43.889  13.889
  601W        W72927  42.466  30.653   3.206
  602W        W72928  22.659  22.649   0.493
  603W        W72929  33.474  13.530   3.602
  604W        W72930  34.883  36.433  11.529
  605W        W72931  19.532  23.988   1.757
  606W        W72932   4.661  31.202  11.033
  607W        W72933  29.336   1.788   4.258
  608W        W72934  21.815   5.852   3.086
  609W        W72935  18.090  28.875  11.187
  610W        W72936   3.144   4.961  14.535
  611W        W72937  27.988  16.059   4.685
  612W        W72938  36.522  16.487   4.870
  613W        W72939  12.093   6.181  14.349
  614W        W72940  16.132  36.527  11.046
  615W        W72941  37.591  27.598  13.353
  616W        W72942  23.046   0.447  13.764
  617W        W72943  16.704   8.244   2.799
  618W        W72944  36.487  38.973  10.644
  619W        W72945  13.382  10.764  13.540
  620W        W72946  15.894   6.271   2.636
  621W        W72947   9.359   5.355   4.296
  622W        W72948  43.550   2.719  12.241
  623W        W72949  36.482  23.956   2.143
  624W        W72950  43.462  29.939  11.889
  625W        W72951   3.678  12.315  10.570
  626W        W72952   1.941   4.160  11.029
  627W        W72953   9.363   8.390   3.402
  628W        W72954   3.712   1.414   3.158
  629W        W72955   7.230  28.502   1.451
  630W        W72956  38.617  28.597   4.141
  631W        W72957  29.483  31.228   4.784
  632W        W72958  35.138  37.757   5.009
  633W        W72959  31.129  28.462  11.639
  634W        W72960  38.092   8.790  14.919
  635W        W72961  10.634  28.494  14.361
  636W        W72962  13.287  32.019  13.955
  637W        W72963  37.043  20.953  12.059
  638W        W72964  27.999  28.169   2.330
  639W        W72965   5.818  32.474  14.321
  640W        W72966  29.462  23.249   1.191
  641W        W72967  40.374   6.659  10.646
  642W        W72968   2.975   6.365  14.317
  643W        W72969  13.867  37.873   2.709
  644W        W72970   1.925  25.833   4.547
  645W        W72971  21.569   1.188   1.967
  646W        W72972  23.226  40.781   1.429
  647W        W72973  19.249   1.336  14.417
  648W        W72974  11.348   8.298  11.834
  649W        W72975  16.853  38.442   1.312
  650W        W72976  18.603   8.687  11.307
  651W        W72977  18.664  27.909   3.726
  652W        W72978  16.031  34.100  13.453
  653W        W72979  44.252  37.420  13.618
  654W        W72980   6.544  33.470  14.896
  655W        W72981  34.009  13.569  10.660
  656W        W72982  38.903   3.616   5.096
  657W        W72983  41.233   9.521   1.525
  658W        W72984   7.058  35.376   3.362
  659W        W72985  20.201   6.803   0.952
  660W        W72986  38.867  31.725   4.132
  661W        W72987  27.582   6.935  12.535
  662W        W72988  19.672   8.213  11.570
  663W        W72989  30.006  21.021  14.919
  664W        W72990  20.011  15.481   1.507
  665W        W72991  41.966  23.636   3.903
  666W        W72992  17.566   5.259  11.073
  667W        W72993  19.795   9.738   0.541
  668W        W72994  36.270  41.825  14.037
  669W        W72995  32.433  37.181   4.184
  670W        W72996  38.936  26.235   0.182
  671W        W72997  25.403  13.234  14.396
  672W        W72998   7.221  17.151  10.442
  673W        W72999  11.422   8.795  14.052
  674W        W73000  19.653  31.107  12.091
  675W        W73001  15.886  28.195  11.468
  676W        W73002  15.616   0.201  12.963
  677W        W73003  35.086  29.562   4.085
  678W        W73004  36.692  42.244   2.819
  679W        W73005   5.661  28.930  10.516
  680W        W73006   9.634  18.987   0.768
  681W        W73007   4.693  19.020  12.000
  682W        W73008  19.533   5.228   3.713
  683W        W73009   2.379  32.144  12.583
  684W        W73010  32.184   5.193   2.213
  685W        W73011  23.546  44.819   0.461
  686W        W73012  12.171  42.290   3.655
  687W        W73013  38.896  28.377  11.590
  688W        W73014  37.241  18.761   5.003
  689W        W73015  10.295  39.157  13.014
  690W        W73016  38.786  24.483   4.185
  691W        W73017  35.550  43.564   3.714
  692W        W73018  18.076  38.336   2.203
  693W        W73019  33.886  22.121  14.504
  694W        W73020  32.892  36.994   4.207
  695W        W73021   2.354  21.331   1.231
  696W        W73022  19.282  33.060  14.810
  697W        W73023   6.719  19.453  11.119
  698W        W73024   5.813  34.696  12.210
  699W        W73025  43.812  30.880   0.438
  700W        W73026  12.324  28.198   3.078
  701W        W73027  44.293  26.227   1.214
  702W        W73028  17.933  26.000  11.851
  703W        W73029  39.294  43.043   2.730
  704W        W73030   4.386  12.129   1.158
  705W        W73031  11.051  24.671  14.019
  706W        W73032   9.168  18.744   4.375
  707W        W73033   8.842  14.735   4.374
  708W        W73034   4.334   6.786  10.853
  709W        W73035  16.711  11.772   1.152
  710W        W73036  23.013  43.900  14.806
  711W        W73037  16.567  30.017  11.754
  712W        W73038  18.137  31.116  11.573
  713W        W73039  28.531  36.920  13.723
  714W        W73040  10.170  21.517  13.351
  715W        W73041  15.100  11.853   3.599
  716W        W73042   7.303   5.226  10.680
  717W        W73043  35.123  22.119   4.258
  718W        W73044  33.844  22.942  13.564
  719W        W73045   4.611  19.593   4.632
  720W        W73046  37.182  14.610   4.596
  721W        W73047  20.724   6.460   1.392
  722W        W73048   3.381  36.534   4.294
  723W        W73049  31.883  10.600  13.284
  724W        W73050  19.166   3.985   1.457
  725W        W73051   9.139  21.179   3.591
  726W        W73052  26.673  35.815   0.747
  727W        W73053  33.126   3.722  12.926
  728W        W73054   3.841  27.187  11.956
  729W        W73055   8.319  37.109   3.100
  730W        W73056  20.833   3.445  14.443
  731W        W73057  16.661  36.624  13.989
  732W        W73058  19.634  18.701   4.736
  733W        W73059  32.417  20.107   2.912
  734W        W73060   6.349   0.703   4.157
  735W        W73061  42.373  23.442   3.060
  736W        W73062   1.680  40.090   0.036
  737W        W73063  10.933  32.022  10.516
  738W        W73064  41.901  24.661   0.823
  739W        W73065   5.772  15.167  14.874
  740W        W73066  37.323  10.454  11.604
  741W        W73067  19.521  44.069  14.398
  742W        W73068  13.585   7.345  11.019
  743W        W73069  27.574  10.845   0.134
  744W        W73070  19.580  18.148  14.316
  745W        W73071  23.968  14.378   4.225
  746W        W73072  15.824  21.040   4.074
  747W        W73073  44.240   2.133  14.971
  748W        W73074  41.296  25.237  13.280
  749W        W73075   0.357  19.534  12.470
  750W        W73076  15.267  29.107   2.936
  751W        W73077  10.661  12.410  13.938
  752W        W73078  39.529  43.299  13.268
  753W        W73079  40.850  23.547   1.290
  754W        W73080   0.438  22.193   2.261
  755W        W73081  28.111  43.411  11.960
  756W        W73082  28.715  13.252   3.219
  757W        W73083  44.942  38.795  11.707
  758W        W73084   5.587   2.282   2.300
  759W        W73085  39.297  19.826  11.104
  760W        W73086  17.571  31.601  12.550
  761W        W73087  19.745  35.457  13.930
  762W        W73088   0.600   9.697   1.459
  763W        W73089  24.577  19.145  10.574
  764W        W73090  42.880   8.635  10.705
  765W        W73091   8.837  13.429   0.730
  766W        W73092  20.167   9.280   0.741
  767W        W73093  18.287  32.807  13.822
  768W        W73094  24.598  17.379  13.546
  769W        W73095   3.677  26.020  12.230
  770W        W73096  10.213   1.810   2.866
  771W        W73097   7.279  42.672  12.445
  772W        W73098  35.888  27.070  10.467
  773W        W73099   5.900  33.376   1.343
  774W        W73100  29.570  34.917   1.525
  775W        W73101   8.819  44.945   1.371
  776W        W73102  27.190  13.239  12.303
  777W        W73103  12.337  17.838   4.143
  778W        W73104  42.714  35.005   0.851
  779W        W73105  19.988   6.903  14.483
  780W        W73106   2.924  36.512   0.716
  781W        W73107  14.056  23.880  14.311
  782W        W73108  41.524  20.016   5.060
  783W        W73109  34.378   1.929  13.974
  784W        W73110  18.250   6.401   4.503
  785W        W73111  18.129  20.537   0.193
  786W        W73112   2.759  34.206  13.387
  787W        W73113   0.510  30.691  14.238
  788W        W73114  43.793  36.481  14.254
  789W        W73115   9.798  39.838  10.558
  790W        W73116  12.279   4.943  10.453
  791W        W73117  40.291  20.456   1.788
  792W        W73118  42.179  23.169  13.117
  793W        W73119  21.122  30.838   3.645
  794W        W73120  38.070  34.542   0.405
  795W        W73121   4.444  33.708   0.790
  796W        W73122   2.315  31.625  12.540
  797W        W73123   1.335  25.512  12.997
  798W        W73124  20.319  44.465  14.423
  799W        W73125  34.052  14.732   1.518
  800W        W73126  38.529  31.668  13.456
  801W        W73127  42.567  12.793  12.134
  802W        W73128  29.991  44.519  14.407
  803W        W73129  16.186   8.428  13.860
  804W        W73130  15.676   6.149  14.473
  805W        W73131  19.074  13.872  11.429
  806W        W73132  11.858  29.874  13.363
  807W        W73133  28.739  24.175   0.159
  808W        W73134  27.138  22.140  11.203
  809W        W73135  38.293  29.322   1.858
  810W        W73136  41.525  41.825  13.056
  811W        W73137  23.152  43.603   3.793
  812W        W73138  31.779  40.998   0.754
  813W        W73139  40.232  36.453  11.575
  814W        W73140  17.603   9.836   4.256
  815W        W73141  31.880  19.498  11.996
  816W        W73142  38.917  24.384  11.603
  817W        W73143  34.863   7.760   4.661
  818W        W73144  28.055  38.434   4.527
  819W        W73145   5.798   9.893  11.396
  820W        W73146   9.345  32.187   2.674
  821W        W73147  20.025  42.301   0.378
  822W        W73148  29.747   1.961  14.300
  823W        W73149   9.796   3.901  10.932
  824W        W73150  33.460  30.385   0.345
  825W        W73151   1.067  40.934  12.159
  826W        W73152  34.223  35.149   0.600
  827W        W73153  30.116   0.537  11.465
  828W        W73154  13.406  23.535   1.314
  829W        W73155  37.257   6.830   2.691
  830W        W73156  44.241  10.874   0.435
  831W        W73157  33.464  28.131   4.531
  832W        W73158  35.829  10.307   3.176
  833W        W73159  29.651   5.160  11.082
  834W        W73160   6.367  17.435   3.635
  835W        W73161  19.416  23.958  12.484
  836W        W73162  28.000  25.470  12.090
  837W        W73163  11.630  28.311  12.500
  838W        W73164   9.876  21.530  13.801
  839W        W73165   9.674   7.151  10.700
  840W        W73166  16.017  17.129   2.426
  841W        W73167   5.344  25.556  11.003
  842W        W73168  36.961   6.355  13.769
  843W        W73169  22.690  11.881   2.776
  844W        W73170  36.380  39.620  13.053
  845W        W73171   7.365  20.581   2.861
  846W        W73172  27.479  15.840   2.248
  847W        W73173  31.879   0.256  14.919
  848W        W73174  16.987  28.024   2.812
  849W        W73175   0.284  21.087  13.768
  850W        W73176  11.073  11.395  13.434
  851W        W73177  42.478  36.694  14.052
  852W        W73178   8.215   1.688   0.458
  853W        W73179   1.980  34.182   2.241
  854W        W73180   0.421   2.228  12.471
  855W        W73181  34.525  27.582   0.083
  856W        W73182   5.945  31.522   0.833
  857W        W73183  19.042  24.742   1.503
  858W        W73184  28.005  13.388  12.599
  859W        W73185  19.683  38.624   1.456
  860W        W73186   4.584  21.653  13.497
  861W        W73187   7.347  42.898   1.002
  862W        W73188  35.560  41.937  12.435
  863W        W73189  32.685  39.124   1.712
  864W        W73190   2.490  14.279   5.086
  865W        W73191  43.449  26.468   2.832
  866W        W73192  28.480  26.168  14.235
  867W        W73193   2.737  19.062   0.846
  868W        W73194  20.725  12.656   2.633
  869W        W73195  14.780  25.109  14.988
  870W        W73196   4.786  11.815   5.055
  871W        W73197  31.684  30.595  10.769
  872W        W73198  16.859  36.839   0.290
  873W        W73199  10.909  26.654  14.939
  874W        W73200   8.273   5.202   2.883
  875W        W73201  26.376  17.483  10.697
  876W        W73202   5.450   7.917   1.341
  877W        W73203   7.369  25.530  14.473
  878W        W73204  11.781  35.291  11.725
  879W        W73205  18.728   0.252   4.278
  880W        W73206  30.095  28.496  11.573
  881W        W73207  42.621  28.151   1.352
  882W        W73208  14.328  44.358  10.589
  883W        W73209  24.480  17.998  14.398
  884W        W73210  30.259  44.705   1.940
  885W        W73211  43.119   6.876  14.746
  886W        W73212  18.298  44.001  13.986
  887W        W73213  22.293   3.430   1.920
  888W        W73214   5.458  26.198   1.757
  889W        W73215  11.132  34.541  14.145
  890W        W73216  36.437  14.904  11.930
  891W        W73217  15.612   0.662  11.449
  892W        W73218  16.475  20.815  11.609
  893W        W73219  28.561  24.548   1.985
  894W        W73220  41.035   5.755   4.232
  895W        W73221  10.546  20.735  12.339
  896W        W73222  19.517  27.029  10.723
  897W        W73223  25.542   7.882  14.546
  898W        W73224  29.548  14.125   4.892
  899W        W73225  29.177   4.718   1.143
  900W        W73226  32.073  22.436  12.456
  901W        W73227  42.258  38.355  11.105
  902W        W73228   7.364  13.748  14.698
  903W        W73229   5.240  20.329  10.767
  904W        W73230  35.835  24.567  14.893
  905W        W73231  28.059  26.516   1.442
  906W        W73232  40.313  23.363  13.776
  907W        W73233   6.685  40.828   0.602
  908W        W73234  31.869   8.670   0.355
  909W        W73235  12.527  44.633  11.186
  910W        W73236  39.544  40.791  11.420
  911W        W73237  11.726   7.281   3.720
  912W        W73238  15.278  30.090  10.700
  913W        W73239  40.512  30.887  10.719
  914W        W73240  37.767  10.346  12.418
  915W        W73241   6.389  36.998  13.042
  916W        W73242  30.993  36.152  14.992
  917W        W73243  15.097  43.638  13.265
  918W        W73244  42.739  26.476   3.597
  919W        W73245  33.988  42.717   1.915
  920W        W73246  13.578   5.819   4.112
  921W        W73247   0.487  11.340   4.329
  922W        W73248  22.043  29.895   4.228
  923W        W73249  37.355  26.045   4.575
  924W        W73250   2.507  28.816   4.577
  925W        W73251  29.772  34.161  10.718
  926W        W73252  10.917  28.577   3.208
  927W        W73253  37.840  28.284  10.759
  928W        W73254  16.613  41.975  13.276
  929W        W73255  17.549  36.544   1.358
  930W        W73256  26.547  23.063  10.703
  931W        W73257   0.813  10.620   1.856
  932W        W73258  22.746  27.668   0.160
  933W        W73259  17.004  42.087  12.922
  934W        W73260  16.038  16.300  11.654
  935W        W73261  39.736  11.299  11.075
  936W        W73262  17.271  35.187   4.687
  937W        W73263  19.154  13.530   4.541
  938W        W73264   5.559  17.631  11.208
  939W        W73265   3.611  39.814  11.751
  940W        W73266  11.412  37.964  11.676
  941W        W73267  42.248  36.454  11.268
  942W        W73268  11.335  22.678  13.298
  943W        W73269  12.378  10.098   1.283
  944W        W73270  12.274   5.299   2.825
  945W        W73271  35.098   4.920   1.080
  946W        W73272   4.745  43.482   1.890
  947W        W73273  16.269  41.555   4.435
  948W        W73274  37.921  24.267   4.182
  949W        W73275  22.989  38.991   4.064
  950W        W73276  13.812  13.606  12.897
  951W        W73277  27.912  16.760  13.407
  952W        W73278  31.499   8.129   3.760
  953W        W73279  19.596   8.149  13.511
  954W        W73280  24.552  27.169   1.925
  955W        W73281   9.205  25.966   2.271
  956W        W73282  31.597  13.633   3.243
  957W        W73283  37.603   0.971  14.835
  958W        W73284  15.335  23.559   3.196
  959W        W73285   7.384  14.783   0.459
  960W        W73286  26.045  39.099  11.139
  961W        W73287  15.552  24.620  12.064
  962W        W73288   5.370  34.656   1.300
  963W        W73289  14.285  35.870  13.884
  964W        W73290  29.074  22.754  14.878
  965W        W73291   1.201   4.171  11.512
  966W        W73292  29.980  11.639  12.488
  967W        W73293  25.278   8.292   0.970
  968W        W73294  44.915  23.981  12.109
  969W        W73295   1.504   3.231  12.484
  970W        W73296  35.755  36.041   4.587
  971W        W73297  26.665  21.090   4.012
  972W        W73298  39.511  21.224   4.603
  973W        W73299  36.404  33.527   1.484
  974W        W73300  44.619  17.888   0.922
  975W        W73301  30.926  32.670  12.020
  976W        W73302  28.503  13.296  12.441
  977W        W73303  43.662   8.204   0.499
  978W        W73304  23.101  10.383   3.376
  979W        W73305  29.563  12.708  14.364
  980W        W73306  33.118  40.052  11.489
  981W        W73307  34.831  18.511   4.945
  982W        W73308  30.589   7.143  13.446
  983W        W73309   4.796  27.425  10.763
  984W        W73310  39.624  13.615   3.353
  985W        W73311  32.312  15.188  12.878
  986W        W73312  27.498   1.727  12.932
  987W        W73313  38.889  42.282  11.826
  988W        W73314  15.174   8.178   2.657
  989W        W73315  10.254  38.215  11.956
  990W        W73316  36.768  36.622  12.850
  991W        W73317  15.725  17.591   4.369
  992W        W73318   6.450  11.675  14.765
  993W        W73319  11.215  30.569   2.775
  994W        W73320  23.989   9.216   2.161
  995W        W73321  29.204   9.305  14.285
  996W        W73322  14.637   8.883   3.853
  997W        W73323  10.314   3.265  12.463
  998W        W73324  18.577  37.882   2.748
  999W        W73325  17.633  43.803   4.500
 1000W        W73326  20.780  31.524   3.591
 1001W        W73327  43.734  44.161  10.914
 1002W        W73328  16.183   2.381  13.387
 1003W        W73329  30.521   0.150   2.023
 1004W        W73330   7.816  40.784  13.012
 1005W        W73331  11.131  32.892   3.294
 1006W        W73332   7.252  10.816  14.456
 1007W        W73333  20.111  36.873   4.254
 1008W        W73334  37.917  36.415   2.353
 1009W        W73335  38.328  14.636   0.831
 1010W        W73336  20.265  24.178  13.218
 1011W        W73337  35.936  43.383  13.263
 1012W        W73338  35.816  11.661  13.465
 1013W        W73339  31.597  24.758  10.900
 1014W        W73340  40.550  44.754   0.471
 1015W        W73341   1.547  38.913   1.291
 1016W        W73342  33.938   4.661   4.548
 1017W        W73343  36.352  11.389   4.211
 1018W        W73344   5.207   1.440  11.884
 1019W        W73345   9.521  41.822   4.635
 1020W        W73346  21.212   6.827   0.893
 1021W        W73347  37.548   6.670   0.335
 1022W        W73348  39.919  41.015   1.406
 1023W        W73349  33.685  26.143   2.313
 1024W        W73350   9.743  33.383  11.315
 1025W        W73351   7.557   8.701  12.439
 1026W        W73352  40.392  10.621  11.901
 1027W        W73353  39.482  28.062  12.610
 1028W        W73354   4.974  15.507   1.381
 1029W        W73355  29.178  11.326  12.380
 1030W        W73356  36.695   6.277   0.157
 1031W        W73357   5.863  12.220  14.011
 1032W        W73358   5.599  42.611  13.828
 1033W        W73359  36.475  14.694   4.393
 1034W        W73360  41.817  29.349   3.300
 1035W        W73361  35.486  24.762   2.881
 1036W        W73362  26.436  32.888  14.227
 1037W        W73363  38.285  38.914   1.436
 1038W        W73364  10.080  15.215   4.549
 1039W        W73365  34.599  12.181  13.771
 1040W        W73366   0.804   8.750  10.379
 1041W        W73367   9.239  44.901   4.285
 1042W        W73368   8.468  16.712   1.015
 1043W        W73369  20.200   7.173   0.358
 1044W        W73370   7.449   5.930  12.979
 1045W        W73371  15.218   6.536  12.430
 1046W        W73372   3.810  38.061  11.586
 1047W        W73373  15.567  17.691  10.005
 1048W        W73374  28.494  36.394   0.853
 1049W        W73375  44.524   6.656  14.934
 1050W        W73376   5.299  35.161   4.756
 1051W        W73377  33.487   7.478   2.248
 1052W        W73378  43.715  16.717   3.145
 1053W        W73379  15.717  36.857  12.131
 1054W        W73380   7.876   7.563  11.663
 1055W        W73381  33.391  15.316  12.604
 1056W        W73382  41.812  14.049   3.802
 1057W        W73383   6.355  36.848   1.933
 1058W        W73384  30.054  36.812  13.063
 1059W        W73385   1.763  12.431   1.021
 1060W        W73386  31.593  32.531   1.381
 1061W        W73387  22.968   8.763  10.603
 1062W        W73388  16.125   0.313  12.935
 1063W        W73389  18.658  44.871   2.113
 1064W        W73390  21.049  44.190  11.520
 1065W        W73391  37.038  27.596  11.544
 1066W        W73392  11.845   4.555   3.421
 1067W        W73393  35.874  43.124   4.162
 1068W        W73394   7.195   8.164   3.539
 1069W        W73395  18.753  43.399  11.973
 1070W        W73396  34.346  15.578   3.107
 1071W        W73397  15.158  17.263  11.150
 1072W        W73398  39.075  32.163   1.451
 1073W        W73399  40.149  17.115   2.793
 1074W        W73400  26.351   9.617  12.481
 1075W        W73401  27.639  17.804   3.117
 1076W        W73402  16.137  14.375  10.628
 1077W        W73403  22.184  38.143  11.859
 1078W        W73404  34.987   2.615   3.274
 1079W        W73405  36.582  32.450  11.013
 1080W        W73406  28.353  26.182   3.822
 1081W        W73407  40.742  33.885  13.052
 1082W        W73408  17.286   6.804   1.591
 1083W        W73409  44.384  12.201  14.722
 1084W        W73410  33.491  28.376  11.145
 1085W        W73411   0.843  32.558   0.959
 1086W        W73412   0.975   8.184   4.776
 1087W        W73413   7.219  32.299  11.599
 1088W        W73414   9.861  17.288   2.824
 1089W        W73415  42.036  33.589  12.395
 1090W        W73416  17.787  17.030   1.838
 1091W        W73417   2.671  13.060  13.381
 1092W        W73418  20.248   7.221   3.410
 1093W        W73419  24.589  14.590  11.897
 1094W        W73420  18.623  32.038   1.220
 1095W        W73421  23.782  37.947  11.852
 1096W        W73422  36.972   7.851   2.787
 1097W        W73423  29.063  36.282   0.338
 1098W        W73424  20.287  35.458  13.934
 1099W        W73425  20.663  37.067  14.393
 1100W        W73426  12.276   8.737  14.413
 1101W        W73427  10.576   3.263  13.078
 1102W        W73428  39.106  37.824  14.365
 1103W        W73429  43.020  19.078  14.268
 1104W        W73430  13.453  33.558  11.969
 1105W        W73431  21.742  37.332  10.199
 1106W        W73432  39.107  34.089   4.077
 1107W        W73433  16.020  42.498   1.475
 1108W        W73434  40.348  22.511  12.692
 1109W        W73435  27.947  34.042  12.465
 1110W        W73436  32.101  12.360   3.275
 1111W        W73437  24.674  27.405  12.944
 1112W        W73438  18.358  19.713   0.782
 1113W        W73439  15.205  16.545   4.593
 1114W        W73440   1.706  11.559  12.415
 1115W        W73441  26.806  28.602  10.214
 1116W        W73442  14.690  27.192  11.487
 1117W        W73443   7.641  15.612   0.839
 1118W        W73444  38.933  17.532   1.793
 1119W        W73445  33.421  43.494   0.941
 1120W        W73446  15.512  19.589  12.652
 1121W        W73447  22.642  27.724   0.669
 1122W        W73448  10.751   7.376  14.418
 1123W        W73449  28.131   6.630   3.194
 1124W        W73450   7.194  26.653  14.840
 1125W        W73451   8.302  40.130   2.414
 1126W        W73452  16.693   4.301  11.622
 1127W        W73453  36.483   5.174  13.970
 1128W        W73454  41.736  20.517   2.745
 1129W        W73455   9.175  21.627  10.418
 1130W        W73456  11.832   7.152  12.064
 1131W        W73457  14.849  38.913  13.851
 1132W        W73458  40.474   1.171   1.745
 1133W        W73459  22.706  29.428  13.461
 1134W        W73460  41.010   9.635  12.869
 1135W        W73461  37.048  28.534  12.005
 1136W        W73462  10.720   0.705   2.151
 1137W        W73463  15.192  30.660   1.956
 1138W        W73464  12.143  33.409   1.590
 1139W        W73465  29.086  30.979  14.542
 1140W        W73466  19.141  16.356   2.373
 1141W        W73467  12.243  34.676   0.915
 1142W        W73468  25.030  27.970   4.690
 1143W        W73469   5.372  37.114  10.425
 1144W        W73470  36.464  24.159   0.344
 1145W        W73471  36.239  36.250   4.669
 1146W        W73472  37.954  43.800  11.363
 1147W        W73473  14.066  14.101   0.952
 1148W        W73474  38.118  42.801  12.330
 1149W        W73475  44.067  12.296   1.281
 1150W        W73476  43.050   8.372   1.662
 1151W        W73477  25.035  29.127  12.555
 1152W        W73478  26.356  27.504  11.573
 1153W        W73479  21.615  32.019   2.586
 1154W        W73480  28.982   2.245  14.465
 1155W        W73481  35.088  16.093   4.539
 1156W        W73482  17.644  17.702   4.565
 1157W        W73483  25.639  24.190  13.902
 1158W        W73484  38.343  42.887  11.864
 1159W        W73485  28.389  22.999  12.944
 1160W        W73486  21.671  11.015   2.626
 1161W        W73487  30.441  10.190  10.971
 1162W        W73488  39.924  40.961   0.500
 1163W        W73489  17.200   2.817   2.672
 1164W        W73490  13.902  29.953  11.039
 1165W        W73491  28.213  39.521  11.885
 1166W        W73492  23.504  26.691  12.493
 1167W        W73493  31.760  32.142   3.845
 1168W        W73494  39.857  17.666  11.407
 1169W        W73495   6.252  35.399   2.120
 1170W        W73496  18.044   4.339  14.312
 1171W        W73497  40.979  34.834  13.026
 1172W        W73498  44.052   6.089  11.079
 1173W        W73499  25.181  22.641  11.499
 1174W        W73500  35.779  16.193   3.746
 1175W        W73501  29.389  15.188  14.072
 1176W        W73502  14.516  42.387   2.454
 1177W        W73503  13.084  21.522  12.242
 1178W        W73504  37.997   0.437   0.351
 1179W        W73505  19.612  16.732  14.381
 1180W        W73506  38.058  13.156  12.470
 1181W        W73507  22.176  16.721  14.468
 1182W        W73508  13.421  17.632   0.443
 1183W        W73509  28.130   3.268   2.806
 1184W        W73510  31.942   4.199   2.950
 1185W        W73511  11.100  39.985   1.315
 1186W        W73512   2.384  18.746   2.349
 1187W        W73513  14.241  27.218   3.288
 1188W        W73514   7.478   7.228   1.634
 1189W        W73515  16.208  44.908  12.582
 1190W        W73516  30.626  17.193  13.563
 1191W        W73517  44.398  20.178   0.745
 1192W        W73518  22.453  30.450  14.972
 1193W        W73519   0.015   2.109  11.556
 1194W        W73520  29.883  37.025   3.176
 1195W        W73521  18.621   6.835   2.628
 1196W        W73522   5.010   1.905  12.060
 1197W        W73523  42.470  38.032  10.750
 1198W        W73524  12.629   1.100  11.045
 1199W        W73525  25.627  42.042   0.272
 1200W        W73526  11.675  22.534   2.656
 1201W        W73527  12.920  35.873   4.631
 1202W        W73528  18.489  10.157  11.522
 1203W        W73529  41.891  36.097  11.193
 1204W        W73530   8.643  10.053   4.213
 1205W        W73531  41.499  19.137   0.820
 1206W        W73532  14.195  19.773   2.381
 1207W        W73533  33.883  44.453   3.892
 1208W        W73534  22.451  36.580   1.815
 1209W        W73535  36.268  16.002   3.712
 1210W        W73536  22.900  20.884   2.482
 1211W        W73537  44.814  11.346  14.890
 1212W        W73538  23.131  20.983  12.949
 1213W        W73539  29.727  29.007   4.209
 1214W        W73540  21.694  31.515   2.700
 1215W        W73541  33.750  22.641  10.829
 1216W        W73542  26.963  26.642   4.540
 1217W        W73543  41.317  12.956  12.917
 1218W        W73544   2.428  44.364  10.659
 1219W        W73545  23.899   8.141  11.867
 1220W        W73546  40.167  34.886  12.617
 1221W        W73547  27.262  17.551  13.707
 1222W        W73548  26.455  28.695  11.131
 1223W        W73549  34.505   9.151   3.270
 1224W        W73550  12.422  27.109   3.334
 1225W        W73551  29.347  10.049  10.123
 1226W        W73552  44.471   9.422  11.646
 1227W        W73553  32.195  37.809  11.091
 1228W        W73554  25.542  19.582   3.670
 1229W        W73555  37.388   1.783  13.822
 1230W        W73556  19.804  32.985   2.150
 1231W        W73557  25.711   3.388  12.186
 1232W        W73558  39.495  36.406   0.235
 1233W        W73559  31.511   9.923   2.719
 1234W        W73560  30.583  21.760  11.644
 1235W        W73561  44.137  44.310   4.953
 1236W        W73562  20.285   1.814   3.548
 1237W        W73563  21.569  15.677  13.811
 1238W        W73564  12.995  22.426  14.372
 1239W        W73565  37.176   8.395  14.777
 1240W        W73566  33.520  41.746   3.671
 1241W        W73567   3.329   0.359  10.844
 1242W        W73568  20.119  25.865  12.646
 1243W        W73569   6.927  41.445  14.409
 1244W        W73570   1.977  39.425   0.069
 1245W        W73571  11.318  42.762   3.252
 1246W        W73572  34.831  39.952   4.465
 1247W        W73573  30.170  29.470  13.866
 1248W        W73574  19.510  41.767   3.792
 1249W        W73575  13.466  22.533   2.222
 1250W        W73576   5.953  18.484   1.667
 1251W        W73577  22.968  27.707   2.327
 1252W        W73578  25.655  15.439  13.612
 1253W        W73579   6.151  17.807  14.912
 1254W        W73580   3.824  13.928  14.545
 1255W        W73581   3.978   8.977   3.751
 1256W        W73582  33.304  29.688  11.481
 1257W        W73583   1.354  31.876  12.863
 1258W        W73584  31.528  12.148  11.849
 1259W        W73585  31.008   4.489  10.300
 1260W        W73586  21.187   5.685   0.897
 1261W        W73587  33.163  37.625   0.867
 1262W        W73588  12.868  14.140   4.491
 1263W        W73589  44.476  37.403   0.960
 1264W        W73590  23.475  23.478   4.524
 1265W        W73591  23.053  27.255   4.583
 1266W        W73592  26.523   0.584   0.609
 1267W        W73593  14.792  23.783  10.882
 1268W        W73594   0.901   3.346   1.450
 1269W        W73595  20.157  10.055  12.515
 1270W        W73596  25.024  37.649  10.960
 1271W        W73597  30.993  22.211   0.403
 1272W        W73598   7.391  37.135  14.461
 1273W        W73599  23.745   3.942   0.020
 1274W        W73600  20.998   0.067  12.022
 1275W        W73601  36.372   4.527   4.203
 1276W        W73602  12.827   5.473  13.568
 1277W        W73603  37.134  39.911   1.344
 1278W        W73604   6.249  40.534   2.351
 1279W        W73605  39.905  11.638   4.518
 1280W        W73606  37.521  14.314  14.354
 1281W        W73607  30.958   8.932  12.508
 1282W        W73608  36.055  37.496   1.712
 1283W        W73609  35.122  39.040   3.175
 1284W        W73610  35.121   6.331  13.373
 1285W        W73611   3.918  27.043   2.675
 1286W        W73612  10.709   8.931  14.583
 1287W        W73613   7.591   1.386   1.118
 1288W        W73614  19.548  41.307   1.762
 1289W        W73615   7.400   9.153   4.975
 1290W        W73616  37.921   8.394   3.861
 1291W        W73617   1.598  33.017   5.159
 1292W        W73618  30.201   7.363   3.120
 1293W        W73619  39.741  27.656  13.048
 1294W        W73620  17.012   7.773  10.709
 1295W        W73621  41.224  23.079  11.198
 1296W        W73622  31.071  19.928   4.887
 1297W        W73623  16.365  22.257   3.518
 1298W        W73624   7.303  34.591  13.805
 1299W        W73625  23.015  39.577   1.369
 1300W        W73626  44.833  43.526  12.134
 1301W        W73627  40.633  19.734   2.710
 1302W        W73628  27.670  28.474  12.853
 1303W        W73629  24.727  26.789   0.703
 1304W        W73630  22.074  42.523  12.898
 1305W        W73631  19.571  41.752   5.142
 1306W        W73632  22.818  37.698   4.191
 1307W        W73633   7.396   3.957   1.893
 1308W        W73634   2.751  39.904  13.423
 1309W        W73635  44.760   5.401  14.285
 1310W        W73636  35.250   8.511   2.321
 1311W        W73637  27.980  25.687   9.641
 1312W        W73638  31.953  10.196   0.014
 1313W        W73639  27.063  34.770   0.817
 1314W        W73640   1.682   4.157  13.289
 1315W        W73641  13.578   9.833   2.651
 1316W        W73642  26.060   1.459   0.853
 1317W        W73643  32.092  40.218   2.498
 1318W        W73644  42.711  38.459   0.436
 1319W        W73645  17.598   6.391  10.598
 1320W        W73646   4.203  39.982  10.506
 1321W        W73647  15.174  35.649   5.670
 1322W        W73648  28.697  20.987   1.635
 1323W        W73649  38.117  41.882  11.569
 1324W        W73650  26.961   4.394   1.743
 1325W        W73651  42.824  18.565  12.222
 1326W        W73652   9.856  32.042  10.959
 1327W        W73653  34.345  33.518  14.458
 1328W        W73654   6.966  41.817  14.751
 1329W        W73655  18.106   5.253   3.309
 1330W        W73656  41.853  26.129   3.916
 1331W        W73657  36.080  37.320  13.356
 1332W        W73658   3.655  22.643   2.720
 1333W        W73659  35.106  14.093   4.730
 1334W        W73660   4.605  32.634   0.190
 1335W        W73661   0.266  25.079  14.327
 1336W        W73662  11.382  35.316  14.880
 1337W        W73663  36.087   3.949   0.172
 1338W        W73664  42.467  16.094  14.863
 1339W        W73665  37.335  15.227   4.557
 1340W        W73666  21.828  36.985   3.535
 1341W        W73667   3.903   5.160  14.066
 1342W        W73668   1.131  26.527   3.145
 1343W        W73669  32.298  12.296  11.685
 1344W        W73670   7.379  42.955   1.497
 1345W        W73671  44.429  31.002   2.797
 1346W        W73672  33.500  34.454  14.075
 1347W        W73673  30.062  18.659  13.925
 1348W        W73674  41.092  10.352   0.920
 1349W        W73675  35.135  10.714  12.881
 1350W        W73676  36.227   4.710   4.719
 1351W        W73677  11.385   1.717   3.765
 1352W        W73678  27.773  20.279  14.086
 1353W        W73679  42.353   4.019  14.496
 1354W        W73680  44.157  18.529   3.689
 1355W        W73681   6.220  13.340  11.355
 1356W        W73682  21.010  40.337  10.055
 1357W        W73683  36.280  18.115  12.570
 1358W        W73684  25.946  42.361  10.864
 1359W        W73685  20.756  34.186   1.503
 1360W        W73686  18.184  22.640   3.120
 1361W        W73687  30.882  15.089   0.392
 1362W        W73688  28.555   5.807   2.378
 1363W        W73689  10.416  36.499  14.273
 1364W        W73690  31.652   8.657  12.132
 1365W        W73691  33.990  16.659   1.199
 1366W        W73692  42.409  20.002   0.102
 1367W        W73693  42.252  19.786   1.361
 1368W        W73694  31.029   4.412  11.631
 1369W        W73695  35.146  22.026   0.376
 1370W        W73696  21.572  12.006   2.696
 1371W        W73697  24.485   8.416   3.813
 1372W        W73698  27.647  34.563  10.637
 1373W        W73699   7.250  44.962   1.029
 1374W        W73700  40.558  18.564  12.993
 1375W        W73701  35.071  44.933   3.221
 1376W        W73702  30.987   9.125  11.545
 1377W        W73703   6.423  34.400   4.025
 1378W        W73704   5.018  32.341   1.669
 1379W        W73705  31.489  23.120   4.099
 1380W        W73706  32.249  43.214  10.353
 1381W        W73707  40.600  16.755  14.018
 1382W        W73708   9.340   2.996   4.067
 1383W        W73709  16.411  40.028  13.962
 1384W        W73710  12.619  42.756   1.326
 1385W        W73711  18.045  41.781  14.879
 1386W        W73712  31.627   0.203  12.098
 1387W        W73713  21.224  43.356   0.304
 1388W        W73714  43.956   2.661  10.716
 1389W        W73715  31.943  41.804  10.502
 1390W        W73716  21.069  29.025  12.076
 1391W        W73717   3.236  31.107   5.031
 1392W        W73718  12.681  17.857   0.064
 1393W        W73719  17.581  41.021  13.502
 1394W        W73720  36.825  15.672  14.209
 1395W        W73721  25.161   8.120   3.259
 1396W        W73722  39.035  41.515   4.130
 1397W        W73723   0.276  37.414  14.029
 1398W        W73724   8.075  22.046  13.505
 1399W        W73725  40.601  42.743  11.601
 1400W        W73726   7.942   7.122  10.346
 1401W        W73727  27.041  26.047  11.474
 1402W        W73728  38.307  42.935   3.906
 1403W        W73729  44.176  20.262  13.057
 1404W        W73730  19.668   3.351   3.808
 1405W        W73731  13.820  11.222  13.796
 1406W        W73732   4.819  29.053   3.337
 1407W        W73733   1.551   9.907   9.572
 1408W        W73734  28.221  18.729   3.601
 1409W        W73735  11.598  33.689   3.671
 1410W        W73736  35.309   6.750   4.228
 1411W        W73737  34.336  40.058   3.119
 1412W        W73738   8.050  33.949  12.035
 1413W        W73739   2.789  39.321   3.155
 1414W        W73740  27.005  17.329   0.950
 1415W        W73741  38.629  33.291  13.905
 1416W        W73742  20.622  41.577   0.847
 1417W        W73743  44.451   8.240  14.072
 1418W        W73744  27.256   9.258  12.595
 1419W        W73745  42.626   6.493   3.872
 1420W        W73746   3.396  31.241   0.888
 1421W        W73747  30.559  38.515   2.593
 1422W        W73748  25.156  28.410   0.660
 1423W        W73749  35.938  29.669   1.956
 1424W        W73750  30.765  13.116   4.140
 1425W        W73751  32.229  44.058  14.437
 1426W        W73752  41.731  44.444  12.436
 1427W        W73753   6.622  27.006  13.923
 1428W        W73754  23.769  38.024  13.438
 1429W        W73755  38.973  27.091  11.868
 1430W        W73756  23.774  15.123  11.035
 1431W        W73757  28.370  43.944  10.655
 1432W        W73758  27.945  31.601   0.718
 1433W        W73759  21.029  23.029  11.506
 1434W        W73760  12.081  30.172   1.856
 1435W        W73761   4.686  42.796   3.097
 1436W        W73762  14.568  41.209   0.296
 1437W        W73763  34.115  10.411  11.985
 1438W        W73764   0.032  42.008   3.297
 1439W        W73765  36.328  31.953   4.148
 1440W        W73766   0.806  22.244   0.806
 1441W        W73767  13.746  31.596   3.393
 1442W        W73768  10.786   8.067  11.178
 1443W        W73769  11.619  33.938  14.856
 1444W        W73770  32.971  34.129   1.401
 1445W        W73771   5.645  32.560  11.214
 1446W        W73772  39.134  39.911  13.915
 1447W        W73773  36.541  41.026   4.720
 1448W        W73774  19.943  22.943   4.262
 1449W        W73775  14.895  44.533   3.627
 1450W        W73776  23.746  23.052  13.928
 1451W        W73777  39.406   0.016   1.751
 1452W        W73778   1.830  39.749   1.492
 1453W        W73779  12.707  28.665  11.979
 1454W        W73780  22.505  22.687   2.784
 1455W        W73781  42.440   5.853   3.101
 1456W        W73782  12.292   1.334  11.564
 1457W        W73783  43.757  43.203   0.798
 1458W        W73784   5.782  26.490  12.790
 1459W        W73785  25.136   3.702   3.235
 1460W        W73786   8.027  12.663  13.794
 1461W        W73787  41.821  43.041  14.891
 1462W        W73788  28.725  19.673   5.101
 1463W        W73789  39.020  30.026   0.279
 1464W        W73790   6.256  15.382   0.446
 1465W        W73791  42.455  26.734  12.414
 1466W        W73792  11.222  37.888  13.379
 1467W        W73793  14.616  15.802  11.237
 1468W        W73794   6.480  12.242   2.385
 1469W        W73795  14.773  42.389  13.122
 1470W        W73796  23.929  41.440   0.784
 1471W        W73797  29.161   8.298  11.193
 1472W        W73798  11.757  34.910  10.888
 1473W        W73799  27.751  12.614  14.895
 1474W        W73800  21.817   3.970   3.482
 1475W        W73801   5.762  17.391  10.792
 1476W        W73802  20.601  20.003   0.313
 1477W        W73803  33.966  23.020  12.698
 1478W        W73804  23.363  26.378  12.066
 1479W        W73805  44.698  35.061  11.611
 1480W        W73806  13.728  40.041  11.033
 1481W        W73807  10.146  16.488   0.461
 1482W        W73808  15.961  31.410   3.348
 1483W        W73809  13.664  24.931  14.007
 1484W        W73810  18.356   8.582  14.037
 1485W        W73811  13.817  25.272  14.365
 1486W        W73812  21.222  13.371   1.722
 1487W        W73813  28.136   6.011   1.089
 1488W        W73814  15.404   9.257   1.862
 1489W        W73815  20.613  42.951   4.702
 1490W        W73816  35.010  29.590   3.203
 1491W        W73817  10.664   0.588   3.876
 1492W        W73818  15.604  22.665   0.725
 1493W        W73819   0.646   0.230  12.515
 1494W        W73820   0.883  11.693  13.821
 1495W        W73821  28.148  40.978   0.781
 1496W        W73822   7.271  18.518   0.922
 1497W        W73823   6.820  43.077   4.199
 1498W        W73824  24.962   5.019   1.876
 1499W        W73825  37.935  34.681  12.054
 1500W        W73826  28.239  39.779   1.459
 1501W        W73827   4.910  40.302  13.969
 1502W        W73828   2.419  14.165   0.378
 1503W        W73829   2.826   1.221  13.299
 1504W        W73830   3.298   1.676  10.433
 1505W        W73831   8.729  34.413  13.819
 1506W        W73832  38.122  30.005  12.968
 1507W        W73833  43.857  36.767   0.841
 1508W        W73834  12.540  39.353  14.327
 1509W        W73835  19.675  28.597   3.287
 1510W        W73836   9.392  20.668  13.378
 1511W        W73837  29.142  27.867  12.088
 1512W        W73838  39.827   4.517  11.164
 1513W        W73839  10.707  41.287  14.293
 1514W        W73840  23.440   0.058  11.148
 1515W        W73841  15.226  19.723   1.878
 1516W        W73842  41.320  11.305  14.997
 1517W        W73843  21.076  40.515   1.344
 1518W        W73844   8.226  22.447  13.066
 1519W        W73845  35.183  31.357   3.729
 1520W        W73846   7.607  12.945  12.416
 1521W        W73847  18.091  29.386   3.383
 1522W        W73848  21.472  37.371  14.212
 1523W        W73849  12.263  41.827   2.219
 1524W        W73850  16.826  31.596   0.692
 1525W        W73851  32.436   7.758  10.871
 1526W        W73852  28.747  37.582   1.354
 1527W        W73853  15.134  37.187   4.756
 1528W        W73854  40.881  25.047  13.530
 1529W        W73855  41.290  24.756  14.248
 1530W        W73856  13.667   2.918  10.684
 1531W        W73857  41.985  20.264   0.838
 1532W        W73858  24.118   3.773   1.194
 1533W        W73859   8.707  20.788   3.928
 1534W        W73860  29.143  44.369  13.419
 1535W        W73861  37.508  43.449   4.542
 1536W        W73862  23.739  26.961  12.933
 1537W        W73863  17.579  11.321   1.975
 1538W        W73864  26.908   1.720   2.222
 1539W        W73865  33.991  15.819  13.572
 1540W        W73866   1.422   1.061   0.844
 1541W        W73867  32.203  17.087   2.834
 1542W        W73868  12.303  25.899  11.536
 1543W        W73869  43.701   5.838  14.348
 1544W        W73870  40.397   7.693   1.543
 1545W        W73871  44.739   6.706  13.060
 1546W        W73872  21.574  35.542  14.506
 1547W        W73873  32.981  38.979  10.642
 1548W        W73874  41.475  22.526  10.704
 1549W        W73875  10.258  35.077  13.288
 1550W        W73876  41.373  21.776   3.437
 1551W        W73877  40.729   0.772   0.258
 1552W        W73878   3.295  37.044  14.840
 1553W        W73879  25.690  36.931  11.209
 1554W        W73880  10.864  12.056   3.801
 1555W        W73881   2.274  28.056  14.502
 1556W        W73882  43.048  23.644   0.877
 1557W        W73883  38.016  39.876   0.079
 1558W        W73884  24.571  31.639   4.653
 1559W        W73885  37.015  25.836   2.886
 1560W        W73886   4.862  44.003   5.046
 1561W        W73887  16.365  16.728   2.166
 1562W        W73888  19.411  12.070  14.348
 1563W        W73889  30.911  39.581  12.544
 1564W        W73890   7.404   4.052   0.023
 1565W        W73891  32.606   6.190   3.211
 1566W        W73892  33.218  22.090   1.769
 1567W        W73893  44.911  44.412   3.683
 1568W        W73894  15.344   7.408  13.846
 1569W        W73895   9.600  35.297   1.937
 1570W        W73896  25.468   9.009   3.967
 1571W        W73897  13.197  32.554  13.022
 1572W        W73898  26.592  29.058  10.121
 1573W        W73899  33.715  29.724  14.365
 1574W        W73900  18.457  37.479   4.708
 1575W        W73901   9.562   0.801  12.660
 1576W        W73902  40.950  18.243  11.083
 1577W        W73903  40.781  31.138   0.977
 1578W        W73904  11.311  35.848   0.446
 1579W        W73905  28.019  29.633   4.007
 1580W        W73906  11.649  27.422   3.727
 1581W        W73907  41.462  39.332  14.915
 1582W        W73908  27.231  36.954   2.840
 1583W        W73909   8.314  18.273   4.280
 1584W        W73910   0.286  21.224  10.275
 1585W        W73911  20.705  38.926  14.344
 1586W        W73912  41.442  21.667   2.423
 1587W        W73913  28.513  44.969  14.452
 1588W        W73914   3.373  21.214   4.116
 1589W        W73915  20.593  35.641   3.692
 1590W        W73916  37.426  42.053   3.646
 1591W        W73917   9.390  12.713   3.887
 1592W        W73918   5.120  42.196   1.927
 1593W        W73919  37.657  11.699  11.666
 1594W        W73920   9.384  34.470   3.654
 1595W        W73921  13.771  28.394  12.396
 1596W        W73922  32.505  36.122  11.145
 1597W        W73923   8.926  36.523   3.613
 1598W        W73924  18.446  24.040   3.397
 1599W        W73925  10.840   9.816   3.085
 1600W        W73926  29.002   5.382   4.374
 1601W        W73927  22.667  27.907   4.972
 1602W        W73928   2.549  43.590   0.219
 1603W        W73929  22.412  39.435   2.608
 1604W        W73930   9.470  31.180   1.925
 1605W        W73931  28.867  29.375   4.181
 1606W        W73932  17.225  15.863  11.757
 1607W        W73933  26.064  21.152  11.155
 1608W        W73934  40.233  39.807   4.197
 1609W        W73935  40.858   2.987   4.344
 1610W        W73936  30.150  17.476  14.010
 1611W        W73937  39.623  28.010   0.710
 1612W        W73938   3.492  20.096   5.071
 1613W        W73939  16.197  10.087  12.536
 1614W        W73940  24.813  42.900  12.535
 1615W        W73941  25.561   4.192   4.603
 1616W        W73942   7.971  36.534   3.690
 1617W        W73943  36.810  40.094   0.003
 1618W        W73944  37.242  12.054   0.920
 1619W        W73945  35.504  16.734  13.110
 1620W        W73946  10.677   5.795   1.031
 1621W        W73947  19.361  29.147   3.179
 1622W        W73948  30.306  11.933   0.172
 1623W        W73949  11.112   3.413  13.781
 1624W        W73950  30.246   6.548   4.179
 1625W        W73951  16.174   4.623  10.664
 1626W        W73952  28.725  38.903   3.250
 1627W        W73953  20.563  16.884  10.534
 1628W        W73954   4.544  41.511   1.457
 1629W        W73955  39.991  44.852   1.133
 1630W        W73956   6.178  20.533  12.310
 1631W        W73957  15.961   5.437   1.938
 1632W        W73958  34.470   7.551  14.450
 1633W        W73959  20.216  12.221   0.953
 1634W        W73960  24.818  41.463  10.719
 1635W        W73961  38.824   3.166  13.369
 1636W        W73962  13.165  41.509   0.281
 1637W        W73963  13.595  32.517   4.364
 1638W        W73964  13.348  41.837  12.005
 1639W        W73965  32.448  29.914   3.638
 1640W        W73966   1.460   9.158   3.190
 1641W        W73967  11.211  40.389   1.600
 1642W        W73968  20.080  38.456   2.330
 1643W        W73969  21.563   6.236  11.519
 1644W        W73970  13.750   5.130   3.567
 1645W        W73971  32.614  21.677   2.427
 1646W        W73972   5.906  33.994  11.147
 1647W        W73973  21.630  31.567  14.760
 1648W        W73974  19.322   2.770  13.651
 1649W        W73975   3.982   6.317   1.206
 1650W        W73976  15.180   6.506   3.153
 1651W        W73977   2.642  44.871  11.514
 1652W        W73978  39.363  19.571  10.646
 1653W        W73979  19.581  27.659  13.460
 1654W        W73980  20.027  37.297  12.395
 1655W        W73981  42.108  34.038  11.576
 1656W        W73982  24.244   9.241  10.493
 1657W        W73983  33.554  21.786  13.849
 1658W        W73984  10.406  10.216  10.486
 1659W        W73985  16.367  20.503   0.659
 1660W        W73986   9.256  29.939   3.155
 1661W        W73987  19.305  20.999  11.321
 1662W        W73988  42.071  36.562   0.052
 1663W        W73989  24.401  21.749   1.550
 1664W        W73990   6.646   2.369   3.110
 1665W        W73991  34.514   4.167  11.044
 1666W        W73992  18.497  21.074  11.074
 1667W        W73993   4.080  24.260   2.104
 1668W        W73994  32.920  13.854   1.967
 1669W        W73995  22.436   9.921   2.612
 1670W        W73996  35.160  39.934   4.069
 1671W        W73997  43.989  18.321   4.142
 1672W        W73998  41.465  42.937  13.236
 1673W        W73999  28.584   4.436   0.415
 1674W        W74000  40.000  21.768  11.751
 1675W        W74001   1.064  30.043  11.138
 1676W        W74002  40.570  14.162   2.588
 1677W        W74003  22.933   2.250   1.732
 1678W        W74004  41.272  18.790  14.446
 1679W        W74005  43.317  41.868  14.384
 1680W        W74006  37.990  39.643   1.550
 1681W        W74007  32.595  43.308   1.292
 1682W        W74008  11.866   2.762   4.798
 1683W        W74009  31.895   4.584  11.138
 1684W        W74010  29.050  29.969  13.725
 1685W        W74011  34.001  13.109   4.766
 1686W        W74012  12.718  11.591  12.936
 1687W        W74013  39.311  36.172  10.370
 1688W        W74014  17.283  34.685   4.833
 1689W        W74015  33.505  33.091   0.776
 1690W        W74016  33.122  27.945  14.399
 1691W        W74017  34.394  40.819   3.582
 1692W        W74018  26.068  34.518  12.485
 1693W        W74019  43.783   1.952  14.440
 1694W        W74020  29.693  28.470  13.871
 1695W        W74021  25.994   1.069  14.985
 1696W        W74022  43.962  26.524   2.212
 1697W        W74023   5.480  38.064  12.968
 1698W        W74024  25.103   9.743   1.154
 1699W        W74025  41.948  24.977   2.804
 1700W        W74026  11.278   9.291  13.909
 1701W        W74027   7.659  39.285  14.868
 1702W        W74028   7.616  37.168  11.123
 1703W        W74029  35.807  27.734   2.606
 1704W        W74030  21.074  34.009   3.718
 1705W        W74031   2.756  25.258   0.823
 1706W        W74032  27.594  36.413  11.146
 1707W        W74033  42.302  14.045   2.196
 1708W        W74034  20.496  28.167  11.049
 1709W        W74035   8.373  12.603  12.057
 1710W        W74036  34.510  18.721  13.841
 1711W        W74037  24.718  32.899   0.450
 1712W        W74038  30.527  29.847  11.214
 1713W        W74039  36.873   7.454   0.334
 1714W        W74040  10.318  10.594  14.012
 1715W        W74041   5.803   7.176   1.393
 1716W        W74042  17.831  20.169   0.426
 1717W        W74043  15.970  43.134  11.818
 1718W        W74044  40.448   2.479   4.159
 1719W        W74045   4.337  17.027   1.382
 1720W        W74046  27.041  39.274  12.140
 1721W        W74047  39.972  35.094  12.175
 1722W        W74048  11.737   1.873  12.425
 1723W        W74049  21.547   7.014   1.869
 1724W        W74050  44.279  39.815   4.690
 1725W        W74051  13.764  13.952  10.577
 1726W        W74052  32.478  21.537  12.055
 1727W        W74053  19.069  32.859  14.370
 1728W        W74054  25.913  36.478  13.009
 1729W        W74055  28.516   5.208   3.575
 1730W        W74056  26.578  18.570   2.869
 1731W        W74057   9.037  44.186   0.949
 1732W        W74058  21.844  42.597  13.366
 1733W        W74059  39.355  34.809  13.383
 1734W        W74060  41.884  43.029   0.923
 1735W        W74061  36.228  11.986   1.952
 1736W        W74062  12.985  24.498   2.670
 1737W        W74063  37.888  37.387   1.413
 1738W        W74064  33.939  13.832  14.824
 1739W        W74065   5.347  17.666   4.813
 1740W        W74066   3.311  12.157  10.192
 1741W        W74067  40.400  42.183  13.802
 1742W        W74068  23.946  40.218  13.930
 1743W        W74069  25.159  41.839  10.766
 1744W        W74070  17.962   3.801  12.605
 1745W        W74071  26.157  22.559   2.077
 1746W        W74072  10.396   2.194  14.381
 1747W        W74073  27.104   2.277  11.646
 1748W        W74074  38.639   4.579   3.359
 1749W        W74075  25.745   8.876   0.165
 1750W        W74076  43.881  31.119   2.464
 1751W        W74077  30.201  12.637   0.059
 1752W        W74078   3.544   4.208   3.173
 1753W        W74079  28.651  21.396   0.006
 1754W        W74080  32.009  11.320   3.193
 1755W        W74081   5.601  39.436   2.466
 1756W        W74082  32.722   7.838   0.069
 1757W        W74083  44.809  15.104  12.395
 1758W        W74084  35.106  32.349  10.089
 1759W        W74085   2.942  16.759   2.827
 1760W        W74086  30.444   8.936   1.605
 1761W        W74087  35.364  20.160  10.797
 1762W        W74088  19.631  36.234   2.271
 1763W        W74089   9.303   4.495   4.216
 1764W        W74090   7.544  28.431   0.303
 1765W        W74091  18.771  30.930  12.436
 1766W        W74092   9.815   9.176  12.805
 1767W        W74093  43.681  33.422   0.017
 1768W        W74094  12.596  40.025   2.621
 1769W        W74095  23.364   3.957  14.657
 1770W        W74096  35.381  27.864  11.849
 1771W        W74097   9.907   1.295   1.288
 1772W        W74098  37.329  18.198   2.931
 1773W        W74099  19.591  34.012   0.530
 1774W        W74100  42.967  17.890  14.990
 1775W        W74101  20.762  29.982  14.554
 1776W        W74102   4.702  37.394   0.811
 1777W        W74103  21.626  21.223  13.584
 1778W        W74104   1.066  31.423  10.699
 1779W        W74105  16.178   0.808   3.086
 1780W        W74106  11.886  26.887  11.988
 1781W        W74107  35.605  32.510  13.070
 1782W        W74108  44.061   4.123   1.901
 1783W        W74109   7.772   8.686  13.861
 1784W        W74110  44.068   1.271  10.701
 1785W        W74111   0.437  37.056  14.929
 1786W        W74112  42.883   6.936  13.019
 1787W        W74113   8.629  24.547  13.800
 1788W        W74114  26.469  25.846  11.204
 1789W        W74115   4.443  40.092  12.468
 1790W        W74116  35.490  36.518  10.017
 1791W        W74117  16.480  26.414   4.140
 1792W        W74118  24.037  39.299  12.899
 1793W        W74119  19.535  41.619  12.063
 1794W        W74120  42.943  22.352  13.316
 1795W        W74121   9.795  30.986   3.521
 1796W        W74122  44.993  39.605   4.110
 1797W        W74123  35.610  15.980   4.567
 1798W        W74124  34.365  13.596  13.379
 1799W        W74125  35.555  44.373  13.445
 1800W        W74126   4.299  17.292   3.990
 1801W        W74127  29.125  26.579  10.431
 1802W        W74128  32.436  17.587   0.888
 1803W        W74129  12.320  19.209  14.857
 1804W        W74130  42.224  37.771   0.992
 1805W        W74131  17.519  44.486  13.931
 1806W        W74132  41.485  31.392   3.651
 1807W        W74133   2.080   2.277  10.246
 1808W        W74134  40.390  21.639   4.669
 1809W        W74135  12.623  14.292  11.023
 1810W        W74136  18.624  14.565   3.222
 1811W        W74137   4.092  12.442   5.558
 1812W        W74138   3.434  14.451  10.752
 1813W        W74139  10.155  44.692  11.907
 1814W        W74140  16.505  44.771   2.320
 1815W        W74141  30.370   0.321  14.842
 1816W        W74142  26.085  12.358   2.666
 1817W        W74143  33.940  28.671  11.144
 1818W        W74144  32.426  20.550   0.456
 1819W        W74145  35.464  11.187   4.646
 1820W        W74146  19.269  44.092   2.882
 1821W        W74147   0.927  17.721   5.013
 1822W        W74148  29.999  12.639  11.142
 1823W        W74149   2.704  34.136  11.974
 1824W        W74150   3.129  10.353   3.734
 1825W        W74151  21.217  28.161  14.317
 1826W        W74152   2.237  32.021   2.002
 1827W        W74153   5.660  39.003   2.768
 1828W        W74154   9.250  26.183  14.234
 1829W        W74155  40.649  24.555  14.816
 1830W        W74156  37.608   2.065  13.400
 1831W        W74157  15.738  10.725  13.081
 1832W        W74158   7.209   3.314  13.260
 1833W        W74159  22.981  27.417  14.470
 1834W        W74160  20.045  23.781   2.290
 1835W        W74161  13.404   2.218  12.378
 1836W        W74162  34.570  21.502   0.761
 1837W        W74163  16.661  24.807  10.705
 1838W        W74164  22.179  40.260   0.339
 1839W        W74165   6.276  22.626   5.077
 1840W        W74166  10.766  24.699  11.059
 1841W        W74167  14.615  14.740   2.656
 1842W        W74168  21.110  39.972   0.037
 1843W        W74169  24.916  18.882   4.167
 1844W        W74170   1.359  28.477   1.608
 1845W        W74171  26.555  40.364   2.859
 1846W        W74172  43.369   3.983  12.161
 1847W        W74173   3.439  40.323  12.521
 1848W        W74174   5.575  28.425   1.027
 1849W        W74175  17.866  29.306   4.183
 1850W        W74176  32.666  39.630  14.443
 1851W        W74177   3.210  19.557  14.359
 1852W        W74178  22.447  31.071  11.984
 1853W        W74179  25.020   2.334  14.148
 1854W        W74180  23.185  37.361   3.799
 1855W        W74181  26.477   0.368  12.926
 1856W        W74182   6.542  27.615   3.697
 1857W        W74183  14.970  10.752  12.389
 1858W        W74184  42.918  41.933   3.150
 1859W        W74185  37.146  38.816  14.966
 1860W        W74186  26.139  42.854  11.233
 1861W        W74187   4.193  18.208   0.901
 1862W        W74188  31.062   3.333   4.666
 1863W        W74189  13.174  14.039   4.088
 1864W        W74190  24.654  35.161   2.631
 1865W        W74191  23.524  42.499   3.448
 1866W        W74192  44.234   4.710  11.066
 1867W        W74193  35.916   7.807  13.619
 1868W        W74194  34.624  31.094  11.042
 1869W        W74195  22.473   0.257  13.536
 1870W        W74196  44.870  37.961  11.630
 1871W        W74197   5.008  24.542   0.037
 1872W        W74198   0.667  19.571   4.632
 1873W        W74199  16.679  13.624   1.804
 1874W        W74200   2.189  40.747   0.771
 1875W        W74201  32.863   4.477  13.100
 1876W        W74202   8.861  23.501   3.693
 1877W        W74203  30.537  43.361   3.854
 1878W        W74204  27.452  12.590   1.485
 1879W        W74205  20.338  41.012  12.582
 1880W        W74206  27.445   0.791  10.508
 1881W        W74207   6.964  13.417   0.920
 1882W        W74208  32.116  30.729   4.230
 1883W        W74209  25.472  16.377  12.691
 1884W        W74210  43.437  20.573  11.124
 1885W        W74211  15.782  22.143  14.318
 1886W        W74212   8.231  18.829  10.567
 1887W        W74213  35.832  31.189  14.401
 1888W        W74214  26.938  19.104   1.485
 1889W        W74215  39.885   0.729  13.189
 1890W        W74216  27.191  16.734  12.092
 1891W        W74217   6.365  35.404   3.503
 1892W        W74218  19.454   0.041  13.259
 1893W        W74219  16.701  10.100  14.370
 1894W        W74220  44.745   3.905  13.688
 1895W        W74221  28.232  42.241  12.823
 1896W        W74222  31.512  25.008   4.602
 1897W        W74223   3.196  16.648   4.146
 1898W        W74224  20.712  39.342   2.733
 1899W        W74225  24.383  29.028  11.639
 1900W        W74226  14.260   6.729   0.231
 1901W        W74227  15.797  13.804   1.280
 1902W        W74228  11.266  19.359   2.792
 1903W        W74229  42.397  31.882   1.821
 1904W        W74230  42.051   5.140  11.381
 1905W        W74231  14.546  39.375   1.657
 1906W        W74232   2.299   4.835  11.914
 1907W        W74233  43.090   0.013   0.850
 1908W        W74234  27.418  26.183  13.334
 1909W        W74235   1.727  21.581  11.960
 1910W        W74236  22.587  24.980   2.373
 1911W        W74237  44.538  28.071  12.993
 1912W        W74238  13.738  40.270  10.566
 1913W        W74239  20.645   6.344  11.141
 1914W        W74240  18.399  34.338   2.356
 1915W        W74241   6.898  15.337   4.774
 1916W        W74242  11.782   1.842   0.457
 1917W        W74243  33.361  14.013   2.792
 1918W        W74244  11.314   1.704  14.307
 1919W        W74245  38.804  23.944   2.803
 1920W        W74246  15.146  16.155  13.746
 1921W        W74247  30.701  36.023   1.257
 1922W        W74248  23.488  24.598  10.445
 1923W        W74249  34.001  21.335   4.090
 1924W        W74250  23.558  18.148   5.112
 1925W        W74251  20.551  30.663  14.962
 1926W        W74252  40.224  16.631  10.783
 1927W        W74253  32.148  40.757   1.627
 1928W        W74254  31.181  30.845  13.883
 1929W        W74255  31.511  29.978  12.163
 1930W        W74256  33.399   7.925   4.705
 1931W        W74257  10.684   8.700   1.356
 1932W        W74258   5.316   9.123   3.128
 1933W        W74259  38.793  10.856  12.531
 1934W        W74260  30.556  15.991   0.808
 1935W        W74261   8.735   4.422   2.812
 1936W        W74262  19.108  15.302  11.483
 1937W        W74263  17.567   6.038   3.151
 1938W        W74264  25.534  26.071  13.092
 1939W        W74265   4.333  16.830  14.760
 1940W        W74266  21.216  32.472  12.086
 1941W        W74267  15.077  20.179   1.651
 1942W        W74268  20.077  32.901   3.728
 1943W        W74269  10.575  40.875  12.654
 1944W        W74270  25.184  38.196  13.426
 1945W        W74271  36.062   7.342   0.883
 1946W        W74272  11.443  44.502   0.351
 1947W        W74273  15.792  19.781  11.219
 1948W        W74274   0.350  34.781  11.144
 1949W        W74275  27.705   7.236  13.539
 1950W        W74276   1.877  34.523   3.610
 1951W        W74277   5.829  21.502  12.899
 1952W        W74278  22.117  20.042  11.703
 1953W        W74279  13.159   5.570  12.151
 1954W        W74280  27.654   2.935  11.630
 1955W        W74281  30.617   3.952  11.171
 1956W        W74282   9.104  18.798   3.840
 1957W        W74283   2.715  38.303   4.353
 1958W        W74284  18.941  43.961  12.643
 1959W        W74285  44.752   9.341  10.432
 1960W        W74286  23.240  35.351  10.615
 1961W        W74287  30.239  40.575   2.320
 1962W        W74288  13.936  15.285  12.350
 1963W        W74289  20.684  33.654   3.704
 1964W        W74290   7.848  14.526   1.835
 1965W        W74291  22.689  29.517   0.414
 1966W        W74292   1.802   1.843  14.860
 1967W        W74293   2.726  18.399  11.624
 1968W        W74294  25.574  37.463   3.270
 1969W        W74295   4.160  10.695  12.207
 1970W        W74296  33.188   9.676   3.404
 1971W        W74297   5.737   6.805  12.484
 1972W        W74298  28.405  15.652   1.420
 1973W        W74299  22.399  37.898  14.123
 1974W        W74300  26.623  44.602   2.630
 1975W        W74301  25.005  11.780   1.384
 1976W        W74302  20.124   1.533   2.167
 1977W        W74303  40.127  21.663  10.846
 1978W        W74304  42.394  12.549   2.811
 1979W        W74305   1.053   7.443  11.662
 1980W        W74306  40.001  18.135   2.130
 1981W        W74307  15.019   4.926  11.309
 1982W        W74308  18.230  15.686   4.833
 1983W        W74309  21.748  38.794   3.658
 1984W        W74310   2.547  36.789  14.282
 1985W        W74311  34.395  12.779   4.722
 1986W        W74312  31.139  30.573   0.641
 1987W        W74313  30.859   1.913   2.766
 1988W        W74314  10.176   5.649  14.722
 1989W        W74315  37.015  13.655   9.665
 1990W        W74316  12.661  34.671  10.464
 1991W        W74317  18.273   0.844  12.513
 1992W        W74318  37.907  42.763   4.171
 1993W        W74319   2.428  14.634  13.890
 1994W        W74320  18.869  28.128   3.299
 1995W        W74321   5.408   7.842   3.719
 1996W        W74322   6.902  43.990   4.910
 1997W        W74323   4.899  18.515  12.881
 1998W        W74324   2.420  29.921  13.892
 1999W        W74325  27.735  35.882   0.956
 2000W        W74326   9.859   4.254   3.321
 2001W        W74327   0.260   8.554   3.334
 2002W        W74328  40.914  33.943   4.107
 2003W        W74329  32.707  33.192   4.252
 2004W        W74330  39.911  15.936   1.574
 2005W        W74331   6.401  34.877  14.373
 2006W        W74332  25.895   5.822  12.025
 2007W        W74333  37.395  43.019  11.008
 2008W        W74334  36.281  36.159  12.642
 2009W        W74335   6.404  19.781  11.532
 2010W        W74336  44.794  31.201   0.262
 2011W        W74337   4.371   4.486   4.599
 2012W        W74338  40.344  38.379  13.454
 2013W        W74339  16.996  22.002  12.457
 2014W        W74340  34.584   7.956   3.947
 2015W        W74341  26.051  17.295  13.082
 2016W        W74342  16.268  25.717   1.809
 2017W        W74343  15.298  10.202   1.719
 2018W        W74344  20.694  24.552  10.756
 2019W        W74345  19.761  12.485  14.394
 2020W        W74346   9.776   7.011   1.953
 2021W        W74347  22.951  37.499  11.485
 2022W        W74348  27.354  36.549  10.707
 2023W        W74349  38.360  23.547  10.957
 2024W        W74350  10.403  21.688  11.101
 2025W        W74351  26.648  44.977  12.574
 2026W        W74352  16.167  30.088   2.217
 2027W        W74353  37.316   8.925   1.775
 2028W        W74354   1.428  16.212   3.611
 2029W        W74355  27.745  38.352  11.593
 2030W        W74356  26.035  30.181  12.986
 2031W        W74357  18.764  11.495  11.403
 2032W        W74358   3.465  42.138   4.950
 2033W        W74359  35.916  40.106   2.367
 2034W        W74360  12.649  10.315   1.675
 2035W        W74361  17.322  23.989   0.198
 2036W        W74362  31.000  31.254  13.079
 2037W        W74363  30.661  29.653  13.901
 2038W        W74364   5.937  22.795   3.711
 2039W        W74365  15.003  20.006  14.975
 2040W        W74366  18.804  18.004  13.107
 2041W        W74367  44.231  40.157   2.401
 2042W        W74368   3.397   0.185   2.191
 2043W        W74369  11.199  16.196   2.389
 2044W        W74370  44.442  17.523  10.181
 2045W        W74371   5.640  11.862   0.746
 2046W        W74372   9.033  16.499  14.509
 2047W        W74373  41.964  24.489  14.467
 2048W        W74374  11.232  26.157   1.534
 2049W        W74375  13.233  38.952   1.488
 2050W        W74376  34.089  27.945   0.786
 2051W        W74377   4.929  12.308  13.005
 2052W        W74378  37.649   4.640   3.151
 2053W        W74379  16.559  42.929  13.312
 2054W        W74380  41.103  34.079   1.285
 2055W        W74381  21.047   1.856   3.188
 2056W        W74382  11.249   8.653   0.399
 2057W        W74383   9.957  11.131   0.808
 2058W        W74384  38.346  36.110  11.613
 2059W        W74385  26.885  34.339   3.248
 2060W        W74386   2.716  25.584  11.149
 2061W        W74387  18.298  22.496   4.537
 2062W        W74388  11.727  37.510   1.829
 2063W        W74389  11.141  31.455   2.976
 2064W        W74390  38.444  14.319   3.014
 2065W        W74391  18.337  26.112   4.479
 2066W        W74392   9.693  19.294  12.571
 2067W        W74393  30.087   0.362  11.971
 2068W        W74394  12.768  44.515   2.814
 2069W        W74395  27.464  10.621  12.147
 2070W        W74396  26.970   7.209   0.279
 2071W        W74397  19.604  31.135   3.712
 2072W        W74398  19.591  15.617   3.690
 2073W        W74399  13.222  28.202  11.537
 2074W        W74400   2.945  24.627   4.142
 2075W        W74401  23.902  11.629   3.577
 2076W        W74402  20.257  20.992   2.749
 2077W        W74403  32.601  42.290   4.610
 2078W        W74404  40.925   8.286   1.793
 2079W        W74405  20.606  42.403   1.297
 2080W        W74406  14.304  41.299  14.400
 2081W        W74407  42.051  16.171  11.251
 2082W        W74408  43.758  10.696   3.711
 2083W        W74409  44.864  42.495  11.475
 2084W        W74410  11.778  33.794   2.202
 2085W        W74411  18.780  13.898   4.483
 2086W        W74412  21.312   5.921   2.287
 2087W        W74413  41.974  33.181  13.861
 2088W        W74414  23.202  12.842   1.905
 2089W        W74415  29.618   2.487  12.458
 2090W        W74416  23.536  24.924   2.729
 2091W        W74417  35.046  22.985  13.110
 2092W        W74418  32.024  40.790  11.338
 2093W        W74419   5.360   4.335   4.664
 2094W        W74420  23.126  31.464   3.780
 2095W        W74421  42.179   8.825   1.639
 2096W        W74422   1.959   8.600   0.974
 2097W        W74423  39.992  24.956   4.651
 2098W        W74424  27.247  31.080  12.578
 2099W        W74425   5.882   5.960   2.270
 2100W        W74426  32.159  27.937  14.217
 2101W        W74427  32.084  12.927   1.913
 2102W        W74428  25.845   3.871  12.675
 2103W        W74429   2.656  38.068  10.628
 2104W        W74430   9.373  29.205   2.747
 2105W        W74431  18.637   3.798  14.267
 2106W        W74432  34.314   6.790  12.460
 2107W        W74433  43.419  21.653   4.889
 2108W        W74434   0.801  34.748   0.817
 2109W        W74435  28.107  13.565  10.650
 2110W        W74436   3.165  43.528   4.905
 2111W        W74437  23.108  40.287   3.238
 2112W        W74438  27.553   5.088   3.123
 2113W        W74439  26.188   9.188  14.255
 2114W        W74440  23.346  17.655   0.411
 2115W        W74441  18.049  18.087  14.241
 2116W        W74442  21.599  39.945  14.404
 2117W        W74443  18.509  15.197   4.186
 2118W        W74444   7.445  23.729  14.569
 2119W        W74445   5.338  18.580  13.551
 2120W        W74446  24.017   2.854  12.047
 2121W        W74447  29.168   0.397   1.857
 2122W        W74448  18.644  30.035   2.990
 2123W        W74449  24.104  36.575  11.177
 2124W        W74450  26.462   5.203  14.971
 2125W        W74451  21.858   7.357   1.208
 2126W        W74452   8.165  37.516   2.858
 2127W        W74453  35.451  23.929  13.913
 2128W        W74454  29.783  18.876   1.457
 2129W        W74455  12.476  40.299  11.916
 2130W        W74456  11.837  25.207   3.099
 2131W        W74457  37.076  10.355   2.644
 2132W        W74458  27.525   7.868   3.838
 2133W        W74459  10.689  36.911   4.293
 2134W        W74460   1.997  39.509  11.618
 2135W        W74461  13.168  15.614  13.961
 2136W        W74462  11.354   1.573   0.672
 2137W        W74463  20.250   4.911  10.670
 2138W        W74464  17.633  17.761  14.565
 2139W        W74465  10.620   9.975   1.806
 2140W        W74466   3.246   0.689  11.972
 2141W        W74467  19.135  21.219   0.752
 2142W        W74468  27.422  18.701   1.913
 2143W        W74469   2.672  31.501  14.952
 2144W        W74470  40.780   8.902   0.928
 2145W        W74471  36.987   1.983   3.844
 2146W        W74472  27.986  41.540  12.386
 2147W        W74473  10.807   9.882  11.622
 2148W        W74474   4.661  35.748  11.916
 2149W        W74475  23.824   5.558  14.334
 2150W        W74476   6.952  18.416  10.992
 2151W        W74477  25.610  17.452   5.031
 2152W        W74478  11.378   7.371  11.900
 2153W        W74479  17.341  39.525  12.430
 2154W        W74480  19.111   2.767  12.011
 2155W        W74481   5.006  22.834   2.740
 2156W        W74482  13.865  21.170  11.595
 2157W        W74483  35.390  14.581   2.802
 2158W        W74484  25.260  12.148   4.232
 2159W        W74485  31.218   7.158  11.549
 2160W        W74486  31.641  17.228  13.748
 2161W        W74487  24.289  11.852   2.691
 2162W        W74488  29.708  26.331   1.740
 2163W        W74489   8.167  42.855   3.857
 2164W        W74490  29.415  11.266   2.367
 2165W        W74491   2.555  29.993  11.198
 2166W        W74492  19.643  34.010  11.247
 2167W        W74493   3.754   2.508   0.341
 2168W        W74494  25.998   2.419   0.401
 2169W        W74495   9.600  40.140   2.672
 2170W        W74496   6.846  42.308  13.946
 2171W        W74497  16.697  24.727   3.773
 2172W        W74498  15.701  32.665   1.279
 2173W        W74499  26.225  29.497  14.173
 2174W        W74500  25.569  28.663  10.690
 2175W        W74501  10.645  22.108  14.946
 2176W        W74502  33.390   9.590  13.231
 2177W        W74503  37.300  32.459   0.344
 2178W        W74504  40.947   8.284  11.886
 2179W        W74505   2.874  34.454   3.699
 2180W        W74506  34.636   9.704  14.275
 2181W        W74507   0.698  22.129  13.473
 2182W        W74508  10.339   6.912   0.245
 2183W        W74509  35.806  29.012   0.256
 2184W        W74510  34.789  40.728  13.852
 2185W        W74511  28.843  30.444   1.100
 2186W        W74512   7.360  14.719  10.931
 2187W        W74513  35.821  10.888  14.852
 2188W        W74514  25.275   0.708   4.568
 2189W        W74515  17.860  27.284   3.819
 2190W        W74516  23.910  16.632   0.821
 2191W        W74517   8.830  24.497  10.831
 2192W        W74518  38.062  23.083  13.296
 2193W        W74519  20.070  19.158   4.744
 2194W        W74520  43.814   9.635  14.061
 2195W        W74521  20.561  42.965   3.644
 2196W        W74522   3.252  25.610   4.936
 2197W        W74523  35.511  30.570   2.276
 2198W        W74524  34.585   0.969  13.105
 2199W        W74525  39.868  15.836   2.116
 2200W        W74526  34.869   1.264  14.358
 2201W        W74527   8.872  28.473   1.154
 2202W        W74528  22.239  22.055  12.856
 2203W        W74529  39.997  11.040  10.671
 2204W        W74530  12.578  30.549  13.544
 2205W        W74531   3.656   4.731   1.925
 2206W        W74532  21.575   3.225  10.643
 2207W        W74533  26.537  24.243  13.343
 2208W        W74534  44.021  12.129  10.302
 2209W        W74535  20.230  22.165   2.791
 2210W        W74536  40.807  10.292  14.502
 2211W        W74537  15.078  18.658   2.735
 2212W        W74538  43.464  12.410   3.301
 2213W        W74539  33.041  26.520  11.956
 2214W        W74540  19.283  32.866  12.125
 2215W        W74541   2.453   4.459  11.063
 2216W        W74542  15.611  37.384   3.769
 2217W        W74543   7.754   8.586   4.131
 2218W        W74544  33.557  33.296  14.756
 2219W        W74545  32.329   3.702   4.212
 2220W        W74546  12.580   1.047   2.857
 2221W        W74547  33.079   5.180   0.408
 2222W        W74548   3.326  23.941   4.281
 2223W        W74549   4.523   4.862  14.948
 2224W        W74550  33.452  44.547  14.037
 2225W        W74551  26.001  15.133   3.351
 2226W        W74552  40.044  44.711   4.827
 2227W        W74553  23.929  26.659   0.559
 2228W        W74554   6.809  23.174  12.939
 2229W        W74555  23.045  20.220  14.250
 2230W        W74556  24.996  10.195  10.986
 2231W        W74557  12.805  33.395  13.073
 2232W        W74558  44.471  10.291  12.715
 2233W        W74559   5.614  13.154   2.840
 2234W        W74560   5.872   6.235  13.089
 2235W        W74561   6.930   8.682  11.947
 2236W        W74562   8.249   7.394  11.326
 2237W        W74563  37.561  20.751  14.808
 2238W        W74564  29.989  42.877  11.567
 2239W        W74565   2.024   6.390   2.211
 2240W        W74566  21.200  10.447  14.509
 2241W        W74567  32.401   1.482   0.524
 2242W        W74568  41.517   5.282   3.145
 2243W        W74569  42.071   3.631   3.796
 2244W        W74570  11.247  37.345   3.619
 2245W        W74571  29.917  23.460   2.305
 2246W        W74572  38.436  29.676  14.809
 2247W        W74573   9.706  26.116  11.081
 2248W        W74574  12.612  15.614  12.638
 2249W        W74575  41.056  22.141  13.299
 2250W        W74576  18.837  37.331   0.582
 2251W        W74577  36.914  21.930  12.105
 2252W        W74578  37.458   1.759   4.084
 2253W        W74579  26.612  30.959   1.047
 2254W        W74580   9.870  34.002   2.295
 2255W        W74581   6.818  33.045  14.388
 2256W        W74582   4.466   9.352  12.351
 2257W        W74583  17.228   1.381  10.897
 2258W        W74584  32.079   1.812   4.059
 2259W        W74585  36.100  19.215   4.628
 2260W        W74586  19.526   4.812  12.202
 2261W        W74587  32.775  29.862   4.117
 2262W        W74588  32.724  40.427  14.898
 2263W        W74589  26.864  27.351   3.618
 2264W        W74590  42.375  30.400   2.758
 2265W        W74591  32.193  14.404   4.141
 2266W        W74592   6.215  21.818   3.825
 2267W        W74593  19.354   1.802  14.043
 2268W        W74594  24.479  34.379   0.415
 2269W        W74595  35.004  11.704   2.697
 2270W        W74596  39.915  11.854  11.977
 2271W        W74597  11.926  36.007   3.097
 2272W        W74598  30.555   8.525   1.906
 2273W        W74599  39.116  36.531   1.763
 2274W        W74600  26.161   2.010   0.807
 2275W        W74601  29.615  32.621  13.446
 2276W        W74602   0.307  31.000   3.832
 2277W        W74603  29.676   9.821  14.982
 2278W        W74604   3.999  32.129   2.760
 2279W        W74605   2.401   4.789   1.380
 2280W        W74606  32.553   7.373   0.235
 2281W        W74607  28.151  13.238   4.105
 2282W        W74608   9.722  21.151  13.497
 2283W        W74609  39.871  21.213  14.361
 2284W        W74610  28.104  27.725   5.043
 2285W        W74611  34.248  18.244   3.692
 2286W        W74612  19.574  37.768   4.198
 2287W        W74613  16.962  43.937   4.038
 2288W        W74614  31.046  42.321  12.185
 2289W        W74615   3.731  35.415  14.423
 2290W        W74616  21.165  18.876   4.562
 2291W        W74617  36.807  43.925  10.386
 2292W        W74618  19.230  22.842   2.244
 2293W        W74619   9.462  16.150   4.215
 2294W        W74620  22.514  37.838  12.109
 2295W        W74621  31.674  27.139   0.406
 2296W        W74622   7.815  11.158  13.775
 2297W        W74623  22.637  29.934   2.290
 2298W        W74624  38.315  36.402  11.169
 2299W        W74625  43.725  19.959   2.783
 2300W        W74626  22.091  37.295  12.420
 2301W        W74627  15.826  23.705   3.139
 2302W        W74628  34.423   0.386  11.517
 2303W        W74629  42.208  22.235   1.429
 2304W        W74630  15.288  43.465  11.879
 2305W        W74631   1.106  38.941   3.797
 2306W        W74632  25.503  31.985   2.876
 2307W        W74633   4.305  11.642   4.215
 2308W        W74634   8.415  31.248  13.583
 2309W        W74635  16.248  44.779  13.620
 2310W        W74636   1.314  29.181  10.208
 2311W        W74637  43.215  43.456   3.335
 2312W        W74638  39.674  25.388  11.101
 2313W        W74639  42.500  20.799   3.367
 2314W        W74640  30.418   5.977  11.932
 2315W        W74641  25.291   1.557  12.061
 2316W        W74642  11.865  21.076   2.483
 2317W        W74643  35.115  21.278  11.436
 2318W        W74644  12.936  26.023   3.688
 2319W        W74645  44.387  33.568  14.502
 2320W        W74646  42.913  40.417   3.367
 2321W        W74647   3.514  37.209   0.844
 2322W        W74648  42.412   4.473   3.746
 2323W        W74649   8.764  19.666  10.338
 2324W        W74650  34.654  25.668  13.092
 2325W        W74651  21.221  14.709  12.459
 2326W        W74652  28.622  41.522   1.593
 2327W        W74653  33.929  43.349  10.790
 2328W        W74654  22.268  27.495   0.214
 2329W        W74655  44.258   0.019   3.356
 2330W        W74656  32.879  24.379   0.443
 2331W        W74657  41.966  24.044  13.339
 2332W        W74658  22.597  11.164   0.655
 2333W        W74659   6.732  23.112  10.507
 2334W        W74660  23.773  37.400  12.407
 2335W        W74661   5.806  41.301   1.157
 2336W        W74662   9.327  17.285  11.157
 2337W        W74663  21.518  33.947   4.864
 2338W        W74664  41.605  20.033   2.683
 2339W        W74665  44.874  28.530   2.641
 2340W        W74666  21.804  26.704  11.297
 2341W        W74667  26.419   1.532  11.499
 2342W        W74668  30.538   0.394   4.681
 2343W        W74669   3.036  35.900   4.490
 2344W        W74670  13.685  39.799   0.435
 2345W        W74671  11.830  38.929  10.195
 2346W        W74672  21.729  17.695  13.127
 2347W        W74673  26.276  30.176  14.351
 2348W        W74674  32.462  20.245  13.129
 2349W        W74675   3.419   2.935  12.788
 2350W        W74676  12.584  21.480   0.820
 2351W        W74677   1.281  33.440   1.306
 2352W        W74678  15.071  23.112   3.327
 2353W        W74679  37.282  35.473  12.059
 2354W        W74680  11.814   4.122   0.907
 2355W        W74681   7.798  23.218   1.797
 2356W        W74682  39.158  13.796  12.083
 2357W        W74683  40.539  26.620  11.964
 2358W        W74684   3.022  24.440   2.190
 2359W        W74685  24.856  17.629   4.616
 2360W        W74686  37.199  31.604   0.333
 2361W        W74687  11.455  32.853  14.365
 2362W        W74688   1.110  15.486   4.607
 2363W        W74689   7.164  37.143   4.577
 2364W        W74690  33.139  17.798  12.573
 2365W        W74691  13.815   2.862  14.097
 2366W        W74692   7.496  13.534  12.417
 2367W        W74693  37.839  21.182   0.508
 2368W        W74694  39.325  19.727  12.436
 2369W        W74695   7.324   3.759  14.080
 2370W        W74696  19.843  25.711  14.048
 2371W        W74697  38.079  38.579  13.395
 2372W        W74698  34.980  42.871   0.447
 2373W        W74699   7.136  33.997  11.903
 2374W        W74700  25.584   6.824  10.760
 2375W        W74701   6.272   5.924  12.332
 2376W        W74702  24.781  23.630  13.807
 2377W        W74703   2.975  14.819   1.243
 2378W        W74704  14.273  43.551   1.674
 2379W        W74705  44.314  42.086  14.684
 2380W        W74706  43.032  22.214   4.701
 2381W        W74707  18.281  39.575   1.924
 2382W        W74708  21.559  19.810  12.487
 2383W        W74709  33.455  39.804   0.887
 2384W        W74710  29.029  23.427  11.140
 2385W        W74711  29.849   9.766  12.927
 2386W        W74712  30.175   9.633  11.996
 2387W        W74713   3.773  31.957  13.352
 2388W        W74714  31.497   3.012   0.920
 2389W        W74715  22.724   4.881  12.884
 2390W        W74716   2.393   8.888   0.993
 2391W        W74717  23.517   6.905   0.907
 2392W        W74718   6.725  43.227   3.247
 2393W        W74719  39.900  34.043  13.116
 2394W        W74720  15.707  19.386  13.473
 2395W        W74721  20.730   9.720   2.925
 2396W        W74722  31.788  32.417   4.544
 2397W        W74723  22.440  33.549  13.290
 2398W        W74724  36.566   8.799  13.360
 2399W        W74725  23.632  18.315   2.578
 2400W        W74726   8.627  19.153  13.460
 2401W        W74727   7.784   5.107  10.993
 2402W        W74728  19.517  19.829   0.058
 2403W        W74729   2.351  20.699   2.640
 2404W        W74730  10.236  17.098   0.378
 2405W        W74731  33.947  18.682   3.558
 2406W        W74732  37.484  44.270   0.620
 2407W        W74733   7.548  26.190  13.500
 2408W        W74734  40.775  40.332  12.497
 2409W        W74735   9.357   3.892  13.093
 2410W        W74736  30.842  26.907   4.898
 2411W        W74737   9.226  35.607   0.973
 2412W        W74738  29.998   9.996   2.813
 2413W        W74739   3.393   4.217   2.651
 2414W        W74740  27.778  32.658  11.016
 2415W        W74741  17.678  21.782  13.598
 2416W        W74742  12.622   2.523  13.619
 2417W        W74743  24.069  25.076   0.785
 2418W        W74744  44.915  19.808   3.252
 2419W        W74745   3.195  28.722   1.470
 2420W        W74746   5.259  25.703   4.535
 2421W        W74747  25.172  10.866   4.774
 2422W        W74748  14.710  18.141  13.599
 2423W        W74749  23.182  42.253  12.594
 2424W        W74750  15.370  28.450  12.059
 2425W        W74751  31.232   2.869   2.862
 2426W        W74752  43.835   4.928  13.047
 2427W        W74753  21.585  28.683   3.615
 2428W        W74754   1.404  12.864  12.501
 2429W        W74755  38.583   5.636  14.273
 2430W        W74756   8.285   8.686  13.833
 2431W        W74757   9.224  24.453  10.460
 2432W        W74758   4.706  18.035  12.829
 2433W        W74759  34.863  16.627   4.655
 2434W        W74760  18.351  44.402   4.084
 2435W        W74761  24.651   4.001   0.483
 2436W        W74762  32.387  41.089   2.187
 2437W        W74763  33.444  22.490   4.471
 2438W        W74764  10.846   3.913   0.433
 2439W        W74765  31.847   2.164   1.475
 2440W        W74766   5.910   6.343  10.990
 2441W        W74767   9.156  42.486  13.880
 2442W        W74768  44.991  10.171   4.856
 2443W        W74769  43.173  21.149   3.310
 2444W        W74770  43.228  39.448   2.816
 2445W        W74771  24.766  11.289   1.362
 2446W        W74772  35.282  34.394  13.994
 2447W        W74773  29.450  41.015   2.837
 2448W        W74774  23.123  14.038  14.491
 2449W        W74775  16.922  26.855   0.535
 2450W        W74776   8.675  15.569  14.361
 2451W        W74777  13.724  14.248   1.315
 2452W        W74778  10.314   6.719  11.291
 2453W        W74779  23.035  15.397   0.258
 2454W        W74780  30.193  35.913   3.587
 2455W        W74781  28.617  42.622  13.485
 2456W        W74782  32.096  41.626   4.319
 2457W        W74783  42.562  27.464   2.772
 2458W        W74784   6.392  27.881   3.206
 2459W        W74785   3.748  25.398  10.645
 2460W        W74786   5.714  39.745   0.461
 2461W        W74787   1.917  43.517   3.647
 2462W        W74788   4.809   6.870   3.224
 2463W        W74789   7.801  41.473  11.477
 2464W        W74790   6.457  23.101   1.757
 2465W        W74791  24.254   7.919  13.396
 2466W        W74792  44.946  26.678  12.985
 2467W        W74793  17.232  30.429   0.977
 2468W        W74794  19.208  38.279  14.862
 2469W        W74795  37.904  42.130   0.835
 2470W        W74796  12.140   5.469   3.298
 2471W        W74797  27.990   4.345   2.752
 2472W        W74798  30.978   4.255   4.125
 2473W        W74799   8.316  35.079  13.279
 2474W        W74800   8.630   5.288   0.120
 2475W        W74801  20.540  37.053   2.716
 2476W        W74802   0.720  26.952  14.569
 2477W        W74803  38.751  13.021   3.908
 2478W        W74804  23.043  16.728   3.778
 2479W        W74805  39.424   6.032  13.497
 2480W        W74806  22.054  11.336  14.808
 2481W        W74807  13.820   0.532   3.382
 2482W        W74808  14.990  20.546   1.271
 2483W        W74809  40.515  43.776  11.241
 2484W        W74810  33.066  17.606  13.053
 2485W        W74811  32.449  33.860  12.236
 2486W        W74812  18.607  10.230   1.260
 2487W        W74813  21.573  18.526  13.019
 2488W        W74814  23.500   4.890  13.752
 2489W        W74815  24.654   5.229   2.273
 2490W        W74816  17.576  32.905   2.382
 2491W        W74817  26.271   9.728  11.501
 2492W        W74818   1.097   1.303  13.480
 2493W        W74819  12.921  25.060  12.172
 2494W        W74820  22.759  33.828  11.033
 2495W        W74821  21.098   3.819   1.348
 2496W        W74822  23.180  35.618   2.360
 2497W        W74823  38.054  44.546  13.737
 2498W        W74824  13.719  12.903   2.780
 2499W        W74825  35.615  43.370   0.038
 2500W        W74826  25.054  12.335   1.847
 2501W        W74827  36.542  32.424  14.483
 2502W        W74828   6.395   9.540  12.937
 2503W        W74829   0.420  31.819  11.184
 2504W        W74830   7.384  13.076  12.856
 2505W        W74831  22.269  34.038  11.029
 2506W        W74832   9.496  34.898  11.541
 2507W        W74833  36.591  39.035   4.874
 2508W        W74834   7.666   5.928  13.465
 2509W        W74835  28.220   5.893  14.374
 2510W        W74836   7.589  37.223  10.257
 2511W        W74837   8.865  37.319  12.389
 2512W        W74838  23.368  22.668   1.865
 2513W        W74839  17.798   8.096   0.114
 2514W        W74840  30.031   8.255   4.223
 2515W        W74841  18.864  32.464   1.372
 2516W        W74842  11.509  25.898   4.182
 2517W        W74843  41.274  33.359  14.896
 2518W        W74844  12.026  33.398   3.626
 2519W        W74845  14.779   4.664  13.561
 2520W        W74846  26.458  39.925   4.866
 2521W        W74847   0.519   6.478   1.245
 2522W        W74848  13.083  39.451   1.569
 2523W        W74849  39.987  44.138   0.375
 2524W        W74850  26.091  17.509  11.148
 2525W        W74851  41.357  21.225  12.145
 2526W        W74852  38.929   2.852   4.213
 2527W        W74853  40.943  36.778  14.246
 2528W        W74854  33.619  19.651   3.747
 2529W        W74855  26.388  20.293  11.304
 2530W        W74856  24.216  40.102   1.777
 2531W        W74857  13.623  27.537  14.569
 2532W        W74858  18.212   3.180  11.155
 2533W        W74859  30.177  40.029  12.379
 2534W        W74860  17.398  32.087   3.264
 2535W        W74861  28.318  43.805   0.814
 2536W        W74862  18.741   0.021   3.544
 2537W        W74863  39.541  27.543   0.047
 2538W        W74864  14.454  30.540  13.695
 2539W        W74865  38.530  16.260  12.128
 2540W        W74866  42.036   2.245  13.852
 2541W        W74867  30.947  42.522  10.698
 2542W        W74868   3.502  28.061  11.118
 2543W        W74869   5.459  44.378  10.585
 2544W        W74870  30.415  26.170   1.256
 2545W        W74871  34.056  29.478  14.739
 2546W        W74872  43.615  41.906   0.419
 2547W        W74873   5.455  24.502  14.771
 2548W        W74874   9.380  35.509   4.670
 2549W        W74875  27.555  10.412  13.726
 2550W        W74876  28.941  29.181   2.962
 2551W        W74877   5.165  43.787   3.933
 2552W        W74878  27.492  12.221   4.993
 2553W        W74879   5.445  20.586  12.981
 2554W        W74880  43.348  35.761  11.486
 2555W        W74881   7.345  36.627   4.575
 2556W        W74882  36.763  33.410  12.504
 2557W        W74883  21.347  18.952   2.709
 2558W        W74884  35.535   1.483   0.470
 2559W        W74885  32.259   7.858   2.357
 2560W        W74886  21.818   0.540   0.105
 2561W        W74887  15.810  26.568  11.925
 2562W        W74888  28.204  26.973  11.294
 2563W        W74889   5.037  36.633  11.182
 2564W        W74890   5.576  36.303   3.450
 2565W        W74891  23.799  23.527  12.578
 2566W        W74892  12.809  11.153   4.366
 2567W        W74893  23.188  16.739   4.263
 2568W        W74894   5.195  13.700  11.154
 2569W        W74895  25.860   5.550  13.978
 2570W        W74896   0.982   0.345   1.782
 2571W        W74897  29.630  30.028   3.278
 2572W        W74898  30.669  17.945   0.489
 2573W        W74899   2.635  36.270  14.251
 2574W        W74900  19.042  38.524  12.362
 2575W        W74901  38.082  41.218   0.971
 2576W        W74902  19.597  10.307   3.806
 2577W        W74903  32.064  19.372  13.325
 2578W        W74904  38.935  19.911  13.810
 2579W        W74905  28.649   0.966  13.498
 2580W        W74906  34.746  15.872   2.880
 2581W        W74907  17.355  17.260  10.734
 2582W        W74908  35.478  27.477   1.257
 2583W        W74909   3.286   7.217   0.651
 2584W        W74910  17.774  43.346  13.497
 2585W        W74911   6.618  20.952   1.401
 2586W        W74912   0.924  10.972   3.462
 2587W        W74913  19.345  26.246  11.617
 2588W        W74914  34.089  13.250  12.423
 2589W        W74915  42.228   5.696   4.320
 2590W        W74916  27.275  40.469   4.170
 2591W        W74917  35.531  16.162   3.251
 2592W        W74918  36.275  39.452   4.895
 2593W        W74919  41.853  15.457  10.016
 2594W        W74920  14.697  16.641  13.999
 2595W        W74921  41.852  17.643  13.794
 2596W        W74922  10.030  19.022  14.437
 2597W        W74923  44.994  44.235  13.950
 2598W        W74924  17.257  18.109  10.682
 2599W        W74925  19.949   0.904  11.567
 2600W        W74926  23.693  10.664  12.177
 2601W        W74927  18.177  27.313  12.435
 2602W        W74928   3.547  34.627   1.624
 2603W        W74929  37.102  17.167   0.331
 2604W        W74930  34.481   6.126   4.320
 2605W        W74931   5.448   9.568  13.027
 2606W        W74932   6.364   7.310   4.761
 2607W        W74933   3.679  40.855   2.717
 2608W        W74934  44.507  18.679  10.261
 2609W        W74935  39.285  13.114   3.305
 2610W        W74936  35.641  37.359  10.657
 2611W        W74937  42.326   4.995  12.545
 2612W        W74938  40.156  43.743   3.614
 2613W        W74939  42.000  32.994  14.484
 2614W        W74940  26.963  18.564   4.191
 2615W        W74941  29.888  36.918  14.066
 2616W        W74942  44.344  21.177   2.269
 2617W        W74943   5.411  26.955  11.027
 2618W        W74944  33.614  26.055   1.684
 2619W        W74945  44.449  36.992   4.809
 2620W        W74946  43.937  43.275   2.736
 2621W        W74947  42.432   2.408   4.859
 2622W        W74948  43.390  13.552   2.421
 2623W        W74949  24.516  17.566  11.953
 2624W        W74950  12.916  23.294   2.187
 2625W        W74951  43.198  12.787  13.940
 2626W        W74952  33.414  31.067  11.726
 2627W        W74953  37.041  14.934  14.783
 2628W        W74954  40.428  22.974  12.525
 2629W        W74955  34.809  25.965   4.076
 2630W        W74956  44.115  14.215  12.439
 2631W        W74957  31.287  31.706  13.028
 2632W        W74958  19.015  38.851  11.076
 2633W        W74959   1.748  39.766  12.509
 2634W        W74960  15.826  36.943   0.488
 2635W        W74961  17.534  30.472  10.737
 2636W        W74962  19.012  36.331   1.404
 2637W        W74963  17.745  40.321  12.072
 2638W        W74964  44.901  21.957  11.952
 2639W        W74965  37.976  23.037   0.998
 2640W        W74966  17.211  35.176  14.092
 2641W        W74967  27.981  38.788   3.686
 2642W        W74968  43.853   6.713   0.304
 2643W        W74969  20.022  37.048   3.782
 2644W        W74970  22.597  22.962   1.395
 2645W        W74971  31.962  16.790   2.152
 2646W        W74972  43.265  11.219  10.772
 2647W        W74973  11.214  38.055   1.390
 2648W        W74974  17.041  16.510  14.496
 2649W        W74975   7.101  43.372  13.035
 2650W        W74976  38.602  21.074  14.849
 2651W        W74977   4.648  12.743   3.372
 2652W        W74978   2.944  41.813  12.042
 2653W        W74979  39.605  12.658  11.058
 2654W        W74980  19.302  12.181   1.754
 2655W        W74981  37.740   1.874  12.935
 2656W        W74982  35.597  22.522   3.382
 2657W        W74983  33.833  35.058   4.467
 2658W        W74984   1.325  39.509  13.810
 2659W        W74985  28.079  42.251  13.300
 2660W        W74986  33.500  15.636  13.546
 2661W        W74987  24.019  10.750  14.421
 2662W        W74988   1.406   8.295  11.705
 2663W        W74989  28.516  24.002  14.731
 2664W        W74990  41.990  26.244  14.927
 2665W        W74991  27.619  42.332   0.436
 2666W        W74992   2.809  22.004   4.113
 2667W        W74993  36.948   5.698  12.166
 2668W        W74994  22.640  35.949  14.939
 2669W        W74995  40.399  17.662   0.552
 2670W        W74996  43.169  10.862  11.902
 2671W        W74997   5.886  14.582  11.511
 2672W        W74998  24.669  29.671  13.457
 2673W        W74999  41.379  13.815  12.595
 2674W        W75000  32.019  37.219   1.784
 2675W        W75001  14.351  33.094  14.474
 2676W        W75002  32.463  14.001  14.407
 2677W        W75003  35.781  42.968  13.574
 2678W        W75004  16.091  24.120  12.452
 2679W        W75005   6.547  10.332   4.125
 2680W        W75006  11.683   7.497  12.428
 2681W        W75007  12.520  26.203   5.025
 2682W        W75008  33.073  19.601  13.378
 2683W        W75009  35.894  10.346  12.053
 2684W        W75010  33.968  23.881   4.241
 2685W        W75011  23.567  29.661   3.085
 2686W        W75012   8.098  42.275  10.925
 2687W        W75013  26.107  28.433   4.123
 2688W        W75014  13.729   1.519  14.358
 2689W        W75015  14.483   7.163   1.016
 2690W        W75016  31.152  21.290   3.849
 2691W        W75017   1.199  40.835  13.996
 2692W        W75018  36.018  19.307   3.770
 2693W        W75019  22.709  10.495  11.050
 2694W        W75020  29.028  15.680  10.731
 2695W        W75021  19.808  10.947  14.983
 2696W        W75022  41.887   3.919   1.650
 2697W        W75023  15.825  22.016  10.606
 2698W        W75024  39.898  43.800  14.993
 2699W        W75025   6.142   7.769   2.598
 2700W        W75026  31.693  29.593  14.999
 2701W        W75027  11.530  30.912  12.847
 2702W        W75028  29.785   1.181  13.093
 2703W        W75029   1.610  27.067  13.396
 2704W        W75030  21.611  12.208   3.153
 2705W        W75031  42.515  22.083   3.724
 2706W        W75032  29.673  42.704   3.194
 2707W        W75033  33.970  25.662   3.812
 2708W        W75034  35.282  11.130   0.704
 2709W        W75035   2.340  26.834  13.587
 2710W        W75036  29.196  26.433  14.550
 2711W        W75037   4.136  43.466   4.653
 2712W        W75038   9.648  35.785   2.169
 2713W        W75039  13.657  10.849   3.677
 2714W        W75040  14.761  36.072  11.972
 2715W        W75041  41.851  28.201  11.228
 2716W        W75042  30.671   2.269  13.989
 2717W        W75043  34.137  20.754  14.392
 2718W        W75044  13.843  42.561  14.887
 2719W        W75045   7.387   9.532  12.308
 2720W        W75046  28.121  27.714  11.593
 2721W        W75047   4.276  43.890   3.218
 2722W        W75048  11.768   6.380   4.162
 2723W        W75049  22.594  12.289  14.862
 2724W        W75050   4.352  29.273  13.511
 2725W        W75051   7.091  14.353   1.294
 2726W        W75052  23.960  34.544   0.470
 2727W        W75053  30.902   7.244   2.250
 2728W        W75054  22.099  13.423   4.253
 2729W        W75055   3.902  44.712  14.809
 2730W        W75056  23.703  42.712  14.833
 2731W        W75057  18.672  31.663   2.889
 2732W        W75058  34.940   7.836   1.855
 2733W        W75059  35.528  44.532   3.845
 2734W        W75060  13.325  10.130  12.379
 2735W        W75061   2.080  27.296   1.320
 2736W        W75062   4.287  15.052   2.286
 2737W        W75063   5.993  22.030   1.674
 2738W        W75064  20.511  34.054   0.044
 2739W        W75065  12.666  30.723  10.676
 2740W        W75066  13.564  11.031  12.898
 2741W        W75067   3.876  29.988   0.897
 2742W        W75068   4.940   0.035   2.782
 2743W        W75069  41.807  30.396   0.306
 2744W        W75070   8.107  10.769  11.532
 2745W        W75071  17.610  12.807  10.607
 2746W        W75072   8.693  20.996   1.805
 2747W        W75073  24.634  17.096  13.982
 2748W        W75074  22.122  44.789  14.079
 2749W        W75075  15.612  20.737   3.678
 2750W        W75076  39.179  32.906  11.606
 2751W        W75077  29.551  43.797   1.281
 2752W        W75078  21.634  29.306  10.715
 2753W        W75079  33.495  31.357   5.045
 2754W        W75080   0.815  11.374   1.669
 2755W        W75081  11.611  40.307  12.970
 2756W        W75082  20.128  33.841   2.273
 2757W        W75083  31.970  18.139  10.631
 2758W        W75084  37.206  24.409  14.409
 2759W        W75085   7.470  42.398  12.063
 2760W        W75086   6.212  15.898  14.653
 2761W        W75087  24.779  41.699   1.175
 2762W        W75088  15.308  33.638  14.098
 2763W        W75089  12.778  36.635   1.836
 2764W        W75090   7.321  19.546   0.585
 2765W        W75091  22.093  11.229   1.877
 2766W        W75092   7.856  20.854  10.505
 2767W        W75093   4.920  31.657   4.180
 2768W        W75094  19.266  23.663   2.870
 2769W        W75095  40.118  15.650   4.796
 2770W        W75096  41.422  27.016   3.170
 2771W        W75097  32.892  31.801  14.512
 2772W        W75098  26.495   8.271  14.424
 2773W        W75099  35.048  19.195  10.715
 2774W        W75100  17.708  44.928  10.781
 2775W        W75101  44.854  38.690  10.364
 2776W        W75102  31.132  34.128  13.039
 2777W        W75103  13.292  36.931  10.988
 2778W        W75104   1.249   4.324   3.728
 2779W        W75105  23.954   5.065  13.995
 2780W        W75106  30.465   3.693  12.520
 2781W        W75107  39.965  33.487   0.900
 2782W        W75108  11.124  19.767   0.486
 2783W        W75109  11.040  27.343  11.145
 2784W        W75110  37.478  29.020  14.972
 2785W        W75111   6.169  32.595   4.983
 2786W        W75112  35.500  42.457  11.057
 2787W        W75113   2.996  28.160  11.179
 2788W        W75114  40.964   8.742   3.683
 2789W        W75115  16.798  35.419   3.728
 2790W        W75116  18.246  33.121  10.573
 2791W        W75117  26.969  42.355  12.663
 2792W        W75118  24.120   7.735   4.527
 2793W        W75119  35.604  26.441  11.229
 2794W        W75120  21.094  44.258  12.682
 2795W        W75121  10.312  36.416  12.540
 2796W        W75122  37.232  29.142  13.564
 2797W        W75123   8.379  35.498  12.978
 2798W        W75124  13.895  35.301  11.459
 2799W        W75125   0.640  36.522   4.006
 2800W        W75126  37.549  11.093  11.049
 2801W        W75127  16.557   7.289  12.515
 2802W        W75128  36.785  10.523  11.556
 2803W        W75129  30.226  41.013  14.451
 2804W        W75130  15.501  27.183  10.428
 2805W        W75131  37.931  21.099  11.048
 2806W        W75132  43.027  25.903  11.346
 2807W        W75133   3.261  44.874  10.666
 2808W        W75134  32.723  37.989  14.311
 2809W        W75135  12.575  12.649   1.959
 2810W        W75136  42.488  19.846  10.491
 2811W        W75137  28.083  28.482  13.576
 2812W        W75138  30.449  16.495   0.717
 2813W        W75139  17.947  34.403   3.194
 2814W        W75140  11.826  42.796  14.431
 2815W        W75141  27.058   1.431  14.075
 2816W        W75142  36.049  43.015   3.218
 2817W        W75143  25.525  35.117  13.926
 2818W        W75144  37.822  19.112  11.433
 2819W        W75145  21.141  28.589   2.349
 2820W        W75146  34.312  36.998  14.551
 2821W        W75147  29.134  26.068  13.012
 2822W        W75148  39.265  20.184   4.903
 2823W        W75149  20.526  35.061  12.923
 2824W        W75150  32.975   7.451   2.405
 2825W        W75151  40.790  36.468  13.314
 2826W        W75152  19.252   5.352  13.362
 2827W        W75153   1.689   2.159  13.692
 2828W        W75154  42.088   0.544  14.817
 2829W        W75155  11.402  26.198  12.195
 2830W        W75156  22.556   2.679   0.328
 2831W        W75157   0.577  21.225   4.235
 2832W        W75158   3.295  23.599   0.424
 2833W        W75159  13.789  15.283  13.753
 2834W        W75160  10.780  32.794  13.748
 2835W        W75161   6.672  10.296   1.274
 2836W        W75162  41.443  26.065   3.083
 2837W        W75163   0.326  24.247   1.706
 2838W        W75164  25.014  24.626  10.754
 2839W        W75165  15.691  40.553   3.092
 2840W        W75166   1.234   4.301  14.179
 2841W        W75167   2.830  23.682  10.231
 2842W        W75168  26.069  21.739   3.744
 2843W        W75169  25.157  38.522   0.794
 2844W        W75170  29.985  19.102  11.137
 2845W        W75171  40.877  28.198  13.851
 2846W        W75172  18.161   4.688  11.563
 2847W        W75173  25.184   0.807  14.645
 2848W        W75174  36.158   6.407   0.855
 2849W        W75175  32.881  17.247   2.279
 2850W        W75176   3.322   2.303   2.354
 2851W        W75177  18.317  24.280  14.384
 2852W        W75178   1.549  42.463  11.983
 2853W        W75179  16.520  28.685   4.024
 2854W        W75180  35.509  42.537   4.813
 2855W        W75181  36.657  16.713  10.179
 2856W        W75182   3.278  10.375   2.671
 2857W        W75183  22.132  10.337   2.403
 2858W        W75184  44.896   7.227   5.099
 2859W        W75185  41.779  42.902  12.707
 2860W        W75186   4.945   9.890  11.900
 2861W        W75187  26.042  18.020  13.885
 2862W        W75188   0.015  17.890  13.744
 2863W        W75189  23.458  16.854   0.995
 2864W        W75190  35.337  32.353  14.901
 2865W        W75191  38.351  12.635  11.458
 2866W        W75192  21.582   1.780  14.790
 2867W        W75193  16.077  37.061  10.914
 2868W        W75194  35.149  33.262   1.814
 2869W        W75195   3.492   6.356  14.311
 2870W        W75196   0.079   8.891  11.099
 2871W        W75197  29.959  18.873   2.800
 2872W        W75198  15.864  14.077   4.523
 2873W        W75199   3.494   0.967   0.371
 2874W        W75200  14.474  22.189  11.076
 2875W        W75201  23.425  15.706   4.968
 2876W        W75202  27.134   6.815  12.353
 2877W        W75203  29.623  43.227   4.721
 2878W        W75204  23.042  31.510  14.245
 2879W        W75205  11.678  42.382   1.202
 2880W        W75206  33.461  20.220  14.419
 2881W        W75207  26.489  33.469  10.259
 2882W        W75208  23.850  18.501  13.971
 2883W        W75209   5.360   4.382  11.914
 2884W        W75210   6.825  17.353   1.839
 2885W        W75211   5.718  18.074  12.995
 2886W        W75212   7.118  15.670   2.961
 2887W        W75213  44.344  30.046   2.593
 2888W        W75214  30.500  37.873  14.912
 2889W        W75215  35.366  34.576   3.297
 2890W        W75216   5.398  17.326   4.107
 2891W        W75217   3.940  40.186   4.255
 2892W        W75218  43.964  15.155  11.841
 2893W        W75219  29.488  29.683  13.419
 2894W        W75220  41.081  10.741   1.841
 2895W        W75221  41.887  39.183   4.546
 2896W        W75222  12.877  39.956  11.055
 2897W        W75223  37.819  20.365  10.575
 2898W        W75224  40.018  21.003   4.530
 2899W        W75225  22.975  32.425   4.231
 2900W        W75226  25.587  22.671  10.678
 2901W        W75227  19.133  25.713  12.975
 2902W        W75228  19.132  16.051   2.791
 2903W        W75229  32.887   3.409   2.398
 2904W        W75230  34.322   3.722  13.477
 2905W        W75231  20.155  40.018   2.741
 2906W        W75232  23.433   9.880  11.507
 2907W        W75233  26.407  14.715   0.326
 2908W        W75234  15.418  38.926  13.858
 2909W        W75235  20.282   5.811  14.757
 2910W        W75236  30.994  36.112   0.854
 2911W        W75237  42.888   9.352  14.324
 2912W        W75238  29.462  42.419  13.821
 2913W        W75239  20.135  40.732   2.280
 2914W        W75240  26.626  32.955   3.723
 2915W        W75241  33.284  11.350   1.849
 2916W        W75242  37.886   2.735   4.406
 2917W        W75243  35.915   7.783  12.078
 2918W        W75244   2.549  24.677   2.777
 2919W        W75245   7.208  28.967  11.862
 2920W        W75246  11.911   3.765  14.076
 2921W        W75247  18.080   4.628  12.906
 2922W        W75248   8.235   7.186   4.926
 2923W        W75249   9.234  42.351  10.359
 2924W        W75250  15.488  15.208   1.992
 2925W        W75251   0.987  13.298   4.585
 2926W        W75252  28.700   0.131  13.900
 2927W        W75253   0.421  12.119  11.580
 2928W        W75254   8.553  17.657  13.395
 2929W        W75255  44.871  24.708  13.864
 2930W        W75256   3.997   3.718  14.498
 2931W        W75257   3.997  11.303   1.264
 2932W        W75258  20.269  44.545   4.152
 2933W        W75259  42.497  26.039   0.007
 2934W        W75260  13.750   6.127   4.551
 2935W        W75261  40.976  24.016   2.164
 2936W        W75262  29.386  27.731  13.534
 2937W        W75263   5.959  11.706   1.256
 2938W        W75264   3.715  22.815   4.572
 2939W        W75265  25.716  24.453  11.109
 2940W        W75266   3.122  17.265   0.240
 2941W        W75267   5.859  24.510   1.926
 2942W        W75268  17.092  37.942  14.335
 2943W        W75269  32.812  26.022  11.881
 2944W        W75270  44.805  20.659  14.895
 2945W        W75271  26.646  31.097  11.394
 2946W        W75272  36.129   3.375  11.582
 2947W        W75273  27.119  12.250   4.635
 2948W        W75274   0.361   2.631   2.302
 2949W        W75275  33.507  34.871  12.407
 2950W        W75276  30.032   2.306  14.620
 2951W        W75277   9.633  16.390   2.233
 2952W        W75278  21.937  36.811  12.542
 2953W        W75279  11.907  28.981  14.929
 2954W        W75280  26.537   9.586   1.303
 2955W        W75281  40.842  39.717  11.438
 2956W        W75282  28.994  33.435  13.422
 2957W        W75283  24.132  43.355   3.833
 2958W        W75284   1.970  43.164   1.648
 2959W        W75285   9.905  33.495   0.999
 2960W        W75286  29.535  19.163  11.419
 2961W        W75287   5.232  19.358   0.691
 2962W        W75288  16.380  37.762   0.652
 2963W        W75289   2.727   8.954   2.251
 2964W        W75290  33.876   1.185   2.724
 2965W        W75291  35.380   5.304   2.377
 2966W        W75292  31.915   2.347  14.589
 2967W        W75293   4.498  32.007  14.445
 2968W        W75294   6.094  35.569  12.630
 2969W        W75295   2.888  16.810  13.464
 2970W        W75296  25.821  40.262   1.114
 2971W        W75297  17.816  11.702  14.927
 2972W        W75298  24.692  24.765  13.553
 2973W        W75299  11.593  42.975  14.958
 2974W        W75300   4.825  35.140   0.290
 2975W        W75301  18.274  33.116   1.772
 2976W        W75302  31.449  35.309  10.986
 2977W        W75303  40.408  44.113  12.063
 2978W        W75304  40.980   8.848  12.545
 2979W        W75305  38.694  33.093  11.724
 2980W        W75306  11.335  24.940  10.006
 2981W        W75307  41.075  15.846   4.559
 2982W        W75308   2.481  35.387   0.423
 2983W        W75309  40.801  43.092  13.521
 2984W        W75310   4.423   0.378   3.692
 2985W        W75311  12.116   7.728  14.098
 2986W        W75312  37.006  15.041   3.212
 2987W        W75313   2.201  15.150   2.265
 2988W        W75314   9.599   6.232   1.260
 2989W        W75315  32.469  28.558   2.172
 2990W        W75316  27.078  12.777   4.637
 2991W        W75317  39.622  34.082  14.437
 2992W        W75318  14.078   8.669  14.895
 2993W        W75319   3.923   5.887  10.973
 2994W        W75320   4.927  19.358  12.317
 2995W        W75321  42.336   7.972  11.070
 2996W        W75322  21.779  36.297   4.285
 2997W        W75323  32.040  27.383   1.957
 2998W        W75324  30.364  16.198  11.998
 2999W        W75325  36.876   0.314   0.437
 3000W        W75326  29.913  23.670   4.040
 3001W        W75327  42.081   2.270  11.986
 3002W        W75328  29.634  22.530  14.007
 3003W        W75329  44.423   6.101   3.529
 3004W        W75330  12.412   9.115  12.623
 3005W        W75331  37.610   5.025   1.840
 3006W        W75332   7.149  21.091   3.003
 3007W        W75333  16.474   9.277   4.882
 3008W        W75334  24.002  10.209  10.246
 3009W        W75335  10.698  19.074   3.084
 3010W        W75336  15.888  35.818   3.755
 3011W        W75337  44.087   6.908  14.834
 3012W        W75338  40.032  17.905   0.797
 3013W        W75339  17.819  44.233  13.169
 3014W        W75340   8.693   6.894  11.050
 3015W        W75341  12.810  32.185  12.125
 3016W        W75342  19.823  18.221   1.020
 3017W        W75343  16.702  18.681   4.141
 3018W        W75344  20.029  14.054   3.316
 3019W        W75345  32.315  44.999  14.981
 3020W        W75346   3.991  34.438  12.995
 3021W        W75347  39.156  32.059  13.593
 3022W        W75348  11.165   6.784  12.450
 3023W        W75349  30.445  38.102  11.897
 3024W        W75350  15.735  16.901   2.857
 3025W        W75351  36.358   6.800   2.584
 3026W        W75352  32.618   3.409   1.952
 3027W        W75353  21.474  29.847   1.020
 3028W        W75354  21.705  18.970  14.681
 3029W        W75355  26.080   5.862  10.736
 3030W        W75356  38.678  18.813   1.071
 3031W        W75357  10.251  32.742  14.885
 3032W        W75358  43.046  32.195   3.552
 3033W        W75359   2.441   2.895  12.775
 3034W        W75360  19.527  36.095  12.818
 3035W        W75361  23.502  25.467  13.046
 3036W        W75362  36.366  32.976  11.845
 3037W        W75363   1.214  37.876   4.760
 3038W        W75364  32.082  39.558   4.586
 3039W        W75365  27.007   0.199  14.432
 3040W        W75366  41.030  20.360  12.801
 3041W        W75367  40.334  17.928  10.624
 3042W        W75368  14.552  27.174   0.945
 3043W        W75369  29.220  26.466   1.756
 3044W        W75370   8.392  37.153   2.580
 3045W        W75371  11.663  33.622   0.335
 3046W        W75372  24.117  15.074   1.009
 3047W        W75373  26.107  14.299   1.818
 3048W        W75374   5.166  37.647  12.057
 3049W        W75375  21.257   2.120   0.011
 3050W        W75376  40.330   4.114   4.524
 3051W        W75377  30.918  12.877   1.360
 3052W        W75378  44.940  23.337   0.648
 3053W        W75379  14.151  37.334  10.773
 3054W        W75380   6.676  26.998   0.742
 3055W        W75381  15.365  33.528   3.606
 3056W        W75382  33.363  12.978   0.830
 3057W        W75383  27.243   8.848  14.392
 3058W        W75384   1.339  25.210   1.354
 3059W        W75385   1.575  23.405   3.955
 3060W        W75386   2.735  20.187   3.689
 3061W        W75387   4.443   6.111  11.897
 3062W        W75388  10.230  23.782  11.913
 3063W        W75389   5.183  29.196  10.544
 3064W        W75390  42.374  19.681   2.634
 3065W        W75391   4.592  31.039   4.169
 3066W        W75392  28.026   4.458   4.600
 3067W        W75393  24.680  21.246   2.304
 3068W        W75394  22.547  44.825   1.270
 3069W        W75395  20.960  39.539  11.041
 3070W        W75396   5.653  13.366  14.136
 3071W        W75397  12.674  32.324  13.787
 3072W        W75398   3.185  33.987  12.133
 3073W        W75399  16.087  32.471   4.677
 3074W        W75400  14.108  33.580   2.432
 3075W        W75401  23.222  33.693   4.056
 3076W        W75402   1.896  38.327   3.867
 3077W        W75403  15.596   2.478  11.333
 3078W        W75404  41.768  31.102  14.949
 3079W        W75405   8.609  14.080   1.381
 3080W        W75406  27.378   7.351   3.879
 3081W        W75407  18.043   8.962   2.355
 3082W        W75408   2.507  25.919  11.472
 3083W        W75409   6.376  22.212   2.360
 3084W        W75410  14.200  14.683  14.948
 3085W        W75411   9.887  29.664  12.571
 3086W        W75412  43.842   4.692   0.486
 3087W        W75413  34.211   0.206  12.917
 3088W        W75414  10.857   4.882   1.413
 3089W        W75415  11.321  33.702  11.545
 3090W        W75416   3.401  34.317   1.218
 3091W        W75417   9.164  22.214   4.767
 3092W        W75418  14.694  42.472  11.599
 3093W        W75419  26.494  36.468   2.632
 3094W        W75420  11.192  11.034  11.468
 3095W        W75421  18.615  28.354  12.022
 3096W        W75422  42.595  12.269   3.858
 3097W        W75423   4.376  35.981  11.522
 3098W        W75424  17.742  34.320  13.416
 3099W        W75425  30.083  29.468  12.837
 3100W        W75426   2.920  14.131  14.466
 3101W        W75427  26.587  43.542   2.759
 3102W        W75428  42.305  29.529   4.641
 3103W        W75429  10.368  24.070   0.409
 3104W        W75430  29.069  41.855   4.575
 3105W        W75431  39.995  13.121  14.094
 3106W        W75432  22.819  11.813  12.414
 3107W        W75433  21.203  34.362  13.278
 3108W        W75434  11.800  27.164   5.083
 3109W        W75435  43.169  13.081   2.391
 3110W        W75436  29.120  31.619   4.115
 3111W        W75437  23.222  15.793  13.836
 3112W        W75438  28.194   0.936  14.558
 3113W        W75439  11.149  34.374  12.622
 3114W        W75440  36.886  27.260   4.289
 3115W        W75441   8.769  21.673  10.760
 3116W        W75442   9.721  38.070  11.234
 3117W        W75443   3.175  32.164  11.496
 3118W        W75444  27.303  20.192   3.155
 3119W        W75445  14.085   3.186  12.881
 3120W        W75446  12.654  29.593  14.542
 3121W        W75447  35.301  37.529  12.204
 3122W        W75448  33.272  17.968   2.737
 3123W        W75449  11.584  23.752   3.249
 3124W        W75450  10.876  22.154   0.881
 3125W        W75451  12.091   1.335  12.880
 3126W        W75452  31.861  28.605   3.319
 3127W        W75453  36.834   2.653  14.567
 3128W        W75454  15.106  34.463   2.177
 3129W        W75455  16.059  22.213  11.054
 3130W        W75456  14.766   3.347  12.138
 3131W        W75457   4.231   9.409  11.418
 3132W        W75458  15.736  36.408  12.391
 3133W        W75459  42.408  24.678  11.875
 3134W        W75460  18.366  34.531   1.323
 3135W        W75461  16.703  35.808  14.369
 3136W        W75462  35.439  35.932   1.381
 3137W        W75463  38.806  12.673   2.933
 3138W        W75464  30.759  38.551   4.123
 3139W        W75465  11.765  41.830   2.859
 3140W        W75466  16.159  15.866  12.513
 3141W        W75467  29.544  12.487   2.586
 3142W        W75468  11.932  25.204  11.136
 3143W        W75469  10.657  42.574  10.768
 3144W        W75470  28.367  15.686   4.604
 3145W        W75471  36.332  26.282   3.516
 3146W        W75472  27.336  32.361   0.292
 3147W        W75473  28.632  43.859   3.248
 3148W        W75474   8.728  26.624   0.306
 3149W        W75475   3.884  21.741   4.817
 3150W        W75476   4.902  11.783  11.618
 3151W        W75477  17.100  24.256  11.720
 3152W        W75478  33.583   8.219   3.148
 3153W        W75479  35.422  36.830  12.982
 3154W        W75480  28.614  22.326   1.654
 3155W        W75481  33.198  22.481   3.203
 3156W        W75482  16.484  38.453  12.020
 3157W        W75483  38.568  13.771  11.339
 3158W        W75484  15.679  16.350   0.829
 3159W        W75485   0.619  28.578  13.596
 3160W        W75486  34.008   0.794   4.736
 3161W        W75487  38.546  44.485  13.953
 3162W        W75488  32.597  21.668   1.907
 3163W        W75489  37.329  19.622  13.338
 3164W        W75490   2.400  44.857   4.673
 3165W        W75491  40.272  32.035   3.373
 3166W        W75492  15.526  20.602  12.404
 3167W        W75493  22.718   4.880  11.848
 3168W        W75494  41.332   0.285  14.802
 3169W        W75495  11.724  38.870  14.826
 3170W        W75496   2.934   4.825   1.245
 3171W        W75497   7.755  15.583  12.259
 3172W        W75498   9.915   1.347  13.377
 3173W        W75499  18.381  24.739  13.729
 3174W        W75500  42.262  10.563   0.429
 3175W        W75501  42.981  11.968  11.092
 3176W        W75502  43.265  20.662   1.251
 3177W        W75503   6.053  19.102   2.219
 3178W        W75504  34.894  32.133   3.272
 3179W        W75505  41.092  26.448   3.494
 3180W        W75506   5.393  13.607   2.643
 3181W        W75507   2.391   0.831  10.740
 3182W        W75508  21.453  17.618   2.844
 3183W        W75509  20.564   5.121  13.428
 3184W        W75510  43.859  34.034  12.623
 3185W        W75511  31.603  37.515   1.761
 3186W        W75512  24.055  40.960  11.194
 3187W        W75513  18.370  12.755  12.686
 3188W        W75514   5.780  28.103  14.060
 3189W        W75515  21.318   6.419   2.221
 3190W        W75516  12.572  35.713  12.575
 3191W        W75517   7.407  20.773   3.334
 3192W        W75518  15.330  21.043  10.983
 3193W        W75519  20.592  23.057   1.904
 3194W        W75520  41.920  16.503  13.743
 3195W        W75521  37.912  37.187  10.970
 3196W        W75522  20.832  38.052   2.672
 3197W        W75523  37.876  14.801   2.715
 3198W        W75524   0.984  15.187   0.304
 3199W        W75525  22.766  40.483   4.798
 3200W        W75526  15.022  33.984   2.838
 3201W        W75527  41.457  14.518   5.019
 3202W        W75528   0.087  16.106  11.085
 3203W        W75529  25.252  39.187  10.031
 3204W        W75530  21.125  14.051   2.195
 3205W        W75531  28.899  26.629  11.383
 3206W        W75532   4.066   3.257   5.291
 3207W        W75533  23.217  33.048   1.766
 3208W        W75534  39.319  12.185   5.412
 3209W        W75535   8.887  33.120  11.328
 3210W        W75536  15.072  12.147  14.742
 3211W        W75537  15.603  43.800   1.568
 3212W        W75538   6.731  19.288   3.138
 3213W        W75539  40.848   1.372  10.604
 3214W        W75540  39.201  31.500  10.617
 3215W        W75541  34.410  10.850  10.727
 3216W        W75542  28.022   0.759  12.466
 3217W        W75543  10.263  23.079   2.828
 3218W        W75544   5.440  24.166   2.704
 3219W        W75545  35.213  22.694  12.036
 3220W        W75546  15.838  10.071  11.817
 3221W        W75547  13.660  13.133  14.301
 3222W        W75548  41.364  42.341   4.137
 3223W        W75549  29.318  27.351  10.256
 3224W        W75550  39.312  41.774  11.009
 3225W        W75551  44.688   6.867   1.265
 3226W        W75552  20.243  36.047   0.262
 3227W        W75553  34.815  31.533  13.358
 3228W        W75554  15.405  41.388  14.338
 3229W        W75555  17.991  27.585   0.017
 3230W        W75556  27.705  25.761  10.064
 3231W        W75557   9.832  29.503  13.946
 3232W        W75558  17.576  29.917  11.981
 3233W        W75559  35.745  42.501  13.846
 3234W        W75560  30.674   6.332  12.961
 3235W        W75561  17.260  20.289  11.208
 3236W        W75562  41.736  34.096  14.395
 3237W        W75563  19.965  24.093  14.858
 3238W        W75564  15.534  35.919  13.494
 3239W        W75565  31.531  12.299   2.471
 3240W        W75566  24.168   2.717   3.326
 3241W        W75567   2.880  10.347   2.327
 3242W        W75568  42.350  15.503  10.182
 3243W        W75569  42.814  44.029  11.064
 3244W        W75570  19.039  13.544  14.695
 3245W        W75571  10.613   4.125   0.852
 3246W        W75572   9.551  37.238  11.179
 3247W        W75573   3.132  19.682   3.816
 3248W        W75574   8.245  42.928  14.899
 3249W        W75575  14.021  27.947   1.895
 3250W        W75576  44.078  19.367   1.779
 3251W        W75577   0.941  42.432  12.966
 3252W        W75578  42.473  20.396   4.912
 3253W        W75579  30.138  39.605  14.070
 3254W        W75580  20.835  44.730  13.924
 3255W        W75581  39.176  10.796   5.655
 3256W        W75582  40.349  31.569  11.086
 3257W        W75583   5.174  40.968   3.651
 3258W        W75584  34.909  26.589  10.761
 3259W        W75585   0.836   7.193   3.283
 3260W        W75586  30.351  42.511   4.180
 3261W        W75587  13.693   4.186  14.794
 3262W        W75588   7.579  33.149   4.615
 3263W        W75589   0.605  40.068   4.678
 3264W        W75590   3.875  37.341  12.604
 3265W        W75591  26.612  35.037  13.524
 3266W        W75592  32.632  20.515   3.119
 3267W        W75593  25.543  28.005  14.542
 3268W        W75594   1.551  33.710  13.449
 3269W        W75595  22.786   8.769   1.658
 3270W        W75596  16.634   9.737   4.629
 3271W        W75597  16.486  33.994  11.613
 3272W        W75598  28.525  17.311  13.395
 3273W        W75599  34.487  32.652   1.422
 3274W        W75600  13.731  19.172   0.412
 3275W        W75601  40.731   3.878  12.920
 3276W        W75602   1.490   6.666   2.717
 3277W        W75603  44.493   8.734   2.116
 3278W        W75604  31.012   0.501  10.481
 3279W        W75605   0.688  24.670  11.131
 3280W        W75606  20.511  24.480  12.874
 3281W        W75607  30.475   5.853  13.220
 3282W        W75608  30.039  41.562  11.187
 3283W        W75609  30.362   3.013   4.134
 3284W        W75610  30.740  28.129  14.389
 3285W        W75611  18.537  13.162  13.612
 3286W        W75612  36.911   8.897  14.335
 3287W        W75613   9.367  41.054  13.808
 3288W        W75614  40.879  26.520  14.966
 3289W        W75615  31.453  27.743   4.115
 3290W        W75616   8.450  43.855   3.729
 3291W        W75617   2.180  24.640   4.533
 3292W        W75618  35.295   3.787   1.615
 3293W        W75619  17.050  35.545   0.333
 3294W        W75620  11.531  31.515   1.767
 3295W        W75621  10.385  13.682   1.304
 3296W        W75622  35.424  14.314  10.677
 3297W        W75623  26.081  36.516   2.323
 3298W        W75624  44.888  35.373   3.834
 3299W        W75625  13.421  42.881   3.763
 3300W        W75626  27.895  22.590   0.535
 3301W        W75627  10.661  27.506   1.911
 3302W        W75628  10.421  21.520   1.328
 3303W        W75629  37.936  37.332   5.426
 3304W        W75630  36.509   8.671  10.009
 3305W        W75631   5.882  39.791   2.222
 3306W        W75632  34.680  16.560   3.318
 3307W        W75633   2.775  44.613  14.257
 3308W        W75634  26.599  44.277  11.987
 3309W        W75635  42.224  26.680   0.281
 3310W        W75636  21.796  18.123  14.804
 3311W        W75637   8.266  31.147  11.676
 3312W        W75638  44.987  32.852   3.147
 3313W        W75639  23.496  39.969  13.577
 3314W        W75640  28.115  30.477  13.980
 3315W        W75641  42.230  18.954  10.774
 3316W        W75642   0.355  12.025  12.091
 3317W        W75643   7.475  14.400  12.129
 3318W        W75644  20.788  35.462   2.228
 3319W        W75645   7.303  20.479  11.568
 3320W        W75646  11.589  21.566  12.509
 3321W        W75647  22.175  10.171  12.311
 3322W        W75648  31.206   3.379  14.711
 3323W        W75649   2.414   9.687   1.262
 3324W        W75650  42.337  24.135   0.320
 3325W        W75651  38.409  17.255   2.202
 3326W        W75652   7.691  27.387   4.164
 3327W        W75653  30.018  16.700   2.892
 3328W        W75654  11.073  22.886  12.392
 3329W        W75655  42.857  17.291  10.936
 3330W        W75656  26.374   2.698  13.856
 3331W        W75657  41.709  34.184  13.006
 3332W        W75658  24.701  28.971   2.125
 3333W        W75659  12.216  35.405  14.485
 3334W        W75660  44.035  41.118  12.399
 3335W        W75661  20.951  12.408   3.719
 3336W        W75662  22.324  30.557  11.934
 3337W        W75663   0.351  15.126  11.581
 3338W        W75664  38.412  18.659   2.392
 3339W        W75665  35.413   7.098  12.116
 3340W        W75666  41.256   7.452   4.715
 3341W        W75667  21.470  18.077   2.637
 3342W        W75668   3.847  41.858   2.739
 3343W        W75669  28.502   7.395  13.788
 3344W        W75670  27.474   8.695   1.848
 3345W        W75671   0.641  32.572  12.818
 3346W        W75672  15.865   2.290   2.773
 3347W        W75673  17.066  43.783  11.967
 3348W        W75674  16.903  40.992  10.820
 3349W        W75675  18.336  22.596   1.667
 3350W        W75676  11.794  37.630  12.438
 3351W        W75677  38.829  14.059   1.245
 3352W        W75678  34.584  36.804   0.409
 3353W        W75679  30.468   2.411  13.311
 3354W        W75680   1.484  36.914   3.517
 3355W        W75681  11.707   5.929   3.913
 3356W        W75682  22.889  35.326   0.022
 3357W        W75683  17.655  16.451  11.130
 3358W        W75684  43.041  20.928  12.379
 3359W        W75685  37.544  30.055   4.177
 3360W        W75686  39.080  26.222   0.673
 3361W        W75687  35.882  35.746  13.536
 3362W        W75688   2.358  29.951  14.808
 3363W        W75689  11.388  26.011   2.465
 3364W        W75690  37.433  36.885  12.990
 3365W        W75691   5.306  21.440   3.088
 3366W        W75692  27.470   6.378  13.596
 3367W        W75693   4.452   1.849   5.059
 3368W        W75694  17.209  29.467   0.781
 3369W        W75695  21.780   8.790   2.712
 3370W        W75696   1.393  27.828   0.938
 3371W        W75697  11.216  21.725  10.728
 3372W        W75698   1.988  16.040   4.206
 3373W        W75699  38.314  16.597   2.871
 3374W        W75700  20.674   9.867  11.154
 3375W        W75701  44.543   9.421  12.526
 3376W        W75702  43.536   4.921  14.446
 3377W        W75703  33.495  21.751   1.485
 3378W        W75704  10.895  29.531   3.224
 3379W        W75705  11.835  20.258  11.455
 3380W        W75706  31.387  29.156  12.920
 3381W        W75707   8.630  20.954   4.430
 3382W        W75708  31.974   7.846   0.929
 3383W        W75709  44.499  29.145  14.933
 3384W        W75710  10.117  15.133   1.197
 3385W        W75711  12.861   4.334   2.904
 3386W        W75712  22.241  31.130   0.893
 3387W        W75713  42.157  24.122   4.002
 3388W        W75714  30.845  20.232   4.532
 3389W        W75715  27.162   5.752  14.294
 3390W        W75716  28.822  11.379   0.549
 3391W        W75717   6.491  44.329   3.884
 3392W        W75718   8.934  15.639   4.019
 3393W        W75719   8.340   5.192   3.779
 3394W        W75720   7.551  42.231   3.807
 3395W        W75721  40.372   3.389  14.362
 3396W        W75722  35.528  22.482   1.915
 3397W        W75723  34.036  16.094  11.255
 3398W        W75724  10.739   3.922   3.788
 3399W        W75725  35.119   5.064   0.573
 3400W        W75726  19.227  15.114   2.869
 3401W        W75727  17.561  43.403  13.974
 3402W        W75728  32.137  11.044  10.661
 3403W        W75729  19.703  10.729   2.600
 3404W        W75730  44.922   1.337  12.700
 3405W        W75731  18.039   5.145  12.886
 3406W        W75732   7.609  11.743   3.010
 3407W        W75733  15.072  43.038   1.374
 3408W        W75734  35.296   9.415  13.703
 3409W        W75735  38.549   8.703   3.656
 3410W        W75736   3.046  32.864  14.818
 3411W        W75737  31.841  20.002  12.575
 3412W        W75738  29.761  36.589   2.279
 3413W        W75739   6.806  32.398  13.750
 3414W        W75740   7.701   0.727   4.204
 3415W        W75741  43.509  26.963  14.782
 3416W        W75742  15.295  23.167   3.787
 3417W        W75743   6.373  41.853  13.409
 3418W        W75744   1.219  34.912  14.871
 3419W        W75745  13.167  32.422  14.579
 3420W        W75746  38.993  11.164   2.377
 3421W        W75747  15.210  18.106  10.584
 3422W        W75748  34.805   0.443   0.760
 3423W        W75749  37.005  42.067   0.786
 3424W        W75750  34.911  39.526   3.882
 3425W        W75751  16.119   2.645  11.295
 3426W        W75752  39.354   6.868   0.786
 3427W        W75753  21.741  15.858  12.065
 3428W        W75754  38.846  30.238  12.513
 3429W        W75755  11.564  43.011   1.965
 3430W        W75756  18.587  33.035  10.936
 3431W        W75757  12.699  15.505   1.370
 3432W        W75758  34.117  31.659  10.433
 3433W        W75759   7.681  18.811   0.213
 3434W        W75760  22.425  16.591   3.200
 3435W        W75761  43.459  12.314  14.736
 3436W        W75762  37.040  13.217   1.872
 3437W        W75763   1.047  24.993   0.753
 3438W        W75764   1.865  44.449  14.568
 3439W        W75765  12.166  13.581   4.082
 3440W        W75766   0.840  13.965  11.529
 3441W        W75767  44.056   8.357  14.559
 3442W        W75768   3.181  13.096  13.461
 3443W        W75769  40.462  25.155   4.606
 3444W        W75770  40.266   3.978   0.288
 3445W        W75771  15.746   9.131   4.279
 3446W        W75772   3.365  23.528  12.801
 3447W        W75773  19.801  23.164  11.123
 3448W        W75774  29.691  13.685  12.929
 3449W        W75775  25.125  18.228   3.372
 3450W        W75776  20.569  16.833  11.069
 3451W        W75777  31.610  31.481   0.887
 3452W        W75778  37.607  36.726   5.080
 3453W        W75779  16.427  44.059   0.477
 3454W        W75780  34.059  26.960   4.576
 3455W        W75781   3.410   4.968   0.391
 3456W        W75782  39.016  12.769   4.275
 3457W        W75783  12.516   1.473   0.536
 3458W        W75784  37.270   4.413   2.827
 3459W        W75785  21.716  23.135   3.308
 3460W        W75786  43.606  10.922  10.489
 3461W        W75787  29.532  12.774   1.725
 3462W        W75788   2.320  20.266  14.067
 3463W        W75789   3.758  22.203   2.445
 3464W        W75790   6.876   0.472   0.470
 3465W        W75791  44.351  20.654  10.967
 3466W        W75792   3.721   8.222  12.147
 3467W        W75793   0.880  27.385  14.858
 3468W        W75794  36.494  19.428  13.911
 3469W        W75795  30.824  15.292   1.278
 3470W        W75796  44.473  19.139  11.545
 3471W        W75797  42.904  25.592   5.116
 3472W        W75798  36.013  41.040   3.458
 3473W        W75799  44.769  31.400   4.924
 3474W        W75800  42.002   7.003  13.008
 3475W        W75801  22.953  38.360   3.275
 3476W        W75802   9.420  32.468  14.926
 3477W        W75803   4.412  13.575  13.332
 3478W        W75804  35.406  15.194  14.499
 3479W        W75805  21.309   8.209   1.130
 3480W        W75806  39.915  14.830  11.858
 3481W        W75807  30.107  30.494  10.783
 3482W        W75808   3.240  18.983   0.771
 3483W        W75809  27.154   4.367  14.597
 3484W        W75810  17.626  31.572   0.005
 3485W        W75811  25.108  30.606   2.388
 3486W        W75812  18.848  41.532  10.699
 3487W        W75813  43.084  25.734   2.274
 3488W        W75814  15.730  44.656  11.565
 3489W        W75815  40.549  40.988   0.729
 3490W        W75816  37.912  18.621   2.300
 3491W        W75817  32.164  42.508   4.821
 3492W        W75818  10.791  41.924   0.336
 3493W        W75819   9.884  11.086   4.221
 3494W        W75820  12.479  20.748  13.323
 3495W        W75821  33.471  16.063  13.869
 3496W        W75822  38.452  15.099   2.382
 3497W        W75823  18.558  39.257   0.363
 3498W        W75824  36.038   1.685  11.242
 3499W        W75825  20.397  21.685  13.725
 3500W        W75826  18.757  41.965   2.654
 3501W        W75827  18.290   7.923  12.498
 3502W        W75828  25.257  43.550  13.953
 3503W        W75829  42.349  44.384   0.908
 3504W        W75830   5.808   1.952  13.760
 3505W        W75831  11.548  31.028  11.484
 3506W        W75832  37.459  39.722   9.868
 3507W        W75833  18.797   4.298   2.887
 3508W        W75834   6.481  11.707   1.331
 3509W        W75835  31.660  14.083   4.737
 3510W        W75836  34.863  19.610   0.344
 3511W        W75837   2.033   3.387   0.775
 3512W        W75838  40.179   9.247   3.280
 3513W        W75839  29.969   2.266   0.999
 3514W        W75840  15.340  34.979  14.835
 3515W        W75841  26.595  36.418  13.619
 3516W        W75842  11.294  35.108  14.023
 3517W        W75843  36.058  11.804   4.328
 3518W        W75844  29.066   9.135  11.486
 3519W        W75845  31.534   3.038   0.075
 3520W        W75846  22.722  39.327  10.131
 3521W        W75847  29.224  20.780  12.439
 3522W        W75848  10.686  40.043  12.370
 3523W        W75849  34.443  20.053   0.978
 3524W        W75850  23.072  28.232   4.239
 3525W        W75851  16.045  35.214   1.853
 3526W        W75852  39.878  32.085  11.384
 3527W        W75853  42.662  19.502   3.876
 3528W        W75854  23.920  30.442   4.734
 3529W        W75855  21.050   5.417   2.774
 3530W        W75856  41.706  35.562  10.343
 3531W        W75857  16.532  34.803  14.405
 3532W        W75858  26.715  32.962   1.768
 3533W        W75859   6.640   1.744  11.029
 3534W        W75860  24.881  19.588  14.899
 3535W        W75861  17.224  22.058  13.581
 3536W        W75862  29.477   7.277   3.711
 3537W        W75863   4.020   4.213  14.369
 3538W        W75864  43.316  38.783   4.431
 3539W        W75865  21.053  11.981  12.097
 3540W        W75866  33.530  20.209   4.628
 3541W        W75867  39.559  30.003  11.216
 3542W        W75868   9.511  12.326  13.037
 3543W        W75869  36.637  43.553   4.589
 3544W        W75870  28.565   2.575   2.195
 3545W        W75871  11.670  19.542  14.277
 3546W        W75872  19.115  42.597  13.729
 3547W        W75873  15.767  11.604   2.324
 3548W        W75874  14.563  37.864   1.335
 3549W        W75875  41.017  26.541  14.445
 3550W        W75876  42.552   2.876  14.410
 3551W        W75877  36.866  42.086  13.585
 3552W        W75878  19.672   7.860   4.725
 3553W        W75879  37.887  23.041   3.433
 3554W        W75880  24.221  14.683   9.854
 3555W        W75881  27.146  13.529   1.256
 3556W        W75882   2.246  42.339  11.572
 3557W        W75883  22.010  42.144   3.072
 3558W        W75884  38.416  35.450  14.107
 3559W        W75885   0.683  31.065  12.065
 3560W        W75886  39.185  27.126   2.710
 3561W        W75887  37.889  14.422   5.052
 3562W        W75888  33.977  41.699   1.882
 3563W        W75889   8.705   7.414   3.231
 3564W        W75890  41.352   5.201  14.767
 3565W        W75891  11.644   2.680   5.338
 3566W        W75892  29.523  32.603  11.506
 3567W        W75893   8.211  39.287  10.618
 3568W        W75894  14.905   6.665  12.013
 3569W        W75895  44.171  42.880   4.062
 3570W        W75896   8.695   6.671   0.321
 3571W        W75897  11.842  43.356   1.720
 3572W        W75898  37.665  31.271   2.609
 3573W        W75899   2.027  42.462   2.889
 3574W        W75900  23.151  18.166   0.313
 3575W        W75901  18.719  29.464   1.755
 3576W        W75902  35.520  14.647   1.310
 3577W        W75903  11.300  17.323   0.869
 3578W        W75904  17.317   6.205  14.785
 3579W        W75905  39.794  32.263   2.506
 3580W        W75906  43.534  17.621   0.863
 3581W        W75907   2.737  10.770   4.091
 3582W        W75908  21.506  29.680  13.972
 3583W        W75909  21.774   7.041  14.927
 3584W        W75910  35.196  14.069   2.004
 3585W        W75911  28.868  19.533  14.730
 3586W        W75912  28.585  38.150   3.708
 3587W        W75913  41.382  18.006   2.685
 3588W        W75914  36.144  44.933  13.864
 3589W        W75915  39.281   5.778  11.612
 3590W        W75916   3.836  12.202   4.325
 3591W        W75917  37.254  23.593   0.428
 3592W        W75918  35.496  29.633  13.051
 3593W        W75919  16.037  34.068   2.739
 3594W        W75920  20.172  25.832   4.988
 3595W        W75921  19.073  28.098   1.867
 3596W        W75922  24.404   1.447   4.596
 3597W        W75923  14.008  27.838   2.419
 3598W        W75924  25.825  38.243  14.942
 3599W        W75925   8.798  25.189  11.547
 3600W        W75926  24.569  33.107   3.701
 3601W        W75927  23.107  42.954  12.014
 3602W        W75928  35.027  32.642  11.066
 3603W        W75929  44.296  39.571   2.362
 3604W        W75930   4.461  14.824  12.448
 3605W        W75931  34.112  19.334   2.899
 3606W        W75932  11.512   8.958   0.780
 3607W        W75933  17.270  19.336  11.150
 3608W        W75934  38.977  16.174  14.418
 3609W        W75935  24.105   3.555   1.676
 3610W        W75936   1.881   6.766  12.219
 3611W        W75937  32.730   2.242   4.269
 3612W        W75938  15.853  42.274  13.023
 3613W        W75939  17.069   2.350   1.741
 3614W        W75940   5.370   1.963  14.988
 3615W        W75941  39.723  40.427  12.723
 3616W        W75942  14.326  18.941  13.284
 3617W        W75943  39.875  35.036  13.009
 3618W        W75944  21.690  13.058   4.124
 3619W        W75945   1.776  27.688   3.207
 3620W        W75946   1.980  16.435  10.933
 3621W        W75947  32.620  18.663  12.328
 3622W        W75948  44.833  22.231   1.491
 3623W        W75949  41.691   1.300  11.106
 3624W        W75950  34.956  17.343   3.754
 3625W        W75951  36.273  27.286  12.394
 3626W        W75952  44.809  15.287   0.741
 3627W        W75953  35.915  11.116  11.549
 3628W        W75954  37.748  27.971  11.161
 3629W        W75955  26.212  39.092   2.019
 3630W        W75956  43.017  32.082   2.553
 3631W        W75957  37.871  40.506  11.433
 3632W        W75958  22.034  13.788  13.844
 3633W        W75959  38.270  35.971  14.019
 3634W        W75960  26.992  18.321   0.897
 3635W        W75961  44.135   9.544   3.395
 3636W        W75962  13.088  34.697  11.621
 3637W        W75963  15.508  31.593   1.302
 3638W        W75964  14.769  34.145   0.045
 3639W        W75965  12.137  39.404  13.043
 3640W        W75966  43.285  25.270  13.575
 3641W        W75967  43.867   5.909  10.634
 3642W        W75968  29.841  39.045  11.497
 3643W        W75969   3.111   7.221  12.037
 3644W        W75970  30.481  27.694   4.503
 3645W        W75971  38.853   7.132   3.090
 3646W        W75972  11.544  27.339  12.872
 3647W        W75973  25.469  15.137  12.433
 3648W        W75974  40.493  13.889   1.028
 3649W        W75975  42.277   3.995   4.172
 3650W        W75976  21.048   9.463  14.500
 3651W        W75977   8.655  38.127  14.311
 3652W        W75978   8.412  44.314   2.281
 3653W        W75979  10.166  43.031   3.260
 3654W        W75980  18.541   7.136   3.403
 3655W        W75981  40.066  42.964   1.707
 3656W        W75982  33.969  15.250  14.804
 3657W        W75983  14.177  24.968  14.062
 3658W        W75984  37.912  38.905  11.439
 3659W        W75985  43.422  19.227   2.280
 3660W        W75986  32.095  17.513   4.531
 3661W        W75987  10.205  34.124   3.782
 3662W        W75988  14.293  22.659   3.419
 3663W        W75989  11.690  42.859   4.171
 3664W        W75990  13.731   9.103   2.390
 3665W        W75991  30.897  13.477   2.669
 3666W        W75992  25.100  12.906   0.525
 3667W        W75993  30.162  42.734  12.514
 3668W        W75994  31.390   9.265  12.472
 3669W        W75995   6.192   0.478  13.434
 3670W        W75996  26.147  38.567  10.685
 3671W        W75997  19.569  28.044  13.100
 3672W        W75998   5.014  11.066   2.350
 3673W        W75999  42.788  12.769   3.771
 3674W        W76000  30.695  20.158   0.816
 3675W        W76001  21.411  35.587  13.217
 3676W        W76002   2.045   7.860   1.459
 3677W        W76003   4.893  40.629  12.960
 3678W        W76004  11.597   2.474   2.913
 3679W        W76005  13.931  22.699  11.297
 3680W        W76006  27.510  38.075   0.913
 3681W        W76007  16.316  15.189   2.721
 3682W        W76008   6.135  37.538   3.561
 3683W        W76009  36.334  44.878   4.330
 3684W        W76010   7.584  14.606   0.018
 3685W        W76011  41.408  14.124   2.220
 3686W        W76012  11.553  43.354   4.159
 3687W        W76013  35.316   3.753  14.240
 3688W        W76014  16.705   6.523  12.139
 3689W        W76015   7.227   0.897  11.058
 3690W        W76016   5.247  17.152  10.605
 3691W        W76017  37.558  37.736   4.938
 3692W        W76018  42.844  25.700   1.804
 3693W        W76019   8.403  33.209   1.927
 3694W        W76020   4.807  18.814   5.070
 3695W        W76021   5.237  22.967   4.818
 3696W        W76022  35.887  37.963   4.151
 3697W        W76023  32.371  23.367   2.323
 3698W        W76024  34.658  22.179   0.411
 3699W        W76025   6.779   8.393  11.566
 3700W        W76026  23.629  14.090   0.328
 3701W        W76027  30.074  22.651   1.183
 3702W        W76028  13.972  39.357   0.383
 3703W        W76029  43.533  41.219  10.481
 3704W        W76030   0.728   5.183  14.272
 3705W        W76031  13.836  37.483  12.368
 3706W        W76032  12.249   3.820   2.343
 3707W        W76033   7.351  10.654   4.688
 3708W        W76034  14.658  11.729  11.498
 3709W        W76035  32.948   9.829  14.963
 3710W        W76036  34.627  21.629  12.404
 3711W        W76037  26.691   3.087  12.533
 3712W        W76038  23.735  17.299   1.065
 3713W        W76039  15.706  18.569  14.326
 3714W        W76040  28.640   5.350   2.150
 3715W        W76041  32.515  44.540   1.411
 3716W        W76042  44.336  35.093  10.450
 3717W        W76043   5.873  18.553   4.502
 3718W        W76044  22.275  29.214  12.563
 3719W        W76045  17.697   1.517  11.598
 3720W        W76046  43.905   0.509  14.462
 3721W        W76047  10.485  29.486   3.668
 3722W        W76048  19.167  42.285  10.489
 3723W        W76049  28.935  14.630  11.612
 3724W        W76050  31.643  44.793   3.900
 3725W        W76051  43.250  23.475  13.943
 3726W        W76052  31.465  38.342   3.348
 3727W        W76053  19.261  41.967   4.683
 3728W        W76054   1.202  32.649   2.485
 3729W        W76055  20.510  22.997  10.622
 3730W        W76056  22.538  41.956   3.852
 3731W        W76057  12.208  39.153  14.870
 3732W        W76058  19.350   5.129  12.914
 3733W        W76059  19.081  27.281   0.431
 3734W        W76060  14.809   7.823   3.573
 3735W        W76061  34.471  38.038  11.183
 3736W        W76062  40.532  13.421   3.554
 3737W        W76063  12.925  17.524   1.353
 3738W        W76064  11.821  10.728   1.261
 3739W        W76065  26.054  29.258  11.717
 3740W        W76066   5.836  20.281  14.923
 3741W        W76067  38.049  38.101   1.805
 3742W        W76068   5.314  31.186   2.330
 3743W        W76069  15.771  37.906   0.921
 3744W        W76070  42.696   7.166  11.138
 3745W        W76071  38.102  14.249   0.010
 3746W        W76072  20.005   5.732  12.954
 3747W        W76073  17.292  10.725   4.161
 3748W        W76074  15.178  25.484   4.232
 3749W        W76075   4.973  41.302   4.586
 3750W        W76076  43.460  17.748  12.818
 3751W        W76077   9.056   9.762   4.279
 3752W        W76078  23.026   7.903   4.859
 3753W        W76079  15.334  10.140   5.006
 3754W        W76080   8.193  43.921   1.514
 3755W        W76081   2.856   5.437   2.782
 3756W        W76082  43.488  36.018   4.381
 3757W        W76083  27.164  23.735  14.356
 3758W        W76084  41.884  38.289  11.552
 3759W        W76085  14.948  26.600   5.121
 3760W        W76086  31.055  27.024   1.942
 3761W        W76087   1.504  29.304   0.970
 3762W        W76088  22.341  14.533  14.386
 3763W        W76089  27.667  29.610   3.130
 3764W        W76090  15.370   5.175   1.331
 3765W        W76091   4.791  29.035  13.566
 3766W        W76092   6.385   3.427   5.010
 3767W        W76093  39.866   9.425  13.382
 3768W        W76094  30.853  40.077  13.499
 3769W        W76095   0.942  22.617   1.165
 3770W        W76096   5.663  19.859  13.437
 3771W        W76097  34.433  42.795   2.568
 3772W        W76098  21.328  39.938  10.111
 3773W        W76099  31.450  39.401   1.417
 3774W        W76100  42.674  39.547  12.899
 3775W        W76101  17.013  16.581   0.875
 3776W        W76102  36.594   0.983   5.039
 3777W        W76103  27.955  43.394   1.765
 3778W        W76104  13.636  11.610  10.757
 3779W        W76105  41.568   4.301  11.697
 3780W        W76106  25.379  13.811   4.672
 3781W        W76107  10.627  29.810   1.813
 3782W        W76108  12.252  26.024   1.964
 3783W        W76109  16.335  29.083   0.354
 3784W        W76110  40.486  20.774   2.564
 3785W        W76111   2.891  25.232   2.645
 3786W        W76112  23.490  19.957   0.316
 3787W        W76113  34.192  27.433   4.783
 3788W        W76114  27.105  20.206  10.686
 3789W        W76115  39.853  22.182  13.470
 3790W        W76116  33.659   4.382  12.551
 3791W        W76117  36.017  39.446   2.825
 3792W        W76118   5.906  24.899  13.024
 3793W        W76119  12.864  28.421  10.462
 3794W        W76120  12.937  11.653  14.433
 3795W        W76121  44.976  21.178  10.927
 3796W        W76122  24.998  20.202  10.904
 3797W        W76123  23.323  40.241  12.542
 3798W        W76124  28.651  35.397   1.717
 3799W        W76125  37.491   8.319  13.861
 3800W        W76126  33.326   3.516   2.176
 3801W        W76127  34.420   4.424   1.403
 3802W        W76128   0.889  32.807   2.878
 3803W        W76129  19.094  34.903   4.001
 3804W        W76130  44.376  17.064  14.106
 3805W        W76131  38.265  23.622   4.136
 3806W        W76132  27.932  17.896  10.646
 3807W        W76133  24.748  17.553   2.802
 3808W        W76134  11.226   9.321   4.108
 3809W        W76135  13.559   4.254   2.335
 3810W        W76136  28.741  33.086  10.460
 3811W        W76137  14.708  26.168   0.736
 3812W        W76138   2.986  16.265   0.308
 3813W        W76139  18.945   6.266  12.404
 3814W        W76140  36.510  28.024  13.918
 3815W        W76141  40.392  32.768  13.457
 3816W        W76142   6.879  20.555   2.392
 3817W        W76143  30.908   6.112   1.673
 3818W        W76144  31.470  34.289  10.703
 3819W        W76145  36.591  40.359  11.957
 3820W        W76146  12.843  20.639  10.708
 3821W        W76147   4.226  14.494   1.321
 3822W        W76148  17.604  33.163   3.362
 3823W        W76149   5.490  11.869  13.828
 3824W        W76150  36.984  22.297   2.830
 3825W        W76151  23.116  33.420  13.846
 3826W        W76152  39.294   0.790   2.420
 3827W        W76153  40.472  15.601   2.781
 3828W        W76154  33.383  36.529  10.921
 3829W        W76155  16.425   6.246   0.416
 3830W        W76156   0.737  39.757   0.774
 3831W        W76157  11.876  11.026  10.676
 3832W        W76158  33.174   5.466   0.845
 3833W        W76159  14.076  32.386  14.844
 3834W        W76160  17.855  36.936   2.249
 3835W        W76161  24.421   6.927   2.790
 3836W        W76162  28.654  16.162   4.537
 3837W        W76163  20.227  41.937   0.941
 3838W        W76164  26.170  23.704  13.787
 3839W        W76165  19.365  35.430   1.255
 3840W        W76166   8.987   4.581   3.668
 3841W        W76167   7.287  28.114   2.326
 3842W        W76168  39.123  29.878  11.464
 3843W        W76169  38.365  37.108   1.495
 3844W        W76170  13.805  43.651   1.898
 3845W        W76171  34.993  22.479  12.973
 3846W        W76172  36.443  16.638  13.785
 3847W        W76173  25.200  11.693  13.392
 3848W        W76174  11.836  23.920  11.282
 3849W        W76175  16.051  10.186   2.267
 3850W        W76176   3.893   6.430  13.461
 3851W        W76177   7.436  37.644   0.280
 3852W        W76178  38.342  24.516   3.385
 3853W        W76179  23.176   9.495   3.731
 3854W        W76180  29.470   4.387   1.796
 3855W        W76181  11.243  33.930   3.376
 3856W        W76182   2.011  21.544  13.895
 3857W        W76183  12.286   6.890   3.726
 3858W        W76184   0.145  31.532  13.749
 3859W        W76185  21.724   9.050   2.237
 3860W        W76186  40.464  43.819  12.511
 3861W        W76187  11.094  32.526   4.647
 3862W        W76188   0.916  18.986   4.074
 3863W        W76189  27.939   1.763   1.758
 3864W        W76190  22.464  28.640  13.937
 3865W        W76191  15.657   5.260  13.489
 3866W        W76192  27.203  33.339   2.641
 3867W        W76193  24.903  11.572   0.165
 3868W        W76194  44.314  16.721  14.757
 3869W        W76195  38.419  17.070   4.708
 3870W        W76196  24.461  42.422   2.924
 3871W        W76197  18.009  16.742  13.750
 3872W        W76198  34.412  10.423  14.086
 3873W        W76199  38.857   0.344  14.995
 3874W        W76200  10.320  31.925  10.718
 3875W        W76201  30.929  21.489   0.964
 3876W        W76202   2.792  14.846  11.428
 3877W        W76203  28.380   7.276  11.550
 3878W        W76204  43.840  42.552  13.843
 3879W        W76205  16.184   6.457  12.243
 3880W        W76206  27.976  11.792  10.587
 3881W        W76207  41.280  40.847   4.618
 3882W        W76208  23.479  39.283  12.043
 3883W        W76209  41.446  30.121   1.205
 3884W        W76210  35.914  22.722   2.155
 3885W        W76211  42.860  42.978   4.204
 3886W        W76212  20.987  16.606  13.110
 3887W        W76213  31.062  15.188   4.709
 3888W        W76214  39.538  13.279   3.738
 3889W        W76215  25.148  11.668  11.159
 3890W        W76216   8.627  18.225   3.214
 3891W        W76217  42.829  15.384  13.764
 3892W        W76218  23.051  29.221  11.933
 3893W        W76219   4.352  20.644  12.689
 3894W        W76220  25.141  20.318  13.087
 3895W        W76221  32.026  37.084   0.907
 3896W        W76222  37.353  33.707  10.895
 3897W        W76223  38.452  11.776  11.036
 3898W        W76224  38.482  42.923  10.935
 3899W        W76225  40.058  40.788  11.569
 3900W        W76226  27.739  12.661  12.072
 3901W        W76227   7.326  21.486  14.875
 3902W        W76228   4.192  30.444   3.053
 3903W        W76229  11.787  31.893   0.871
 3904W        W76230  22.134   6.281  14.735
 3905W        W76231  43.449   4.092   3.993
 3906W        W76232  37.372   4.037   1.946
 3907W        W76233  23.610  31.865  10.773
 3908W        W76234  16.313   3.507  14.835
 3909W        W76235  44.912   1.660  13.785
 3910W        W76236   8.436  19.852   3.296
 3911W        W76237   0.184   9.825  12.944
 3912W        W76238  39.218  40.380  10.162
 3913W        W76239  34.006  26.689   2.268
 3914W        W76240  17.299  27.709   4.792
 3915W        W76241   2.715  31.097  13.269
 3916W        W76242  13.205  29.393  14.997
 3917W        W76243  28.298  23.213  12.179
 3918W        W76244  22.993  11.119  11.945
 3919W        W76245  18.983  13.062   2.767
 3920W        W76246   8.756   1.810  13.125
 3921W        W76247  42.021  17.168  11.593
 3922W        W76248  15.756  36.023  10.192
 3923W        W76249  31.413   1.950  12.848
 3924W        W76250   5.388  15.489   3.609
 3925W        W76251  28.496  20.575   1.113
 3926W        W76252   5.117  24.122   5.069
 3927W        W76253  42.499  29.475   2.725
 3928W        W76254   2.201  30.905   4.331
 3929W        W76255  19.867  43.316   1.726
 3930W        W76256  29.874  33.566   4.187
 3931W        W76257  12.585  29.510  14.030
 3932W        W76258   6.257  40.328   0.916
 3933W        W76259   1.227   7.691  13.968
 3934W        W76260   2.303   5.248  10.613
 3935W        W76261   6.509  13.590   0.685
 3936W        W76262  35.379  26.709   1.845
 3937W        W76263   3.377  33.756   3.298
 3938W        W76264  26.419  11.742  10.653
 3939W        W76265  43.750  43.082  11.563
 3940W        W76266  26.234   9.884  10.633
 3941W        W76267  15.637  29.374   0.749
 3942W        W76268  43.455   4.410  14.495
 3943W        W76269  10.850  17.033   0.064
 3944W        W76270  37.047  27.581   3.121
 3945W        W76271   5.637  18.260   3.805
 3946W        W76272  43.409  20.007  12.577
 3947W        W76273  38.861  10.885   3.750
 3948W        W76274  29.421  27.597   0.379
 3949W        W76275  26.554  17.774  14.852
 3950W        W76276  24.046  19.796   1.246
 3951W        W76277  28.085  36.164  11.886
 3952W        W76278  13.316   9.091  14.087
 3953W        W76279  20.239  38.110  13.739
 3954W        W76280   9.809  39.097   4.204
 3955W        W76281   0.378  10.594  12.600
 3956W        W76282  39.921  32.114  13.009
 3957W        W76283  10.300  12.086   0.732
 3958W        W76284  22.657   0.127   4.005
 3959W        W76285   8.203  20.029  14.990
 3960W        W76286  35.681  31.985  12.403
 3961W        W76287  36.576  19.999   0.310
 3962W        W76288   1.042  14.799  13.559
 3963W        W76289  31.094  11.884  11.259
 3964W        W76290   9.567  41.455  13.052
 3965W        W76291   3.911  19.629  10.769
 3966W        W76292   6.790   3.276   2.695
 3967W        W76293  16.334   8.388   3.131
 3968W        W76294  10.937  26.593   1.048
 3969W        W76295  16.689  21.536   0.207
 3970W        W76296  17.033  15.133   1.775
 3971W        W76297  30.859  12.236  14.408
 3972W        W76298  26.999  44.866   2.881
 3973W        W76299  42.761  31.800  14.773
 3974W        W76300  23.101  23.460   0.773
 3975W        W76301  18.677  25.649  11.412
 3976W        W76302  29.185  15.713  13.883
 3977W        W76303   1.834  28.863   2.348
 3978W        W76304  11.974  16.970   2.117
 3979W        W76305   1.697  24.282   1.348
 3980W        W76306  42.835  43.822  12.900
 3981W        W76307  24.157  36.869   3.727
 3982W        W76308   3.499  38.911   3.715
 3983W        W76309  26.550  25.934   3.059
 3984W        W76310   0.745  17.556  13.688
 3985W        W76311  38.961  28.600  13.325
 3986W        W76312  33.878  30.118  13.131
 3987W        W76313  13.635  41.770   0.420
 3988W        W76314  35.523  27.125   4.812
 3989W        W76315  11.623  23.258   0.023
 3990W        W76316  24.747   1.474   4.192
 3991W        W76317  40.865  30.960   1.469
 3992W        W76318  21.207   6.017  10.699
 3993W        W76319  23.249  22.150   4.192
 3994W        W76320  25.923  10.837  13.411
 3995W        W76321   0.026   6.703   0.841
 3996W        W76322  23.888   7.684  14.900
 3997W        W76323  23.038  32.927   0.723
 3998W        W76324  34.627  16.302   0.377
 3999W        W76325   4.986   3.344   1.199
 4000W        W76326  24.642  20.293  14.067
 4001W        W76327  40.826   2.500  11.647
 4002W        W76328   7.143   4.804  10.998
 4003W        W76329  22.647  33.447  10.642
 4004W        W76330  32.835   4.716  14.029
 4005W        W76331  32.179  14.838  10.463
 4006W        W76332  31.446  11.333   3.028
 4007W        W76333   6.695  33.560  14.421
 4008W        W76334  44.662  25.612   0.259
 4009W        W76335  27.660   0.466  11.525
 4010W        W76336  42.497  14.363  12.995
 4011W        W76337  28.602  25.007   1.625
 4012W        W76338  23.521  17.207  12.685
 4013W        W76339  36.798  37.572  12.517
 4014W        W76340  43.746  23.983   0.434
 4015W        W76341  41.344  27.558  11.943
 4016W        W76342  10.588   7.226   2.241
 4017W        W76343  14.618  37.962  14.478
 4018W        W76344  24.213   0.991   1.687
 4019W        W76345  25.014  40.794   2.578
 4020W        W76346  13.677  27.141  12.288
 4021W        W76347  17.323  23.440   3.788
 4022W        W76348  18.717  27.508  11.604
 4023W        W76349  41.234   7.619  12.837
 4024W        W76350  35.644  19.776   1.446
 4025W        W76351   5.330  34.471  12.857
 4026W        W76352  31.994  38.311   0.003
 4027W        W76353  20.964   2.911  11.983
 4028W        W76354  37.759  35.491   4.744
 4029W        W76355  31.955  34.605   3.751
 4030W        W76356  15.819   2.430  12.785
 4031W        W76357  39.035  40.252  10.680
 4032W        W76358  22.074  29.410  13.004
 4033W        W76359   6.854  23.683  12.932
 4034W        W76360  11.397  39.869   2.317
 4035W        W76361  28.571  23.277  11.483
 4036W        W76362   5.929   8.997  14.341
 4037W        W76363   7.361   0.341   0.715
 4038W        W76364   8.161   5.936   2.208
 4039W        W76365   4.755  10.391   2.867
 4040W        W76366  29.482  11.146  14.253
 4041W        W76367  11.892  33.488  10.525
 4042W        W76368  18.028  20.138  12.472
 4043W        W76369   3.292  11.519   4.128
 4044W        W76370   5.005  22.610  14.040
 4045W        W76371   0.072  28.897   1.786
 4046W        W76372  19.592  16.107  11.649
 4047W        W76373   1.989  39.068   4.732
 4048W        W76374  36.957  12.668  11.041
 4049W        W76375  19.025   0.553   0.437
 4050W        W76376   2.428   5.900  12.748
 4051W        W76377  22.645  34.473  11.937
 4052W        W76378  36.655  19.643  10.484
 4053W        W76379  43.063  38.805  13.852
 4054W        W76380  40.768  17.556   4.196
 4055W        W76381  30.880  25.105  11.959
 4056W        W76382  43.350  30.662   0.284
 4057W        W76383  31.371  40.028  10.762
 4058W        W76384   3.894  20.961  14.809
 4059W        W76385  24.343  16.386   0.473
 4060W        W76386  15.809  21.061   2.711
 4061W        W76387  13.252   8.663   4.266
 4062W        W76388  20.658  22.105  10.572
 4063W        W76389  18.439  30.163  13.536
 4064W        W76390   4.921  25.806   2.328
 4065W        W76391  38.516  29.481   0.300
 4066W        W76392   3.998  41.011  14.394
 4067W        W76393  42.971  16.850  14.814
 4068W        W76394   5.477  14.930  13.911
 4069W        W76395  13.779  35.007  14.896
 4070W        W76396  16.398  22.717   3.249
 4071W        W76397  22.307   0.397   1.205
 4072W        W76398  24.590  13.359  13.662
 4073W        W76399  41.512  43.977  12.483
 4074W        W76400  18.483   1.020  10.057
 4075W        W76401  17.631  32.362   0.386
 4076W        W76402  33.056   8.260  12.705
 4077W        W76403  21.165  16.347  13.581
 4078W        W76404   2.811   4.711  11.938
 4079W        W76405  21.974  39.499  11.923
 4080W        W76406   6.898  14.271   2.835
 4081W        W76407   2.817  24.180  11.971
 4082W        W76408  34.136   6.289   1.846
 4083W        W76409  19.193  12.717   4.078
 4084W        W76410  28.266  25.291   0.285
 4085W        W76411  10.706  35.993  14.703
 4086W        W76412   4.771   0.971   1.750
 4087W        W76413  26.637  27.380   4.733
 4088W        W76414  17.234  40.097  14.428
 4089W        W76415   4.856  14.250   4.072
 4090W        W76416   0.313  25.521   0.462
 4091W        W76417  20.661  33.977  12.238
 4092W        W76418   2.811  30.108   4.673
 4093W        W76419  43.359  11.750  10.816
 4094W        W76420  31.619   1.432  13.596
 4095W        W76421  43.816  25.700  10.718
 4096W        W76422  39.578  28.539  13.804
 4097W        W76423  32.003   3.463   3.253
 4098W        W76424  37.651  38.519  11.210
 4099W        W76425  24.511  30.892   3.189
 4100W        W76426   7.650  19.199  13.410
 4101W        W76427  18.439  36.553   4.353
 4102W        W76428  14.625   9.798   1.840
 4103W        W76429  30.421  11.613  14.759
 4104W        W76430  31.458  26.035  12.193
 4105W        W76431  35.143   3.456   1.247
 4106W        W76432   6.772  44.531   2.711
 4107W        W76433  39.663  41.804  14.060
 4108W        W76434  14.924  39.115  11.393
 4109W        W76435  40.870  13.778  14.425
 4110W        W76436   5.468   6.792  13.492
 4111W        W76437  13.281  27.581  12.639
 4112W        W76438  10.391  25.513   1.550
 4113W        W76439  23.643  36.556   3.557
 4114W        W76440  37.417  19.811  14.913
 4115W        W76441  19.740  32.292  14.196
 4116W        W76442  14.103   9.702  13.330
 4117W        W76443  36.569  33.704   4.123
 4118W        W76444  25.966  15.589   4.278
 4119W        W76445  13.129  14.607  11.054
 4120W        W76446  38.366  11.393   0.742
 4121W        W76447  17.138  12.757   2.639
 4122W        W76448   0.493  22.738   1.362
 4123W        W76449   0.522   1.464  14.630
 4124W        W76450  41.277   4.979   1.729
 4125W        W76451   3.334  30.902   3.163
 4126W        W76452  11.848  22.642   4.646
 4127W        W76453  16.172   2.830  10.812
 4128W        W76454   8.832  16.314   0.910
 4129W        W76455  31.689  33.791  10.697
 4130W        W76456   3.958   0.546  10.555
 4131W        W76457  25.116  36.047  11.931
 4132W        W76458  10.183  42.749  11.507
 4133W        W76459   5.216  11.102   0.455
 4134W        W76460  42.988  13.792   4.954
 4135W        W76461  43.526   0.906   2.321
 4136W        W76462   5.834  41.876   1.700
 4137W        W76463  28.544  24.759  11.026
 4138W        W76464  30.028  26.158  12.012
 4139W        W76465  39.435  31.679  14.371
 4140W        W76466  37.402  38.865  11.515
 4141W        W76467  35.654  19.668   3.825
 4142W        W76468  34.850  11.151   1.883
 4143W        W76469  40.347   9.163   1.815
 4144W        W76470  39.341  40.114   3.730
 4145W        W76471   1.094   0.625   2.361
 4146W        W76472   0.956   0.080  12.902
 4147W        W76473  25.966  33.400   4.103
 4148W        W76474  40.475   8.683  13.336
 4149W        W76475  40.870  27.481   0.492
 4150W        W76476  17.630  40.829  12.107
 4151W        W76477  37.335   4.908   1.386
 4152W        W76478  17.659  16.250  11.615
 4153W        W76479  23.424  32.982  10.558
 4154W        W76480  13.201   7.148  10.720
 4155W        W76481  14.766  30.571  11.213
 4156W        W76482  14.573  21.724   2.435
 4157W        W76483  36.429   6.415  13.731
 4158W        W76484  31.544   6.178   0.886
 4159W        W76485  25.413  27.021  10.646
 4160W        W76486  27.112  33.445  12.520
 4161W        W76487  33.070  12.374   4.131
 4162W        W76488  36.800   0.771   3.174
 4163W        W76489  36.633   9.234   3.878
 4164W        W76490  16.285  21.218  14.909
 4165W        W76491  35.682  17.046  14.330
 4166W        W76492  14.691  19.991  14.088
 4167W        W76493  28.487  22.536  11.129
 4168W        W76494  33.286  11.198   0.870
 4169W        W76495  26.204  37.586  12.556
 4170W        W76496  20.017  33.984  14.835
 4171W        W76497   0.298   0.789   4.612
 4172W        W76498  15.856  36.652   1.769
 4173W        W76499  25.090  14.519  11.385
 4174W        W76500  21.434  13.742  11.354
 4175W        W76501  24.047   3.039   3.727
 4176W        W76502  25.986  33.417   0.736
 4177W        W76503  44.457  11.574  11.933
 4178W        W76504   0.441  26.863  11.986
 4179W        W76505  21.021   1.515  12.983
 4180W        W76506  13.836  25.195   0.357
 4181W        W76507  43.024  31.687   2.880
 4182W        W76508  10.002  34.754   0.990
 4183W        W76509  20.044  27.116  13.998
 4184W        W76510  20.974  37.841   3.741
 4185W        W76511  26.036  37.405  13.985
 4186W        W76512  20.365  36.090   4.103
 4187W        W76513   1.848  43.485   1.262
 4188W        W76514   0.494  38.960   4.645
 4189W        W76515  36.070   7.879   4.529
 4190W        W76516  10.390  21.514   2.753
 4191W        W76517  12.865  20.232   0.499
 4192W        W76518  38.038   4.730   1.832
 4193W        W76519   9.100  14.252   1.404
 4194W        W76520  37.289  43.991  10.573
 4195W        W76521   0.460  35.921  12.400
 4196W        W76522  32.072  10.004   3.620
 4197W        W76523   4.773  38.431  10.361
 4198W        W76524   5.195  23.480  13.016
 4199W        W76525  41.256  25.501  11.370
 4200W        W76526  26.740  36.608  14.091
 4201W        W76527   8.722  23.618  12.011
 4202W        W76528  38.621   5.889   4.455
 4203W        W76529  11.660  25.609  13.764
 4204W        W76530   4.920  27.852  13.962
 4205W        W76531  26.928   9.673   2.938
 4206W        W76532   8.643  39.979   3.400
 4207W        W76533  19.628   5.211   2.789
 4208W        W76534  24.445  38.162   0.349
 4209W        W76535  32.975  24.657   0.019
 4210W        W76536  10.637  13.825   0.215
 4211W        W76537  11.738  20.628   2.736
 4212W        W76538  34.823  17.817   2.325
 4213W        W76539  38.495   0.052  14.775
 4214W        W76540  22.173  30.913  11.575
 4215W        W76541  43.305  18.541   2.689
 4216W        W76542   3.478  15.286   3.519
 4217W        W76543  20.125   9.162  13.387
 4218W        W76544  32.267   1.875   1.332
 4219W        W76545  37.048  32.908   0.426
 4220W        W76546  28.513   7.437  12.850
 4221W        W76547  22.247  30.123   4.662
 4222W        W76548  39.369  14.820   1.405
 4223W        W76549  23.657  31.878   2.128
 4224W        W76550  18.685  20.444   1.434
 4225W        W76551  10.060  38.346  12.481
 4226W        W76552  27.727  26.712   1.099
 4227W        W76553  29.628  27.944  13.132
 4228W        W76554   0.687  40.347  11.048
 4229W        W76555   0.797  12.774   2.325
 4230W        W76556  34.381  17.081  13.482
 4231W        W76557  44.001   2.413   0.998
 4232W        W76558  13.291  34.436  11.179
 4233W        W76559  13.665  23.681   4.081
 4234W        W76560   9.585  14.787   3.786
 4235W        W76561  18.300  21.005   0.336
 4236W        W76562  33.365  13.073   3.366
 4237W        W76563  28.192  17.192  14.720
 4238W        W76564  40.026  35.085   0.352
 4239W        W76565  40.081  31.125  12.409
 4240W        W76566  31.266  28.071   0.859
 4241W        W76567  34.483  16.814  13.931
 4242W        W76568  37.583  38.886   2.799
 4243W        W76569   6.765  40.628   4.051
 4244W        W76570  12.783  26.634   2.728
 4245W        W76571  36.852  43.877   2.738
 4246W        W76572  21.967  12.165   2.017
 4247W        W76573  39.029  43.267  12.323
 4248W        W76574  28.206  25.751  10.829
 4249W        W76575   7.259  29.540   4.294
 4250W        W76576  13.271  42.273   0.725
 4251W        W76577  13.578   7.224   3.918
 4252W        W76578  11.755   5.934   4.436
 4253W        W76579  34.070  14.933  13.169
 4254W        W76580  13.322  19.976   0.352
 4255W        W76581   8.444  11.732  11.523
 4256W        W76582  10.240  33.099  13.523
 4257W        W76583  16.241  18.050  13.016
 4258W        W76584   0.235  15.751   1.405
 4259W        W76585  22.271  17.187   1.838
 4260W        W76586  44.151  28.432   3.113
 4261W        W76587   9.905  16.307  12.614
 4262W        W76588   8.858   7.919   4.109
 4263W        W76589  30.436  42.756  14.875
 4264W        W76590  35.209  13.291   1.120
 4265W        W76591  19.614  29.465  13.912
 4266W        W76592   7.605  16.642   4.779
 4267W        W76593   4.140  37.869  11.933
 4268W        W76594  41.060  33.093  12.039
 4269W        W76595  26.532   4.980  14.108
 4270W        W76596  30.422   6.220  14.829
 4271W        W76597  23.666  29.893  11.868
 4272W        W76598  13.065  38.975   2.465
 4273W        W76599  44.903  39.852   4.558
 4274W        W76600  38.982  32.933  14.168
 4275W        W76601  32.697  14.177   4.915
 4276W        W76602  14.588  19.914   0.560
 4277W        W76603  35.633  37.409   3.276
 4278W        W76604  35.531  43.831  11.647
 4279W        W76605   9.903  21.491  12.905
 4280W        W76606  13.884  14.679  13.042
 4281W        W76607  36.904  13.917  14.906
 4282W        W76608   5.171  12.867   3.223
 4283W        W76609  31.538  13.133  11.140
 4284W        W76610   7.974   9.116  14.129
 4285W        W76611  22.302  11.183  14.355
 4286W        W76612  16.724  40.424  11.513
 4287W        W76613  38.283  10.295  11.109
 4288W        W76614  18.994  18.522   1.183
 4289W        W76615  33.812  14.275  14.486
 4290W        W76616  37.553  10.525   2.628
 4291W        W76617  39.012  30.321   3.396
 4292W        W76618  23.796  42.859  13.273
 4293W        W76619  42.760  38.060   4.523
 4294W        W76620   1.031  40.238  11.461
 4295W        W76621  13.797  30.191   1.313
 4296W        W76622  15.858  40.423  11.060
 4297W        W76623  11.749  16.491   0.883
 4298W        W76624   2.528  20.217  14.536
 4299W        W76625  11.594   9.881   0.821
 4300W        W76626  41.913   9.279   1.672
 4301W        W76627   8.247  24.126   4.550
 4302W        W76628  27.017  42.040   3.228
 4303W        W76629  40.961  26.122   3.866
 4304W        W76630   4.324  40.723  13.028
 4305W        W76631  30.394   0.402  11.037
 4306W        W76632  21.415  11.728   2.306
 4307W        W76633  43.040   8.745  11.300
 4308W        W76634  15.855  28.946   1.589
 4309W        W76635  28.022  10.582  14.958
 4310W        W76636  41.787   4.760  11.177
 4311W        W76637  31.131  40.863  12.886
 4312W        W76638   0.609  29.077   1.097
 4313W        W76639  21.525   5.768   4.086
 4314W        W76640   8.206  35.180   2.781
 4315W        W76641  34.839  31.934   1.262
 4316W        W76642   5.563  42.977   0.440
 4317W        W76643  38.488  10.863  11.035
 4318W        W76644  24.502  27.241   3.650
 4319W        W76645  25.659   7.281   4.569
 4320W        W76646   2.300  10.002   0.873
 4321W        W76647  16.528  39.093   2.735
 4322W        W76648   1.434   4.577  12.407
 4323W        W76649   7.839   8.578  11.568
 4324W        W76650  42.992   9.922  11.043
 4325W        W76651  34.220  34.370  13.408
 4326W        W76652  26.054  36.601   3.368
 4327W        W76653  16.796   1.883   0.172
 4328W        W76654  17.810  21.495   0.976
 4329W        W76655  28.670  29.494   4.638
 4330W        W76656  38.066   0.426  14.021
 4331W        W76657  19.235  36.802   1.483
 4332W        W76658  41.978  16.302  14.831
 4333W        W76659  34.545  34.491   3.732
 4334W        W76660  15.220   5.006  14.865
 4335W        W76661  41.768  39.075  10.758
 4336W        W76662  43.320  19.718   0.003
 4337W        W76663  31.919  34.353   2.252
 4338W        W76664  14.949  32.602   2.415
 4339W        W76665  33.796  30.619   1.502
 4340W        W76666   2.718   2.459   5.092
 4341W        W76667  37.427  36.471  13.843
 4342W        W76668  43.496   5.404   2.179
 4343W        W76669  23.332  38.877   0.901
 4344W        W76670  31.531   9.308   1.376
 4345W        W76671  43.827  32.069   1.880
 4346W        W76672  32.387  43.473   2.185
 4347W        W76673  17.399  44.079  11.048
 4348W        W76674  33.306  16.174   0.659
 4349W        W76675  42.899  44.581   4.015
 4350W        W76676  33.217  30.419   5.097
 4351W        W76677  36.964  20.473  13.352
 4352W        W76678  34.995  30.910  13.817
 4353W        W76679  34.148   0.866   0.222
 4354W        W76680  24.174   0.253  13.122
 4355W        W76681  38.660  25.965   3.271
 4356W        W76682   1.745   4.655  13.189
 4357W        W76683  40.788   5.888  11.602
 4358W        W76684  33.997  31.030   3.673
 4359W        W76685  15.893  38.718   0.480
 4360W        W76686   4.818  41.526  11.627
 4361W        W76687   1.609  14.413  11.120
 4362W        W76688  29.109  17.001  11.132
 4363W        W76689  22.133   6.424  10.797
 4364W        W76690   2.537  18.520   0.317
 4365W        W76691  42.510  20.201  10.879
 4366W        W76692  11.217  40.654   3.098
 4367W        W76693  18.515  18.645   3.438
 4368W        W76694   5.800  35.512  10.573
 4369W        W76695  29.885  25.359   3.492
 4370W        W76696  32.358  25.972   0.784
 4371W        W76697  38.594  19.661  12.881
 4372W        W76698   2.156  26.516  10.288
 4373W        W76699  33.736  24.926  12.501
 4374W        W76700  19.369  17.610  11.103
 4375W        W76701  12.153  29.590   0.283
 4376W        W76702  12.425   8.786  13.873
 4377W        W76703  13.162   2.754  12.451
 4378W        W76704  35.622  15.121   0.457
 4379W        W76705  26.237  28.112   0.862
 4380W        W76706   4.958   4.859   0.891
 4381W        W76707  41.799  35.388   4.501
 4382W        W76708  44.766  34.408  10.709
 4383W        W76709   5.983  44.271   3.773
 4384W        W76710  28.453  37.288   1.831
 4385W        W76711   6.072   9.736  14.851
 4386W        W76712  30.753  29.976   4.202
 4387W        W76713   1.224  22.580   4.466
 4388W        W76714   6.369  38.002   4.075
 4389W        W76715  21.682  17.746  10.625
 4390W        W76716  35.069  13.199   3.757
 4391W        W76717  24.088  13.748  12.601
 4392W        W76718   2.963  17.574  11.943
 4393W        W76719  42.064  12.833   4.177
 4394W        W76720  18.625  39.495   0.832
 4395W        W76721  44.993  26.020   0.241
 4396W        W76722  40.620  26.220  14.543
 4397W        W76723  20.322   0.951  10.613
 4398W        W76724   4.508  29.857  11.123
 4399W        W76725  19.208  42.055   1.481
 4400W        W76726  35.351  44.728  11.685
 4401W        W76727  37.231  10.289  12.397
 4402W        W76728  40.815  32.105   3.371
 4403W        W76729   0.873  21.692   1.412
 4404W        W76730  28.620   3.918   0.517
 4405W        W76731  15.524  32.683  13.057
 4406W        W76732   7.520  44.875   2.031
 4407W        W76733  36.468   7.659   2.913
 4408W        W76734  38.934  22.812   1.962
 4409W        W76735  42.885  19.228   2.234
 4410W        W76736  25.194  13.124   0.986
 4411W        W76737  37.553  32.756  11.116
 4412W        W76738  32.576  25.557  14.041
 4413W        W76739  35.525  40.687   0.844
 4414W        W76740   2.137   1.665  10.732
 4415W        W76741  15.357   2.489  10.798
 4416W        W76742  11.334  28.140   0.898
 4417W        W76743   6.183  10.088  10.212
 4418W        W76744   7.934  15.110  10.384
 4419W        W76745  34.024  40.279   1.901
 4420W        W76746  26.934  16.169   0.499
 4421W        W76747  33.076  40.455  13.421
 4422W        W76748   4.932  19.468   5.034
 4423W        W76749  30.612  30.722  13.835
 4424W        W76750   4.170  10.755   5.073
 4425W        W76751  29.029   8.441   2.712
 4426W        W76752   4.606   3.766   1.207
 4427W        W76753  35.541  27.618   4.574
 4428W        W76754   2.263  41.086   3.278
 4429W        W76755  12.964   2.424   3.092
 4430W        W76756  40.406  35.874   1.884
 4431W        W76757  23.204   1.315   4.402
 4432W        W76758  33.097  32.732   2.947
 4433W        W76759  31.500  42.431   1.816
 4434W        W76760   6.977   6.795  12.189
 4435W        W76761  15.597  18.494  11.653
 4436W        W76762  34.882   3.951   4.396
 4437W        W76763   9.488  13.607   1.818
 4438W        W76764  30.570  33.712  11.537
 4439W        W76765  37.905   7.712   1.741
 4440W        W76766  26.902  18.034   4.763
 4441W        W76767  31.556  23.710  14.740
 4442W        W76768   3.274  19.283  13.907
 4443W        W76769  34.109  25.914  13.609
 4444W        W76770  13.023  44.336  13.979
 4445W        W76771   1.283  27.417  10.847
 4446W        W76772  37.843  35.328   4.250
 4447W        W76773   0.789  15.959  11.714
 4448W        W76774  22.660   6.727   3.772
 4449W        W76775   1.090  24.421   3.595
 4450W        W76776  27.098  14.141  11.125
 4451W        W76777   1.913  35.955   4.100
 4452W        W76778  25.556  29.987   0.285
 4453W        W76779  23.731   9.116   4.863
 4454W        W76780  28.154  25.969  12.898
 4455W        W76781  38.593  41.161  14.810
 4456W        W76782  21.862  26.390  13.551
 4457W        W76783  21.697  42.462  14.911
 4458W        W76784  20.491  35.584   0.212
 4459W        W76785  29.028  32.372   0.823
 4460W        W76786  17.651  33.037  13.976
 4461W        W76787  40.398  29.229  12.451
 4462W        W76788  35.612   1.338   3.310
 4463W        W76789   9.875   1.951   1.888
 4464W        W76790   2.325  27.458   4.144
 4465W        W76791  43.916   2.692   0.576
 4466W        W76792   4.815  17.677  14.667
 4467W        W76793  43.057   1.404  10.715
 4468W        W76794  37.514   5.302  14.997
 4469W        W76795  24.538  36.298  14.479
 4470W        W76796   0.920  16.643   2.042
 4471W        W76797  39.889  44.497   0.769
 4472W        W76798  34.021   5.157   3.251
 4473W        W76799  14.390  11.384  12.650
 4474W        W76800   2.155   0.360   0.178
 4475W        W76801  37.898  19.559   0.374
 4476W        W76802  23.803  19.000   0.396
 4477W        W76803   7.983   7.822   2.317
 4478W        W76804  26.564  31.825   4.548
 4479W        W76805  23.161  18.149   3.882
 4480W        W76806  34.430  32.727  13.354
 4481W        W76807  44.041   3.002  13.450
 4482W        W76808  10.770  22.742   3.750
 4483W        W76809   5.980  16.041   1.868
 4484W        W76810  42.611  43.121   2.315
 4485W        W76811  32.491  27.206  13.104
 4486W        W76812  31.416  38.549  12.422
 4487W        W76813   8.337   6.905   3.486
 4488W        W76814   5.441  21.809  11.987
 4489W        W76815  29.266  26.139   2.171
 4490W        W76816  40.376  27.465   2.192
 4491W        W76817  38.460  15.138  11.432
 4492W        W76818  10.754   9.748   1.363
 4493W        W76819  31.918  16.271  11.947
 4494W        W76820   1.738  14.267   1.948
 4495W        W76821   7.941   2.700  13.562
 4496W        W76822  23.158  20.553   3.456
 4497W        W76823  36.880  42.564   0.850
 4498W        W76824  11.622   6.750   0.835
 4499W        W76825  44.393  24.545  10.994
 4500W        W76826  40.344  26.565  14.792
 4501W        W76827  29.891  12.128   2.458
 4502W        W76828  30.486   1.739  10.831
 4503W        W76829  38.364  19.737  10.896
 4504W        W76830  29.591  32.815  10.700
 4505W        W76831   6.675  15.368  12.867
 4506W        W76832  31.950  37.406  10.896
 4507W        W76833  26.940  16.385  12.455
 4508W        W76834  39.394  22.953   3.333
 4509W        W76835  38.809  15.284  13.099
 4510W        W76836  43.984  31.568  14.852
 4511W        W76837  23.074  12.289  12.508
 4512W        W76838  31.400  40.450  12.812
 4513W        W76839  44.506   5.999  14.014
 4514W        W76840  39.774  25.552   0.976
 4515W        W76841  18.223   8.168  10.685
 4516W        W76842  25.914  25.370   4.261
 4517W        W76843  18.333  16.340   1.233
 4518W        W76844  41.882  33.418  11.574
 4519W        W76845  42.303  37.924   3.767
 4520W        W76846   5.665  35.992  14.507
 4521W        W76847   9.560  24.464   3.126
 4522W        W76848   7.288   8.586  13.709
 4523W        W76849  19.705  18.136   2.360
 4524W        W76850   5.696   4.934  10.745
 4525W        W76851  20.120   8.037   2.355
 4526W        W76852  12.494  13.632   3.653
 4527W        W76853  41.268   9.143  14.752
 4528W        W76854   1.711  38.468   0.303
 4529W        W76855  20.499   8.182  11.547
 4530W        W76856   4.357  14.797   1.810
 4531W        W76857  12.585   7.717   0.056
 4532W        W76858  29.253  39.417   3.749
 4533W        W76859  10.398   3.399  14.767
 4534W        W76860  13.262  20.993   0.330
 4535W        W76861  22.908  34.729   3.330
 4536W        W76862   0.426  12.562  10.601
 4537W        W76863  18.887  30.503  14.349
 4538W        W76864  31.431  14.728   0.811
 4539W        W76865   6.926  42.048   2.914
 4540W        W76866  26.164  23.741   1.646
 4541W        W76867   5.883  31.618   4.183
 4542W        W76868  34.087  32.488  10.999
 4543W        W76869  36.340  31.088  14.279
 4544W        W76870  33.673  29.585   2.158
 4545W        W76871  17.606  21.108  11.048
 4546W        W76872  35.970  27.939  12.980
 4547W        W76873  24.019  24.966   4.585
 4548W        W76874  23.547  19.512   4.268
 4549W        W76875  14.724   9.927  10.535
 4550W        W76876   9.263  11.488   2.635
 4551W        W76877  33.049  20.146  14.758
 4552W        W76878  33.893   3.013  14.487
 4553W        W76879   0.348  29.534  12.228
 4554W        W76880  29.368  39.901   4.326
 4555W        W76881  29.057  20.640   3.340
 4556W        W76882  32.350  27.040  13.574
 4557W        W76883  25.482  30.366   4.830
 4558W        W76884  18.221  42.017   2.577
 4559W        W76885  16.802   2.534   2.445
 4560W        W76886  41.507  41.376   4.092
 4561W        W76887   8.583  37.993  11.501
 4562W        W76888   0.711   6.234   0.344
 4563W        W76889  32.560  24.094   3.580
 4564W        W76890   2.767  10.191   1.826
 4565W        W76891  41.413  31.215   4.135
 4566W        W76892  23.730  41.395   1.653
 4567W        W76893  39.448  44.349  10.787
 4568W        W76894  27.037  10.153  12.622
 4569W        W76895  34.066   3.741  12.881
 4570W        W76896  43.736  14.037   0.912
 4571W        W76897   8.051  25.660   4.235
 4572W        W76898  32.287  26.534   5.249
 4573W        W76899  15.222  21.959  14.944
 4574W        W76900  35.634  36.986  14.748
 4575W        W76901  15.223  15.981  14.235
 4576W        W76902   4.318   1.080   3.738
 4577W        W76903  11.033   1.921  13.952
 4578W        W76904  12.882  19.071   4.838
 4579W        W76905  18.406  36.912   0.495
 4580W        W76906  22.979   6.445   1.355
 4581W        W76907  34.742  33.544   4.358
 4582W        W76908   8.904  31.119   2.290
 4583W        W76909   5.748  18.199   0.766
 4584W        W76910   5.098  41.030   5.042
 4585W        W76911   3.437   7.320   4.306
 4586W        W76912  39.082  42.323  14.444
 4587W        W76913  33.552   4.415  11.578
 4588W        W76914  30.108  16.085   3.221
 4589W        W76915   9.409  10.235  12.494
 4590W        W76916  29.019  44.802  10.629
 4591W        W76917  10.923  21.015   4.086
 4592W        W76918  32.698  25.123   5.037
 4593W        W76919  38.111  23.901   0.356
 4594W        W76920   3.054  21.303  10.229
 4595W        W76921  34.128   9.614   3.128
 4596W        W76922  42.950  37.746   1.185
 4597W        W76923  27.713  26.557   2.828
 4598W        W76924  20.761  27.705   3.337
 4599W        W76925   9.222  20.293   3.029
 4600W        W76926   0.219   0.294   2.434
 4601W        W76927   1.409  30.324   4.647
 4602W        W76928  11.124  29.382  11.233
 4603W        W76929  19.251   4.800   3.638
 4604W        W76930   0.427  20.031  10.718
 4605W        W76931  40.530  22.326  13.396
 4606W        W76932  10.253  27.633  11.018
 4607W        W76933  40.183  23.660  12.940
 4608W        W76934  39.851  41.264  11.592
 4609W        W76935  38.591  19.601  12.351
 4610W        W76936  15.055  27.693   2.323
 4611W        W76937  37.026  27.087   2.438
 4612W        W76938  17.638  12.511  14.053
 4613W        W76939  39.824  29.438  14.971
 4614W        W76940  31.099  28.187  13.699
 4615W        W76941   7.957  33.995   1.863
 4616W        W76942  27.812  31.862  13.436
 4617W        W76943  15.559  15.880   5.043
 4618W        W76944  29.647   2.012  13.350
 4619W        W76945  38.452  20.700  10.560
 4620W        W76946  14.558   7.904  12.972
 4621W        W76947  31.636  28.685  12.977
 4622W        W76948  16.805  13.764   0.859
 4623W        W76949   7.637  15.691  14.465
 4624W        W76950  16.976   3.997   2.013
 4625W        W76951  37.267  15.387  14.656
 4626W        W76952  28.446  12.037  13.860
 4627W        W76953  29.029  31.990   2.401
 4628W        W76954   3.709  38.358   4.256
 4629W        W76955  24.751   4.738   1.491
 4630W        W76956  27.097  43.193   1.987
 4631W        W76957  40.296  30.509  12.843
 4632W        W76958  12.875   7.041   0.247
 4633W        W76959  36.648  17.581   1.836
 4634W        W76960  31.395  19.732  12.030
 4635W        W76961  25.980   9.873  13.607
 4636W        W76962  15.237   2.547  12.124
 4637W        W76963  23.536   2.994   2.186
 4638W        W76964  16.885  37.585   0.904
 4639W        W76965  11.826  10.893   4.634
 4640W        W76966  31.182  43.747   0.402
 4641W        W76967   0.912  15.822  13.516
 4642W        W76968  20.558   0.021   3.059
 4643W        W76969  38.784  25.318  10.787
 4644W        W76970  27.623  44.511   2.718
 4645W        W76971  30.946  29.925  11.623
 4646W        W76972  41.558  13.330  11.615
 4647W        W76973   7.473  38.766  10.670
 4648W        W76974  34.975   8.728  14.182
 4649W        W76975  39.567  10.916  13.461
 4650W        W76976  35.807  12.893  11.138
 4651W        W76977  14.768  42.970   4.272
 4652W        W76978  22.524  30.420   0.485
 4653W        W76979  11.113   0.777   0.057
 4654W        W76980  26.754   8.321   3.731
 4655W        W76981  42.796  42.495  10.744
 4656W        W76982  22.677  39.066  14.093
 4657W        W76983  13.690  33.919   2.601
 4658W        W76984  31.087  22.700  11.570
 4659W        W76985  24.791  10.061  13.788
 4660W        W76986  27.502  31.423   2.717
 4661W        W76987  20.827  26.847   2.327
 4662W        W76988  34.449  13.176  11.441
 4663W        W76989  10.755  15.661  14.572
 4664W        W76990   5.491  13.601  13.366
 4665W        W76991  29.974   4.918   0.966
 4666W        W76992  20.894   9.458   4.496
 4667W        W76993  31.024   8.144   2.656
 4668W        W76994  23.617  12.424  13.681
 4669W        W76995  38.105  13.838  13.060
 4670W        W76996  31.067  17.872   1.510
 4671W        W76997   1.349  40.102  12.537
 4672W        W76998  42.373  27.014  12.844
 4673W        W76999  26.112  11.221  11.349
 4674W        W77000   3.815  40.475  14.940
 4675W        W77001  27.763   7.951  14.928
 4676W        W77002  21.016   7.162  10.813
 4677W        W77003   0.625  35.695  12.951
 4678W        W77004  13.090  23.154  10.746
 4679W        W77005  11.614  26.158  12.648
 4680W        W77006  28.478  40.900   3.277
 4681W        W77007  32.380  22.772  11.131
 4682W        W77008  40.311  41.963  14.996
 4683W        W77009  13.815  39.124  12.820
 4684W        W77010  21.228  40.315  14.529
 4685W        W77011   6.959  40.958   3.634
 4686W        W77012   2.748  17.532  11.152
 4687W        W77013   7.780   4.272   4.017
 4688W        W77014  43.946  10.419   0.414
 4689W        W77015  30.989  44.440  10.651
 4690W        W77016  32.666  41.211   1.779
 4691W        W77017  31.376  17.560  14.058
 4692W        W77018  32.623  24.717  13.462
 4693W        W77019  18.659   3.804  14.790
 4694W        W77020  27.642  42.820   0.279
 4695W        W77021   3.981  22.159   5.118
 4696W        W77022  34.245  38.056  10.376
 4697W        W77023   1.791  17.274  11.503
 4698W        W77024  22.480  14.764   4.850
 4699W        W77025  40.940  24.408  14.419
 4700W        W77026  13.672  17.815  11.385
 4701W        W77027   7.340  39.509  11.019
 4702W        W77028   1.923  35.877  14.969
 4703W        W77029  25.654  18.143   3.259
 4704W        W77030  38.776  28.140   1.038
 4705W        W77031  34.591  24.195  13.470
 4706W        W77032  42.686   7.861   4.917
 4707W        W77033   6.997  26.989   1.349
 4708W        W77034  10.202  33.866   2.758
 4709W        W77035  31.559  28.172   3.231
 4710W        W77036   3.671  31.964  13.861
 4711W        W77037  24.658  25.511   0.533
 4712W        W77038  24.037  32.625  12.515
 4713W        W77039  36.678  26.513   0.754
 4714W        W77040  30.693  16.708   1.728
 4715W        W77041  25.437   6.493   2.752
 4716W        W77042  40.441  38.391   2.405
 4717W        W77043  14.367  42.818   2.123
 4718W        W77044   6.352  38.566   0.457
 4719W        W77045  13.865  34.919  12.555
 4720W        W77046  16.075  23.358  11.900
 4721W        W77047  43.944   7.346   2.827
 4722W        W77048  12.814  12.127  10.579
 4723W        W77049  44.727   2.380   2.768
 4724W        W77050  12.072   4.082   3.295
 4725W        W77051   6.855   7.523   0.791
 4726W        W77052   7.037  17.739  11.895
 4727W        W77053  42.574  39.824  11.645
 4728W        W77054  44.144  34.695   3.744
 4729W        W77055  25.974  17.611   0.997
 4730W        W77056  31.921   8.949  11.221
 4731W        W77057  33.573  17.666  12.856
 4732W        W77058  20.902  24.025   2.766
 4733W        W77059  31.920   4.666   4.287
 4734W        W77060  30.956  28.422   1.118
 4735W        W77061  42.023  43.990   4.117
 4736W        W77062  13.534  33.841   1.355
 4737W        W77063  15.774  39.373  12.517
 4738W        W77064  23.201   4.916  12.026
 4739W        W77065  41.903  19.085   4.672
 4740W        W77066   2.686   1.954   4.999
 4741W        W77067   9.005  34.629  12.939
 4742W        W77068  38.576  38.003   1.866
 4743W        W77069  10.508  31.416   2.927
 4744W        W77070  25.515  43.064  12.413
 4745W        W77071  23.283   4.019  12.944
 4746W        W77072  39.946  24.934  14.431
 4747W        W77073   7.270  24.530   1.812
 4748W        W77074   6.687   0.994   3.917
 4749W        W77075  40.801  13.243   2.272
 4750W        W77076  34.241  25.225  14.506
 4751W        W77077  35.441  10.607   0.375
 4752W        W77078  34.364  40.349  13.144
 4753W        W77079  14.232  23.999   2.363
 4754W        W77080  41.840  18.202   1.826
 4755W        W77081  26.511  21.867  14.932
 4756W        W77082  39.772  42.305   0.874
 4757W        W77083  25.507   7.834  13.991
 4758W        W77084  34.533   4.533  12.909
 4759W        W77085  31.187  44.035   1.353
 4760W        W77086  44.753  27.902  13.466
 4761W        W77087  40.040  43.981  11.190
 4762W        W77088   7.296  11.560   0.006
 4763W        W77089  35.670  29.534  13.563
 4764W        W77090   2.872  42.509   0.184
 4765W        W77091  25.691  40.961   4.522
 4766W        W77092  14.166  39.473  13.991
 4767W        W77093  12.742   5.541   2.136
 4768W        W77094   6.839  37.515  10.697
 4769W        W77095   7.407  34.000   1.701
 4770W        W77096   9.640  10.877  11.462
 4771W        W77097  11.640  17.241  10.656
 4772W        W77098  12.659   1.199   1.512
 4773W        W77099   5.162  34.759   0.110
 4774W        W77100  42.262  14.682   2.818
 4775W        W77101   4.370  22.226  14.318
 4776W        W77102  11.636  31.665   4.513
 4777W        W77103  13.082  16.155  12.038
 4778W        W77104  26.851  23.334  14.522
 4779W        W77105  20.345   5.136   0.261
 4780W        W77106  42.709   2.640   2.153
 4781W        W77107   5.181  36.450  12.912
 4782W        W77108  18.309  23.657   4.595
 4783W        W77109  21.732  38.824  14.287
 4784W        W77110  11.251  21.618  12.087
 4785W        W77111   8.136   4.350  14.940
 4786W        W77112  23.194  44.198  14.199
 4787W        W77113  19.534   4.077   1.874
 4788W        W77114   0.228   7.554   4.875
 4789W        W77115   1.523  39.382  11.432
 4790W        W77116  11.208  12.835  11.670
 4791W        W77117  18.729  32.369   4.246
 4792W        W77118  12.915   9.990   1.327
 4793W        W77119  16.610  35.227   0.191
 4794W        W77120  43.312  27.210   0.820
 4795W        W77121  14.244  36.881   4.579
 4796W        W77122   8.294  25.519  14.251
 4797W        W77123  43.900  22.635   3.303
 4798W        W77124  38.058  12.741  12.778
 4799W        W77125   0.335  27.966   0.210
 4800W        W77126  15.138   9.677   3.621
 4801W        W77127  22.536  39.396   1.294
 4802W        W77128   6.829  21.667  12.990
 4803W        W77129  33.359  32.101   0.409
 4804W        W77130  11.010  41.441  13.077
 4805W        W77131  22.476  41.298  11.996
 4806W        W77132  25.631  15.867  12.652
 4807W        W77133  43.453  36.435  11.595
 4808W        W77134  34.566  42.435   2.189
 4809W        W77135  18.597  30.371  10.686
 4810W        W77136  17.020  43.347   3.705
 4811W        W77137   6.607  14.120  14.717
 4812W        W77138  38.412  21.720  10.641
 4813W        W77139  30.122  16.398  11.581
 4814W        W77140  28.826  38.941  10.439
 4815W        W77141  26.980  19.551  14.031
 4816W        W77142   9.523  31.712  13.579
 4817W        W77143  37.668  37.232   4.998
 4818W        W77144  25.565  35.638  13.944
 4819W        W77145  17.129  19.387   1.455
 4820W        W77146  35.373  16.517   4.549
 4821W        W77147  40.034  16.719   1.001
 4822W        W77148  24.651  15.117  12.067
 4823W        W77149  17.403  25.383  10.594
 4824W        W77150  21.160  13.826  13.024
 4825W        W77151   7.757  25.617   2.006
 4826W        W77152  44.269  22.165   0.927
 4827W        W77153  33.333  35.601  11.089
 4828W        W77154  37.350  43.991   2.544
 4829W        W77155   5.413  40.425  12.186
 4830W        W77156   4.470   7.684   4.310
 4831W        W77157  38.497  23.896   4.879
 4832W        W77158  38.274  26.269   3.440
 4833W        W77159   6.825  40.359   0.031
 4834W        W77160   9.156   1.164  10.058
 4835W        W77161   6.365  11.788  10.680
 4836W        W77162  39.563   6.773   2.149
 4837W        W77163   3.951  27.434   2.316
 4838W        W77164  24.237  24.083   4.102
 4839W        W77165   3.326  40.328   1.865
 4840W        W77166  11.969  35.624   1.929
 4841W        W77167   5.515   3.401  14.769
 4842W        W77168  14.323  22.515  12.098
 4843W        W77169   1.705  12.728  14.777
 4844W        W77170  26.054  33.014   1.060
 4845W        W77171  33.383  28.665  12.470
 4846W        W77172  11.216  40.783   4.592
 4847W        W77173  42.536  19.366  10.665
 4848W        W77174  41.476  43.770   3.064
 4849W        W77175  28.103   3.660  10.227
 4850W        W77176  11.882  30.050  12.358
 4851W        W77177   0.485  38.113   2.371
 4852W        W77178  24.242   0.323   1.301
 4853W        W77179  35.827  35.067  14.503
 4854W        W77180  38.587  18.380  14.882
 4855W        W77181  18.593   6.269  10.598
 4856W        W77182  24.100  31.724  11.814
 4857W        W77183  27.905  25.375   4.527
 4858W        W77184  21.973  17.678   2.137
 4859W        W77185   0.479  31.591  13.356
 4860W        W77186  40.381  39.089  14.364
 4861W        W77187  11.436  34.657   3.808
 4862W        W77188  18.892  14.208   0.337
 4863W        W77189  13.619  18.723   3.678
 4864W        W77190  14.723  27.217  14.903
 4865W        W77191  20.318  33.503  14.056
 4866W        W77192  37.603  23.217  13.066
 4867W        W77193  10.675  26.136   0.825
 4868W        W77194  28.971  32.032  14.483
 4869W        W77195  24.166  10.555   1.649
 4870W        W77196  38.648  23.212   2.777
 4871W        W77197   9.231  19.594   1.906
 4872W        W77198   9.291  35.374   0.501
 4873W        W77199   9.829  25.038   1.648
 4874W        W77200  34.575  18.527  11.129
 4875W        W77201  19.739  10.288   4.739
 4876W        W77202   8.726  24.345  10.338
 4877W        W77203  26.139  34.284   4.595
 4878W        W77204   1.451  19.702   1.019
 4879W        W77205  37.879  11.846   4.806
 4880W        W77206   2.267  36.818   4.211
 4881W        W77207   3.463  27.348  12.341
 4882W        W77208   2.233  41.813  11.647
 4883W        W77209   8.666   7.407  12.009
 4884W        W77210  16.468  28.491   2.671
 4885W        W77211  35.838  34.059   4.633
 4886W        W77212  18.478   1.965   3.305
 4887W        W77213  30.682  29.664   4.584
 4888W        W77214  11.351  14.444  12.394
 4889W        W77215  19.251  26.181   4.974
 4890W        W77216  43.234  25.455   0.507
 4891W        W77217   5.713  20.142  13.022
 4892W        W77218  23.442  27.992   2.284
 4893W        W77219  44.281   8.258  13.589
 4894W        W77220  41.386  27.412   4.541
 4895W        W77221  31.880  33.016   3.926
 4896W        W77222  31.398  37.939   3.635
 4897W        W77223  33.103  29.221  11.821
 4898W        W77224  43.573  27.472   1.962
 4899W        W77225  27.465  42.296  12.499
 4900W        W77226  37.880  32.121   2.133
 4901W        W77227   1.688   0.325  12.355
 4902W        W77228   8.796   4.154   1.446
 4903W        W77229  27.862   6.270  13.273
 4904W        W77230   2.734  19.759   0.441
 4905W        W77231  31.384  13.732   5.020
 4906W        W77232  22.711  38.384  11.148
 4907W        W77233   0.428  40.823  10.996
 4908W        W77234   5.399  44.779   0.866
 4909W        W77235   7.794   1.461   0.240
 4910W        W77236   3.705  35.052  11.586
 4911W        W77237  25.295  16.067  10.862
 4912W        W77238  44.473   3.084   3.215
 4913W        W77239  14.822  37.525  14.283
 4914W        W77240   9.598   8.812  10.682
 4915W        W77241   2.206   1.764   5.034
 4916W        W77242   2.005  42.969   1.154
 4917W        W77243  29.927  22.081  14.029
 4918W        W77244   9.321  22.187  12.893
 4919W        W77245  11.497  31.403  13.422
 4920W        W77246  14.277   1.059   0.336
 4921W        W77247   3.177  21.766   0.757
 4922W        W77248   4.875   4.798  13.951
 4923W        W77249  27.437  11.760  10.585
 4924W        W77250  15.314  34.884   9.810
 4925W        W77251  24.017  24.778  12.979
 4926W        W77252  42.474  25.615   2.238
 4927W        W77253  12.196  39.396  10.749
 4928W        W77254  39.809  29.725   4.610
 4929W        W77255   5.741  36.795   2.213
 4930W        W77256  34.628  32.546   2.780
 4931W        W77257  42.407  43.443  10.346
 4932W        W77258  15.779  20.015   4.223
 4933W        W77259  24.032  31.124   3.153
 4934W        W77260  36.002  31.598  14.905
 4935W        W77261  44.305  43.324  10.909
 4936W        W77262  41.347  28.484   0.990
 4937W        W77263  38.108  17.105   0.002
 4938W        W77264  33.797  26.522   4.063
 4939W        W77265  37.919  34.816   1.338
 4940W        W77266  25.575  17.715   5.475
 4941W        W77267   4.350  43.419   0.353
 4942W        W77268  41.472  16.077   1.333
 4943W        W77269  18.008  13.897   3.326
 4944W        W77270  27.564  37.388   2.236
 4945W        W77271  29.964   3.836   4.356
 4946W        W77272  43.790  28.167  14.495
 4947W        W77273  19.836   4.776   3.849
 4948W        W77274  15.385  36.452   4.885
 4949W        W77275  13.229  23.669   3.808
 4950W        W77276  37.406  25.535  14.794
 4951W        W77277  29.626  42.812  11.068
 4952W        W77278  30.382   9.732   3.258
 4953W        W77279   9.084  36.597  14.372
 4954W        W77280  36.614  19.269  11.447
 4955W        W77281   3.578   3.719  14.838
 4956W        W77282  27.557  36.524   3.696
 4957W        W77283   2.272  19.598   2.295
 4958W        W77284  33.171  42.982  14.481
 4959W        W77285   4.333  27.090   3.820
 4960W        W77286  22.015  21.008   4.364
 4961W        W77287  41.932   5.777   1.856
 4962W        W77288  18.746   3.955  11.454
 4963W        W77289  36.821  41.318   2.833
 4964W        W77290  29.551  22.617   1.930
 4965W        W77291  23.209  14.617   2.811
 4966W        W77292  36.292  12.392  14.437
 4967W        W77293  32.657  29.454  13.921
 4968W        W77294  13.833  19.201   4.405
 4969W        W77295  43.714  35.922   0.294
 4970W        W77296   9.248  22.744  12.856
 4971W        W77297   2.463  25.516  11.806
 4972W        W77298   8.905  14.661   2.183
 4973W        W77299   1.281  37.452   5.047
 4974W        W77300  29.987  12.132  12.604
 4975W        W77301   8.390  30.730  13.423
 4976W        W77302  42.313  33.144   2.280
 4977W        W77303  38.130   4.256  13.541
 4978W        W77304  41.087   4.638  12.638
 4979W        W77305  17.268   2.066   0.897
 4980W        W77306  40.544  22.609   2.133
 4981W        W77307   3.307  34.261   3.528
 4982W        W77308  16.113  38.853  14.355
 4983W        W77309  41.797  18.117   0.770
 4984W        W77310   3.387   3.231  14.822
 4985W        W77311  29.499  26.878   3.674
 4986W        W77312   9.908  21.649   3.899
 4987W        W77313  10.885  32.191  12.900
 4988W        W77314  14.284  25.795  12.505
 4989W        W77315   5.369  10.048  14.001
 4990W        W77316  16.401   2.543   0.021
 4991W        W77317   0.744  14.774   1.624
 4992W        W77318  26.555  13.818   4.231
 4993W        W77319  30.651  23.771   4.045
 4994W        W77320  27.057  37.110   1.822
 4995W        W77321  38.914  29.720   1.233
 4996W        W77322  16.705  23.136   4.297
 4997W        W77323  16.048  14.116   0.942
 4998W        W77324  41.064   8.225   2.313
 4999W        W77325  33.527   0.073  12.999
 5000W        W77326  32.019  39.125   0.893
 5001W        W77327  36.482   8.423  12.022
 5002W        W77328  20.585  17.099  12.345
 5003W        W77329  23.804   6.087  11.646
 5004W        W77330   4.821  11.353  10.658
 5005W        W77331  19.213  14.571   4.537
 5006W        W77332  28.746  32.646   4.527
 5007W        W77333  10.664   9.459   1.798
 5008W        W77334  34.895  27.274  12.893
 5009W        W77335  28.964  28.600  12.879
 5010W        W77336  10.441  22.700  13.794
 5011W        W77337  32.646   0.047   0.873
 5012W        W77338  22.292  21.459   3.567
 5013W        W77339  42.304  22.261  11.172
 5014W        W77340  27.931  15.717   4.306
 5015W        W77341  43.419  18.915  11.564
 5016W        W77342  34.917  41.817  10.877
 5017W        W77343  19.111   3.249   2.198
 5018W        W77344  31.968  38.959   4.565
 5019W        W77345  28.352  20.591   1.594
 5020W        W77346  34.595  18.869   1.240
 5021W        W77347  28.336   2.378   2.873
 5022W        W77348  41.023  36.570  12.212
 5023W        W77349  11.133  31.930   4.227
 5024W        W77350  16.021  28.998   0.785
 5025W        W77351  12.683  23.043   1.823
 5026W        W77352  38.513  22.096  13.255
 5027W        W77353  10.023  39.317   0.323
 5028W        W77354   4.778  28.734  12.556
 5029W        W77355  23.696  22.067  14.905
 5030W        W77356  32.055   2.884  11.417
 5031W        W77357   9.868  16.058  10.366
 5032W        W77358  44.512  33.316  10.616
 5033W        W77359  26.520  41.857   3.184
 5034W        W77360  18.968   5.575  12.954
 5035W        W77361  11.725   8.362  11.414
 5036W        W77362  42.487   6.231  11.859
 5037W        W77363  15.235  41.398  14.816
 5038W        W77364  17.609  26.276   0.358
 5039W        W77365  37.014  44.470   0.569
 5040W        W77366   7.432  41.057  10.734
 5041W        W77367   5.288   3.421   0.764
 5042W        W77368  24.316   8.389  11.635
 5043W        W77369  15.848   7.455   0.992
 5044W        W77370  21.283  12.415  11.237
 5045W        W77371   2.468  29.430  13.953
 5046W        W77372  28.521  37.395   2.328
 5047W        W77373  44.516  27.206  11.093
 5048W        W77374  20.959  27.148   3.182
 5049W        W77375  10.398  33.392  14.084
 5050W        W77376   7.188   4.792   0.864
 5051W        W77377   2.374  18.020  10.554
 5052W        W77378  27.756   0.450   1.475
 5053W        W77379  12.543  12.145   4.220
 5054W        W77380  31.441  38.351  11.938
 5055W        W77381   1.478  24.077  13.959
 5056W        W77382  30.889  41.801   1.869
 5057W        W77383  23.740  30.602   0.884
 5058W        W77384  37.323   9.402  14.797
 5059W        W77385   4.390  42.557   2.353
 5060W        W77386  25.955  20.212   4.226
 5061W        W77387   4.719  14.624   1.281
 5062W        W77388  19.298  37.020  13.894
 5063W        W77389  42.772  29.943   1.855
 5064W        W77390  34.474  28.066  10.810
 5065W        W77391  20.710  12.195  14.454
 5066W        W77392  13.591   2.158   4.089
 5067W        W77393   4.402   6.231  13.436
 5068W        W77394  17.221  44.906  13.946
 5069W        W77395  22.713  40.588  14.048
 5070W        W77396  34.461   9.430   2.364
 5071W        W77397  24.644  24.289  10.512
 5072W        W77398  26.699   6.412  11.063
 5073W        W77399   9.648  31.198   2.671
 5074W        W77400  14.736   3.179   2.274
 5075W        W77401   3.930  10.424  11.039
 5076W        W77402  36.935  19.524   1.331
 5077W        W77403  18.421  10.534   5.292
 5078W        W77404  11.092  35.400   1.831
 5079W        W77405  39.372  41.935   3.278
 5080W        W77406   0.949  43.184  11.148
 5081W        W77407  31.938  19.154   2.800
 5082W        W77408  39.230  28.511   0.311
 5083W        W77409  33.420  15.844   1.041
 5084W        W77410  17.576  27.647  12.085
 5085W        W77411   9.970  39.824   0.042
 5086W        W77412  16.527   4.055   2.275
 5087W        W77413  22.201   9.385   3.429
 5088W        W77414  33.177  41.803   2.328
 5089W        W77415   7.260   3.866   4.692
 5090W        W77416   5.872  38.221   4.171
 5091W        W77417  12.159   9.467   3.768
 5092W        W77418  20.632  10.618   1.178
 5093W        W77419   7.692  44.248   4.050
 5094W        W77420   6.347  31.764  11.599
 5095W        W77421  30.418  38.587  12.703
 5096W        W77422   9.657  16.625   0.329
 5097W        W77423  26.732   2.014   3.386
 5098W        W77424  31.640  37.012  12.320
 5099W        W77425  32.821  23.563   4.156
 5100W        W77426  19.811  20.954  11.222
 5101W        W77427  41.075   7.692  14.809
 5102W        W77428  43.539  25.212   4.024
 5103W        W77429  24.623   7.871   1.202
 5104W        W77430  40.860  35.350  12.293
 5105W        W77431  22.547  42.030  11.195
 5106W        W77432  28.497  32.562   4.062
 5107W        W77433   3.547  26.573   1.998
 5108W        W77434  19.836   3.572   3.334
 5109W        W77435  35.880   6.434   4.785
 5110W        W77436  40.996  43.272  12.077
 5111W        W77437  15.251   5.816  13.800
 5112W        W77438  43.847  19.591  10.963
 5113W        W77439  11.377  44.725  12.783
 5114W        W77440  27.176   8.932   4.627
 5115W        W77441   7.988  38.831  10.743
 5116W        W77442  37.521  17.295  10.806
 5117W        W77443  41.221   0.964  14.494
 5118W        W77444  18.377  22.760   3.589
 5119W        W77445  37.554  42.218  13.937
 5120W        W77446  24.446  26.040  13.224
 5121W        W77447  22.779  33.880   2.405
 5122W        W77448  21.906  16.131  14.717
 5123W        W77449  10.637   1.317  10.997
 5124W        W77450  10.073   1.252   4.054
 5125W        W77451   2.882  11.842   4.118
 5126W        W77452   7.674  43.347   3.090
 5127W        W77453  37.416  32.069  12.927
 5128W        W77454  22.815  13.576  14.462
 5129W        W77455   0.481  20.223   4.025
 5130W        W77456  14.577  40.286   2.767
 5131W        W77457  18.500  28.978   1.886
 5132W        W77458  14.653  10.946   0.309
 5133W        W77459  17.870   8.165  12.022
 5134W        W77460   7.335  40.892  12.033
 5135W        W77461  31.086  12.671   0.921
 5136W        W77462  31.928   5.108  12.373
 5137W        W77463  38.815  16.403   2.865
 5138W        W77464   6.187   6.942  13.791
 5139W        W77465  43.336   2.539  13.242
 5140W        W77466   6.098   4.844  12.524
 5141W        W77467  37.257  15.158  12.748
 5142W        W77468  24.145  38.266   2.371
 5143W        W77469  34.225   8.680   3.244
 5144W        W77470  14.986   3.909   4.113
 5145W        W77471  28.778  18.572   1.469
 5146W        W77472   0.929  23.602  11.163
 5147W        W77473   1.823   4.817  12.154
 5148W        W77474  14.729  25.193  10.158
 5149W        W77475   0.001  37.364   2.890
 5150W        W77476   0.246   6.734   3.136
 5151W        W77477  13.630  42.554  13.966
 5152W        W77478   1.461  25.016  13.043
 5153W        W77479  39.231   2.616  11.555
 5154W        W77480  27.239   2.962  13.371
 5155W        W77481   0.812  12.392   0.459
 5156W        W77482  33.077   0.776  11.072
 5157W        W77483  33.011  37.254  12.619
 5158W        W77484  23.245  22.427  14.862
 5159W        W77485  27.589  24.426  14.840
 5160W        W77486  29.096  39.643  11.136
 5161W        W77487  30.811  43.420   5.234
 5162W        W77488  24.913   8.180   2.336
 5163W        W77489   2.490  11.162  12.078
 5164W        W77490   5.050  42.989   0.333
 5165W        W77491  29.977   6.936   2.912
 5166W        W77492  25.127   5.178   1.337
 5167W        W77493  11.923  21.013  13.888
 5168W        W77494   6.969  29.271   0.288
 5169W        W77495  14.859  40.326   0.342
 5170W        W77496  39.330  35.030   4.560
 5171W        W77497  21.168  33.149   3.355
 5172W        W77498  34.183  19.062   0.834
 5173W        W77499  23.361  40.889   2.432
 5174W        W77500  35.703  28.539  10.655
 5175W        W77501   7.649  14.793   0.897
 5176W        W77502  10.906  36.551   3.370
 5177W        W77503  16.343  44.765   3.663
 5178W        W77504  43.938  24.490  12.653
 5179W        W77505  18.672  16.360  14.066
 5180W        W77506  29.178  29.416   4.588
 5181W        W77507  24.424   2.495   4.249
 5182W        W77508  15.954  22.362  10.248
 5183W        W77509   4.208  18.312   3.833
 5184W        W77510  12.827  39.311  12.382
 5185W        W77511   2.884  11.814   5.126
 5186W        W77512  38.396  25.216  11.124
 5187W        W77513  30.400  15.035  11.647
 5188W        W77514   0.195   1.587   3.134
 5189W        W77515  12.038  26.005  13.989
 5190W        W77516  15.345   6.268  12.865
 5191W        W77517  15.574   7.961  13.881
 5192W        W77518  14.182  25.020   2.500
 5193W        W77519  42.936  10.420  11.484
 5194W        W77520  26.650  31.299  10.416
 5195W        W77521   3.921  36.320  12.860
 5196W        W77522  18.279  38.132  10.452
 5197W        W77523   5.778   3.795   1.429
 5198W        W77524  22.632  24.882   4.506
 5199W        W77525  33.143  24.782  13.433
 5200W        W77526  34.018  41.605   3.663
 5201W        W77527  31.889  34.369   0.653
 5202W        W77528   1.925  20.539  12.465
 5203W        W77529  43.627  19.625  13.367
 5204W        W77530  14.742  31.108   4.692
 5205W        W77531  35.678  16.658   3.310
 5206W        W77532   1.056   0.363  13.385
 5207W        W77533  19.577  15.229  14.358
 5208W        W77534  42.069   9.163   3.666
 5209W        W77535  25.280  18.332   0.933
 5210W        W77536  14.157  20.040   0.267
 5211W        W77537  37.073  43.404   4.870
 5212W        W77538  23.214  28.092   3.752
 5213W        W77539   5.791   6.765  11.958
 5214W        W77540  20.817  14.776  14.354
 5215W        W77541   2.561  28.392   5.028
 5216W        W77542   4.395   6.786   4.467
 5217W        W77543  18.566  11.487   0.783
 5218W        W77544  42.389  13.878   0.859
 5219W        W77545  36.038  22.310   1.863
 5220W        W77546  39.541  20.560  11.913
 5221W        W77547  21.519  18.792   0.401
 5222W        W77548  11.846  18.038   3.249
 5223W        W77549   2.023  30.325  11.497
 5224W        W77550   8.584   7.937  12.842
 5225W        W77551  30.562   3.273   2.395
 5226W        W77552  26.202  44.449  14.753
 5227W        W77553  24.682  26.780   2.250
 5228W        W77554  30.898   8.377   4.409
 5229W        W77555  33.196  25.198  12.853
 5230W        W77556  18.359   3.295   3.170
 5231W        W77557  41.774  18.451  11.351
 5232W        W77558  24.728   1.267   2.822
 5233W        W77559  21.373   3.494  13.872
 5234W        W77560  30.867  11.748  12.159
 5235W        W77561   4.368  18.311  14.024
 5236W        W77562  12.237  34.440   0.459
 5237W        W77563  15.318  39.828  14.040
 5238W        W77564  41.424   3.413  11.504
 5239W        W77565  14.202   3.140  11.167
 5240W        W77566  17.773  16.773  10.721
 5241W        W77567   2.684  23.956   4.499
 5242W        W77568  42.907  28.387   3.061
 5243W        W77569  34.164   2.862  10.785
 5244W        W77570  32.485  17.990   3.256
 5245W        W77571  27.262  36.841  14.982
 5246W        W77572  43.361  26.978   2.710
 5247W        W77573  40.848   4.598   2.911
 5248W        W77574   1.033  42.281   1.796
 5249W        W77575  36.383  29.110   4.732
 5250W        W77576   3.730  37.530  13.462
 5251W        W77577   3.381   2.821  11.799
 5252W        W77578  33.089   5.664   3.930
 5253W        W77579  13.797  27.756   1.433
 5254W        W77580  43.128  36.643  13.492
 5255W        W77581  24.631  16.187  12.550
 5256W        W77582  10.597  39.298   2.405
 5257W        W77583  43.683   3.078  12.615
 5258W        W77584   2.494  27.976  12.009
 5259W        W77585  30.113   0.454   2.256
 5260W        W77586  31.732  38.008   1.598
 5261W        W77587  17.836   5.844  13.800
 5262W        W77588  21.988  30.698  13.352
 5263W        W77589   4.492  30.381   1.107
 5264W        W77590   5.815  23.745  11.708
 5265W        W77591   0.766  30.110  13.518
 5266W        W77592  15.732   9.140  14.802
 5267W        W77593  11.920  25.956  13.012
 5268W        W77594   3.294  44.452   4.368
 5269W        W77595   9.178   1.547  12.939
 5270W        W77596   8.941  14.628  12.484
 5271W        W77597  13.277   6.425   3.704
 5272W        W77598   3.933  23.720   1.269
 5273W        W77599   2.918  15.024  11.896
 5274W        W77600   4.771  30.475   2.455
 5275W        W77601  12.587  33.214  11.026
 5276W        W77602  43.943  34.611   0.556
 5277W        W77603  35.597  18.578  11.128
 5278W        W77604  39.484  11.804  12.414
 5279W        W77605  19.167  35.021   3.018
 5280W        W77606  34.537  39.967   2.250
 5281W        W77607  30.344   2.080   2.837
 5282W        W77608  14.078  18.717   0.960
 5283W        W77609  10.160  26.214   0.909
 5284W        W77610   4.701  31.104   0.831
 5285W        W77611  14.334   2.406   2.788
 5286W        W77612   3.823  10.172  12.963
 5287W        W77613  29.999  35.015   4.438
 5288W        W77614  37.937   3.864  10.581
 5289W        W77615   2.167  12.173  13.452
 5290W        W77616   4.494  37.808   1.024
 5291W        W77617  27.998   2.476  13.071
 5292W        W77618  23.585  42.394   1.226
 5293W        W77619  27.999  17.028  14.260
 5294W        W77620  12.700   5.560   0.293
 5295W        W77621  19.343  25.939   0.037
 5296W        W77622  37.330  38.340  11.559
 5297W        W77623  24.594  12.721   4.028
 5298W        W77624   0.742  38.107   4.681
 5299W        W77625  26.210   3.487  13.931
 5300W        W77626  21.762  41.568  11.177
 5301W        W77627  24.020  28.575   4.565
 5302W        W77628  24.620  40.311   4.184
 5303W        W77629   8.667  20.412   4.296
 5304W        W77630  32.008  42.323   3.866
 5305W        W77631  15.117  35.110   4.195
 5306W        W77632   8.821  21.624   9.981
 5307W        W77633  37.864   7.753  10.732
 5308W        W77634  26.172  38.671  13.258
 5309W        W77635  22.186   9.632   2.974
 5310W        W77636  27.158  40.654  12.912
 5311W        W77637   4.271  40.030  11.019
 5312W        W77638   2.802  18.282   1.092
 5313W        W77639  34.677  41.051   0.806
 5314W        W77640   9.831  42.080  11.910
 5315W        W77641   5.349  16.808   2.320
 5316W        W77642  40.945  22.210   0.871
 5317W        W77643  30.137   1.569   0.222
 5318W        W77644   9.175  43.334   0.577
 5319W        W77645   5.852  14.757  13.606
 5320W        W77646  41.294   6.177   4.080
 5321W        W77647  29.147   7.908  14.013
 5322W        W77648  14.723  36.100  14.717
 5323W        W77649  30.665   6.753  10.705
 5324W        W77650  37.843  33.459  12.573
 5325W        W77651   3.656  26.641   3.301
 5326W        W77652  38.144  36.447  13.798
 5327W        W77653  11.362  24.731   4.774
 5328W        W77654  27.483  28.103   5.422
 5329W        W77655  28.259   9.925  10.957
 5330W        W77656  22.727   2.763   4.156
 5331W        W77657  38.874  36.778   2.179
 5332W        W77658  27.023  21.646  14.291
 5333W        W77659  43.341   2.330   4.262
 5334W        W77660  41.959  19.723   4.676
 5335W        W77661  43.813   0.076   4.549
 5336W        W77662  20.285  40.524  14.292
 5337W        W77663  32.408   8.139   0.885
 5338W        W77664   9.214  15.269   4.322
 5339W        W77665  10.842  36.900   0.000
 5340W        W77666  37.498  33.823   0.208
 5341W        W77667   6.431  39.778   4.022
 5342W        W77668  21.603  42.827  14.277
 5343W        W77669  43.370  12.684  10.513
 5344W        W77670  20.868   8.607  13.577
 5345W        W77671   9.867   9.274   1.494
 5346W        W77672  23.151  31.116   1.600
 5347W        W77673   1.415  20.637  12.575
 5348W        W77674   0.782  38.388   3.133
 5349W        W77675  34.875  35.161  14.658
 5350W        W77676   5.984   4.232   3.156
 5351W        W77677  31.011  13.220  14.723
 5352W        W77678   2.553  37.023  12.007
 5353W        W77679  25.540   4.775  14.147
 5354W        W77680  34.131  30.399   0.802
 5355W        W77681  34.634  31.908  12.147
 5356W        W77682  26.576  43.714  11.578
 5357W        W77683   9.865  19.541   0.794
 5358W        W77684  24.013  24.038   2.106
 5359W        W77685  38.032  38.592   4.012
 5360W        W77686  32.375  24.600   3.336
 5361W        W77687  33.755  33.540   4.578
 5362W        W77688  24.256  35.842  14.331
 5363W        W77689  40.941  25.104  14.040
 5364W        W77690  16.622  39.132   0.772
 5365W        W77691  32.086  14.099  14.746
 5366W        W77692   0.124   6.600  12.040
 5367W        W77693  11.749  36.587   1.694
 5368W        W77694  27.634   2.293   3.125
 5369W        W77695  40.799  17.055   1.754
 5370W        W77696  26.493   3.252   2.364
 5371W        W77697  24.018  40.569   1.784
 5372W        W77698  40.470   7.713  10.477
 5373W        W77699  31.661  44.923  12.568
 5374W        W77700  38.380  12.978   3.091
 5375W        W77701  36.409   2.004  12.670
 5376W        W77702  10.827  44.506   3.164
 5377W        W77703   8.063  20.954   1.292
 5378W        W77704  37.129  44.057  13.925
 5379W        W77705   4.409  36.856  14.865
 5380W        W77706  24.137   1.826  14.303
 5381W        W77707  24.777  18.476   2.760
 5382W        W77708  32.926   5.773  13.312
 5383W        W77709  40.312  24.950  10.419
 5384W        W77710  22.413  21.149  14.295
 5385W        W77711  11.601   2.325   4.693
 5386W        W77712  37.954  31.836  10.639
 5387W        W77713  21.399   1.215   4.243
 5388W        W77714  14.600  23.349  13.012
 5389W        W77715  32.282  31.963  14.975
 5390W        W77716  23.982  13.566  14.943
 5391W        W77717  37.327  31.921   3.235
 5392W        W77718  15.244  32.310   4.802
 5393W        W77719  40.716  18.057  11.914
 5394W        W77720   2.096  27.636   4.573
 5395W        W77721  28.127  31.181  12.998
 5396W        W77722  38.673  15.316   2.822
 5397W        W77723   0.987  33.635   4.157
 5398W        W77724  44.014  44.118  12.380
 5399W        W77725  35.900  38.051  13.977
 5400W        W77726  27.547  40.190   3.118
 5401W        W77727  40.412  38.572  12.147
 5402W        W77728  15.803  19.484   4.211
 5403W        W77729  15.585  19.509  11.591
 5404W        W77730   1.966  26.048  13.472
 5405W        W77731  14.190  40.758   3.620
 5406W        W77732  16.994  34.917   1.477
 5407W        W77733  24.218   4.263   4.524
 5408W        W77734  41.843  30.411  14.367
 5409W        W77735  15.757  36.946   1.330
 5410W        W77736  21.156   5.924   4.587
 5411W        W77737  21.720   0.833   4.448
 5412W        W77738   1.366  35.372   3.710
 5413W        W77739  35.816  14.267   4.135
 5414W        W77740  24.499  27.739   0.687
 5415W        W77741   2.692   6.476  14.738
 5416W        W77742  38.702  28.478   0.282
 5417W        W77743  28.595  10.720   2.270
 5418W        W77744  10.050  38.344   1.947
 5419W        W77745  14.916  23.425  11.525
 5420W        W77746  37.701  17.801   4.619
 5421W        W77747  11.875  26.367  12.048
 5422W        W77748  44.890  23.627  14.216
 5423W        W77749  40.283  37.895   2.255
 5424W        W77750  15.666   0.272   1.605
 5425W        W77751   1.903   5.105  11.306
 5426W        W77752  37.463   8.619   3.778
 5427W        W77753  37.005  11.689   3.345
 5428W        W77754  43.225   1.881   1.038
 5429W        W77755  33.119  32.198   1.728
 5430W        W77756  15.836  20.172   3.722
 5431W        W77757  31.540  10.280   4.307
 5432W        W77758  41.982  25.172  14.018
 5433W        W77759  18.313  31.663   3.744
 5434W        W77760   4.393   5.158   0.368
 5435W        W77761   4.781  26.444  13.045
 5436W        W77762   4.829  20.275   2.562
 5437W        W77763  39.069   3.822   2.687
 5438W        W77764  15.547   8.648   1.635
 5439W        W77765  22.661  42.577  14.843
 5440W        W77766  24.735  39.985  13.087
 5441W        W77767  44.686   9.884  14.944
 5442W        W77768  18.506  29.505   3.120
 5443W        W77769  17.448  41.235   1.849
 5444W        W77770  24.995  14.663   3.329
 5445W        W77771  22.095  29.246   0.611
 5446W        W77772  21.102   6.734   1.862
 5447W        W77773  40.496  12.512   0.853
 5448W        W77774  11.544  11.229   2.082
 5449W        W77775  33.374   2.730  11.086
 5450W        W77776  14.370  28.903  13.898
 5451W        W77777  20.288  31.340  13.053
 5452W        W77778  40.204  39.135  13.886
 5453W        W77779   4.023   9.181   4.247
 5454W        W77780   0.389  17.573  10.724
 5455W        W77781  37.114  38.918   4.845
 5456W        W77782  44.555  25.039   0.756
 5457W        W77783  22.434  42.825  10.608
 5458W        W77784   3.155  12.306   0.947
 5459W        W77785   0.224  41.015  14.008
 5460W        W77786   8.513  32.615   4.696
 5461W        W77787   8.321   2.989  10.671
 5462W        W77788  27.940  38.094   2.218
 5463W        W77789  12.572  31.988   1.373
 5464W        W77790  23.694  43.869   0.508
 5465W        W77791  16.930   9.153  11.592
 5466W        W77792  10.608  44.779   3.623
 5467W        W77793  29.867  35.158   0.231
 5468W        W77794  21.263  10.951  14.497
 5469W        W77795  32.417  43.767   2.681
 5470W        W77796  41.148  27.646   3.242
 5471W        W77797  26.230   6.362  10.850
 5472W        W77798  33.003   8.424  11.913
 5473W        W77799  38.830  36.981  10.747
 5474W        W77800   3.283  27.899  14.305
 5475W        W77801  41.474  10.730   0.879
 5476W        W77802  21.761  27.945  13.494
 5477W        W77803   2.496  38.711  12.138
 5478W        W77804   1.023  18.066  10.259
 5479W        W77805  34.525   4.708   0.976
 5480W        W77806   6.173   1.540   4.632
 5481W        W77807  44.860  39.073   0.385
 5482W        W77808  37.346  13.680   0.919
 5483W        W77809  12.599  16.504   1.459
 5484W        W77810   7.379  22.003   1.733
 5485W        W77811  43.731  43.721  12.994
 5486W        W77812  22.567  37.084   1.797
 5487W        W77813   1.478  33.675  12.700
 5488W        W77814  15.959  20.197   1.417
 5489W        W77815   7.491   1.598   3.663
 5490W        W77816  14.546   4.110  11.145
 5491W        W77817   0.900  12.129  14.968
 5492W        W77818   9.730  28.462  11.185
 5493W        W77819  14.682  23.970   3.567
 5494W        W77820  34.021  39.314   4.367
 5495W        W77821  22.148  44.502   1.409
 5496W        W77822  34.112  20.221  12.715
 5497W        W77823  35.911   3.778   4.497
 5498W        W77824  22.128   5.181  14.863
 5499W        W77825  38.494  29.115  11.440
 5500W        W77826  28.178  31.484  13.532
 5501W        W77827  16.802  17.537  14.065
 5502W        W77828  44.731  16.114  13.476
 5503W        W77829  40.469  11.270  10.563
 5504W        W77830  38.913  31.097  13.265
 5505W        W77831   7.507  32.460   0.014
 5506W        W77832  25.649   4.180   4.111
 5507W        W77833  21.177   6.434   3.611
 5508W        W77834  33.143  28.368   4.903
 5509W        W77835   6.694  22.055  12.124
 5510W        W77836   9.359   5.610   3.205
 5511W        W77837  30.482  21.945  12.894
 5512W        W77838  21.128  10.235  11.514
 5513W        W77839  36.824  18.181   0.351
 5514W        W77840  31.338  20.643  12.962
 5515W        W77841  44.904  40.751   4.561
 5516W        W77842  23.191  11.139  11.086
 5517W        W77843   6.263   6.765   2.393
 5518W        W77844  27.057  28.189  14.468
 5519W        W77845  16.695  29.490   4.656
 5520W        W77846  29.861  19.212   1.049
 5521W        W77847  16.242  35.160  12.099
 5522W        W77848   0.930  10.921   1.456
 5523W        W77849  27.672  14.863  13.358
 5524W        W77850  19.731  18.971  12.113
 5525W        W77851  21.782  21.275   0.927
 5526W        W77852  12.796  11.704   1.750
 5527W        W77853  24.046   6.336  14.478
 5528W        W77854  11.351  42.921  10.890
 5529W        W77855  16.594  19.530  10.650
 5530W        W77856  25.602   5.981  14.755
 5531W        W77857  35.624   7.443   1.831
 5532W        W77858  18.575  30.054  14.432
 5533W        W77859  12.314  15.189  12.576
 5534W        W77860  25.722  43.836   3.247
 5535W        W77861  23.602   8.262   0.806
 5536W        W77862  36.140  12.771  12.812
 5537W        W77863  43.691  20.176  11.586
 5538W        W77864  36.569   9.102  13.801
 5539W        W77865   4.546  42.064   2.234
 5540W        W77866  41.537  10.791  13.617
 5541W        W77867  12.080  31.209   0.407
 5542W        W77868  43.721  36.166  12.148
 5543W        W77869   8.365  37.813  12.847
 5544W        W77870  42.606  12.092   0.519
 5545W        W77871  16.201  34.196   1.849
 5546W        W77872  14.365  27.327   3.797
 5547W        W77873  33.047  19.095   1.916
 5548W        W77874  25.035  14.649  13.523
 5549W        W77875  23.636  41.770  11.167
 5550W        W77876   6.332  23.030  13.849
 5551W        W77877   9.755  36.521  14.984
 5552W        W77878  15.815  33.647   3.815
 5553W        W77879   7.589  39.732   2.442
 5554W        W77880  33.647   2.868   0.375
 5555W        W77881  27.218  34.413   3.642
 5556W        W77882  12.706   3.958  11.412
 5557W        W77883   1.162  41.612  12.914
 5558W        W77884  22.234  25.092  14.342
 5559W        W77885  33.402  24.719   4.078
 5560W        W77886  14.426  36.985  10.371
 5561W        W77887  34.455  43.900  13.161
 5562W        W77888  34.852  15.452  11.163
 5563W        W77889  31.451  20.654   0.764
 5564W        W77890  39.838  16.335   1.927
 5565W        W77891  10.730  35.346  11.940
 5566W        W77892  44.773   3.899   0.242
 5567W        W77893   3.408  25.927  11.282
 5568W        W77894  18.327   3.496   1.868
 5569W        W77895  31.238  36.389   4.160
 5570W        W77896   6.434  31.652   0.919
 5571W        W77897  22.755  18.281   2.290
 5572W        W77898  20.712  13.859  10.446
 5573W        W77899  21.368   9.058  12.095
 5574W        W77900  23.690  31.010  14.020
 5575W        W77901  21.796  42.919   5.140
 5576W        W77902  22.090   9.257  12.491
 5577W        W77903  31.423  44.740   0.300
 5578W        W77904  40.140   4.006   2.612
 5579W        W77905  11.266   3.840   2.316
 5580W        W77906  14.156   1.259   4.949
 5581W        W77907   7.154   0.840   1.797
 5582W        W77908  39.051  33.974  10.476
 5583W        W77909   3.752  16.438  10.431
 5584W        W77910  11.696   5.519   3.573
 5585W        W77911  37.754  27.157   1.399
 5586W        W77912  39.218   1.911   1.556
 5587W        W77913  12.718  38.342   4.448
 5588W        W77914  14.793  42.725  14.966
 5589W        W77915   8.642  20.550  14.482
 5590W        W77916  15.563  38.773   4.564
 5591W        W77917  12.861  22.731   1.177
 5592W        W77918   0.201   6.904   1.311
 5593W        W77919  33.586  14.649   1.305
 5594W        W77920  29.017  31.579   1.638
 5595W        W77921   8.790  39.989  14.274
 5596W        W77922  17.920  26.546  14.520
 5597W        W77923   3.368   1.283   1.190
 5598W        W77924   5.166  25.207   3.810
 5599W        W77925  28.082  24.469  10.385
 5600W        W77926  23.174  38.679  10.795
 5601W        W77927  21.114  26.104   4.647
 5602W        W77928  38.503  40.865   3.140
 5603W        W77929   2.915  37.090   1.845
 5604W        W77930  36.625   1.261  14.642
 5605W        W77931  15.207   7.179   0.336
 5606W        W77932   3.331  39.832   1.982
 5607W        W77933   6.240  39.528  14.698
 5608W        W77934   1.073  38.484  14.043
 5609W        W77935  33.092  30.963   3.067
 5610W        W77936  22.827  34.407  10.604
 5611W        W77937  20.608  34.471  11.096
 5612W        W77938  44.329  12.857   2.399
 5613W        W77939  32.745   7.438  11.134
 5614W        W77940  32.401  41.576  11.895
 5615W        W77941  39.889  34.284   0.348
 5616W        W77942   4.779  44.807  13.846
 5617W        W77943  27.645  29.283  14.276
 5618W        W77944  13.185  39.595  13.981
 5619W        W77945  22.812   1.354   3.107
 5620W        W77946  37.403  43.413   1.717
 5621W        W77947  26.767  12.062   4.300
 5622W        W77948  24.471   8.672   4.309
 5623W        W77949  35.659  21.669   0.763
 5624W        W77950  42.853   5.916   1.868
 5625W        W77951  33.602  21.253  11.114
 5626W        W77952  27.093  35.148  13.698
 5627W        W77953  14.911  44.745   4.582
 5628W        W77954  34.636  25.570   0.805
 5629W        W77955  44.755  25.044  14.337
 5630W        W77956  11.609   8.044  10.108
 5631W        W77957   4.462  28.509   2.796
 5632W        W77958  11.809  28.652  11.929
 5633W        W77959  25.168  31.255   4.869
 5634W        W77960  10.786  11.573   2.156
 5635W        W77961  21.762  42.505   2.334
 5636W        W77962  40.380  35.315  12.423
 5637W        W77963   8.141  32.561  12.813
 5638W        W77964   2.426  22.017   3.722
 5639W        W77965  38.867   1.229   4.599
 5640W        W77966  18.971  38.831   3.639
 5641W        W77967  32.740  43.405   2.553
 5642W        W77968  44.552   8.864   0.737
 5643W        W77969  31.701   6.394   0.423
 5644W        W77970  34.817  26.308  11.946
 5645W        W77971   2.682  33.776   4.196
 5646W        W77972  25.536  44.878   4.896
 5647W        W77973  37.441  15.121  13.234
 5648W        W77974   9.106   0.285  10.588
 5649W        W77975  42.309  19.660  12.808
 5650W        W77976  18.615  15.075  10.616
 5651W        W77977  27.642  24.713  10.541
 5652W        W77978  38.765  13.629  10.705
 5653W        W77979  11.531  39.385   2.185
 5654W        W77980  44.225  37.404  10.188
 5655W        W77981  33.583  34.189  13.247
 5656W        W77982  36.860  35.887  13.527
 5657W        W77983  10.131  20.069  14.342
 5658W        W77984  18.609  11.281   3.145
 5659W        W77985   6.180   1.382  13.442
 5660W        W77986  27.743  22.701  11.645
 5661W        W77987  44.021  29.203  12.656
 5662W        W77988  27.909  32.995   0.816
 5663W        W77989   1.240   3.372  12.034
 5664W        W77990  14.234  22.240   3.770
 5665W        W77991  36.931   7.856  12.637
 5666W        W77992   7.364   3.917  11.582
 5667W        W77993  37.385  18.355  10.674
 5668W        W77994  36.139  42.132  14.496
 5669W        W77995  30.223  25.078   1.169
 5670W        W77996  16.567   5.474  12.938
 5671W        W77997  23.456   7.404   0.518
 5672W        W77998  21.065  29.766  14.951
 5673W        W77999  31.852   5.335   1.243
 5674W        W78000  38.550  32.844  13.035
 5675W        W78001  21.398   1.459   3.290
 5676W        W78002  29.022  26.268   3.089
 5677W        W78003  20.035  18.450  13.934
 5678W        W78004  24.443  31.986  12.074
 5679W        W78005  12.748  20.002   2.863
 5680W        W78006  31.622  13.320   1.908
 5681W        W78007  41.802  15.117  14.329
 5682W        W78008  26.659  43.038  11.054
 5683W        W78009  18.619   8.661  13.511
 5684W        W78010   3.200  28.397  14.450
 5685W        W78011  12.069  41.755  14.969
 5686W        W78012  26.659   6.727   4.874
 5687W        W78013   7.913  18.227   2.895
 5688W        W78014  19.220  28.279  13.983
 5689W        W78015  36.631   5.554   4.194
 5690W        W78016  15.148  24.023   0.764
 5691W        W78017  14.339   3.016   0.255
 5692W        W78018  22.706  20.830  10.675
 5693W        W78019  29.035  25.931  11.088
 5694W        W78020  42.052   0.325   4.227
 5695W        W78021  17.795  13.685   3.754
 5696W        W78022  34.043  21.539  13.768
 5697W        W78023  32.452   9.371   2.371
 5698W        W78024   1.047  34.559   1.246
 5699W        W78025  37.396  31.051  13.107
 5700W        W78026  17.595  19.308  12.492
 5701W        W78027  23.976  34.095   0.708
 5702W        W78028   1.025  20.940   0.308
 5703W        W78029  30.461  14.822   1.862
 5704W        W78030  24.223  21.529   4.880
 5705W        W78031  39.330  41.572   0.717
 5706W        W78032  31.159  28.444   4.580
 5707W        W78033  43.995  11.114  13.775
 5708W        W78034  11.062   3.158   1.504
 5709W        W78035  20.764  22.750  14.568
 5710W        W78036  21.172  13.221   0.772
 5711W        W78037  26.747   9.781  10.605
 5712W        W78038  24.358  23.070   4.005
 5713W        W78039   1.090   7.231  13.415
 5714W        W78040  12.683  10.702  14.255
 5715W        W78041  39.603  28.935  12.079
 5716W        W78042  11.878  11.278  11.939
 5717W        W78043  15.548  31.388   0.806
 5718W        W78044  26.152  17.143   0.811
 5719W        W78045  27.526  29.377  12.624
 5720W        W78046  28.584  31.719   4.561
 5721W        W78047  32.464  12.136  12.953
 5722W        W78048  32.455   3.169   3.284
 5723W        W78049   7.274  18.446  11.375
 5724W        W78050   1.946   9.869   4.149
 5725W        W78051  38.819   3.196   1.994
 5726W        W78052  13.382   9.876   3.574
 5727W        W78053  44.349  42.460  11.496
 5728W        W78054   7.210  18.727  12.833
 5729W        W78055   3.883  34.422  14.960
 5730W        W78056  11.757  27.047  14.221
 5731W        W78057  36.032   0.651   0.475
 5732W        W78058   8.303  16.158  13.830
 5733W        W78059  17.856  42.319  14.872
 5734W        W78060  34.033  36.282  12.500
 5735W        W78061  26.155  42.087   2.870
 5736W        W78062  12.171   9.833  12.342
 5737W        W78063  41.611  33.009   1.744
 5738W        W78064  21.617   0.691  12.072
 5739W        W78065   8.767  19.799  11.901
 5740W        W78066  21.634  13.642   1.860
 5741W        W78067  17.520  24.259   4.960
 5742W        W78068   6.727   0.387  14.010
 5743W        W78069  14.580  24.240  11.014
 5744W        W78070  44.787  29.634   4.151
 5745W        W78071  29.824  40.009   0.530
 5746W        W78072   7.211   2.773   4.895
 5747W        W78073  38.509  23.701   0.048
 5748W        W78074   9.997   8.931   2.270
 5749W        W78075  11.214  25.942   1.985
 5750W        W78076  11.233  22.459  14.279
 5751W        W78077  19.789  24.610   4.587
 5752W        W78078   7.572  33.436  10.670
 5753W        W78079   1.656  21.167   5.433
 5754W        W78080  23.949  36.636  14.011
 5755W        W78081  13.097  31.384  13.927
 5756W        W78082  27.067   0.208   2.461
 5757W        W78083  40.476  37.393   0.454
 5758W        W78084  33.670   4.184   0.042
 5759W        W78085  30.106  41.320  10.716
 5760W        W78086   0.507  28.245   2.832
 5761W        W78087   5.933  38.960  13.678
 5762W        W78088  29.082   1.307  14.412
 5763W        W78089  24.736  16.119  10.212
 5764W        W78090  30.628  20.052  14.853
 5765W        W78091  44.395   9.069  12.964
 5766W        W78092  26.464  14.760  11.287
 5767W        W78093  11.613  30.589  11.218
 5768W        W78094  43.736  34.680   2.966
 5769W        W78095   4.840  41.841   2.636
 5770W        W78096  42.315  38.988   2.934
 5771W        W78097  29.948  20.074   4.083
 5772W        W78098   0.960   7.055   2.762
 5773W        W78099   7.952  25.164   9.998
 5774W        W78100  29.671  37.625   1.345
 5775W        W78101   1.795  24.858  13.848
 5776W        W78102  35.298  27.205   3.888
 5777W        W78103   4.868  36.614   0.083
 5778W        W78104  33.130   1.440   1.691
 5779W        W78105   5.680  39.852   2.766
 5780W        W78106  41.344  14.334   0.817
 5781W        W78107  41.354  16.759  11.466
 5782W        W78108  37.570  16.691   2.417
 5783W        W78109   5.058  19.504   3.633
 5784W        W78110  21.918  24.704   0.360
 5785W        W78111  29.009  21.773  13.827
 5786W        W78112  27.022  41.984  11.411
 5787W        W78113  22.977  44.553   1.950
 5788W        W78114  42.677  26.606   1.772
 5789W        W78115  44.492  25.131  12.968
 5790W        W78116   3.354  43.030  11.194
 5791W        W78117  36.560  15.318  13.407
 5792W        W78118  18.774  31.530   0.497
 5793W        W78119  13.747  20.860  12.974
 5794W        W78120  43.485   3.058   3.945
 5795W        W78121  27.620   7.246   1.500
 5796W        W78122  16.465  37.916   4.998
 5797W        W78123  26.148  31.309   4.247
 5798W        W78124  39.181  35.070   2.719
 5799W        W78125   3.129  38.384   2.895
 5800W        W78126   2.454  43.898   0.876
 5801W        W78127  15.248   2.929   0.766
 5802W        W78128  28.268  39.576  12.874
 5803W        W78129  42.026  24.483  13.612
 5804W        W78130   5.335  18.259  13.977
 5805W        W78131  10.912   6.232   1.830
 5806W        W78132   2.920  22.934  13.439
 5807W        W78133   8.177  43.041   4.832
 5808W        W78134   8.821  34.882   0.804
 5809W        W78135  44.093   7.414   0.004
 5810W        W78136  25.603  33.834  10.738
 5811W        W78137   2.837  26.619   0.926
 5812W        W78138  40.683   2.200  14.478
 5813W        W78139   4.616  15.479   0.988
 5814W        W78140   9.660  18.781  12.576
 5815W        W78141  32.611  28.385   4.730
 5816W        W78142   9.703  40.468   4.371
 5817W        W78143  18.517  25.149   0.911
 5818W        W78144  39.846  23.253   2.203
 5819W        W78145   4.697   6.923  11.182
 5820W        W78146  15.473   1.523  12.030
 5821W        W78147  20.012  31.129   1.130
 5822W        W78148  12.365  10.771  13.451
 5823W        W78149  31.798  11.428   5.081
 5824W        W78150  32.522  36.981   1.014
 5825W        W78151  42.590  38.885  11.152
 5826W        W78152  32.459  33.995   1.417
 5827W        W78153  42.960  22.280   3.382
 5828W        W78154  25.927   0.031   0.899
 5829W        W78155  35.395  35.019   4.570
 5830W        W78156  24.588  20.129   4.459
 5831W        W78157  20.426  10.148  13.376
 5832W        W78158  27.575  26.742   3.317
 5833W        W78159  16.186  14.317  12.366
 5834W        W78160  36.277  38.318   2.666
 5835W        W78161   4.154   3.950   5.461
 5836W        W78162  22.556   9.789   3.613
 5837W        W78163  15.551  13.846   4.172
 5838W        W78164  20.282  27.139  11.162
 5839W        W78165  16.865  18.242  14.062
 5840W        W78166  44.680  31.460   2.979
 5841W        W78167   4.473  10.869   4.661
 5842W        W78168  37.914   4.816   0.686
 5843W        W78169  23.435  21.964  11.906
 5844W        W78170   7.265  30.522   1.031
 5845W        W78171  41.173  12.088   0.289
 5846W        W78172  35.336   9.087  10.790
 5847W        W78173  18.322  41.750  11.751
 5848W        W78174   7.257  22.911   0.907
 5849W        W78175  34.282  10.803  11.683
 5850W        W78176   6.646  19.682   2.837
 5851W        W78177  35.488   6.034  14.015
 5852W        W78178  27.396  43.742  10.774
 5853W        W78179  17.296  10.192   5.068
 5854W        W78180   4.512  37.951  13.672
 5855W        W78181   1.567  34.415   1.171
 5856W        W78182  43.331   8.557  11.739
 5857W        W78183  23.690  37.821  14.198
 5858W        W78184  12.678   2.527  12.579
 5859W        W78185   3.721  34.535   0.882
 5860W        W78186  36.457  29.903   3.021
 5861W        W78187   3.368  41.624  12.429
 5862W        W78188  32.423  42.552  12.973
 5863W        W78189  28.439  30.170  11.518
 5864W        W78190  32.378   5.853   0.794
 5865W        W78191   1.440   0.218  12.817
 5866W        W78192  25.470  32.891  14.458
 5867W        W78193  29.902  32.797  14.976
 5868W        W78194  39.110  18.715   3.666
 5869W        W78195  19.254   9.677   0.708
 5870W        W78196  20.290  28.470   0.344
 5871W        W78197   6.317  13.159   4.164
 5872W        W78198  35.469  42.929   0.246
 5873W        W78199   1.217  12.213   1.775
 5874W        W78200  44.336  36.921   0.904
 5875W        W78201   7.219  39.415   4.473
 5876W        W78202  25.746   4.869   1.543
 5877W        W78203   6.326  29.129   2.347
 5878W        W78204  22.023  26.531   2.998
 5879W        W78205  21.466   3.037  11.999
 5880W        W78206  10.863  39.982   2.271
 5881W        W78207   5.133  20.085  13.811
 5882W        W78208   3.022  40.170   1.020
 5883W        W78209  41.307  16.699   0.484
 5884W        W78210  37.502  22.472  13.995
 5885W        W78211  15.835   9.874  14.004
 5886W        W78212  40.653  22.152   2.380
 5887W        W78213   0.723  12.397  14.271
 5888W        W78214  44.600  11.177  14.406
 5889W        W78215  37.619  35.896  12.943
 5890W        W78216  26.112   3.235  14.874
 5891W        W78217  12.357  40.953   3.142
 5892W        W78218   7.711  38.577   1.910
 5893W        W78219   5.086   4.197  11.070
 5894W        W78220  44.008  43.822  14.845
 5895W        W78221  44.283   4.779  11.990
 5896W        W78222  10.578  40.374  13.829
 5897W        W78223  44.803   2.878   0.107
 5898W        W78224  25.247  14.188   0.723
 5899W        W78225  38.588  28.689   2.369
 5900W        W78226  14.555   9.143  11.508
 5901W        W78227  37.716  15.569   1.434
 5902W        W78228  41.297   3.864  11.285
 5903W        W78229  37.429  29.450   1.833
 5904W        W78230  13.773  18.012  10.367
 5905W        W78231  13.408  42.244  14.817
 5906W        W78232   8.608  27.061   3.169
 5907W        W78233  10.271  14.127   3.077
 5908W        W78234  25.961  32.521  10.603
 5909W        W78235  29.877  44.694   0.255
 5910W        W78236  34.353  32.884   1.871
 5911W        W78237  41.788   6.779  14.341
 5912W        W78238  28.558   6.893  13.940
 5913W        W78239  21.263  22.192   1.825
 5914W        W78240   3.385  17.785   3.924
 5915W        W78241   3.369  18.629   4.469
 5916W        W78242  44.990  33.428  11.830
 5917W        W78243  14.601  26.544   2.888
 5918W        W78244  36.756  27.647  11.120
 5919W        W78245  38.078   6.420   0.360
 5920W        W78246   8.467  21.224  12.510
 5921W        W78247   1.286   9.915  14.972
 5922W        W78248  13.397  36.970  10.439
 5923W        W78249  36.610   1.009  10.678
 5924W        W78250  12.816  19.749  12.010
 5925W        W78251  32.570  17.811   1.371
 5926W        W78252  26.478  27.210   9.641
 5927W        W78253   2.239  25.589   1.899
 5928W        W78254  23.223  36.478   4.296
 5929W        W78255   1.224   6.767   0.267
 5930W        W78256  42.985  40.988   3.227
 5931W        W78257  38.075   4.904  10.703
 5932W        W78258   5.772  12.096  10.811
 5933W        W78259  20.614   2.538  11.894
 5934W        W78260  32.078   8.305  12.934
 5935W        W78261   1.247  29.341   3.423
 5936W        W78262   3.472  36.007   2.644
 5937W        W78263  28.479  36.177   2.737
 5938W        W78264  11.882  27.996  14.753
 5939W        W78265  10.991  35.119   3.001
 5940W        W78266  31.543  16.107  14.243
 5941W        W78267  41.979  26.526   2.254
 5942W        W78268  22.838  22.492   3.171
 5943W        W78269  43.774  23.536  13.929
 5944W        W78270   7.936  44.527   2.250
 5945W        W78271  32.352  42.767  11.616
 5946W        W78272  12.769  27.518   3.132
 5947W        W78273  44.385  14.333  11.139
 5948W        W78274  21.607   8.840   3.189
 5949W        W78275  39.804  35.620   4.668
 5950W        W78276   9.369   9.630  11.946
 5951W        W78277  24.643  43.984   0.791
 5952W        W78278  31.204   7.795   2.273
 5953W        W78279  25.272  43.982  13.468
 5954W        W78280  20.078   3.267  14.229
 5955W        W78281   8.968  10.633  13.227
 5956W        W78282  14.893   0.383   1.449
 5957W        W78283  13.847  25.664  10.966
 5958W        W78284  38.934   8.443  13.295
 5959W        W78285  26.181  19.505   1.353
 5960W        W78286  10.276  34.075  11.896
 5961W        W78287  19.953   9.519   1.266
 5962W        W78288  10.665  36.653  11.614
 5963W        W78289  40.106  20.132  12.509
 5964W        W78290  44.757  10.970  11.628
 5965W        W78291  25.954  12.829   1.593
 5966W        W78292  29.680  24.639  12.248
 5967W        W78293  22.751  27.281   4.163
 5968W        W78294  44.976  41.112   3.019
 5969W        W78295  12.437  16.738   2.177
 5970W        W78296  11.113  10.233   3.287
 5971W        W78297   7.924  29.751  12.977
 5972W        W78298  13.624   3.018   1.946
 5973W        W78299  43.807  20.293  13.426
 5974W        W78300  39.113  38.643  13.463
 5975W        W78301  33.187   1.662   1.221
 5976W        W78302  29.102  10.869   1.326
 5977W        W78303   9.108  29.503   4.968
 5978W        W78304  39.632  26.226  12.966
 5979W        W78305   1.362   6.154  14.871
 5980W        W78306  29.581  24.499  14.057
 5981W        W78307  28.193   4.934   2.791
 5982W        W78308  24.716  12.367  14.889
 5983W        W78309  17.318  26.064   4.162
 5984W        W78310  33.097  28.057   3.579
 5985W        W78311  22.407  32.895  13.423
 5986W        W78312   4.683   8.475  13.001
 5987W        W78313   9.823  14.411  11.475
 5988W        W78314  23.197  20.197   4.334
 5989W        W78315  24.895  18.152   4.671
 5990W        W78316   5.834  12.386   4.324
 5991W        W78317  43.469  38.592   1.559
 5992W        W78318   9.438   4.231  13.492
 5993W        W78319  21.415  18.276   3.113
 5994W        W78320   7.016   8.933   4.658
 5995W        W78321  44.024  19.612   3.752
 5996W        W78322  27.287  23.014   4.476
 5997W        W78323  17.792  15.861   4.505
 5998W        W78324  22.464  32.371   3.266
 5999W        W78325  28.265  13.532  14.997
 6000W        W78326  38.829  35.920   0.398
 6001W        W78327  30.249  21.786  11.006
 6002W        W78328  33.566  13.039   1.326
 6003W        W78329  15.247  36.068  10.290
 6004W        W78330  15.263  37.341   0.408
 6005W        W78331  44.324   5.682   2.353
 6006W        W78332   6.915  24.786  11.426
 6007W        W78333   7.159  15.707  13.952
 6008W        W78334  13.723  15.348   4.158
 6009W        W78335  39.748  26.922  13.601
 6010W        W78336  12.229   3.920  10.680
 6011W        W78337  44.068  22.808  14.835
 6012W        W78338  43.311  23.168  14.780
 6013W        W78339  11.462  11.238   0.930
 6014W        W78340  34.951   2.779   4.584
 6015W        W78341  33.130  22.610  11.629
 6016W        W78342  10.824  21.484   3.128
 6017W        W78343  22.989  29.822   1.877
 6018W        W78344  41.063  26.565  12.032
 6019W        W78345   4.634  24.511   3.773
 6020W        W78346  21.038  26.185   0.332
 6021W        W78347  10.286  12.313  13.014
 6022W        W78348  22.973   4.262   0.860
 6023W        W78349   3.601  10.426   1.500
 6024W        W78350   0.036  26.232  11.609
 6025W        W78351  29.472  15.918  10.435
 6026W        W78352  44.344  26.137   3.097
 6027W        W78353  36.997  39.817  10.625
 6028W        W78354   8.368  36.481  12.079
 6029W        W78355  24.223  21.029  11.118
 6030W        W78356  29.934   0.501  13.489
 6031W        W78357   0.443  38.111  10.799
 6032W        W78358   7.170  37.332  11.938
 6033W        W78359  11.646  25.580  13.248
 6034W        W78360  10.482  40.598   1.733
 6035W        W78361  20.204  28.971  11.244
 6036W        W78362  26.020  30.176   4.561
 6037W        W78363   7.290  14.185   0.828
 6038W        W78364   9.349   4.845  10.631
 6039W        W78365  19.977  13.935  13.003
 6040W        W78366  21.653  11.300   2.150
 6041W        W78367   5.484   7.202   2.683
 6042W        W78368  39.031  23.260   1.094
 6043W        W78369  39.363  20.515  14.398
 6044W        W78370  12.597  40.039  14.813
 6045W        W78371  31.447  28.570   0.741
 6046W        W78372  11.900  18.562   2.017
 6047W        W78373  34.563  26.704  14.560
 6048W        W78374  23.445  40.755   3.885
 6049W        W78375  12.120  23.021   3.644
 6050W        W78376  13.742   1.631   4.183
 6051W        W78377  37.164  14.048   3.665
 6052W        W78378  22.719  32.176  11.652
 6053W        W78379  30.640  38.888  11.112
 6054W        W78380  33.487  35.299  14.482
 6055W        W78381  38.015   3.032   1.221
 6056W        W78382  40.984  40.520   2.499
 6057W        W78383  18.324  24.994   4.148
 6058W        W78384  14.255  36.372   1.916
 6059W        W78385  42.558  26.514  12.886
 6060W        W78386   1.762  14.133  13.429
 6061W        W78387   1.967  25.701  12.551
 6062W        W78388  27.519   4.083  14.840
 6063W        W78389  11.188  35.033   2.530
 6064W        W78390   1.553  16.855  14.890
 6065W        W78391  24.532  16.965  14.486
 6066W        W78392  33.921  30.599   3.098
 6067W        W78393  40.321  16.381   0.692
 6068W        W78394  20.237   1.284  14.246
 6069W        W78395  20.034  16.536   0.524
 6070W        W78396   9.385   6.846   4.391
 6071W        W78397  40.951  18.823   2.766
 6072W        W78398  39.585  20.563   2.092
 6073W        W78399  30.530   6.709  14.995
 6074W        W78400  12.358   4.931  14.867
 6075W        W78401   7.354   8.954   4.036
 6076W        W78402  26.529   3.033   3.632
 6077W        W78403  32.650  12.858  13.577
 6078W        W78404  22.740   3.804   0.788
 6079W        W78405  26.990   5.358  13.004
 6080W        W78406  16.729  36.990   4.837
 6081W        W78407  36.062  22.983  11.122
 6082W        W78408  16.684  38.665  10.778
 6083W        W78409  16.869  12.661  11.066
 6084W        W78410  15.389  12.410   1.471
 6085W        W78411   0.928  29.615   3.113
 6086W        W78412   0.330  18.135   0.427
 6087W        W78413   7.668  11.200   2.884
 6088W        W78414  22.742   3.263   4.211
 6089W        W78415  19.707  26.894   2.829
 6090W        W78416   5.008   9.692  13.878
 6091W        W78417  30.882  31.000  14.296
 6092W        W78418   1.760  37.566   0.166
 6093W        W78419  23.756  38.109   4.163
 6094W        W78420  43.808  19.680  12.450
 6095W        W78421  22.090  21.728   1.820
 6096W        W78422  10.190   9.290  13.756
 6097W        W78423  11.487   1.218  14.346
 6098W        W78424  19.186  28.451  13.142
 6099W        W78425  15.439   5.585  10.260
 6100W        W78426  22.914  39.919   2.444
 6101W        W78427  28.829  33.386  11.608
 6102W        W78428   7.101  27.937  10.978
 6103W        W78429  19.225   8.863  12.899
 6104W        W78430  14.914   3.905  14.352
 6105W        W78431   0.890   0.936  11.998
 6106W        W78432  36.596  31.986  10.707
 6107W        W78433  35.839  23.074  13.805
 6108W        W78434   0.767  29.466  11.872
 6109W        W78435  14.179  24.571   9.810
 6110W        W78436  30.924  24.006  11.031
 6111W        W78437   0.481  13.205   3.835
 6112W        W78438  28.580  25.702   0.928
 6113W        W78439  28.920   1.825   1.463
 6114W        W78440   0.343  30.484  14.788
 6115W        W78441  13.259  42.201  11.658
 6116W        W78442  38.031  14.131   2.103
 6117W        W78443  44.861  12.801  13.169
 6118W        W78444  12.989  30.628  11.102
 6119W        W78445   7.334  22.641   0.237
 6120W        W78446  25.008  25.255  14.762
 6121W        W78447  16.051   6.789  14.561
 6122W        W78448  11.663  42.553   2.138
 6123W        W78449  34.391  40.751   0.271
 6124W        W78450  31.064  22.793   0.303
 6125W        W78451   3.899   9.782   1.046
 6126W        W78452  15.391  17.534  13.412
 6127W        W78453   1.345   7.396   3.233
 6128W        W78454  26.000   2.758  14.684
 6129W        W78455  35.668  40.652   2.708
 6130W        W78456   2.424  17.025  10.169
 6131W        W78457   0.904  40.778  11.330
 6132W        W78458   3.503  19.984   0.404
 6133W        W78459  35.813  41.795   0.752
 6134W        W78460  28.975  24.472  12.955
 6135W        W78461   3.876  19.112  10.628
 6136W        W78462  24.313   6.766   0.267
 6137W        W78463  41.760  28.410   0.278
 6138W        W78464   6.426  31.777   3.226
 6139W        W78465  35.511  27.552  14.069
 6140W        W78466  15.699  10.474  14.332
 6141W        W78467  15.612  32.615   3.003
 6142W        W78468  28.175   1.675  11.257
 6143W        W78469  22.093  13.056   1.585
 6144W        W78470   2.375  44.575   4.231
 6145W        W78471  21.188  24.615   2.230
 6146W        W78472   1.200  13.205   0.798
 6147W        W78473   8.760  18.987   4.198
 6148W        W78474   7.795  10.123  12.085
 6149W        W78475   0.464   0.083   0.148
 6150W        W78476  21.754  40.586   3.426
 6151W        W78477  28.061  19.080   3.979
 6152W        W78478  43.322  14.353   0.874
 6153W        W78479  28.173   4.410  12.944
 6154W        W78480  32.908  10.213   0.301
 6155W        W78481  25.246   7.377  13.851
 6156W        W78482  33.360   4.770  12.998
 6157W        W78483  18.230   4.374   1.746
 6158W        W78484  28.061  27.978  14.448
 6159W        W78485  34.396  37.128  12.457
 6160W        W78486  10.186   6.375   4.157
 6161W        W78487  34.871  41.777   1.760
 6162W        W78488  18.091  30.366   0.758
 6163W        W78489   5.667  30.748  14.116
 6164W        W78490  35.929  16.302  13.884
 6165W        W78491  33.413  13.983  12.546
 6166W        W78492  28.028  20.193  12.447
 6167W        W78493  34.885  26.954  13.324
 6168W        W78494  12.936  18.512  11.591
 6169W        W78495  13.891  20.126   3.276
 6170W        W78496   4.540  40.527   4.803
 6171W        W78497   0.254  22.562  12.313
 6172W        W78498  17.986   5.825   1.363
 6173W        W78499  18.150  38.184   2.725
 6174W        W78500   9.581  23.974  14.989
 6175W        W78501  44.577  20.184  11.108
 6176W        W78502   2.768   6.816   1.306
 6177W        W78503  26.609  22.797   4.924
 6178W        W78504  20.896  14.701   1.631
 6179W        W78505   8.333  36.982  11.917
 6180W        W78506  29.687  13.245   0.844
 6181W        W78507  23.034  23.049   1.744
 6182W        W78508  25.664  42.556  14.417
 6183W        W78509  17.614  14.569   1.214
 6184W        W78510  10.855  32.135  12.038
 6185W        W78511  36.614  14.208   4.643
 6186W        W78512  17.602  18.764  14.231
 6187W        W78513  19.013  15.339   2.171
 6188W        W78514  29.176  32.005  10.683
 6189W        W78515  24.947  37.310  13.568
 6190W        W78516  39.648  40.482  14.283
 6191W        W78517  20.334  31.297   3.312
 6192W        W78518  14.820  44.243   4.695
 6193W        W78519  43.009  38.912  12.506
 6194W        W78520  42.919   4.474  12.923
 6195W        W78521  37.038  40.318  10.689
 6196W        W78522   2.634  24.636  12.143
 6197W        W78523  17.106  13.234  14.391
 6198W        W78524  26.779  31.893  12.165
 6199W        W78525  15.103  32.581   0.040
 6200W        W78526   3.224  41.864  13.450
 6201W        W78527  27.414  33.849  11.140
 6202W        W78528  40.407  29.616   0.828
 6203W        W78529  26.288  23.527  10.719
 6204W        W78530  19.742  38.763  10.982
 6205W        W78531  17.076   8.790  10.056
 6206W        W78532  28.906  25.448   3.350
 6207W        W78533  11.719  31.570   1.279
 6208W        W78534  30.867   4.848   1.997
 6209W        W78535  33.124  18.592  12.461
 6210W        W78536   3.400  30.114  12.498
 6211W        W78537  12.594  36.893   5.180
 6212W        W78538   6.525  11.603  13.933
 6213W        W78539  16.976   4.667  10.743
 6214W        W78540  24.085  25.486   4.603
 6215W        W78541  27.656  18.152   1.892
 6216W        W78542   7.126  10.896   1.195
 6217W        W78543  16.621  35.094   1.146
 6218W        W78544   0.419  23.266  12.837
 6219W        W78545  15.777  14.788  14.779
 6220W        W78546  12.699   5.690   3.688
 6221W        W78547  37.582   0.391   2.931
 6222W        W78548  26.821  16.390   9.976
 6223W        W78549  23.217  37.479   5.267
 6224W        W78550  33.156  36.110  13.402
 6225W        W78551  19.161  22.503  12.361
 6226W        W78552  19.721  40.459   5.178
 6227W        W78553  24.191  31.847   3.648
 6228W        W78554   9.287  23.009  11.533
 6229W        W78555  19.621  16.611   1.221
 6230W        W78556  34.387   3.288  14.298
 6231W        W78557   1.339  22.956   2.253
 6232W        W78558  32.603  39.793   2.879
 6233W        W78559  19.587  17.299   0.360
 6234W        W78560   3.438  25.075   4.883
 6235W        W78561  39.869  34.480  12.448
 6236W        W78562  22.153  42.614  11.779
 6237W        W78563  21.009   5.694   4.131
 6238W        W78564  32.441  32.333   2.804
 6239W        W78565  29.465   0.806   4.169
 6240W        W78566  27.378  32.112   3.139
 6241W        W78567  10.615  44.301   1.781
 6242W        W78568  39.803   0.442   4.115
 6243W        W78569  43.363   8.574   0.317
 6244W        W78570   6.006  32.345   2.646
 6245W        W78571  20.503   8.125   3.419
 6246W        W78572  25.641  13.697  13.144
 6247W        W78573  25.573  43.514   1.218
 6248W        W78574   7.158  43.479   3.179
 6249W        W78575  23.098  22.030   2.197
 6250W        W78576  37.362  10.635   3.778
 6251W        W78577  18.751   2.735   1.323
 6252W        W78578  22.150  34.341  12.013
 6253W        W78579  34.425  17.579  14.771
 6254W        W78580  24.986   0.694  12.991
 6255W        W78581  38.545  36.414   0.829
 6256W        W78582  27.808  21.686  11.492
 6257W        W78583  36.797  29.158  13.300
 6258W        W78584   1.397  19.696   0.032
 6259W        W78585  18.958  21.292  11.033
 6260W        W78586  25.410  30.914   1.736
 6261W        W78587  40.085  21.528  14.000
 6262W        W78588  17.585  18.714   2.625
 6263W        W78589   3.932  27.483   0.872
 6264W        W78590  12.194  23.921  13.915
 6265W        W78591  40.894  20.284   1.010
 6266W        W78592  33.664  37.416   4.147
 6267W        W78593  28.133   7.564   1.716
 6268W        W78594  13.578  33.390   4.628
 6269W        W78595  24.697  34.960   3.196
 6270W        W78596  25.007  18.700   0.223
 6271W        W78597  16.564   9.765   0.834
 6272W        W78598  38.416  39.930   4.567
 6273W        W78599  19.738  31.031  12.622
 6274W        W78600  11.895   5.809  11.206
 6275W        W78601  12.097  14.331   2.408
 6276W        W78602  19.870  37.267  13.436
 6277W        W78603  29.971  16.565  13.980
 6278W        W78604   1.398  28.668  11.105
 6279W        W78605   6.628  38.373   1.386
 6280W        W78606  21.124  12.535  10.739
 6281W        W78607  29.876  11.554   5.135
 6282W        W78608   3.516  20.070   2.638
 6283W        W78609  14.728  19.816   3.671
 6284W        W78610  31.507  19.705   4.708
 6285W        W78611   0.421   8.511   1.291
 6286W        W78612   7.220   5.473  12.915
 6287W        W78613  19.222  40.075   1.371
 6288W        W78614  16.598  18.301  13.316
 6289W        W78615  42.731  39.361   4.100
 6290W        W78616  26.987  14.238   1.810
 6291W        W78617   9.416  43.865   4.487
 6292W        W78618  41.452  43.289   1.651
 6293W        W78619  26.811  44.176  11.507
 6294W        W78620  19.735  15.168   2.868
 6295W        W78621  29.379  12.865  13.919
 6296W        W78622  26.452  41.333  13.299
 6297W        W78623  11.339  21.728  12.934
 6298W        W78624  21.505  19.845  13.252
 6299W        W78625  11.230  27.518  11.595
 6300W        W78626  10.870  16.643   4.514
 6301W        W78627  20.133  29.159  14.980
 6302W        W78628  37.474  35.895   3.903
 6303W        W78629  24.410   9.821   2.761
 6304W        W78630  36.369  39.285   3.971
 6305W        W78631   2.337  37.371  12.560
 6306W        W78632  34.195   2.098   0.715
 6307W        W78633  24.319  14.589  12.932
 6308W        W78634  24.051  38.906  11.610
 6309W        W78635  22.190  27.605   1.133
 6310W        W78636  24.765  10.370   0.423
 6311W        W78637   4.707  43.486  14.239
 6312W        W78638   9.884  23.720   1.141
 6313W        W78639  17.589  18.737  10.703
 6314W        W78640   7.975  38.861   4.584
 6315W        W78641   1.290  22.634   2.675
 6316W        W78642  31.599   8.648   3.660
 6317W        W78643  11.339  19.978   4.829
 6318W        W78644  21.545  12.864  14.551
 6319W        W78645  34.509  32.977  10.296
 6320W        W78646  14.187   4.815   4.816
 6321W        W78647  28.022  40.530  14.896
 6322W        W78648   5.908  17.137   4.330
 6323W        W78649  44.447  25.277   1.629
 6324W        W78650  31.883  44.481  14.394
 6325W        W78651  39.227  19.572  11.545
 6326W        W78652  44.563  15.822   4.736
 6327W        W78653  43.745  36.949   3.137
 6328W        W78654  32.425  25.793  10.424
 6329W        W78655  38.550  15.597   0.920
 6330W        W78656  36.328  41.779  14.824
 6331W        W78657  41.471  36.305  10.879
 6332W        W78658  17.690  21.586   3.316
 6333W        W78659  16.706  13.629  12.548
 6334W        W78660  40.566   1.753  10.317
 6335W        W78661  32.497   7.422   3.794
 6336W        W78662   0.628  30.029   3.821
 6337W        W78663   9.916  35.799   3.913
 6338W        W78664  27.280  40.100  10.652
 6339W        W78665  33.605   4.773  14.468
 6340W        W78666  37.555  26.484  10.380
 6341W        W78667  33.196  38.301   0.360
 6342W        W78668  12.255  26.942  11.405
 6343W        W78669  43.451  39.403  11.069
 6344W        W78670  25.267  16.537  14.532
 6345W        W78671  11.210  19.444  11.380
 6346W        W78672   1.531  20.095  13.322
 6347W        W78673  19.706  12.853   4.079
 6348W        W78674  27.243  44.576   4.692
 6349W        W78675  24.914  15.820  10.584
 6350W        W78676   3.386  16.329   2.231
 6351W        W78677  22.975  24.127   4.693
 6352W        W78678  20.875  43.773  10.225
 6353W        W78679  31.261  16.554  13.149
 6354W        W78680  17.347   2.137   4.549
 6355W        W78681  36.889  34.889   1.398
 6356W        W78682  42.484  25.442   0.772
 6357W        W78683  10.173   3.253  14.323
 6358W        W78684  18.080  10.102  14.205
 6359W        W78685  16.312  36.401   1.769
 6360W        W78686  19.053  35.809   1.396
 6361W        W78687   6.984  36.920   2.936
 6362W        W78688   7.801  31.906  14.036
 6363W        W78689  24.650  41.846   3.658
 6364W        W78690   2.630  26.238  14.147
 6365W        W78691  28.246  18.856   3.049
 6366W        W78692  43.914   9.276   4.266
 6367W        W78693  32.223  27.026   2.295
 6368W        W78694  41.499  35.936  12.423
 6369W        W78695  25.180  39.441  14.814
 6370W        W78696   6.754   1.552   2.725
 6371W        W78697  19.291  10.681  12.810
 6372W        W78698  17.447   7.327  10.653
 6373W        W78699  18.742  17.685   1.207
 6374W        W78700   2.208  35.056   3.453
 6375W        W78701  41.111   0.484   1.229
 6376W        W78702  41.683  34.705  11.141
 6377W        W78703  36.572  43.577   1.303
 6378W        W78704  19.626  43.021   0.752
 6379W        W78705  14.671  27.445   1.370
 6380W        W78706  17.581  15.131  11.476
 6381W        W78707  12.182  38.592  14.070
 6382W        W78708   8.436  14.604   1.280
 6383W        W78709  29.581  22.584   1.399
 6384W        W78710  42.563  14.173   2.628
 6385W        W78711  18.806   8.374  13.921
 6386W        W78712  41.997  15.662   4.580
 6387W        W78713  31.986  38.206  12.007
 6388W        W78714   2.290  19.913  13.700
 6389W        W78715   3.650  44.562  13.435
 6390W        W78716  25.101  44.374   1.842
 6391W        W78717  22.120   0.744   0.496
 6392W        W78718   1.398  39.504  10.955
 6393W        W78719  24.610  37.844   2.917
 6394W        W78720  28.021  12.150   1.741
 6395W        W78721  39.800   7.551  13.804
 6396W        W78722  42.329  36.845   4.639
 6397W        W78723   0.238  29.905   2.570
 6398W        W78724  36.595  37.035  10.769
 6399W        W78725  27.639  15.260   4.378
 6400W        W78726  29.064   2.768  14.315
 6401W        W78727  19.720  21.230   4.163
 6402W        W78728  34.311   0.039   4.295
 6403W        W78729  14.581  20.242   1.431
 6404W        W78730  20.705   9.007  11.187
 6405W        W78731  12.328  43.169   1.794
 6406W        W78732  10.561  32.507   4.645
 6407W        W78733  36.014  34.570  14.523
 6408W        W78734  40.740  24.559  12.914
 6409W        W78735  37.251  34.180   3.689
 6410W        W78736   4.828   3.934  10.527
 6411W        W78737   7.196   3.357  12.715
 6412W        W78738  27.480  30.358   0.126
 6413W        W78739  20.518   3.701   0.200
 6414W        W78740  34.498  21.829  10.472
 6415W        W78741  43.566  33.113   4.915
 6416W        W78742  36.472  15.309   2.592
 6417W        W78743   1.936  44.292   4.167
 6418W        W78744  12.219  35.025  11.578
 6419W        W78745  26.725  13.156   0.736
 6420W        W78746   7.781   3.727   3.206
 6421W        W78747  27.517   2.497  11.886
 6422W        W78748   7.109  31.514  12.330
 6423W        W78749  26.335  27.727  10.319
 6424W        W78750  34.790  27.375   1.780
 6425W        W78751  17.261   7.350  13.772
 6426W        W78752  37.558  19.727   2.031
 6427W        W78753  29.480  42.238  12.964
 6428W        W78754  19.483  37.380  13.127
 6429W        W78755   9.924  21.003   2.317
 6430W        W78756  20.751  19.305  14.933
 6431W        W78757  35.889  18.439  10.732
 6432W        W78758  32.612  35.671  14.363
 6433W        W78759  32.457  26.526   2.244
 6434W        W78760  12.662  38.876   0.793
 6435W        W78761   8.245  44.886  13.731
 6436W        W78762   9.831  28.181   1.161
 6437W        W78763  43.217  35.049   0.730
 6438W        W78764  11.675  19.314  14.757
 6439W        W78765   2.592  13.584  12.097
 6440W        W78766  33.119  24.432   3.730
 6441W        W78767  16.035  21.729  11.737
 6442W        W78768  42.343   1.819  13.772
 6443W        W78769  40.317  14.452   2.232
 6444W        W78770  12.871  25.177   0.231
 6445W        W78771  27.565  35.484   3.074
 6446W        W78772  14.480   9.942  11.940
 6447W        W78773  19.707   3.752  14.767
 6448W        W78774  41.898   0.195  11.127
 6449W        W78775  35.610  30.138  10.693
 6450W        W78776  19.337  25.552   3.144
 6451W        W78777  37.975  11.759   3.434
 6452W        W78778  30.241  23.820   2.787
 6453W        W78779   7.855   0.362   0.908
 6454W        W78780  34.646  18.046  13.515
 6455W        W78781  21.593  13.121   0.458
 6456W        W78782  25.722  39.457  10.988
 6457W        W78783  11.916   8.411   3.101
 6458W        W78784  31.820  15.353  12.933
 6459W        W78785  14.629  15.334   1.192
 6460W        W78786  42.830  34.517   4.719
 6461W        W78787  17.507  33.874  12.528
 6462W        W78788  12.186   1.642   1.304
 6463W        W78789  17.570  28.768  10.549
 6464W        W78790  26.415   5.834   4.199
 6465W        W78791  36.556   6.843   0.046
 6466W        W78792  31.041  34.808   2.271
 6467W        W78793  14.936  10.963   3.402
 6468W        W78794  12.108  28.910   2.859
 6469W        W78795  13.779  10.782   2.198
 6470W        W78796  35.425  12.788   3.245
 6471W        W78797  44.393  40.401   3.684
 6472W        W78798   8.218  27.754   4.218
 6473W        W78799  24.523  28.167  13.382
 6474W        W78800   5.061   5.307  11.438
 6475W        W78801  24.081  35.756  14.850
 6476W        W78802  36.636  31.547  14.292
 6477W        W78803  13.239  36.801   3.109
 6478W        W78804  25.104   9.254  14.491
 6479W        W78805   3.504  33.843   3.794
 6480W        W78806  17.276  34.073  13.918
 6481W        W78807  19.227  22.794   3.228
 6482W        W78808   0.720  43.711  13.903
 6483W        W78809   0.387  37.990  14.024
 6484W        W78810  41.752  22.923   1.888
 6485W        W78811  37.351  27.413  13.799
 6486W        W78812  38.100  25.972   4.035
 6487W        W78813  34.902  41.003   1.340
 6488W        W78814  19.693   2.672   4.228
 6489W        W78815  28.008  20.929  10.214
 6490W        W78816  38.310  38.433  12.929
 6491W        W78817   4.285  19.788   1.125
 6492W        W78818   3.258  19.810  13.891
 6493W        W78819  36.341  14.677  12.772
 6494W        W78820  27.532  34.680  11.521
 6495W        W78821   8.188  22.917  13.932
 6496W        W78822   5.321  17.541  14.402
 6497W        W78823  34.042  11.230   4.602
 6498W        W78824  20.427  17.806   1.806
 6499W        W78825  13.022  17.327   3.704
 6500W        W78826  17.024   1.003  13.373
 6501W        W78827   5.708   8.863   2.310
 6502W        W78828  39.905  12.546  12.856
 6503W        W78829  18.548  44.076  14.816
 6504W        W78830  29.942  23.130   1.386
 6505W        W78831  20.487   9.414  10.966
 6506W        W78832  38.293  29.916   3.730
 6507W        W78833  22.042   3.293  10.431
 6508W        W78834  18.696  18.842  13.530
 6509W        W78835  43.111  33.531  12.920
 6510W        W78836  30.561  36.826   4.446
 6511W        W78837  13.770  32.135   5.063
 6512W        W78838  44.717  21.177   3.235
 6513W        W78839   4.495  34.555   3.303
 6514W        W78840  13.981  21.093  11.076
 6515W        W78841  40.446  17.978   2.853
 6516W        W78842  10.453  42.945  12.675
 6517W        W78843  30.936  14.321  11.876
 6518W        W78844   8.298  27.999   3.747
 6519W        W78845  11.077  44.034  14.517
 6520W        W78846  30.958  40.466  14.428
 6521W        W78847  24.518  23.196   2.290
 6522W        W78848  26.575  32.301   0.939
 6523W        W78849   5.598  32.006  11.493
 6524W        W78850  15.671   8.331   2.018
 6525W        W78851   2.272  31.061  11.078
 6526W        W78852  22.711   2.906   0.828
 6527W        W78853   8.192  44.719   3.337
 6528W        W78854  24.424  20.171  14.519
 6529W        W78855  19.462  43.898  11.678
 6530W        W78856  20.645  43.465  12.437
 6531W        W78857  15.850   4.471  14.295
 6532W        W78858  18.605   0.327  11.743
 6533W        W78859  14.160   9.560  12.391
 6534W        W78860  27.179   4.036   0.539
 6535W        W78861  38.440  11.659   3.725
 6536W        W78862   8.625   1.846  11.025
 6537W        W78863  24.212  39.590  12.464
 6538W        W78864  12.651   7.283  14.767
 6539W        W78865  15.142  15.845  13.319
 6540W        W78866  29.494  41.720   2.275
 6541W        W78867  38.909  33.510  13.474
 6542W        W78868  13.183  25.567  11.076
 6543W        W78869  15.976  18.099  12.093
 6544W        W78870   2.491  16.593  14.577
 6545W        W78871  24.639  14.390  10.691
 6546W        W78872  15.746  26.044   3.054
 6547W        W78873  31.040  22.634   1.505
 6548W        W78874  42.929  22.680  10.686
 6549W        W78875   7.918   5.874  10.558
 6550W        W78876  36.801  26.235   2.663
 6551W        W78877  30.335  34.979   0.336
 6552W        W78878   9.132  31.370  13.577
 6553W        W78879  35.981  41.764   2.751
 6554W        W78880  18.599   7.600  14.225
 6555W        W78881  27.361  40.923  14.308
 6556W        W78882   1.813  31.703  11.045
 6557W        W78883   0.589   4.216   4.242
 6558W        W78884  35.343  36.038   1.878
 6559W        W78885  29.559  33.490   3.170
 6560W        W78886  14.639  25.483  14.646
 6561W        W78887  41.502  40.611  10.648
 6562W        W78888   3.839  29.418   0.853
 6563W        W78889  30.302  43.598  12.524
 6564W        W78890   1.180  23.929  10.699
 6565W        W78891  27.022  27.239  11.990
 6566W        W78892  10.669  10.671  14.708
 6567W        W78893  12.347   7.318  13.862
 6568W        W78894   0.113   7.977  13.047
 6569W        W78895  29.526  33.582  13.542
 6570W        W78896  44.511  10.405  13.218
 6571W        W78897   6.912  39.265  12.927
 6572W        W78898  10.849  16.537  13.319
 6573W        W78899  19.343   2.833  14.997
 6574W        W78900   6.516   7.261   0.473
 6575W        W78901  18.849  14.921  13.773
 6576W        W78902  17.188   4.190  11.986
 6577W        W78903  43.776   6.912   3.319
 6578W        W78904   7.830  34.062  11.062
 6579W        W78905   5.957  36.165   1.249
 6580W        W78906  15.277  35.390  10.651
 6581W        W78907   0.592  15.377   1.466
 6582W        W78908  32.428   0.868  11.815
 6583W        W78909  41.467  18.169  11.063
 6584W        W78910  44.943  14.620  12.544
 6585W        W78911  36.039  28.278  13.970
 6586W        W78912  37.397   5.830   3.564
 6587W        W78913  16.533   6.720  11.430
 6588W        W78914  10.985  28.967   0.961
 6589W        W78915  17.339  22.689   4.484
 6590W        W78916  28.395   6.789   4.309
 6591W        W78917  41.235  43.726  14.879
 6592W        W78918  34.607   0.878  13.969
 6593W        W78919  39.496  19.272   1.343
 6594W        W78920  18.056  11.776  14.016
 6595W        W78921  27.222  26.149   2.337
 6596W        W78922  36.853  24.018   4.716
 6597W        W78923  21.159  17.144  11.088
 6598W        W78924  25.137  10.671  12.505
 6599W        W78925  43.237  43.756   2.410
 6600W        W78926  15.315  16.198   1.193
 6601W        W78927  43.388  17.367   1.275
 6602W        W78928  15.180  36.484   0.219
 6603W        W78929  17.102  12.261   3.828
 6604W        W78930  13.333  41.985  12.966
 6605W        W78931  19.592   3.764  10.677
 6606W        W78932  34.962  27.545   1.305
 6607W        W78933  21.305  36.046  14.457
 6608W        W78934  35.610  31.187   4.499
 6609W        W78935  12.273  26.632  12.322
 6610W        W78936  13.621  12.140   4.174
 6611W        W78937  10.503   7.755   2.200
 6612W        W78938  19.657   9.339   0.843
 6613W        W78939  25.954   2.229   3.862
 6614W        W78940  20.464  29.478   3.711
 6615W        W78941   7.098  14.780  14.959
 6616W        W78942  34.003  42.468  13.456
 6617W        W78943  19.670   3.819   1.406
 6618W        W78944  20.987  19.975  11.114
 6619W        W78945  41.260  13.183  11.211
 6620W        W78946  25.893  36.659   4.186
 6621W        W78947   2.844   0.679  12.647
 6622W        W78948  44.499  20.596  11.482
 6623W        W78949   6.886   4.853  14.048
 6624W        W78950   8.460   8.376  13.459
 6625W        W78951  30.586  31.915   2.504
 6626W        W78952  25.799  43.489  13.008
 6627W        W78953   0.813  17.280  14.542
 6628W        W78954  44.812  39.440   3.660
 6629W        W78955  11.853  35.043  13.954
 6630W        W78956  25.525   0.909   2.196
 6631W        W78957  13.211  18.469  11.126
 6632W        W78958  37.042  37.001  14.400
 6633W        W78959   5.682  33.613  14.402
 6634W        W78960  16.290  10.928   4.451
 6635W        W78961  40.837  44.950  12.463
 6636W        W78962  14.827  32.024  12.865
 6637W        W78963  18.110   1.717   0.422
 6638W        W78964  34.488  24.687   1.749
 6639W        W78965  37.870  15.561   3.117
 6640W        W78966   7.950  27.470   1.656
 6641W        W78967  20.191   1.727  11.081
 6642W        W78968  44.055   0.461  13.504
 6643W        W78969  39.839  37.483  14.210
 6644W        W78970  17.638   8.697  13.417
 6645W        W78971  20.768  27.024   3.638
 6646W        W78972   9.234  14.697  10.753
 6647W        W78973  15.210  28.699  12.491
 6648W        W78974  34.442  19.353   1.220
 6649W        W78975  30.914  42.222   0.347
 6650W        W78976  23.782   9.395  10.703
 6651W        W78977  25.429  25.067   3.776
 6652W        W78978  31.496   3.713  11.250
 6653W        W78979  16.657  28.697  13.084
 6654W        W78980   5.277   1.924  13.883
 6655W        W78981  20.620  16.914   3.224
 6656W        W78982  24.217  18.912  12.204
 6657W        W78983  11.111   0.879  12.076
 6658W        W78984   8.168  36.411  13.069
 6659W        W78985  37.007   3.685   0.356
 6660W        W78986   9.672  24.981  11.557
 6661W        W78987  32.691  42.208   3.117
 6662W        W78988  43.342  33.593   3.650
 6663W        W78989  19.123  39.483   2.150
 6664W        W78990  13.071   4.915   0.927
 6665W        W78991  44.252  26.639  13.593
 6666W        W78992  36.448  27.656   3.618
 6667W        W78993  10.177   1.978   1.415
 6668W        W78994  39.285   2.953   4.582
 6669W        W78995  44.218  23.039   1.019
 6670W        W78996  22.033   3.959  13.476
 6671W        W78997  41.262  12.308   1.689
 6672W        W78998  33.508  31.183   4.571
 6673W        W78999   7.862   5.279   1.912
 6674W        W79000  21.049  30.333  11.944
 6675W        W79001  37.317  26.536   3.816
 6676W        W79002  40.335   8.179   1.836
 6677W        W79003  38.071  39.885  13.911
 6678W        W79004  28.649   6.949  12.923
 6679W        W79005  41.580  10.925   1.816
 6680W        W79006  29.076  20.116   2.370
 6681W        W79007  41.328  18.048  11.539
 6682W        W79008  37.303  16.239   3.609
 6683W        W79009  13.137  33.608   9.637
 6684W        W79010  30.207  19.607   4.171
 6685W        W79011   4.725  24.531   2.723
 6686W        W79012  42.940  20.099   0.947
 6687W        W79013   7.280   8.887  10.957
 6688W        W79014  21.102  38.302  11.560
 6689W        W79015  16.633  20.198   3.232
 6690W        W79016  15.223  34.048  14.723
 6691W        W79017   1.929  10.365  13.613
 6692W        W79018   7.756  16.727  13.761
 6693W        W79019  19.842  44.315  12.466
 6694W        W79020  32.450  21.253  11.609
 6695W        W79021  11.891  36.101   0.404
 6696W        W79022   2.006  10.888  11.449
 6697W        W79023  28.666  17.680   1.437
 6698W        W79024  29.617  19.781  13.133
 6699W        W79025  25.624  21.495  11.221
 6700W        W79026  20.589  26.106   2.707
 6701W        W79027  26.464   2.284  14.633
 6702W        W79028  27.499  39.941   2.671
 6703W        W79029   4.371  20.375   1.746
 6704W        W79030  32.085  41.791  14.935
 6705W        W79031  20.494  25.538   0.740
 6706W        W79032  34.937   6.670   3.854
 6707W        W79033  35.609   2.430  11.681
 6708W        W79034  36.503   5.779  11.859
 6709W        W79035  22.826  20.323   3.072
 6710W        W79036  43.035  15.745  14.107
 6711W        W79037  18.640  42.865   2.863
 6712W        W79038  12.875  19.451  13.419
 6713W        W79039  11.333  19.325  13.421
 6714W        W79040  40.703   3.324  12.117
 6715W        W79041  34.873  34.537   1.261
 6716W        W79042  15.838  10.365   2.721
 6717W        W79043  40.988   1.751   4.549
 6718W        W79044  35.387   6.232  12.001
 6719W        W79045  18.698  38.347  12.002
 6720W        W79046   1.922   4.394   2.606
 6721W        W79047   8.141  40.546   4.375
 6722W        W79048  26.527   3.937  14.301
 6723W        W79049   2.855  20.542  14.998
 6724W        W79050  28.608  34.952  14.298
 6725W        W79051  43.517  14.481  14.955
 6726W        W79052  31.686  30.244  11.147
 6727W        W79053  43.378  10.663  11.443
 6728W        W79054  43.305  14.749  14.014
 6729W        W79055  24.757  18.817   0.672
 6730W        W79056   4.481   0.927   4.197
 6731W        W79057   4.681   2.183   4.680
 6732W        W79058  15.622   1.552   0.674
 6733W        W79059   4.986  11.988  14.766
 6734W        W79060  16.372  28.823  11.151
 6735W        W79061  31.191  28.008   4.887
 6736W        W79062  35.791  10.240  13.073
 6737W        W79063   0.449  28.989  12.926
 6738W        W79064  12.775  12.124  14.283
 6739W        W79065   2.753  21.239  10.687
 6740W        W79066  32.573   1.133   2.393
 6741W        W79067  12.278  27.364  11.100
 6742W        W79068  29.144  15.110   1.786
 6743W        W79069  38.236  13.876   3.287
 6744W        W79070  33.111  12.204   2.298
 6745W        W79071  21.426   2.231   0.789
 6746W        W79072  40.833  19.205   3.752
 6747W        W79073  41.213  35.960   4.371
 6748W        W79074   3.163   9.318  12.836
 6749W        W79075   6.776  26.177  13.554
 6750W        W79076  42.469  39.368  11.091
 6751W        W79077  20.560   3.482   3.842
 6752W        W79078  23.428  41.469   0.660
 6753W        W79079  38.931  40.566   4.479
 6754W        W79080  11.702  43.427  12.350
 6755W        W79081  32.521  17.622  11.057
 6756W        W79082  20.146  43.396  12.328
 6757W        W79083  32.261  33.057  13.306
 6758W        W79084  26.707  34.482   3.715
 6759W        W79085  15.211  20.034  13.569
 6760W        W79086  29.955  31.750  12.583
 6761W        W79087  35.205  19.336   0.709
 6762W        W79088  33.362  30.841   1.339
 6763W        W79089   6.790  37.474  13.039
 6764W        W79090  22.208  19.591  13.845
 6765W        W79091  31.570  15.021  10.638
 6766W        W79092   3.765   8.705  12.486
 6767W        W79093   8.409   1.529  13.361
 6768W        W79094  33.287  40.910   2.606
 6769W        W79095   6.343  32.605   0.765
 6770W        W79096   9.371  15.593   0.923
 6771W        W79097  30.421  20.715  13.955
 6772W        W79098   3.474   2.255   5.302
 6773W        W79099   9.397  10.668  14.160
 6774W        W79100  22.710  37.337   2.865
 6775W        W79101  38.489  39.682   4.128
 6776W        W79102  34.031  38.569   0.537
 6777W        W79103  41.987  41.247  12.112
 6778W        W79104  17.428  33.356  13.575
 6779W        W79105   6.753  32.898  12.454
 6780W        W79106  15.093  11.339   2.356
 6781W        W79107  41.188  34.257   3.532
 6782W        W79108   2.700  20.087  11.222
 6783W        W79109  14.850   3.900   2.696
 6784W        W79110  27.407  41.918   0.116
 6785W        W79111   7.369   1.299  14.299
 6786W        W79112  25.706   5.211  14.428
 6787W        W79113  35.897  29.196  12.155
 6788W        W79114  38.821  27.979  12.915
 6789W        W79115  13.723   9.959   1.827
 6790W        W79116  23.026  25.749   2.152
 6791W        W79117  40.043  13.820   2.345
 6792W        W79118   7.444   7.846  11.784
 6793W        W79119  34.211  24.058  11.234
 6794W        W79120  24.548  32.801  14.576
 6795W        W79121  37.624  44.896   3.685
 6796W        W79122   3.923  26.655   4.620
 6797W        W79123   9.346  39.018  13.417
 6798W        W79124  12.693  16.254  11.729
 6799W        W79125  16.268  27.539  12.842
 6800W        W79126   7.648  37.509   3.778
 6801W        W79127   6.858  12.561   2.209
 6802W        W79128  24.101  39.621   1.011
 6803W        W79129  26.566  34.852   1.925
 6804W        W79130  39.574  23.253   2.894
 6805W        W79131  16.116  34.077   0.272
 6806W        W79132  43.005   4.776   1.878
 6807W        W79133  25.913  26.356   2.664
 6808W        W79134   6.591  37.856   4.515
 6809W        W79135   8.982   6.190  12.956
 6810W        W79136  42.405  34.621  11.888
 6811W        W79137  40.477  32.889  12.926
 6812W        W79138  43.471  27.665  13.243
 6813W        W79139  19.732  22.965   0.975
 6814W        W79140  15.167  10.874   1.110
 6815W        W79141  34.196   3.463  12.437
 6816W        W79142  34.465  22.264  11.246
 6817W        W79143  34.337  20.721   1.232
 6818W        W79144  41.925  42.625   4.709
 6819W        W79145  42.056  35.409  10.712
 6820W        W79146  32.430  33.510   1.247
 6821W        W79147  20.210  11.722   1.924
 6822W        W79148  26.751  39.759  14.145
 6823W        W79149  37.134   1.700  10.579
 6824W        W79150   6.438  42.055   4.733
 6825W        W79151   2.273  21.215   3.288
 6826W        W79152   3.900  35.756   0.432
 6827W        W79153  12.212  36.415  13.646
 6828W        W79154  37.884  42.802  10.972
 6829W        W79155   1.515  32.584   2.087
 6830W        W79156  30.845  10.181  10.616
 6831W        W79157  15.610   6.914   3.150
 6832W        W79158   6.267  25.384   4.163
 6833W        W79159   7.223  39.289  11.461
 6834W        W79160  30.635  25.569  12.099
 6835W        W79161  44.926  34.448   2.387
 6836W        W79162  29.210   6.326   4.338
 6837W        W79163  39.012   3.205  12.038
 6838W        W79164  21.107   8.948  14.531
 6839W        W79165  12.199   0.525   4.533
 6840W        W79166   9.843  16.115  13.114
 6841W        W79167   6.530   4.950   1.644
 6842W        W79168   6.807  11.338  11.353
 6843W        W79169  15.857  23.090   1.623
 6844W        W79170   3.549  23.775  11.828
 6845W        W79171  22.612   7.668  10.291
 6846W        W79172  10.944  44.073  10.767
 6847W        W79173  13.291  31.375   3.804
 6848W        W79174   1.858  32.850   0.466
 6849W        W79175  42.434  41.547  11.073
 6850W        W79176  17.136  14.006   4.243
 6851W        W79177  13.791  14.158  12.893
 6852W        W79178  31.258  10.702   4.232
 6853W        W79179   7.692   2.427   1.223
 6854W        W79180   9.886  41.561  14.005
 6855W        W79181  15.533  35.416   3.053
 6856W        W79182  18.204   3.180  14.027
 6857W        W79183  28.134  19.975  12.916
 6858W        W79184  41.545  29.218   2.813
 6859W        W79185  38.536  24.446   1.799
 6860W        W79186  37.296   0.705   3.219
 6861W        W79187  13.342  25.044   1.348
 6862W        W79188  42.969  43.752  13.403
 6863W        W79189  29.037   1.266  12.414
 6864W        W79190  44.063  10.755  14.928
 6865W        W79191   2.162  22.548   0.937
 6866W        W79192  41.095   4.514   1.415
 6867W        W79193   0.002  25.517  14.332
 6868W        W79194  31.419  17.037  11.986
 6869W        W79195  30.380  26.010   3.299
 6870W        W79196   4.245  15.846  11.102
 6871W        W79197  34.003  26.316   1.889
 6872W        W79198  18.714  27.963   2.811
 6873W        W79199  44.337   1.223   2.795
 6874W        W79200  21.295  29.684   0.432
 6875W        W79201  25.555  34.262   1.782
 6876W        W79202  41.527   7.783   3.850
 6877W        W79203   7.788   0.190   4.243
 6878W        W79204  39.587   5.188   1.008
 6879W        W79205   2.779  10.698  12.840
 6880W        W79206  20.681  20.944  10.331
 6881W        W79207  25.764  34.911   4.230
 6882W        W79208  24.095  22.804  10.899
 6883W        W79209  30.697   9.029  10.314
 6884W        W79210  31.745  11.181  12.949
 6885W        W79211  20.845  43.467   4.191
 6886W        W79212  34.120  19.556   3.738
 6887W        W79213  35.767  10.191   0.318
 6888W        W79214  20.976  12.366  12.945
 6889W        W79215  43.310  25.434   2.699
 6890W        W79216  32.477  11.926   0.262
 6891W        W79217   3.137  27.998   3.124
 6892W        W79218  28.067  23.967   2.372
 6893W        W79219  26.986  20.573   1.003
 6894W        W79220  30.695  44.903   4.745
 6895W        W79221  20.598  44.496   0.308
 6896W        W79222  31.722  26.509  10.709
 6897W        W79223  29.175  23.974  12.471
 6898W        W79224  29.546  27.162   1.250
 6899W        W79225  18.723  41.134  14.920
 6900W        W79226  28.605  15.367  10.894
 6901W        W79227  22.084  11.275   2.414
 6902W        W79228  20.238   6.433  14.379
 6903W        W79229  44.724  41.403  12.024
 6904W        W79230  24.002  43.283  12.534
 6905W        W79231  25.761   9.747  11.407
 6906W        W79232   4.101  21.984  10.661
 6907W        W79233  23.425   6.070   3.577
 6908W        W79234   5.892  43.243   2.678
 6909W        W79235  38.539  34.331  11.097
 6910W        W79236  32.645  19.222   3.974
 6911W        W79237  29.765  30.806   0.062
 6912W        W79238  39.435  13.057   2.153
 6913W        W79239  16.394   1.925  14.819
 6914W        W79240  36.516   1.361  13.389
 6915W        W79241   4.493  11.174   3.248
 6916W        W79242  27.961  25.026   0.834
 6917W        W79243   8.163  27.938   0.311
 6918W        W79244  17.643   5.978   2.625
 6919W        W79245  16.799  29.866  14.809
 6920W        W79246  44.957  28.416   1.642
 6921W        W79247  36.497  42.295  14.001
 6922W        W79248  31.164  44.318   4.123
 6923W        W79249  22.798   0.703   1.129
 6924W        W79250   5.255  15.889   2.681
 6925W        W79251  12.993  38.641   4.103
 6926W        W79252   9.520  34.134   0.914
 6927W        W79253   0.329  23.748   0.954
 6928W        W79254  39.793  29.870   2.707
 6929W        W79255  19.751  39.762  10.665
 6930W        W79256  42.932  34.808   2.387
 6931W        W79257  12.353  38.879  11.533
 6932W        W79258  10.692   6.755  10.906
 6933W        W79259   9.326  11.901   4.102
 6934W        W79260  38.456  20.022  14.255
 6935W        W79261  33.862  27.832   4.966
 6936W        W79262   9.125   4.587   1.697
 6937W        W79263  18.339  43.913   2.800
 6938W        W79264  40.028  31.730   2.636
 6939W        W79265  13.282  20.232   0.808
 6940W        W79266   7.249  10.375   1.304
 6941W        W79267  33.572  12.343  10.962
 6942W        W79268  27.098  34.980   0.157
 6943W        W79269  28.198  28.629  14.065
 6944W        W79270  31.426  12.142   3.470
 6945W        W79271  14.144  34.070  12.298
 6946W        W79272  38.904   1.205   2.789
 6947W        W79273  36.580  34.248   0.886
 6948W        W79274  17.689   6.739   4.664
 6949W        W79275   4.482   1.845  10.113
 6950W        W79276   5.317  14.670  13.440
 6951W        W79277  13.381   9.404   1.332
 6952W        W79278  38.929  41.277  12.088
 6953W        W79279   6.556  13.523   5.005
 6954W        W79280  32.020  17.242   3.289
 6955W        W79281  28.732   0.751  11.723
 6956W        W79282  38.370  24.479  11.856
 6957W        W79283  26.492  33.975   2.639
 6958W        W79284  38.926  19.279  13.121
 6959W        W79285  38.396  25.000   0.933
 6960W        W79286   5.450   0.046  11.758
 6961W        W79287  44.836  31.994   0.828
 6962W        W79288  26.292  17.056   3.700
 6963W        W79289  10.120  35.829   1.251
 6964W        W79290  15.579  36.485  10.355
 6965W        W79291  13.329  32.537   1.363
 6966W        W79292  25.365   0.512  11.224
 6967W        W79293  41.860   5.688  12.549
 6968W        W79294  37.629   6.354   1.944
 6969W        W79295   6.008  15.046   4.811
 6970W        W79296  20.702  11.610   1.796
 6971W        W79297  43.299   9.533   3.642
 6972W        W79298  23.207  14.292   4.628
 6973W        W79299  19.060  37.120   3.307
 6974W        W79300   5.511  26.333  11.954
 6975W        W79301  35.803  13.299  14.526
 6976W        W79302  35.846  33.448  12.327
 6977W        W79303  44.983  34.656   3.173
 6978W        W79304  41.529  11.768   0.037
 6979W        W79305  44.809  23.227  10.679
 6980W        W79306  15.569  43.467  13.135
 6981W        W79307  43.778  43.304  13.277
 6982W        W79308  29.855   8.406  14.780
 6983W        W79309   6.906  44.387  10.372
 6984W        W79310   2.227   8.273  13.923
 6985W        W79311  33.396   8.775   4.619
 6986W        W79312   0.254  30.619   1.815
 6987W        W79313  41.049  19.851  10.684
 6988W        W79314  31.177   1.834   0.901
 6989W        W79315  27.970   1.378  11.645
 6990W        W79316  40.696  32.389   1.149
 6991W        W79317  19.482  36.547  14.331
 6992W        W79318  30.224  36.055  13.485
 6993W        W79319  25.969  32.914  14.538
 6994W        W79320  35.306  43.940  13.507
 6995W        W79321  27.257  19.725  14.501
 6996W        W79322   3.666   4.485   5.031
 6997W        W79323  34.620  38.070  12.238
 6998W        W79324  16.502  34.126  14.382
 6999W        W79325  23.764  24.009  11.882
 7000W        W79326  16.098  42.329  11.543
 7001W        W79327   5.294  33.161  14.997
 7002W        W79328  27.658  43.578   1.357
 7003W        W79329  44.399  34.002   4.133
 7004W        W79330   6.531   5.651   0.802
 7005W        W79331   5.673  26.181   4.058
 7006W        W79332  25.403  36.421   0.867
 7007W        W79333  20.842   0.106  14.823
 7008W        W79334  12.231  17.637  13.458
 7009W        W79335   1.225  25.141   2.232
 7010W        W79336  22.654  34.500  13.900
 7011W        W79337  28.464  26.050  12.448
 7012W        W79338  34.197  38.602   1.795
 7013W        W79339  35.458  19.571  12.571
 7014W        W79340  14.271  13.743  11.528
 7015W        W79341  14.080  28.026   4.169
 7016W        W79342  21.073  27.103  11.638
 7017W        W79343  13.648  29.594  14.722
 7018W        W79344   4.390   4.426  14.691
 7019W        W79345  14.093  37.201   4.956
 7020W        W79346  36.057  34.979   2.412
 7021W        W79347  10.826  24.255  12.542
 7022W        W79348  23.182  42.397   3.836
 7023W        W79349  44.263   8.744   5.046
 7024W        W79350  27.216  27.145   3.302
 7025W        W79351   4.819  12.293   3.191
 7026W        W79352  22.136  33.161  14.752
 7027W        W79353   9.281  30.015  12.448
 7028W        W79354  15.643  43.296   1.288
 7029W        W79355  38.660  32.083  12.560
 7030W        W79356  32.646  40.771  13.308
 7031W        W79357  35.494  41.066  11.119
 7032W        W79358  20.717  23.703   1.826
 7033W        W79359  15.227  21.933   1.195
 7034W        W79360   0.840  18.627   1.908
 7035W        W79361   7.906  25.637  11.344
 7036W        W79362   5.611  33.111   3.934
 7037W        W79363  17.241   6.277   4.558
 7038W        W79364  37.206  41.304   1.813
 7039W        W79365  34.014  28.649   0.360
 7040W        W79366  40.299  14.686   3.873
 7041W        W79367  19.567   8.920   1.825
 7042W        W79368   5.089  25.153  10.805
 7043W        W79369  12.782  36.081  13.848
 7044W        W79370  27.969  40.410   2.910
 7045W        W79371  17.989  29.829   4.174
 7046W        W79372  25.780   1.542   5.300
 7047W        W79373  22.643  19.538   2.751
 7048W        W79374  27.485  42.290   4.073
 7049W        W79375  27.547  27.043   2.434
 7050W        W79376   5.949  30.974  12.151
 7051W        W79377  26.032   8.768  13.037
 7052W        W79378  35.860  13.586  13.650
 7053W        W79379  25.939  40.441   3.761
 7054W        W79380  37.680  20.076   2.397
 7055W        W79381  33.632  29.592   2.838
 7056W        W79382  35.937  37.803   2.155
 7057W        W79383  15.328   3.664  12.966
 7058W        W79384  12.776  32.471  11.677
 7059W        W79385   6.393   0.357   0.347
 7060W        W79386  31.735  25.717  12.955
 7061W        W79387  31.722  24.709  13.686
 7062W        W79388  26.541  21.649  14.458
 7063W        W79389  32.168  10.593  10.902
 7064W        W79390  21.691  11.515   2.695
 7065W        W79391  30.980   1.063   4.019
 7066W        W79392  28.893  28.246   0.474
 7067W        W79393   2.787   8.481   2.093
 7068W        W79394  36.183  26.507  12.113
 7069W        W79395  24.922  33.893  11.545
 7070W        W79396   1.536  16.273  12.354
 7071W        W79397  32.128  18.706  12.443
 7072W        W79398  42.231  34.908   0.710
 7073W        W79399   8.626  22.632  13.970
 7074W        W79400  27.596  18.335  14.026
 7075W        W79401  25.291  43.682   2.489
 7076W        W79402  38.087  14.734  12.838
 7077W        W79403  42.757  33.877   2.191
 7078W        W79404  14.917  11.313  11.278
 7079W        W79405  38.965  36.557  11.898
 7080W        W79406  28.420   6.905  10.815
 7081W        W79407  14.355  33.806   1.693
 7082W        W79408  34.957  33.355  12.323
 7083W        W79409  24.657  21.438  11.500
 7084W        W79410  13.548  36.018  13.415
 7085W        W79411   4.412  30.884  11.994
 7086W        W79412  12.599  30.478  12.406
 7087W        W79413   3.219  35.307  11.925
 7088W        W79414   0.810  12.397  11.375
 7089W        W79415  34.498  41.569  10.496
 7090W        W79416  19.660  15.706   2.309
 7091W        W79417  27.126  19.597   4.174
 7092W        W79418  35.054   4.297  13.852
 7093W        W79419  14.102   9.182  13.465
 7094W        W79420  23.031  26.915  12.585
 7095W        W79421  25.097  34.947   4.270
 7096W        W79422  26.432  30.416  12.515
 7097W        W79423  26.575  32.102   0.121
 7098W        W79424  43.891  33.890   0.056
 7099W        W79425  36.607  21.213  12.494
 7100W        W79426  17.158  24.964   4.237
 7101W        W79427   2.361  27.588  13.680
 7102W        W79428  36.260  32.614   0.967
 7103W        W79429  34.746  44.501   4.538
 7104W        W79430  15.823  29.142   0.303
 7105W        W79431  29.424  41.355   4.018
 7106W        W79432  13.311  44.912  10.389
 7107W        W79433  13.679  39.309   2.648
 7108W        W79434   3.848  13.296   0.897
 7109W        W79435  37.246   4.940  11.129
 7110W        W79436  35.574  36.402   3.123
 7111W        W79437  24.701  31.948  13.469
 7112W        W79438   3.191   6.342  14.787
 7113W        W79439  12.667   0.257  13.740
 7114W        W79440  31.356   5.829   3.696
 7115W        W79441  34.520  19.554  12.545
 7116W        W79442   9.229  35.086   4.349
 7117W        W79443  32.927   7.778  14.462
 7118W        W79444  42.380  32.720  12.483
 7119W        W79445  16.862  33.034   4.191
 7120W        W79446  28.055   1.420  14.461
 7121W        W79447   9.258   1.646   2.737
 7122W        W79448   9.849   9.893  14.449
 7123W        W79449   9.089  43.844   4.081
 7124W        W79450  22.154  38.618   4.543
 7125W        W79451  19.098  39.356  14.795
 7126W        W79452  11.184  26.491  12.548
 7127W        W79453  23.029  21.668   4.236
 7128W        W79454  42.574  32.847   0.958
 7129W        W79455  31.963  32.868  11.201
 7130W        W79456  36.007  12.737  10.693
 7131W        W79457   4.962   7.758   3.252
 7132W        W79458  21.528  23.533  13.749
 7133W        W79459  17.704   2.481  14.018
 7134W        W79460  44.905  24.244  13.117
 7135W        W79461  22.727  31.316   0.870
 7136W        W79462  43.099  32.153   1.244
 7137W        W79463  15.258  44.271   4.279
 7138W        W79464  26.532   9.845  10.131
 7139W        W79465  31.197  36.702  13.595
 7140W        W79466  30.703  21.155   3.654
 7141W        W79467   6.929  41.980  10.615
 7142W        W79468  37.418  21.227  13.489
 7143W        W79469  26.340  14.698  12.305
 7144W        W79470   1.899  29.602  13.068
 7145W        W79471  30.199   2.120   4.148
 7146W        W79472  40.073  39.349   3.737
 7147W        W79473  26.388  35.688   4.593
 7148W        W79474  20.043  44.927  14.444
 7149W        W79475  36.117   0.682   1.875
 7150W        W79476   2.618  31.228   1.901
 7151W        W79477  32.442  35.164   2.549
 7152W        W79478   8.665   8.975   3.357
 7153W        W79479   6.639  29.154  13.026
 7154W        W79480  19.551  33.502  13.473
 7155W        W79481  18.070  34.382  11.108
 7156W        W79482   3.689   9.294  10.533
 7157W        W79483  14.723   8.300  13.494
 7158W        W79484  18.699   3.429   3.699
 7159W        W79485  16.677  10.864  11.497
 7160W        W79486  11.208  25.761  13.495
 7161W        W79487  10.637  35.041   4.813
 7162W        W79488  14.680  19.538  13.785
 7163W        W79489  16.318  33.614   2.654
 7164W        W79490  10.567  11.870   3.396
 7165W        W79491  14.726   1.486  12.509
 7166W        W79492  37.137  23.362   1.393
 7167W        W79493   4.398  33.076   1.940
 7168W        W79494  41.245  14.116  11.393
 7169W        W79495  23.513  36.750   1.702
 7170W        W79496  20.586   7.889   0.934
 7171W        W79497  20.463  16.727   1.876
 7172W        W79498  43.223  25.988   0.520
 7173W        W79499  29.798  35.675   0.221
 7174W        W79500  14.176  39.754  10.885
 7175W        W79501  44.972  29.722   0.244
 7176W        W79502  37.892  41.420   2.474
 7177W        W79503   0.383  12.055  10.667
 7178W        W79504  29.971  13.607   1.922
 7179W        W79505   5.253  31.663  13.421
 7180W        W79506  23.654  40.945  12.331
 7181W        W79507  18.229  18.683   1.954
 7182W        W79508  18.717  41.984   2.147
 7183W        W79509  24.689  36.160   4.677
 7184W        W79510   5.375  40.314  10.615
 7185W        W79511  13.633  41.387   4.081
 7186W        W79512   7.268  42.123  12.493
 7187W        W79513  39.928  13.634  14.848
 7188W        W79514   4.057   8.224  14.813
 7189W        W79515   8.916  27.983   1.343
 7190W        W79516   4.752  13.669   1.407
 7191W        W79517  41.421  34.144  13.519
 7192W        W79518   4.425  35.133   4.081
 7193W        W79519  39.265  20.636  10.503
 7194W        W79520  16.635  22.356  12.365
 7195W        W79521   5.184  42.673   1.696
 7196W        W79522  35.616  27.175   4.285
 7197W        W79523  21.188  16.332   1.466
 7198W        W79524  28.906  40.810  14.683
 7199W        W79525  33.471   5.957   1.761
 7200W        W79526  19.209   6.376  14.457
 7201W        W79527  26.261  26.491   2.297
 7202W        W79528   0.444  28.005   3.668
 7203W        W79529  21.688   6.391  13.450
 7204W        W79530  30.630  16.589  11.768
 7205W        W79531  39.013  38.559   4.777
 7206W        W79532  30.521   6.350   2.933
 7207W        W79533   3.308  34.587  14.248
 7208W        W79534  28.718  26.618   1.791
 7209W        W79535  25.756  37.617   0.250
 7210W        W79536   4.654   4.377   4.199
 7211W        W79537  44.458   1.418   3.718
 7212W        W79538  34.033  21.763   3.645
 7213W        W79539  35.957  28.365   2.419
 7214W        W79540   3.352  30.030   1.778
 7215W        W79541   2.939  30.362   1.831
 7216W        W79542   7.520   8.887   4.515
 7217W        W79543  39.457  30.967  12.649
 7218W        W79544  34.473  14.875   1.240
 7219W        W79545   9.799  25.902   4.616
 7220W        W79546  16.822   2.378  14.098
 7221W        W79547  38.613   0.308  11.796
 7222W        W79548  11.438  41.293   0.793
 7223W        W79549  29.227  33.859   0.374
 7224W        W79550   5.354  43.604   1.380
 7225W        W79551  33.086  12.699  11.615
 7226W        W79552   1.546  42.888  10.565
 7227W        W79553  12.681   5.033   1.927
 7228W        W79554   3.796  26.503   3.783
 7229W        W79555  26.027   9.810   4.627
 7230W        W79556  33.153  21.171  14.126
 7231W        W79557  20.642  34.555   0.224
 7232W        W79558  16.640   6.395   1.048
 7233W        W79559  11.115  29.616  12.193
 7234W        W79560   6.254  40.526  13.835
 7235W        W79561  39.476   1.904  10.663
 7236W        W79562  31.370  14.194   0.479
 7237W        W79563  38.660  13.674   3.501
 7238W        W79564  32.533  13.138  13.143
 7239W        W79565   3.478  12.184   0.002
 7240W        W79566   0.775   9.024  11.746
 7241W        W79567  32.120  27.559   2.815
 7242W        W79568  41.047  42.036  10.743
 7243W        W79569  34.422  13.854   0.673
 7244W        W79570  37.887  30.896   2.292
 7245W        W79571  17.622  16.556   2.698
 7246W        W79572  37.022   4.925   3.687
 7247W        W79573  10.937  44.474   0.301
 7248W        W79574  38.301  17.035   3.678
 7249W        W79575  33.315   6.200   2.400
 7250W        W79576  24.025  42.962   5.043
 7251W        W79577  31.040  20.058   1.201
 7252W        W79578  32.894   5.129  11.482
 7253W        W79579   7.915  40.354   1.235
 7254W        W79580  29.957   9.904   4.190
 7255W        W79581  39.544  44.430   2.267
 7256W        W79582  25.567  33.140   3.892
 7257W        W79583  19.671  20.669  14.403
 7258W        W79584   5.765  32.812   2.639
 7259W        W79585  17.463  21.960   2.304
 7260W        W79586  28.454  34.098   2.757
 7261W        W79587  16.328  36.093  12.065
 7262W        W79588   0.413   1.441  12.857
 7263W        W79589  37.459  16.630  11.021
 7264W        W79590  30.911  39.114  13.441
 7265W        W79591   6.846  11.791  11.114
 7266W        W79592  29.112  35.052  11.695
 7267W        W79593  20.804  24.559   3.216
 7268W        W79594  21.158  44.802   3.693
 7269W        W79595  26.797  40.237  13.920
 7270W        W79596  39.860  10.094   2.342
 7271W        W79597   4.428  34.331   1.342
 7272W        W79598  18.093  17.908  10.699
 7273W        W79599  19.012   4.107   0.154
 7274W        W79600  43.978   0.525   1.602
 7275W        W79601  42.922  44.750   3.508
 7276W        W79602  24.121  42.833   0.671
 7277W        W79603   0.248  17.742  13.298
 7278W        W79604  40.331   5.226   1.826
 7279W        W79605  27.016  12.384   3.242
 7280W        W79606  42.399  38.437   3.779
 7281W        W79607  34.835  26.368  14.252
 7282W        W79608  30.447   1.778  13.946
 7283W        W79609  39.452  13.383  11.450
 7284W        W79610  44.477  31.495  14.734
 7285W        W79611   8.335   4.856  14.929
 7286W        W79612  40.811  14.137  10.676
 7287W        W79613  25.732  21.727  13.320
 7288W        W79614  33.680  20.265   0.546
 7289W        W79615  17.634  18.157   4.841
 7290W        W79616  12.125  38.886  13.512
 7291W        W79617   0.753  25.243   3.811
 7292W        W79618  22.479  19.748  14.270
 7293W        W79619  21.807   5.785  11.471
 7294W        W79620  17.204  33.238  14.900
 7295W        W79621  22.139   1.733  13.369
 7296W        W79622  23.249  21.139   2.162
 7297W        W79623  18.804  22.742  12.939
 7298W        W79624   8.897  41.742   2.694
 7299W        W79625  39.782   5.231   4.406
 7300W        W79626  17.599  15.879   1.308
 7301W        W79627  10.224   5.479  11.941
 7302W        W79628  26.125  18.110   0.888
 7303W        W79629   2.632  43.747  11.821
 7304W        W79630  21.713  27.641  11.100
 7305W        W79631  20.051  42.426  10.119
 7306W        W79632  12.931  38.822  13.061
 7307W        W79633  20.096   8.220  10.804
 7308W        W79634  36.931  42.770   3.263
 7309W        W79635  11.785  30.293  10.595
 7310W        W79636  35.979   9.185   2.267
 7311W        W79637  37.009  23.266  12.482
 7312W        W79638  15.666  26.131   3.572
 7313W        W79639   4.508  44.576   1.968
 7314W        W79640  13.172   3.214  11.192
 7315W        W79641   5.302  12.090   0.193
 7316W        W79642  12.161  32.717  12.429
 7317W        W79643  10.831   3.101   0.764
 7318W        W79644  12.998  23.605  10.419
 7319W        W79645  36.619  13.083   1.140
 7320W        W79646  32.115  44.723  12.362
 7321W        W79647   4.934  35.603  10.643
 7322W        W79648   6.279  36.177   1.648
 7323W        W79649  38.129  44.427   4.905
 7324W        W79650  41.500  23.789   4.171
 7325W        W79651  14.897  28.655  13.360
 7326W        W79652   8.824  35.337   4.613
 7327W        W79653   0.006  41.051   0.317
 7328W        W79654  43.912  27.950  11.445
 7329W        W79655   1.367  12.595   4.312
 7330W        W79656  24.990  44.621  10.487
 7331W        W79657   8.365   4.361  12.447
 7332W        W79658   7.697  27.990  12.347
 7333W        W79659  26.851  42.832  12.228
 7334W        W79660   9.277  25.508   3.764
 7335W        W79661  21.791   1.923  12.991
 7336W        W79662  27.492  29.644  13.321
 7337W        W79663  14.535  18.645  12.900
 7338W        W79664  29.813  10.628  11.866
 7339W        W79665  37.271   8.148  10.896
 7340W        W79666  23.615   8.629  13.408
 7341W        W79667   4.526  31.997   4.304
 7342W        W79668   4.146  36.807   0.329
 7343W        W79669  23.756  38.941   0.623
 7344W        W79670  31.626   0.908  10.691
 7345W        W79671  19.525  42.420   4.436
 7346W        W79672  28.720   2.359  13.955
 7347W        W79673  33.468   6.525  10.077
 7348W        W79674  34.203   0.225   3.806
 7349W        W79675  39.812  36.065  12.004
 7350W        W79676  31.988  44.992   3.067
 7351W        W79677  36.980   6.953   1.753
 7352W        W79678  14.133  19.312  12.894
 7353W        W79679   1.820  15.971  12.987
 7354W        W79680  31.150  25.208   3.257
 7355W        W79681  35.605  38.726   4.057
 7356W        W79682  39.345   9.625  12.132
 7357W        W79683   4.710   6.738  12.668
 7358W        W79684  18.776   1.856   2.851
 7359W        W79685  13.733  43.730   3.926
 7360W        W79686  19.210   2.990   1.175
 7361W        W79687  24.442  42.608  12.849
 7362W        W79688  41.456  34.579   2.774
 7363W        W79689  30.593  10.144   4.102
 7364W        W79690  15.125  35.315  13.531
 7365W        W79691  18.609  24.177   2.926
 7366W        W79692   8.511  19.662   1.239
 7367W        W79693   6.463  35.811   2.405
 7368W        W79694  35.909  37.820  10.657
 7369W        W79695  12.881  14.638  12.826
 7370W        W79696  33.827  12.528   3.880
 7371W        W79697  28.106   7.675  13.984
 7372W        W79698   2.619  17.572  14.812
 7373W        W79699   9.869  13.114   3.146
 7374W        W79700  44.373  16.643  12.821
 7375W        W79701  23.650  12.723   4.038
 7376W        W79702  18.173  31.831  12.135
 7377W        W79703  11.858  16.822  14.348
 7378W        W79704  38.117  42.843   1.079
 7379W        W79705  14.166  41.864   4.631
 7380W        W79706  40.063  37.902  13.965
 7381W        W79707  13.055  29.211  11.105
 7382W        W79708  22.024  21.747   2.683
 7383W        W79709   9.308   1.448   1.275
 7384W        W79710   6.235  41.517   3.732
 7385W        W79711   5.945   5.063   0.966
 7386W        W79712  38.929  27.091   9.961
 7387W        W79713   4.020  39.081   1.783
 7388W        W79714   7.875   4.805  13.967
 7389W        W79715  26.564   3.917   0.755
 7390W        W79716  30.006  31.405   2.845
 7391W        W79717  18.124  26.955  14.255
 7392W        W79718   0.963  37.699   0.736
 7393W        W79719   5.670  27.399   2.889
 7394W        W79720  35.580  13.843  14.603
 7395W        W79721  33.796   3.108  11.094
 7396W        W79722  26.246   2.800   2.410
 7397W        W79723  18.729  32.899   0.527
 7398W        W79724  36.124  44.639   3.933
 7399W        W79725  26.746  40.891   4.621
 7400W        W79726  22.284  40.517  11.021
 7401W        W79727  32.439   7.229   3.104
 7402W        W79728   9.405  25.554   4.584
 7403W        W79729  24.117  15.697  13.468
 7404W        W79730  29.958  34.839  11.781
 7405W        W79731  16.581  28.939  14.923
 7406W        W79732  23.476   1.724   2.742
 7407W        W79733  40.895  29.221   2.425
 7408W        W79734  29.693  36.575   4.635
 7409W        W79735  11.971  31.301  10.627
 7410W        W79736   1.358  30.419  12.062
 7411W        W79737   6.998  24.155  13.081
 7412W        W79738   0.060  25.418   4.236
 7413W        W79739   0.243   6.935  12.993
 7414W        W79740  19.175  22.273   3.293
 7415W        W79741  34.560  36.448  11.965
 7416W        W79742  30.650  16.733   3.197
 7417W        W79743  43.370  44.967  13.339
 7418W        W79744  38.163   9.730  11.141
 7419W        W79745  36.547  29.118   3.706
 7420W        W79746  10.368  38.903   0.279
 7421W        W79747  27.188  18.576  12.037
 7422W        W79748   7.958  36.581   1.345
 7423W        W79749  26.357  31.057   1.932
 7424W        W79750  44.241  42.410   1.259
 7425W        W79751  26.704  31.654   0.441
 7426W        W79752  38.094  33.725   1.413
 7427W        W79753  26.252   3.295   1.383
 7428W        W79754  33.708  43.594   2.754
 7429W        W79755  33.616  32.036   0.868
 7430W        W79756   3.517  33.607   1.745
 7431W        W79757  38.495  10.643  10.575
 7432W        W79758  36.868   7.638  13.989
 7433W        W79759  32.878  33.090   3.702
 7434W        W79760  18.314   4.825  11.089
 7435W        W79761  11.719  42.914  12.551
 7436W        W79762  30.676  29.230   3.048
 7437W        W79763  28.697  39.077   1.245
 7438W        W79764  19.226  37.533   0.941
 7439W        W79765  27.111  11.382   2.534
 7440W        W79766  44.867  35.704   1.128
 7441W        W79767  32.460  16.105   0.800
 7442W        W79768  22.675  26.116  12.405
 7443W        W79769  10.698  20.570  12.933
 7444W        W79770  28.193  18.073  12.891
 7445W        W79771  34.613   6.321  13.514
 7446W        W79772  15.194   0.765  12.113
 7447W        W79773  35.060  12.880   4.181
 7448W        W79774  32.513  23.492   0.224
 7449W        W79775  14.246  14.725   3.777
 7450W        W79776   8.235  36.053   4.638
 7451W        W79777  43.809   2.743  13.063
 7452W        W79778  38.377  42.571   1.807
 7453W        W79779  30.986  12.701  12.865
 7454W        W79780  10.821  43.880   3.621
 7455W        W79781  39.018   8.114   2.211
 7456W        W79782  12.823  29.971   4.221
 7457W        W79783  38.375  36.026  10.806
 7458W        W79784  29.876   8.180  12.927
 7459W        W79785  42.418  41.319   0.050
 7460W        W79786   2.928  27.399  14.462
 7461W        W79787  25.781  16.144  13.057
 7462W        W79788  37.874  31.653   0.915
 7463W        W79789  44.517  19.119   4.319
 7464W        W79790  34.517  14.582  14.768
 7465W        W79791  43.816  39.455   4.612
 7466W        W79792  16.642  14.380   1.428
 7467W        W79793  25.428  16.148   2.669
 7468W        W79794  22.157  43.553   1.733
 7469W        W79795   6.613  26.126  12.109
 7470W        W79796  37.129  29.608  14.345
 7471W        W79797   5.341  10.456   1.104
 7472W        W79798  27.988  28.909   1.947
 7473W        W79799  31.967  37.438  11.416
 7474W        W79800  25.923  26.095  12.678
 7475W        W79801  33.555  17.380  11.919
 7476W        W79802  19.914  25.034  12.618
 7477W        W79803  30.390  40.094  14.238
 7478W        W79804  44.356  37.136   1.404
 7479W        W79805  11.543   5.997   2.859
 7480W        W79806  18.274  38.259  14.793
 7481W        W79807  12.208   8.192  13.851
 7482W        W79808  10.863  29.897  11.555
 7483W        W79809  38.091  42.286   1.448
 7484W        W79810  37.887  32.546   1.831
 7485W        W79811   3.952  27.626  12.205
 7486W        W79812  35.464   3.409  12.077
 7487W        W79813  27.286   6.269   1.281
 7488W        W79814   8.399  42.731  14.416
 7489W        W79815  14.823  27.651  12.891
 7490W        W79816  44.433   2.409   1.264
 7491W        W79817  43.120  44.294  12.598
 7492W        W79818  14.267  10.280  10.745
 7493W        W79819  35.069  20.000   4.601
 7494W        W79820  26.733  41.073   1.029
 7495W        W79821   4.773  26.927  12.072
 7496W        W79822   3.468  40.230  10.470
 7497W        W79823  21.775   9.504   4.214
 7498W        W79824  15.722  42.473  13.492
 7499W        W79825  15.183  15.710   0.946
 7500W        W79826  13.702  13.983   1.769
 7501W        W79827  13.061   7.085   0.749
 7502W        W79828  43.201  22.331   2.768
 7503W        W79829   4.195   2.534   2.929
 7504W        W79830   3.092   3.418   4.361
 7505W        W79831  24.468  37.387   3.150
 7506W        W79832  12.792  37.933   1.920
 7507W        W79833  16.245  30.524   3.375
 7508W        W79834  37.898  13.684  13.513
 7509W        W79835   8.708  44.939  13.987
 7510W        W79836  10.640  10.266   1.367
 7511W        W79837  14.797  39.112  10.179
 7512W        W79838   6.848  11.267  12.883
 7513W        W79839   0.861  19.906   3.851
 7514W        W79840   5.341  33.671   4.778
 7515W        W79841  25.046  25.228  11.287
 7516W        W79842  12.819  19.550   2.092
 7517W        W79843  22.740  16.085  13.422
 7518W        W79844   3.602  19.822   4.565
 7519W        W79845   8.250  22.627   3.802
 7520W        W79846  21.473  26.298  14.400
 7521W        W79847  12.872  32.463   0.443
 7522W        W79848  15.166   0.457  13.021
 7523W        W79849  41.689  15.171   2.190
 7524W        W79850  13.600  38.546   0.840
 7525W        W79851  37.835  40.369  13.912
 7526W        W79852  25.361  14.325   1.224
 7527W        W79853   8.623  44.073   4.171
 7528W        W79854  30.757  17.060  12.584
 7529W        W79855  38.907  10.561  10.259
 7530W        W79856  14.176  35.091   4.119
 7531W        W79857  17.910  25.695   3.833
 7532W        W79858   3.006  14.154  10.808
 7533W        W79859   3.533  41.992   4.088
 7534W        W79860  36.050  42.374  11.897
 7535W        W79861  20.956  18.853  13.432
 7536W        W79862   0.003  20.746   1.760
 7537W        W79863  40.753  28.619  11.667
 7538W        W79864  31.232  33.356  13.511
 7539W        W79865  19.105  25.117  11.239
 7540W        W79866  24.006   7.935  12.444
 7541W        W79867  20.455  38.617   0.844
 7542W        W79868  29.950  18.867  13.469
 7543W        W79869   4.290  23.031   5.714
 7544W        W79870  10.003  29.414   3.877
 7545W        W79871  28.529  22.974  10.671
 7546W        W79872  23.518  16.525   3.743
 7547W        W79873  37.635  33.890   1.526
 7548W        W79874   2.024  19.167  12.256
 7549W        W79875  34.753   1.573   1.771
 7550W        W79876  11.733  36.013   4.114
 7551W        W79877  12.768  30.250  10.865
 7552W        W79878  36.277  26.491  13.067
 7553W        W79879  26.049  10.109   1.811
 7554W        W79880   5.340  15.301  10.433
 7555W        W79881   1.281   6.364  12.441
 7556W        W79882  42.622   9.670   1.398
 7557W        W79883  29.566  40.848   3.314
 7558W        W79884  44.972  19.080   1.863
 7559W        W79885   2.540   3.379   4.197
 7560W        W79886  13.892  13.912   3.121
 7561W        W79887  44.314   9.602  12.949
 7562W        W79888  10.231  20.611  14.426
 7563W        W79889  39.887  32.763   4.531
 7564W        W79890  28.261   9.060   1.033
 7565W        W79891   3.509  27.704   0.600
 7566W        W79892  40.491  33.532   4.778
 7567W        W79893   5.783  36.743   3.263
 7568W        W79894   8.583  17.201   0.927
 7569W        W79895   3.370   7.739  14.458
 7570W        W79896   9.324   4.442  11.703
 7571W        W79897  25.127   3.706  11.586
 7572W        W79898  14.668  26.690   2.378
 7573W        W79899  33.235  30.059   4.228
 7574W        W79900  11.671  20.081   4.422
 7575W        W79901  20.133   4.578   3.092
 7576W        W79902  11.801  39.855   1.057
 7577W        W79903   6.625   7.778   0.421
 7578W        W79904  41.940   5.761  10.767
 7579W        W79905  19.724   3.053   3.377
 7580W        W79906  30.973   5.280  11.434
 7581W        W79907  39.348   6.055   0.280
 7582W        W79908   6.767  11.812   3.253
 7583W        W79909  22.998  22.091  11.196
 7584W        W79910   3.541  11.489  11.939
 7585W        W79911   4.724   8.984   1.854
 7586W        W79912  17.211   9.750  13.657
 7587W        W79913   8.871  13.211   2.795
 7588W        W79914  23.245  15.142  11.969
 7589W        W79915  31.112  18.346   2.337
 7590W        W79916  39.393   4.451   2.192
 7591W        W79917  27.908  43.835  14.370
 7592W        W79918  19.327  29.372  11.005
 7593W        W79919  38.024  40.507  10.607
 7594W        W79920  23.594  15.662  14.261
 7595W        W79921   1.828  17.804  12.190
 7596W        W79922  10.861  40.497   2.406
 7597W        W79923   5.008  27.118  12.494
 7598W        W79924  44.565  42.868  11.283
 7599W        W79925  21.625  15.689   0.424
 7600W        W79926  42.151  44.272   3.661
 7601W        W79927  17.303  26.740  10.791
 7602W        W79928  22.762  33.937   4.208
 7603W        W79929  27.249  41.083   1.132
 7604W        W79930  31.492   4.406  11.931
 7605W        W79931  41.459   2.935  12.145
 7606W        W79932  28.937  43.203   3.652
 7607W        W79933  35.979  29.516   3.060
 7608W        W79934  27.338  41.623  10.163
 7609W        W79935   8.292   3.459  13.709
 7610W        W79936  22.127  31.889   0.480
 7611W        W79937  10.123  21.191  14.462
 7612W        W79938  11.201  26.592   9.895
 7613W        W79939  15.581  16.397   2.827
 7614W        W79940  14.586  28.087  13.733
 7615W        W79941  44.003   7.307   1.921
 7616W        W79942   2.757  35.098  12.968
 7617W        W79943  10.411  19.025  10.856
 7618W        W79944  21.145  19.057  11.278
 7619W        W79945  31.491  31.215  12.933
 7620W        W79946  11.397  17.317   2.910
 7621W        W79947  43.509  32.034   4.282
 7622W        W79948  24.079   8.754   1.408
 7623W        W79949  24.905  28.857   1.496
 7624W        W79950  28.868  42.952  12.039
 7625W        W79951   2.859  42.468  10.754
 7626W        W79952  38.279  42.856   2.589
 7627W        W79953  15.117   8.593   1.318
 7628W        W79954  35.364  32.093  13.850
 7629W        W79955  17.240   2.210  11.071
 7630W        W79956  10.617  31.887  11.635
 7631W        W79957  44.315  16.229  14.099
 7632W        W79958  29.710  36.615   1.328
 7633W        W79959  42.404   6.164   1.754
 7634W        W79960   6.901  13.823   4.774
 7635W        W79961  43.982  28.148   1.813
 7636W        W79962  40.456  41.690   1.922
 7637W        W79963  19.973   6.729   0.487
 7638W        W79964  26.199  34.455   3.619
 7639W        W79965   8.194  24.673  13.563
 7640W        W79966  30.143  24.439  12.411
 7641W        W79967  33.431  16.140   1.631
 7642W        W79968  14.204  38.298   3.824
 7643W        W79969  43.898  20.196   0.003
 7644W        W79970  17.585  39.786  12.859
 7645W        W79971  12.828  14.898   1.587
 7646W        W79972  34.853   9.198   3.677
 7647W        W79973  13.901   0.906   4.656
 7648W        W79974   1.879  23.132   1.620
 7649W        W79975  27.168  32.576   2.261
 7650W        W79976  32.632  22.954  14.295
 7651W        W79977  20.652  13.181   2.675
 7652W        W79978  19.111  32.690  11.675
 7653W        W79979  17.777  44.044  13.953
 7654W        W79980  26.145  22.097   2.564
 7655W        W79981  22.650  25.759   2.800
 7656W        W79982  21.906  24.563  11.365
 7657W        W79983  12.168  25.632   3.247
 7658W        W79984  25.273  16.632   0.061
 7659W        W79985  31.305  36.935   0.400
 7660W        W79986  23.518   6.668  10.755
 7661W        W79987  42.507  44.006   2.799
 7662W        W79988   3.794  13.298  12.629
 7663W        W79989   9.219  29.601   3.591
 7664W        W79990  26.672  25.436   2.393
 7665W        W79991  19.457  29.492  11.475
 7666W        W79992  32.003  10.108   4.155
 7667W        W79993  21.605  39.895   2.678
 7668W        W79994   7.472  27.646   3.725
 7669W        W79995  36.078  13.126  13.559
 7670W        W79996  35.629  16.524  10.590
 7671W        W79997  27.660  30.004   0.459
 7672W        W79998   4.977  41.090   1.732
 7673W        W79999  39.532  14.404   4.493
 7674W        W80000  42.921  23.260   3.131
 7675W        W80001  43.728  39.507  11.646
 7676W        W80002  18.695  40.826  13.051
 7677W        W80003  20.010  15.814   2.783
 7678W        W80004  29.668  35.371   2.272
 7679W        W80005  24.091   8.931   5.266
 7680W        W80006  27.112   4.441  13.133
 7681W        W80007  27.676   8.157   4.242
 7682W        W80008  38.481  43.552   3.722
 7683W        W80009  44.508  41.291   0.419
 7684W        W80010  31.413  40.490  11.015
 7685W        W80011   6.947  16.303  14.300
 7686W        W80012  19.708   3.235  10.693
 7687W        W80013  38.856  25.234   0.792
 7688W        W80014  41.567  18.742   2.398
 7689W        W80015  29.544  13.711   4.179
 7690W        W80016  40.459  36.292   1.579
 7691W        W80017   3.971   9.666   2.844
 7692W        W80018  18.692  30.512   4.265
 7693W        W80019  42.067   5.556   1.361
 7694W        W80020  26.062  25.582  12.603
 7695W        W80021  14.107  38.885  12.001
 7696W        W80022  40.576   7.314   1.965
 7697W        W80023  11.919  31.188  10.024
 7698W        W80024   8.357  25.763  11.125
 7699W        W80025   6.364   1.281   1.842
 7700W        W80026  39.842  13.340   1.940
 7701W        W80027  25.613   9.128   1.166
 7702W        W80028  10.918  23.542   1.279
 7703W        W80029  24.922  17.139  10.256
 7704W        W80030   0.818  30.839   2.609
 7705W        W80031  16.687  22.972  12.198
 7706W        W80032  15.737  21.549   3.958
 7707W        W80033  10.834  25.259   5.119
 7708W        W80034  24.619  25.117  11.566
 7709W        W80035  13.616  22.984   2.888
 7710W        W80036  36.534   2.923   4.727
 7711W        W80037  27.205  18.599  13.809
 7712W        W80038   5.198  38.384  14.809
 7713W        W80039  16.900  10.356  11.089
 7714W        W80040  27.906  19.272  14.339
 7715W        W80041   2.954  12.599  14.347
 7716W        W80042   4.095  41.639   1.264
 7717W        W80043  44.785  12.152   3.694
 7718W        W80044  31.893  31.130  11.627
 7719W        W80045  39.788  43.245  12.823
 7720W        W80046   2.699   9.644   2.996
 7721W        W80047  11.844  13.872   2.353
 7722W        W80048   2.174  18.153   0.461
 7723W        W80049  22.999  44.675  14.251
 7724W        W80050  28.602  34.400   3.165
 7725W        W80051  12.165   5.043   0.866
 7726W        W80052  37.154  25.021   2.473
 7727W        W80053  17.284  14.651   0.815
 7728W        W80054   7.733  12.754   3.317
 7729W        W80055   5.413  11.314  10.951
 7730W        W80056  40.643  42.323   2.876
 7731W        W80057  11.421   4.464   1.677
 7732W        W80058  42.349  27.255  13.803
 7733W        W80059  27.451  26.599   2.118
 7734W        W80060  23.667   6.700  13.577
 7735W        W80061   0.704   4.663   1.712
 7736W        W80062  36.571  40.495   1.694
 7737W        W80063   9.299  44.764  14.459
 7738W        W80064   5.807   4.283   4.959
 7739W        W80065  39.262  20.338  11.149
 7740W        W80066  13.969  13.134  13.846
 7741W        W80067  10.809   8.171   1.322
 7742W        W80068  24.972  33.059  14.826
 7743W        W80069  14.358   2.871  13.232
 7744W        W80070   8.879  17.808   2.858
 7745W        W80071  44.166  22.221  11.040
 7746W        W80072  33.587   8.824   2.560
 7747W        W80073  26.426  25.529   4.309
 7748W        W80074   1.267   9.561   3.526
 7749W        W80075  38.973  15.107   1.221
 7750W        W80076  39.142   4.883  12.490
 7751W        W80077  39.386  26.709  13.256
 7752W        W80078   9.926  40.043   3.194
 7753W        W80079   0.740  40.289   4.206
 7754W        W80080  29.728  24.158  14.584
 7755W        W80081  19.867  21.532  13.768
 7756W        W80082   5.698   3.148  12.131
 7757W        W80083  16.644  22.769   3.712
 7758W        W80084  40.144  31.915   4.037
 7759W        W80085   0.984   6.567   2.634
 7760W        W80086  41.851  22.014   3.166
 7761W        W80087  32.197  29.131  12.725
 7762W        W80088   2.341  14.622  11.459
 7763W        W80089  36.958  26.188   1.823
 7764W        W80090  19.534  24.054  11.461
 7765W        W80091   6.698  14.051  12.501
 7766W        W80092   8.628  31.496  11.939
 7767W        W80093   6.043   9.933   0.708
 7768W        W80094  29.612  44.013   3.139
 7769W        W80095  29.709   8.587  10.464
 7770W        W80096   9.766  20.636  10.727
 7771W        W80097  16.323  36.842   3.749
 7772W        W80098   0.779  14.848  10.506
 7773W        W80099  24.934  21.805   3.112
 7774W        W80100  44.988  17.295   3.119
 7775W        W80101  29.152  43.481   1.293
 7776W        W80102   4.368  11.034   1.508
 7777W        W80103  17.341  31.452   0.782
 7778W        W80104  20.105  25.597   1.624
 7779W        W80105  29.586  29.572  11.524
 7780W        W80106  42.375  44.606  10.717
 7781W        W80107  38.546  16.768  11.397
 7782W        W80108   1.534  39.510   0.340
 7783W        W80109   4.669  35.885   3.100
 7784W        W80110  14.362   5.914   1.858
 7785W        W80111   4.196  12.142   5.139
 7786W        W80112  26.840  36.180   3.333
 7787W        W80113  11.789  38.311  10.673
 7788W        W80114  21.044   1.223  14.793
 7789W        W80115  38.602  27.173  11.001
 7790W        W80116  21.167   2.231  11.251
 7791W        W80117  10.326  39.494  10.754
 7792W        W80118  28.056  29.145   3.861
 7793W        W80119  34.858   1.936   2.437
 7794W        W80120   0.729  39.900   0.262
 7795W        W80121  23.015   4.451  12.873
 7796W        W80122  36.916   0.964   3.653
 7797W        W80123  31.849  20.603   2.675
 7798W        W80124  27.804  22.302   2.778
 7799W        W80125   9.415   5.176  13.433
 7800W        W80126   0.984  12.269  12.638
 7801W        W80127  34.567  39.792  12.485
 7802W        W80128  42.382  24.827  13.418
 7803W        W80129  29.309   4.588  12.536
 7804W        W80130  16.584  44.346   1.441
 7805W        W80131  33.211  44.329   3.229
 7806W        W80132   8.209  11.766  13.223
 7807W        W80133  11.045  30.621   1.845
 7808W        W80134   9.582  38.031  14.519
 7809W        W80135  16.924  41.442   0.492
 7810W        W80136  22.058  31.961   1.843
 7811W        W80137  39.665  33.231  14.504
 7812W        W80138  20.882  31.089  14.867
 7813W        W80139  12.234  16.196   0.161
 7814W        W80140  41.902  19.718  12.460
 7815W        W80141   1.571  34.989   2.423
 7816W        W80142  12.117   4.312   3.798
 7817W        W80143  12.646   9.401   4.117
 7818W        W80144  34.081  24.999  13.340
 7819W        W80145  20.149   0.204  14.884
 7820W        W80146  24.827   9.140  13.610
 7821W        W80147   8.829  10.171   1.471
 7822W        W80148   9.707  24.450  10.675
 7823W        W80149  34.424  19.471  13.044
 7824W        W80150  26.452   5.415  12.320
 7825W        W80151   7.942  34.270   0.031
 7826W        W80152  43.325   6.317  10.793
 7827W        W80153  16.007  29.610  11.484
 7828W        W80154  16.906  33.985  10.735
 7829W        W80155  30.988  37.503  10.887
 7830W        W80156  22.797  38.878  11.127
 7831W        W80157  20.493  40.356  12.444
 7832W        W80158   0.624   2.925   2.729
 7833W        W80159  27.565  18.212  12.814
 7834W        W80160  43.980   6.926   0.777
 7835W        W80161  31.442  38.868  10.592
 7836W        W80162  33.498  39.880   3.459
 7837W        W80163  36.692   5.783   4.703
 7838W        W80164   0.904  37.648   1.729
 7839W        W80165  14.818   0.556  11.377
 7840W        W80166   0.381  19.123   0.312
 7841W        W80167  24.739   2.589   0.897
 7842W        W80168   0.958  41.380  14.652
 7843W        W80169  31.515  30.141   4.127
 7844W        W80170  21.085  10.392   4.124
 7845W        W80171  43.666  29.677  14.166
 7846W        W80172  17.635  23.136   0.322
 7847W        W80173  12.058  31.428   0.876
 7848W        W80174  15.466  21.460   2.625
 7849W        W80175  20.101   5.641   3.164
 7850W        W80176  14.609  34.845   3.244
 7851W        W80177  29.566  37.272   3.570
 7852W        W80178  10.287  32.638  11.909
 7853W        W80179   2.162  18.290   3.424
 7854W        W80180   1.884  31.469   0.400
 7855W        W80181  38.937   3.313   2.558
 7856W        W80182  25.574  44.358   4.520
 7857W        W80183   2.812  12.796   4.150
 7858W        W80184   6.925  14.285   1.900
 7859W        W80185   9.627   6.977  11.166
 7860W        W80186  35.489  41.488  11.419
 7861W        W80187  40.914  31.166  12.926
 7862W        W80188  28.604   2.359   0.809
 7863W        W80189   8.489  16.543   4.125
 7864W        W80190  44.978  32.207   1.274
 7865W        W80191  39.760   9.320  12.746
 7866W        W80192  14.246  24.272   3.702
 7867W        W80193  24.730  14.171  11.574
 7868W        W80194  11.213  18.044   3.768
 7869W        W80195  26.632  37.433   3.331
 7870W        W80196  25.003  20.225   1.332
 7871W        W80197  38.103  16.701   1.460
 7872W        W80198  43.055   1.004  11.055
 7873W        W80199  28.099  41.240   1.671
 7874W        W80200  18.223  21.787   2.505
 7875W        W80201  40.440  27.458  10.741
 7876W        W80202  17.146   0.228  13.090
 7877W        W80203   8.201  19.221  10.964
 7878W        W80204  30.894   6.205  11.540
 7879W        W80205  25.298   6.677  11.166
 7880W        W80206   3.043  37.152   3.290
 7881W        W80207  37.466   3.983  10.379
 7882W        W80208  18.624  13.774   0.461
 7883W        W80209  21.302  41.759   0.212
 7884W        W80210  11.913  31.998  10.190
 7885W        W80211  41.595   6.121   2.691
 7886W        W80212  14.498  43.818   0.611
 7887W        W80213   0.526  18.804   0.680
 7888W        W80214  23.238  15.980  10.685
 7889W        W80215   6.707  39.255   3.270
 7890W        W80216   7.479   6.395   3.130
 7891W        W80217  24.672  35.805  12.973
 7892W        W80218  17.157   3.361   0.395
 7893W        W80219  24.183  17.071   1.845
 7894W        W80220  42.872  22.944   4.219
 7895W        W80221  13.370  22.994   0.191
 7896W        W80222  21.594  38.723   3.056
 7897W        W80223  20.950  32.396   4.179
 7898W        W80224   9.430  28.097  11.373
 7899W        W80225   7.240   4.636  13.463
 7900W        W80226  19.032  14.331   2.422
 7901W        W80227  43.530  27.645   1.057
 7902W        W80228  30.880  12.669  10.647
 7903W        W80229  16.978  16.276  13.486
 7904W        W80230  38.475   6.832   4.092
 7905W        W80231  13.896   4.257  13.290
 7906W        W80232  24.078  14.161  10.977
 7907W        W80233   8.483   9.246   1.092
 7908W        W80234  36.885  16.060   2.732
 7909W        W80235   8.715   7.389   4.120
 7910W        W80236  42.600  28.978  12.023
 7911W        W80237  13.804  12.616  10.661
 7912W        W80238  17.098   3.359  11.684
 7913W        W80239   8.637  10.718  11.539
 7914W        W80240  41.760  44.205   1.168
 7915W        W80241  24.669   0.029  11.524
 7916W        W80242   7.933  41.051  13.992
 7917W        W80243  36.171  20.786  10.682
 7918W        W80244  13.783  10.087  10.755
 7919W        W80245  21.332  20.644   3.329
 7920W        W80246  31.627  28.151  12.937
 7921W        W80247  33.034   6.561   1.280
 7922W        W80248  21.027  10.198  13.830
 7923W        W80249   0.446  38.629   2.426
 7924W        W80250  17.311  37.735  13.889
 7925W        W80251  30.405  21.279  11.689
 7926W        W80252  30.707  31.498  10.579
 7927W        W80253  32.019  21.460   0.777
 7928W        W80254  29.582  19.563   1.848
 7929W        W80255   8.647  39.362  14.868
 7930W        W80256  10.687  37.825   3.152
 7931W        W80257  36.061  20.097  13.547
 7932W        W80258  21.380  26.813   4.151
 7933W        W80259   4.483  44.203  13.052
 7934W        W80260  22.020  19.716   1.475
 7935W        W80261  10.236  12.001  14.806
 7936W        W80262  33.028  24.869   2.852
 7937W        W80263   0.520  12.546  11.952
 7938W        W80264  36.918  34.396   1.274
 7939W        W80265  38.119   8.819   2.358
 7940W        W80266   8.347  36.597   0.971
 7941W        W80267   7.431  20.264   1.707
 7942W        W80268   1.529  13.055  11.142
 7943W        W80269  12.480   7.035   2.164
 7944W        W80270  41.250  24.382  12.924
 7945W        W80271  32.449  40.445   4.007
 7946W        W80272  32.231  13.451   0.736
 7947W        W80273  39.028  24.285  12.508
 7948W        W80274  31.195  24.008   1.493
 7949W        W80275  22.272  11.067   1.345
 7950W        W80276  18.879   7.292   2.611
 7951W        W80277  29.498  40.926   2.321
 7952W        W80278   9.163  41.955  13.857
 7953W        W80279  11.662  14.098   0.065
 7954W        W80280  43.845  40.639   0.428
 7955W        W80281   3.289  31.729   0.749
 7956W        W80282  23.063  15.886  12.456
 7957W        W80283  35.724  12.621  12.469
 7958W        W80284  20.322  33.995   2.949
 7959W        W80285  20.497  11.361   4.517
 7960W        W80286  19.538   3.328   0.001
 7961W        W80287  12.465  15.222  14.872
 7962W        W80288  26.465   1.139  14.756
 7963W        W80289  25.903   3.846   4.443
 7964W        W80290  31.843  25.809   0.423
 7965W        W80291   2.540   6.001  11.057
 7966W        W80292   3.730  24.990  13.998
 7967W        W80293  26.609  15.968   9.702
 7968W        W80294   6.911  37.845   1.418
 7969W        W80295   1.268  10.780   2.652
 7970W        W80296  23.967  40.231   3.454
 7971W        W80297  33.959  28.481  13.937
 7972W        W80298  15.186  12.669  11.434
 7973W        W80299   5.151  20.890   2.452
 7974W        W80300  16.640  22.508  10.400
 7975W        W80301  44.468   0.336  10.440
 7976W        W80302  27.234  40.989  10.441
 7977W        W80303  26.326  36.109   3.422
 7978W        W80304  26.055  40.788  14.059
 7979W        W80305  24.281  12.008   4.257
 7980W        W80306  31.954   9.300  12.484
 7981W        W80307  22.252  33.876  13.985
 7982W        W80308  22.536  30.552   1.222
 7983W        W80309  15.869  16.888  13.110
 7984W        W80310  18.606  28.597   3.327
 7985W        W80311  39.773   8.999   2.974
 7986W        W80312  36.131  37.514   4.173
 7987W        W80313   9.579  23.469   0.247
 7988W        W80314  14.392  28.497  13.487
 7989W        W80315  31.497  10.143  11.546
 7990W        W80316  13.919  31.618   4.933
 7991W        W80317   3.222  15.798  10.646
 7992W        W80318  27.893   1.048  11.224
 7993W        W80319  22.963   8.424   3.689
 7994W        W80320   9.436  21.400  11.378
 7995W        W80321  34.512  29.426  12.021
 7996W        W80322  24.023  35.801   2.176
 7997W        W80323  12.231   6.620   4.190
 7998W        W80324  26.512  32.045  13.644
 7999W        W80325  28.748  24.720  12.527
 8000W        W80326  36.796  27.533   2.651
 8001W        W80327  43.390  28.350  14.814
 8002W        W80328  18.940  24.276  12.145
 8003W        W80329  36.883  22.850  14.577
 8004W        W80330  33.534  16.807  11.136
 8005W        W80331  36.627   2.858   3.320
 8006W        W80332   7.145  44.946  14.028
 8007W        W80333  11.763  11.410   4.571
 8008W        W80334  44.773  17.047  12.503
 8009W        W80335  32.540  40.185   1.843
 8010W        W80336  17.724   7.611   2.474
 8011W        W80337  26.387   3.480  13.426
 8012W        W80338  43.317   1.488  11.147
 8013W        W80339  23.102  30.088   4.163
 8014W        W80340   6.824  24.885  14.860
 8015W        W80341  11.867  37.581   0.252
 8016W        W80342  16.778  11.120  11.953
 8017W        W80343   4.691  23.527  13.144
 8018W        W80344   3.268  24.146  14.118
 8019W        W80345   9.623  18.471   1.727
 8020W        W80346  29.114  43.183  12.973
 8021W        W80347   9.152  40.656  13.080
 8022W        W80348   2.801  29.615  11.457
 8023W        W80349  43.031   5.177   2.249
 8024W        W80350  44.787  20.856   3.749
 8025W        W80351  38.570  30.054   1.012
 8026W        W80352   6.656  43.190   1.860
 8027W        W80353  31.016  27.491   4.199
 8028W        W80354  33.909   3.498  14.271
 8029W        W80355  23.183   9.358   0.249
 8030W        W80356  37.569  41.776  14.888
 8031W        W80357  32.887  24.027  11.920
 8032W        W80358   0.792  35.754   0.675
 8033W        W80359  21.698  36.921  14.467
 8034W        W80360   6.388  17.206   4.115
 8035W        W80361  18.604  10.748   4.541
 8036W        W80362   2.003  11.559   0.713
 8037W        W80363  34.673  22.587   2.210
 8038W        W80364  23.475   4.907  14.927
 8039W        W80365  40.074  11.508  14.563
 8040W        W80366  34.538  35.987  13.141
 8041W        W80367  28.711  24.384   3.994
 8042W        W80368   4.223  25.206  10.534
 8043W        W80369  17.784   4.827  11.901
 8044W        W80370  44.908  41.227  12.456
 8045W        W80371   3.771  42.199   3.673
 8046W        W80372  31.145   8.733  12.052
 8047W        W80373  24.672  10.876  14.059
 8048W        W80374  33.524  20.684   4.434
 8049W        W80375  35.602  13.036  13.372
 8050W        W80376   2.441  33.794   3.069
 8051W        W80377  22.281  36.291  14.384
 8052W        W80378   9.897   8.382   0.356
 8053W        W80379  34.394  18.587   4.248
 8054W        W80380  18.127  40.454   1.931
 8055W        W80381  26.599   9.604  12.949
 8056W        W80382   9.580  36.779  14.517
 8057W        W80383  24.598  38.845  10.645
 8058W        W80384  42.314  12.252   3.274
 8059W        W80385   7.257  23.014   4.107
 8060W        W80386   8.707   0.293   1.826
 8061W        W80387  26.225  17.331  13.603
 8062W        W80388   7.760   6.799  13.945
 8063W        W80389  18.127  15.386   2.408
 8064W        W80390  18.128  33.041  11.151
 8065W        W80391  38.076   3.934   2.753
 8066W        W80392  10.337  20.743   3.700
 8067W        W80393   2.733   2.205  14.385
 8068W        W80394  41.541  20.927   4.932
 8069W        W80395  15.173  38.317  13.088
 8070W        W80396  13.224  15.595   2.005
 8071W        W80397  19.100  18.384  13.331
 8072W        W80398  27.484  43.529  13.442
 8073W        W80399  26.223  19.282   0.312
 8074W        W80400  23.660  19.997   3.621
 8075W        W80401  34.974  39.306  12.070
 8076W        W80402   2.833  23.788   3.651
 8077W        W80403  44.011  43.980  10.524
 8078W        W80404   8.359   8.613   3.575
 8079W        W80405  14.861  30.456   2.297
 8080W        W80406  31.488  37.653   1.249
 8081W        W80407   5.201  15.357  13.692
 8082W        W80408  29.378  42.962  11.991
 8083W        W80409  33.031  24.700   0.803
 8084W        W80410  35.385  32.693   3.753
 8085W        W80411  29.193  44.814   0.862
 8086W        W80412  37.502  19.824  12.901
 8087W        W80413  31.132   5.753  10.706
 8088W        W80414  40.253   7.292  11.739
 8089W        W80415   7.017  37.372   0.399
 8090W        W80416  33.668  22.739   2.246
 8091W        W80417  24.889   5.555   1.058
 8092W        W80418   7.542   3.243   1.135
 8093W        W80419  16.716   1.334   0.003
 8094W        W80420  16.052  44.030  14.706
 8095W        W80421  42.863  23.327   1.238
 8096W        W80422  28.658   0.840   3.474
 8097W        W80423  34.338  36.645  11.539
 8098W        W80424   4.754   9.875   0.955
 8099W        W80425  17.541  28.741  13.113
 8100W        W80426   3.168  28.470   1.020
 8101W        W80427  28.136  26.047  11.253
 8102W        W80428  35.359  30.202   3.009
 8103W        W80429   6.475  36.673   3.304
 8104W        W80430  21.600  18.826   1.706
 8105W        W80431  18.600  28.991  14.896
 8106W        W80432  21.268   2.480   1.959
 8107W        W80433   0.380  15.588  13.412
 8108W        W80434  11.029  35.124   5.547
 8109W        W80435   3.820  28.991  13.781
 8110W        W80436  43.748  12.604   3.722
 8111W        W80437  30.080  22.837   0.159
 8112W        W80438   7.886  22.151  12.821
 8113W        W80439  44.751  12.143  13.602
 8114W        W80440  12.798  22.002   5.070
 8115W        W80441   1.486   8.809   0.883
 8116W        W80442  42.033  18.260   0.317
 8117W        W80443   3.623   3.542   4.239
 8118W        W80444  44.306  39.988  14.632
 8119W        W80445   7.189  35.099  14.943
 8120W        W80446  29.454  40.578   0.985
 8121W        W80447   2.161  29.629   3.536
 8122W        W80448   1.889  26.892  13.840
 8123W        W80449  11.945  44.880   1.527
 8124W        W80450  40.576   9.020   3.999
 8125W        W80451  33.950  31.616   3.327
 8126W        W80452  43.912  30.629  11.200
 8127W        W80453  26.510  26.076   1.492
 8128W        W80454  41.995  20.584  11.502
 8129W        W80455  22.234  38.836   0.680
 8130W        W80456  15.923  34.967   3.756
 8131W        W80457  25.389  33.999   4.853
 8132W        W80458  14.709  13.653   2.597
 8133W        W80459  42.533  11.870  12.606
 8134W        W80460  37.569  38.461   3.821
 8135W        W80461  44.479  26.532  13.145
 8136W        W80462  37.492  26.687   2.397
 8137W        W80463  24.581  17.642   1.307
 8138W        W80464  19.328  24.047  13.401
 8139W        W80465  35.310  42.411  14.159
 8140W        W80466  38.167  15.545  11.557
 8141W        W80467  34.412  16.688   4.406
 8142W        W80468   6.015  36.537   5.102
 8143W        W80469  16.079  29.942  13.549
 8144W        W80470  40.550   0.005   2.970
 8145W        W80471  28.713  17.230   2.709
 8146W        W80472  29.529  32.225   1.351
 8147W        W80473  41.957  14.276   5.117
 8148W        W80474   0.714  35.306   2.648
 8149W        W80475   8.479  40.087   4.275
 8150W        W80476  15.549  28.914   1.024
 8151W        W80477  25.000  40.438  14.808
 8152W        W80478  43.489  15.823  14.324
 8153W        W80479  41.456  16.564   3.713
 8154W        W80480   2.814  39.820   4.148
 8155W        W80481  35.419  32.962  13.795
 8156W        W80482  25.483   6.597   4.020
 8157W        W80483  11.010  25.885   4.308
 8158W        W80484   2.134  11.041   4.630
 8159W        W80485   8.845   5.741  12.484
 8160W        W80486  28.454  24.252   2.647
 8161W        W80487  41.328  26.168   2.588
 8162W        W80488   4.883  28.259  11.420
 8163W        W80489  29.636  34.676  12.628
 8164W        W80490  42.747  20.755   1.395
 8165W        W80491  35.863  41.874   3.671
 8166W        W80492   3.898  24.628  11.660
 8167W        W80493   1.094  40.291   4.573
 8168W        W80494  41.440  39.262   1.856
 8169W        W80495  25.009  29.722   2.261
 8170W        W80496  22.997  25.943  10.899
 8171W        W80497  26.978  12.167   0.212
 8172W        W80498  18.322  38.420   1.291
 8173W        W80499   2.288  14.237  14.750
 8174W        W80500  11.150  14.615  13.839
 8175W        W80501  23.470  11.659   2.320
 8176W        W80502   4.125  18.246   4.833
 8177W        W80503  18.083   8.456   2.286
 8178W        W80504   7.794   0.285  12.166
 8179W        W80505  42.405  34.833   4.655
 8180W        W80506  44.845  38.860  14.887
 8181W        W80507  30.723  22.416   0.850
 8182W        W80508   4.425   4.944   0.849
 8183W        W80509   1.684  19.000  11.117
 8184W        W80510  37.096  14.611  14.364
 8185W        W80511  44.180  16.597   3.265
 8186W        W80512  33.878   1.517  10.464
 8187W        W80513  15.760  37.222   2.679
 8188W        W80514  10.926  43.806  11.231
 8189W        W80515  38.808  33.859   5.023
 8190W        W80516  23.543  42.804  13.911
 8191W        W80517  11.535   1.566  14.734
 8192W        W80518  41.094  35.808  14.953
 8193W        W80519  14.354  16.221   4.090
 8194W        W80520   4.482   6.427  12.324
 8195W        W80521  37.543  43.383   2.767
 8196W        W80522  29.404  41.902   1.790
 8197W        W80523  37.519  29.150  11.396
 8198W        W80524   2.102  44.408  12.374
 8199W        W80525   5.589  23.287  14.602
 8200W        W80526  22.638  19.339  13.980
 8201W        W80527  35.839  26.726   0.766
 8202W        W80528  13.711  36.573   0.828
 8203W        W80529   9.599  22.097   0.282
 8204W        W80530  31.451   6.182  10.677
 8205W        W80531  17.905  44.297   2.317
 8206W        W80532  42.523  32.686   2.341
 8207W        W80533  13.247  29.243   3.244
 8208W        W80534  22.378  41.704  13.056
 8209W        W80535  43.292  44.527  13.037
 8210W        W80536   5.379  36.036   2.656
 8211W        W80537  28.635  25.712  10.115
 8212W        W80538   6.169  11.803   1.743
 8213W        W80539   5.794   1.227  10.678
 8214W        W80540  35.091  27.486  11.572
 8215W        W80541  22.565   0.553   2.955
 8216W        W80542  10.593   4.462   2.786
 8217W        W80543  38.746   0.959  14.101
 8218W        W80544   1.022  32.832   0.533
 8219W        W80545  21.091  36.597  12.058
 8220W        W80546  14.936   4.422   0.959
 8221W        W80547  20.754   7.417  13.442
 8222W        W80548  30.938  18.831  13.699
 8223W        W80549   5.960   7.387  11.130
 8224W        W80550  28.234  33.151  10.425
 8225W        W80551  14.626  11.682  10.562
 8226W        W80552  39.637  28.625  12.807
 8227W        W80553  37.604  16.998  12.302
 8228W        W80554  36.617  10.292   3.971
 8229W        W80555  33.671   1.699  13.460
 8230W        W80556  14.359  27.175  14.542
 8231W        W80557   6.710  20.191   0.210
 8232W        W80558  20.624  10.612  13.190
 8233W        W80559  15.526  37.411  10.327
 8234W        W80560  10.866  24.504   2.732
 8235W        W80561  39.759   6.984   4.478
 8236W        W80562  12.127  25.063  13.971
 8237W        W80563  41.923  27.439  12.451
 8238W        W80564   0.567   5.044  10.312
 8239W        W80565  18.785  26.629   9.749
 8240W        W80566  16.323  38.383  14.378
 8241W        W80567  39.484   0.403   2.718
 8242W        W80568  27.542  36.939   0.416
 8243W        W80569  37.935   9.851  13.506
 8244W        W80570  28.450  33.573   2.886
 8245W        W80571  36.353  27.121   3.052
 8246W        W80572  40.058   2.225   2.299
 8247W        W80573  22.235  11.840   0.666
 8248W        W80574  14.547   5.057  11.149
 8249W        W80575  15.358  31.334  11.430
 8250W        W80576  26.753  30.396  13.839
 8251W        W80577  27.209  29.462  10.647
 8252W        W80578  17.265  14.494   4.310
 8253W        W80579  41.547  18.289   4.589
 8254W        W80580   7.754  11.735   0.225
 8255W        W80581  25.722   3.565   5.141
 8256W        W80582  11.381  24.684  13.604
 8257W        W80583  33.608  36.958   2.428
 8258W        W80584  29.596  37.210  11.520
 8259W        W80585   2.255  18.710  14.878
 8260W        W80586  39.999  10.600  12.960
 8261W        W80587   1.446   1.913   2.667
 8262W        W80588  36.793   3.322   3.717
 8263W        W80589  16.622  35.316  13.757
 8264W        W80590   4.224   4.927  10.505
 8265W        W80591   9.774  32.135   3.432
 8266W        W80592  37.798  18.672  13.348
 8267W        W80593  33.946  40.252  12.011
 8268W        W80594  30.346  44.821   3.862
 8269W        W80595  15.203   5.492  10.716
 8270W        W80596  11.186  25.613   3.346
 8271W        W80597  26.998   9.638   0.959
 8272W        W80598  33.061  43.555   0.343
 8273W        W80599   7.884  26.062   0.363
 8274W        W80600  44.304  35.917   0.393
 8275W        W80601   0.320  42.174  13.179
 8276W        W80602  35.079  12.939   0.753
 8277W        W80603  10.769  19.384   0.353
 8278W        W80604  34.284  34.557  13.894
 8279W        W80605  19.733  24.459  10.703
 8280W        W80606  35.916  16.426  12.649
 8281W        W80607  10.835  20.552  10.713
 8282W        W80608   6.017  12.103  12.055
 8283W        W80609  44.818  12.222  13.026
 8284W        W80610  16.249  19.805   5.069
 8285W        W80611  15.180   4.978  10.829
 8286W        W80612  32.873   6.721  13.555
 8287W        W80613  16.585  16.278   4.033
 8288W        W80614   4.665  39.378  14.917
 8289W        W80615  22.822  15.449  12.851
 8290W        W80616  19.940  15.768  14.985
 8291W        W80617  10.837  15.174   1.697
 8292W        W80618  14.452  24.807   2.919
 8293W        W80619   7.838  42.843   3.223
 8294W        W80620  28.967  41.463   1.186
 8295W        W80621  37.801  22.767  11.497
 8296W        W80622   8.782  44.971   4.066
 8297W        W80623  11.660  38.800   0.748
 8298W        W80624  15.676  35.952   2.837
 8299W        W80625  27.466   7.112   4.326
 8300W        W80626   4.296  37.450  12.191
 8301W        W80627  26.443  12.327  14.464
 8302W        W80628   1.851  16.688  14.087
 8303W        W80629  25.118  39.037   0.790
 8304W        W80630   2.169   9.587  11.323
 8305W        W80631  15.623  16.299   2.304
 8306W        W80632   1.689  38.152  11.099
 8307W        W80633  32.053  16.119  14.427
 8308W        W80634  35.145  28.506   4.231
 8309W        W80635  35.985  34.012  14.789
 8310W        W80636  20.640  38.284   1.235
 8311W        W80637   4.376  32.580   2.064
 8312W        W80638  41.520  33.408   0.364
 8313W        W80639  16.382  12.865   4.108
 8314W        W80640  32.824  34.582   5.487
 8315W        W80641  36.590   9.797   0.349
 8316W        W80642  26.150  12.856  11.958
 8317W        W80643  41.116  40.459   4.251
 8318W        W80644  37.921  44.280   2.499
 8319W        W80645  13.071  10.138  14.830
 8320W        W80646  25.018   9.159  12.378
 8321W        W80647  32.871  27.019  13.405
 8322W        W80648  21.144  39.127   2.586
 8323W        W80649  20.708   4.229  11.143
 8324W        W80650  24.966  23.903   0.850
 8325W        W80651  15.282  36.449   3.876
 8326W        W80652  35.343   7.846  14.798
 8327W        W80653   4.258  12.997   0.867
 8328W        W80654   5.960  39.941   4.130
 8329W        W80655  24.899  30.212   2.149
 8330W        W80656  17.567  34.411   4.021
 8331W        W80657   2.906  36.553  12.065
 8332W        W80658  26.580  39.951  13.174
 8333W        W80659   8.865  33.080   2.203
 8334W        W80660  35.468   8.479  13.964
 8335W        W80661   2.428  43.590  13.236
 8336W        W80662  36.096  24.522   1.773
 8337W        W80663  33.210   3.135  14.712
 8338W        W80664  25.145  29.173  11.175
 8339W        W80665  19.994  19.764   3.342
 8340W        W80666  31.014  36.810   2.733
 8341W        W80667  39.075  14.626   0.340
 8342W        W80668  28.220  39.144   5.076
 8343W        W80669   9.115  14.959   3.922
 8344W        W80670  29.380  34.956   2.407
 8345W        W80671  26.147   4.449   2.115
 8346W        W80672  41.026   5.062   3.115
 8347W        W80673  27.318  14.134   2.185
 8348W        W80674   4.239  35.096   1.831
 8349W        W80675  11.719   4.649  13.898
 8350W        W80676   0.842  43.598  12.071
 8351W        W80677   4.250   9.796  12.485
 8352W        W80678  42.987  11.124   2.858
 8353W        W80679   1.720   1.091   4.805
 8354W        W80680   4.948  19.639   9.859
 8355W        W80681  30.757   2.645   4.127
 8356W        W80682  35.329  41.978  11.152
 8357W        W80683  36.453  34.618  12.363
 8358W        W80684  18.010  41.337   1.841
 8359W        W80685  24.931  37.421   2.927
 8360W        W80686   1.968  35.485  12.355
 8361W        W80687  16.736  29.517   0.999
 8362W        W80688  14.762  17.131  10.861
 8363W        W80689  43.487  41.225  10.989
 8364W        W80690  44.904  43.540   1.822
 8365W        W80691  13.349   2.591  12.002
 8366W        W80692  31.604   8.363  11.678
 8367W        W80693  26.095   4.554   1.266
 8368W        W80694   3.848   5.398  12.188
 8369W        W80695  34.769  38.388  14.462
 8370W        W80696  20.739  34.342  12.621
 8371W        W80697  25.601  10.754   3.351
 8372W        W80698  17.194   2.193   0.321
 8373W        W80699  22.523  13.121   2.965
 8374W        W80700   7.217   4.366   4.524
 8375W        W80701  22.778   6.835  14.035
 8376W        W80702   3.542  33.031  11.693
 8377W        W80703  12.085   9.565   2.568
 8378W        W80704  11.223  19.337  12.614
 8379W        W80705   6.376  37.013   3.706
 8380W        W80706   3.174  32.768   0.788
 8381W        W80707   8.351  30.073   2.637
 8382W        W80708  12.790  23.550   3.532
 8383W        W80709  43.977  20.721   3.402
 8384W        W80710  24.634   9.807  12.567
 8385W        W80711   3.721  27.105   1.792
 8386W        W80712  36.530  43.257   2.128
 8387W        W80713  36.864  14.740   2.020
 8388W        W80714  39.967  11.109   2.201
 8389W        W80715   7.772   0.439   0.366
 8390W        W80716  22.824  12.764  14.018
 8391W        W80717  17.110  35.854   2.614
 8392W        W80718  33.107  37.845  10.567
 8393W        W80719  12.578   9.297  11.537
 8394W        W80720  15.132  32.818  11.305
 8395W        W80721  40.520  26.471  12.884
 8396W        W80722  20.013  27.120  10.694
 8397W        W80723  26.945  12.670   1.438
 8398W        W80724  21.159  38.006   3.276
 8399W        W80725  22.511   8.226  12.647
 8400W        W80726  21.244  11.054   2.317
 8401W        W80727  14.850  32.428  11.139
 8402W        W80728   2.948  43.887   0.350
 8403W        W80729   2.733  13.758  12.924
 8404W        W80730  40.536  14.363  12.437
 8405W        W80731  23.192  28.489  12.409
 8406W        W80732  14.192   6.272   1.506
 8407W        W80733  32.133  39.483  10.716
 8408W        W80734  18.065  27.687   3.160
 8409W        W80735  44.348  43.397   4.045
 8410W        W80736  26.223  38.608   2.358
 8411W        W80737  27.650  44.309  11.735
 8412W        W80738  43.157   7.468   2.181
 8413W        W80739  42.774  44.603   0.263
 8414W        W80740   0.410  24.459  13.834
 8415W        W80741  43.366  32.709  10.905
 8416W        W80742   6.697  21.815   4.050
 8417W        W80743  22.032  19.760  12.832
 8418W        W80744  15.745  27.968   0.948
 8419W        W80745  42.337  12.572  10.762
 8420W        W80746   6.103   0.332   1.970
 8421W        W80747  32.775  22.160   0.288
 8422W        W80748  34.438  22.543   3.655
 8423W        W80749  38.052  37.088   1.032
 8424W        W80750  10.208  41.003   4.091
 8425W        W80751  20.257  34.914   4.560
 8426W        W80752  28.657  31.143  12.827
 8427W        W80753  16.097  42.616  11.983
 8428W        W80754  12.037  41.527   4.139
 8429W        W80755   2.819   6.792  11.179
 8430W        W80756  31.412  23.818  11.238
 8431W        W80757  34.863  23.018  11.753
 8432W        W80758  12.998  27.104  11.860
 8433W        W80759  34.171   6.918  11.583
 8434W        W80760   9.431  29.833  10.770
 8435W        W80761  38.845  32.465  12.846
 8436W        W80762  22.430  12.686   1.695
 8437W        W80763  21.854  19.251   3.550
 8438W        W80764  20.204  30.306  12.079
 8439W        W80765  10.307  42.196   4.601
 8440W        W80766   0.699   8.732   4.108
 8441W        W80767  28.080  14.039   4.539
 8442W        W80768   8.782  26.642   9.963
 8443W        W80769   6.664  32.606  12.872
 8444W        W80770   8.424   4.431   3.248
 8445W        W80771  20.732  12.248  12.485
 8446W        W80772  38.534  14.545  14.963
 8447W        W80773  44.241  28.905   2.288
 8448W        W80774  27.040  25.302  11.081
 8449W        W80775  24.046  36.407  10.671
 8450W        W80776  26.081  25.426  11.107
 8451W        W80777  42.357   2.473  14.894
 8452W        W80778  16.995   6.768   1.182
 8453W        W80779   6.073  18.768   4.062
 8454W        W80780  18.995  33.413   5.039
 8455W        W80781   0.238   0.355  12.167
 8456W        W80782   8.075  36.426   4.186
 8457W        W80783  10.128  18.200  11.221
 8458W        W80784  15.814  20.215  13.102
 8459W        W80785  15.267   4.214   1.309
 8460W        W80786  27.197  42.000   0.964
 8461W        W80787  42.180  39.611  11.415
 8462W        W80788  12.300  38.409  13.583
 8463W        W80789  36.476   7.291   4.686
 8464W        W80790  39.402  22.713  12.444
 8465W        W80791   9.668  21.667  10.603
 8466W        W80792  14.785   7.808  12.517
 8467W        W80793  16.143  41.424   5.005
 8468W        W80794   3.180   5.148  11.580
 8469W        W80795  43.455  26.978   3.757
 8470W        W80796  30.637  25.067   4.543
 8471W        W80797  16.836  11.274  13.743
 8472W        W80798   9.416   7.291   2.758
 8473W        W80799  14.345  23.128  10.729
 8474W        W80800  38.077  15.524   2.256
 8475W        W80801   1.744  19.458   3.104
 8476W        W80802  28.944  32.853   0.974
 8477W        W80803  43.264   0.549   3.720
 8478W        W80804  40.990   1.960   2.184
 8479W        W80805  44.993  29.160  14.395
 8480W        W80806  10.053  12.671  12.179
 8481W        W80807  12.454  38.551   4.845
 8482W        W80808  21.095  42.813   2.953
 8483W        W80809  12.864  25.944  13.288
 8484W        W80810  44.833  18.635   1.650
 8485W        W80811  25.418  27.493   2.441
 8486W        W80812  19.341  10.524  12.313
 8487W        W80813  23.542  41.329  13.348
 8488W        W80814  17.916  16.295   4.011
 8489W        W80815  27.456  36.492   2.216
 8490W        W80816  10.152  41.045  13.555
 8491W        W80817  35.684  21.031   0.440
 8492W        W80818  30.142   3.772  11.162
 8493W        W80819   5.355   3.555  12.346
 8494W        W80820  26.605  12.558  10.086
 8495W        W80821  32.158   0.857   2.184
 8496W        W80822  11.791   3.821   2.628
 8497W        W80823   7.810  43.007  13.139
 8498W        W80824  43.903  30.123   2.842
 8499W        W80825  38.891  22.652  12.425
 8500W        W80826  18.747  42.282  11.144
 8501W        W80827   2.675  32.053   4.713
 8502W        W80828   9.372  39.946   2.215
 8503W        W80829  24.048   0.469  14.554
 8504W        W80830  34.120   4.130  13.764
 8505W        W80831  23.057   7.763  13.769
 8506W        W80832   1.685  16.218  13.555
 8507W        W80833  22.604  18.556  14.292
 8508W        W80834  37.615  28.810  12.890
 8509W        W80835  26.193  18.585  11.854
 8510W        W80836  26.594   5.981  10.711
 8511W        W80837  10.119   8.730  10.632
 8512W        W80838  28.131  29.461  14.209
 8513W        W80839   2.747  36.924   0.432
 8514W        W80840  25.946   1.659   1.696
 8515W        W80841  43.226  10.701   3.736
 8516W        W80842  17.717  21.705  14.974
 8517W        W80843  26.559  16.463  14.841
 8518W        W80844  37.469  22.712  12.213
 8519W        W80845  27.265   4.483  14.109
 8520W        W80846  32.822  43.695  14.901
 8521W        W80847  28.473  17.255   2.241
 8522W        W80848  33.872  28.730   3.716
 8523W        W80849  31.595  17.026   3.101
 8524W        W80850  33.650  43.737  11.598
 8525W        W80851   7.895  33.444   4.132
 8526W        W80852  23.110  28.669   3.301
 8527W        W80853  17.548  20.491  14.489
 8528W        W80854  28.986   6.673  13.160
 8529W        W80855  40.246  12.649  11.540
 8530W        W80856  18.831  31.070  13.802
 8531W        W80857  13.199  36.972   2.594
 8532W        W80858  41.468   4.262  12.647
 8533W        W80859  14.065  40.290   2.701
 8534W        W80860   0.239  38.053  11.258
 8535W        W80861   1.492  15.934   0.655
 8536W        W80862  37.566   8.043   4.198
 8537W        W80863  15.852  15.306   1.005
 8538W        W80864  23.975  41.569  13.561
 8539W        W80865  27.706  34.463  12.904
 8540W        W80866  31.098   1.310   0.864
 8541W        W80867  24.909  12.438  12.157
 8542W        W80868  18.007   8.359  14.359
 8543W        W80869  43.808  37.772  14.270
 8544W        W80870  25.979  18.541  14.883
 8545W        W80871  37.018   2.264   2.439
 8546W        W80872  17.546  41.399  11.999
 8547W        W80873  27.425  32.450   4.158
 8548W        W80874   3.365  19.037  12.533
 8549W        W80875   1.394  41.385   0.693
 8550W        W80876  30.903   2.241  13.038
 8551W        W80877   3.352  14.061   4.171
 8552W        W80878  37.091   5.905   1.738
 8553W        W80879   8.200  16.387  11.175
 8554W        W80880  44.210  21.830  10.579
 8555W        W80881  44.417  22.719   3.191
 8556W        W80882   0.102  25.792  14.763
 8557W        W80883  42.442   4.228  13.565
 8558W        W80884   4.386  13.106   2.205
 8559W        W80885  34.533   0.738  12.048
 8560W        W80886   9.736  18.732   1.287
 8561W        W80887  19.477  31.045   1.327
 8562W        W80888  16.886  39.863   4.657
 8563W        W80889  42.305  28.088  12.027
 8564W        W80890  26.107  17.177   5.050
 8565W        W80891  13.847  12.644   3.244
 8566W        W80892   3.350   7.925  14.952
 8567W        W80893  14.573   8.292   4.887
 8568W        W80894  38.166  24.086  13.392
 8569W        W80895  16.798  30.219  12.156
 8570W        W80896  15.605  10.309   4.082
 8571W        W80897  40.582   9.806   4.313
 8572W        W80898  10.361  22.040   2.741
 8573W        W80899  41.038  40.276  10.745
 8574W        W80900  41.263  23.030   1.770
 8575W        W80901  18.969   4.366   1.131
 8576W        W80902   6.403  11.883  13.444
 8577W        W80903   1.637  11.781  11.014
 8578W        W80904  28.206  40.049   2.457
 8579W        W80905  13.580  28.094   4.231
 8580W        W80906  24.804   3.274   0.942
 8581W        W80907  39.552  44.679   1.369
 8582W        W80908  27.766  25.363  14.037
 8583W        W80909  31.870  10.240  12.491
 8584W        W80910  11.792  42.840   1.521
 8585W        W80911   1.752  31.502   1.946
 8586W        W80912  33.956  10.657  10.904
 8587W        W80913  39.126  13.024  13.066
 8588W        W80914  42.912  34.026  12.195
 8589W        W80915  10.658  40.601   4.782
 8590W        W80916  28.079   8.713   3.696
 8591W        W80917   5.137  37.937   1.431
 8592W        W80918  40.913  25.423  12.061
 8593W        W80919  36.043  33.562  13.025
 8594W        W80920  36.874  10.315   4.938
 8595W        W80921  23.659   5.742  13.890
 8596W        W80922  21.773  36.831  11.523
 8597W        W80923  24.186  37.031   2.647
 8598W        W80924   7.757   5.443   1.402
 8599W        W80925  10.824  43.777  12.997
 8600W        W80926  22.216  30.647   4.192
 8601W        W80927  34.126  34.190   3.259
 8602W        W80928  30.609   4.756  10.091
 8603W        W80929  36.400   9.980   4.351
 8604W        W80930  39.777  17.695   3.327
 8605W        W80931  17.383  19.429  13.333
 8606W        W80932  23.487  40.808  13.302
 8607W        W80933  34.636  36.000   3.157
 8608W        W80934  33.041  25.983   2.937
 8609W        W80935  35.322  26.828  13.564
 8610W        W80936  31.027  36.118  11.061
 8611W        W80937  26.744  42.358  13.125
 8612W        W80938  39.318  26.502  14.954
 8613W        W80939  33.040  12.367   3.151
 8614W        W80940  10.970  16.214  14.529
 8615W        W80941  29.002  37.058  14.536
 8616W        W80942   9.673  10.393  14.495
 8617W        W80943  20.687  32.712  13.818
 8618W        W80944  37.835  16.820   3.790
 8619W        W80945   9.682  30.033   1.917
 8620W        W80946  39.440  31.271  13.473
 8621W        W80947  27.921  10.057   4.597
 8622W        W80948  33.386   3.749   4.168
 8623W        W80949  25.783  42.384  10.386
 8624W        W80950   3.070   5.404   9.860
 8625W        W80951   6.235  19.163  12.176
 8626W        W80952  42.368  42.569   2.717
 8627W        W80953  33.068   4.889   5.010
 8628W        W80954  43.293  10.302  12.936
 8629W        W80955  10.710   9.875  14.241
 8630W        W80956  43.967  36.138   3.113
 8631W        W80957  14.110   9.927   5.018
 8632W        W80958  26.537  13.310  12.986
 8633W        W80959  29.529  37.495   0.867
 8634W        W80960  29.446  35.510  13.276
 8635W        W80961  16.784  44.377   3.222
 8636W        W80962  15.829  17.835  14.775
 8637W        W80963  31.714   6.683   3.705
 8638W        W80964  36.884  34.263  14.882
 8639W        W80965   1.534  22.655  12.550
 8640W        W80966  17.173  38.408  13.322
 8641W        W80967  13.962  25.444  10.468
 8642W        W80968  43.781  32.858   0.729
 8643W        W80969  26.953   4.488   3.718
 8644W        W80970   4.214  11.342   4.631
 8645W        W80971  44.799  28.666  14.375
 8646W        W80972  25.082  30.358  10.771
 8647W        W80973  15.060  36.562  10.344
 8648W        W80974   7.298   5.958   2.924
 8649W        W80975  16.155  10.859  11.625
 8650W        W80976  31.508  30.440  14.841
 8651W        W80977  28.103   6.134  13.931
 8652W        W80978  14.612  27.136   9.773
 8653W        W80979   7.263   8.719  14.197
 8654W        W80980  25.592   1.252   1.766
 8655W        W80981  25.061   8.443   4.622
 8656W        W80982  21.083  25.618  14.620
 8657W        W80983  11.801  36.074  13.755
 8658W        W80984  13.335  42.742  13.532
 8659W        W80985   1.916  23.594  12.482
 8660W        W80986   8.586   6.839   2.603
 8661W        W80987  31.142  36.792  12.355
 8662W        W80988  44.352  12.896  11.483
 8663W        W80989   8.182  17.345   1.787
 8664W        W80990  40.374  13.140  11.427
 8665W        W80991  21.681  24.607   0.888
 8666W        W80992  38.803  24.475   2.723
 8667W        W80993  34.852  11.074  14.710
 8668W        W80994  33.379  40.000  12.827
 8669W        W80995   6.272  12.227  11.633
 8670W        W80996  17.530   2.494  10.736
 8671W        W80997  36.048  24.924  10.650
 8672W        W80998  29.845  38.013  13.821
 8673W        W80999   0.269  14.000  14.107
 8674W        W81000  29.126  26.194   0.429
 8675W        W81001  26.257  44.943  14.907
 8676W        W81002  16.262  13.492   3.082
 8677W        W81003  14.383   9.383   2.129
 8678W        W81004  18.348  32.535  12.486
 8679W        W81005  17.006  20.833  11.596
 8680W        W81006  34.033  38.083   1.179
 8681W        W81007  15.310   0.931   4.517
 8682W        W81008   1.367  23.120   0.765
 8683W        W81009   7.727   1.258   4.423
 8684W        W81010  18.155  43.005  12.207
 8685W        W81011  11.392  16.970   0.019
 8686W        W81012  14.746  31.937   0.054
 8687W        W81013   2.205  42.420   3.716
 8688W        W81014   6.830  44.840  10.681
 8689W        W81015   7.664   8.094   4.193
 8690W        W81016  33.112  17.048   4.561
 8691W        W81017  44.522  12.648  10.218
 8692W        W81018  31.418  17.727  14.886
 8693W        W81019  34.040  28.141  11.960
 8694W        W81020   2.452  30.621  11.590
 8695W        W81021  13.101  17.825   3.813
 8696W        W81022  39.952   5.956   2.753
 8697W        W81023  41.065  23.500   1.915
 8698W        W81024  24.621  11.053  13.579
 8699W        W81025  18.653  38.476  10.532
 8700W        W81026  15.589  16.118  11.465
 8701W        W81027  42.286  28.646   0.878
 8702W        W81028  24.259   4.605   1.603
 8703W        W81029  43.476  40.764  10.740
 8704W        W81030  38.345  13.619  10.424
 8705W        W81031  24.103   5.408  11.255
 8706W        W81032  20.641  35.904   2.427
 8707W        W81033   9.124  24.518  13.481
 8708W        W81034  23.951   0.842   1.248
 8709W        W81035  22.700  26.500   3.201
 8710W        W81036  19.967  19.680  11.491
 8711W        W81037  43.209   6.059  12.733
 8712W        W81038  31.029   8.006   4.010
 8713W        W81039  24.801  39.499  13.304
 8714W        W81040  22.213  43.481  11.430
 8715W        W81041  12.242  27.024   4.802
 8716W        W81042  44.412   6.230   4.024
 8717W        W81043  31.172  42.889   4.162
 8718W        W81044  15.727  26.450  13.312
 8719W        W81045  44.566   1.273  11.531
 8720W        W81046   7.555   0.459  10.949
 8721W        W81047  30.614  23.443  13.884
 8722W        W81048  38.522  28.934   3.726
 8723W        W81049  28.916  35.433   2.766
 8724W        W81050  11.233   2.401   3.263
 8725W        W81051  29.023  25.440  10.906
 8726W        W81052   4.021   0.683   3.999
 8727W        W81053  42.827  11.804  11.560
 8728W        W81054   0.631  18.417  10.188
 8729W        W81055  15.568  12.021   3.718
 8730W        W81056  30.339  15.227   2.190
 8731W        W81057  16.775  11.206  14.294
 8732W        W81058  10.350  28.363   4.376
 8733W        W81059  37.449  40.728  14.810
 8734W        W81060   7.459   6.804   3.912
 8735W        W81061  25.625  43.502   2.117
 8736W        W81062  44.792  41.474  12.910
 8737W        W81063   0.917  10.445   1.265
 8738W        W81064  27.876  22.243  11.871
 8739W        W81065   9.371  35.547   4.118
 8740W        W81066  31.372  13.766   1.752
 8741W        W81067  27.550  27.967  13.810
 8742W        W81068  37.591  31.124  11.056
 8743W        W81069  12.902   3.167   0.458
 8744W        W81070  16.060  40.827  12.708
 8745W        W81071  44.733  42.019  11.538
 8746W        W81072  23.069  23.884  14.419
 8747W        W81073  23.458   0.472   4.595
 8748W        W81074  14.609   8.554  10.639
 8749W        W81075  12.496   6.951  10.758
 8750W        W81076  13.671   3.764  14.005
 8751W        W81077  12.441  18.132  10.775
 8752W        W81078  28.552   6.876   4.808
 8753W        W81079  19.517  42.235   0.392
 8754W        W81080  41.976  19.704   1.899
 8755W        W81081   8.236  26.062   0.805
 8756W        W81082   2.183   8.032  11.167
 8757W        W81083  40.082  23.124   4.241
 8758W        W81084  40.837  38.871  13.054
 8759W        W81085  20.765  37.623   4.206
 8760W        W81086  32.554  41.095   3.969
 8761W        W81087  44.664  25.722  10.456
 8762W        W81088   2.007   2.722  12.975
 8763W        W81089  40.797  10.124   3.219
 8764W        W81090   7.890  37.618   0.528
 8765W        W81091  34.583   9.822  12.896
 8766W        W81092  26.649  27.598  14.711
 8767W        W81093   2.759  32.473   0.712
 8768W        W81094  37.005  26.480  10.661
 8769W        W81095  20.485   6.721   0.362
 8770W        W81096  31.884   0.926   5.164
 8771W        W81097  34.335  13.827   3.615
 8772W        W81098  21.051   2.914   4.550
 8773W        W81099  26.176  28.514  10.612
 8774W        W81100   2.121   8.202  12.773
 8775W        W81101  28.979   2.862   2.433
 8776W        W81102   6.782  34.143   3.359
 8777W        W81103  42.970  39.856  13.261
 8778W        W81104  37.015  17.218  13.763
 8779W        W81105  38.605  11.779  11.540
 8780W        W81106  19.980  30.934  11.716
 8781W        W81107  32.566  44.963  13.075
 8782W        W81108  21.960  37.644   0.009
 8783W        W81109  42.692  17.805   2.846
 8784W        W81110  33.435  44.163   4.597
 8785W        W81111   4.812  42.785   2.599
 8786W        W81112  39.930  35.237   0.859
 8787W        W81113  16.934  31.709   4.107
 8788W        W81114  21.641   8.139  14.527
 8789W        W81115  22.137  23.302  13.547
 8790W        W81116  20.674  12.758  12.408
 8791W        W81117   0.941  30.388   3.994
 8792W        W81118  32.480  23.656   0.812
 8793W        W81119  24.165  34.698   4.850
 8794W        W81120  40.492  36.380   3.351
 8795W        W81121  13.385   5.953  14.963
 8796W        W81122  23.033  31.983   2.689
 8797W        W81123  25.033  15.321   9.736
 8798W        W81124   5.388  19.869  14.236
 8799W        W81125  24.497  28.677   3.678
 8800W        W81126   5.857   6.066  13.605
 8801W        W81127  16.678  30.913   4.438
 8802W        W81128  13.108   8.322  13.198
 8803W        W81129  33.978  14.704   3.008
 8804W        W81130  39.509  13.785  11.144
 8805W        W81131  28.114  22.757  10.257
 8806W        W81132   1.707  32.001  11.458
 8807W        W81133  37.046  18.076  10.951
 8808W        W81134  26.096   6.227   0.643
 8809W        W81135  43.914  15.818  11.213
 8810W        W81136  38.693  26.690  14.050
 8811W        W81137   2.200  11.270   3.266
 8812W        W81138  35.857  18.495  11.604
 8813W        W81139  31.414  42.583   2.747
 8814W        W81140  37.365   1.242   1.126
 8815W        W81141  27.013  37.856   0.944
 8816W        W81142  33.635  44.289  14.483
 8817W        W81143   6.969  23.763   2.745
 8818W        W81144  10.611  36.973  14.275
 8819W        W81145  38.394   1.309  13.242
 8820W        W81146  18.253  39.467   3.935
 8821W        W81147  31.565  36.306  13.736
 8822W        W81148   5.930   7.655  12.909
 8823W        W81149  35.368  27.440   2.648
 8824W        W81150   1.733   5.841  11.899
 8825W        W81151  41.967  23.750   4.401
 8826W        W81152  31.132   2.754  11.026
 8827W        W81153  21.582  28.616   1.175
 8828W        W81154  21.283   6.912   2.312
 8829W        W81155  36.981   7.399   4.598
 8830W        W81156  12.879  19.028  10.739
 8831W        W81157  14.109  32.793   3.698
 8832W        W81158  37.069  23.082   0.953
 8833W        W81159  38.790  25.736   4.630
 8834W        W81160  27.132  24.697   1.044
 8835W        W81161  20.679  38.240   5.016
 8836W        W81162  22.676  18.741   1.235
 8837W        W81163  15.126   0.241  12.052
 8838W        W81164  36.860  42.954   0.234
 8839W        W81165  10.831   8.289  12.512
 8840W        W81166  12.095   3.349   2.774
 8841W        W81167  35.522  14.500  12.881
 8842W        W81168  42.275  15.201  11.089
 8843W        W81169  21.962  22.631   4.980
 8844W        W81170  35.734  10.496   4.211
 8845W        W81171  25.493  12.071   1.035
 8846W        W81172  20.614   2.713  13.787
 8847W        W81173  37.205  36.719  13.410
 8848W        W81174  27.855  36.570  10.535
 8849W        W81175  22.229  14.436   0.662
 8850W        W81176   0.541  17.030  12.042
 8851W        W81177   1.227  27.824   3.242
 8852W        W81178  25.228  12.606  11.240
 8853W        W81179   2.965  38.901   2.253
 8854W        W81180  18.097  19.588  10.758
 8855W        W81181  43.795  30.007   1.802
 8856W        W81182  30.037  23.649   3.217
 8857W        W81183  10.362  13.253  11.695
 8858W        W81184  38.323  23.688   2.776
 8859W        W81185  12.239  32.643  12.933
 8860W        W81186   5.757  35.954   1.671
 8861W        W81187  10.820  17.294   1.462
 8862W        W81188   4.249  14.869  13.333
 8863W        W81189  40.595  37.112   3.527
 8864W        W81190   0.299  43.370  13.416
 8865W        W81191  37.969  30.578   2.720
 8866W        W81192  34.587  30.515   3.901
 8867W        W81193  16.582  27.409   3.358
 8868W        W81194  19.862  44.948  12.950
 8869W        W81195  18.216  33.761   4.205
 8870W        W81196  10.395  16.491  10.848
 8871W        W81197  22.319  19.022   3.594
 8872W        W81198  43.024  36.096   4.570
 8873W        W81199  38.137  43.939   0.286
 8874W        W81200  18.996  38.476   3.246
 8875W        W81201  27.503  31.394   4.193
 8876W        W81202   8.654  37.437   4.839
 8877W        W81203   2.753   4.360  14.009
 8878W        W81204  38.866  32.713   3.116
 8879W        W81205  12.631  12.890  13.923
 8880W        W81206  25.237  32.789   0.207
 8881W        W81207  24.198   4.905  13.063
 8882W        W81208  13.777  32.917   4.630
 8883W        W81209   2.393  23.073  10.431
 8884W        W81210  18.762  19.674   5.024
 8885W        W81211  28.040  42.761   4.804
 8886W        W81212  42.700  20.666   2.728
 8887W        W81213   7.647  31.208  12.915
 8888W        W81214   3.230  26.424   3.097
 8889W        W81215   5.030  15.619   4.881
 8890W        W81216  19.506  38.865   0.965
 8891W        W81217  25.117   5.151  12.584
 8892W        W81218  34.333  42.495  11.692
 8893W        W81219  34.948   0.433  11.796
 8894W        W81220   6.911  35.907   4.250
 8895W        W81221  22.520   5.226   3.243
 8896W        W81222  29.125  44.430   2.601
 8897W        W81223  22.443   3.842   1.654
 8898W        W81224  28.551  14.803   3.546
 8899W        W81225  37.566  34.591   3.590
 8900W        W81226  34.148  22.313   0.419
 8901W        W81227  11.183  24.420   4.005
 8902W        W81228  34.800   9.478  12.572
 8903W        W81229  41.944  35.133   2.427
 8904W        W81230  22.079  44.975   4.684
 8905W        W81231   3.275   6.393   3.184
 8906W        W81232  16.560  10.740  11.018
 8907W        W81233  12.895   7.779  12.062
 8908W        W81234   4.146  34.521   0.432
 8909W        W81235  44.907  29.396  11.039
 8910W        W81236  43.804   8.713   2.944
 8911W        W81237  11.317  30.878   4.407
 8912W        W81238  11.181  36.318  12.440
 8913W        W81239   9.435  20.171  10.815
 8914W        W81240   4.007   9.325  12.594
 8915W        W81241  36.112  43.506   4.533
 8916W        W81242  29.188  21.158   0.803
 8917W        W81243  25.560  39.930  13.564
 8918W        W81244   0.989   7.524   4.126
 8919W        W81245   1.379   4.635  10.558
 8920W        W81246   2.772  23.018   4.711
 8921W        W81247  14.715  25.735   4.207
 8922W        W81248  27.128  36.649  13.742
 8923W        W81249   9.194   3.471  10.926
 8924W        W81250   3.909  35.360  11.189
 8925W        W81251   9.089  22.112   0.170
 8926W        W81252  10.604  34.574   2.348
 8927W        W81253  39.784   2.170  13.282
 8928W        W81254  34.418  43.824  14.664
 8929W        W81255  34.351  13.376  14.230
 8930W        W81256  31.174  41.552  12.547
 8931W        W81257   0.755   4.421   3.805
 8932W        W81258  44.976  41.858  11.973
 8933W        W81259  41.385   1.313  10.671
 8934W        W81260   7.750  36.272  14.852
 8935W        W81261  28.647  38.816  14.916
 8936W        W81262  34.062  41.185   2.415
 8937W        W81263  23.996   5.523   0.558
 8938W        W81264   5.544  38.365  10.306
 8939W        W81265  40.440  20.640   0.856
 8940W        W81266  36.249  28.923   2.353
 8941W        W81267  37.637  42.949  12.449
 8942W        W81268  41.359   6.348  12.929
 8943W        W81269  13.812  36.113   4.881
 8944W        W81270  10.085  20.700   4.167
 8945W        W81271   8.868  44.807  10.571
 8946W        W81272  43.522   2.106  14.013
 8947W        W81273  18.551  39.857  11.526
 8948W        W81274   4.164  24.281  10.739
 8949W        W81275  40.373  30.639  13.921
 8950W        W81276  15.432   2.879   2.346
 8951W        W81277  29.601  13.580   1.234
 8952W        W81278   0.729   0.582   3.080
 8953W        W81279  25.833  13.147   2.015
 8954W        W81280  42.856   4.743   2.901
 8955W        W81281   7.246  41.516   2.381
 8956W        W81282  37.078  25.508  12.218
 8957W        W81283  44.331  16.611  11.610
 8958W        W81284  28.817  28.771   2.661
 8959W        W81285   4.189  26.574   4.167
 8960W        W81286  30.543  20.665   2.358
 8961W        W81287   5.827  17.597  14.548
 8962W        W81288  10.972  26.726   4.510
 8963W        W81289   6.062   4.017   0.799
 8964W        W81290   4.597  31.004   4.985
 8965W        W81291  36.378  22.636  12.905
 8966W        W81292  35.048   6.718   2.870
 8967W        W81293  27.124  20.521  11.110
 8968W        W81294  33.582  10.159  12.610
 8969W        W81295  13.842  40.069   3.137
 8970W        W81296  31.033   7.173   0.090
 8971W        W81297  19.710  30.089  12.101
 8972W        W81298  34.829  29.486  11.504
 8973W        W81299   2.966  17.144   1.973
 8974W        W81300  42.956   0.881  10.578
 8975W        W81301   7.188  18.528  13.847
 8976W        W81302  44.692  22.229   0.543
 8977W        W81303   0.705   1.999  10.644
 8978W        W81304  14.781   6.426  14.062
 8979W        W81305  23.010  24.901  14.353
 8980W        W81306   5.843  44.263   0.003
 8981W        W81307  33.158  44.201  14.286
 8982W        W81308   7.234   0.739   2.303
 8983W        W81309   3.315  21.020   3.574
 8984W        W81310  31.423  26.708   3.177
 8985W        W81311  39.510  24.960  10.424
 8986W        W81312  18.682  35.774  12.886
 8987W        W81313   4.205   4.787   1.938
 8988W        W81314  26.124  23.544  11.970
 8989W        W81315  19.742  22.582  13.131
 8990W        W81316  11.343  10.784   3.686
 8991W        W81317  41.705   4.791   1.418
 8992W        W81318  24.464   0.820   1.268
 8993W        W81319   4.172  38.001  14.086
 8994W        W81320   6.132  27.184  13.933
 8995W        W81321  14.121  43.899   0.237
 8996W        W81322   5.755  31.732  14.828
 8997W        W81323  25.642  23.783   1.504
 8998W        W81324  18.559   4.017   2.485
 8999W        W81325  44.219  41.456  12.047
 9000W        W81326  16.339  17.735  14.359
 9001W        W81327  39.423  11.840  13.819
 9002W        W81328   4.111  37.889   1.403
 9003W        W81329  41.083   7.447  11.592
 9004W        W81330  16.502   4.138   0.296
 9005W        W81331  32.379  16.464   2.220
 9006W        W81332  30.073   1.544  14.275
 9007W        W81333  33.488  33.170   1.747
 9008W        W81334  15.357  43.624   0.941
 9009W        W81335  34.662   5.122  12.610
 9010W        W81336  44.241   6.787  13.117
 9011W        W81337   1.289  25.695   3.027
 9012W        W81338   7.815  21.197   2.288
 9013W        W81339  42.493  38.127  13.770
 9014W        W81340  30.698  23.042   3.572
 9015W        W81341  41.845  38.271   0.594
 9016W        W81342   7.916  20.146  12.131
 9017W        W81343  13.481  41.680   2.688
 9018W        W81344  25.736   6.216   3.081
 9019W        W81345  13.358  30.185  11.830
 9020W        W81346  32.182  22.813   2.320
 9021W        W81347  38.783  25.499  14.339
 9022W        W81348  42.379  33.020  12.904
 9023W        W81349  41.302  35.555  14.265
 9024W        W81350  20.156  25.033  13.886
 9025W        W81351  37.092   6.788  14.508
 9026W        W81352  27.736  15.751   0.523
 9027W        W81353  27.846   1.168  12.110
 9028W        W81354  44.499  19.907   3.835
 9029W        W81355   4.819  16.399   4.111
 9030W        W81356   0.952   2.680  10.204
 9031W        W81357  41.165  25.652   3.710
 9032W        W81358   3.651  33.824  11.980
 9033W        W81359  17.980  23.954   4.901
 9034W        W81360  30.935  39.307  14.450
 9035W        W81361   9.173   5.950   2.832
 9036W        W81362  14.593  12.562  12.977
 9037W        W81363  15.484  16.672   3.268
 9038W        W81364   1.972  40.512   1.898
 9039W        W81365   7.929  15.262  10.893
 9040W        W81366   8.883  31.737  10.684
 9041W        W81367  43.971  21.679  14.101
 9042W        W81368  31.769  15.331  12.044
 9043W        W81369  26.648   1.161  11.154
 9044W        W81370   7.783  33.556  11.129
 9045W        W81371  39.045  16.131   4.183
 9046W        W81372  25.581   8.322   4.631
 9047W        W81373  40.387  30.012   0.390
 9048W        W81374  30.082   8.795   0.532
 9049W        W81375  25.531  35.575   4.624
 9050W        W81376  30.967  33.092   4.093
 9051W        W81377  29.494   6.042   3.961
 9052W        W81378  37.312  23.686  10.885
 9053W        W81379  43.635   4.051   2.527
 9054W        W81380  30.786  37.058  12.068
 9055W        W81381  32.555   6.148  11.395
 9056W        W81382  33.505   8.322  13.024
 9057W        W81383   2.495   1.473   0.911
 9058W        W81384  26.710  35.937  11.312
 9059W        W81385   3.636  21.762  10.691
 9060W        W81386  16.613  42.790   3.902
 9061W        W81387  34.048  32.442   1.645
 9062W        W81388  27.005   4.856  12.831
 9063W        W81389   2.231  41.668   1.327
 9064W        W81390  25.028  40.825  12.364
 9065W        W81391  27.499  20.474   2.731
 9066W        W81392   5.965  21.312  14.441
 9067W        W81393   0.374   7.745   2.720
 9068W        W81394   7.774  30.522   2.300
 9069W        W81395  11.679  33.267   2.326
 9070W        W81396  20.696   1.480   0.092
 9071W        W81397   8.656  22.575  14.823
 9072W        W81398  17.128  16.128   1.859
 9073W        W81399   1.941  31.369  11.407
 9074W        W81400  44.420  18.012  12.575
 9075W        W81401  30.711  43.787  14.398
 9076W        W81402  42.485  22.992   3.275
 9077W        W81403  18.642   9.941  10.657
 9078W        W81404  26.144  30.561  14.018
 9079W        W81405  19.064  23.534  13.824
 9080W        W81406   2.422  44.075   4.243
 9081W        W81407  39.860  18.066  14.410
 9082W        W81408  34.653  43.939  12.691
 9083W        W81409  11.766  30.575   2.642
 9084W        W81410  41.742   7.677  14.007
 9085W        W81411  24.234  27.920   3.086
 9086W        W81412  24.640  11.075   4.579
 9087W        W81413  10.779  24.893   2.389
 9088W        W81414  19.721   7.845   3.838
 9089W        W81415  32.672  32.376  11.449
 9090W        W81416   3.676   8.436  13.013
 9091W        W81417  20.640  19.052  11.139
 9092W        W81418  35.097  23.029  14.589
 9093W        W81419  22.489  32.882  14.478
 9094W        W81420  40.372  11.860  12.956
 9095W        W81421  33.884  25.265   2.145
 9096W        W81422  28.545  10.725   4.666
 9097W        W81423  21.710  19.947  14.894
 9098W        W81424  17.362  35.446   2.784
 9099W        W81425  32.264  30.812   2.745
 9100W        W81426  39.771  21.691  13.626
 9101W        W81427  18.972  13.214  12.202
 9102W        W81428  25.554  11.849   3.919
 9103W        W81429  36.805  35.462  12.985
 9104W        W81430  33.091  20.049  11.499
 9105W        W81431  26.916  44.892   0.762
 9106W        W81432  12.637   5.168   0.626
 9107W        W81433   8.475  24.245   1.955
 9108W        W81434   1.250  28.933   4.299
 9109W        W81435   7.228  32.530  11.138
 9110W        W81436  15.077   5.263   3.664
 9111W        W81437   2.482  33.732   1.644
 9112W        W81438  38.967  41.260   1.451
 9113W        W81439  16.172  22.991  12.863
 9114W        W81440  39.459  31.522  14.870
 9115W        W81441  12.800  34.071   3.585
 9116W        W81442  18.045   0.749  10.674
 9117W        W81443  18.677  12.651   3.233
 9118W        W81444  10.903  29.635  14.807
 9119W        W81445  29.615  43.977  12.095
 9120W        W81446  36.588  41.982  12.340
 9121W        W81447  43.029  19.597   1.859
 9122W        W81448  10.775  30.641   3.282
 9123W        W81449  33.054  14.648  12.988
 9124W        W81450  23.220  11.756   2.782
 9125W        W81451  13.115  16.678  14.888
 9126W        W81452  32.149  27.296  11.930
 9127W        W81453  31.046   3.858   0.716
 9128W        W81454  16.633  13.525  14.344
 9129W        W81455   8.276  11.265  11.204
 9130W        W81456  33.487  29.935  11.042
 9131W        W81457  25.633  42.494   4.245
 9132W        W81458  39.344  37.358  14.445
 9133W        W81459   8.962  39.917  12.477
 9134W        W81460  43.622  19.300   0.981
 9135W        W81461   7.658  31.975  11.555
 9136W        W81462  37.564   0.897  13.935
 9137W        W81463  32.837  23.412  12.561
 9138W        W81464   7.988  24.510   4.800
 9139W        W81465  37.946  22.087   0.025
 9140W        W81466   6.937   0.281   2.335
 9141W        W81467   9.902  32.137  14.360
 9142W        W81468  36.948  36.134   2.798
 9143W        W81469  38.365  37.240   3.250
 9144W        W81470  35.607  16.735   0.424
 9145W        W81471  20.036  34.942  10.753
 9146W        W81472   2.756   1.258   9.882
 9147W        W81473   9.884   1.905   3.270
 9148W        W81474  38.501  10.882   1.939
 9149W        W81475  29.269  38.562   2.365
 9150W        W81476   6.241   0.212  12.623
 9151W        W81477   8.787  24.442   1.465
 9152W        W81478   4.385  27.693   1.420
 9153W        W81479  19.155  33.564  14.867
 9154W        W81480  42.695  33.858  14.072
 9155W        W81481  26.728  20.725  12.513
 9156W        W81482  19.167  16.646   1.527
 9157W        W81483  26.634   9.366  11.237
 9158W        W81484  24.093  30.175   2.275
 9159W        W81485  33.322  26.060  13.019
 9160W        W81486  19.728  32.281  14.699
 9161W        W81487  18.657   9.678  12.482
 9162W        W81488  30.147  25.503  10.664
 9163W        W81489  10.240   5.477   4.620
 9164W        W81490  34.541  44.371   1.881
 9165W        W81491  26.921   1.295  14.588
 9166W        W81492   5.931  22.024  13.731
 9167W        W81493  17.328  19.711   1.107
 9168W        W81494  40.918  26.936  11.588
 9169W        W81495  39.535   3.146  13.969
 9170W        W81496  25.030  41.313  12.166
 9171W        W81497  22.161  28.573  11.650
 9172W        W81498  18.144  11.527   0.303
 9173W        W81499  38.994  36.744   5.058
 9174W        W81500  34.620  18.826   2.161
 9175W        W81501  40.359  21.500  14.449
 9176W        W81502  35.554  33.435   2.100
 9177W        W81503  16.842  35.458   4.500
 9178W        W81504  42.298  19.703  13.316
 9179W        W81505   0.813  44.278   0.815
 9180W        W81506   8.180  19.590   1.990
 9181W        W81507  22.228  32.233  10.098
 9182W        W81508  10.808   7.210   0.307
 9183W        W81509   0.331  27.229   3.030
 9184W        W81510  15.177  30.123   1.531
 9185W        W81511  37.946  12.574  10.675
 9186W        W81512  31.584  41.018   2.764
 9187W        W81513   1.867  41.243  12.597
 9188W        W81514  30.917  37.611  13.574
 9189W        W81515  31.488  24.969  14.207
 9190W        W81516   8.803  18.073  12.575
 9191W        W81517  25.682  26.301   3.528
 9192W        W81518   4.244  33.508  12.562
 9193W        W81519  23.661   5.434  11.002
 9194W        W81520   9.878  21.249   9.826
 9195W        W81521  42.627  37.251  13.070
 9196W        W81522  14.059   1.505   1.569
 9197W        W81523  16.591  29.602  11.017
 9198W        W81524   4.884  35.857   2.631
 9199W        W81525  31.132  22.307  12.390
 9200W        W81526  33.510  44.923  14.450
 9201W        W81527  17.641  24.479   0.890
 9202W        W81528  29.066   3.933   4.157
 9203W        W81529  16.202  28.455  12.960
 9204W        W81530  26.628   7.625  11.638
 9205W        W81531  42.919   7.258  10.679
 9206W        W81532  33.086  15.119   4.300
 9207W        W81533  22.499  28.946  14.763
 9208W        W81534  44.116  31.804   3.685
 9209W        W81535  13.337  42.766  14.855
 9210W        W81536   7.792  14.362   4.144
 9211W        W81537  29.467   9.219   1.297
 9212W        W81538  37.434   4.815  14.819
 9213W        W81539  34.350  17.617   0.994
 9214W        W81540  40.837   3.882  12.046
 9215W        W81541  39.362  40.368  13.863
 9216W        W81542  38.416   6.837   3.037
 9217W        W81543  23.159  39.102   2.697
 9218W        W81544   8.399  20.158  10.748
 9219W        W81545  35.067  42.473   1.954
 9220W        W81546  33.427  29.156   4.883
 9221W        W81547  31.492  28.683  14.797
 9222W        W81548  25.937  13.118   0.217
 9223W        W81549  17.576  43.167   1.466
 9224W        W81550  44.759  40.051  13.988
 9225W        W81551  10.144  39.295  12.456
 9226W        W81552  18.859  37.719   0.224
 9227W        W81553   4.445  17.771   0.945
 9228W        W81554  33.716  27.261  11.244
 9229W        W81555  15.837   1.901  11.960
 9230W        W81556   4.616   6.235  12.818
 9231W        W81557  26.697  42.904   3.339
 9232W        W81558  23.418  10.732   0.309
 9233W        W81559  12.672  30.454   4.351
 9234W        W81560  27.408  35.574   2.549
 9235W        W81561   1.367  33.300  13.980
 9236W        W81562   4.408  11.421  12.930
 9237W        W81563  22.749   0.215   0.352
 9238W        W81564  18.633  43.346  11.129
 9239W        W81565  34.624  20.521   0.845
 9240W        W81566  11.363  36.116   2.675
 9241W        W81567  28.614  23.124   2.614
 9242W        W81568  23.973  36.390  12.676
 9243W        W81569   3.407  28.906  10.499
 9244W        W81570  43.530   4.609   9.933
 9245W        W81571  29.065  28.901  14.523
 9246W        W81572  10.825  38.876   4.150
 9247W        W81573  18.116   6.183  11.737
 9248W        W81574  36.100  31.561  12.980
 9249W        W81575  44.752   2.562  11.545
 9250W        W81576  33.459  35.709   3.924
 9251W        W81577   2.316  27.188  14.015
 9252W        W81578  31.700  12.850   0.237
 9253W        W81579  26.960   2.251  14.446
 9254W        W81580  29.610  15.814  11.470
 9255W        W81581  40.471  25.708  11.922
 9256W        W81582  43.599  35.403   1.994
 9257W        W81583  22.466  17.617  10.153
 9258W        W81584  18.182   5.325   1.271
 9259W        W81585   1.058  11.215  13.824
 9260W        W81586   4.742  29.423  11.247
 9261W        W81587  29.610   8.750   4.626
 9262W        W81588  26.461  12.210  13.572
 9263W        W81589  44.754  42.426   2.189
 9264W        W81590  24.441  11.136  11.826
 9265W        W81591  12.200  22.312  12.401
 9266W        W81592  11.250   7.360  13.829
 9267W        W81593  37.570  15.328   1.894
 9268W        W81594  34.602  37.052   3.199
 9269W        W81595  10.079   7.422  10.871
 9270W        W81596  33.460   3.001   2.173
 9271W        W81597  22.250  44.900   3.789
 9272W        W81598  44.835  32.361  14.962
 9273W        W81599  41.103   3.743   3.470
 9274W        W81600  28.731  20.729  11.188
 9275W        W81601   6.224  39.070   3.168
 9276W        W81602   6.271  24.249   2.658
 9277W        W81603  28.664  42.850  12.501
 9278W        W81604  25.851  21.096   4.453
 9279W        W81605  31.615  19.609   0.199
 9280W        W81606  36.414  18.226   4.362
 9281W        W81607   9.739  23.040  13.787
 9282W        W81608  14.117  30.410  11.254
 9283W        W81609  35.428  41.796   3.404
 9284W        W81610  29.475   7.345  13.919
 9285W        W81611   1.404   0.540   0.866
 9286W        W81612  39.441   7.349  10.574
 9287W        W81613  21.140   2.996   0.205
 9288W        W81614  27.276  27.095   2.000
 9289W        W81615   8.510  31.518  11.435
 9290W        W81616  23.070  31.471   1.226
 9291W        W81617  15.553  44.938   3.263
 9292W        W81618   8.580  28.014  13.027
 9293W        W81619  27.661   9.113  13.441
 9294W        W81620   5.515   5.317  12.378
 9295W        W81621   1.422  20.641  10.629
 9296W        W81622  42.427  42.470   4.854
 9297W        W81623   9.181  21.960  12.260
 9298W        W81624  35.876  26.090   2.876
 9299W        W81625   1.832  35.525  10.989
 9300W        W81626  27.139   1.857  10.472
 9301W        W81627   4.873   0.898  10.952
 9302W        W81628   9.201  18.625   1.472
 9303W        W81629  13.135   2.954   1.749
 9304W        W81630  10.364  31.372  11.433
 9305W        W81631  11.137  23.123  13.637
 9306W        W81632   4.682  38.451  14.863
 9307W        W81633  31.142  29.875   3.880
 9308W        W81634  20.160   3.427   4.612
 9309W        W81635  27.780  21.600  14.911
 9310W        W81636  20.739  37.006   0.949
 9311W        W81637  14.059   5.492   1.890
 9312W        W81638  20.177  22.594   3.173
 9313W        W81639  24.253  39.059   0.517
 9314W        W81640  13.593  41.908   0.920
 9315W        W81641  28.937  36.550  13.686
 9316W        W81642  32.763  40.670  12.812
 9317W        W81643  10.509  39.541  13.909
 9318W        W81644   2.545  28.158  12.908
 9319W        W81645   6.358  28.980  14.055
 9320W        W81646   0.442  27.549   0.982
 9321W        W81647  40.920  41.342  14.000
 9322W        W81648  35.397  35.515   3.192
 9323W        W81649  43.648  20.410  13.920
 9324W        W81650  19.710  26.230  14.791
 9325W        W81651  23.512  27.965   0.305
 9326W        W81652  21.799  19.886  13.693
 9327W        W81653  11.256   5.765   0.954
 9328W        W81654  42.788   1.427  11.176
 9329W        W81655  27.212  12.656   2.834
 9330W        W81656   3.857  16.810   1.416
 9331W        W81657  41.027   3.026   1.405
 9332W        W81658  20.607   3.561   4.911
 9333W        W81659  35.887  42.799   1.025
 9334W        W81660  25.178  41.779   2.863
 9335W        W81661   2.756  29.652  14.932
 9336W        W81662  30.370  43.838   2.807
 9337W        W81663  11.321  43.880  13.119
 9338W        W81664  43.718  18.323  10.729
 9339W        W81665  18.251  28.167   4.633
 9340W        W81666  31.952  32.562  14.715
 9341W        W81667  10.840   6.148  13.762
 9342W        W81668  30.112  24.719  13.413
 9343W        W81669  10.413  10.149   0.053
 9344W        W81670  31.657   2.002   0.969
 9345W        W81671   6.410  33.393  12.955
 9346W        W81672   7.920   2.316  10.555
 9347W        W81673  11.699  22.758   1.799
 9348W        W81674   9.108   8.773   3.170
 9349W        W81675  43.044   5.413  13.948
 9350W        W81676  43.281  38.360   1.977
 9351W        W81677  15.748  37.289  13.463
 9352W        W81678  20.082   6.862  11.576
 9353W        W81679  33.022  23.931  12.457
 9354W        W81680   8.132  41.080   2.627
 9355W        W81681  31.640  16.227  13.288
 9356W        W81682  42.364  40.416  12.321
 9357W        W81683  20.895  20.671   3.797
 9358W        W81684  18.568  37.720   1.541
 9359W        W81685  37.115   4.277  12.023
 9360W        W81686  25.262  27.158   3.294
 9361W        W81687  13.302   4.438   4.338
 9362W        W81688  18.173   0.412  13.688
 9363W        W81689  19.164   8.653   0.790
 9364W        W81690  29.028  37.052  13.520
 9365W        W81691  19.310  20.372  11.851
 9366W        W81692  30.181   9.364   1.711
 9367W        W81693  27.492  15.005  11.137
 9368W        W81694  31.442  28.652  11.200
 9369W        W81695  27.625  40.407   4.551
 9370W        W81696  30.554  10.739  14.355
 9371W        W81697  23.055  38.005  12.146
 9372W        W81698   6.867  27.819   2.239
 9373W        W81699  25.211   1.980  11.130
 9374W        W81700   0.292  27.971  14.353
 9375W        W81701   0.481  36.044  14.496
 9376W        W81702  17.284  13.819   3.765
 9377W        W81703  40.499  38.171  13.889
 9378W        W81704  34.833   9.206  10.749
 9379W        W81705  13.644  14.403   0.793
 9380W        W81706  36.256  11.124   5.084
 9381W        W81707  27.062   6.799  10.389
 9382W        W81708  29.083  20.151   1.481
 9383W        W81709  17.606  18.051   0.004
 9384W        W81710  29.473  26.638   1.313
 9385W        W81711  33.984   7.876   3.627
 9386W        W81712  11.196   0.966   2.109
 9387W        W81713  34.869   1.787   4.926
 9388W        W81714  29.726  33.815   0.303
 9389W        W81715  33.073  43.870   1.167
 9390W        W81716  37.911  16.670  12.659
 9391W        W81717  23.013   6.199   0.876
 9392W        W81718  44.982   4.992   3.190
 9393W        W81719  16.201  21.230   4.385
 9394W        W81720  37.345  28.373  12.979
 9395W        W81721  13.594   0.091   3.192
 9396W        W81722  25.040  41.266   1.307
 9397W        W81723   4.997  23.990  13.019
 9398W        W81724  27.456  22.142   4.061
 9399W        W81725  29.110   9.936   4.527
 9400W        W81726  30.479  22.662  13.489
 9401W        W81727  41.928  24.065   3.556
 9402W        W81728   7.227  38.934  11.910
 9403W        W81729  33.655  26.209   0.659
 9404W        W81730  37.560  38.311   1.914
 9405W        W81731  14.712  34.794   0.199
 9406W        W81732   0.901   2.296   3.119
 9407W        W81733  23.774   1.306   2.796
 9408W        W81734   3.647  18.266  14.516
 9409W        W81735   3.411  40.270  14.678
 9410W        W81736  12.414  15.737   0.415
 9411W        W81737  42.762   8.247   2.400
 9412W        W81738  32.194  31.917  12.965
 9413W        W81739  31.755   0.037   4.601
 9414W        W81740   2.301  44.323   2.864
 9415W        W81741   4.693  17.030   2.410
 9416W        W81742  21.681  17.180   4.265
 9417W        W81743   0.846  42.298  12.477
 9418W        W81744  10.272  30.003   0.342
 9419W        W81745  21.143   3.262   2.696
 9420W        W81746  44.865   8.421  10.873
 9421W        W81747  39.816  31.140   1.678
 9422W        W81748  27.682  11.480   1.831
 9423W        W81749  30.505  20.047  13.532
 9424W        W81750  27.386  21.210  14.399
 9425W        W81751  10.844  11.405   2.670
 9426W        W81752  11.471  29.440   4.082
 9427W        W81753  10.938  44.902   2.844
 9428W        W81754  35.575  10.000   4.225
 9429W        W81755  20.373  35.870  13.431
 9430W        W81756  17.680  37.360   1.982
 9431W        W81757  11.032  39.496   2.217
 9432W        W81758  21.608  39.988   4.628
 9433W        W81759  25.952  35.003   1.297
 9434W        W81760  24.975   4.760   4.556
 9435W        W81761  25.111  33.211  12.051
 9436W        W81762  22.191   8.912   3.829
 9437W        W81763  12.276  43.601  12.019
 9438W        W81764  44.799   3.171   3.879
 9439W        W81765   1.879  10.863  13.465
 9440W        W81766   8.860  39.623  12.915
 9441W        W81767  42.317  12.900   0.843
 9442W        W81768  11.611  18.556   2.472
 9443W        W81769  44.159  26.939  12.019
 9444W        W81770  25.650  34.266   2.317
 9445W        W81771  32.649  23.577   3.670
 9446W        W81772  23.092  26.381  12.663
 9447W        W81773  33.066  10.667   0.490
 9448W        W81774  43.834  27.083   3.358
 9449W        W81775  34.415  42.022   1.890
 9450W        W81776  16.767   6.294  11.666
 9451W        W81777  25.772   7.977  11.612
 9452W        W81778  37.335  19.789   1.564
 9453W        W81779  10.382  28.105  11.970
 9454W        W81780  19.228  44.693   4.236
 9455W        W81781  26.534   2.930   1.938
 9456W        W81782  34.124  44.267  12.964
 9457W        W81783   3.154  39.384  12.249
 9458W        W81784  41.185  25.068   2.410
 9459W        W81785  41.611  40.326  14.770
 9460W        W81786   0.986  36.485   1.230
 9461W        W81787  31.003  40.196  11.097
 9462W        W81788  34.096  12.658  11.768
 9463W        W81789   7.920  17.766  14.409
 9464W        W81790  29.512   3.828  13.974
 9465W        W81791  11.261  32.479  11.683
 9466W        W81792   3.036  42.334  12.018
 9467W        W81793  32.451  14.222  13.906
 9468W        W81794  41.559   5.810   3.095
 9469W        W81795  21.070  27.449   2.676
 9470W        W81796  16.179  23.517   3.597
 9471W        W81797  18.038  33.911  11.581
 9472W        W81798  28.480  30.263   3.562
 9473W        W81799  35.633  31.093  14.866
 9474W        W81800  44.393   7.716  10.533
 9475W        W81801  37.600  44.399   4.225
 9476W        W81802  15.712   8.368   4.740
 9477W        W81803  34.890  22.315   3.834
 9478W        W81804  23.723  22.335   2.062
 9479W        W81805   3.365  43.253  11.656
 9480W        W81806   3.268  43.031  14.032
 9481W        W81807  11.461  14.093  11.997
 9482W        W81808  43.238  10.692  13.544
 9483W        W81809   2.912   7.821   4.616
 9484W        W81810  26.130  10.304   2.832
 9485W        W81811  38.858   5.282   0.419
 9486W        W81812  33.260  24.320  12.115
 9487W        W81813  22.540  17.985  10.532
 9488W        W81814  44.634  10.590   0.274
 9489W        W81815  38.118   7.721   4.948
 9490W        W81816  36.817  43.907   4.239
 9491W        W81817   3.483  11.319   3.674
 9492W        W81818  15.794  31.181   1.218
 9493W        W81819  37.634  43.500  11.639
 9494W        W81820  17.676  25.509   1.208
 9495W        W81821  30.921  35.323  14.371
 9496W        W81822  43.783  42.804  12.041
 9497W        W81823  22.508  14.789  13.602
 9498W        W81824  13.339  10.512  12.019
 9499W        W81825  38.820  21.567  14.788
 9500W        W81826   4.639  31.700  12.876
 9501W        W81827  24.330  31.100   2.373
 9502W        W81828   0.406  12.147   0.663
 9503W        W81829  26.409  19.053  12.046
 9504W        W81830  42.792  41.977  14.372
 9505W        W81831   6.657   6.164   0.896
 9506W        W81832  35.225  14.043   0.466
 9507W        W81833  22.934  37.077   5.033
 9508W        W81834  10.635  24.073   0.874
 9509W        W81835  23.861  44.366   0.466
 9510W        W81836  12.052  12.805   3.218
 9511W        W81837   2.034  23.299   0.475
 9512W        W81838  28.721  33.032   4.202
 9513W        W81839   0.442  16.806   1.809
 9514W        W81840  44.935  12.235  11.429
 9515W        W81841  11.162   3.646  13.307
 9516W        W81842   3.324   2.141  10.639
 9517W        W81843   2.900  17.619   1.247
 9518W        W81844   0.324  19.251   1.460
 9519W        W81845  12.662  43.954  11.972
 9520W        W81846   1.358  22.208  11.394
 9521W        W81847  25.945  29.178  13.867
 9522W        W81848  44.492  12.613   4.338
 9523W        W81849  13.898  14.968  11.158
 9524W        W81850  41.296   1.773  12.455
 9525W        W81851  28.115   1.279   0.932
 9526W        W81852   2.533  10.452   2.744
 9527W        W81853  37.637   9.321   0.260
 9528W        W81854   2.305  17.920   9.989
 9529W        W81855  43.010  38.124  12.106
 9530W        W81856   0.866  29.531   1.576
 9531W        W81857  28.602  18.725   3.921
 9532W        W81858   9.204  14.336  12.851
 9533W        W81859  28.013  41.599  11.581
 9534W        W81860  29.105  42.832  10.710
 9535W        W81861  41.837  21.905  14.768
 9536W        W81862   9.349   3.617   1.952
 9537W        W81863  13.144  31.844  10.323
 9538W        W81864  25.544   3.764  11.899
 9539W        W81865   7.654   8.902   1.266
 9540W        W81866  16.088  24.904   4.241
 9541W        W81867  31.027  10.358  11.535
 9542W        W81868  35.903  36.803   0.292
 9543W        W81869  23.757  26.714  12.029
 9544W        W81870  34.226  23.576   4.562
 9545W        W81871  36.795  26.549  12.979
 9546W        W81872   8.954  37.920   0.936
 9547W        W81873  15.171   0.369  13.964
 9548W        W81874   4.943  31.232   3.304
 9549W        W81875  38.410  21.188  10.803
 9550W        W81876  23.600  13.050   2.230
 9551W        W81877   9.924   1.571  12.454
 9552W        W81878  44.336  16.064  11.028
 9553W        W81879  29.658  14.040  11.185
 9554W        W81880   0.762  42.058  10.573
 9555W        W81881  16.037  13.675   4.135
 9556W        W81882  41.507  35.610  12.845
 9557W        W81883  26.510  26.707  11.367
 9558W        W81884  13.577   8.626   3.061
 9559W        W81885   9.815   0.251   1.191
 9560W        W81886  27.179   9.642   2.477
 9561W        W81887   4.667   0.865   4.743
 9562W        W81888  15.607  35.447  13.716
 9563W        W81889  13.146  37.462   4.791
 9564W        W81890  39.185  33.522   0.802
 9565W        W81891  22.068  29.630   4.681
 9566W        W81892  24.207  19.253  14.313
 9567W        W81893  27.463  15.763   4.574
 9568W        W81894  35.566  44.059   3.628
 9569W        W81895  14.561  23.163  13.941
 9570W        W81896  34.757  30.032  14.483
 9571W        W81897  31.515  33.212  12.654
 9572W        W81898   7.741  10.147  10.157
 9573W        W81899  20.967   9.755  11.592
 9574W        W81900  20.306  41.011   1.858
 9575W        W81901  11.076  27.969   1.329
 9576W        W81902  13.201  39.486  10.760
 9577W        W81903   9.426  15.759   1.444
 9578W        W81904  20.440  23.072   4.216
 9579W        W81905  25.242  19.263   3.186
 9580W        W81906  44.369  20.070   0.258
 9581W        W81907  27.269  38.171  11.511
 9582W        W81908   5.427  10.973  11.327
 9583W        W81909   9.320  44.115  13.869
 9584W        W81910  18.219   7.794   4.137
 9585W        W81911  41.689  20.545  10.616
 9586W        W81912  36.795  35.547   5.527
 9587W        W81913  10.401  21.769   3.220
 9588W        W81914  34.555   8.375  11.977
 9589W        W81915  38.472  34.130   0.474
 9590W        W81916  19.840  15.551   3.233
 9591W        W81917  32.368  10.200  11.146
 9592W        W81918  27.785  20.240   0.022
 9593W        W81919  31.398  18.203   1.908
 9594W        W81920   5.498   5.685  11.992
 9595W        W81921  39.107  35.667  11.298
 9596W        W81922  10.820   0.048  11.511
 9597W        W81923  41.868  32.895  11.607
 9598W        W81924  31.519   4.970   0.394
 9599W        W81925  41.734   6.532   9.833
 9600W        W81926  35.327  42.882   2.688
 9601W        W81927  32.807   0.822   1.546
 9602W        W81928  38.540  10.324  12.906
 9603W        W81929  43.504  30.661   1.326
 9604W        W81930  25.508  14.561   4.693
 9605W        W81931  18.035  36.461  11.620
 9606W        W81932  20.647  15.558  12.134
 9607W        W81933  42.905  27.338  12.093
 9608W        W81934  43.024  17.618   0.981
 9609W        W81935  28.391  26.943   0.412
 9610W        W81936  22.012  39.918  11.602
 9611W        W81937  19.713  41.008  14.943
 9612W        W81938  39.551  13.237  14.353
 9613W        W81939   0.369  40.439  10.646
 9614W        W81940  39.998   6.464   2.838
 9615W        W81941  40.540  44.141  10.530
 9616W        W81942  16.206  34.519   3.720
 9617W        W81943   8.343  28.722   0.072
 9618W        W81944  12.334  41.366  13.419
 9619W        W81945  19.467  18.590  14.077
 9620W        W81946  21.514  24.142   1.856
 9621W        W81947  11.288  44.773   0.750
 9622W        W81948   8.447  14.289  13.524
 9623W        W81949  22.188  27.617   1.638
 9624W        W81950  35.532  20.741   4.174
 9625W        W81951   3.582  35.944   2.155
 9626W        W81952  33.061  11.218   1.370
 9627W        W81953   6.286   6.329  14.414
 9628W        W81954   8.773  34.500  11.201
 9629W        W81955   6.456  17.465   1.471
 9630W        W81956  13.743  30.176   4.578
 9631W        W81957  33.147  17.214   1.354
 9632W        W81958  41.114   0.429   0.367
 9633W        W81959   0.412  18.655  11.577
 9634W        W81960   5.035   3.593   4.521
 9635W        W81961  13.105  18.044   0.420
 9636W        W81962   9.381   8.973   2.783
 9637W        W81963   2.681  28.205   3.138
 9638W        W81964  18.605  31.462  14.071
 9639W        W81965   7.735  28.019   2.577
 9640W        W81966  34.982   7.633   4.180
 9641W        W81967  44.442  22.513  14.277
 9642W        W81968   7.467  22.110  12.502
 9643W        W81969   7.898   1.408  10.954
 9644W        W81970  16.198  31.706  10.588
 9645W        W81971  32.920  15.355  12.390
 9646W        W81972  37.663  23.221  13.582
 9647W        W81973   8.230   5.226  11.273
 9648W        W81974  37.029  42.856   4.212
 9649W        W81975  36.111  40.425  10.746
 9650W        W81976   7.973  44.808  12.157
 9651W        W81977  31.103  28.181  12.908
 9652W        W81978  11.146   3.703   2.797
 9653W        W81979   4.748  13.200   3.174
 9654W        W81980  34.535  39.831   1.279
 9655W        W81981   7.239  16.760   1.386
 9656W        W81982  36.776  23.779   0.533
 9657W        W81983  44.791  13.820   4.173
 9658W        W81984  37.067  23.130   3.681
 9659W        W81985  43.031  39.125   2.385
 9660W        W81986   4.651  20.175  14.837
 9661W        W81987   1.516  19.023   3.389
 9662W        W81988  41.877  21.094   1.414
 9663W        W81989  11.393  40.212  14.795
 9664W        W81990  24.776   3.497   4.144
 9665W        W81991  28.383  34.431   4.709
 9666W        W81992   8.908  38.899  14.755
 9667W        W81993   7.781  27.846  11.600
 9668W        W81994  15.386  27.691  13.776
 9669W        W81995  29.126   9.453   4.828
 9670W        W81996  23.806  44.496   2.226
 9671W        W81997  32.867   1.479  13.350
 9672W        W81998  40.550  31.404   0.455
 9673W        W81999  33.028  43.415   3.327
 9674W        W82000  35.495  29.166   4.741
 9675W        W82001  30.217  16.840   1.545
 9676W        W82002  19.305   5.298   4.916
 9677W        W82003  20.692  11.166   2.024
 9678W        W82004   5.789   5.242  14.273
 9679W        W82005  26.099  26.987   2.464
 9680W        W82006  40.142  23.127   0.503
 9681W        W82007  26.531  19.473  11.143
 9682W        W82008   8.182   1.489  12.490
 9683W        W82009   0.386  24.575  11.574
 9684W        W82010   9.672  31.972  12.451
 9685W        W82011  23.471  21.333   1.709
 9686W        W82012  31.463  10.719   3.756
 9687W        W82013  43.537  22.028   4.550
 9688W        W82014  19.213  30.028  12.323
 9689W        W82015  28.654  19.569   4.194
 9690W        W82016  17.041   4.188   2.523
 9691W        W82017  18.491  19.198  12.542
 9692W        W82018   0.499  19.221  11.642
 9693W        W82019  19.726  13.857  14.468
 9694W        W82020  15.633  35.025   2.720
 9695W        W82021   6.610  31.423   3.931
 9696W        W82022  34.136  25.710  12.217
 9697W        W82023  35.585  14.376   1.784
 9698W        W82024  34.555  27.908  12.686
 9699W        W82025  36.902  11.028   1.163
 9700W        W82026   2.455  35.351  13.311
 9701W        W82027   0.566  21.694   2.352
 9702W        W82028  44.210  29.133   0.915
 9703W        W82029  21.080   6.484   2.679
 9704W        W82030  10.802  19.762  11.178
 9705W        W82031  11.667   3.400  11.539
 9706W        W82032  40.095  42.627  14.443
 9707W        W82033   3.877  30.124   1.783
 9708W        W82034  23.513  28.124   0.846
 9709W        W82035  35.567  14.093   2.850
 9710W        W82036   0.985   0.196   4.150
 9711W        W82037  15.695   9.837   4.373
 9712W        W82038  37.999  20.502  12.201
 9713W        W82039  33.006   4.895   3.162
 9714W        W82040  10.383  15.628   1.308
 9715W        W82041  28.879  44.869   0.340
 9716W        W82042  40.759  30.472   0.938
 9717W        W82043  12.121  42.332   2.133
 9718W        W82044  27.865  41.472  14.293
 9719W        W82045  21.847  32.428   0.877
 9720W        W82046  15.805  32.398   4.127
 9721W        W82047   8.147  33.061   1.503
 9722W        W82048   1.480  10.770   5.086
 9723W        W82049  30.066  25.629   0.423
 9724W        W82050  20.118  24.954  12.083
 9725W        W82051  43.996  17.612  10.438
 9726W        W82052  43.544  33.678   2.712
 9727W        W82053   6.890  20.740   3.299
 9728W        W82054  30.880  28.615   0.113
 9729W        W82055  29.885  24.530   2.404
 9730W        W82056  39.043  25.356  11.644
 9731W        W82057   5.353  32.619   4.782
 9732W        W82058  12.384   9.695   0.443
 9733W        W82059  11.796  34.420  11.104
 9734W        W82060  44.796  26.057   3.419
 9735W        W82061  29.604  37.846  12.008
 9736W        W82062  20.738  24.549   0.924
 9737W        W82063  27.567  28.091   9.869
 9738W        W82064   9.374  17.492   2.870
 9739W        W82065  10.300  15.539   3.155
 9740W        W82066   9.431  26.125   3.283
 9741W        W82067  10.051  39.627   1.855
 9742W        W82068   9.451  14.065  13.506
 9743W        W82069  38.089  39.272  12.136
 9744W        W82070   6.904  36.121  13.011
 9745W        W82071  20.840  42.976  14.819
 9746W        W82072  31.827  41.470   1.382
 9747W        W82073  37.540   1.475   2.590
 9748W        W82074  38.572   7.718   3.137
 9749W        W82075  22.683   8.640  10.147
 9750W        W82076   6.714  40.089  10.673
 9751W        W82077   9.060  33.946   1.064
 9752W        W82078  32.553   9.826   2.701
 9753W        W82079  17.138  13.830   1.977
 9754W        W82080  12.420   4.740   0.359
 9755W        W82081  10.329  26.685   0.325
 9756W        W82082  27.430   8.188  12.002
 9757W        W82083   4.905   6.543   2.827
 9758W        W82084   7.676  20.723  11.846
 9759W        W82085  14.617  19.888  14.575
 9760W        W82086  28.568  27.954  10.561
 9761W        W82087  12.220  25.900  10.193
 9762W        W82088  28.840  27.473   3.792
 9763W        W82089  11.816  39.967   0.555
 9764W        W82090   9.581   9.650   1.698
 9765W        W82091   4.373  17.526   1.381
 9766W        W82092  40.702  34.874  12.587
 9767W        W82093  23.515  35.842  11.645
 9768W        W82094  26.030  32.849   1.560
 9769W        W82095  27.459   5.439  12.341
 9770W        W82096  22.577  36.066   1.907
 9771W        W82097   5.345  30.447   1.155
 9772W        W82098  22.936  30.149  14.448
 9773W        W82099  44.913   3.706   0.965
 9774W        W82100  20.258  25.566  13.768
 9775W        W82101  10.413   6.287   0.893
 9776W        W82102  37.878  23.408  11.134
 9777W        W82103  11.576   1.913  11.570
 9778W        W82104  11.318  15.062   3.521
 9779W        W82105  44.952  40.245   1.857
 9780W        W82106  36.365  27.974  11.040
 9781W        W82107  44.830  23.828   0.808
 9782W        W82108  11.609  17.114   5.588
 9783W        W82109  25.520   1.381   0.820
 9784W        W82110  13.118  36.772  12.921
 9785W        W82111  43.000  30.795  12.063
 9786W        W82112   3.854  16.195  11.119
 9787W        W82113  28.459  39.967  12.059
 9788W        W82114  26.865  19.555  12.912
 9789W        W82115  13.360  15.292   0.790
 9790W        W82116  43.957  19.614   1.318
 9791W        W82117   7.216  23.512   0.030
 9792W        W82118  29.091   7.220  12.939
 9793W        W82119  40.104   0.323   1.325
 9794W        W82120  40.566  23.599  11.527
 9795W        W82121  34.065  24.715   3.431
 9796W        W82122  22.558   2.525  14.809
 9797W        W82123  37.569  17.771   1.435
 9798W        W82124  43.429  19.773   4.555
 9799W        W82125  36.958  27.029  13.542
 9800W        W82126  26.226  11.603   0.409
 9801W        W82127  17.621  14.575  10.610
 9802W        W82128  20.865  21.901  13.798
 9803W        W82129   5.831  24.200   2.340
 9804W        W82130   2.290  34.398   0.329
 9805W        W82131  24.540  15.539   2.638
 9806W        W82132  39.427  31.475   4.454
 9807W        W82133  16.142  18.061   2.102
 9808W        W82134  12.838   6.350   1.942
 9809W        W82135  20.018  21.782   0.579
 9810W        W82136   8.759  11.759  13.057
 9811W        W82137   1.871   4.864  10.292
 9812W        W82138   5.725  23.209   0.481
 9813W        W82139  30.897  35.536  12.947
 9814W        W82140  19.308  44.798   0.824
 9815W        W82141  25.197  15.282  13.907
 9816W        W82142  12.639  24.730   3.261
 9817W        W82143  20.290  17.078  14.081
 9818W        W82144  25.526  40.505   1.492
 9819W        W82145  40.772  27.443  11.482
 9820W        W82146   6.123  38.300   1.462
 9821W        W82147  25.621  19.783   5.016
 9822W        W82148  32.096  10.240  12.959
 9823W        W82149  37.920  40.874   2.252
 9824W        W82150  42.567  13.581   1.737
 9825W        W82151  34.695  12.557   1.782
 9826W        W82152  26.107  29.637  13.689
 9827W        W82153  25.267  27.681  14.904
 9828W        W82154  37.015  43.839  12.936
 9829W        W82155   0.335  19.001  10.443
 9830W        W82156   4.263   6.963  12.847
 9831W        W82157  35.227  17.078   0.345
 9832W        W82158  19.829  14.714   1.047
 9833W        W82159  17.608  41.722   1.926
 9834W        W82160   8.585  19.372  12.132
 9835W        W82161  19.017  19.672  14.932
 9836W        W82162  27.689  40.560  14.127
 9837W        W82163   1.913   0.772  12.282
 9838W        W82164  13.330   2.970  13.991
 9839W        W82165  22.740  31.872  12.499
 9840W        W82166   6.905  36.845  12.206
 9841W        W82167   3.869  30.339   3.685
 9842W        W82168  21.320  22.067  11.778
 9843W        W82169  36.783  14.068   1.425
 9844W        W82170   0.706  12.934  11.487
 9845W        W82171  25.569  35.372  14.386
 9846W        W82172  28.173  37.978   1.752
 9847W        W82173  14.578   1.309  13.877
 9848W        W82174  23.201  24.860  12.607
 9849W        W82175  43.267  15.469  13.283
 9850W        W82176  26.688  28.129  11.130
 9851W        W82177   3.537   1.063  14.864
 9852W        W82178  35.882  34.763  13.597
 9853W        W82179  35.643  36.462  11.007
 9854W        W82180   2.706  12.565   2.805
 9855W        W82181  17.273  27.020   0.843
 9856W        W82182  26.395  25.014  10.935
 9857W        W82183  13.660  13.878  12.063
 9858W        W82184  30.901  41.311  12.911
 9859W        W82185   2.395  19.775  14.211
 9860W        W82186  38.500  20.921   3.418
 9861W        W82187  22.814   0.723  10.278
 9862W        W82188  19.459  35.100  13.020
 9863W        W82189  39.249  37.065  10.385
 9864W        W82190  44.958  26.497   2.169
 9865W        W82191  25.993  16.847   4.655
 9866W        W82192  33.768  28.282  10.207
 9867W        W82193   3.439   7.759  11.587
 9868W        W82194  19.847  25.646   3.193
 9869W        W82195  32.984  25.381   3.000
 9870W        W82196  13.253  27.636  14.949
 9871W        W82197   5.344  19.335  14.179
 9872W        W82198  11.212  20.945   4.512
 9873W        W82199  13.781  44.523   2.338
 9874W        W82200   5.700  35.075  11.860
 9875W        W82201  27.753  26.027  13.795
 9876W        W82202  12.115  15.783   3.662
 9877W        W82203  44.953  38.592   2.595
 9878W        W82204  22.141  37.188  13.564
 9879W        W82205  24.951  18.790   2.343
 9880W        W82206  32.485  39.535  14.950
 9881W        W82207  38.317  21.620  13.352
 9882W        W82208   2.044  38.802   1.355
 9883W        W82209  25.238  16.010   1.936
 9884W        W82210   2.497  20.074   2.368
 9885W        W82211  12.580  16.791  13.861
 9886W        W82212  37.542  25.000   0.559
 9887W        W82213  19.542  28.080  10.534
 9888W        W82214  20.703   5.205   0.647
 9889W        W82215   4.899  16.611  12.077
 9890W        W82216  15.554  16.075  10.433
 9891W        W82217  37.981  27.794   4.369
 9892W        W82218  40.902  36.126   1.775
 9893W        W82219  35.569   7.267  13.362
 9894W        W82220  32.067  35.480   4.848
 9895W        W82221  23.205  40.587   4.519
 9896W        W82222  31.423  17.256   1.661
 9897W        W82223  27.135  14.428  12.500
 9898W        W82224  34.327  11.141   1.755
 9899W        W82225  30.881  22.174   1.339
 9900W        W82226   9.683  17.091  14.345
 9901W        W82227  21.785  20.787   3.553
 9902W        W82228   5.849  37.940   3.741
 9903W        W82229   7.650  41.982   1.474
 9904W        W82230   4.677  39.953   1.675
 9905W        W82231   8.526  36.156   4.229
 9906W        W82232  43.668  21.674   0.096
 9907W        W82233   3.021  27.556   1.403
 9908W        W82234   7.161  39.806  11.387
 9909W        W82235   0.340  39.962   1.492
 9910W        W82236  15.724   1.178   2.118
 9911W        W82237  44.999  43.774   0.893
 9912W        W82238  17.434  25.348  11.575
 9913W        W82239   0.493  10.230  12.976
 9914W        W82240  20.345   1.280  12.416
 9915W        W82241  19.024   9.300  14.526
 9916W        W82242  10.893  22.992  10.803
 9917W        W82243  22.005   7.285   4.129
 9918W        W82244  29.471  26.977   0.747
 9919W        W82245  18.157  36.457  13.152
 9920W        W82246  14.088  11.863  14.372
 9921W        W82247   7.246  24.494   0.902
 9922W        W82248  24.696   5.571  12.673
 9923W        W82249  32.026  29.725   0.860
 9924W        W82250  35.389   4.271   1.393
 9925W        W82251  29.522   3.790   1.310
 9926W        W82252  22.947  10.708   0.517
 9927W        W82253   1.940   7.813  13.844
 9928W        W82254  14.697  25.250  11.502
 9929W        W82255   2.913  39.188  12.733
 9930W        W82256   6.688   8.377   2.332
 9931W        W82257  10.816   9.332  11.662
 9932W        W82258  20.213  16.330   3.661
 9933W        W82259  32.450  15.568  12.524
 9934W        W82260   3.447  14.665  14.832
 9935W        W82261  20.666   2.295   4.053
 9936W        W82262  40.068  29.689   1.231
 9937W        W82263  17.601  36.229  11.426
 9938W        W82264  19.749   0.077  10.551
 9939W        W82265  37.845  27.475   2.727
 9940W        W82266   6.274   5.961   4.340
 9941W        W82267  26.544  34.001  12.093
 9942W        W82268  30.374  22.233   1.382
 9943W        W82269  40.799  11.287   0.169
 9944W        W82270   4.294   7.652   0.216
 9945W        W82271  10.892  11.051  10.945
 9946W        W82272  15.811  39.783  10.601
 9947W        W82273  27.213   7.889   0.890
 9948W        W82274  17.492  22.086   4.204
 9949W        W82275  20.150   2.683   4.634
 9950W        W82276  37.012  14.193  11.277
 9951W        W82277  33.944  36.440   1.672
 9952W        W82278  42.484  42.410  14.376
 9953W        W82279   0.337  19.140  14.350
 9954W        W82280  32.380  26.862   3.815
 9955W        W82281  36.761  23.560   3.743
 9956W        W82282  14.786  14.774  12.896
 9957W        W82283   7.454  36.673  14.679
 9958W        W82284  24.022  10.520  10.666
 9959W        W82285  28.028  43.461   2.583
 9960W        W82286   7.753  26.133  11.465
 9961W        W82287  44.861   7.323   3.727
 9962W        W82288  11.506  35.664   4.408
 9963W        W82289  39.585  21.545  11.926
 9964W        W82290  20.235  37.584  13.267
 9965W        W82291   7.880   2.649  14.319
 9966W        W82292  41.413  44.511  14.373
 9967W        W82293  26.503  37.452   0.842
 9968W        W82294  15.131   9.919   0.779
 9969W        W82295  19.407  15.230   0.465
 9970W        W82296  15.571  28.606  14.482
 9971W        W82297   4.337  23.199   3.322
 9972W        W82298  19.376  31.029  14.927
 9973W        W82299  38.085  22.082   4.606
 9974W        W82300  34.460   7.733  11.434
 9975W        W82301  17.142  23.798  11.968
 9976W        W82302  40.009  43.391   2.657
 9977W        W82303  23.663  24.626  12.664
 9978W        W82304  21.053  35.382   3.667
 9979W        W82305  10.706  39.955  11.881
 9980W        W82306  30.364   4.835  13.354
 9981W        W82307  13.596  22.090  12.825
 9982W        W82308  24.933  14.704   4.577
 9983W        W82309  11.392   8.309   1.358
 9984W        W82310  41.736  25.663  14.064
 9985W        W82311  22.549  26.044   2.364
 9986W        W82312  16.678  38.954  14.452
 9987W        W82313   3.899  27.441  14.879
 9988W        W82314  29.646  30.898   3.807
 9989W        W82315  14.575  30.362  12.032
 9990W        W82316   3.411  16.571  14.519
 9991W        W82317  18.578  44.695   1.641
 9992W        W82318  14.757   8.710  12.472
 9993W        W82319  29.381  24.207  11.115
 9994W        W82320  39.080  20.219  12.860
 9995W        W82321  39.388  38.786   1.899
 9996W        W82322  37.234  44.884  12.907
 9997W        W82323  32.350  26.051  12.753
 9998W        W82324  27.650  41.477   4.495
 9999W        W82325  44.730  44.262  11.575
10000W        W82326  18.166  28.122   2.865
10001W        W82327  13.951   8.890   2.815
10002W        W82328  14.416  30.974  11.178
10003W        W82329   4.027   3.684  13.134
10004W        W82330   0.798  25.913   1.896
10005W        W82331  12.293   0.967  10.641
10006W        W82332  29.543  25.014  13.971
10007W        W82333  11.966  20.723  13.474
10008W        W82334  14.171  26.600   5.642
10009W        W82335  40.400   2.149  14.043
10010W        W82336  28.577  44.876   3.571
10011W        W82337   7.453  21.485   0.823
10012W        W82338  10.267  40.054  13.158
10013W        W82339  10.178   3.416   0.939
10014W        W82340   4.400  24.524  11.633
10015W        W82341   8.410   9.378   1.590
10016W        W82342  30.795  29.388   4.996
10017W        W82343  13.132  38.774  11.230
10018W        W82344  27.131  16.647   4.023
10019W        W82345  24.579  11.170  13.070
10020W        W82346  24.134   8.204   3.148
10021W        W82347  32.873  38.490  14.370
10022W        W82348  12.840   9.476   1.316
10023W        W82349  28.511  40.834   2.253
10024W        W82350  18.284   5.869   4.630
10025W        W82351  26.100  38.086  12.492
10026W        W82352   8.819  24.681   1.925
10027W        W82353   8.534   8.689   4.565
10028W        W82354  19.198  12.254   0.221
10029W        W82355  35.890  20.065   4.612
10030W        W82356  23.740  31.558  13.094
10031W        W82357  35.566  18.284  11.956
10032W        W82358   5.300  31.013   0.306
10033W        W82359  13.418  35.306  13.741
10034W        W82360   0.237  25.703   2.770
10035W        W82361  37.647  16.099  12.081
10036W        W82362  44.284  25.493  14.882
10037W        W82363  14.722   1.998   0.454
10038W        W82364  16.668  42.417  10.773
10039W        W82365  30.386  12.249   2.397
10040W        W82366  22.117  12.340  11.111
10041W        W82367   1.313   4.901  11.962
10042W        W82368  24.385  39.104   1.851
10043W        W82369   8.414   8.394  12.532
10044W        W82370  34.556  28.736  14.845
10045W        W82371  29.966  38.295  12.006
10046W        W82372  36.670  41.550   3.733
10047W        W82373  17.348  42.959  13.779
10048W        W82374  29.329  37.662  11.620
10049W        W82375  13.282  25.175   2.380
10050W        W82376   5.901   1.424  14.362
10051W        W82377  12.991  40.556  12.905
10052W        W82378  43.304  44.256   4.174
10053W        W82379  19.017  17.177   3.285
10054W        W82380  24.671  19.058  12.379
10055W        W82381  18.317  42.852  14.377
10056W        W82382   2.917  28.090   1.824
10057W        W82383  24.066   6.034  13.842
10058W        W82384   7.844   7.850  12.104
10059W        W82385  34.940  12.798   1.383
10060W        W82386  43.092  10.086   0.160
10061W        W82387  41.560  13.159   2.652
10062W        W82388  38.705  29.182  10.972
10063W        W82389  25.028  38.553   4.797
10064W        W82390  19.281  11.251   1.925
10065W        W82391  16.237   6.895  13.541
10066W        W82392   5.024  25.018  12.163
10067W        W82393  43.001  29.545   0.774
10068W        W82394   4.769  17.423   4.142
10069W        W82395   1.389   6.480   0.989
10070W        W82396  33.138  25.144   1.480
10071W        W82397  35.364  15.654  14.723
10072W        W82398  26.594  26.702  10.864
10073W        W82399   1.448  40.334  10.580
10074W        W82400  21.246  42.514  12.210
10075W        W82401   7.313  11.781   1.199
10076W        W82402  20.293  36.432   1.493
10077W        W82403  35.116  35.037   3.249
10078W        W82404  31.241  36.534  14.080
10079W        W82405  38.149  31.441  12.709
10080W        W82406  18.675  42.283  13.993
10081W        W82407  11.332  29.062   4.460
10082W        W82408   4.170  32.970  13.857
10083W        W82409   0.753  26.919   3.168
10084W        W82410   3.863  39.941   2.243
10085W        W82411  39.944  41.978  13.633
10086W        W82412  24.230  17.017  13.448
10087W        W82413  19.549  18.852  14.841
10088W        W82414  15.042   8.197  12.926
10089W        W82415  31.404  26.069   1.824
10090W        W82416  31.883  31.568   2.147
10091W        W82417  11.179  41.050  14.511
10092W        W82418   7.362  42.990   2.393
10093W        W82419  10.440   4.318  14.761
10094W        W82420  38.076   7.730  11.699
10095W        W82421  17.321  12.748   0.908
10096W        W82422  20.553  27.993  11.513
10097W        W82423  20.568  29.437  14.542
10098W        W82424   2.616  23.437   1.337
10099W        W82425  34.105  24.742   4.845
10100W        W82426  19.949  36.511   4.652
10101W        W82427  16.253  18.602   3.320
10102W        W82428   3.916  28.000   0.718
10103W        W82429   0.796   0.620  14.540
10104W        W82430  22.552  12.848   9.831
10105W        W82431  43.434  14.587   1.314
10106W        W82432  19.584  21.719  12.001
10107W        W82433  26.582  39.610  11.353
10108W        W82434  24.981   5.369  13.071
10109W        W82435   6.264  30.626  12.382
10110W        W82436  20.052   0.774  12.970
10111W        W82437   5.001   1.423   2.631
10112W        W82438  34.786   6.400  14.502
10113W        W82439  41.928   8.707   3.840
10114W        W82440  33.044  22.750   4.643
10115W        W82441  39.811   7.991   2.727
10116W        W82442   6.132  37.559  11.928
10117W        W82443  41.306  29.570   4.943
10118W        W82444  33.452  37.594   3.700
10119W        W82445  13.943  35.554   0.790
10120W        W82446  20.342  18.625  14.292
10121W        W82447  37.128  27.608  14.254
10122W        W82448  30.436  18.752   2.627
10123W        W82449  27.607  10.228  11.844
10124W        W82450  10.228  34.745   5.021
10125W        W82451   4.985  37.300  13.001
10126W        W82452  32.256  13.307  10.673
10127W        W82453  34.118  41.939   2.332
10128W        W82454   2.360  28.065   4.685
10129W        W82455   1.311  25.011  14.024
10130W        W82456  22.994  15.718   3.666
10131W        W82457  24.164  33.187  11.978
10132W        W82458  41.420   9.189   3.348
10133W        W82459  26.569  21.106  11.378
10134W        W82460   0.045   7.268   4.197
10135W        W82461  26.600  15.757  13.336
10136W        W82462  37.259  29.653   2.361
10137W        W82463  26.053   2.849   4.564
10138W        W82464  23.701  35.382   1.694
10139W        W82465  38.535  37.057   2.494
10140W        W82466   9.994  32.919  10.642
10141W        W82467  20.760  40.050   2.107
10142W        W82468  14.145  41.714  11.571
10143W        W82469  15.931  42.877  14.285
10144W        W82470   8.580  34.482   2.264
10145W        W82471  30.282  41.451   4.458
10146W        W82472  11.105  21.601  13.377
10147W        W82473  25.547  12.161   1.868
10148W        W82474  14.749   3.638  13.387
10149W        W82475   9.747  35.527  11.863
10150W        W82476  44.202  38.497   0.365
10151W        W82477  23.177  27.579  10.297
10152W        W82478   3.725   2.821  14.928
10153W        W82479  25.638  39.752   1.922
10154W        W82480  26.986  28.320   3.721
10155W        W82481  10.295  32.339  11.041
10156W        W82482  39.785  25.205   1.944
10157W        W82483  23.194   4.455   3.085
10158W        W82484  39.542  10.624   4.109
10159W        W82485  29.521  17.220  12.071
10160W        W82486  17.635  34.538  13.887
10161W        W82487  16.267  30.602   4.384
10162W        W82488   9.554  41.465   2.817
10163W        W82489   3.022  33.150  11.735
10164W        W82490  26.033  12.222  13.205
10165W        W82491  29.585  30.810   2.438
10166W        W82492   2.229  14.153   0.892
10167W        W82493  36.383  33.155  14.221
10168W        W82494  44.524  43.313   4.560
10169W        W82495   0.011  22.018  12.814
10170W        W82496  12.645  27.930   2.110
10171W        W82497   5.788  41.246   3.602
10172W        W82498  34.086  30.162   1.701
10173W        W82499  21.821  28.448   4.031
10174W        W82500  38.485  40.587   1.231
10175W        W82501  31.191   9.789  14.054
10176W        W82502  28.173  12.663  13.402
10177W        W82503  24.527  43.043   4.858
10178W        W82504  19.261  41.585   4.309
10179W        W82505  16.179  20.056  12.036
10180W        W82506  13.081  35.508  13.404
10181W        W82507   8.824  39.959  10.751
10182W        W82508  33.961  31.127   3.168
10183W        W82509  38.462   9.510   0.973
10184W        W82510   9.744  34.083  11.938
10185W        W82511  27.867  35.735   2.740
10186W        W82512   4.722  12.358   1.490
10187W        W82513  25.686   5.123   4.150
10188W        W82514  18.040  23.677  12.004
10189W        W82515  17.343  39.520   2.961
10190W        W82516  16.806   0.171   4.497
10191W        W82517   6.715  29.359  12.542
10192W        W82518  23.718  12.327   1.641
10193W        W82519  41.392   4.433  12.167
10194W        W82520   5.169  41.774  12.552
10195W        W82521  42.280  11.914   3.660
10196W        W82522  44.270  17.789  13.470
10197W        W82523  32.524  22.226  11.746
10198W        W82524  30.261  18.683  10.477
10199W        W82525  16.162  39.873  12.952
10200W        W82526  40.028  17.329   0.205
10201W        W82527  41.180  11.907  12.554
10202W        W82528  34.848  13.673   0.374
10203W        W82529  44.301  13.601   2.782
10204W        W82530  10.021  26.746   4.414
10205W        W82531  23.677  34.652   3.599
10206W        W82532  36.084  31.654   1.900
10207W        W82533  20.825  21.227   2.771
10208W        W82534  29.445  37.994   3.112
10209W        W82535  42.320  18.418  11.656
10210W        W82536  29.422  36.374  10.975
10211W        W82537  32.402  20.020  12.648
10212W        W82538  41.785   5.884  13.841
10213W        W82539  28.615  36.420  14.055
10214W        W82540  12.321  16.730  13.410
10215W        W82541   6.898  16.173   4.361
10216W        W82542  28.340  34.934   2.373
10217W        W82543   1.499  24.029   1.760
10218W        W82544  10.726  26.687  12.403
10219W        W82545  19.226  14.768  14.111
10220W        W82546   4.292  17.306   2.711
10221W        W82547  16.846  35.809   3.406
10222W        W82548  39.399  37.748  10.156
10223W        W82549  16.141   8.805   0.959
10224W        W82550  44.022  44.258  13.432
10225W        W82551   0.839  30.172   0.293
10226W        W82552  36.505  32.425   2.416
10227W        W82553  16.831   3.751   0.322
10228W        W82554  18.074  33.677  13.006
10229W        W82555  30.247  25.354  12.339
10230W        W82556  18.623   3.811   4.493
10231W        W82557  14.326   6.799   3.423
10232W        W82558  38.520   1.416   5.049
10233W        W82559  29.180  12.716   4.677
10234W        W82560  29.690  21.958   0.827
10235W        W82561  38.622   6.516  13.257
10236W        W82562  17.968  44.859  11.212
10237W        W82563   7.298   3.289   2.461
10238W        W82564  25.198  43.908   3.337
10239W        W82565  26.157  23.041  11.944
10240W        W82566  42.767  10.612   2.776
10241W        W82567   7.931  32.492   3.596
10242W        W82568  39.810   8.483   2.929
10243W        W82569  43.259  25.608  12.805
10244W        W82570  32.972  23.411  11.122
10245W        W82571  36.656   6.223  10.808
10246W        W82572  25.069   0.342  11.620
10247W        W82573  26.475  20.014   2.658
10248W        W82574  13.083  21.160  10.025
10249W        W82575  34.473  10.323  12.541
10250W        W82576  26.661  34.224  12.634
10251W        W82577   9.323   0.562  13.938
10252W        W82578   6.318  32.899  13.118
10253W        W82579   7.320  13.817  11.166
10254W        W82580  36.923  14.709  11.957
10255W        W82581   9.278  23.188   1.777
10256W        W82582  15.078  19.559   4.771
10257W        W82583  14.751   0.418   3.385
10258W        W82584  13.705  20.222  10.718
10259W        W82585  10.872  18.364  12.411
10260W        W82586  21.713   4.830   1.749
10261W        W82587  20.991   3.908  14.273
10262W        W82588  13.169  43.625  14.459
10263W        W82589   5.335  24.061   2.198
10264W        W82590  27.352  42.419   0.001
10265W        W82591  22.988  35.292   0.536
10266W        W82592   1.899  28.347   2.249
10267W        W82593  16.356  21.776   1.290
10268W        W82594  40.348  24.653   4.420
10269W        W82595   5.719  18.964   1.850
10270W        W82596  24.996   7.900   0.854
10271W        W82597  21.043  35.592  14.445
10272W        W82598  10.348  37.490   3.775
10273W        W82599  11.097   3.912   0.951
10274W        W82600  18.370  19.319  13.375
10275W        W82601  44.039   4.978  14.599
10276W        W82602   1.750  32.200  11.953
10277W        W82603  30.529   7.871   2.722
10278W        W82604  26.913   2.291  10.611
10279W        W82605  23.083  12.239  14.284
10280W        W82606  29.519   6.975  14.297
10281W        W82607  44.154  36.480  12.704
10282W        W82608  41.416  42.373   1.171
10283W        W82609  15.265  28.612  14.021
10284W        W82610  14.150  19.849  13.114
10285W        W82611  12.418  14.168   1.317
10286W        W82612  26.692  17.226  13.908
10287W        W82613  17.106  33.968   1.414
10288W        W82614  26.225  37.834   2.664
10289W        W82615  23.538   0.316  12.554
10290W        W82616  30.746  11.312  12.465
10291W        W82617  18.114  29.449  14.921
10292W        W82618   7.616   5.310   0.429
10293W        W82619  10.701  30.096   4.044
10294W        W82620  23.791   6.907   0.451
10295W        W82621   4.581  41.500  13.349
10296W        W82622  17.570   0.258  11.202
10297W        W82623   9.776  43.477   0.900
10298W        W82624  19.735  37.548  12.716
10299W        W82625  31.038   0.978   0.255
10300W        W82626   1.907  33.841  13.081
10301W        W82627  10.132   5.459  12.848
10302W        W82628  38.524  22.762  14.888
10303W        W82629  23.196  25.370  12.625
10304W        W82630  11.849  18.256  11.456
10305W        W82631  14.161  41.488  12.991
10306W        W82632  32.901  28.055  12.540
10307W        W82633  23.608  31.038   3.789
10308W        W82634  19.908  31.058   1.633
10309W        W82635   6.062  36.359   4.221
10310W        W82636  44.970  20.719  12.356
10311W        W82637  42.878   9.873  13.085
10312W        W82638  37.621   2.799  14.972
10313W        W82639  36.010  39.108   0.700
10314W        W82640   9.969  18.995   3.805
10315W        W82641   2.441  37.309   1.964
10316W        W82642  41.865   3.389  11.253
10317W        W82643  23.754  23.060  11.896
10318W        W82644  27.502  40.919   4.460
10319W        W82645  43.275  12.748   3.673
10320W        W82646   3.766  16.151   3.629
10321W        W82647   3.853  26.992   3.626
10322W        W82648  12.352  24.907   5.119
10323W        W82649  35.930   7.388   4.664
10324W        W82650  42.823  38.630  12.120
10325W        W82651  36.741  10.154  12.366
10326W        W82652   2.282  31.840  13.007
10327W        W82653  13.998  24.527   5.413
10328W        W82654  31.130  22.270  14.284
10329W        W82655  44.379  15.550   1.235
10330W        W82656  37.958  10.325   3.932
10331W        W82657   5.198  17.356  11.494
10332W        W82658   9.249  40.541   0.875
10333W        W82659  36.962  43.024   2.300
10334W        W82660   8.995  12.823   1.728
10335W        W82661  30.527   3.255   4.860
10336W        W82662  17.187  22.921  13.810
10337W        W82663  29.926   7.546   5.175
10338W        W82664  30.524  24.849  13.135
10339W        W82665  13.681  29.848  10.590
10340W        W82666  17.044  36.172  10.785
10341W        W82667  20.504   6.274  12.603
10342W        W82668   2.338  29.935  11.661
10343W        W82669  11.645  11.695  14.711
10344W        W82670  33.500  23.126   2.786
10345W        W82671  26.846  35.674  10.105
10346W        W82672  26.243  33.590   1.142
10347W        W82673   0.611  32.558   4.732
10348W        W82674   5.774  31.939   2.333
10349W        W82675  10.241  41.349  10.219
10350W        W82676  42.090   5.016   2.283
10351W        W82677  34.510  18.048  10.938
10352W        W82678   2.471  16.331   0.457
10353W        W82679  12.444  26.066   3.160
10354W        W82680  23.759  11.422  11.273
10355W        W82681   5.869  32.380  13.438
10356W        W82682  33.839  38.930   2.693
10357W        W82683   3.369   0.288   0.846
10358W        W82684  27.508   0.819   1.989
10359W        W82685  24.142  44.890  12.143
10360W        W82686  38.107  32.326  10.641
10361W        W82687  44.457  15.058  13.185
10362W        W82688  19.001  31.147   3.198
10363W        W82689   1.304  20.672   3.777
10364W        W82690  41.967   6.464  13.012
10365W        W82691  41.612  25.177   4.555
10366W        W82692  24.757  22.965   3.666
10367W        W82693  36.147  36.068  14.890
10368W        W82694  22.024   2.158   3.227
10369W        W82695   3.796   8.974   4.656
10370W        W82696  18.229  35.106  12.529
10371W        W82697  12.132   2.176  12.414
10372W        W82698  33.324  38.375  13.452
10373W        W82699  19.666   6.479  11.120
10374W        W82700  19.181  20.303   0.809
10375W        W82701  25.368  11.083  12.863
10376W        W82702  12.241   2.037  11.188
10377W        W82703   1.453  15.030  13.789
10378W        W82704  21.716  37.520   1.299
10379W        W82705  15.569  26.524   1.275
10380W        W82706  26.746  35.080   4.241
10381W        W82707   7.292   6.416  12.874
10382W        W82708  23.126  33.428   4.484
10383W        W82709  22.690  15.725   5.479
10384W        W82710  27.528  42.823  10.348
10385W        W82711  37.991  43.268   1.336
10386W        W82712  29.754  42.948   5.212
10387W        W82713  28.471  38.322  14.936
10388W        W82714  40.354  38.018  10.780
10389W        W82715  33.178  20.881  13.022
10390W        W82716  21.929  43.339  11.040
10391W        W82717  25.523  23.760   0.581
10392W        W82718  16.746  10.719  14.482
10393W        W82719  43.861   2.401  14.734
10394W        W82720  34.365   2.424   0.076
10395W        W82721  26.483  22.626  14.503
10396W        W82722  41.715  39.941  12.516
10397W        W82723   3.866  14.859   3.356
10398W        W82724  26.676  19.207   4.988
10399W        W82725  21.725  33.002   1.903
10400W        W82726  26.935  39.507  12.631
10401W        W82727  22.158  13.249  13.790
10402W        W82728  34.898  42.338   2.617
10403W        W82729  38.331   4.983  12.936
10404W        W82730  24.633  37.531   2.071
10405W        W82731  11.933  12.015  14.420
10406W        W82732   7.577   6.104   4.247
10407W        W82733  31.178  26.655  14.297
10408W        W82734  11.278  34.997   1.507
10409W        W82735   5.682   1.310  13.349
10410W        W82736  27.413  36.946   1.424
10411W        W82737  25.166  21.401  14.926
10412W        W82738  21.586  27.705  12.074
10413W        W82739  36.407  39.910   4.611
10414W        W82740  17.227  11.321  14.063
10415W        W82741  38.898   0.662   4.523
10416W        W82742  18.540  35.653   1.187
10417W        W82743  29.091   1.007  10.413
10418W        W82744  12.777  17.129   2.310
10419W        W82745  28.628   8.191   1.591
10420W        W82746  22.685  35.833   5.033
10421W        W82747  38.882  21.197   3.034
10422W        W82748  34.523   4.649  14.991
10423W        W82749  28.430  39.730  13.458
10424W        W82750  25.070  39.915   4.938
10425W        W82751   3.704  12.707   3.694
10426W        W82752  15.521  13.169   0.879
10427W        W82753  23.847  39.364   0.314
10428W        W82754   2.287  10.065   1.654
10429W        W82755   3.945  14.656   2.205
10430W        W82756  22.282  17.722  13.035
10431W        W82757  29.232  27.581  13.059
10432W        W82758  43.890  38.501   1.847
10433W        W82759   8.789  26.402   1.430
10434W        W82760  26.587   7.740  13.626
10435W        W82761   9.117  13.779   4.690
10436W        W82762  28.434  38.261  13.975
10437W        W82763  36.408  29.346  12.128
10438W        W82764  43.886  31.052   1.948
10439W        W82765  37.066  21.724   4.356
10440W        W82766   2.308  25.427   1.394
10441W        W82767  14.222  43.381   3.721
10442W        W82768   1.151  42.728  14.774
10443W        W82769  16.976  14.255   0.650
10444W        W82770  43.743   9.388   0.392
10445W        W82771  23.034   1.123  14.826
10446W        W82772  31.655   2.788  11.711
10447W        W82773  42.017  17.208   4.053
10448W        W82774  34.851  25.660   0.334
10449W        W82775  13.853   7.407   4.321
10450W        W82776  24.722   1.272   1.239
10451W        W82777  36.060  29.917   1.089
10452W        W82778  17.314  32.588   1.202
10453W        W82779  15.576  25.939  13.371
10454W        W82780   2.945   4.858  14.034
10455W        W82781  23.671  14.284  11.988
10456W        W82782  17.561  43.665  11.989
10457W        W82783  25.894  14.987  13.455
10458W        W82784  36.048  38.576   0.615
10459W        W82785   3.335  36.387   1.877
10460W        W82786   7.912  18.745   4.973
10461W        W82787   2.373  16.231  12.252
10462W        W82788  39.511  43.289  13.782
10463W        W82789   4.614  36.042  12.348
10464W        W82790  10.477  30.434   0.545
10465W        W82791   5.828  43.642   3.296
10466W        W82792  23.671  28.423   0.057
10467W        W82793  19.834   0.969   1.812
10468W        W82794  13.234   3.417   4.537
10469W        W82795  15.644  14.382   0.758
10470W        W82796   7.935  25.917   3.288
10471W        W82797  31.872  13.862   1.431
10472W        W82798  34.070  30.320   2.602
10473W        W82799   1.374  13.903   3.576
10474W        W82800  27.969  39.611   3.348
10475W        W82801   1.765  22.215   1.239
10476W        W82802  43.896  34.537   2.487
10477W        W82803  41.177  22.402  13.723
10478W        W82804  24.564   3.751   0.926
10479W        W82805  14.743  16.725  11.700
10480W        W82806  20.984  36.044  11.464
10481W        W82807  34.481  44.129  10.288
10482W        W82808   0.141  35.592   4.804
10483W        W82809  31.304  16.796   2.689
10484W        W82810   6.514  28.511   1.276
10485W        W82811  42.967   7.063  12.135
10486W        W82812  19.118  43.505   1.282
10487W        W82813  43.223  17.301   9.935
10488W        W82814  18.289  40.929  13.362
10489W        W82815  41.992   6.086   1.439
10490W        W82816  12.170  39.056   0.747
10491W        W82817  23.987  41.990  10.549
10492W        W82818  30.039  16.610  12.047
10493W        W82819   8.135  16.558   3.750
10494W        W82820   8.822  25.511  11.110
10495W        W82821  44.621  40.606  13.440
10496W        W82822  44.379   9.893   0.859
10497W        W82823  31.573   3.198   4.438
10498W        W82824  35.984  16.547   2.925
10499W        W82825  32.921  35.056  10.040
10500W        W82826  40.296  29.150   0.998
10501W        W82827  11.354  20.462   4.614
10502W        W82828  14.492  32.829  12.426
10503W        W82829  40.648  32.111  11.796
10504W        W82830  11.368  40.802   2.239
10505W        W82831  39.372  41.540  12.745
10506W        W82832   9.686  25.173  13.509
10507W        W82833  12.694  22.563  12.461
10508W        W82834  40.918  20.758   2.864
10509W        W82835  35.139  13.369  12.482
10510W        W82836  40.398   9.655   2.413
10511W        W82837  10.799  34.558   4.608
10512W        W82838  13.106  28.722   1.041
10513W        W82839   5.742  21.201   3.204
10514W        W82840  11.113  41.058  11.487
10515W        W82841  13.141  42.764  12.622
10516W        W82842  18.946  18.314  12.709
10517W        W82843  40.037   8.337   4.276
10518W        W82844  30.606  39.946   0.195
10519W        W82845  25.214  16.297   5.236
10520W        W82846   3.673  11.344  11.410
10521W        W82847  11.359  40.504   0.246
10522W        W82848  32.864   2.902  14.298
10523W        W82849  44.731   7.279   3.227
10524W        W82850  22.290  24.119  12.040
10525W        W82851   7.738  32.918  13.862
10526W        W82852   4.286  34.186   2.791
10527W        W82853   1.887  44.447  12.858
10528W        W82854  16.689  40.310   3.686
10529W        W82855  14.297  31.332   4.542
10530W        W82856   4.477  44.416  14.752
10531W        W82857   1.288   0.740   1.842
10532W        W82858   6.188  10.888  13.588
10533W        W82859  26.005   4.447  11.999
10534W        W82860  20.129   8.453  11.791
10535W        W82861  39.348   7.404   0.838
10536W        W82862  28.349   5.942  11.157
10537W        W82863  14.599  33.942   3.638
10538W        W82864  22.624  16.698  14.785
10539W        W82865  27.695   4.362  14.425
10540W        W82866   0.690  18.598   0.217
10541W        W82867  37.717  25.606  14.352
10542W        W82868   2.729  25.130   3.121
10543W        W82869  22.280  13.831   0.344
10544W        W82870  20.725   4.941  11.591
10545W        W82871  34.097  26.560  11.011
10546W        W82872  12.677  38.556  11.250
10547W        W82873  16.609  40.077  10.643
10548W        W82874  11.180  17.484  10.749
10549W        W82875   9.865  20.105   0.872
10550W        W82876   0.698  21.878  12.625
10551W        W82877  30.714   0.276   3.335
10552W        W82878  40.359  33.399  11.636
10553W        W82879  42.987   5.528  12.876
10554W        W82880   3.168  22.717   1.806
10555W        W82881  36.130   1.692   1.692
10556W        W82882  21.511  44.405  11.628
10557W        W82883  33.697  44.376   3.410
10558W        W82884  13.234   1.074   3.731
10559W        W82885  28.290  10.232  12.635
10560W        W82886  36.665  23.048   1.987
10561W        W82887  32.495  43.326   3.572
10562W        W82888  40.804  14.653  12.869
10563W        W82889   2.511  27.507   2.302
10564W        W82890  31.524  18.806   3.709
10565W        W82891  24.127  14.745  13.408
10566W        W82892  14.683  42.264  14.488
10567W        W82893  27.744   2.827  13.372
10568W        W82894  31.615  22.110   2.837
10569W        W82895   8.760  43.423  10.478
10570W        W82896  12.160  11.286   3.760
10571W        W82897  18.598  15.661   3.935
10572W        W82898  39.978  36.353   4.121
10573W        W82899  14.782  33.490  11.705
10574W        W82900  10.434  44.764  14.232
10575W        W82901  22.580  16.205   2.853
10576W        W82902  12.317   7.448  12.073
10577W        W82903  40.520  14.864  14.935
10578W        W82904  35.136  10.666   1.847
10579W        W82905  28.332  15.814  11.013
10580W        W82906  35.662  19.266   4.203
10581W        W82907  13.338   1.901  14.490
10582W        W82908  33.396  20.091   2.603
10583W        W82909  12.611   0.342   0.938
10584W        W82910  23.155   2.107  14.105
10585W        W82911  39.336  35.660   1.347
10586W        W82912  39.539  21.471   3.595
10587W        W82913   2.288  33.214   3.643
10588W        W82914  24.489  30.182  12.382
10589W        W82915  35.662   9.152   1.181
10590W        W82916  30.698   9.759   2.302
10591W        W82917  41.203  37.154   1.186
10592W        W82918  28.684  33.270  13.805
10593W        W82919  22.454   2.962  12.894
10594W        W82920  24.472  26.665  12.438
10595W        W82921  22.215  40.115   3.163
10596W        W82922  28.750  30.364  11.882
10597W        W82923  40.546  21.960  10.708
10598W        W82924  34.538   4.951   3.230
10599W        W82925  10.801   4.253  13.869
10600W        W82926  33.427  10.911   1.645
10601W        W82927  39.375  38.653  12.502
10602W        W82928   1.789   6.700   1.315
10603W        W82929  19.979  31.852  10.813
10604W        W82930  40.045  27.074   1.327
10605W        W82931  39.334  39.906   3.239
10606W        W82932  39.131  14.171  13.430
10607W        W82933  23.325  29.922  10.541
10608W        W82934   2.712  32.135   3.900
10609W        W82935   1.224  39.819   0.063
10610W        W82936  22.985  42.405  13.038
10611W        W82937  36.534  38.502  14.151
10612W        W82938  37.379   8.172   2.660
10613W        W82939  44.579  30.989  14.577
10614W        W82940  19.225  14.823   2.398
10615W        W82941  22.834  30.288   1.706
10616W        W82942  27.060  35.022  11.435
10617W        W82943   6.389  32.625   3.844
10618W        W82944  12.982   5.253  10.704
10619W        W82945  10.816  10.081   4.465
10620W        W82946  29.052  24.426   4.502
10621W        W82947  30.444   1.390  12.430
10622W        W82948  39.739  34.535   1.387
10623W        W82949  16.820  27.050   0.077
10624W        W82950  12.149   1.559   2.213
10625W        W82951  38.890  12.745  10.515
10626W        W82952   0.852  32.552  12.346
10627W        W82953   8.349   1.470  10.651
10628W        W82954  34.290  31.168   2.745
10629W        W82955  43.970  34.295   4.315
10630W        W82956  10.747  13.265   1.869
10631W        W82957  21.270  32.189  12.536
10632W        W82958  23.235  11.220   2.392
10633W        W82959   3.099  26.044   4.724
10634W        W82960  14.711  13.108   4.475
10635W        W82961  28.446  44.486  10.986
10636W        W82962  28.025   7.748  12.545
10637W        W82963  10.926  20.168  13.842
10638W        W82964  36.144   4.903   3.322
10639W        W82965  16.141  41.868   3.618
10640W        W82966  43.203  37.374   4.709
10641W        W82967  29.405  11.420  14.886
10642W        W82968  36.794   1.805   2.265
10643W        W82969  34.161  14.703  14.070
10644W        W82970  40.855  16.933   0.375
10645W        W82971  20.184  28.479   2.987
10646W        W82972  35.979  13.658   1.332
10647W        W82973  11.374  25.000   5.219
10648W        W82974  17.577  27.994   1.684
10649W        W82975   4.223  12.325   4.660
10650W        W82976  23.662   7.051   1.414
10651W        W82977   0.825  27.213  10.675
10652W        W82978  14.741   9.399   3.821
10653W        W82979  35.325  15.066   3.733
10654W        W82980  33.193  41.479  10.701
10655W        W82981  33.939  23.783  13.140
10656W        W82982  28.395  19.533  12.928
10657W        W82983  32.076   8.733   3.857
10658W        W82984   4.922  12.759  10.469
10659W        W82985  13.082   7.668  13.872
10660W        W82986  19.223  25.084   0.340
10661W        W82987  29.458  28.952  12.174
10662W        W82988  31.834  22.585   1.728
10663W        W82989  20.754  20.326  12.922
10664W        W82990  38.131   3.269   4.135
10665W        W82991  10.871  27.210   4.293
10666W        W82992  18.509   1.334   3.681
10667W        W82993  23.147  18.933  11.146
10668W        W82994  25.206  44.946   3.020
10669W        W82995  33.213  14.672   2.237
10670W        W82996  13.227   2.434  14.369
10671W        W82997  34.048   5.756  13.150
10672W        W82998   2.396  20.025  10.411
10673W        W82999  32.359   1.014  14.906
10674W        W83000  14.725  26.033   3.797
10675W        W83001  36.911  37.076  13.056
10676W        W83002  30.483   9.984   9.825
10677W        W83003   8.885  41.206  13.935
10678W        W83004  38.678   9.528  14.361
10679W        W83005  43.434  29.645   4.431
10680W        W83006  32.865   9.164   2.606
10681W        W83007   3.984  18.897  11.483
10682W        W83008  39.111  37.384   4.068
10683W        W83009  16.805  23.566   1.501
10684W        W83010  24.394  23.502  13.442
10685W        W83011  13.748  44.005   4.918
10686W        W83012  21.042  37.454   1.039
10687W        W83013   6.152  32.617   3.392
10688W        W83014   3.217  41.601   4.064
10689W        W83015  40.833  38.411   3.207
10690W        W83016  21.515  35.592   0.370
10691W        W83017  29.579  31.304   3.390
10692W        W83018  27.782  39.097   2.372
10693W        W83019   1.417   6.418   3.266
10694W        W83020  15.847  38.268   2.696
10695W        W83021  18.531  36.014   2.572
10696W        W83022   8.371  39.809   2.800
10697W        W83023  10.338  21.619   1.842
10698W        W83024  36.551  39.432   4.457
10699W        W83025   3.653  39.368  11.987
10700W        W83026  26.756  26.732   2.811
10701W        W83027   3.240   3.411   1.101
10702W        W83028  32.407  12.180  14.254
10703W        W83029  41.146  37.925  11.042
10704W        W83030  26.291  43.498  13.867
10705W        W83031  38.333  36.952  13.843
10706W        W83032   3.656  25.926   4.672
10707W        W83033  41.077  30.037  11.903
10708W        W83034  23.062  28.076   0.589
10709W        W83035  22.375   8.146   0.270
10710W        W83036  13.164   8.900   2.890
10711W        W83037  28.605  10.674   1.225
10712W        W83038   8.850  31.673   3.262
10713W        W83039  33.267  27.152  14.770
10714W        W83040  15.668  29.359   2.235
10715W        W83041  24.594  39.296  11.406
10716W        W83042  40.356  26.241  11.208
10717W        W83043  22.577  15.383  14.314
10718W        W83044   3.920  16.839  14.307
10719W        W83045   5.695  11.409  14.005
10720W        W83046  14.828  39.102  13.357
10721W        W83047  35.338  24.578  14.740
10722W        W83048  18.573  35.026  13.876
10723W        W83049  20.383  36.805  14.748
10724W        W83050  22.621  24.005   1.449
10725W        W83051  28.992  10.402   4.254
10726W        W83052  34.559   6.401   2.923
10727W        W83053   5.116  13.198   2.826
10728W        W83054   4.965  12.017  13.912
10729W        W83055  29.550   0.385  12.014
10730W        W83056   7.684  10.453  12.491
10731W        W83057  40.516   0.983   0.978
10732W        W83058  10.718  23.469  10.675
10733W        W83059  38.044  32.584  13.928
10734W        W83060  41.054  11.884   4.309
10735W        W83061  10.386  39.996   4.092
10736W        W83062  15.167  26.724   3.978
10737W        W83063   2.566   5.691  11.901
10738W        W83064   9.794  19.802   1.276
10739W        W83065   3.444   4.535  14.447
10740W        W83066  40.524  16.589   1.130
10741W        W83067   4.804  34.011  13.770
10742W        W83068  22.233   1.897  11.958
10743W        W83069   1.942  26.035   3.224
10744W        W83070   8.539  17.948  12.145
10745W        W83071  29.072  14.090   1.764
10746W        W83072   1.478  29.585   0.230
10747W        W83073  11.247  24.572  12.598
10748W        W83074  33.042  39.283  11.956
10749W        W83075  24.345  23.522  10.649
10750W        W83076  41.786  21.607   3.725
10751W        W83077  32.815   2.259  14.977
10752W        W83078  15.984  35.329   4.134
10753W        W83079  31.381   1.231   1.822
10754W        W83080  43.378   4.280  13.067
10755W        W83081  35.603  41.416   4.641
10756W        W83082  19.295  36.892  14.816
10757W        W83083   8.668  10.793  14.039
10758W        W83084   8.784  39.853   3.894
10759W        W83085   7.755   4.117   2.249
10760W        W83086  24.030  15.601   2.684
10761W        W83087   6.472  32.936  11.197
10762W        W83088  20.077  18.054  14.278
10763W        W83089  19.893  43.281   4.254
10764W        W83090  31.101  16.974  13.492
10765W        W83091  40.598  25.625  14.926
10766W        W83092  12.349  40.078  13.852
10767W        W83093  25.166   6.194  13.127
10768W        W83094  17.195  31.177   1.506
10769W        W83095  23.475   6.685   2.788
10770W        W83096  18.445  36.514   3.310
10771W        W83097  26.764   8.191   1.286
10772W        W83098  22.717  22.088   0.672
10773W        W83099  19.157   9.293  12.616
10774W        W83100  25.606  15.868   4.551
10775W        W83101  29.715  37.526  12.429
10776W        W83102   9.899  34.022   1.246
10777W        W83103  22.758  29.855  11.364
10778W        W83104  15.160  37.070   4.270
10779W        W83105  15.782  36.016  13.029
10780W        W83106  13.552  17.519  14.302
10781W        W83107  43.037   8.018  13.809
10782W        W83108  11.095  38.925  13.589
10783W        W83109  10.781  10.475   0.166
10784W        W83110  30.269  36.460  13.833
10785W        W83111  10.562   0.496  11.499
10786W        W83112  13.780  43.990  14.139
10787W        W83113  19.369  37.485  13.604
10788W        W83114  19.746   2.644   0.775
10789W        W83115  10.006  26.948  11.240
10790W        W83116   7.728  13.842   2.871
10791W        W83117  27.524  40.495   2.097
10792W        W83118  17.155  21.239  13.087
10793W        W83119  39.930  10.293  13.878
10794W        W83120  10.665  15.249  11.427
10795W        W83121  42.902  33.066  12.979
10796W        W83122  38.031  41.734   0.110
10797W        W83123  14.313  21.114  11.886
10798W        W83124  33.755  18.307   2.768
10799W        W83125  33.559  40.761   1.765
10800W        W83126  10.569  28.610   2.733
10801W        W83127  16.811   5.167   4.213
10802W        W83128  18.677  33.409   0.638
10803W        W83129  23.255   3.676   1.774
10804W        W83130   9.816  26.605   1.241
10805W        W83131  20.118  35.874  10.314
10806W        W83132  14.250  11.660  13.921
10807W        W83133  33.100  10.321  12.800
10808W        W83134  11.618  35.361  10.704
10809W        W83135  22.905   4.861   4.608
10810W        W83136  37.968  35.342   1.283
10811W        W83137   8.339  16.718   3.319
10812W        W83138  26.722  24.590   3.937
10813W        W83139  44.408  30.952   1.313
10814W        W83140  30.734  19.673   2.558
10815W        W83141   9.715  30.296   0.875
10816W        W83142  12.829  29.098   4.545
10817W        W83143   5.929   3.292   4.801
10818W        W83144  38.903  29.631   2.331
10819W        W83145   3.671   5.377  11.662
10820W        W83146  40.999  39.979   4.419
10821W        W83147  13.098  18.098  12.025
10822W        W83148  24.220  34.802   3.077
10823W        W83149  20.471   3.725  14.185
10824W        W83150  22.742  28.303   1.469
10825W        W83151  36.663   8.024   3.214
10826W        W83152  32.680  29.232  12.970
10827W        W83153  40.236  26.656  11.505
10828W        W83154  12.596  44.398  10.731
10829W        W83155  33.358  18.570  10.615
10830W        W83156  13.537  24.677  13.554
10831W        W83157  17.857  42.294   2.088
10832W        W83158  44.911  35.730  13.596
10833W        W83159  16.027  16.982  13.739
10834W        W83160  44.708  18.144   2.276
10835W        W83161   0.396  34.577  10.683
10836W        W83162  36.923  30.095  11.998
10837W        W83163  42.779  13.183   2.068
10838W        W83164  39.744  11.370   1.744
10839W        W83165  32.463   0.772   4.417
10840W        W83166  31.562   0.991   0.882
10841W        W83167  11.196  19.685   0.979
10842W        W83168  30.485  36.319   3.689
10843W        W83169  15.915  13.742   0.244
10844W        W83170  26.606   0.039   4.699
10845W        W83171   2.734  13.096  10.333
10846W        W83172  43.461  22.164   3.616
10847W        W83173  32.571  44.833  10.341
10848W        W83174   7.725   1.711   4.127
10849W        W83175  11.010  10.867   4.233
10850W        W83176  39.563  18.740  13.811
10851W        W83177  32.985  35.603   5.556
10852W        W83178  21.666  33.096  14.981
10853W        W83179  43.111  33.879   4.218
10854W        W83180  31.981  30.823   1.863
10855W        W83181   8.901  15.735  14.886
10856W        W83182  31.297  27.649   3.204
10857W        W83183  15.851   2.425  10.904
10858W        W83184  39.911   7.159   2.163
10859W        W83185  31.848  21.692  12.819
10860W        W83186  12.129  10.306  13.483
10861W        W83187  13.269  40.900  11.975
10862W        W83188  24.920  14.607  12.290
10863W        W83189  37.429  36.849  11.642
10864W        W83190  38.944   6.326   0.418
10865W        W83191  27.725  26.255   2.413
10866W        W83192  18.934   4.837   4.263
10867W        W83193  32.924  42.066  11.982
10868W        W83194   5.792   1.167  12.529
10869W        W83195  44.617   0.354  12.820
10870W        W83196  24.252  26.586  11.983
10871W        W83197   7.461  11.889   2.237
10872W        W83198   6.725  12.890   3.103
10873W        W83199  44.379  36.507  11.436
10874W        W83200  13.547  11.925   2.771
10875W        W83201  31.542  25.587   0.963
10876W        W83202  21.003  28.852  11.169
10877W        W83203  44.959  15.297  10.843
10878W        W83204  42.410  28.607  14.775
10879W        W83205  36.609   9.752  10.638
10880W        W83206  25.441  17.683  13.236
10881W        W83207  28.122   3.239  13.544
10882W        W83208  21.014  27.392  13.847
10883W        W83209   9.349  24.301   4.650
10884W        W83210  43.212  39.520  11.558
10885W        W83211  10.607  25.187  13.765
10886W        W83212  24.814  21.679  11.071
10887W        W83213  29.711  17.161   0.797
10888W        W83214   8.551  23.325   2.132
10889W        W83215  24.667   3.904   1.402
10890W        W83216  20.273  14.239   3.756
10891W        W83217  20.475  14.604   4.652
10892W        W83218  34.356   2.435  14.115
10893W        W83219  22.692  32.990  10.235
10894W        W83220  16.617  21.495   4.175
10895W        W83221   3.230  36.479  13.467
10896W        W83222  24.852  35.979   3.257
10897W        W83223  19.111  43.844  10.571
10898W        W83224  19.214  31.238   2.303
10899W        W83225  31.601  43.214  11.140
10900W        W83226   0.787  44.503  14.506
10901W        W83227  30.277  39.944  11.608
10902W        W83228   1.713  34.995   3.757
10903W        W83229   4.294  43.093  13.583
10904W        W83230  42.357  25.518   4.084
10905W        W83231  22.974  30.676   0.331
10906W        W83232  30.811  44.730  11.625
10907W        W83233  34.030  44.868  10.637
10908W        W83234  28.126   3.823   2.783
10909W        W83235  43.422   0.437  11.229
10910W        W83236  32.854  39.093   0.906
10911W        W83237  22.503  24.166  12.490
10912W        W83238  43.683   2.378  13.605
10913W        W83239  14.714  35.681   4.554
10914W        W83240  31.128  13.862   3.214
10915W        W83241  18.175  21.488   0.579
10916W        W83242   0.388  28.671   1.442
10917W        W83243  27.642  29.393  10.340
10918W        W83244  31.054  27.984   0.370
10919W        W83245  32.022  26.176   2.788
10920W        W83246  11.430  22.535   4.346
10921W        W83247   1.384  36.506   0.403
10922W        W83248  26.350   7.435   1.944
10923W        W83249  11.871  43.303  14.320
10924W        W83250  39.489  18.192  13.863
10925W        W83251  20.671  36.057   4.536
10926W        W83252  26.150  39.101   2.545
10927W        W83253   8.246  10.688   0.538
10928W        W83254  30.666  18.357   4.073
10929W        W83255  21.329  16.820  12.756
10930W        W83256  34.697  15.304   0.682
10931W        W83257   0.214  33.879   2.630
10932W        W83258   5.271  23.415  10.677
10933W        W83259  19.138  21.109   1.876
10934W        W83260   1.887  19.152   0.351
10935W        W83261  33.516  41.233  10.354
10936W        W83262  37.304  29.604   3.979
10937W        W83263   8.763  43.354  12.744
10938W        W83264   7.962  28.305  11.490
10939W        W83265  44.554  25.635   3.109
10940W        W83266  39.908  15.012   0.989
10941W        W83267   5.730   8.366  13.967
10942W        W83268  40.788  16.496   2.834
10943W        W83269  37.010  12.769  14.889
10944W        W83270  17.050   6.030   4.060
10945W        W83271  12.220  44.278   3.585
10946W        W83272  23.449  31.977  12.988
10947W        W83273   4.209  40.903   2.559
10948W        W83274  10.313  25.518   3.871
10949W        W83275  23.678  39.663  11.742
10950W        W83276   4.645  44.235   3.372
10951W        W83277   8.208  17.199  13.167
10952W        W83278  22.341  41.305   0.209
10953W        W83279  42.769   2.544  13.475
10954W        W83280   0.326  44.802   0.625
10955W        W83281  40.645  30.177  13.095
10956W        W83282  18.027  29.847   0.858
10957W        W83283  13.634  34.818   3.277
10958W        W83284   2.260  41.466   0.349
10959W        W83285  23.471  40.677  14.722
10960W        W83286  28.494  23.667  14.311
10961W        W83287  24.190  44.494  14.453
10962W        W83288  32.887  27.704   1.124
10963W        W83289  11.636  32.356   2.144
10964W        W83290  35.772   5.869   2.327
10965W        W83291  31.073   5.289  10.933
10966W        W83292  12.755  44.728  13.758
10967W        W83293   8.445   3.869  12.585
10968W        W83294  30.767  22.410  10.281
10969W        W83295  34.271  40.846  13.865
10970W        W83296   8.542  34.581  11.648
10971W        W83297  38.318  14.806  11.041
10972W        W83298  19.314  15.798   4.107
10973W        W83299  39.386  20.021   3.307
10974W        W83300  36.290  22.731  10.713
10975W        W83301  19.139  15.731  13.758
10976W        W83302  42.054  30.680   1.686
10977W        W83303   5.869  32.925  13.382
10978W        W83304   5.350   3.920   0.636
10979W        W83305  28.688  17.238   4.590
10980W        W83306  26.410  28.045  13.035
10981W        W83307  12.215  17.902   1.319
10982W        W83308  41.528   2.610   2.269
10983W        W83309  21.552  34.625  14.474
10984W        W83310  27.665  24.934  11.000
10985W        W83311  31.966  42.896   5.080
10986W        W83312  12.110  17.100   3.492
10987W        W83313   5.348  14.762   2.383
10988W        W83314  44.880  28.710   0.648
10989W        W83315   7.127  41.526  11.199
10990W        W83316  26.620  10.104  14.871
10991W        W83317  44.212   7.360  13.448
10992W        W83318  25.751  26.344  11.140
10993W        W83319  41.589  29.640   0.482
10994W        W83320   1.926  41.334   3.984
10995W        W83321  27.671  16.583   2.669
10996W        W83322  37.921  34.248  11.187
10997W        W83323  42.452  21.279   0.153
10998W        W83324  24.856  24.112  14.585
10999W        W83325  22.520  32.672   0.195
11000W        W83326  13.057  16.630  11.602
11001W        W83327  19.283   2.331   1.933
11002W        W83328  34.711  11.270  13.369
11003W        W83329   9.353  25.160  12.755
11004W        W83330  10.616   1.251  12.887
11005W        W83331  23.992  30.613   3.221
11006W        W83332   5.276  23.504   4.328
11007W        W83333   0.299  25.487   3.764
11008W        W83334   5.248  35.097   2.957
11009W        W83335  12.210  40.163   3.586
11010W        W83336   0.323  17.682   2.655
11011W        W83337  31.586   8.966   4.780
11012W        W83338   5.991  43.015   3.152
11013W        W83339  43.878  11.106   0.801
11014W        W83340  12.345   8.766  10.983
11015W        W83341  27.004   9.750   1.475
11016W        W83342  31.993  33.194  14.480
11017W        W83343  38.999  15.758   2.148
11018W        W83344   1.158  44.061   1.409
11019W        W83345   2.209  18.536  11.566
11020W        W83346  33.453  11.358  10.573
11021W        W83347   0.876   7.664  11.195
11022W        W83348   5.725  31.335  13.521
11023W        W83349  38.006  43.925   4.880
11024W        W83350  34.463  42.870  11.175
11025W        W83351   0.713  29.038   0.513
11026W        W83352  13.605  11.771   2.290
11027W        W83353  20.217  25.192   0.408
11028W        W83354  18.718  13.929  10.404
11029W        W83355   8.792  12.349   1.772
11030W        W83356  31.410   8.449   4.596
11031W        W83357  20.980  28.003   4.097
11032W        W83358   3.839  33.479   3.641
11033W        W83359  25.430  13.061  11.096
11034W        W83360  39.834  20.995   4.050
11035W        W83361  21.196  29.016   2.074
11036W        W83362   5.832  22.067  12.367
11037W        W83363  16.242   2.291   1.155
11038W        W83364  36.957   9.196  11.384
11039W        W83365   5.266  38.434   1.354
11040W        W83366  31.617   5.925   4.179
11041W        W83367  28.539  20.291  12.488
11042W        W83368  26.960  38.284  13.114
11043W        W83369  34.143  25.576   5.048
11044W        W83370  39.833   4.776   1.205
11045W        W83371   0.700  31.464   1.902
11046W        W83372   7.466  43.777  13.132
11047W        W83373  10.236  36.348  11.649
11048W        W83374  11.282  42.077  14.384
11049W        W83375  36.955  18.998   1.308
11050W        W83376  13.082  23.107   3.578
11051W        W83377  33.351  30.876   0.395
11052W        W83378  34.667   3.739   0.047
11053W        W83379  32.160  35.993   3.679
11054W        W83380   7.817   9.096  11.700
11055W        W83381  21.798  43.415   4.429
11056W        W83382   0.927  34.138   4.095
11057W        W83383  40.550  11.629   4.242
11058W        W83384  25.884  29.856  14.455
11059W        W83385  16.810  35.596  14.866
11060W        W83386  30.951  26.062  11.994
11061W        W83387  11.295  39.841   0.841
11062W        W83388   7.939  11.433  12.495
11063W        W83389  43.022  42.426  14.474
11064W        W83390  37.664   8.047   0.364
11065W        W83391  15.212   9.585  11.408
11066W        W83392   5.205  23.687   3.829
11067W        W83393  43.446  20.693   2.169
11068W        W83394  41.460  39.802   2.804
11069W        W83395  36.294  10.305   1.230
11070W        W83396  27.883   8.158  13.897
11071W        W83397   2.986   6.842  13.280
11072W        W83398  27.170  27.990  14.944
11073W        W83399   5.795  40.296  13.924
11074W        W83400  39.568  24.481  13.557
11075W        W83401  31.910   7.431   4.130
11076W        W83402  26.937   3.584   0.419
11077W        W83403  13.641  23.679  12.805
11078W        W83404  37.469  42.648   3.333
11079W        W83405  21.153  13.617   1.233
11080W        W83406  30.431  30.976   2.663
11081W        W83407  20.337  20.058   1.057
11082W        W83408  12.882   5.766  14.845
11083W        W83409   2.873  22.590   3.207
11084W        W83410   7.658  25.668  13.535
11085W        W83411  32.711  37.989  12.276
11086W        W83412   0.706  32.561   3.847
11087W        W83413  20.284   2.125  12.046
11088W        W83414  21.414  17.988   0.883
11089W        W83415  26.602   5.137   3.432
11090W        W83416  30.467  13.644  13.499
11091W        W83417   8.765  41.540  14.312
11092W        W83418  16.809   5.917  12.967
11093W        W83419  22.624  26.948   4.594
11094W        W83420   1.835   5.011  13.550
11095W        W83421  16.655  33.821  11.154
11096W        W83422  14.167  26.703  14.514
11097W        W83423  37.087  15.438  13.428
11098W        W83424  26.313  27.714   4.523
11099W        W83425   5.495  10.809   3.794
11100W        W83426   3.922  35.458   2.699
11101W        W83427  41.279   0.751   2.703
11102W        W83428   5.270  12.319  10.746
11103W        W83429  24.851  23.579   4.364
11104W        W83430  10.260  24.655   0.043
11105W        W83431  35.078   2.313   2.739
11106W        W83432  22.451   8.681  10.627
11107W        W83433  15.560  27.103   4.554
11108W        W83434  24.363  13.719   0.873
11109W        W83435  18.038  36.025   2.738
11110W        W83436  11.285   9.381   2.797
11111W        W83437  34.839   3.417   0.423
11112W        W83438  21.125  35.937  10.600
11113W        W83439  41.545  22.596   2.311
11114W        W83440  40.460  15.579  10.883
11115W        W83441  34.073  28.893  12.635
11116W        W83442  42.042  31.521  11.679
11117W        W83443  38.049  29.063   3.902
11118W        W83444  41.275  15.751   1.738
11119W        W83445  22.570  20.662  12.049
11120W        W83446  24.770  40.406  12.516
11121W        W83447   0.255  20.000  12.660
11122W        W83448  13.582  36.576  10.702
11123W        W83449  22.085  16.354   4.659
11124W        W83450  18.558  11.705   2.880
11125W        W83451   5.274  18.242  10.490
11126W        W83452   5.958  17.052  11.157
11127W        W83453  10.486  18.632   4.191
11128W        W83454  19.309  41.170  14.226
11129W        W83455   0.257  30.045  13.483
11130W        W83456   7.255   2.230  12.998
11131W        W83457  34.663  39.253   4.232
11132W        W83458  13.850  41.944   2.959
11133W        W83459   3.749  21.926   4.360
11134W        W83460  30.496  41.797  11.089
11135W        W83461  26.636  20.660  11.062
11136W        W83462   5.524  18.868   1.379
11137W        W83463  13.096   7.670  11.582
11138W        W83464  34.586  33.140   2.262
11139W        W83465   4.655  11.235  11.553
11140W        W83466  21.628  38.822   0.390
11141W        W83467  42.005  39.412  13.454
11142W        W83468  41.454  36.816   3.363
11143W        W83469   7.875  26.197   4.916
11144W        W83470  21.772  26.594   0.319
11145W        W83471  15.257  15.129   4.639
11146W        W83472   5.873  37.483  10.997
11147W        W83473  40.552  31.383  11.526
11148W        W83474  16.464   4.116   4.142
11149W        W83475  21.434  12.260  11.711
11150W        W83476  17.132  37.681   3.133
11151W        W83477  13.546   3.221   3.100
11152W        W83478   6.766  23.309   2.806
11153W        W83479  22.566   0.952   4.367
11154W        W83480   5.643  42.972   2.311
11155W        W83481   7.321   4.951  14.982
11156W        W83482  36.057  37.283   1.209
11157W        W83483  27.520  11.384   4.611
11158W        W83484   8.189  41.511  13.878
11159W        W83485   8.330  39.325   3.699
11160W        W83486  39.709  18.397  11.988
11161W        W83487  36.348  15.608   4.286
11162W        W83488  44.051   1.838  11.277
11163W        W83489  20.014  16.748  12.541
11164W        W83490   0.090  32.222   0.436
11165W        W83491  33.923  37.308  12.356
11166W        W83492  32.070  22.252   3.076
11167W        W83493  30.726  12.539   4.659
11168W        W83494  25.415  40.657  11.154
11169W        W83495  21.542   5.737   0.469
11170W        W83496  29.016  35.989  11.442
11171W        W83497  24.042  19.686   3.803
11172W        W83498  12.253  32.555  11.709
11173W        W83499  30.721  32.860   4.512
11174W        W83500  32.547  22.553   4.689
11175W        W83501  37.248  10.443   4.604
11176W        W83502  16.054  27.948  14.042
11177W        W83503  42.873  32.119  13.924
11178W        W83504  40.002   6.528   1.343
11179W        W83505  17.365  36.718  11.595
11180W        W83506  27.446  12.664   3.336
11181W        W83507  31.497  21.525   3.556
11182W        W83508  34.104  28.022  12.460
11183W        W83509  28.003  23.613   4.184
11184W        W83510  25.178  40.327   2.798
11185W        W83511   0.816  36.902   3.233
11186W        W83512  11.529  10.811  11.919
11187W        W83513   2.278  17.054  13.654
11188W        W83514   0.794  33.849   0.487
11189W        W83515  17.542  42.701   2.362
11190W        W83516  26.443  41.928   1.814
11191W        W83517  32.448  41.260   4.467
11192W        W83518  41.907  34.250  11.147
11193W        W83519  13.271  38.846   4.886
11194W        W83520   9.860  38.183  14.101
11195W        W83521  29.523  13.799  10.765
11196W        W83522  11.580   9.777  11.139
11197W        W83523  42.817   4.735   3.422
11198W        W83524   5.389  43.270   0.057
11199W        W83525  22.223  23.699   1.218
11200W        W83526  12.659  40.109   3.175
11201W        W83527  44.352  39.227  11.866
11202W        W83528  33.151  18.768   2.314
11203W        W83529   3.778   5.885  11.460
11204W        W83530  31.959   6.744  11.924
11205W        W83531  25.974   5.331   3.120
11206W        W83532  22.683   7.698   9.735
11207W        W83533  17.092   4.543   4.109
11208W        W83534  36.895  28.741  12.472
11209W        W83535   7.504  29.998   2.811
11210W        W83536  10.157  20.230  13.721
11211W        W83537  12.401  15.690   4.101
11212W        W83538  41.931  14.596  11.690
11213W        W83539  44.869  35.891  14.715
11214W        W83540  19.105   9.114   4.384
11215W        W83541  33.397  36.983   4.182
11216W        W83542  18.570   0.966  12.949
11217W        W83543  30.939  30.965  12.659
11218W        W83544  29.448   5.412   2.679
11219W        W83545   5.814  13.986  14.085
11220W        W83546  29.168  10.668   3.696
11221W        W83547  20.574  15.667   2.661
11222W        W83548  32.444  18.575  14.414
11223W        W83549  44.106  27.382   3.690
11224W        W83550  25.240  33.290   2.783
11225W        W83551  31.349   8.185   3.269
11226W        W83552  34.088  10.809  14.386
11227W        W83553   0.889  18.510   0.928
11228W        W83554  17.592   0.128  13.387
11229W        W83555  23.324  16.214  11.560
11230W        W83556  40.256   5.796  13.814
11231W        W83557  15.832   6.806  10.931
11232W        W83558  41.374  43.221  11.281
11233W        W83559   0.004  17.013   2.686
11234W        W83560  38.931  14.861   0.763
11235W        W83561   7.463  29.891  14.469
11236W        W83562  11.352  14.159  13.749
11237W        W83563   9.310  38.760   0.139
11238W        W83564   2.228  39.289  13.340
11239W        W83565  19.194  25.509  11.598
11240W        W83566  31.030  26.535   4.551
11241W        W83567  12.385  23.639   2.601
11242W        W83568   4.872  33.535   3.610
11243W        W83569   1.413  37.867   1.946
11244W        W83570   1.598   5.849   0.494
11245W        W83571  21.691  30.377  14.525
11246W        W83572  31.470  40.890   4.040
11247W        W83573  30.693  19.495  13.425
11248W        W83574  12.246  23.130   0.772
11249W        W83575  15.080  34.825  10.696
11250W        W83576  25.032  32.338  13.481
11251W        W83577  15.473  16.718   1.174
11252W        W83578  14.134  28.705   3.428
11253W        W83579  25.468  30.436   3.390
11254W        W83580   3.291  39.285  11.094
11255W        W83581  38.065  42.819   3.418
11256W        W83582  44.700  40.890   2.079
11257W        W83583   5.080   7.450   3.664
11258W        W83584  10.581  18.675  10.502
11259W        W83585  35.696  31.430   0.440
11260W        W83586  20.057  25.016   4.786
11261W        W83587  36.821  17.147   2.878
11262W        W83588  10.447  14.648   2.222
11263W        W83589  23.885   5.941   3.744
11264W        W83590  25.654  35.450  14.885
11265W        W83591  43.616  22.972  11.232
11266W        W83592  22.487  31.845  13.210
11267W        W83593  41.995  12.302   3.951
11268W        W83594  34.812  33.948   2.870
11269W        W83595  12.270  17.073   2.532
11270W        W83596  21.773   2.982   1.869
11271W        W83597  23.070  38.321   0.275
11272W        W83598  30.834  31.637   4.132
11273W        W83599   5.295  34.076  13.506
11274W        W83600  34.020  20.991   2.329
11275W        W83601  42.000  44.712  13.530
11276W        W83602  37.554  26.479  14.841
11277W        W83603  13.603  42.388   3.678
11278W        W83604  39.142  24.188  13.563
11279W        W83605  37.589  41.295   0.761
11280W        W83606   4.636  19.730   3.782
11281W        W83607   0.331  21.083   1.957
11282W        W83608  10.047  41.813  14.797
11283W        W83609  41.596  41.575  12.160
11284W        W83610  33.949   2.189  13.804
11285W        W83611  38.189  31.203  11.767
11286W        W83612  41.471   8.082   4.275
11287W        W83613  39.540  10.837   9.164
11288W        W83614  30.563  24.771   0.528
11289W        W83615  12.013  43.304  11.685
11290W        W83616  24.319  10.641   4.558
11291W        W83617  36.449  39.965   3.198
11292W        W83618   1.447  38.528  12.034
11293W        W83619  14.197  18.224   3.070
11294W        W83620  36.624  21.942   2.712
11295W        W83621   2.653   4.483   3.620
11296W        W83622   7.695  42.522   2.854
11297W        W83623  22.045  12.623   3.060
11298W        W83624  18.743  18.587  12.014
11299W        W83625  20.262  19.609   4.599
11300W        W83626  15.586  39.855   1.865
11301W        W83627  22.562  39.885   0.306
11302W        W83628  22.036  27.595   4.631
11303W        W83629  24.937  10.734  10.975
11304W        W83630   4.188  21.627  12.337
11305W        W83631   0.398  38.663  12.100
11306W        W83632  42.039  26.636  12.917
11307W        W83633   2.952  22.482   1.317
11308W        W83634   0.271   7.883   0.411
11309W        W83635  26.979  20.216  11.524
11310W        W83636   7.848  23.028   4.880
11311W        W83637  35.767  36.944   2.767
11312W        W83638   3.427  15.119   0.190
11313W        W83639  19.174   8.208  11.699
11314W        W83640  44.696   0.068   3.635
11315W        W83641  34.498  28.707   2.333
11316W        W83642  16.175  25.656  11.648
11317W        W83643  39.429   9.778  14.878
11318W        W83644   5.952  11.726   3.736
11319W        W83645   0.999  27.230   2.311
11320W        W83646  20.698  24.502   5.016
11321W        W83647   1.240   6.135   1.843
11322W        W83648  25.452   4.926   0.113
11323W        W83649  35.135  19.638   2.831
11324W        W83650  30.190   4.137  12.768
11325W        W83651  44.450  11.241   1.299
11326W        W83652  43.236   3.329  12.706
11327W        W83653  14.269  39.489   4.592
11328W        W83654  19.055  15.081   4.560
11329W        W83655   4.200   1.181   3.243
11330W        W83656  44.900  32.143  11.854
11331W        W83657  17.324   3.854   0.475
11332W        W83658   1.926  34.368  12.983
11333W        W83659   5.878  10.451   0.758
11334W        W83660  43.836  28.178  11.938
11335W        W83661  33.854  24.642   2.957
11336W        W83662   9.410  12.158  11.684
11337W        W83663  28.948  43.437   3.187
11338W        W83664  41.862   6.957  13.495
11339W        W83665  17.270  15.303   3.699
11340W        W83666  32.643  13.641   2.374
11341W        W83667   4.232  11.343   2.803
11342W        W83668  44.269   7.166  12.038
11343W        W83669  31.413   0.308  11.605
11344W        W83670  41.516  14.321  11.789
11345W        W83671  12.674  28.447  13.799
11346W        W83672  39.415  15.279  11.680
11347W        W83673  27.964  40.435  10.498
11348W        W83674   0.310  39.009  10.911
11349W        W83675  27.094  39.368  14.229
11350W        W83676  28.047  38.545   0.152
11351W        W83677  11.397  44.719   2.998
11352W        W83678  26.486  33.820   0.732
11353W        W83679  43.942  15.830  13.751
11354W        W83680  19.720   5.758  13.946
11355W        W83681   0.542  20.549  14.389
11356W        W83682   9.688  37.382   2.939
11357W        W83683  44.180  28.470   4.867
11358W        W83684   8.704  10.406  11.949
11359W        W83685  41.920  44.488   4.063
11360W        W83686  27.999  31.660  11.584
11361W        W83687  31.072  23.895   4.314
11362W        W83688  27.728  20.576   4.665
11363W        W83689  35.338  28.626   3.775
11364W        W83690  29.899   6.190   0.719
11365W        W83691  19.032  42.363   0.416
11366W        W83692  18.262  19.761  12.975
11367W        W83693  44.174  42.815   1.820
11368W        W83694   0.075  25.613   2.268
11369W        W83695  16.562  32.255  13.374
11370W        W83696  26.062  26.583  13.890
11371W        W83697  11.370   0.677  13.184
11372W        W83698   1.950  24.518  14.726
11373W        W83699  25.092   3.424   1.957
11374W        W83700   2.807  18.077   4.487
11375W        W83701  28.873  24.102  12.043
11376W        W83702  12.222  27.469   9.842
11377W        W83703   6.683  32.955  14.894
11378W        W83704   7.758  42.533   4.201
11379W        W83705  43.724  11.439  10.484
11380W        W83706  21.313  10.499   0.441
11381W        W83707  13.715  41.832   4.914
11382W        W83708  21.942  11.365  13.935
11383W        W83709  19.769  30.338   2.376
11384W        W83710  37.100  12.122  10.849
11385W        W83711  14.821  22.331  10.691
11386W        W83712  29.414  35.267   3.696
11387W        W83713  16.042  28.898  10.742
11388W        W83714  17.324   8.790  11.603
11389W        W83715  19.151  39.814  13.083
11390W        W83716  33.873  13.810   3.422
11391W        W83717  11.292   1.481   1.188
11392W        W83718  31.510   9.229  11.588
11393W        W83719  27.689  36.055   2.379
11394W        W83720  31.899  10.413  14.123
11395W        W83721  29.712   0.285  13.057
11396W        W83722  24.458   2.912  12.957
11397W        W83723  20.565   4.705   0.496
11398W        W83724  35.193  11.427   2.232
11399W        W83725  13.347  16.555  12.906
11400W        W83726  16.052  33.664  11.954
11401W        W83727  17.638   8.204  13.608
11402W        W83728  27.985  31.409   1.951
11403W        W83729  38.915   1.987  13.994
11404W        W83730  29.684  18.116  13.089
11405W        W83731  33.311  42.285   4.112
11406W        W83732  35.890  20.035  13.043
11407W        W83733   8.312   6.474   3.797
11408W        W83734   8.216  43.195  13.527
11409W        W83735  10.620  14.552  12.073
11410W        W83736  29.037  31.547   2.680
11411W        W83737  39.308  11.645  14.787
11412W        W83738  25.540   2.471   3.648
11413W        W83739  35.828  41.036  13.521
11414W        W83740  10.729   8.621   3.208
11415W        W83741  31.010   8.937   0.948
11416W        W83742  29.589   7.335  13.042
11417W        W83743  41.850  18.296  12.550
11418W        W83744  43.308   0.992   1.301
11419W        W83745  22.993   1.714  14.935
11420W        W83746  37.567  12.364   5.205
11421W        W83747  37.448  39.659   3.318
11422W        W83748  26.559  17.155  12.991
11423W        W83749  40.858  21.618   3.700
11424W        W83750   8.581  41.477   1.326
11425W        W83751  21.845  28.433   1.583
11426W        W83752  27.676  44.262   4.301
11427W        W83753  14.516   4.010   4.362
11428W        W83754  42.853  44.605   2.280
11429W        W83755  23.081  33.070   1.237
11430W        W83756   5.745  38.748   3.194
11431W        W83757  15.130  40.896   0.463
11432W        W83758  34.258  24.139   1.026
11433W        W83759  19.746  21.114  10.731
11434W        W83760  21.685   3.796  14.813
11435W        W83761  30.683  32.885   3.117
11436W        W83762  17.629  29.669   0.533
11437W        W83763  23.457  17.173   2.233
11438W        W83764  32.150  38.737  11.139
11439W        W83765  21.131   4.496  11.465
11440W        W83766  28.826  27.802  11.002
11441W        W83767  36.675  41.374   1.858
11442W        W83768  40.701  17.109  12.075
11443W        W83769  22.167  10.238  14.789
11444W        W83770  21.488  12.164  12.741
11445W        W83771  41.345   7.814   0.732
11446W        W83772  38.212  12.201  11.218
11447W        W83773  14.999  27.391   3.434
11448W        W83774  35.026  22.467   1.808
11449W        W83775  19.586  41.730  11.087
11450W        W83776   4.725  26.887  14.021
11451W        W83777  17.830  40.735  13.136
11452W        W83778  26.361  38.144   1.367
11453W        W83779  13.223  21.058   1.205
11454W        W83780  15.872  37.409   1.671
11455W        W83781  10.548  26.604   1.930
11456W        W83782  38.818  28.701  10.713
11457W        W83783  30.411  34.602  13.953
11458W        W83784  16.331  10.523   4.117
11459W        W83785  28.436  18.558  12.783
11460W        W83786  33.672  28.752   1.833
11461W        W83787  24.936  35.030   2.204
11462W        W83788  31.104  23.927   3.809
11463W        W83789  16.115   1.231  12.971
11464W        W83790  23.197  22.349   3.691
11465W        W83791  24.145   5.385  10.750
11466W        W83792  17.788  36.601   2.718
11467W        W83793   7.643  23.066  13.381
11468W        W83794  29.199  11.157   2.818
11469W        W83795  27.113  24.295   4.200
11470W        W83796  25.681   3.937   1.277
11471W        W83797   7.320  35.509   1.080
11472W        W83798  37.965   0.512  10.529
11473W        W83799   9.775  27.556   1.944
11474W        W83800   8.315  38.564   3.449
11475W        W83801  31.427   4.705  14.939
11476W        W83802   7.360  23.863  12.842
11477W        W83803  15.062  23.580   2.756
11478W        W83804   2.196  18.707  14.259
11479W        W83805   7.731   3.763   4.062
11480W        W83806  18.180  22.114   1.714
11481W        W83807  26.550   7.223   3.255
11482W        W83808  28.186  40.305   1.364
11483W        W83809  37.519  14.418   2.772
11484W        W83810  34.108  33.453   2.788
11485W        W83811  10.043  11.274  11.892
11486W        W83812  33.562  15.307   4.162
11487W        W83813   4.413  44.362  10.737
11488W        W83814   5.107  18.232   2.500
11489W        W83815  43.533   7.581   4.923
11490W        W83816   6.734  22.198  13.878
11491W        W83817  33.683  11.407  11.052
11492W        W83818  12.307   1.106  14.376
11493W        W83819  28.274   9.803   2.237
11494W        W83820  24.787  30.614   2.817
11495W        W83821  33.086  25.524  14.183
11496W        W83822   8.704  37.315  14.719
11497W        W83823  41.736  12.870   4.558
11498W        W83824  18.761  35.132   3.341
11499W        W83825   5.135   4.005  14.755
11500W        W83826  21.788  22.638  12.334
11501W        W83827  36.540  31.046   0.192
11502W        W83828   5.690  32.355   0.730
11503W        W83829  42.967  13.379  11.383
11504W        W83830  26.028  26.011  14.385
11505W        W83831  17.750   4.362   1.965
11506W        W83832  19.903  14.272  12.594
11507W        W83833  10.145  42.273   2.832
11508W        W83834  36.384  18.638  10.724
11509W        W83835  12.560  30.993   2.688
11510W        W83836  36.487   0.353   3.248
11511W        W83837  30.517  11.128   4.602
11512W        W83838   2.405  13.342  14.368
11513W        W83839  29.012  31.425   4.658
11514W        W83840  39.568   1.182  11.567
11515W        W83841  30.356  33.041   3.549
11516W        W83842  35.876  27.490  12.042
11517W        W83843   6.131  20.365   1.992
11518W        W83844  21.706  17.772  11.143
11519W        W83845   8.838  43.263   4.539
11520W        W83846  36.435  25.319   3.292
11521W        W83847   9.409   9.489  13.015
11522W        W83848  18.350  33.547   1.348
11523W        W83849  12.532  12.934   0.808
11524W        W83850  37.991  11.748   0.729
11525W        W83851  25.254  21.713   4.064
11526W        W83852   1.604  19.581   0.507
11527W        W83853  22.210  17.276   5.003
11528W        W83854  32.872  37.401  10.667
11529W        W83855  20.253   4.862  14.819
11530W        W83856  16.011  32.969  11.757
11531W        W83857   4.961  12.517   2.427
11532W        W83858  22.188  23.433   4.333
11533W        W83859   9.170  30.028   0.211
11534W        W83860  40.900  15.098  14.026
11535W        W83861  41.133   4.247  13.007
11536W        W83862  40.142   2.228   4.507
11537W        W83863  29.572  36.956  13.392
11538W        W83864  36.932  44.242   4.637
11539W        W83865  34.392  36.154   0.824
11540W        W83866  36.719  34.648   4.986
11541W        W83867  37.346  31.914  14.555
11542W        W83868  35.866  31.545   2.380
11543W        W83869  16.182  15.358  12.421
11544W        W83870  36.523  24.064  12.536
11545W        W83871  30.809  43.977  11.486
11546W        W83872  31.883  42.512  11.635
11547W        W83873  30.848   5.857  12.831
11548W        W83874  10.412  18.265  11.646
11549W        W83875   1.118  39.349   4.154
11550W        W83876  20.773  18.536   1.202
11551W        W83877   7.309  13.917  13.799
11552W        W83878  27.367  18.070  13.642
11553W        W83879  42.013  29.975   4.185
11554W        W83880   0.855  36.533  13.018
11555W        W83881  44.473   3.090   4.272
11556W        W83882  38.478  32.678  13.598
11557W        W83883   3.643  38.487   1.971
11558W        W83884   0.501  23.505   0.011
11559W        W83885  19.445  25.574   0.501
11560W        W83886  33.361  36.080  12.152
11561W        W83887  39.326   0.397   0.834
11562W        W83888  36.948  32.454   3.693
11563W        W83889   5.149  35.573  11.996
11564W        W83890   4.878   3.765  12.575
11565W        W83891  44.692   9.960  13.070
11566W        W83892  34.457   3.542   1.820
11567W        W83893  22.238  40.792  13.057
11568W        W83894  18.614   3.323   2.675
11569W        W83895  36.337  33.656  14.393
11570W        W83896  38.053   2.778   0.787
11571W        W83897  31.037  31.546  14.453
11572W        W83898   0.412   5.764  13.300
11573W        W83899  38.069  19.713  14.509
11574W        W83900   3.396  14.828   4.614
11575W        W83901  34.546  12.683  14.002
11576W        W83902   4.471  40.479  11.201
11577W        W83903  13.763  40.525   2.320
11578W        W83904  14.780  26.239  13.045
11579W        W83905   1.430  38.117  14.000
11580W        W83906  26.153  10.790   1.577
11581W        W83907  42.446  13.150   5.009
11582W        W83908  24.024  21.999   3.379
11583W        W83909  17.102   0.233   9.870
11584W        W83910  24.573   2.335  10.830
11585W        W83911   0.796  25.022   2.503
11586W        W83912  15.732  30.707  11.170
11587W        W83913  20.278  11.631  13.330
11588W        W83914  33.431  20.014  13.382
11589W        W83915  18.702  12.531   0.906
11590W        W83916   3.292   1.192   4.179
11591W        W83917   6.738  29.482   4.562
11592W        W83918  38.977  31.736   0.462
11593W        W83919  31.596  29.530  11.953
11594W        W83920  17.805  33.404   4.176
11595W        W83921  37.576   6.904  11.574
11596W        W83922  36.053  34.587   0.390
11597W        W83923  15.453  31.357   3.130
11598W        W83924   5.410  23.079   0.066
11599W        W83925  18.074  15.404   3.248
11600W        W83926  20.568  29.113   1.832
11601W        W83927  29.537  14.864   0.421
11602W        W83928  33.643   0.745  12.126
11603W        W83929  32.830  37.515   4.563
11604W        W83930  25.879  37.451  13.002
11605W        W83931  26.942  41.442  14.956
11606W        W83932  39.877  37.955   3.245
11607W        W83933  37.545  31.090  12.571
11608W        W83934  25.986   8.716  13.831
11609W        W83935   6.245  10.211   4.541
11610W        W83936  19.753  29.208  14.640
11611W        W83937   1.329   8.650   0.378
11612W        W83938  18.098  15.621  12.608
11613W        W83939  22.250  31.900  13.660
11614W        W83940  29.928  25.348  14.057
11615W        W83941   0.226  42.859  11.906
11616W        W83942  21.267  13.539   2.225
11617W        W83943  44.660  16.165   1.842
11618W        W83944  24.793  26.265   0.817
11619W        W83945  10.079  16.627   2.314
11620W        W83946  17.805  10.602  13.555
11621W        W83947  38.394  14.822   2.830
11622W        W83948   3.210   6.440  10.445
11623W        W83949  17.303  39.194   4.304
11624W        W83950  33.541  10.904  12.397
11625W        W83951  13.861   0.191   1.807
11626W        W83952   9.121   4.369   2.366
11627W        W83953  44.842  20.762   4.511
11628W        W83954  41.861  25.956   3.376
11629W        W83955  26.536  11.621   4.176
11630W        W83956  39.253  33.547   0.138
11631W        W83957  40.328   5.886   4.037
11632W        W83958  28.580  36.747   3.598
11633W        W83959  15.000  27.244   1.714
11634W        W83960   9.236   8.329  11.625
11635W        W83961  34.748  10.612  11.535
11636W        W83962  17.674  23.907   3.547
11637W        W83963  24.928   9.859   2.691
11638W        W83964  12.402  25.117  13.449
11639W        W83965  23.209   9.845  13.959
11640W        W83966  20.590  42.382  14.031
11641W        W83967  21.165   3.914  11.071
11642W        W83968  12.581  27.110   9.733
11643W        W83969  41.083   7.366   4.197
11644W        W83970  16.947  20.122  14.424
11645W        W83971  27.381   5.503   2.840
11646W        W83972  33.685  37.375   0.544
11647W        W83973  20.088  19.745  12.865
11648W        W83974   7.784  34.360   1.315
11649W        W83975  36.906  25.992  12.130
11650W        W83976  22.993  37.282  10.512
11651W        W83977   8.752  11.278  14.306
11652W        W83978  18.663   2.067   5.106
11653W        W83979  25.491  40.748   4.012
11654W        W83980  41.723  22.504   3.294
11655W        W83981  14.085  12.276  11.403
11656W        W83982  39.789   7.728  14.678
11657W        W83983  23.669  32.325  10.538
11658W        W83984  21.122  16.449   3.812
11659W        W83985  25.248  42.043   1.056
11660W        W83986  36.087  36.779  13.452
11661W        W83987  22.227  26.519  10.566
11662W        W83988  27.186  38.584  13.516
11663W        W83989  20.572  17.062  12.877
11664W        W83990  41.861  38.549  12.020
11665W        W83991  41.255  26.992   4.802
11666W        W83992   3.247  43.980  13.880
11667W        W83993  14.608  21.256   0.162
11668W        W83994  18.705  11.940  10.660
11669W        W83995  33.895  32.008   1.311
11670W        W83996  21.589  38.053  10.233
11671W        W83997  40.968   1.219   0.086
11672W        W83998   1.161  24.083   0.897
11673W        W83999  12.586  15.283   2.333
11674W        W84000  41.453  30.865  14.100
11675W        W84001  25.709  12.884   5.216
11676W        W84002  33.668  28.084  13.789
11677W        W84003  38.445  11.783  14.440
11678W        W84004  23.233  15.575   2.382
11679W        W84005  17.060   5.763  14.937
11680W        W84006   9.782  26.669   3.907
11681W        W84007  18.812  17.181  11.591
11682W        W84008   7.868  28.833   0.373
11683W        W84009  43.318  37.105   3.412
11684W        W84010  12.219  29.686   3.720
11685W        W84011  28.474  24.218  13.463
11686W        W84012   9.326  29.960   4.631
11687W        W84013  26.663  25.042  12.234
11688W        W84014   9.723   0.244   2.090
11689W        W84015   5.495   0.403   2.206
11690W        W84016  26.199  23.235  14.009
11691W        W84017  43.306  24.431  13.806
11692W        W84018  31.542  18.690   1.628
11693W        W84019  38.021  44.705   1.874
11694W        W84020   3.005  39.836  12.933
11695W        W84021  40.716  11.171  13.870
11696W        W84022  37.308  42.292  11.654
11697W        W84023  21.462  39.069  11.520
11698W        W84024  30.171  11.899  11.596
11699W        W84025  23.063  18.011  13.585
11700W        W84026  22.185  31.361   2.804
11701W        W84027  15.094  23.955  14.962
11702W        W84028  39.836  30.322  12.575
11703W        W84029  11.639   1.172   1.875
11704W        W84030  41.516   2.744  14.406
11705W        W84031  15.793  12.365  14.330
11706W        W84032  39.683  32.242  10.383
11707W        W84033   8.351  44.479   1.309
11708W        W84034   3.171   9.021   3.957
11709W        W84035  37.432  17.587   2.283
11710W        W84036  20.140  24.699   2.991
11711W        W84037  26.944  38.567  11.561
11712W        W84038  32.662  35.870   3.818
11713W        W84039  44.787  36.971   1.156
11714W        W84040  11.781  20.825  12.187
11715W        W84041  13.915  11.472  14.774
11716W        W84042   5.506  43.406  10.850
11717W        W84043  42.423   0.170   3.488
11718W        W84044   1.920  41.288   4.499
11719W        W84045  25.100   7.609   5.140
11720W        W84046   0.658  16.005  14.545
11721W        W84047   9.985   2.440  12.090
11722W        W84048  35.878  22.682  13.035
11723W        W84049  41.644   8.785  11.110
11724W        W84050  18.825  21.649  12.928
11725W        W84051  12.956  37.526   2.286
11726W        W84052  11.796  29.045  11.564
11727W        W84053   6.837  28.035  14.784
11728W        W84054  37.108  19.680  14.060
11729W        W84055   1.304  10.236   0.979
11730W        W84056   6.198  16.861   2.793
11731W        W84057   6.748  14.318   0.760
11732W        W84058  14.333  42.320  13.405
11733W        W84059  27.973  28.900  12.970
11734W        W84060  36.009   3.499  13.443
11735W        W84061  43.424  41.889  14.926
11736W        W84062  12.591   5.585  12.534
11737W        W84063  26.887  37.834   3.133
11738W        W84064  38.899  37.046  13.973
11739W        W84065  12.959   1.416   2.810
11740W        W84066  21.809  28.365  11.235
11741W        W84067  17.081  24.465   4.031
11742W        W84068  36.380  23.188   3.919
11743W        W84069  40.959   1.008   1.875
11744W        W84070  23.801   2.850   0.815
11745W        W84071   6.173  44.246   1.707
11746W        W84072  33.609   3.510  12.862
11747W        W84073  31.185  11.264   0.771
11748W        W84074  37.096  24.916  14.484
11749W        W84075  35.133  29.204  10.174
11750W        W84076   6.795   7.582  12.479
11751W        W84077  18.973  38.566   0.216
11752W        W84078  11.955  42.561  11.348
11753W        W84079  13.758  36.307   0.391
11754W        W84080  21.030  38.635  10.712
11755W        W84081  42.948  10.930   1.862
11756W        W84082  18.052  15.604   0.107
11757W        W84083   1.913  28.442   0.506
11758W        W84084  10.275   2.934  11.534
11759W        W84085  27.137  28.109   4.993
11760W        W84086  18.707  35.675   5.040
11761W        W84087  43.444  23.512  13.139
11762W        W84088  18.733  27.985  13.441
11763W        W84089  17.238   1.414  10.389
11764W        W84090  18.038  27.562   2.299
11765W        W84091   2.715  32.867   1.077
11766W        W84092   8.434  41.840  10.803
11767W        W84093  11.879   2.315   1.756
11768W        W84094   3.922  19.086   1.493
11769W        W84095   1.390   2.654   1.122
11770W        W84096  29.827  44.025  14.459
11771W        W84097  13.756  30.161   3.673
11772W        W84098  15.629  37.608  14.739
11773W        W84099  31.846  40.358   1.481
11774W        W84100   3.564   7.914   3.203
11775W        W84101  24.682  33.935  12.518
11776W        W84102  19.116  21.440  11.486
11777W        W84103  41.159  33.579  12.269
11778W        W84104   6.174  10.880   0.797
11779W        W84105  17.198  14.777  12.946
11780W        W84106  34.923  14.448   2.983
11781W        W84107  40.743  36.607   1.933
11782W        W84108  40.930  13.554  12.525
11783W        W84109  29.485  36.792  10.654
11784W        W84110  23.751   9.297  13.562
11785W        W84111  18.727  43.022   3.705
11786W        W84112  31.783  33.006  14.912
11787W        W84113  13.350  26.340   3.766
11788W        W84114   5.646  44.586   0.389
11789W        W84115  34.829  32.382  12.108
11790W        W84116   9.838  25.988  11.591
11791W        W84117  36.837  15.133  11.660
11792W        W84118  28.539  15.555  14.955
11793W        W84119  30.755  17.397   0.260
11794W        W84120  35.285  10.775  11.397
11795W        W84121  20.094  17.746   0.981
11796W        W84122  37.297  15.265  11.436
11797W        W84123  31.479  22.309   2.369
11798W        W84124  14.684  35.897  11.429
11799W        W84125  44.898  12.248  11.939
11800W        W84126   5.403  41.530  14.544
11801W        W84127  33.500  20.149   3.640
11802W        W84128  14.790  44.830   0.946
11803W        W84129  33.965  43.653   0.945
11804W        W84130   2.133  24.031   3.291
11805W        W84131   4.042  30.126  12.400
11806W        W84132  28.526  32.376   1.742
11807W        W84133  11.137   9.843   2.618
11808W        W84134  28.368   3.330   0.949
11809W        W84135  13.154  22.105   4.399
11810W        W84136   7.847   4.324   1.797
11811W        W84137  21.104  26.960  13.027
11812W        W84138  35.805  23.784   3.577
11813W        W84139  36.433  28.307   0.347
11814W        W84140  12.261  31.267  11.085
11815W        W84141  33.139  19.661   1.325
11816W        W84142  27.682  14.687   0.903
11817W        W84143  29.156  12.810  12.063
11818W        W84144  21.061  18.263  12.579
11819W        W84145   8.656  10.860  12.884
11820W        W84146  42.841  35.997   3.677
11821W        W84147  26.435  32.148   1.412
11822W        W84148  24.986   8.237   3.732
11823W        W84149   9.604  29.599   4.876
11824W        W84150  21.762  15.235  10.845
11825W        W84151   8.066  30.289   0.570
11826W        W84152   1.388   4.738   2.356
11827W        W84153  14.373  37.384   1.323
11828W        W84154   2.273  12.539  10.864
11829W        W84155  30.536  39.384   4.539
11830W        W84156  39.411  12.109   1.716
11831W        W84157   4.010   4.737  14.980
11832W        W84158  30.249  38.160   0.831
11833W        W84159   0.209   0.349  13.810
11834W        W84160  13.602  30.674   4.273
11835W        W84161  40.872  27.875   2.860
11836W        W84162  10.146  42.847  10.632
11837W        W84163   8.224   9.644  12.865
11838W        W84164   6.651  40.399   1.882
11839W        W84165  13.716  41.923   3.453
11840W        W84166   2.950  25.429  10.716
11841W        W84167  43.085  40.819   0.298
11842W        W84168   2.246  40.547  14.438
11843W        W84169  36.813  30.678   0.467
11844W        W84170   5.806   7.177   0.440
11845W        W84171  38.984  36.117  13.146
11846W        W84172  27.168  36.843  12.857
11847W        W84173  11.400  29.191   1.852
11848W        W84174  31.878   8.147  14.976
11849W        W84175  10.161  34.590  14.525
11850W        W84176  15.694  12.766   1.189
11851W        W84177  18.784   6.800  11.309
11852W        W84178  44.323   5.157  12.930
11853W        W84179  30.975   8.319   3.600
11854W        W84180  31.860  13.707   2.818
11855W        W84181  19.831  14.354  13.877
11856W        W84182  35.276   7.365  12.551
11857W        W84183  37.377  20.448   0.511
11858W        W84184  31.514   8.757  10.896
11859W        W84185   5.722   7.227  14.759
11860W        W84186  28.940   1.645  11.658
11861W        W84187  16.826  21.186   1.822
11862W        W84188   9.848  30.014   4.652
11863W        W84189  22.176   7.892  13.042
11864W        W84190  37.923  23.257   4.842
11865W        W84191  32.791  30.401  11.647
11866W        W84192  27.217  33.592   3.615
11867W        W84193   9.903  12.832   4.637
11868W        W84194  28.359   8.789  13.594
11869W        W84195  13.247   6.306  13.768
11870W        W84196  43.502  43.537   3.768
11871W        W84197  11.366  22.261  12.877
11872W        W84198  28.419  33.661  11.718
11873W        W84199  28.927  21.104  13.377
11874W        W84200  27.932  44.307  13.664
11875W        W84201   6.824  20.218   3.369
11876W        W84202  31.977  28.860  14.566
11877W        W84203   4.923  13.621  11.586
11878W        W84204  10.805  41.474   4.594
11879W        W84205  41.031  32.235  13.649
11880W        W84206  23.514  30.717   4.206
11881W        W84207  13.618  27.831  12.303
11882W        W84208  36.200  26.888   1.726
11883W        W84209  44.903   2.808   3.051
11884W        W84210   9.820   9.140  14.830
11885W        W84211  37.892  13.196   0.739
11886W        W84212  35.836  23.508   4.065
11887W        W84213  32.054  34.101  14.402
11888W        W84214  30.964  22.913   4.006
11889W        W84215   0.961   7.163  11.158
11890W        W84216  31.568  32.894  14.438
11891W        W84217  36.308  30.644   4.052
11892W        W84218  36.876  20.137  11.677
11893W        W84219  43.543   2.429  11.043
11894W        W84220  21.784  21.550   0.463
11895W        W84221  43.170  30.096   4.565
11896W        W84222  16.636  24.240   1.943
11897W        W84223  37.670  22.159  12.995
11898W        W84224  17.131   6.820   2.707
11899W        W84225  14.902  10.192  12.083
11900W        W84226  16.788  12.622   0.103
11901W        W84227  21.839  40.952  12.773
11902W        W84228  18.320  14.041   4.687
11903W        W84229  36.873  28.719  14.505
11904W        W84230  23.653  32.677  10.912
11905W        W84231   9.846  40.339  13.335
11906W        W84232  23.453   8.431   2.260
11907W        W84233  37.535  20.001   3.268
11908W        W84234  43.650  39.391   1.178
11909W        W84235  17.072   0.725   2.333
11910W        W84236  12.106  44.488  11.522
11911W        W84237  42.526  10.916  12.480
11912W        W84238  23.642   2.472   2.245
11913W        W84239  10.057  19.295  11.768
11914W        W84240   7.685  41.093   1.811
11915W        W84241   2.053  42.799  11.772
11916W        W84242  44.986  29.538  11.863
11917W        W84243  36.485  23.639   4.206
11918W        W84244  16.744   5.350  14.970
11919W        W84245  14.294   6.236  14.014
11920W        W84246   5.209  23.949   3.390
11921W        W84247  25.422   0.969   9.491
11922W        W84248  25.520  16.798  13.524
11923W        W84249  21.467  27.771   2.723
11924W        W84250   7.464  24.927  12.008
11925W        W84251  21.565  40.103   4.059
11926W        W84252   2.268   4.295  13.891
11927W        W84253  43.468  22.191   1.809
11928W        W84254  16.058   7.289   2.675
11929W        W84255  21.580  11.204  13.577
11930W        W84256   0.149  10.584   0.354
11931W        W84257  40.034  11.086   3.148
11932W        W84258   0.986   2.451  14.782
11933W        W84259   6.433  15.254  13.787
11934W        W84260  42.710   0.970  14.287
11935W        W84261   1.811  12.603   1.504
11936W        W84262  29.012   4.947   4.680
11937W        W84263  37.451  37.315  10.375
11938W        W84264  19.087  23.719   4.191
11939W        W84265  30.144  35.517  13.447
11940W        W84266  29.034  14.691   2.313
11941W        W84267  40.970  14.813   4.222
11942W        W84268  31.196  25.683  14.263
11943W        W84269  31.026   2.704  14.460
11944W        W84270   0.659  43.963   2.300
11945W        W84271  11.734  22.458  14.092
11946W        W84272   7.816  10.381   0.638
11947W        W84273  40.499  35.581   0.346
11948W        W84274  20.604  32.621   2.745
11949W        W84275  10.537  33.559  11.133
11950W        W84276  15.236  37.775   3.164
11951W        W84277  36.959  11.033  12.284
11952W        W84278  18.382  42.154  14.937
11953W        W84279  23.306  15.621  12.846
11954W        W84280  26.481  34.642   4.165
11955W        W84281  41.876   7.427  10.603
11956W        W84282  27.564  20.807   0.336
11957W        W84283   9.836  30.550  12.947
11958W        W84284  42.224  42.718   3.215
11959W        W84285  35.510  16.384   2.744
11960W        W84286  40.994  20.396   4.350
11961W        W84287   8.677   8.223  14.479
11962W        W84288  22.831  27.452  11.430
11963W        W84289  11.718  43.272   1.235
11964W        W84290  15.759  32.657  10.680
11965W        W84291  42.794  19.563   0.923
11966W        W84292  25.151   1.568   2.851
11967W        W84293  36.887   0.500  11.842
11968W        W84294  42.327   1.415  14.983
11969W        W84295  17.014   5.178  12.046
11970W        W84296  29.521   1.520   0.735
11971W        W84297   2.890  15.775   2.756
11972W        W84298  10.637  33.419  13.373
11973W        W84299  27.384  38.059  13.293
11974W        W84300  34.851   6.277  11.964
11975W        W84301  37.144  27.129   1.927
11976W        W84302  16.688  16.676  10.990
11977W        W84303  12.709  21.288  11.946
11978W        W84304  18.129   9.798  13.021
11979W        W84305   4.729  31.605   0.975
11980W        W84306  19.756  14.778  14.177
11981W        W84307  14.054  43.537   0.698
11982W        W84308  33.906   3.714  10.683
11983W        W84309  28.592  27.774   0.768
11984W        W84310  33.009  31.057   3.560
11985W        W84311   6.419  38.509  12.879
11986W        W84312  35.359  17.569   0.512
11987W        W84313  14.881  41.442  13.478
11988W        W84314  16.330   0.333   3.187
11989W        W84315  12.726  18.984   0.410
11990W        W84316  34.406   6.830   4.722
11991W        W84317   3.688  11.139   4.175
11992W        W84318   1.518  43.200   3.394
11993W        W84319   4.703  30.451  11.949
11994W        W84320   3.310  39.773  10.718
11995W        W84321  33.363   8.145  12.318
11996W        W84322  27.942  37.095  14.244
11997W        W84323   7.568  37.079   0.586
11998W        W84324   9.207  20.118  14.666
11999W        W84325  19.098  38.394   2.252
12000W        W84326  20.750   6.970   1.285
12001W        W84327  24.034   2.565   1.896
12002W        W84328  14.652  34.876   4.096
12003W        W84329  37.788  17.913  11.559
12004W        W84330  28.216  10.198   1.815
12005W        W84331   1.932  44.558   4.637
12006W        W84332  26.980  37.651   1.847
12007W        W84333  18.634  17.052   1.738
12008W        W84334  14.868  39.191   1.308
12009W        W84335  17.639   1.289   3.915
12010W        W84336  41.737  44.925   4.246
12011W        W84337  26.501  25.908   2.484
12012W        W84338  39.380  31.623   3.409
12013W        W84339  18.513  39.444  11.229
12014W        W84340  42.769   0.242  11.493
12015W        W84341  20.604   6.215   4.844
12016W        W84342  35.693   9.105  12.818
12017W        W84343  20.156  15.365  14.757
12018W        W84344  33.666  43.085   4.396
12019W        W84345  24.325  22.365  12.138
12020W        W84346  17.831  30.685  11.093
12021W        W84347  34.282  16.027  10.811
12022W        W84348   1.875   0.060   4.653
12023W        W84349  26.177  28.631   4.610
12024W        W84350  25.705  22.206  13.485
12025W        W84351  32.998   4.042   0.808
12026W        W84352  26.475   7.011   1.619
12027W        W84353  25.130  39.032   2.910
12028W        W84354  29.941  40.420   4.734
12029W        W84355  38.280  37.994   2.285
12030W        W84356   9.861  30.467  14.845
12031W        W84357  13.182  42.313  13.912
12032W        W84358  27.891  44.290  13.144
12033W        W84359  27.518  20.202  13.610
12034W        W84360   3.895  41.284  12.142
12035W        W84361   1.181  26.090   2.720
12036W        W84362   2.827  13.436  12.528
12037W        W84363  43.546  10.089   0.419
12038W        W84364  25.025   7.759  12.435
12039W        W84365  39.425  28.961   2.632
12040W        W84366  14.277  32.825  11.744
12041W        W84367  38.836   5.325   2.872
12042W        W84368   1.850   8.444  14.694
12043W        W84369  10.427  19.735   1.783
12044W        W84370  36.925  41.277   4.447
12045W        W84371  29.036   8.501   1.718
12046W        W84372  15.765  21.017   1.294
12047W        W84373  24.111  43.525  10.887
12048W        W84374  34.294   2.667  12.032
12049W        W84375  31.083  30.990   0.922
12050W        W84376  19.718   9.842   4.959
12051W        W84377  25.979  12.343  14.223
12052W        W84378  40.726  39.039  13.967
12053W        W84379  14.251  21.199   2.203
12054W        W84380   6.881  16.694  13.879
12055W        W84381  17.157  41.399   1.437
12056W        W84382  44.573  15.725  10.519
12057W        W84383   3.330  15.225  12.095
12058W        W84384  30.093  24.692  11.957
12059W        W84385  42.683  23.019   3.749
12060W        W84386   8.765   1.785  14.206
12061W        W84387  25.769  36.035   1.006
12062W        W84388  17.478  38.300  11.937
12063W        W84389  23.851  14.153  11.490
12064W        W84390  24.244  22.968  14.014
12065W        W84391  36.521  23.711  14.404
12066W        W84392  40.599  20.148  12.640
12067W        W84393   3.415   6.652  13.504
12068W        W84394  21.757  36.452  14.759
12069W        W84395  27.069  15.085  12.057
12070W        W84396  41.341  37.456  13.409
12071W        W84397  23.168  44.998   2.842
12072W        W84398  35.547  33.553   1.603
12073W        W84399  29.939  31.574   2.153
12074W        W84400  43.272  44.708  10.491
12075W        W84401   9.415  28.174  11.864
12076W        W84402  44.693   3.327  11.128
12077W        W84403   4.839  19.187  14.907
12078W        W84404   2.818  27.034   0.236
12079W        W84405  26.116   7.673  10.572
12080W        W84406  40.954  12.039   3.813
12081W        W84407   0.492   7.879  13.381
12082W        W84408   8.312  41.412   4.368
12083W        W84409  41.529  13.177   3.588
12084W        W84410  41.508  25.466   5.011
12085W        W84411  23.130  36.251  10.736
12086W        W84412   9.815  27.102  10.756
12087W        W84413  16.089  34.979  10.749
12088W        W84414  21.894  32.925  10.581
12089W        W84415  16.617  40.547  14.514
12090W        W84416  13.989  13.801  12.460
12091W        W84417  31.495   0.985   4.816
12092W        W84418  33.910   5.688   1.924
12093W        W84419  10.115  22.204   4.720
12094W        W84420  44.419  33.935  11.795
12095W        W84421   1.421  16.366  14.766
12096W        W84422  17.869  35.992   0.482
12097W        W84423  34.417  32.366   3.208
12098W        W84424   1.899  37.886  11.498
12099W        W84425  33.053  34.102   4.984
12100W        W84426  28.126  15.189  12.882
12101W        W84427  18.167  40.811  11.449
12102W        W84428   4.254  14.517   4.101
12103W        W84429  35.037  16.551  12.941
12104W        W84430   2.242  11.390  12.481
12105W        W84431   3.191  25.051  14.309
12106W        W84432  17.477  30.720  12.545
12107W        W84433   5.363   1.468  14.805
12108W        W84434  18.786  19.049   4.378
12109W        W84435   1.291  28.064  14.246
12110W        W84436  13.843   8.596  12.531
12111W        W84437  37.008  30.535   4.498
12112W        W84438  22.396  43.049  11.618
12113W        W84439   4.622   0.417   2.639
12114W        W84440   6.312   2.455  10.551
12115W        W84441   8.336  29.296  12.116
12116W        W84442  19.668  19.485  13.048
12117W        W84443  22.212  21.719   0.175
12118W        W84444  28.052  30.872  14.980
12119W        W84445  30.596   0.034  10.728
12120W        W84446  36.291  18.185   0.680
12121W        W84447   8.239  19.330  12.534
12122W        W84448  18.065   3.296  12.623
12123W        W84449   7.793  16.247  12.886
12124W        W84450  26.395   0.391  13.836
12125W        W84451  31.252   9.303  14.287
12126W        W84452  30.975  30.948   4.884
12127W        W84453  23.119  13.795   4.011
12128W        W84454   7.189  35.297  14.030
12129W        W84455  11.850   7.548   5.185
12130W        W84456  43.845   5.343  14.274
12131W        W84457  23.997  25.930  12.374
12132W        W84458  43.787  39.887   2.373
12133W        W84459   4.192  20.229   4.413
12134W        W84460   2.265  19.511   0.338
12135W        W84461  14.268   5.179   2.364
12136W        W84462  39.311   3.201  11.596
12137W        W84463  41.544  32.939   3.555
12138W        W84464  39.881  23.613   1.653
12139W        W84465   5.414  26.729  13.054
12140W        W84466  38.383  24.750   2.684
12141W        W84467  38.825  10.759  13.489
12142W        W84468  20.074  27.989  11.738
12143W        W84469  15.393  10.180  12.018
12144W        W84470  26.675  29.456   3.383
12145W        W84471   7.883  12.761  12.013
12146W        W84472  31.975  43.884  13.987
12147W        W84473  41.140  32.460  12.466
12148W        W84474  30.125  31.449  14.636
12149W        W84475  20.047  41.919   3.873
12150W        W84476   4.722  42.711  14.987
12151W        W84477  26.505   8.718   0.831
12152W        W84478  10.178  28.973  12.391
12153W        W84479   8.520  27.695   0.631
12154W        W84480  17.808   3.688  13.311
12155W        W84481   4.493   7.579   1.133
12156W        W84482   3.397   0.852   1.468
12157W        W84483  12.370  41.005  13.830
12158W        W84484  13.668   5.977  14.480
12159W        W84485  30.449  18.628  13.546
12160W        W84486  30.564  13.341   1.013
12161W        W84487  37.913  12.185  10.376
12162W        W84488  15.522   8.695  11.190
12163W        W84489   4.674  27.884   4.147
12164W        W84490   3.500  12.594   4.163
12165W        W84491  19.083  16.689  14.205
12166W        W84492  38.294   8.682   4.097
12167W        W84493  36.902  42.733  14.187
12168W        W84494  22.622   1.880  12.359
12169W        W84495   2.856  21.513  11.108
12170W        W84496  35.199  12.400  10.424
12171W        W84497  24.114   6.091   0.533
12172W        W84498  41.994  19.653  11.933
12173W        W84499   8.129  23.551  13.863
12174W        W84500  24.012  39.223   3.146
12175W        W84501  44.385   4.928   2.207
12176W        W84502  15.857  42.399   3.658
12177W        W84503  17.696  38.862  11.567
12178W        W84504  36.030  12.883   0.742
12179W        W84505  36.275  11.787   3.587
12180W        W84506  25.563  23.058   0.841
12181W        W84507  41.807  15.859   4.087
12182W        W84508  14.088  17.667  10.615
12183W        W84509  34.964  40.945   4.226
12184W        W84510  25.139  18.249  11.370
12185W        W84511   1.425  29.062  14.337
12186W        W84512  15.175  35.622   3.376
12187W        W84513  41.636  44.035  14.015
12188W        W84514  27.634  16.598  10.371
12189W        W84515   0.305  40.502  13.877
12190W        W84516  35.114   1.288   3.955
12191W        W84517   5.198   2.717  12.910
12192W        W84518  21.689  19.772   0.912
12193W        W84519   7.109  20.129   2.120
12194W        W84520  33.074   1.017   1.950
12195W        W84521  42.517  25.603  10.521
12196W        W84522  39.773   9.277   3.623
12197W        W84523   1.473  13.717  13.557
12198W        W84524  39.932  41.572  11.180
12199W        W84525  16.563  20.067  14.947
12200W        W84526  35.892  43.039   1.508
12201W        W84527  19.044  29.908   1.703
12202W        W84528  24.034  29.961  12.497
12203W        W84529  22.090  40.390  11.784
12204W        W84530  28.956  24.101   4.873
12205W        W84531  24.542  37.329  14.545
12206W        W84532  11.324  14.417   4.721
12207W        W84533  37.661  29.045  11.874
12208W        W84534   0.820  15.684  12.142
12209W        W84535  31.678  42.907  14.260
12210W        W84536  14.071  20.699  13.516
12211W        W84537  34.743  33.623   9.795
12212W        W84538  18.409  44.559  10.353
12213W        W84539   5.936  37.194   3.955
12214W        W84540  41.428  15.235   3.301
12215W        W84541  43.764   2.164  10.629
12216W        W84542  13.678   1.840  13.966
12217W        W84543  34.391   7.274  12.257
12218W        W84544  20.652  32.565   2.242
12219W        W84545   9.450  31.604   4.133
12220W        W84546  26.377  10.173   0.966
12221W        W84547   3.923  28.595   3.329
12222W        W84548  20.902  28.593  14.325
12223W        W84549  36.217  16.307  13.449
12224W        W84550  37.074  11.568   2.013
12225W        W84551  10.428  40.232   3.159
12226W        W84552  37.840  30.232   1.392
12227W        W84553   6.662  40.898   1.113
12228W        W84554  23.981  27.131   3.613
12229W        W84555  30.429  19.504  14.291
12230W        W84556  31.881  19.855   1.039
12231W        W84557  31.064   4.658   3.840
12232W        W84558  36.576  42.254  11.051
12233W        W84559   3.877  36.850   4.575
12234W        W84560  37.406  27.081   2.844
12235W        W84561  42.858   6.224  13.966
12236W        W84562  44.818  22.443   0.986
12237W        W84563  44.252  27.465   0.580
12238W        W84564   4.209  40.904  10.840
12239W        W84565  24.110  39.785  11.994
12240W        W84566   9.402  19.793  13.529
12241W        W84567  18.422   2.665   0.464
12242W        W84568  16.869  32.625   4.524
12243W        W84569  17.808  39.499  13.256
12244W        W84570  31.388  23.680  10.756
12245W        W84571  25.637  11.923  12.667
12246W        W84572   5.228  17.606   0.351
12247W        W84573  38.702  11.042  10.290
12248W        W84574  11.809   0.060  14.835
12249W        W84575   8.201  35.411   0.789
12250W        W84576  13.860   9.655   1.350
12251W        W84577  20.480  20.762  14.817
12252W        W84578  19.589  12.980  14.279
12253W        W84579  40.464  26.068   2.013
12254W        W84580  29.806  43.754  12.509
12255W        W84581  32.637  21.567  10.740
12256W        W84582   2.596  27.171  13.261
12257W        W84583  22.487  43.869  14.506
12258W        W84584  16.595  11.048  10.602
12259W        W84585  11.887  36.217   2.614
12260W        W84586  21.712  26.462   2.178
12261W        W84587  22.225  32.509  10.561
12262W        W84588  18.632  39.241   2.210
12263W        W84589  26.515   3.492   4.550
12264W        W84590   3.836  11.958   2.952
12265W        W84591   5.692  41.230  14.869
12266W        W84592  10.727  19.798   2.193
12267W        W84593  24.552  20.536  11.991
12268W        W84594  43.496  28.113   4.279
12269W        W84595   3.387  10.206   0.515
12270W        W84596  29.432  32.948   3.380
12271W        W84597   2.729  21.017  11.154
12272W        W84598  20.235  39.544   3.414
12273W        W84599  14.738   2.397  11.992
12274W        W84600   6.799  15.300  12.029
12275W        W84601  16.760  31.532  11.165
12276W        W84602  21.067  28.422  13.865
12277W        W84603  33.690  25.147   1.374
12278W        W84604   9.937   6.811   0.568
12279W        W84605  37.662  39.160  11.852
12280W        W84606  44.442  35.343  12.005
12281W        W84607  31.937   1.410  10.619
12282W        W84608  32.546  12.263   4.904
12283W        W84609  35.338  18.085   1.739
12284W        W84610   0.551  36.166  13.206
12285W        W84611  26.306  29.592   2.411
12286W        W84612   8.114  28.187  12.592
12287W        W84613   5.421  42.487   2.351
12288W        W84614  17.764  21.813   3.840
12289W        W84615   2.042  33.495  11.559
12290W        W84616   1.230   7.446   4.582
12291W        W84617  43.360   8.924   2.137
12292W        W84618   5.882   7.437   0.891
12293W        W84619  23.679  29.587   1.672
12294W        W84620  11.748  28.774   1.387
12295W        W84621  42.309   0.349   2.792
12296W        W84622  29.101  26.660   4.774
12297W        W84623  11.088  27.056   3.132
12298W        W84624  38.319  10.737   9.570
12299W        W84625   3.290   2.199   3.321
12300W        W84626   3.061  33.034   3.009
12301W        W84627  14.764  33.476  10.130
12302W        W84628  21.337  36.334  14.013
12303W        W84629  25.398  35.986   2.070
12304W        W84630  26.949  11.375  13.447
12305W        W84631  17.546  39.445  10.771
12306W        W84632  40.937   8.862  11.606
12307W        W84633  15.589  32.588  11.168
12308W        W84634   6.440  42.883  13.479
12309W        W84635   8.249  23.697  12.829
12310W        W84636  39.830  24.155  12.111
12311W        W84637   7.881  44.316   3.171
12312W        W84638  23.017  40.572   3.652
12313W        W84639  10.338   8.264   2.404
12314W        W84640  36.986  26.176  14.908
12315W        W84641  38.558  27.779  14.906
12316W        W84642  12.266  28.372   4.119
12317W        W84643  20.113  26.414  14.546
12318W        W84644  32.386  27.708   4.148
12319W        W84645  36.956  33.230  14.902
12320W        W84646  12.550  26.580  10.607
12321W        W84647  36.983  42.089  11.314
12322W        W84648  19.692  30.100  12.633
12323W        W84649  39.411  32.465   4.542
12324W        W84650  40.787  40.568   0.920
12325W        W84651  42.963  36.370   1.640
12326W        W84652  20.301  11.266   1.713
12327W        W84653  15.647  13.311   4.168
12328W        W84654  35.049  34.497   4.600
12329W        W84655  31.822  14.031   4.162
12330W        W84656   8.080  15.717   4.443
12331W        W84657  13.289  10.557   3.876
12332W        W84658  38.106  17.268   1.791
12333W        W84659   0.086  27.799   0.642
12334W        W84660  19.085  18.293   4.143
12335W        W84661   7.677  23.978   3.147
12336W        W84662  23.734  28.893  11.628
12337W        W84663  40.206  35.071  13.394
12338W        W84664   2.671  11.706   3.632
12339W        W84665  36.830   4.892   2.297
12340W        W84666  12.271  27.212  11.841
12341W        W84667  32.227  25.059  13.593
12342W        W84668  44.286  27.145   1.423
12343W        W84669  16.349  12.180   1.183
12344W        W84670  40.833  10.864  11.720
12345W        W84671   9.328  39.003   4.392
12346W        W84672  28.113  33.926  14.844
12347W        W84673   0.742  16.675   0.739
12348W        W84674  17.784  38.999   4.455
12349W        W84675  39.981   9.985  14.277
12350W        W84676  35.515  29.484   3.310
12351W        W84677  16.679   9.939  11.314
12352W        W84678  21.706  42.450  10.946
12353W        W84679  17.230  23.268  14.716
12354W        W84680  11.867   2.672   0.943
12355W        W84681   3.268  12.415   0.410
12356W        W84682  31.146  10.931   2.985
12357W        W84683  44.303   0.769  10.681
12358W        W84684  19.565  21.686   1.480
12359W        W84685  15.215  35.642  14.028
12360W        W84686   8.637   3.838  13.556
12361W        W84687  23.136  39.549  10.318
12362W        W84688  18.039   5.998  14.883
12363W        W84689  20.423  39.893  11.656
12364W        W84690  43.402  41.425   1.937
12365W        W84691  17.030  19.155  13.090
12366W        W84692  41.559  32.538   3.248
12367W        W84693  30.600  42.440  12.460
12368W        W84694  14.110  15.920  12.981
12369W        W84695  15.891  41.896   0.326
12370W        W84696  20.541   5.870  12.972
12371W        W84697  23.018  36.509   2.859
12372W        W84698   8.785  28.539   2.577
12373W        W84699   8.460  33.482   0.340
12374W        W84700   7.840  18.728   3.103
12375W        W84701  33.140   1.194   3.338
12376W        W84702  24.110  28.997   4.880
12377W        W84703  24.889  25.220   4.407
12378W        W84704  29.108  37.789  11.071
12379W        W84705  39.957  27.428   4.617
12380W        W84706  37.615   1.439   2.081
12381W        W84707   1.845   0.824   3.356
12382W        W84708  44.043   1.390  13.503
12383W        W84709  17.709   7.178   2.185
12384W        W84710  19.146   0.043   2.227
12385W        W84711  32.234  16.164  12.387
12386W        W84712  18.710  31.177  13.304
12387W        W84713  13.433  36.041  14.237
12388W        W84714   6.267  39.346  10.685
12389W        W84715  35.043  19.153   1.189
12390W        W84716   6.451  38.976   2.260
12391W        W84717  24.122  29.468  10.484
12392W        W84718  17.805  28.527  13.514
12393W        W84719  24.490   7.738  13.808
12394W        W84720   1.224  19.297   0.760
12395W        W84721  30.445  34.449  11.056
12396W        W84722  19.060  41.525  10.214
12397W        W84723  27.963  10.768  13.502
12398W        W84724  41.110   4.456   4.180
12399W        W84725  32.544  19.929  14.942
12400W        W84726   2.380  19.465   3.695
12401W        W84727  26.186  32.001  14.333
12402W        W84728  30.679  34.363  10.608
12403W        W84729  19.830   5.245  13.074
12404W        W84730  15.676  31.092   4.683
12405W        W84731   8.182  30.639  11.591
12406W        W84732  18.980  14.288   4.122
12407W        W84733  11.165   7.508  12.400
12408W        W84734   0.548  43.629  12.903
12409W        W84735  32.394  13.151  14.112
12410W        W84736  12.789  35.067   2.951
12411W        W84737  29.824  34.550   9.841
12412W        W84738   6.323  14.707  11.737
12413W        W84739  41.869  23.946  14.461
12414W        W84740   0.420  41.403   1.809
12415W        W84741  27.143   0.222  12.433
12416W        W84742  41.996   5.998   3.329
12417W        W84743  16.659  19.269  13.411
12418W        W84744  15.108  44.145  13.434
12419W        W84745  20.552   7.156   0.756
12420W        W84746  24.635  16.111   4.530
12421W        W84747   4.255  43.298   1.850
12422W        W84748  26.435  19.309  12.802
12423W        W84749  36.852  39.374   2.688
12424W        W84750  42.485  13.087   4.020
12425W        W84751  16.669   4.252   3.352
12426W        W84752   6.057  12.655   0.901
12427W        W84753  43.359  33.085   1.936
12428W        W84754  28.086   9.647   3.663
12429W        W84755  34.412   3.805  10.674
12430W        W84756  23.634  28.254   1.344
12431W        W84757  24.164  31.485  12.796
12432W        W84758  29.891  17.735  11.360
12433W        W84759   9.348  27.974  13.338
12434W        W84760  20.306  10.938  13.828
12435W        W84761   1.873  18.021  14.408
12436W        W84762  39.377  22.303  11.217
12437W        W84763   4.363  44.966  14.737
12438W        W84764  10.192  37.570  12.978
12439W        W84765  33.510  23.418  10.179
12440W        W84766  31.160  33.183   3.112
12441W        W84767   3.771  20.689   0.241
12442W        W84768  24.000  13.207   2.519
12443W        W84769  41.853  29.415  14.415
12444W        W84770  33.472  41.489  13.870
12445W        W84771   1.279  29.602  11.634
12446W        W84772  37.791  16.682  13.665
12447W        W84773  29.550  29.880  11.114
12448W        W84774   6.357  24.794  13.298
12449W        W84775  32.083  16.165   1.786
12450W        W84776  36.844   7.103  14.092
12451W        W84777  16.167  34.822   4.173
12452W        W84778   6.626  20.998   3.659
12453W        W84779   3.515   9.432  12.466
12454W        W84780  42.723  15.377   2.426
12455W        W84781  33.635  22.264  14.055
12456W        W84782   6.753  30.221   0.222
12457W        W84783  17.083  24.105  11.229
12458W        W84784  22.524  24.359   4.608
12459W        W84785  37.062  25.448   3.747
12460W        W84786   7.871  38.212  12.233
12461W        W84787  15.776  42.011   2.356
12462W        W84788  10.073  26.551  14.492
12463W        W84789  39.841  31.128  14.856
12464W        W84790   3.793  30.649   3.277
12465W        W84791  19.489  24.869  14.924
12466W        W84792  10.200  11.681   4.151
12467W        W84793  33.613  13.368   5.069
12468W        W84794   3.502  19.971  14.363
12469W        W84795  36.132  35.434   0.174
12470W        W84796  27.356   4.596   3.044
12471W        W84797   7.545  36.327  11.606
12472W        W84798  38.944  20.740  14.596
12473W        W84799  19.653  37.833  13.904
12474W        W84800  28.218   6.274   4.286
12475W        W84801  28.462  30.360   4.091
12476W        W84802  13.397  26.230  14.403
12477W        W84803  37.335  22.515  13.176
12478W        W84804   8.284  43.445  11.062
12479W        W84805  43.948  29.160  12.164
12480W        W84806  11.824   6.675   1.833
12481W        W84807  40.048   6.877   0.434
12482W        W84808  43.343  23.645  14.418
12483W        W84809   0.464  28.981   2.124
12484W        W84810   4.243   3.384   0.269
12485W        W84811  24.264   2.685  11.613
12486W        W84812  25.939  31.437   3.781
12487W        W84813  20.600   4.511   3.734
12488W        W84814  32.881   6.467  12.062
12489W        W84815  12.820  34.899  12.470
12490W        W84816  42.119  25.776  11.239
12491W        W84817  14.041  19.215  14.209
12492W        W84818  14.099   3.801  14.933
12493W        W84819  28.635  22.651   3.246
12494W        W84820  35.037  41.974   3.106
12495W        W84821  22.791  29.512  10.948
12496W        W84822  24.241  16.388   1.337
12497W        W84823  38.829  14.832  10.948
12498W        W84824  15.847  24.002   9.945
12499W        W84825  31.256   6.381  11.976
12500W        W84826   8.869  37.865  11.099
12501W        W84827   6.833  44.179   0.995
12502W        W84828  21.425  36.840  14.025
12503W        W84829  31.941  28.711  12.585
12504W        W84830  29.575   8.658   0.486
12505W        W84831   4.900   1.256  14.949
12506W        W84832  36.457   7.774   0.504
12507W        W84833  25.086  32.905  12.934
12508W        W84834  44.463   5.292  13.429
12509W        W84835  19.671  12.908   0.833
12510W        W84836  13.799  24.209   2.657
12511W        W84837  32.460  12.593   3.635
12512W        W84838  28.009  31.772  12.083
12513W        W84839  13.827   2.258   2.773
12514W        W84840   0.205  32.563   3.805
12515W        W84841   4.813  10.378   1.081
12516W        W84842  17.086  43.433  13.034
12517W        W84843  44.202   8.735  14.252
12518W        W84844  33.996  28.687  11.906
12519W        W84845   1.404  38.836  12.545
12520W        W84846   8.103  39.862  12.880
12521W        W84847  30.469   8.157   3.164
12522W        W84848  25.873   4.064   4.985
12523W        W84849  28.181  23.002  11.705
12524W        W84850  19.058  18.602   3.155
12525W        W84851   3.225  42.035   4.493
12526W        W84852  16.251   3.700  12.952
12527W        W84853   2.766  37.468   1.527
12528W        W84854  33.040  17.013   3.691
12529W        W84855  36.373  22.331   3.800
12530W        W84856  37.801  31.896  14.262
12531W        W84857   7.143  32.075   3.769
12532W        W84858  39.087  39.560  13.519
12533W        W84859   9.592  37.926  11.725
12534W        W84860  40.596   2.107  11.271
12535W        W84861  33.454   9.778  14.975
12536W        W84862  15.006  17.654  10.355
12537W        W84863  25.451  24.058   1.927
12538W        W84864  32.380  41.384   2.598
12539W        W84865  37.457  18.714  12.641
12540W        W84866  43.763  28.568   1.460
12541W        W84867   1.799  29.335  11.497
12542W        W84868   1.030  17.503   1.274
12543W        W84869  35.262  35.601  11.128
12544W        W84870  43.435  39.871  10.827
12545W        W84871  28.023   0.298  10.751
12546W        W84872   7.334  25.987   1.779
12547W        W84873  33.341   1.488  13.036
12548W        W84874  35.673  18.327  13.930
12549W        W84875  19.646  32.846   4.690
12550W        W84876  34.893  34.962  13.343
12551W        W84877  11.871  26.721   1.961
12552W        W84878  12.527   6.821  13.873
12553W        W84879  13.388  22.697   1.714
12554W        W84880   4.445  10.583  14.877
12555W        W84881  17.203  18.858   1.409
12556W        W84882  25.118  26.015   1.795
12557W        W84883  31.135  19.979  14.866
12558W        W84884  24.689   8.934  11.033
12559W        W84885   1.673   0.829  11.038
12560W        W84886  29.847  27.974  14.866
12561W        W84887  26.417  43.041  12.397
12562W        W84888   7.639  43.044  14.034
12563W        W84889   6.832  11.535  10.673
12564W        W84890  30.570  24.717  12.140
12565W        W84891  17.101  26.544   4.151
12566W        W84892   2.791   5.377   5.331
12567W        W84893  21.201  42.560  14.823
12568W        W84894  12.435  13.828  13.005
12569W        W84895  17.780  21.060   2.667
12570W        W84896  19.089  42.873   0.236
12571W        W84897  33.843  13.350  12.877
12572W        W84898  19.454  33.088  11.016
12573W        W84899   2.451  39.135   4.514
12574W        W84900   2.559  24.463  14.785
12575W        W84901  43.810  25.894   4.160
12576W        W84902  16.300   8.110   0.304
12577W        W84903  11.104  25.095   0.657
12578W        W84904  28.483  28.557   9.828
12579W        W84905   1.274  36.942  12.346
12580W        W84906  40.769  15.642   1.704
12581W        W84907   9.278  41.097  13.304
12582W        W84908   0.839  22.487   0.318
12583W        W84909  30.253   4.786  11.637
12584W        W84910  41.250  23.104   3.657
12585W        W84911  28.656  14.382   3.874
12586W        W84912  35.582  29.987  12.481
12587W        W84913  25.381  15.033  13.472
12588W        W84914  30.994  33.161  12.811
12589W        W84915   6.450  42.297   0.861
12590W        W84916   3.424  44.520  14.881
12591W        W84917   1.847  33.141   3.377
12592W        W84918   0.566  43.003  11.553
12593W        W84919  27.169  14.295  13.817
12594W        W84920  27.920  44.297   0.327
12595W        W84921  19.762   3.178   4.306
12596W        W84922  25.420  33.954  11.622
12597W        W84923  20.253  34.853   1.398
12598W        W84924  26.256   8.841   0.165
12599W        W84925   5.168  29.567   2.687
12600W        W84926   7.958  13.288  12.551
12601W        W84927  43.988  44.708   0.883
12602W        W84928  29.992  27.425  14.246
12603W        W84929  21.463  34.038  10.681
12604W        W84930  39.806  17.650   1.522
12605W        W84931   5.148  44.685  11.556
12606W        W84932   2.221  14.405   1.856
12607W        W84933  35.399  13.548  10.442
12608W        W84934  11.821  34.622   1.237
12609W        W84935   1.854  25.287   2.804
12610W        W84936  39.413   1.295   2.708
12611W        W84937   9.133  29.016  10.417
12612W        W84938  34.117  19.153  14.020
12613W        W84939  37.807  10.882   2.884
12614W        W84940  16.172  42.211  13.412
12615W        W84941  24.068  37.368   3.810
12616W        W84942   0.869  18.575   4.427
12617W        W84943  24.520   0.489   0.889
12618W        W84944  14.675  25.574   0.192
12619W        W84945  12.184   9.919  14.997
12620W        W84946  27.190  42.037   3.726
12621W        W84947  22.672  11.897  13.572
12622W        W84948   7.445   0.272   2.357
12623W        W84949  18.461  15.064   3.335
12624W        W84950  32.172  43.058   3.222
12625W        W84951  26.017   7.360   2.444
12626W        W84952  14.811  23.913  11.374
12627W        W84953  20.317  43.465  11.851
12628W        W84954   3.296  21.223   0.824
12629W        W84955  17.818  28.947   1.197
12630W        W84956  43.993  27.025  11.127
12631W        W84957  13.694   1.005  14.336
12632W        W84958   1.664  21.569  12.470
12633W        W84959  30.548   5.243  14.706
12634W        W84960  15.471  22.466  10.098
12635W        W84961  42.071  22.722   3.647
12636W        W84962  11.329  16.256  10.702
12637W        W84963  20.741  30.476  13.055
12638W        W84964   3.325  25.534   1.765
12639W        W84965  12.279  13.890   3.257
12640W        W84966  16.631  16.339   1.845
12641W        W84967  13.804  41.519  14.987
12642W        W84968  34.839  11.712   3.716
12643W        W84969   5.222   2.863  13.760
12644W        W84970   9.830  38.831   0.224
12645W        W84971  37.543   2.786   1.455
12646W        W84972   3.976   1.795  13.154
12647W        W84973  41.356  20.098   3.633
12648W        W84974  21.892  20.619   4.017
12649W        W84975  26.583  15.169  12.168
12650W        W84976   0.417  33.835   0.832
12651W        W84977  26.515   7.423   0.407
12652W        W84978  33.499   5.370   4.666
12653W        W84979  15.305  30.489   0.922
12654W        W84980   0.908  32.973  13.931
12655W        W84981  25.728  19.458   4.162
12656W        W84982   7.723   8.805  14.939
12657W        W84983  13.074  40.920  12.474
12658W        W84984  43.429  40.293  10.542
12659W        W84985  42.180   4.986   5.104
12660W        W84986   2.834  20.223   1.899
12661W        W84987  13.651   2.472   0.394
12662W        W84988  27.596  11.109   2.176
12663W        W84989  28.846  44.698  13.645
12664W        W84990  36.619  35.953   2.420
12665W        W84991   0.819   1.677   0.875
12666W        W84992  17.699  25.228   3.833
12667W        W84993   6.745  21.982   0.503
12668W        W84994  21.487  10.373  10.584
12669W        W84995  23.908  27.031  13.805
12670W        W84996  40.681  27.739  13.720
12671W        W84997  13.894  24.602   0.056
12672W        W84998  26.231  29.137  12.195
12673W        W84999   3.042   0.142   1.247
12674W        W85000  17.795  31.502  11.535
12675W        W85001   1.669  40.781  12.760
12676W        W85002  23.484   5.738  13.414
12677W        W85003  43.580  31.997  12.121
12678W        W85004  34.430  28.079  13.132
12679W        W85005  29.120   6.446  14.378
12680W        W85006  18.451  33.586  13.520
12681W        W85007  29.228  37.943   0.817
12682W        W85008  30.181   2.181  14.127
12683W        W85009   5.355  31.816   5.024
12684W        W85010  44.342   3.434   2.161
12685W        W85011   2.328  32.926   0.214
12686W        W85012  34.046  10.806   3.104
12687W        W85013  36.779  29.559   0.881
12688W        W85014  17.762   9.068  14.828
12689W        W85015  23.707  10.390   2.343
12690W        W85016  37.569  30.385  14.262
12691W        W85017  36.403  17.202   1.493
12692W        W85018  14.061  41.052  12.217
12693W        W85019  19.971   8.731   4.000
12694W        W85020   8.483  42.629   1.666
12695W        W85021  39.785  37.087   0.053
12696W        W85022  44.127  37.549  10.692
12697W        W85023  24.397  11.717   1.445
12698W        W85024   1.499  30.371   3.743
12699W        W85025  35.855  31.957  13.565
12700W        W85026  20.592  21.256   0.061
12701W        W85027  23.207  27.251  12.977
12702W        W85028  43.969   4.476  14.423
12703W        W85029  40.409  25.213   0.230
12704W        W85030  40.956  44.451   0.486
12705W        W85031  19.096  43.579  11.009
12706W        W85032  41.758  43.809   1.501
12707W        W85033   0.806  38.772   0.783
12708W        W85034  28.863  17.226   0.297
12709W        W85035  14.379  41.393  13.443
12710W        W85036   9.456  16.868  12.458
12711W        W85037  43.417  29.594  13.116
12712W        W85038  15.327  11.750   0.022
12713W        W85039  30.988  16.141   2.316
12714W        W85040   9.642  17.181  11.635
12715W        W85041   4.876  27.911  13.010
12716W        W85042  27.160  40.421  14.265
12717W        W85043  13.884  14.675   0.370
12718W        W85044   2.207  14.072   4.702
12719W        W85045  44.363  40.351  13.799
12720W        W85046  23.542  21.526   1.226
12721W        W85047  17.612   8.677   3.460
12722W        W85048   8.287  15.442  10.162
12723W        W85049  19.946  43.813  12.560
12724W        W85050  17.286  40.163   2.051
12725W        W85051  11.556   0.344  11.393
12726W        W85052  39.577  18.346  14.768
12727W        W85053  16.549   0.477   2.728
12728W        W85054   4.545  27.227  13.249
12729W        W85055  11.701  38.000   1.613
12730W        W85056  12.682  26.266  11.572
12731W        W85057   0.337  17.518  12.058
12732W        W85058  38.241   5.563  13.877
12733W        W85059  23.024  36.227  12.515
12734W        W85060   0.451  13.036   2.021
12735W        W85061  27.128  31.240   0.422
12736W        W85062  20.568  44.304  13.957
12737W        W85063  26.046  44.287  11.146
12738W        W85064  39.747  23.418  12.807
12739W        W85065   3.383   3.705   4.665
12740W        W85066   1.205  17.184  13.640
12741W        W85067  41.497   7.094   4.040
12742W        W85068   8.322  18.587   2.367
12743W        W85069  22.097   0.282  11.348
12744W        W85070   2.110   4.406  10.215
12745W        W85071  12.067   8.844  12.365
12746W        W85072  23.044  44.884  11.405
12747W        W85073  41.307  39.600   0.396
12748W        W85074  38.395   8.244   1.460
12749W        W85075  18.287  35.637   0.709
12750W        W85076  29.459   4.422   0.398
12751W        W85077   3.929  24.725  12.545
12752W        W85078  40.528  25.642   1.731
12753W        W85079  42.201  36.958   2.581
12754W        W85080  13.099  24.479  11.417
12755W        W85081  42.473   8.503  11.919
12756W        W85082  26.700   0.454   1.971
12757W        W85083   5.726  44.312  11.055
12758W        W85084  32.714  24.899  12.496
12759W        W85085  41.672  28.640  13.946
12760W        W85086  39.514  15.564  12.102
12761W        W85087  13.323   1.822   4.418
12762W        W85088  23.281   6.717  13.930
12763W        W85089  19.157  21.744   3.357
12764W        W85090  19.100   6.896  14.468
12765W        W85091   8.001  12.169  12.893
12766W        W85092  28.116   8.463  12.040
12767W        W85093  18.587  27.083   1.176
12768W        W85094  43.986  34.463   1.981
12769W        W85095  33.662  39.123  11.136
12770W        W85096  42.102  34.586  13.947
12771W        W85097   2.854   7.641   2.802
12772W        W85098  11.693  33.463  12.486
12773W        W85099  36.593  30.063   1.021
12774W        W85100  44.570  40.438  12.485
12775W        W85101  14.688  43.480   4.247
12776W        W85102   2.206  14.290  10.236
12777W        W85103  41.501  16.009  11.032
12778W        W85104  41.097  43.830  12.904
12779W        W85105  38.502  21.034   4.841
12780W        W85106  40.813  11.616   4.678
12781W        W85107  10.436   1.953   4.256
12782W        W85108   9.290  29.464   4.468
12783W        W85109  44.803  30.069   2.806
12784W        W85110  19.750  37.992   2.174
12785W        W85111  26.061  37.923   0.945
12786W        W85112  31.355  13.677   2.765
12787W        W85113  34.794   7.196  12.626
12788W        W85114  26.681  27.418   5.241
12789W        W85115  20.528   2.774  11.067
12790W        W85116   6.952   7.284  12.906
12791W        W85117  36.054   1.193   4.106
12792W        W85118  12.168   4.922  13.962
12793W        W85119   4.607   3.952  14.834
12794W        W85120  14.723  13.296   3.988
12795W        W85121  19.954   5.301  13.974
12796W        W85122  17.178  34.825  11.542
12797W        W85123   4.350  40.633   1.219
12798W        W85124   1.739  19.832  11.528
12799W        W85125  24.802  20.524  11.543
12800W        W85126  22.642   7.338   1.046
12801W        W85127  33.368  30.117   1.999
12802W        W85128   9.328  18.355   2.396
12803W        W85129  27.674  19.565   3.301
12804W        W85130   1.278  39.085   1.700
12805W        W85131  30.789  15.531   3.748
12806W        W85132  36.798   4.647  11.182
12807W        W85133  33.184  37.429   0.380
12808W        W85134  22.219  42.302   4.407
12809W        W85135  15.666  36.293   3.566
12810W        W85136   4.111   7.197  11.914
12811W        W85137  43.252  23.851   0.378
12812W        W85138  22.431  21.447   2.755
12813W        W85139   2.538  11.353   1.399
12814W        W85140  26.454   2.411   0.635
12815W        W85141  13.703  38.853   1.264
12816W        W85142   5.450  17.731  10.543
12817W        W85143  14.074  36.727   3.637
12818W        W85144  44.332   1.549  10.320
12819W        W85145   3.978   1.177   2.776
12820W        W85146  14.841  41.986   2.389
12821W        W85147  33.094  20.352   3.375
12822W        W85148  38.826  44.892  10.250
12823W        W85149   0.925  37.462   3.047
12824W        W85150  24.298  21.563   0.200
12825W        W85151  16.815   0.265   2.339
12826W        W85152  34.674  23.106   2.283
12827W        W85153   5.332  11.779   2.615
12828W        W85154  38.026  16.621   4.793
12829W        W85155  38.520   2.400   2.334
12830W        W85156  32.077   7.731  12.096
12831W        W85157  19.770  41.016  12.573
12832W        W85158   6.289  16.967   5.246
12833W        W85159  22.455  33.150   0.913
12834W        W85160  33.802  21.090   4.583
12835W        W85161  26.077  35.339   0.441
12836W        W85162   0.520  20.346   1.450
12837W        W85163  11.382   3.918   0.520
12838W        W85164  18.433  20.659  13.253
12839W        W85165  17.030  21.062   0.876
12840W        W85166  35.044  40.611  10.749
12841W        W85167  32.537  39.586   2.406
12842W        W85168  19.727  23.533  12.537
12843W        W85169  40.020   4.708   3.234
12844W        W85170  22.962  19.661   0.067
12845W        W85171  19.519   3.923   0.252
12846W        W85172  40.883   9.391   4.409
12847W        W85173   5.756  44.292  12.105
12848W        W85174   7.116  24.123  11.591
12849W        W85175  37.019  28.047   3.803
12850W        W85176  34.786  43.913  13.560
12851W        W85177  33.472  29.907  12.826
12852W        W85178  13.059  38.824   1.957
12853W        W85179  17.618   7.709  14.381
12854W        W85180  41.970  20.270   0.286
12855W        W85181  37.964  26.050   0.273
12856W        W85182  23.457   0.538   0.857
12857W        W85183  33.567  10.143   1.904
12858W        W85184  10.132  32.085   4.074
12859W        W85185  39.975  36.077   1.588
12860W        W85186   3.823  44.391  10.266
12861W        W85187  14.262  32.395  12.594
12862W        W85188  33.932   0.035  13.317
12863W        W85189  31.612  25.594  12.475
12864W        W85190  15.225  42.767  11.513
12865W        W85191   1.928  32.204  11.028
12866W        W85192  29.815  14.237  11.625
12867W        W85193  27.203   8.375   1.109
12868W        W85194  33.979  12.829  14.852
12869W        W85195  16.799  12.899   0.917
12870W        W85196  16.620  41.460  13.087
12871W        W85197  14.792   1.202   0.982
12872W        W85198  19.991  24.747   1.472
12873W        W85199  34.998  12.731   2.886
12874W        W85200  30.879   2.500  10.659
12875W        W85201  10.882  19.648   4.117
12876W        W85202  41.366  22.472   0.396
12877W        W85203  28.303  14.386   4.241
12878W        W85204   4.169  25.670   0.380
12879W        W85205  27.171  20.628   3.472
12880W        W85206  39.356  28.409  14.264
12881W        W85207   0.910  19.515   4.168
12882W        W85208  42.306   7.526   4.552
12883W        W85209   6.127  33.380   1.837
12884W        W85210  33.642  22.840   3.200
12885W        W85211  13.344   8.719  12.410
12886W        W85212  16.281  21.090   2.934
12887W        W85213  29.246  14.516  12.485
12888W        W85214  34.008   7.682   2.194
12889W        W85215  12.739  39.064  11.057
12890W        W85216  13.281  36.748   5.647
12891W        W85217  37.042  31.136   0.521
12892W        W85218  44.973  29.117  11.537
12893W        W85219  22.981  13.400  10.832
12894W        W85220  42.436  36.394   0.427
12895W        W85221  20.778  34.578  13.855
12896W        W85222  44.030   1.212  14.015
12897W        W85223  24.084  31.873  10.477
12898W        W85224   7.266  32.898  11.631
12899W        W85225  43.625  15.796   0.270
12900W        W85226   1.350  41.893   0.919
12901W        W85227  20.910   9.631  10.730
12902W        W85228   3.083  42.121   0.471
12903W        W85229  21.773  10.270   1.463
12904W        W85230  37.386  23.217  11.137
12905W        W85231  17.343  32.348  11.484
12906W        W85232  34.343   0.467  10.630
12907W        W85233  15.174  25.609   2.418
12908W        W85234  41.994   5.499   3.148
12909W        W85235   2.782  31.437  11.498
12910W        W85236  16.656   4.511   4.830
12911W        W85237  32.561  13.943  14.945
12912W        W85238   8.665  16.768  14.268
12913W        W85239  36.995  27.606   1.212
12914W        W85240  27.877  38.494  11.101
12915W        W85241  32.841  16.592  14.386
12916W        W85242  30.913  18.045  12.290
12917W        W85243   2.845  30.505   2.916
12918W        W85244  10.138  24.997   4.166
12919W        W85245  12.490  32.321  12.567
12920W        W85246  41.691  23.060  14.307
12921W        W85247  44.457  24.994  14.902
12922W        W85248  16.580  25.242   2.165
12923W        W85249  32.570  44.873   1.781
12924W        W85250  34.059  33.118   2.297
12925W        W85251  27.438  36.260   4.140
12926W        W85252  38.495  40.455   3.441
12927W        W85253   5.208  23.418   3.372
12928W        W85254   2.795  18.025   3.976
12929W        W85255   2.516  15.831  13.374
12930W        W85256  10.179  28.490   3.868
12931W        W85257  18.228   9.798   3.738
12932W        W85258  13.662   0.811   3.802
12933W        W85259  10.122  28.198  14.342
12934W        W85260  10.419  38.151   0.819
12935W        W85261  42.369  18.348   1.368
12936W        W85262  32.091  31.124  11.137
12937W        W85263  30.489   1.859  13.024
12938W        W85264  36.869  32.396  11.525
12939W        W85265  15.574  43.217  11.494
12940W        W85266  24.175  32.415   4.597
12941W        W85267  13.248   6.615   1.727
12942W        W85268  15.297  44.850  11.337
12943W        W85269  28.181  15.935   1.794
12944W        W85270  13.097  31.394   0.895
12945W        W85271  15.067  39.941   0.963
12946W        W85272  20.173  17.952   3.056
12947W        W85273  38.504  38.422   4.720
12948W        W85274  31.689  18.191   1.039
12949W        W85275  17.679  30.403   1.308
12950W        W85276  41.013  38.597   4.280
12951W        W85277  37.824   7.645   4.433
12952W        W85278  25.496   0.342   1.864
12953W        W85279  31.215  15.218  11.423
12954W        W85280  18.638  41.819  13.748
12955W        W85281  42.710  28.753   0.172
12956W        W85282  35.797  35.390  13.172
12957W        W85283   7.789  31.814   0.776
12958W        W85284  36.667  11.580  13.907
12959W        W85285  26.325  25.238  12.957
12960W        W85286  14.715  19.790   1.671
12961W        W85287  15.655   1.863  14.096
12962W        W85288  36.965  12.902   0.769
12963W        W85289   8.893  23.328  11.614
12964W        W85290  31.100  37.095  10.563
12965W        W85291  44.574  12.224   1.228
12966W        W85292  24.158  10.264  13.983
12967W        W85293  22.563   0.661  13.885
12968W        W85294   4.957  40.227   1.267
12969W        W85295  29.274   3.998   2.062
12970W        W85296  15.318  24.323   0.357
12971W        W85297   0.445  27.606   1.495
12972W        W85298  43.739  14.197  13.353
12973W        W85299  38.377  31.146  13.444
12974W        W85300  26.503  34.090   1.164
12975W        W85301   2.289  27.125  11.588
12976W        W85302  38.740  13.157   0.713
12977W        W85303  31.875   9.147   5.172
12978W        W85304   9.617  20.243   2.709
12979W        W85305   8.224  16.864  14.563
12980W        W85306  20.523  28.706   4.341
12981W        W85307  44.472  33.534  13.054
12982W        W85308  32.985   6.027   4.342
12983W        W85309  19.510  13.827   0.514
12984W        W85310   8.680  32.492  13.782
12985W        W85311  21.805   2.017  14.332
12986W        W85312  41.541  40.870   0.536
12987W        W85313   6.926  40.479  12.490
12988W        W85314  41.728  23.866   2.635
12989W        W85315  31.512  44.213  11.204
12990W        W85316  23.273   6.741   0.463
12991W        W85317  44.869  34.561   0.319
12992W        W85318  36.570  28.136  14.452
12993W        W85319  44.568  38.768  13.874
12994W        W85320  41.483  39.934   4.232
12995W        W85321   4.940  40.239   4.616
12996W        W85322  19.885  28.483  10.523
12997W        W85323   1.315  31.578   0.211
12998W        W85324  26.530  37.643   4.257
12999W        W85325   8.817  37.932   3.584
13000W        W85326  41.841  18.249   3.012
13001W        W85327  39.602  37.241   3.304
13002W        W85328  28.569   9.201   4.783
13003W        W85329   1.513  17.551  13.920
13004W        W85330  44.083  38.020   1.674
13005W        W85331  38.830  30.052  14.779
13006W        W85332  37.832  16.842   2.864
13007W        W85333  29.629  31.685  13.962
13008W        W85334  24.242  39.286   3.577
13009W        W85335  15.207   3.909  13.404
13010W        W85336  42.698   8.944  13.948
13011W        W85337  26.645  15.112   4.861
13012W        W85338  14.829  24.166   0.383
13013W        W85339  28.085  24.025   4.493
13014W        W85340   7.294  23.070  12.426
13015W        W85341  18.081  17.578  14.434
13016W        W85342   8.511  22.660  11.997
13017W        W85343   7.321  36.743  14.118
13018W        W85344  23.430  38.863   1.801
13019W        W85345   2.462  37.297  14.409
13020W        W85346  26.993   8.103  10.553
13021W        W85347  13.320  27.094   3.285
13022W        W85348   6.338   1.714  10.315
13023W        W85349   9.278  25.245  14.664
13024W        W85350  31.900  30.121  10.679
13025W        W85351  35.406  22.642  13.230
13026W        W85352  41.340  28.060  12.128
13027W        W85353  26.898  14.517  12.980
13028W        W85354  19.151  31.823  14.279
13029W        W85355  32.704  31.098  14.961
13030W        W85356   2.866  14.666   3.869
13031W        W85357   6.714  25.351   4.483
13032W        W85358  30.967  21.612  13.967
13033W        W85359   8.111  27.443   0.809
13034W        W85360  24.255   1.300   2.573
13035W        W85361  15.584  25.998   1.214
13036W        W85362  18.027  43.116  13.080
13037W        W85363  12.919  18.170   3.466
13038W        W85364  19.053  18.839   2.168
13039W        W85365  39.772  17.234  14.745
13040W        W85366  16.006   5.849  14.196
13041W        W85367  17.953  14.724  12.082
13042W        W85368  19.697   1.759  11.287
13043W        W85369  33.506  34.545   3.813
13044W        W85370  33.950  37.310  14.163
13045W        W85371  30.659  39.909   1.187
13046W        W85372  40.656  16.992   2.970
13047W        W85373  11.849  44.415   2.236
13048W        W85374  10.346  37.088   0.393
13049W        W85375  43.020  39.419   3.279
13050W        W85376  37.857  19.227   3.709
13051W        W85377   0.406  44.189   1.775
13052W        W85378  19.666  19.358   1.795
13053W        W85379  38.545  19.507   3.616
13054W        W85380  36.408  28.205   1.292
13055W        W85381  27.591  35.136  10.609
13056W        W85382  41.271  40.062   2.312
13057W        W85383  32.942  22.584  14.507
13058W        W85384   0.953  39.791  12.388
13059W        W85385  12.103  20.990  11.152
13060W        W85386  28.063  10.909   0.371
13061W        W85387  22.622  21.739  11.156
13062W        W85388   7.832  34.871   1.101
13063W        W85389  36.380  32.966  10.209
13064W        W85390  26.418  43.531  12.506
13065W        W85391  44.874  28.721   3.935
13066W        W85392  32.840  26.066  12.885
13067W        W85393  34.888  21.072  14.319
13068W        W85394  39.448   5.506  13.487
13069W        W85395  21.387  17.353   4.655
13070W        W85396  35.164  12.352   1.557
13071W        W85397   0.020  22.772  10.218
13072W        W85398   5.204  36.172   3.813
13073W        W85399  37.160   8.334   4.092
13074W        W85400  40.800  20.240  13.551
13075W        W85401   0.755  36.542  14.026
13076W        W85402  36.370  14.247   3.268
13077W        W85403  42.482  25.458  14.932
13078W        W85404   8.394  38.545  12.126
13079W        W85405   1.265  37.074   3.065
13080W        W85406  18.598  14.378  11.682
13081W        W85407  11.253  37.331   0.561
13082W        W85408   5.936  41.584  13.528
13083W        W85409  24.733  40.253  11.630
13084W        W85410  32.082  32.501  10.410
13085W        W85411   6.629  16.093  13.455
13086W        W85412   1.868   7.944   3.935
13087W        W85413  14.014   6.769  10.728
13088W        W85414  40.692  33.422   2.496
13089W        W85415   0.868  38.049  11.947
13090W        W85416   6.657  34.570   0.427
13091W        W85417  41.818  42.786   2.365
13092W        W85418  22.268  15.218   4.680
13093W        W85419  23.997  39.286  12.076
13094W        W85420  25.211   6.327  14.800
13095W        W85421  36.417  42.278  13.469
13096W        W85422  14.356   3.650  12.915
13097W        W85423  40.296   0.514  13.761
13098W        W85424  21.684   1.299   4.690
13099W        W85425  30.621  11.941   3.195
13100W        W85426  33.531   8.380  14.041
13101W        W85427  35.544  34.889  13.994
13102W        W85428   7.627   6.284  14.044
13103W        W85429  41.427  26.068   3.604
13104W        W85430  11.299  39.888   4.069
13105W        W85431   2.491  37.871  12.391
13106W        W85432  32.989  25.328  12.371
13107W        W85433  21.178  13.391   3.620
13108W        W85434  14.804  33.944  10.959
13109W        W85435  41.926  19.075   3.229
13110W        W85436  23.152  25.619   4.595
13111W        W85437  11.314  26.899  14.441
13112W        W85438  24.005  28.700  12.048
13113W        W85439  43.493  20.493  14.392
13114W        W85440  25.670  29.372  13.489
13115W        W85441  24.500   1.396  14.324
13116W        W85442  41.391  22.293  14.575
13117W        W85443  32.813   3.191  13.872
13118W        W85444   1.832   4.926   3.743
13119W        W85445   2.292  43.826  10.664
13120W        W85446  31.057  23.755  13.040
13121W        W85447  33.936  11.162   0.079
13122W        W85448  28.737  40.998  12.845
13123W        W85449  30.872  44.118   3.741
13124W        W85450  21.566  22.039  14.103
13125W        W85451  24.161  21.236  11.595
13126W        W85452   6.432   8.430   4.174
13127W        W85453   3.405  30.682   4.793
13128W        W85454  13.226   9.730  13.447
13129W        W85455  30.138  17.690  12.037
13130W        W85456   9.861   5.316   0.615
13131W        W85457  23.546  18.172   4.586
13132W        W85458  21.478  43.163   4.768
13133W        W85459  16.615  43.879   4.426
13134W        W85460  42.621  25.101  10.308
13135W        W85461   9.884  19.952   1.780
13136W        W85462  22.184  24.186   2.125
13137W        W85463  21.637  44.896  14.374
13138W        W85464  28.644  22.192  12.510
13139W        W85465   8.638  18.679  13.714
13140W        W85466   1.380  31.176  12.508
13141W        W85467  38.120  18.794  14.177
13142W        W85468  23.955  41.974  13.230
13143W        W85469  21.603  33.862  11.575
13144W        W85470   9.963  33.660  14.228
13145W        W85471  28.062  27.955  13.517
13146W        W85472  34.847  38.430  11.035
13147W        W85473  44.317  27.066  11.546
13148W        W85474  41.795   0.769   0.534
13149W        W85475  28.047  22.695   4.560
13150W        W85476  12.190  34.412  13.342
13151W        W85477  10.849  26.937  14.198
13152W        W85478  36.567  42.048  10.586
13153W        W85479  27.531  41.598  13.106
13154W        W85480  41.289   9.219  13.785
13155W        W85481  10.786  11.837  11.684
13156W        W85482  29.440  44.690   1.295
13157W        W85483  14.804   9.144  14.070
13158W        W85484  23.989  26.445  12.411
13159W        W85485  31.197  30.229  13.144
13160W        W85486  24.203   8.438  13.398
13161W        W85487   5.028   8.835  13.782
13162W        W85488  24.276  33.727   2.713
13163W        W85489  20.204  31.622  11.212
13164W        W85490  20.541  18.797   3.251
13165W        W85491  39.711   0.939   1.789
13166W        W85492  10.328   7.421   0.224
13167W        W85493  23.573   2.300  13.355
13168W        W85494  21.775  37.757  10.623
13169W        W85495  19.126  23.804  12.084
13170W        W85496  28.970  21.024   4.396
13171W        W85497  29.814  32.530   2.205
13172W        W85498   6.066  23.899  12.930
13173W        W85499  34.742  11.499  12.017
13174W        W85500  21.268  17.409  13.941
13175W        W85501  29.695  15.596  13.884
13176W        W85502  43.872   1.384   2.618
13177W        W85503  18.251  16.297   3.617
13178W        W85504  40.680  35.900  10.830
13179W        W85505  17.261  41.994  11.531
13180W        W85506  40.521  32.377   0.296
13181W        W85507  11.597   9.224   0.303
13182W        W85508  30.655  32.906   2.264
13183W        W85509   1.771  10.736  10.488
13184W        W85510  13.072  27.484  13.101
13185W        W85511  32.645  19.387   1.288
13186W        W85512   1.259  27.151   1.829
13187W        W85513   9.424  18.552  11.483
13188W        W85514  40.586  11.932   5.083
13189W        W85515  10.204   0.476   2.128
13190W        W85516  11.226  24.319  14.364
13191W        W85517  11.378  25.089   2.862
13192W        W85518  14.870  10.454   1.203
13193W        W85519   5.871  30.583   1.231
13194W        W85520  25.993  32.032   4.525
13195W        W85521  38.621  30.611  10.679
13196W        W85522  21.409  11.725   3.089
13197W        W85523  31.670  31.987   0.839
13198W        W85524  12.917   8.312   0.135
13199W        W85525   0.530  25.592   3.190
13200W        W85526  43.023  24.990   1.828
13201W        W85527   0.379  43.323  13.938
13202W        W85528   1.077  22.064   4.548
13203W        W85529  14.435  19.356  12.433
13204W        W85530  44.299  40.774   1.133
13205W        W85531  37.840  18.165   3.081
13206W        W85532  44.613   5.435   1.320
13207W        W85533  31.865  35.402  12.082
13208W        W85534  29.635  36.150  12.116
13209W        W85535  41.736  43.564  14.864
13210W        W85536  31.103   3.793   2.822
13211W        W85537  43.767  13.640  14.819
13212W        W85538  17.994   0.999   4.321
13213W        W85539   5.437  12.307   1.210
13214W        W85540  31.014  41.495   5.102
13215W        W85541  32.917  38.944   3.763
13216W        W85542  14.541   7.316  12.572
13217W        W85543  21.154  41.990  10.685
13218W        W85544  40.737  15.180  14.516
13219W        W85545  36.032  15.353   0.677
13220W        W85546  27.431  38.723   1.494
13221W        W85547   9.622  33.899  12.977
13222W        W85548  43.509  18.715   2.263
13223W        W85549  15.128  20.301  14.006
13224W        W85550   0.858  44.588  12.975
13225W        W85551   0.372   2.145   1.993
13226W        W85552  44.362   8.566   4.153
13227W        W85553  22.034   6.662  12.213
13228W        W85554  28.996   2.690   1.945
13229W        W85555  14.790   1.918   1.738
13230W        W85556  28.025  17.300  13.346
13231W        W85557  41.116  25.858  13.005
13232W        W85558  18.141  39.049  14.460
13233W        W85559   2.451  13.423   2.767
13234W        W85560   1.297  21.732   0.575
13235W        W85561   9.245  43.851   3.210
13236W        W85562   7.459   4.411  11.645
13237W        W85563  28.213  35.290  14.337
13238W        W85564  28.944  37.605   4.693
13239W        W85565   1.150  16.235  11.966
13240W        W85566  13.573  18.311   4.436
13241W        W85567  16.874  18.253   1.025
13242W        W85568  13.539  37.838   1.415
13243W        W85569  39.873   4.244   2.250
13244W        W85570  28.958  38.396   0.725
13245W        W85571   6.761  32.501   0.388
13246W        W85572  34.936  44.017  14.828
13247W        W85573  11.709  39.137   2.601
13248W        W85574  11.008  38.015   4.452
13249W        W85575  26.178   4.986   5.106
13250W        W85576  36.890  44.303   3.141
13251W        W85577  41.968   7.801  14.454
13252W        W85578  32.513   3.980  13.396
13253W        W85579  11.400  42.300   1.759
13254W        W85580  23.327  41.956   1.324
13255W        W85581  21.399   8.742  10.729
13256W        W85582  20.070  32.624  14.508
13257W        W85583  20.182  13.182   3.532
13258W        W85584  40.939  19.107   4.593
13259W        W85585  30.420  34.423  14.692
13260W        W85586  12.191  22.617   0.514
13261W        W85587   6.236   0.310  11.199
13262W        W85588  38.749  24.808  11.987
13263W        W85589  42.568   6.407  14.406
13264W        W85590  26.876  20.692   4.267
13265W        W85591  36.390   6.277   4.637
13266W        W85592  26.186  32.075   1.966
13267W        W85593  24.329   3.391  14.801
13268W        W85594  18.354  18.176  12.898
13269W        W85595  44.981  29.666   2.158
13270W        W85596  41.574  33.467  12.551
13271W        W85597  32.083  44.979   4.148
13272W        W85598  32.625  39.800  12.841
13273W        W85599  12.636   7.311  12.510
13274W        W85600  34.125  16.224  13.253
13275W        W85601  30.980  28.539   2.335
13276W        W85602   3.357  36.707   1.029
13277W        W85603  26.082   3.577  11.372
13278W        W85604   0.530  23.274  11.004
13279W        W85605  30.009  21.514   3.353
13280W        W85606  20.835  13.619  14.350
13281W        W85607  10.668  31.749   4.989
13282W        W85608  38.456  11.650  13.450
13283W        W85609  17.677  19.121   2.979
13284W        W85610   1.020  23.297   2.053
13285W        W85611  39.800   7.767   3.632
13286W        W85612  43.243  17.305  11.959
13287W        W85613  33.614  29.222  14.524
13288W        W85614   5.525  33.682  12.129
13289W        W85615  38.390   7.946  14.912
13290W        W85616  36.511  10.648  10.136
13291W        W85617   8.313  20.079   4.865
13292W        W85618   9.225  41.219   4.100
13293W        W85619   4.383  31.762   2.794
13294W        W85620  13.027  20.549  14.342
13295W        W85621  44.726  21.515   0.003
13296W        W85622  37.397   6.852   3.194
13297W        W85623  13.797  22.619   3.204
13298W        W85624  36.848  25.077   0.486
13299W        W85625  21.611   0.818   3.940
13300W        W85626  19.197   3.712  14.855
13301W        W85627  18.077  37.625   3.590
13302W        W85628   2.526   9.616   4.898
13303W        W85629  35.595  33.587   4.610
13304W        W85630  19.307  26.734  13.442
13305W        W85631  24.008  41.958  12.533
13306W        W85632  22.565  42.309   0.297
13307W        W85633  43.203  42.061  13.144
13308W        W85634  20.532   1.821   4.221
13309W        W85635  27.400  15.786  12.049
13310W        W85636   8.102  21.973  11.173
13311W        W85637  33.338  27.057  10.970
13312W        W85638  29.421  34.455   1.324
13313W        W85639  38.291  39.486  14.802
13314W        W85640  15.487  34.018  13.483
13315W        W85641  42.789  37.559   0.287
13316W        W85642  25.447   0.594   3.681
13317W        W85643  20.352  27.017   2.334
13318W        W85644  21.513  33.361   2.759
13319W        W85645  41.470  33.398  11.219
13320W        W85646   1.243  22.463   2.142
13321W        W85647  39.561   6.656   0.298
13322W        W85648  36.293  24.512   1.273
13323W        W85649  35.432  33.610  11.999
13324W        W85650   2.421  14.408   2.714
13325W        W85651  42.423  43.007  12.905
13326W        W85652  30.994  14.790  13.130
13327W        W85653  18.029   2.317  12.866
13328W        W85654  27.656  20.431  11.136
13329W        W85655  17.704  27.142   0.100
13330W        W85656  31.450  17.292   2.683
13331W        W85657  33.947  26.484  13.863
13332W        W85658   6.392  13.319  14.761
13333W        W85659  17.353  43.576  11.059
13334W        W85660  20.783  36.630   3.622
13335W        W85661   5.837  27.479  12.805
13336W        W85662   7.431  18.538  12.368
13337W        W85663  36.342   5.947   3.996
13338W        W85664  39.409  36.941  14.097
13339W        W85665   1.393  42.782   4.066
13340W        W85666  12.446  42.748   3.735
13341W        W85667   5.299  31.089   4.595
13342W        W85668  19.669  11.602  11.589
13343W        W85669   7.675  37.412   2.855
13344W        W85670  24.706   9.574   2.346
13345W        W85671  20.137  18.264  14.735
13346W        W85672  24.637  11.339  12.537
13347W        W85673   8.765  12.898  12.146
13348W        W85674  20.988   9.167  13.112
13349W        W85675   1.226  34.114  13.533
13350W        W85676  43.333  28.662   4.395
13351W        W85677   0.645  25.676   1.424
13352W        W85678  33.047   3.966  13.528
13353W        W85679   1.104  32.274  12.671
13354W        W85680   8.766  41.242   1.816
13355W        W85681   0.949  31.502  11.562
13356W        W85682  12.872   5.103   2.413
13357W        W85683  36.999   1.873   0.891
13358W        W85684   2.400  30.975   1.227
13359W        W85685  43.031  43.351   4.536
13360W        W85686  41.420  13.064   1.219
13361W        W85687  44.963  31.343  14.718
13362W        W85688  39.935  43.894  12.061
13363W        W85689  14.587  31.951   1.965
13364W        W85690  44.882  19.656  12.283
13365W        W85691  17.846   3.386   4.940
13366W        W85692  14.204  15.756  10.867
13367W        W85693  36.316  37.325  14.198
13368W        W85694  21.912  22.802  10.190
13369W        W85695  27.276  41.204   0.603
13370W        W85696  32.430  38.044  12.699
13371W        W85697   1.330  40.447   0.317
13372W        W85698  20.285  22.694  13.679
13373W        W85699  41.377   0.579  13.065
13374W        W85700  42.309   7.756  10.609
13375W        W85701  38.445  13.559  11.806
13376W        W85702  35.557   2.555  12.930
13377W        W85703  34.133   9.083  10.956
13378W        W85704  29.890  26.066   5.431
13379W        W85705   3.890  16.327   4.497
13380W        W85706  12.588   3.419   3.005
13381W        W85707  35.195  24.903  11.157
13382W        W85708  21.167  37.635  13.485
13383W        W85709   6.919  29.460   3.234
13384W        W85710  38.825   4.330  13.944
13385W        W85711  38.927  31.993   2.353
13386W        W85712  38.090  22.958  13.802
13387W        W85713  42.852  35.055   2.840
13388W        W85714  25.544  12.069  13.158
13389W        W85715  41.687  39.534   1.184
13390W        W85716  21.936   3.807   1.823
13391W        W85717  28.667  13.614   4.531
13392W        W85718  27.416  38.985  11.075
13393W        W85719  42.209  42.841  14.435
13394W        W85720   0.929  28.804  11.283
13395W        W85721   8.115  31.623   4.608
13396W        W85722  37.188  12.672   9.705
13397W        W85723   7.254  12.914   4.062
13398W        W85724   4.215  44.040   3.701
13399W        W85725   3.272  10.343   1.911
13400W        W85726  31.320  34.203  13.857
13401W        W85727  30.147  33.467   1.724
13402W        W85728  36.566  37.439   3.200
13403W        W85729  18.896  11.438   3.737
13404W        W85730  20.308  41.034  14.997
13405W        W85731  13.587  15.676  14.288
13406W        W85732   3.693  24.533  12.965
13407W        W85733  31.213  19.217   1.034
13408W        W85734  24.499  13.158   1.348
13409W        W85735  22.520   9.064   3.157
13410W        W85736  18.432   0.777   0.321
13411W        W85737  29.970   3.837   3.790
13412W        W85738  38.426  20.077   1.637
13413W        W85739  16.803  31.391   3.724
13414W        W85740  18.548  35.526  14.307
13415W        W85741   6.199  21.956  11.989
13416W        W85742  20.233  14.894  13.022
13417W        W85743  44.455  44.784   2.946
13418W        W85744  35.586  37.463   4.158
13419W        W85745  31.525  42.350  13.317
13420W        W85746  19.249  41.203  14.727
13421W        W85747  31.841  40.447   3.338
13422W        W85748  33.433   4.856  12.499
13423W        W85749   7.774   8.940  12.904
13424W        W85750  24.480   1.747   1.235
13425W        W85751  31.572  12.086  13.374
13426W        W85752   3.340   2.880  13.290
13427W        W85753  30.490  11.597  10.754
13428W        W85754  15.765  37.727   2.733
13429W        W85755  34.510  39.520  13.375
13430W        W85756   9.884  14.874  14.590
13431W        W85757  36.086  18.000  13.051
13432W        W85758   7.895  25.952   1.195
13433W        W85759  15.807  13.803   3.262
13434W        W85760  32.996  17.698  13.622
13435W        W85761  32.608   9.800   2.153
13436W        W85762  31.779  34.584  13.316
13437W        W85763   4.608  40.255  11.633
13438W        W85764  27.050  38.766   0.921
13439W        W85765  35.089  20.603  12.830
13440W        W85766  33.906  37.868   3.372
13441W        W85767   3.464   6.640   3.613
13442W        W85768  12.067  35.607   4.190
13443W        W85769  37.557  29.543  11.710
13444W        W85770  34.352   9.880   1.391
13445W        W85771  32.345  19.153  11.148
13446W        W85772  20.179  12.775   3.828
13447W        W85773  44.797  27.634  10.905
13448W        W85774  37.491  10.645   1.650
13449W        W85775  17.814  22.776   1.693
13450W        W85776  36.796  16.756   0.060
13451W        W85777  37.067  17.245   4.987
13452W        W85778   3.895  12.122   2.165
13453W        W85779  17.510  33.157  11.204
13454W        W85780   7.936   0.885   2.696
13455W        W85781  14.124  30.242  13.408
13456W        W85782  12.891   2.842  14.270
13457W        W85783  40.940  16.154  10.645
13458W        W85784   4.993   8.322   0.997
13459W        W85785  13.383  32.676   0.513
13460W        W85786  17.886   7.695  11.023
13461W        W85787  26.464   5.788  13.622
13462W        W85788  16.745  10.362  11.623
13463W        W85789  37.273   6.794  11.161
13464W        W85790  15.265  25.561  14.283
13465W        W85791  24.393  42.924  11.522
13466W        W85792  32.463   5.827  13.935
13467W        W85793  13.061  42.740   5.094
13468W        W85794  17.891  13.204   1.501
13469W        W85795  15.998  21.527   2.727
13470W        W85796  38.021  24.621  14.860
13471W        W85797  37.178  23.106  13.369
13472W        W85798  28.963  34.252   3.581
13473W        W85799  23.632  37.713   5.026
13474W        W85800  34.466  41.286   1.217
13475W        W85801  16.706  25.655  11.083
13476W        W85802  12.319  21.112  12.462
13477W        W85803  20.491  28.353  14.505
13478W        W85804  42.980   3.945  12.966
13479W        W85805  38.256  36.539   2.747
13480W        W85806  21.216  31.033  12.463
13481W        W85807  43.827  11.580  11.549
13482W        W85808  16.738  41.138   0.896
13483W        W85809  33.097  27.432  11.763
13484W        W85810  28.471   8.396   2.030
13485W        W85811  24.453  34.124   0.924
13486W        W85812  12.265   1.482  10.710
13487W        W85813  30.316  19.784  11.604
13488W        W85814   1.947  11.838  14.687
13489W        W85815  43.246   9.703   4.551
13490W        W85816  15.622  42.850   0.511
13491W        W85817  20.052  12.024   2.311
13492W        W85818  27.416   0.992   0.135
13493W        W85819  18.497  20.089   2.256
13494W        W85820   5.901   7.595  11.586
13495W        W85821   1.286   7.586  13.032
13496W        W85822  14.262  42.993  13.181
13497W        W85823  44.361  24.582   0.868
13498W        W85824  35.346  20.701   2.207
13499W        W85825  31.528   1.763   0.458
13500W        W85826   8.608  38.932  10.813
13501W        W85827  11.830  17.204  14.896
13502W        W85828  30.534  18.343   2.925
13503W        W85829  44.476   0.008  14.445
13504W        W85830  38.172  22.567  13.414
13505W        W85831  43.995  12.695   4.150
13506W        W85832   0.828   4.866   3.174
13507W        W85833  22.997   1.844   2.956
13508W        W85834  13.163   3.502   0.867
13509W        W85835  39.818  22.384   2.577
13510W        W85836  35.556  25.622   3.231
13511W        W85837  37.600   4.370  13.609
13512W        W85838  29.427  18.698  10.609
13513W        W85839   8.309  21.610  12.162
13514W        W85840   1.528  19.243  14.310
13515W        W85841  29.943  43.202  12.490
13516W        W85842  44.898   1.972   4.305
13517W        W85843  40.791  40.554   3.860
13518W        W85844  31.009  42.745   0.448
13519W        W85845   4.379  33.343  11.637
13520W        W85846  32.184  15.808   2.139
13521W        W85847   3.010   5.355   0.514
13522W        W85848  38.329  26.604  12.710
13523W        W85849  17.714  29.892   1.397
13524W        W85850  10.738   3.499   1.737
13525W        W85851  14.369  41.943  14.773
13526W        W85852  39.033   9.836  10.731
13527W        W85853  40.820  34.401   3.864
13528W        W85854  29.204   4.692  11.669
13529W        W85855  10.768  28.059   4.456
13530W        W85856  37.513   9.322  11.510
13531W        W85857  31.442  10.875   1.849
13532W        W85858  21.318  31.182  14.627
13533W        W85859  35.019  26.808   4.123
13534W        W85860   2.185   9.775  11.790
13535W        W85861  27.070  15.152  10.791
13536W        W85862  43.209  24.515   3.566
13537W        W85863   0.824  24.708  10.642
13538W        W85864  16.069  19.142   0.518
13539W        W85865  12.974  21.798   0.673
13540W        W85866   7.985  37.405   2.388
13541W        W85867  41.988  14.340  13.095
13542W        W85868   0.188  12.892  10.948
13543W        W85869  25.056   5.625   0.561
13544W        W85870  14.665  14.313   3.179
13545W        W85871  18.017  41.022  12.392
13546W        W85872  44.151   1.820  10.741
13547W        W85873  30.613  20.050  10.504
13548W        W85874   0.393  19.709   3.932
13549W        W85875  34.510  33.970   4.175
13550W        W85876  25.473  39.863  14.494
13551W        W85877   3.219   6.935   2.441
13552W        W85878  18.684  39.566   2.615
13553W        W85879  20.509   3.203   0.332
13554W        W85880  14.858  19.109   4.628
13555W        W85881  23.719  20.991   2.339
13556W        W85882  28.617  34.383  10.637
13557W        W85883  14.194   9.908  14.227
13558W        W85884  30.067  12.400  14.102
13559W        W85885   8.552  24.812   2.377
13560W        W85886  28.518   6.873   0.479
13561W        W85887  18.513  27.128  10.791
13562W        W85888  11.644  20.009   1.396
13563W        W85889  27.934  19.045   1.615
13564W        W85890   9.428  34.840  13.785
13565W        W85891  43.326  21.791  10.622
13566W        W85892  20.721  37.341   2.247
13567W        W85893  43.782   1.655  13.903
13568W        W85894  42.048   5.485  14.740
13569W        W85895  12.324  21.152   2.174
13570W        W85896  17.906  42.938   0.573
13571W        W85897  33.932  35.938   2.851
13572W        W85898  21.266   0.125   2.117
13573W        W85899  43.083   3.714   0.887
13574W        W85900  35.636  23.740   3.023
13575W        W85901  19.155  44.579   2.781
13576W        W85902  14.263  23.993  11.944
13577W        W85903  28.553  43.791  14.053
13578W        W85904  41.551  34.159  14.887
13579W        W85905   6.328  11.649   2.280
13580W        W85906   3.206  12.717   2.673
13581W        W85907   9.844  19.099  14.907
13582W        W85908  44.249  22.260   4.058
13583W        W85909  16.311  40.270   0.767
13584W        W85910  31.385  27.044   2.757
13585W        W85911  22.337  23.620   2.810
13586W        W85912  21.741  42.741  12.072
13587W        W85913  24.554  19.718   0.304
13588W        W85914  39.856  24.072   0.760
13589W        W85915  31.467  38.443  13.821
13590W        W85916  40.538  42.540  13.372
13591W        W85917  35.858  24.186  11.542
13592W        W85918  17.276  12.779  11.373
13593W        W85919  24.337  18.647  10.690
13594W        W85920   6.708  33.237  11.556
13595W        W85921  30.655  10.123   1.466
13596W        W85922   9.264  38.615   3.092
13597W        W85923  13.658  21.460   3.781
13598W        W85924  19.661   1.888  14.461
13599W        W85925  35.394  21.167   4.435
13600W        W85926  25.419  34.970  14.888
13601W        W85927  22.097  39.834  14.040
13602W        W85928  24.067  31.638  10.932
13603W        W85929  30.210  31.724  13.507
13604W        W85930   4.028  12.627   2.176
13605W        W85931  29.662  30.262   2.369
13606W        W85932  19.739  44.749   4.025
13607W        W85933  44.656  34.724  10.257
13608W        W85934   7.462  21.661  10.849
13609W        W85935   6.486  26.991  12.630
13610W        W85936  33.182  23.138  11.543
13611W        W85937  23.467   3.506   2.254
13612W        W85938   2.735   3.509   0.400
13613W        W85939  17.096  41.786  13.336
13614W        W85940  39.378   4.886  12.936
13615W        W85941  28.472  32.918  12.958
13616W        W85942   0.346   9.292  12.900
13617W        W85943  30.935  35.588  13.909
13618W        W85944  43.451   7.805   0.815
13619W        W85945  16.695  21.464  14.693
13620W        W85946  18.776  39.803  12.505
13621W        W85947  17.695   1.466  10.667
13622W        W85948   4.740  27.406  14.854
13623W        W85949  23.171  35.325  13.367
13624W        W85950  43.630  36.649   0.162
13625W        W85951  23.916  26.286   2.273
13626W        W85952  19.530  39.925   1.002
13627W        W85953  32.226  21.126   3.761
13628W        W85954  33.091  30.357   2.428
13629W        W85955  14.295  43.715   1.132
13630W        W85956   6.070   7.258   2.449
13631W        W85957  13.039  13.648   3.707
13632W        W85958  31.980  14.796   0.854
13633W        W85959  40.745  30.659  13.545
13634W        W85960  37.817  36.861  13.852
13635W        W85961  40.297  41.583   3.200
13636W        W85962  12.282  31.899   2.765
13637W        W85963  30.652  37.971   4.760
13638W        W85964  22.654  42.427   1.764
13639W        W85965  31.625  15.039  14.586
13640W        W85966   5.837  38.864  12.444
13641W        W85967  17.047  11.167  13.128
13642W        W85968  27.541  44.436  12.241
13643W        W85969  41.124  25.514   1.154
13644W        W85970  33.631  44.565  11.084
13645W        W85971  15.200   7.938   3.164
13646W        W85972   7.005  30.007   2.697
13647W        W85973  19.132  35.540  13.022
13648W        W85974  15.082   9.817  10.961
13649W        W85975  16.570  27.816   3.721
13650W        W85976  42.172   8.863  14.916
13651W        W85977  38.148  24.449   0.336
13652W        W85978  32.861  41.429   1.337
13653W        W85979  30.636  18.831   1.628
13654W        W85980  26.922  33.746  14.771
13655W        W85981  24.173  13.660  10.779
13656W        W85982   6.712   8.347   3.385
13657W        W85983  13.362  13.327  10.714
13658W        W85984   3.005  20.880   4.170
13659W        W85985  43.217  14.195   3.749
13660W        W85986  16.323  23.666   4.559
13661W        W85987  41.738  25.498  11.562
13662W        W85988  38.804  20.043   0.638
13663W        W85989  19.255  19.236   4.385
13664W        W85990  26.620  20.737   0.304
13665W        W85991  15.525  27.674  14.717
13666W        W85992  37.972  30.872   3.678
13667W        W85993  35.145  12.789   1.864
13668W        W85994  16.726  22.781  13.585
13669W        W85995  26.076  15.296  13.909
13670W        W85996  42.742  14.554  12.008
13671W        W85997   5.827  15.873  10.596
13672W        W85998  42.557  20.400  11.670
13673W        W85999  24.288  38.878  12.097
13674W        W86000   9.804   1.452   3.614
13675W        W86001  43.406  32.097  13.999
13676W        W86002  27.555  11.605   2.352
13677W        W86003  13.569   2.464   4.518
13678W        W86004  35.075  42.313  10.794
13679W        W86005  10.544  29.055  14.932
13680W        W86006  20.104  18.240  12.047
13681W        W86007  16.927   7.298  11.512
13682W        W86008  12.130  19.643   4.585
13683W        W86009  31.439   5.810  14.234
13684W        W86010  30.462  35.538   2.851
13685W        W86011  38.316  28.335   2.116
13686W        W86012   7.807  40.926   3.229
13687W        W86013  23.634  30.399  11.903
13688W        W86014  12.810   0.328  11.628
13689W        W86015  26.610  35.890  13.067
13690W        W86016   6.437  39.882   0.714
13691W        W86017  26.462  25.447   2.877
13692W        W86018  35.376  35.580   5.444
13693W        W86019   6.751  25.238   0.675
13694W        W86020   7.815  26.665  10.572
13695W        W86021   4.684   8.895  11.527
13696W        W86022   2.367   7.290   0.736
13697W        W86023   6.862  14.223  13.331
13698W        W86024  36.586   0.797  14.882
13699W        W86025  18.014  31.822   5.005
13700W        W86026  10.847  38.374  14.088
13701W        W86027  41.486  18.433  13.464
13702W        W86028  34.965  43.119  12.150
13703W        W86029  43.701  38.088   0.828
13704W        W86030  16.875  42.523   1.929
13705W        W86031  15.299   6.902   2.279
13706W        W86032  15.339  21.209  10.484
13707W        W86033  20.724  22.210  14.574
13708W        W86034  34.288   1.661  12.032
13709W        W86035  11.344   7.608  13.019
13710W        W86036  20.091  33.340  10.708
13711W        W86037   0.313   5.995   1.264
13712W        W86038  10.239   6.463  10.702
13713W        W86039  33.321   6.226  11.937
13714W        W86040  21.898  11.686   3.171
13715W        W86041  16.061  20.660   1.051
13716W        W86042  26.156  44.710   4.335
13717W        W86043   0.441   1.269   2.190
13718W        W86044  27.136  20.996  13.090
13719W        W86045  38.014  41.328   1.473
13720W        W86046  16.291   9.884  10.620
13721W        W86047  39.356  19.510   3.173
13722W        W86048   7.274   9.883  10.978
13723W        W86049  19.593   2.441  12.781
13724W        W86050   7.449  29.111   0.085
13725W        W86051  25.153  16.058   3.150
13726W        W86052  40.511  18.167  14.728
13727W        W86053  37.545   5.416   1.469
13728W        W86054  25.689  28.637   2.856
13729W        W86055  36.477   9.888   2.417
13730W        W86056   3.625   1.795   3.847
13731W        W86057  37.520  40.565  12.204
13732W        W86058   1.646  11.890  10.227
13733W        W86059  39.613  15.780  13.941
13734W        W86060   8.796  16.778   2.720
13735W        W86061  37.447  11.038   2.445
13736W        W86062   6.397  12.109  13.930
13737W        W86063   9.165   1.035  13.741
13738W        W86064  22.344  25.702   0.342
13739W        W86065  33.444  44.444  10.165
13740W        W86066  29.829  21.266  13.362
13741W        W86067  36.985  31.641   0.807
13742W        W86068  17.632  21.999  12.013
13743W        W86069  29.535   7.672   4.684
13744W        W86070  40.136   9.618  12.976
13745W        W86071   9.363   4.908   4.582
13746W        W86072  24.995  10.854  10.446
13747W        W86073  10.027  33.153   1.370
13748W        W86074  30.478  10.588   1.265
13749W        W86075  10.210  25.987   1.398
13750W        W86076  33.676  38.824   0.905
13751W        W86077  22.708  16.038   4.217
13752W        W86078   4.824  25.626  14.383
13753W        W86079  28.081   4.991   4.672
13754W        W86080  13.151  23.725  13.536
13755W        W86081  31.071  35.200  10.655
13756W        W86082  27.869  24.259  12.269
13757W        W86083  13.620   2.309  11.096
13758W        W86084   0.552  32.190  14.364
13759W        W86085  33.255  36.021   2.175
13760W        W86086  38.312  34.461   3.160
13761W        W86087  13.570  27.898   0.536
13762W        W86088  42.902   7.801   1.273
13763W        W86089  22.555  32.613  11.867
13764W        W86090   7.792   7.172  11.210
13765W        W86091  34.425  40.938  12.458
13766W        W86092  39.787  39.706  10.693
13767W        W86093  32.863  31.014  13.316
13768W        W86094  36.026  37.026   0.742
13769W        W86095  24.625   4.340   4.142
13770W        W86096  33.947  31.290   2.376
13771W        W86097  36.951   3.198   0.484
13772W        W86098  14.233  38.355   3.313
13773W        W86099  33.991  18.584   4.582
13774W        W86100  27.212  23.585   3.678
13775W        W86101  44.868  44.836   1.410
13776W        W86102  33.052  17.302  14.725
13777W        W86103  32.270  14.719   0.408
13778W        W86104  34.197  15.651  12.566
13779W        W86105  29.154   9.466  11.111
13780W        W86106  36.957   1.646  14.479
13781W        W86107  36.045   2.806   4.575
13782W        W86108  27.400  27.000  10.680
13783W        W86109   9.115   9.909  12.871
13784W        W86110  17.633  22.019  14.072
13785W        W86111   9.971  25.539   1.242
13786W        W86112  19.345  23.726   3.749
13787W        W86113  18.792  41.378  14.469
13788W        W86114  25.072  17.814   2.428
13789W        W86115  23.359  13.292  10.507
13790W        W86116  16.310   8.629   4.132
13791W        W86117  29.539  40.508  14.945
13792W        W86118  33.139  22.292   4.030
13793W        W86119   9.197  15.721   1.967
13794W        W86120   8.368  17.172  14.159
13795W        W86121  36.957  41.959  13.096
13796W        W86122  40.900  13.552  14.906
13797W        W86123  19.661  17.132  12.615
13798W        W86124   5.730  37.299   4.460
13799W        W86125  31.910  21.795  14.331
13800W        W86126  11.062  39.196   3.235
13801W        W86127  20.062  38.526  13.967
13802W        W86128  29.954  21.603  13.753
13803W        W86129   7.175   5.416   4.147
13804W        W86130  28.209   6.125  11.880
13805W        W86131  27.194  34.423   1.225
13806W        W86132  31.507  18.698   1.111
13807W        W86133   1.958  34.947   2.775
13808W        W86134   4.702  34.955  14.293
13809W        W86135  18.777  18.066  12.059
13810W        W86136  44.758  33.728  11.495
13811W        W86137  42.407   1.039   1.252
13812W        W86138  15.883  17.345   0.639
13813W        W86139  44.267   9.660   5.082
13814W        W86140   4.288   6.722  14.281
13815W        W86141   2.952  12.848   5.036
13816W        W86142  32.468  29.432   0.756
13817W        W86143  12.712  29.263  10.647
13818W        W86144  37.444  34.773   3.119
13819W        W86145   1.361  12.127   1.233
13820W        W86146   8.359  38.329  12.956
13821W        W86147  31.034  13.072   3.694
13822W        W86148  41.058  40.124  14.998
13823W        W86149  22.037  13.906   4.075
13824W        W86150  43.487  10.408  10.592
13825W        W86151  27.023   3.200  11.610
13826W        W86152  13.362  26.511   1.871
13827W        W86153   7.862   9.575  12.030
13828W        W86154  40.460   2.296   4.945
13829W        W86155  15.429   3.754  14.408
13830W        W86156  38.930  13.185  11.469
13831W        W86157  12.987  30.119  10.401
13832W        W86158   6.591  40.375   3.627
13833W        W86159  40.395  13.755  14.626
13834W        W86160  11.201  20.595   3.244
13835W        W86161  20.729  32.903   3.158
13836W        W86162  22.549  17.897   0.295
13837W        W86163  39.933  20.837   0.811
13838W        W86164  14.756  25.905   1.667
13839W        W86165  23.206  38.576   1.296
13840W        W86166  26.485  10.609   1.223
13841W        W86167   1.225  15.098  11.849
13842W        W86168   8.385  10.770  11.059
13843W        W86169  35.869  19.704  14.792
13844W        W86170   7.863  44.017  12.402
13845W        W86171  10.296  44.057   3.164
13846W        W86172  24.256   9.749   4.283
13847W        W86173  11.238   6.399  14.017
13848W        W86174  22.281  22.257   1.809
13849W        W86175  14.666  34.947  11.925
13850W        W86176  30.369  29.354  12.413
13851W        W86177  25.485  11.163  14.656
13852W        W86178  13.525  25.898  11.330
13853W        W86179  17.647  35.277  10.818
13854W        W86180  41.513  28.326   4.662
13855W        W86181  19.648   0.543   2.876
13856W        W86182  28.521  42.853  11.622
13857W        W86183  21.969  38.865   2.084
13858W        W86184   3.234   0.304  13.951
13859W        W86185  33.127  32.532  10.552
13860W        W86186   5.207  42.538   2.835
13861W        W86187  30.967  12.156   4.933
13862W        W86188  35.478  11.561   0.477
13863W        W86189  13.613  36.314   2.463
13864W        W86190  13.314  26.848   3.760
13865W        W86191  31.892  15.047   0.247
13866W        W86192  41.310  22.154  11.995
13867W        W86193  29.862   7.781   4.302
13868W        W86194  40.628   8.718   1.836
13869W        W86195  36.779  18.604   3.107
13870W        W86196   4.712   3.457  10.650
13871W        W86197   8.187  23.196  12.653
13872W        W86198  21.582  24.877  14.977
13873W        W86199  12.354   3.304   4.487
13874W        W86200  26.038   5.439   2.268
13875W        W86201   7.849  32.702  14.714
13876W        W86202  42.953  24.099  13.987
13877W        W86203  22.017  33.490   3.669
13878W        W86204  43.762  26.527   3.632
13879W        W86205  30.831  19.215   0.645
13880W        W86206   1.148  36.044   0.947
13881W        W86207  39.800  19.592  13.504
13882W        W86208   2.487  27.873  14.949
13883W        W86209  33.497  29.541  11.955
13884W        W86210  39.636   1.058  14.198
13885W        W86211  31.215  35.388  12.522
13886W        W86212  13.514  43.246   1.190
13887W        W86213  31.715   9.805  10.370
13888W        W86214  21.231   0.856   1.741
13889W        W86215  25.098  41.367   4.768
13890W        W86216   1.971  30.690   0.759
13891W        W86217   4.898  17.792  11.530
13892W        W86218  32.785  32.406   3.184
13893W        W86219  28.390  14.847  10.895
13894W        W86220  11.872   2.849  10.262
13895W        W86221   4.108  30.309   4.730
13896W        W86222  17.139  23.592   0.568
13897W        W86223  12.599  38.930  12.605
13898W        W86224   1.817  24.996  12.406
13899W        W86225  44.845  40.618   3.180
13900W        W86226  35.254  23.534   0.333
13901W        W86227  34.610  35.337   2.806
13902W        W86228  24.687  28.444  12.965
13903W        W86229  22.549  17.474   1.486
13904W        W86230  37.005  31.866  10.295
13905W        W86231  23.712  36.373   4.481
13906W        W86232   6.196  36.346  12.972
13907W        W86233  35.469  26.184   3.192
13908W        W86234   2.962  43.816   0.864
13909W        W86235  36.252  24.980   2.294
13910W        W86236  12.844   7.318   1.940
13911W        W86237  23.375   8.987   0.570
13912W        W86238   0.419  38.566  14.753
13913W        W86239  42.640   6.510   4.401
13914W        W86240  27.947   6.136  11.448
13915W        W86241  12.645   9.788   0.909
13916W        W86242  15.134  35.870  14.493
13917W        W86243  42.189  19.392   0.341
13918W        W86244  12.653  14.565  14.307
13919W        W86245  26.182  39.859   1.317
13920W        W86246   9.715  31.224  14.378
13921W        W86247   6.981  43.352   2.265
13922W        W86248  14.220   4.298   1.736
13923W        W86249  11.714  35.776  11.577
13924W        W86250  20.676  27.122   2.744
13925W        W86251  19.159  20.732   0.516
13926W        W86252  35.056   4.929   4.120
13927W        W86253  21.917  12.631   1.825
13928W        W86254   6.749  12.775  12.835
13929W        W86255  41.961  42.018  14.950
13930W        W86256  31.234  29.496  10.779
13931W        W86257   3.418  13.736   2.855
13932W        W86258  31.098   7.272  13.279
13933W        W86259  24.895  17.208   4.015
13934W        W86260  25.854  27.622  10.118
13935W        W86261  15.291  41.157   1.373
13936W        W86262  41.938  30.086  13.125
13937W        W86263   0.148  40.924   1.774
13938W        W86264  40.912  30.535   2.273
13939W        W86265  11.618  31.276  14.309
13940W        W86266  28.718  35.372   0.762
13941W        W86267  28.683  35.497  14.453
13942W        W86268  25.585  10.595   1.223
13943W        W86269   1.487  11.875  14.930
13944W        W86270  40.499  19.103  12.090
13945W        W86271  25.006  21.263   4.107
13946W        W86272  43.499  18.058   2.684
13947W        W86273  31.620  18.565   3.275
13948W        W86274  40.327  40.324   0.976
13949W        W86275  42.787   1.551   4.643
13950W        W86276   7.910   4.875   4.723
13951W        W86277   7.822  39.398  11.150
13952W        W86278  34.112  35.917   2.054
13953W        W86279  13.317   6.156  11.591
13954W        W86280   1.479  14.772  11.500
13955W        W86281   7.913   9.311   2.881
13956W        W86282   7.073  31.198  14.359
13957W        W86283  12.916  29.525  12.536
13958W        W86284  22.678  25.731  10.042
13959W        W86285  21.952  35.377  11.959
13960W        W86286   3.878  20.011  12.989
13961W        W86287   5.749  28.205  13.536
13962W        W86288  44.440   8.201  11.063
13963W        W86289   0.221  10.099  12.487
13964W        W86290  13.099  23.709   0.045
13965W        W86291  38.446   3.245   0.391
13966W        W86292  43.111   4.138  11.128
13967W        W86293  24.269  37.130  10.228
13968W        W86294  16.341  18.934   1.420
13969W        W86295  11.147  31.506  12.045
13970W        W86296  14.992  17.176   3.113
13971W        W86297  23.130  21.566  11.171
13972W        W86298  12.126   2.868  11.570
13973W        W86299  39.077   2.428   4.495
13974W        W86300  17.044  29.039  13.983
13975W        W86301  21.289  41.408   4.116
13976W        W86302  12.795  41.332  14.965
13977W        W86303  43.543  13.826   3.352
13978W        W86304  39.881   6.819  12.445
13979W        W86305   5.346  37.232  13.384
13980W        W86306  35.734  15.503   5.044
13981W        W86307  39.008  16.225  11.934
13982W        W86308   9.478  19.990  12.032
13983W        W86309  13.827  10.673  11.854
13984W        W86310  30.613  27.448  14.926
13985W        W86311  16.581  25.418  12.076
13986W        W86312   0.978   3.275  12.531
13987W        W86313  20.140  12.566  11.666
13988W        W86314  18.075   6.862  14.883
13989W        W86315  19.805   9.636  14.532
13990W        W86316   2.984  33.908   3.721
13991W        W86317  43.693  37.843  14.767
13992W        W86318   5.235  27.531  13.669
13993W        W86319  28.619  30.010   3.122
13994W        W86320  29.184  36.543  12.708
13995W        W86321   5.289  23.880  12.586
13996W        W86322  12.104  16.344   1.272
13997W        W86323   0.190  20.195  13.991
13998W        W86324  26.063  36.678   0.337
13999W        W86325   7.129  14.236  14.831
14000W        W86326   1.225  16.595  11.604
14001W        W86327   3.781  42.464  11.564
14002W        W86328  24.679  35.627   1.659
14003W        W86329  23.497  26.942   3.614
14004W        W86330  19.250  36.988   4.668
14005W        W86331  11.401  27.201   2.740
14006W        W86332   5.264  24.567  11.933
14007W        W86333   8.568  39.461   4.154
14008W        W86334   7.406  28.229   3.810
14009W        W86335   9.559   4.441  11.248
14010W        W86336  36.623  18.651  11.187
14011W        W86337  10.191  19.014   1.410
14012W        W86338  40.923  33.077  14.551
14013W        W86339  23.079   2.365   3.277
14014W        W86340  28.106  38.026  10.955
14015W        W86341  39.557  10.164   4.368
14016W        W86342  41.105  16.749   4.713
14017W        W86343   9.647  19.086  11.240
14018W        W86344  15.844  30.051  11.208
14019W        W86345  40.400  24.592   3.905
14020W        W86346  42.813  41.501   4.162
14021W        W86347  28.178  25.481   4.966
14022W        W86348  15.632  34.673   0.892
14023W        W86349   7.270  33.625  12.684
14024W        W86350  34.404  30.881   4.464
14025W        W86351  30.759  41.209   4.519
14026W        W86352  41.793  18.218   3.538
14027W        W86353   0.245  29.059   2.633
14028W        W86354   7.249  22.434  11.257
14029W        W86355  12.587  32.063   3.178
14030W        W86356  27.729  18.818   4.317
14031W        W86357  38.592  36.610   1.700
14032W        W86358   1.366   7.268  10.806
14033W        W86359  17.030  31.219   4.186
14034W        W86360  34.638  40.284   2.736
14035W        W86361  20.473  22.161   0.512
14036W        W86362  22.006  22.728   2.675
14037W        W86363   0.712  34.806   4.903
14038W        W86364  15.120  19.681   2.897
14039W        W86365   3.261  34.830   3.648
14040W        W86366  14.243  44.293   2.383
14041W        W86367  39.787  10.337  11.167
14042W        W86368   6.609  23.191  14.276
14043W        W86369  40.014  11.631   2.261
14044W        W86370   2.426  12.017   1.514
14045W        W86371  15.801  10.290  12.291
14046W        W86372   2.016  13.621   4.497
14047W        W86373   7.298  16.626   0.025
14048W        W86374  41.250  37.048  11.190
14049W        W86375   2.195  13.221   3.186
14050W        W86376  21.945  12.640  13.017
14051W        W86377   9.073  42.875   9.885
14052W        W86378  34.111  12.236  11.112
14053W        W86379  38.907  42.375   2.526
14054W        W86380  19.429   8.356   1.189
14055W        W86381  20.683   4.743   3.238
14056W        W86382  20.141  16.184   4.138
14057W        W86383  42.284  12.860  14.879
14058W        W86384  38.743   9.759  10.294
14059W        W86385  30.613  21.998   1.817
14060W        W86386  44.815  13.408  14.884
14061W        W86387  14.748  34.717  10.321
14062W        W86388  27.252  44.814  12.056
14063W        W86389  38.828  21.837  10.237
14064W        W86390   0.713   0.185  13.907
14065W        W86391   9.349  17.142   3.754
14066W        W86392  36.402  11.641   0.479
14067W        W86393   6.469  34.449  11.086
14068W        W86394   9.124  39.424  12.500
14069W        W86395  23.180  26.622  14.022
14070W        W86396  40.744   8.925   2.710
14071W        W86397  12.206  40.747   4.626
14072W        W86398  23.675  39.278   3.557
14073W        W86399   4.680  18.851  13.825
14074W        W86400  34.007  38.754  11.502
14075W        W86401  31.942  31.111   0.372
14076W        W86402  40.025  21.289  11.882
14077W        W86403  15.217  17.551   2.249
14078W        W86404  36.270  18.626   3.199
14079W        W86405  21.952  42.050   1.821
14080W        W86406  43.102  16.237  11.388
14081W        W86407  44.337   6.117   2.638
14082W        W86408  42.791  35.803   2.373
14083W        W86409  10.799  35.812   5.016
14084W        W86410   8.422  26.081  13.118
14085W        W86411  41.753  43.295   2.808
14086W        W86412  35.974   5.372   3.184
14087W        W86413  29.966   9.381  14.887
14088W        W86414  40.068  29.800   5.065
14089W        W86415  10.563  44.438  10.733
14090W        W86416  21.273  13.700   3.148
14091W        W86417  14.450  24.256  11.522
14092W        W86418  40.610  39.315  11.687
14093W        W86419  28.535  18.133  14.339
14094W        W86420  20.361  13.818   1.938
14095W        W86421  27.437  30.975  11.676
14096W        W86422  33.954  37.477   3.719
14097W        W86423  32.370  34.182  12.675
14098W        W86424  40.881  15.614   3.122
14099W        W86425   4.368  16.525  14.337
14100W        W86426  10.835   3.183  14.901
14101W        W86427  28.478  41.494  12.152
14102W        W86428  11.777  42.824   0.981
14103W        W86429  27.110  35.333  13.133
14104W        W86430  28.733  25.916   5.198
14105W        W86431  18.075  28.209   1.748
14106W        W86432  24.642  37.835  12.604
14107W        W86433  36.491  12.359   3.720
14108W        W86434  35.514   2.451  13.818
14109W        W86435   2.906  19.076   2.484
14110W        W86436  12.259  22.650  10.994
14111W        W86437  24.414   3.584  12.621
14112W        W86438  14.340   2.896  11.575
14113W        W86439  35.128  39.553   0.562
14114W        W86440  22.718  15.022   0.102
14115W        W86441   3.640  36.768   0.579
14116W        W86442   3.698  15.326  12.464
14117W        W86443   5.420  11.898  12.479
14118W        W86444  32.442  22.066   1.205
14119W        W86445  37.910  12.892  11.610
14120W        W86446  17.195   9.864  10.440
14121W        W86447  21.194  40.940   2.837
14122W        W86448   1.438  21.142   4.026
14123W        W86449   1.784  30.975   0.234
14124W        W86450  31.816  25.522   3.451
14125W        W86451  18.990  33.005  11.283
14126W        W86452   1.709  44.218   0.581
14127W        W86453  42.042   1.910   1.830
14128W        W86454   5.678  14.345   5.150
14129W        W86455  33.853   3.703   4.406
14130W        W86456  13.353  36.415  14.654
14131W        W86457  11.833  34.371   0.779
14132W        W86458   4.442  36.824   2.378
14133W        W86459   5.044   9.353   0.412
14134W        W86460  19.119   8.434   2.380
14135W        W86461  21.620  33.169  14.008
14136W        W86462  22.818  16.953  13.194
14137W        W86463  25.622   8.084   1.905
14138W        W86464  20.832  13.141  11.515
14139W        W86465   6.901   5.783   2.608
14140W        W86466   0.586  15.146   0.674
14141W        W86467  27.136  37.403   3.337
14142W        W86468   8.959  44.561  11.020
14143W        W86469  22.742  29.086  10.640
14144W        W86470  42.964  17.351   2.839
14145W        W86471  11.098   5.736   2.819
14146W        W86472  29.530  19.726  11.252
14147W        W86473  19.036  38.941  11.574
14148W        W86474  37.960  26.497   2.569
14149W        W86475  20.526  21.701   0.748
14150W        W86476  15.175  15.380  11.527
14151W        W86477  19.285  16.170   0.347
14152W        W86478  21.707   1.135  12.334
14153W        W86479  15.023  22.521  11.700
14154W        W86480  27.142  31.421  12.168
14155W        W86481  41.890   6.602  11.077
14156W        W86482  41.814   8.449  13.440
14157W        W86483  15.701  40.271   2.665
14158W        W86484  38.780   9.663   3.240
14159W        W86485  43.957  22.289  10.553
14160W        W86486  18.395   7.353   4.708
14161W        W86487  17.780   8.548   1.597
14162W        W86488  27.566  43.247  14.998
14163W        W86489  15.283  44.753   2.863
14164W        W86490  29.539  10.283  12.207
14165W        W86491  36.048   4.457  14.881
14166W        W86492   5.389   1.658   0.953
14167W        W86493  14.064  25.765  13.863
14168W        W86494  44.898  23.736   2.245
14169W        W86495  22.581  10.225  14.393
14170W        W86496  14.004   1.741   2.052
14171W        W86497   2.949   3.152   0.102
14172W        W86498  30.394  39.131  13.378
14173W        W86499  19.229  10.883   1.238
14174W        W86500  43.790  42.063  11.437
14175W        W86501   3.409  31.040   1.430
14176W        W86502  10.803  42.019   4.679
14177W        W86503  31.410  24.534  10.454
14178W        W86504  10.439   4.371  13.440
14179W        W86505  43.777   7.832   1.214
14180W        W86506  36.081  36.821   2.369
14181W        W86507  33.197  11.598  14.397
14182W        W86508   5.696  34.990  10.940
14183W        W86509  26.133  41.100   1.856
14184W        W86510  14.311  19.102   4.604
14185W        W86511   2.988  15.166   4.749
14186W        W86512   1.339  27.668   1.809
14187W        W86513   8.203  15.139   1.255
14188W        W86514  28.043  12.869   2.479
14189W        W86515  20.281   9.880   2.675
14190W        W86516  38.883  26.871  11.430
14191W        W86517  38.280  35.775  11.242
14192W        W86518   8.585  42.393   2.358
14193W        W86519  28.397   7.940  12.891
14194W        W86520  30.586   4.218  14.861
14195W        W86521   0.665   6.685  12.032
14196W        W86522  13.273   6.861  11.197
14197W        W86523  16.200   8.283   0.910
14198W        W86524  26.664  31.919  12.663
14199W        W86525  32.080   3.445   1.889
14200W        W86526  38.227  40.272  12.978
14201W        W86527  17.407   4.829   3.621
14202W        W86528  30.577  27.627   3.686
14203W        W86529   5.308  24.001   1.651
14204W        W86530  27.543  38.317   2.841
14205W        W86531  20.007  35.751   4.210
14206W        W86532   5.878  21.541  12.027
14207W        W86533  39.296  40.469   1.715
14208W        W86534  34.151  39.352  10.469
14209W        W86535   1.508   3.907  14.017
14210W        W86536   6.701  20.253   4.842
14211W        W86537  18.296  10.233  10.406
14212W        W86538  13.121   6.639   4.139
14213W        W86539   5.934  31.880  11.865
14214W        W86540  38.417  44.489  10.918
14215W        W86541  11.405  32.688  13.375
14216W        W86542  15.617  27.517   1.220
14217W        W86543  38.008  36.887  10.555
14218W        W86544  15.381  38.963   1.782
14219W        W86545  26.215   0.292   2.312
14220W        W86546  24.299  34.529  10.715
14221W        W86547  40.904  39.198   3.719
14222W        W86548  19.719  31.493   1.387
14223W        W86549  35.480  38.873   2.272
14224W        W86550  42.831   6.486   1.873
14225W        W86551   2.253  28.595  12.844
14226W        W86552  39.461  15.695   4.267
14227W        W86553  25.388  11.724  10.674
14228W        W86554  19.443  17.153   5.414
14229W        W86555  27.577   0.515  12.441
14230W        W86556  22.728  20.279   3.568
14231W        W86557  29.107  26.877  14.297
14232W        W86558  36.935   0.437   3.567
14233W        W86559  38.362  11.352  13.048
14234W        W86560   0.253  22.106  14.269
14235W        W86561  32.068  25.580  10.740
14236W        W86562  27.605  16.696   0.285
14237W        W86563  43.218  11.774  13.362
14238W        W86564  23.023   3.016  11.998
14239W        W86565   4.262  34.589   4.166
14240W        W86566  12.700  12.452   3.777
14241W        W86567  37.397  38.510  14.596
14242W        W86568   2.834  13.353   3.177
14243W        W86569  31.956  41.336  12.922
14244W        W86570  22.269  42.414   3.914
14245W        W86571  11.815  22.093   0.502
14246W        W86572  10.306   0.454   1.217
14247W        W86573   1.301   0.329   0.394
14248W        W86574  10.287  31.849  11.219
14249W        W86575  38.315  15.558   0.032
14250W        W86576  26.147   0.694   2.641
14251W        W86577   6.188  40.034   3.647
14252W        W86578  32.291  42.964  12.124
14253W        W86579  13.619  25.607  14.748
14254W        W86580  37.000   6.069  11.167
14255W        W86581   3.530  12.620  10.134
14256W        W86582  41.346  13.828   0.761
14257W        W86583  30.209  29.498  10.601
14258W        W86584  16.094  39.491  12.045
14259W        W86585  11.196  23.116   1.411
14260W        W86586  13.738  28.619   4.548
14261W        W86587  29.519  25.269  13.029
14262W        W86588  34.398   3.924  12.534
14263W        W86589  44.522  22.992  11.054
14264W        W86590   9.880   2.844   3.561
14265W        W86591  29.318  11.356   0.389
14266W        W86592  28.143  30.139   0.241
14267W        W86593  10.307  34.598  11.032
14268W        W86594  14.139  13.282  11.148
14269W        W86595  10.808  16.097   2.717
14270W        W86596   3.285  29.901  12.968
14271W        W86597  33.922  26.967  13.070
14272W        W86598   7.746  35.900   1.884
14273W        W86599  26.976  25.552   3.086
14274W        W86600  41.755  42.958   3.346
14275W        W86601   0.030  33.191   0.317
14276W        W86602  43.351  31.005   0.697
14277W        W86603  13.944  41.490   1.763
14278W        W86604  37.790   6.865   2.789
14279W        W86605  21.437  14.860   4.687
14280W        W86606  18.732  33.935  11.418
14281W        W86607  22.735  20.201  12.963
14282W        W86608  28.989   6.329  12.353
14283W        W86609   3.784  29.874  11.596
14284W        W86610  14.487   6.896   4.259
14285W        W86611   7.788   1.192   0.669
14286W        W86612   8.998   1.591   3.181
14287W        W86613  41.911   6.887  11.491
14288W        W86614  32.695  22.138   1.688
14289W        W86615   5.965   6.735  10.630
14290W        W86616  30.551  35.967   3.158
14291W        W86617   5.747  38.486   1.157
14292W        W86618  23.108  18.204   2.679
14293W        W86619  43.074   6.355  14.445
14294W        W86620   6.880  35.623  12.862
14295W        W86621  17.759  15.560   0.926
14296W        W86622  35.375  43.995   2.323
14297W        W86623  39.055  24.065   1.287
14298W        W86624  35.338   3.323   0.465
14299W        W86625  12.696   6.347  13.775
14300W        W86626  33.041  32.447  13.339
14301W        W86627  21.558  38.561  11.583
14302W        W86628  40.424  33.654   2.110
14303W        W86629  13.111  25.955   1.315
14304W        W86630  44.735  13.112   0.488
14305W        W86631  43.967  28.778   0.575
14306W        W86632  25.568   5.154  13.821
14307W        W86633  43.866   6.954  13.430
14308W        W86634  20.970  29.397   3.793
14309W        W86635  29.506  15.410  12.548
14310W        W86636  21.057  15.414  13.770
14311W        W86637  41.974  31.646  10.093
14312W        W86638  19.629  21.465   3.422
14313W        W86639  29.652  14.079   0.909
14314W        W86640   3.262  25.001  13.791
14315W        W86641   9.666  43.014   4.079
14316W        W86642  10.172   5.685  13.361
14317W        W86643   8.361  22.604   1.904
14318W        W86644  44.120   2.475  11.936
14319W        W86645  16.341  14.078  11.936
14320W        W86646   2.949  31.094   4.598
14321W        W86647   7.094   8.305  12.884
14322W        W86648  25.479  11.330  12.100
14323W        W86649   1.334  33.566  14.441
14324W        W86650  13.622  17.708  13.806
14325W        W86651  27.885  40.243   1.772
14326W        W86652   8.813  43.711   0.813
14327W        W86653  38.534  39.304   4.478
14328W        W86654  17.800  29.222  10.382
14329W        W86655   5.644  17.125  14.772
14330W        W86656  21.099  41.089  10.627
14331W        W86657  11.003  39.434  13.972
14332W        W86658  44.023  30.145   5.095
14333W        W86659   3.878   4.983  10.113
14334W        W86660  28.544  21.134  11.925
14335W        W86661  18.847   2.738  13.868
14336W        W86662  41.899  37.813   5.010
14337W        W86663  44.801   5.433  10.463
14338W        W86664  31.070  15.486   2.796
14339W        W86665  14.459  42.859  11.949
14340W        W86666  31.136  18.572   3.961
14341W        W86667   2.777   3.373   1.359
14342W        W86668   2.892  19.180  12.956
14343W        W86669  40.381   5.361   4.081
14344W        W86670  35.387  32.437   2.315
14345W        W86671   3.906  40.724   4.185
14346W        W86672  43.757   4.504   0.970
14347W        W86673   4.221  16.685   4.665
14348W        W86674   3.763   2.760  11.018
14349W        W86675  35.436  24.667  10.516
14350W        W86676   8.283  42.009  13.849
14351W        W86677   3.880  29.458  13.494
14352W        W86678  43.893  40.996   2.277
14353W        W86679   2.184  29.747  14.346
14354W        W86680  23.761  41.991  14.470
14355W        W86681   1.477   2.857  12.103
14356W        W86682  23.878  34.715   1.378
14357W        W86683  11.063   3.213  12.968
14358W        W86684  31.285  38.317   4.235
14359W        W86685   0.286  26.706   2.951
14360W        W86686   9.354  14.596  14.382
14361W        W86687  11.287  13.346  14.838
14362W        W86688   2.840  38.444  12.951
14363W        W86689  21.151   6.459  14.371
14364W        W86690  10.740   8.940   1.845
14365W        W86691  10.724  24.474  13.022
14366W        W86692  33.910  22.550  14.975
14367W        W86693  31.679  33.596  13.320
14368W        W86694  25.465  44.534   2.194
14369W        W86695  28.063  18.789  13.664
14370W        W86696  42.256  33.611  11.918
14371W        W86697  32.852  38.335  11.185
14372W        W86698   5.778  31.937   1.245
14373W        W86699   7.798  13.778  11.968
14374W        W86700  23.468   6.141  10.726
14375W        W86701  15.683  41.422   1.151
14376W        W86702   6.993  21.545  11.000
14377W        W86703  24.267   5.861  14.278
14378W        W86704  10.822  13.405  14.014
14379W        W86705  26.135   5.930  11.602
14380W        W86706  35.881  33.079  12.819
14381W        W86707  13.877  35.854  12.971
14382W        W86708   8.408  24.714  11.045
14383W        W86709  19.389  28.123   3.313
14384W        W86710   6.325  43.277   4.096
14385W        W86711   2.232  41.513  10.281
14386W        W86712  39.649  40.898  11.929
14387W        W86713  33.188  42.971  10.504
14388W        W86714  39.823   6.633   0.839
14389W        W86715   7.287  32.647   0.430
14390W        W86716  30.397   1.304  11.579
14391W        W86717  13.675  14.334  11.787
14392W        W86718  32.101  30.550  10.451
14393W        W86719  18.591  21.078   4.505
14394W        W86720   5.852  24.651  12.571
14395W        W86721  40.339  27.613   4.314
14396W        W86722  36.983  17.200   1.813
14397W        W86723  22.148  41.144   3.025
14398W        W86724   4.139   5.902   2.136
14399W        W86725  43.267  22.070  13.591
14400W        W86726  10.797  38.255  14.586
14401W        W86727  42.907  32.122  11.981
14402W        W86728   9.361  43.188  11.164
14403W        W86729   1.309   1.534   2.343
14404W        W86730   7.733  43.632   2.634
14405W        W86731  29.504  34.884   0.446
14406W        W86732  25.223  29.577   2.702
14407W        W86733  13.631  36.855  12.899
14408W        W86734   8.688  14.077   0.424
14409W        W86735  28.171  37.005   2.207
14410W        W86736  14.730  33.887   9.776
14411W        W86737  36.591  34.510  10.671
14412W        W86738  26.530   4.629   2.455
14413W        W86739  30.934  42.597  14.946
14414W        W86740  23.525  15.558  10.692
14415W        W86741   7.374  43.758   0.717
14416W        W86742  41.739  31.493  12.092
14417W        W86743  23.746  21.084  10.852
14418W        W86744  31.388  39.253  14.207
14419W        W86745  41.405  31.661   2.183
14420W        W86746  13.589  30.935  13.228
14421W        W86747  11.743  17.746  14.683
14422W        W86748  13.258  20.280   1.719
14423W        W86749   9.032  17.464   4.211
14424W        W86750   7.117  25.033   2.271
14425W        W86751  41.814  37.753  12.414
14426W        W86752  28.469  34.061   1.315
14427W        W86753  16.640   6.263  14.043
14428W        W86754  13.222  39.253  13.036
14429W        W86755   6.876  43.436  10.796
14430W        W86756   5.782  41.759   4.489
14431W        W86757  32.410  12.093  12.130
14432W        W86758  10.694  44.869   0.540
14433W        W86759  20.558   3.378  11.646
14434W        W86760   9.419   6.928  12.480
14435W        W86761   4.367  39.774   0.809
14436W        W86762  42.009  39.755   0.828
14437W        W86763  18.715  10.950   0.014
14438W        W86764  19.412  12.960   4.508
14439W        W86765  24.059  11.908   3.148
14440W        W86766   7.410  11.095   3.340
14441W        W86767  11.275  19.659  10.522
14442W        W86768  38.939  19.574  10.175
14443W        W86769  33.407  26.231   4.327
14444W        W86770  29.551  16.864   0.244
14445W        W86771  18.568  28.183   1.877
14446W        W86772   1.183  25.506   0.259
14447W        W86773  34.244  24.698  11.933
14448W        W86774  25.519  11.547  13.033
14449W        W86775  17.233  39.020   1.720
14450W        W86776  31.644  41.438  14.996
14451W        W86777  38.345   0.192  13.375
14452W        W86778  18.212  17.088   0.104
14453W        W86779  33.052   0.678   3.401
14454W        W86780  24.485  41.115  14.675
14455W        W86781   7.702  32.972   0.714
14456W        W86782  31.177  27.669  12.897
14457W        W86783   5.971  39.430   2.863
14458W        W86784  22.603  26.633  13.982
14459W        W86785  37.475  31.999  10.534
14460W        W86786   3.560  41.303   1.751
14461W        W86787  21.252  26.864  10.202
14462W        W86788  30.810   4.694   2.889
14463W        W86789  15.536  12.267   1.005
14464W        W86790  43.940   1.340   3.580
14465W        W86791   9.623  29.118  10.709
14466W        W86792  40.025  30.903   2.089
14467W        W86793  16.694  42.328  12.243
14468W        W86794  44.041  27.971  12.981
14469W        W86795  21.417  16.653   0.794
14470W        W86796  31.832   7.745   4.522
14471W        W86797  18.711  34.961   4.333
14472W        W86798   9.155  27.637  10.522
14473W        W86799  27.550  43.330   3.206
14474W        W86800  26.409  25.862   0.214
14475W        W86801  18.642  24.303  11.508
14476W        W86802  16.650  41.311  11.128
14477W        W86803   1.946  37.961   4.233
14478W        W86804  34.443  38.454  11.946
14479W        W86805  27.150  41.494  12.154
14480W        W86806   1.298  11.182   2.336
14481W        W86807   5.481  36.625   1.653
14482W        W86808  40.331  19.643   0.734
14483W        W86809  43.338  17.328  10.693
14484W        W86810  14.609  24.178   0.855
14485W        W86811  26.555  39.986   4.364
14486W        W86812  11.830  40.433  14.939
14487W        W86813  39.169   2.308  10.654
14488W        W86814  24.574  10.667   2.385
14489W        W86815   8.753  27.117   0.157
14490W        W86816   7.248  31.117   3.287
14491W        W86817   8.166  44.757  11.335
14492W        W86818  13.516  26.532   0.551
14493W        W86819  20.641  18.131   0.448
14494W        W86820  15.197   9.118   1.396
14495W        W86821  22.149  11.280   3.399
14496W        W86822  17.565  42.026  10.610
14497W        W86823  23.233   3.889   0.147
14498W        W86824  29.676  10.001   0.574
14499W        W86825  38.390  22.260  14.814
14500W        W86826  22.690  28.234   4.593
14501W        W86827   9.777  36.379  13.307
14502W        W86828  16.866   1.481  13.491
14503W        W86829  31.424  14.673   2.625
14504W        W86830  36.439  35.946   5.529
14505W        W86831   0.539  13.258  11.033
14506W        W86832  11.300  16.538   1.379
14507W        W86833  36.935  22.529  11.515
14508W        W86834  15.142  43.352  10.894
14509W        W86835   4.248   7.725   2.939
14510W        W86836  23.745  37.852  10.300
14511W        W86837   1.415  33.912   4.153
14512W        W86838  10.507  36.878  11.185
14513W        W86839  29.833  18.178  13.915
14514W        W86840  18.224  44.908  12.801
14515W        W86841   1.951  36.078   1.944
14516W        W86842   2.390  29.997   3.888
14517W        W86843  29.969   1.025  11.406
14518W        W86844  10.456  13.747   3.394
14519W        W86845  33.378  13.544   3.068
14520W        W86846  11.804  24.711  11.192
14521W        W86847  28.436  16.158  12.861
14522W        W86848  19.339  34.048   2.696
14523W        W86849   9.063  31.588  14.535
14524W        W86850  21.682  33.443   2.238
14525W        W86851   6.613  22.161   4.716
14526W        W86852  11.742  11.821  10.197
14527W        W86853   0.251  14.440  11.091
14528W        W86854  43.005   4.612   1.381
14529W        W86855  10.355   0.824   2.859
14530W        W86856   4.705   0.045  14.347
14531W        W86857  28.482  23.976  13.013
14532W        W86858   1.958   6.227   4.561
14533W        W86859  11.811  17.524  11.043
14534W        W86860   2.607  41.109  13.970
14535W        W86861   8.274  35.623  11.628
14536W        W86862  17.650  11.580  13.332
14537W        W86863  24.925  23.131   0.439
14538W        W86864  21.029   5.380  14.068
14539W        W86865  14.085  16.867  12.583
14540W        W86866  12.327  18.328  14.453
14541W        W86867  13.779  34.473  14.487
14542W        W86868   9.339  40.480  14.444
14543W        W86869   5.148  38.113   3.118
14544W        W86870   7.901  17.222   2.765
14545W        W86871  25.000   4.494   3.789
14546W        W86872  13.629  44.701   1.871
14547W        W86873  43.490  42.258   0.776
14548W        W86874   0.523  13.603   1.907
14549W        W86875  42.223   0.487  13.919
14550W        W86876   7.329  38.024   3.641
14551W        W86877  10.759   9.599  11.211
14552W        W86878  33.892  42.147   2.778
14553W        W86879  21.261  21.010  11.819
14554W        W86880  28.627  17.574   3.325
14555W        W86881   1.978  20.006   3.120
14556W        W86882  31.164  23.233  11.515
14557W        W86883   4.524   4.401   1.692
14558W        W86884  44.389  37.512  11.689
14559W        W86885  10.139   4.987   4.196
14560W        W86886  25.450  40.906  13.294
14561W        W86887   4.606   0.892  13.076
14562W        W86888  20.749  43.048   2.146
14563W        W86889  39.274  10.518  13.338
14564W        W86890   6.246  35.004   4.862
14565W        W86891   5.093  27.092   0.380
14566W        W86892  27.999  36.408  13.039
14567W        W86893  25.617  38.235   1.620
14568W        W86894  37.885  18.267  11.986
14569W        W86895  27.669  13.348   1.275
14570W        W86896  38.577  34.006  10.715
14571W        W86897  43.825  40.365   3.886
14572W        W86898  24.562  13.996  13.807
14573W        W86899  26.967   3.779  14.533
14574W        W86900  29.951  28.595  10.171
14575W        W86901   3.151  41.619   3.202
14576W        W86902  19.020  35.917   2.789
14577W        W86903   4.094  41.792  11.168
14578W        W86904  20.165  10.806  12.963
14579W        W86905   2.415  27.634  11.574
14580W        W86906  41.152  25.459  13.735
14581W        W86907  39.842   4.501  12.094
14582W        W86908   4.435  35.796   1.299
14583W        W86909  39.485  12.443   0.810
14584W        W86910  39.010  27.517   0.039
14585W        W86911   0.808  40.296  14.006
14586W        W86912  42.842  33.089  10.704
14587W        W86913   3.878   9.482   1.469
14588W        W86914   2.742  44.808  12.876
14589W        W86915  29.199   6.300  11.892
14590W        W86916  29.959  30.426  14.733
14591W        W86917  36.201   2.583   3.403
14592W        W86918  20.842   6.207   2.266
14593W        W86919  28.360  27.598   4.592
14594W        W86920  30.605  21.176   4.635
14595W        W86921  22.345  33.456  14.332
14596W        W86922   1.880  27.604   0.877
14597W        W86923  10.139   5.756  14.220
14598W        W86924  39.195  37.826  12.588
14599W        W86925  41.458  31.563  13.477
14600W        W86926  43.920  11.316  12.950
14601W        W86927  14.197  15.632   1.024
14602W        W86928  29.576  25.673  11.948
14603W        W86929  18.193  24.674   1.653
14604W        W86930  13.867  11.815  11.999
14605W        W86931  40.431  27.200   4.577
14606W        W86932  44.792   9.705   4.749
14607W        W86933   9.671  16.873   2.553
14608W        W86934   8.172  24.072   0.993
14609W        W86935  35.647  10.866  13.984
14610W        W86936  35.756  17.002  11.563
14611W        W86937  18.147  18.455  13.854
14612W        W86938  28.858  34.985   2.310
14613W        W86939  19.600  16.105   2.630
14614W        W86940  17.544  30.562   4.188
14615W        W86941   5.332  40.344  11.117
14616W        W86942  43.734   4.658  10.643
14617W        W86943   4.655  25.692  13.567
14618W        W86944   6.372  24.523  13.749
14619W        W86945   8.465  38.821   3.860
14620W        W86946  22.986  44.116   3.664
14621W        W86947   4.395   7.841   2.448
14622W        W86948  29.501  44.487  12.091
14623W        W86949  11.407  25.124   3.404
14624W        W86950   7.222  41.294  13.615
14625W        W86951  25.639  12.195  10.562
14626W        W86952  22.638   7.107  10.298
14627W        W86953   9.356   9.875   2.877
14628W        W86954  15.644   9.741  11.131
14629W        W86955  22.361  38.059   2.961
14630W        W86956  10.955  43.500   2.921
14631W        W86957  18.330   6.866  12.558
14632W        W86958  35.871  35.792   5.401
14633W        W86959  18.619   8.871  12.147
14634W        W86960  19.515   1.904   0.300
14635W        W86961  30.108  19.164   0.037
14636W        W86962  30.163  14.153   0.937
14637W        W86963  23.103  30.541   3.882
14638W        W86964  33.336  34.723   0.825
14639W        W86965  24.989  42.932   0.116
14640W        W86966  25.907   6.092  11.174
14641W        W86967  31.120  19.786  13.323
14642W        W86968  28.070  15.238   2.691
14643W        W86969   2.789  38.265   0.355
14644W        W86970  44.204  17.103   0.062
14645W        W86971  13.553  21.342  12.986
14646W        W86972  30.008  22.589  11.481
14647W        W86973  36.385  37.251   5.134
14648W        W86974  15.241  34.371   1.226
14649W        W86975  32.534  18.484   3.290
14650W        W86976  34.880  36.850  13.481
14651W        W86977  21.712  25.540   2.433
14652W        W86978  44.478  23.241   3.221
14653W        W86979  34.043   4.737   2.353
14654W        W86980  24.189  11.612  14.591
14655W        W86981  42.361  20.731  13.821
14656W        W86982  17.000  23.828   1.074
14657W        W86983  41.208  13.878  14.045
14658W        W86984  43.329  39.935  13.705
14659W        W86985  34.865  40.923   0.343
14660W        W86986  27.933  32.494   4.035
14661W        W86987  20.193  19.237   3.278
14662W        W86988  22.247  28.125   1.305
14663W        W86989  36.392  20.186  14.450
14664W        W86990  34.926  37.437  10.058
14665W        W86991  43.775   8.378   0.005
14666W        W86992  41.926  42.510   4.198
14667W        W86993  28.684  17.746  12.573
14668W        W86994   7.905  15.091   3.028
14669W        W86995  15.828  31.072   0.342
14670W        W86996   7.729  37.471  10.685
14671W        W86997   8.799  42.059  12.026
14672W        W86998  14.632  19.074  11.104
14673W        W86999   3.851  28.457  10.491
14674W        W87000  40.989  11.662  13.812
14675W        W87001  32.568  44.342   1.902
14676W        W87002  21.056   5.748  13.409
14677W        W87003  25.453  38.518   1.223
14678W        W87004  43.895  36.360  11.303
14679W        W87005  20.834  18.256  10.382
14680W        W87006  12.544   3.194  11.692
14681W        W87007  37.312  40.390   3.879
14682W        W87008   1.299  33.286  10.872
14683W        W87009  27.664   4.511   1.204
14684W        W87010  33.903  13.359  13.985
14685W        W87011  22.520  23.760  13.709
14686W        W87012  39.045  15.227  12.152
14687W        W87013  43.256  32.637  12.692
14688W        W87014   8.976  22.742   3.177
14689W        W87015  36.429   8.002  11.074
14690W        W87016  35.512  43.703  13.084
14691W        W87017  36.336  27.501  12.883
14692W        W87018  18.148  33.371  14.826
14693W        W87019  27.535  32.515  14.804
14694W        W87020  34.642   4.387   1.896
14695W        W87021  25.632  12.012  14.092
14696W        W87022  12.872  39.687   2.909
14697W        W87023  10.418  36.420   1.916
14698W        W87024  26.841   6.254  14.384
14699W        W87025   5.009  41.584   1.686
14700W        W87026  13.553  23.960  14.276
14701W        W87027  35.035  25.559   4.558
14702W        W87028  40.015  11.119  12.994
14703W        W87029  43.301  18.424  11.554
14704W        W87030  41.279  15.317   0.863
14705W        W87031  16.630  39.925  12.708
14706W        W87032  30.387  22.112  10.586
14707W        W87033  17.886  20.388   3.727
14708W        W87034  35.482   3.769   2.083
14709W        W87035  19.640  18.277   0.480
14710W        W87036   6.744  24.302   4.486
14711W        W87037  25.581  32.642  14.026
14712W        W87038  28.931  39.934  13.442
14713W        W87039  40.248   1.658  13.937
14714W        W87040   5.629  33.991   3.916
14715W        W87041  40.357  31.900   0.308
14716W        W87042  26.455  14.645  14.798
14717W        W87043  17.103  21.949  14.061
14718W        W87044  13.801  34.570  11.192
14719W        W87045  23.495   9.830  14.438
14720W        W87046  44.825  35.877   1.614
14721W        W87047  35.367  20.083  14.602
14722W        W87048  30.077  12.911  14.221
14723W        W87049   3.126  40.834   2.764
14724W        W87050  27.771  18.613  14.443
14725W        W87051   0.130  26.448   3.398
14726W        W87052  26.586  11.065  12.054
14727W        W87053  31.956  25.689   4.210
14728W        W87054  10.332   8.043  13.872
14729W        W87055  26.198  36.020  11.342
14730W        W87056  12.767  25.174   3.607
14731W        W87057  27.205  18.074   4.294
14732W        W87058  27.252   9.882  10.587
14733W        W87059  35.996  44.918   1.113
14734W        W87060  33.522  34.133  11.903
14735W        W87061  40.455  15.283   3.184
14736W        W87062  13.582  30.665   1.307
14737W        W87063  22.134  27.104  13.323
14738W        W87064  24.687  13.242  11.589
14739W        W87065  11.905  44.975  11.427
14740W        W87066  10.860  41.821  11.347
14741W        W87067  44.547  35.597   0.041
14742W        W87068  11.733  40.527  13.436
14743W        W87069  21.680  15.580  12.677
14744W        W87070  37.488  44.073  13.155
14745W        W87071  19.726   8.274   4.142
14746W        W87072  23.282  40.846   9.918
14747W        W87073  26.229  30.595   3.227
14748W        W87074  38.256  34.499  13.434
14749W        W87075  13.648   0.062  12.043
14750W        W87076  25.110   4.691   1.064
14751W        W87077  21.659  39.222   0.050
14752W        W87078  16.631   8.897  13.509
14753W        W87079  13.744  26.434   1.008
14754W        W87080  27.929  39.855  11.107
14755W        W87081  11.208  10.408  12.047
14756W        W87082  43.390   5.077  10.749
14757W        W87083  31.656   3.282   1.327
14758W        W87084  34.703  15.334   1.330
14759W        W87085  13.136  11.876   1.387
14760W        W87086  38.380  18.496  12.467
14761W        W87087  28.428   9.403   4.073
14762W        W87088   3.365   4.924  12.821
14763W        W87089   7.813  21.295  14.817
14764W        W87090   3.277  21.956   2.366
14765W        W87091  43.508   8.307  13.077
14766W        W87092  44.076   9.826   1.294
14767W        W87093  23.661  41.254   3.977
14768W        W87094  28.163  42.815  14.157
14769W        W87095  10.620  25.219   4.271
14770W        W87096  13.322   6.431   0.981
14771W        W87097  32.558   5.328   1.833
14772W        W87098  28.481   2.696  11.208
14773W        W87099  38.332  11.086  12.612
14774W        W87100  23.065   5.190   1.881
14775W        W87101  17.674   5.714   1.781
14776W        W87102  38.055   4.416  12.117
14777W        W87103  30.109  43.493   4.763
14778W        W87104   8.670  32.965   0.825
14779W        W87105  13.724  40.314  14.512
14780W        W87106   7.792  16.237   0.524
14781W        W87107  25.247  38.789   4.202
14782W        W87108  28.250   9.734  12.434
14783W        W87109  10.644  22.156  11.078
14784W        W87110  26.545  32.954  11.163
14785W        W87111  28.685   3.015  11.556
14786W        W87112  41.829   7.291  12.009
14787W        W87113  23.444  37.392   1.066
14788W        W87114  42.187  35.938   1.207
14789W        W87115  28.813  37.898  13.796
14790W        W87116  25.494  14.100  14.270
14791W        W87117  16.405   0.432   0.343
14792W        W87118  36.365  43.016   0.413
14793W        W87119  20.593  27.659   2.776
14794W        W87120  41.296  39.851  10.669
14795W        W87121  32.470  13.774   4.654
14796W        W87122   7.899  16.071  10.515
14797W        W87123   0.401  11.572  11.431
14798W        W87124  29.525  21.024   4.547
14799W        W87125  34.539  18.979  13.106
14800W        W87126  36.116  42.062   0.385
14801W        W87127  37.146   2.720   0.355
14802W        W87128  13.412  12.769   2.345
14803W        W87129  43.528  29.119   0.502
14804W        W87130  37.926  38.636   1.726
14805W        W87131  18.975   2.768   2.000
14806W        W87132  13.996  44.787   3.255
14807W        W87133  32.232  16.778  11.147
14808W        W87134  34.785  34.039   3.739
14809W        W87135   6.808  39.606   0.966
14810W        W87136  15.082  24.225   2.684
14811W        W87137  11.116  31.394   1.394
14812W        W87138   4.231  42.891   3.371
14813W        W87139  37.620   4.271  11.866
14814W        W87140  33.932   2.932   2.399
14815W        W87141  38.244  21.614   3.181
14816W        W87142  29.910  14.484   2.776
14817W        W87143  19.603  36.123   4.789
14818W        W87144  34.157   2.177   1.903
14819W        W87145  25.103  29.637  14.288
14820W        W87146  26.268   2.980  13.422
14821W        W87147  44.926  37.182  13.692
14822W        W87148  18.086  16.773   2.746
14823W        W87149  20.239  37.382   2.988
14824W        W87150  28.701  32.868   1.485
14825W        W87151   2.888  41.788   4.823
14826W        W87152  14.829  12.616  14.764
14827W        W87153  37.374  16.113  11.084
14828W        W87154   2.401  44.603   3.352
14829W        W87155  33.006  42.845  10.979
14830W        W87156  40.485  41.211  10.380
14831W        W87157  10.361   9.840   0.444
14832W        W87158   9.405  10.092  14.842
14833W        W87159  11.316  11.159   2.766
14834W        W87160  10.262   0.565   0.330
14835W        W87161  11.393  43.799  10.989
14836W        W87162  22.505   3.776  12.615
14837W        W87163   6.321  36.569   4.650
14838W        W87164  27.684  34.865  11.053
14839W        W87165  16.579  30.383  11.406
14840W        W87166  33.116  39.539  10.687
14841W        W87167  33.684   3.873   2.910
14842W        W87168   4.883   4.216   1.329
14843W        W87169  23.546  30.089   1.607
14844W        W87170  19.213  35.164   0.837
14845W        W87171  12.186  26.499  14.202
14846W        W87172  16.263  18.941  10.640
14847W        W87173  38.333  21.593  12.017
14848W        W87174  25.988   2.141   2.931
14849W        W87175  27.458   5.703   4.282
14850W        W87176  17.289  42.565   4.668
14851W        W87177  23.775  42.927  10.615
14852W        W87178  31.126  39.551   4.937
14853W        W87179  30.943  20.471  14.871
14854W        W87180   1.341  25.774  14.783
14855W        W87181  17.227  17.345   4.535
14856W        W87182  21.131  27.694   2.219
14857W        W87183   1.851   0.233   0.968
14858W        W87184   4.424   2.755  10.270
14859W        W87185   1.296   7.175  13.868
14860W        W87186  23.093  42.237   3.329
14861W        W87187   2.055   7.212   4.405
14862W        W87188  16.048  13.113   3.362
14863W        W87189  16.630  33.655  12.822
14864W        W87190  10.984  18.699   4.206
14865W        W87191  33.087   4.673   0.340
14866W        W87192  16.794  13.258  13.840
14867W        W87193  39.256  36.639  11.429
14868W        W87194  12.562  33.708   1.871
14869W        W87195  31.574  20.783   2.200
14870W        W87196  39.311   9.610  12.638
14871W        W87197   6.554  16.727  10.530
14872W        W87198   9.334  27.175   1.769
14873W        W87199   6.872  33.526   0.483
14874W        W87200  19.716  16.162   3.840
14875W        W87201  13.291  33.839   5.763
14876W        W87202  21.430  12.647  12.943
14877W        W87203  33.722  30.666   0.976
14878W        W87204  41.982  30.640  14.833
14879W        W87205  20.867  30.676  11.566
14880W        W87206  36.079  12.618  11.641
14881W        W87207  28.813   0.825  12.244
14882W        W87208  31.339   4.461   0.544
14883W        W87209   6.598   8.171  12.951
14884W        W87210  10.815  29.377  11.632
14885W        W87211  30.288  43.854  13.013
14886W        W87212  11.152  24.996   0.149
14887W        W87213  28.156   8.844  14.104
14888W        W87214  40.829  37.524   3.747
14889W        W87215  23.486  24.982  14.943
14890W        W87216  43.515  36.367  12.565
14891W        W87217  34.326  22.071   3.320
14892W        W87218  12.354  23.408  13.837
14893W        W87219   3.421  38.945  13.509
14894W        W87220  35.049  20.965  13.853
14895W        W87221  32.522  22.260  12.695
14896W        W87222  29.221  32.203   0.365
14897W        W87223   0.341  17.022  10.737
14898W        W87224  23.996  18.997  13.875
14899W        W87225  26.170   5.123   2.685
14900W        W87226  17.167   1.264   0.305
14901W        W87227   3.390  20.581   4.375
14902W        W87228  19.131  20.714   1.505
14903W        W87229   1.439   2.895   2.638
14904W        W87230  39.613  11.203   1.249
14905W        W87231   2.976  14.090  11.506
14906W        W87232  38.641  37.690  12.552
14907W        W87233  21.031   9.485  12.036
14908W        W87234  34.858  35.221  14.136
14909W        W87235  11.303  26.991  11.662
14910W        W87236  44.752  14.179  10.354
14911W        W87237  16.232  10.985   0.566
14912W        W87238   9.651  12.941  12.044
14913W        W87239   4.261  23.495  12.842
14914W        W87240  18.157  38.058  12.592
14915W        W87241   5.127  23.396  14.773
14916W        W87242  16.907  19.227  14.258
14917W        W87243  44.312  17.740  14.415
14918W        W87244   5.917  11.301   0.943
14919W        W87245  22.515  22.652  14.324
14920W        W87246  24.094   7.759   4.014
14921W        W87247  11.270   8.175   3.644
14922W        W87248  37.311  18.478  14.930
14923W        W87249  12.709  21.795  12.009
14924W        W87250  37.941  32.610   4.491
14925W        W87251   3.291  11.714   2.791
14926W        W87252  31.472  14.190   1.403
14927W        W87253  14.618  33.870   3.122
14928W        W87254  17.846  28.505  14.037
14929W        W87255   9.132   8.233   0.923
14930W        W87256  29.859  20.241   0.387
14931W        W87257  34.164  44.733  11.112
14932W        W87258  39.898   4.122  12.436
14933W        W87259  25.719   1.370  14.042
14934W        W87260   3.785  18.755  12.376
14935W        W87261  25.094  33.658  13.349
14936W        W87262  10.704  34.000  10.603
14937W        W87263   7.272  38.747   1.723
14938W        W87264  14.299   9.800   4.142
14939W        W87265  15.591  42.480  12.011
14940W        W87266   1.436  25.691   1.163
14941W        W87267  13.767  44.883   1.367
14942W        W87268  38.029   2.402   2.194
14943W        W87269   4.867  30.799   4.578
14944W        W87270  20.698   5.015   1.908
14945W        W87271   4.147   6.391   3.578
14946W        W87272  23.299   9.959  13.065
14947W        W87273  27.075  21.988  13.870
14948W        W87274   6.110  27.220   2.148
14949W        W87275   8.115   1.985   5.044
14950W        W87276   5.820  27.957   1.010
14951W        W87277   3.566   5.651   3.750
14952W        W87278  14.813  30.390   1.042
14953W        W87279  40.373  25.110  14.716
14954W        W87280   2.931  29.913  12.535
14955W        W87281  20.997  18.887   3.596
14956W        W87282  30.154  28.381   2.111
14957W        W87283   5.701  26.719   4.016
14958W        W87284  14.641  38.174   2.318
14959W        W87285   0.705  20.205  12.937
14960W        W87286  31.518  32.878   0.847
14961W        W87287  20.800  37.577  12.044
14962W        W87288   7.719  23.395  11.177
14963W        W87289   8.754   5.899  11.174
14964W        W87290  24.423  27.919  14.777
14965W        W87291   8.136  32.395   4.193
14966W        W87292  41.482   6.551   1.654
14967W        W87293  37.325  41.753  13.919
14968W        W87294  31.536   3.759  12.117
14969W        W87295   4.808   9.057   2.801
14970W        W87296  44.390  11.070   1.791
14971W        W87297  39.220  21.898  14.798
14972W        W87298  36.017  44.266   2.955
14973W        W87299  18.883  17.331  14.815
14974W        W87300  11.364  12.437  13.594
14975W        W87301  43.773  38.869   1.263
14976W        W87302  16.203  18.814   2.809
14977W        W87303  27.911  19.520   4.850
14978W        W87304  23.095  31.138   2.103
14979W        W87305  40.772  10.799   3.645
14980W        W87306  34.263  34.099   0.824
14981W        W87307  23.012  37.502   4.759
14982W        W87308  11.547   6.883  13.103
14983W        W87309   3.341  20.456  14.431
14984W        W87310  37.742  20.149  14.549
14985W        W87311   8.241   7.358   3.894
14986W        W87312   6.469  16.562   3.186
14987W        W87313  10.981  16.021  12.073
14988W        W87314  26.955  12.674   0.921
14989W        W87315   8.089  23.783  11.160
14990W        W87316  16.067   0.946  10.572
14991W        W87317  38.573  39.547  13.434
14992W        W87318  23.126   9.266   3.276
14993W        W87319  19.531  34.929  10.768
14994W        W87320  31.884   7.249  12.053
14995W        W87321  16.165  39.058  12.372
14996W        W87322  18.559  15.702  12.946
14997W        W87323   1.512  41.918  14.059
14998W        W87324   7.824   5.045  14.851
14999W        W87325  18.120   0.867   1.296
15000W        W87326  30.358  27.430   4.942
15001W        W87327  21.481  30.521   2.813
15002W        W87328  28.756  18.509   4.341
15003W        W87329  39.520  44.181   0.074
15004W        W87330   0.004  23.608  12.465
15005W        W87331  19.385   9.531  14.817
15006W        W87332   9.361  42.847  12.041
15007W        W87333   2.469   1.844   0.468
15008W        W87334  37.641  40.094   0.397
15009W        W87335   9.126  31.865   0.728
15010W        W87336  10.899  16.919  11.906
15011W        W87337  37.057  23.077   4.907
15012W        W87338  33.444  28.125  12.494
15013W        W87339   1.868  35.415  11.487
15014W        W87340   3.997  35.905   4.559
15015W        W87341   8.112  17.285  11.483
15016W        W87342  43.333  31.737  10.709
15017W        W87343  27.740  20.626  12.396
15018W        W87344   7.383   6.557  10.935
15019W        W87345  26.525  42.584  12.586
15020W        W87346  31.133  31.351  13.978
15021W        W87347  24.456  30.418   4.755
15022W        W87348   5.913  16.556  11.838
15023W        W87349  31.079  33.069  14.305
15024W        W87350  34.311  17.542   3.224
15025W        W87351  37.778   5.264  10.483
15026W        W87352   1.026  10.079  12.928
15027W        W87353  14.760  16.839  12.216
15028W        W87354  35.617   3.242  13.254
15029W        W87355  29.544   4.248   0.887
15030W        W87356  26.498   7.844  14.112
15031W        W87357   1.611  10.928  14.989
15032W        W87358  33.054  40.716  13.970
15033W        W87359  27.677  40.251   1.262
15034W        W87360  33.135  14.832  14.465
15035W        W87361   7.298  34.581   0.019
15036W        W87362  23.129  34.153   0.779
15037W        W87363  10.329  21.204  12.973
15038W        W87364   5.194  26.439  11.555
15039W        W87365  31.922  42.093   3.426
15040W        W87366  22.020  12.848   0.507
15041W        W87367  17.913  25.578  11.529
15042W        W87368  18.108  41.035  11.909
15043W        W87369  38.754  35.592   4.843
15044W        W87370   5.135  29.963   3.156
15045W        W87371   0.327  16.925   3.238
15046W        W87372  43.007  18.167   3.556
15047W        W87373  44.218  23.763  13.114
15048W        W87374  40.814  39.842   1.276
15049W        W87375  25.748  36.230   1.789
15050W        W87376  33.383  11.751   2.172
15051W        W87377  22.184  38.022  10.478
15052W        W87378  31.779  12.573  11.622
15053W        W87379  40.319  39.008  10.751
15054W        W87380  22.541   5.137  14.549
15055W        W87381  10.707   8.418  14.542
15056W        W87382  29.641  32.090   4.548
15057W        W87383   0.334  27.517   1.999
15058W        W87384  23.944  38.216   0.436
15059W        W87385  33.301  28.682  13.314
15060W        W87386  15.264   6.330   1.414
15061W        W87387  32.852  42.830  14.875
15062W        W87388  39.735  38.650  10.057
15063W        W87389  37.849  10.866  12.484
15064W        W87390  40.339   3.130  12.438
15065W        W87391  28.586  23.764  11.364
15066W        W87392   6.421  10.394   0.806
15067W        W87393  36.504   1.448   2.850
15068W        W87394   0.245  23.217   9.961
15069W        W87395  44.814   7.813   3.660
15070W        W87396  12.331  25.485  14.879
15071W        W87397   8.171  39.592  13.791
15072W        W87398   2.192  44.996   2.412
15073W        W87399  37.399   5.496  13.009
15074W        W87400  32.942  41.090  11.538
15075W        W87401  44.271  43.239  12.395
15076W        W87402   5.029  42.094   4.027
15077W        W87403   5.658  16.839   1.479
15078W        W87404   3.028  23.439   1.689
15079W        W87405  24.787   3.630  14.509
15080W        W87406  25.105  16.199  13.835
15081W        W87407   5.646  17.760   3.652
15082W        W87408  23.486  38.024   3.702
15083W        W87409  42.388   9.091  14.401
15084W        W87410  22.799   1.475   2.158
15085W        W87411  11.659  39.493   4.018
15086W        W87412  36.192  40.945  10.668
15087W        W87413  23.298  13.768  11.072
15088W        W87414  27.638  24.215  12.779
15089W        W87415  14.280  14.630  12.686
15090W        W87416  25.903  43.011   2.087
15091W        W87417  20.825  12.359  13.440
15092W        W87418  22.862   9.869   2.291
15093W        W87419  42.079  26.039  11.656
15094W        W87420  41.558  35.409   1.799
15095W        W87421  10.204  24.549   1.356
15096W        W87422  26.104   6.478   0.164
15097W        W87423  18.341  28.624   0.255
15098W        W87424  18.629   4.433   2.188
15099W        W87425  29.135   1.743   1.953
15100W        W87426  19.256  10.878  14.776
15101W        W87427   0.351  20.363  11.143
15102W        W87428  43.260   7.917   0.336
15103W        W87429  19.177  33.201  11.733
15104W        W87430  11.329  40.205  13.405
15105W        W87431   9.125  34.643   4.055
15106W        W87432  44.451  27.633   4.558
15107W        W87433  21.057   8.179  10.835
15108W        W87434  24.549  40.501   1.808
15109W        W87435  31.068  34.824   3.715
15110W        W87436  20.061  30.439   0.152
15111W        W87437  40.229  31.520   1.768
15112W        W87438  10.323  28.182  13.821
15113W        W87439  36.150  27.046  10.898
15114W        W87440   6.237  41.050   2.369
15115W        W87441  39.511  28.034   1.606
15116W        W87442  25.767  44.362  10.714
15117W        W87443  23.528  23.031   4.267
15118W        W87444  16.105  25.138  14.664
15119W        W87445  30.542  10.780   2.252
15120W        W87446  14.846  42.901   2.263
15121W        W87447   6.936  40.424  14.498
15122W        W87448  14.950  27.527   0.893
15123W        W87449  18.628   1.400  12.621
15124W        W87450  32.910  40.396   4.297
15125W        W87451   0.086  33.797  11.054
15126W        W87452  41.378   1.276  12.398
15127W        W87453  26.384   2.253  10.463
15128W        W87454  17.346  17.212  13.354
15129W        W87455  14.342  11.459   2.351
15130W        W87456  40.871  17.584  14.207
15131W        W87457  43.040  27.597  11.656
15132W        W87458   2.391  13.367  11.265
15133W        W87459  33.395  26.972  13.924
15134W        W87460  10.084  44.776   3.659
15135W        W87461  37.504  24.123  11.649
15136W        W87462   6.715  10.746   1.515
15137W        W87463   1.396  32.388  11.639
15138W        W87464   1.464   9.941   2.696
15139W        W87465  21.101  22.004  10.309
15140W        W87466  15.077  15.664  13.822
15141W        W87467  14.683  31.445  12.066
15142W        W87468  30.392  44.327   3.706
15143W        W87469  13.570   8.148   2.726
15144W        W87470  14.801   0.792   1.748
15145W        W87471  44.856  18.883  12.837
15146W        W87472   5.879  11.059  12.434
15147W        W87473  29.542   0.973  11.136
15148W        W87474  39.895  17.182   4.189
15149W        W87475  16.266  24.322  14.426
15150W        W87476  18.998  26.343   3.314
15151W        W87477  19.045  18.168  14.346
15152W        W87478  25.768  30.346  14.333
15153W        W87479  42.916  21.652   1.250
15154W        W87480   3.658   3.762  12.205
15155W        W87481  11.786  24.979  10.253
15156W        W87482   6.412  11.585   3.553
15157W        W87483  23.726  14.678   2.737
15158W        W87484  40.835  17.951   0.476
15159W        W87485  43.660  21.194   2.254
15160W        W87486  42.853  22.602   2.519
15161W        W87487   9.874  39.527   3.314
15162W        W87488  31.493   7.714  13.855
15163W        W87489   2.220   2.276  13.108
15164W        W87490  14.304   1.047   1.714
15165W        W87491  35.075   5.271   0.107
15166W        W87492  40.581  29.787   4.217
15167W        W87493   0.144  14.579   0.463
15168W        W87494   8.666  19.155  14.349
15169W        W87495  41.578  32.997  12.034
15170W        W87496  33.970  21.572   1.660
15171W        W87497  15.824  41.309   4.515
15172W        W87498   8.729   8.430   4.146
15173W        W87499  15.860  32.561   2.157
15174W        W87500  13.832  39.571  13.610
15175W        W87501  19.662   2.755   1.276
15176W        W87502  41.551  12.577   2.404
15177W        W87503  37.836  12.405  13.630
15178W        W87504  24.278  10.248  14.504
15179W        W87505   6.920   0.014   2.787
15180W        W87506  26.677  16.806   1.341
15181W        W87507  31.119   4.623   3.324
15182W        W87508  30.378  34.526   1.207
15183W        W87509  35.451  14.201  14.964
15184W        W87510  13.642  14.267   3.385
15185W        W87511  22.689   5.867  11.174
15186W        W87512  29.667  22.189   2.204
15187W        W87513   0.351  39.914  11.098
15188W        W87514   2.824  42.424  11.580
15189W        W87515  41.554  25.931  14.856
15190W        W87516  35.619  36.968  10.304
15191W        W87517  33.981  43.052  13.458
15192W        W87518  28.589   5.786   4.780
15193W        W87519  33.744   0.017   1.588
15194W        W87520  34.378  38.839  14.505
15195W        W87521  19.054  10.781  11.984
15196W        W87522  13.853  38.969  13.765
15197W        W87523  17.857  32.909  13.524
15198W        W87524  16.556  12.779  11.474
15199W        W87525  13.199  30.363   2.587
15200W        W87526  33.676   6.114   3.243
15201W        W87527  14.750  23.196   2.324
15202W        W87528  40.563  30.878  14.393
15203W        W87529  38.018  14.560  10.635
15204W        W87530   6.318  19.258   4.069
15205W        W87531  39.588  27.005   4.665
15206W        W87532  21.011   7.469  12.927
15207W        W87533  42.161   1.416   3.261
15208W        W87534  14.045  42.438   2.279
15209W        W87535  19.314  13.188  11.546
15210W        W87536  19.976  23.526   5.047
15211W        W87537  31.015   0.641  11.633
15212W        W87538  37.457  23.621  12.369
15213W        W87539  11.215  42.871  11.932
15214W        W87540   0.024  31.268  11.613
15215W        W87541  42.801  26.908  13.115
15216W        W87542   0.022  40.671   2.687
15217W        W87543  26.493  21.601  10.132
15218W        W87544  21.771  43.022   0.036
15219W        W87545  18.579  40.592  12.617
15220W        W87546  30.032  36.297   4.944
15221W        W87547   6.595  19.653  10.658
15222W        W87548   0.807  19.648  10.288
15223W        W87549  22.310  19.213   0.302
15224W        W87550  43.552  28.433   1.923
15225W        W87551   0.267  10.086   2.304
15226W        W87552  30.442  40.414   0.037
15227W        W87553  27.521  41.788  11.481
15228W        W87554  26.050  13.599  11.500
15229W        W87555  15.355  33.709  13.002
15230W        W87556  32.864  13.740  11.149
15231W        W87557   1.496   0.745   2.695
15232W        W87558  36.441   4.642  10.245
15233W        W87559  22.070   5.240   1.805
15234W        W87560  22.144   7.697   0.493
15235W        W87561   6.520   4.884   2.159
15236W        W87562  27.116  33.050  13.108
15237W        W87563   4.877   2.187  12.503
15238W        W87564  43.596  40.904  12.236
15239W        W87565  31.945  36.574   0.893
15240W        W87566  35.341   1.992  13.995
15241W        W87567   3.879  41.554  12.586
15242W        W87568  36.450  44.438  12.540
15243W        W87569  26.969  32.498  10.616
15244W        W87570  40.116   4.691  14.451
15245W        W87571   2.543  32.944  14.735
15246W        W87572  13.821  24.733   1.799
15247W        W87573  10.110  13.185  12.144
15248W        W87574  43.410  41.677  10.728
15249W        W87575  40.828  24.800   4.681
15250W        W87576   7.876  35.287  11.586
15251W        W87577  13.103  11.842  11.705
15252W        W87578  39.847  10.704   0.260
15253W        W87579  33.503  35.075  12.886
15254W        W87580  44.125  40.309   4.684
15255W        W87581  20.176  43.243  10.576
15256W        W87582  13.052  37.694   0.898
15257W        W87583  24.476   3.402   4.585
15258W        W87584  21.146  21.073   0.259
15259W        W87585  43.825   8.855   3.449
15260W        W87586   6.178   5.867  14.862
15261W        W87587  17.380  44.293  13.444
15262W        W87588   8.741  29.531  11.912
15263W        W87589  26.950  43.408  11.409
15264W        W87590   5.653  37.092  11.299
15265W        W87591  24.501  32.006   5.059
15266W        W87592  17.749  18.180   3.344
15267W        W87593  11.071   9.400  14.952
15268W        W87594  14.554   6.053  10.344
15269W        W87595  34.115  37.651  11.107
15270W        W87596   6.391  20.637   0.334
15271W        W87597  26.294  29.864   1.791
15272W        W87598  36.471  39.786  11.130
15273W        W87599  18.307   1.893  13.125
15274W        W87600  28.645  19.450   0.560
15275W        W87601  10.180  44.900   1.132
15276W        W87602  13.085  36.863  14.807
15277W        W87603   3.424  16.718  11.089
15278W        W87604  26.029   6.308  12.123
15279W        W87605  10.178  21.180  11.045
15280W        W87606  38.806  34.375  11.934
15281W        W87607  10.877  31.902   0.744
15282W        W87608  25.611  25.686  10.733
15283W        W87609   9.924  44.936  12.909
15284W        W87610  12.398   9.018   3.806
15285W        W87611  13.152  44.629   9.915
15286W        W87612  21.761  38.574   1.297
15287W        W87613  39.307  29.601   4.666
15288W        W87614  24.455  17.017  11.963
15289W        W87615  19.516  43.438  13.966
15290W        W87616  43.148  22.841   2.895
15291W        W87617  38.396  41.967   2.563
15292W        W87618  21.419  32.616   4.158
15293W        W87619  38.816  12.792   5.605
15294W        W87620   9.400  42.120  12.546
15295W        W87621  34.692  29.593  12.480
15296W        W87622  31.973  34.753   5.007
15297W        W87623  28.167   6.679  14.788
15298W        W87624  17.640   0.305   0.349
15299W        W87625  27.171  31.919   2.704
15300W        W87626  16.557  27.139   2.646
15301W        W87627   6.218   9.163   3.374
15302W        W87628   3.425  12.551   5.022
15303W        W87629  20.644  36.023  11.878
15304W        W87630  32.018   3.621   3.783
15305W        W87631  38.500  27.191   3.972
15306W        W87632  18.868  32.428   0.349
15307W        W87633   2.290  32.982  11.808
15308W        W87634  31.017  28.032   2.430
15309W        W87635  39.207  20.371  13.845
15310W        W87636   7.756  12.979  14.511
15311W        W87637  31.562  23.006  12.934
15312W        W87638  39.914   1.034  12.793
15313W        W87639  13.663  11.158   0.132
15314W        W87640   0.351  26.953  12.822
15315W        W87641  14.412   0.869   4.697
15316W        W87642  33.552   2.811   1.682
15317W        W87643   1.887   9.854  13.582
15318W        W87644   4.894  22.620   1.336
15319W        W87645  42.790  24.776  10.711
15320W        W87646  30.849  14.317   3.173
15321W        W87647  13.071   5.460  14.041
15322W        W87648  28.403  43.869  14.543
15323W        W87649  22.704  34.006   3.306
15324W        W87650  43.274  19.198  11.987
15325W        W87651  32.582  44.587  13.785
15326W        W87652  41.471   9.859  13.614
15327W        W87653  15.662  33.162   1.152
15328W        W87654   4.038   6.560  12.571
15329W        W87655  44.795  13.809   2.771
15330W        W87656  16.188  34.183  11.143
15331W        W87657  23.450  21.412  12.472
15332W        W87658  29.391  41.006  14.780
15333W        W87659  39.891  13.052   2.387
15334W        W87660  21.700  28.958  14.445
15335W        W87661  12.609  27.576  14.742
15336W        W87662  33.182  42.947   4.251
15337W        W87663  10.784  16.459   1.295
15338W        W87664  41.968   2.042   2.882
15339W        W87665  11.620  29.993  11.912
15340W        W87666  38.856  23.077   3.256
15341W        W87667   2.395  14.195   1.408
15342W        W87668  22.207  33.380   0.406
15343W        W87669   2.818  28.673   0.692
15344W        W87670   2.347  39.034  14.354
15345W        W87671  30.434  22.954  13.920
15346W        W87672   0.293  37.436  12.858
15347W        W87673  31.411  36.486   2.867
15348W        W87674  19.765  17.771   3.710
15349W        W87675  25.477  39.239   4.290
15350W        W87676   2.799   2.497   4.167
15351W        W87677  22.063   2.911   0.351
15352W        W87678  15.387   1.834   4.650
15353W        W87679  32.393  13.405   4.284
15354W        W87680  13.913   1.676  13.038
15355W        W87681  22.935  24.949   4.083
15356W        W87682  40.804  41.986  14.815
15357W        W87683  36.947  11.378  10.242
15358W        W87684  41.444  25.139   2.845
15359W        W87685  26.104  16.816  14.493
15360W        W87686  25.771  28.426  12.472
15361W        W87687  17.294  15.611  14.274
15362W        W87688   3.938  13.145   1.965
15363W        W87689  32.366  35.321  12.028
15364W        W87690  19.211  22.673  13.300
15365W        W87691   2.841  22.194   2.218
15366W        W87692  21.078  38.024   4.201
15367W        W87693  35.527  21.159  12.202
15368W        W87694  24.915  42.887  14.590
15369W        W87695  15.792  12.508   4.531
15370W        W87696   9.160  40.425   2.249
15371W        W87697  34.888   2.307   4.911
15372W        W87698  24.081  23.190   3.121
15373W        W87699  38.389  18.580   1.440
15374W        W87700   7.681  38.845   4.122
15375W        W87701   9.643  35.014   0.135
15376W        W87702  15.589   6.705   0.316
15377W        W87703  22.618   1.301  10.424
15378W        W87704  40.606  18.762   3.613
15379W        W87705  21.664  23.101  14.436
15380W        W87706  31.368  35.264   3.664
15381W        W87707   8.651  33.917  14.005
15382W        W87708  37.840   4.240   1.907
15383W        W87709   9.232  23.759  12.066
15384W        W87710  13.315  30.878   3.900
15385W        W87711   2.554  13.578  13.382
15386W        W87712  26.392  42.688   3.712
15387W        W87713  11.711   5.227   3.998
15388W        W87714  22.314  43.923  11.208
15389W        W87715  14.191  31.354   2.665
15390W        W87716  21.259  36.673   2.213
15391W        W87717  40.697  12.150   3.381
15392W        W87718  38.214  12.335   2.311
15393W        W87719  43.390  21.373  11.901
15394W        W87720   2.491  31.442   2.637
15395W        W87721   0.227  20.251  13.101
15396W        W87722  25.258  11.657  12.446
15397W        W87723  44.893  17.321  12.936
15398W        W87724  14.360  10.421   1.322
15399W        W87725  28.210  12.462  12.193
15400W        W87726  33.987  10.848   0.473
15401W        W87727  37.917   1.166   1.724
15402W        W87728  15.014   9.076  10.666
15403W        W87729  23.295   7.328  12.084
15404W        W87730  40.319  31.738  14.360
15405W        W87731   6.305  38.076   3.576
15406W        W87732  17.552  38.678  13.895
15407W        W87733  44.475  13.995   0.424
15408W        W87734  20.724   0.056  10.662
15409W        W87735  15.676   3.659  13.414
15410W        W87736  15.078  10.863   3.905
15411W        W87737   5.793  22.728  11.868
15412W        W87738  20.643  19.167   4.624
15413W        W87739  33.455   9.763   0.881
15414W        W87740  21.018  39.177  11.776
15415W        W87741  12.086   2.772   1.905
15416W        W87742  43.401   5.465   4.112
15417W        W87743   6.337   8.274   0.732
15418W        W87744   2.630  29.700   2.665
15419W        W87745  26.921  41.534   0.459
15420W        W87746  43.387  17.852   0.401
15421W        W87747  26.962   3.682   3.184
15422W        W87748  30.227   0.781  13.861
15423W        W87749  28.535  40.254  11.588
15424W        W87750  10.577   2.460   3.568
15425W        W87751  25.155  21.023  12.467
15426W        W87752  19.716   6.613  12.821
15427W        W87753  25.525  14.319   5.162
15428W        W87754  16.652  16.837   1.705
15429W        W87755  19.482  19.309  12.415
15430W        W87756  37.139  16.077  12.447
15431W        W87757  37.127   9.312  12.383
15432W        W87758  27.454  32.441   1.844
15433W        W87759   2.606  10.098   0.456
15434W        W87760  36.115  38.557   0.026
15435W        W87761  44.270  33.929   2.734
15436W        W87762   9.342  30.482  14.961
15437W        W87763  24.197  18.678   3.618
15438W        W87764   7.626  43.748  14.954
15439W        W87765  15.013  44.889   3.279
15440W        W87766  29.827  33.148  13.397
15441W        W87767  22.548  20.115  11.422
15442W        W87768  20.698  16.603  14.516
15443W        W87769   2.381   5.007  11.061
15444W        W87770   4.350   8.919   4.551
15445W        W87771  28.756  26.324   3.528
15446W        W87772   8.162   0.957  10.965
15447W        W87773  36.854  21.774   1.442
15448W        W87774  15.750  29.932   3.912
15449W        W87775  23.594   8.604   1.353
15450W        W87776  11.924  14.824  11.606
15451W        W87777  18.032  43.278   1.232
15452W        W87778   9.978  11.782  13.600
15453W        W87779  37.418   9.934   4.672
15454W        W87780  15.076  23.279  12.806
15455W        W87781  23.492  31.434   3.419
15456W        W87782   7.363   2.882   4.411
15457W        W87783  44.514   5.141   3.042
15458W        W87784  11.450   0.856  10.397
15459W        W87785   9.460  42.630  12.501
15460W        W87786  20.187  16.659  13.486
15461W        W87787   0.687  43.345  12.486
15462W        W87788  37.972   8.331  13.685
15463W        W87789  34.296  31.201   4.077
15464W        W87790   0.240  13.280  10.600
15465W        W87791  38.341   6.846  10.932
15466W        W87792  35.528   2.770  10.917
15467W        W87793   8.796  37.236   4.308
15468W        W87794  23.365  17.676  14.023
15469W        W87795   6.856   3.532  10.623
15470W        W87796  24.978   6.226   2.780
15471W        W87797   3.354  40.734   2.304
15472W        W87798  16.389  42.067  13.885
15473W        W87799  12.844  24.675   4.619
15474W        W87800  32.833  11.766   1.228
15475W        W87801  37.383   7.829   1.941
15476W        W87802  27.875  24.524  14.404
15477W        W87803   2.934  16.164   4.552
15478W        W87804   0.478  40.444   1.810
15479W        W87805  30.385  40.236   1.899
15480W        W87806  42.924  20.441  11.230
15481W        W87807  15.111  24.889  11.549
15482W        W87808  33.151  25.896   4.663
15483W        W87809  10.900   6.905   3.624
15484W        W87810  24.487  20.629  14.782
15485W        W87811   2.680  14.703   0.250
15486W        W87812   9.728   3.845  14.864
15487W        W87813  17.673  32.009   4.527
15488W        W87814  41.417  18.514  11.737
15489W        W87815  35.839  22.253  11.525
15490W        W87816  24.094  38.367   1.210
15491W        W87817  42.443  10.965   2.144
15492W        W87818  11.626  33.118  13.567
15493W        W87819  29.540  27.066   2.646
15494W        W87820   1.306  38.789   0.854
15495W        W87821  17.728  18.794  14.720
15496W        W87822  31.543  43.903  12.474
15497W        W87823  37.362  15.383  10.398
15498W        W87824  35.913  12.995   2.297
15499W        W87825  12.803  17.199  12.247
15500W        W87826  14.070  16.314   3.648
15501W        W87827  30.237  17.090  12.640
15502W        W87828   5.867  32.068   0.329
15503W        W87829  21.106  10.659  12.919
15504W        W87830  25.091  41.298  14.447
15505W        W87831  39.941   2.936   2.704
15506W        W87832  24.713  43.725   3.249
15507W        W87833  21.541  42.806   3.738
15508W        W87834  17.259  44.069   2.223
15509W        W87835   6.647  33.075   0.791
15510W        W87836  31.465  23.782   5.218
15511W        W87837  17.569  34.534  12.108
15512W        W87838   1.097  21.563   3.370
15513W        W87839  42.786  36.742  13.116
15514W        W87840  33.414  44.041   2.813
15515W        W87841   9.399   3.449   2.428
15516W        W87842   2.943   3.356  14.092
15517W        W87843  39.461  13.672  14.644
15518W        W87844  37.811  37.741   3.717
15519W        W87845  39.229   6.290  11.447
15520W        W87846  18.983  14.675   3.743
15521W        W87847  42.953  41.022   2.690
15522W        W87848  13.091  21.781  11.217
15523W        W87849   5.815  19.225  14.775
15524W        W87850  40.136   5.814  12.366
15525W        W87851  31.062   3.259   2.578
15526W        W87852  36.090   4.845   3.835
15527W        W87853  37.328  41.024  14.390
15528W        W87854  33.074  11.820   1.729
15529W        W87855  19.986   0.033   1.534
15530W        W87856  43.623  12.182   2.280
15531W        W87857  10.795  40.740  10.724
15532W        W87858  34.945  35.878  11.465
15533W        W87859  16.117   1.892  10.675
15534W        W87860  12.341  33.100   4.376
15535W        W87861  38.550   2.404   4.544
15536W        W87862  21.429   7.513   2.084
15537W        W87863   9.815  23.033   0.426
15538W        W87864  22.593   1.408  12.812
15539W        W87865  27.516   3.743   3.220
15540W        W87866  33.072  42.540  12.202
15541W        W87867  38.141  19.576  12.084
15542W        W87868  36.986  16.265  12.896
15543W        W87869  34.999  23.695  13.800
15544W        W87870   0.613  44.437  10.564
15545W        W87871   1.117  10.562   0.234
15546W        W87872   7.984  41.289  12.902
15547W        W87873  23.488  10.753  14.474
15548W        W87874  40.965  41.875   4.139
15549W        W87875   6.646  44.894   4.771
15550W        W87876  28.065  16.053  13.196
15551W        W87877  36.003  11.293   0.676
15552W        W87878   0.477  31.519   3.646
15553W        W87879  17.320  31.332   2.137
15554W        W87880  34.297  20.247   2.572
15555W        W87881  15.512   8.434   1.015
15556W        W87882  17.619  31.047  14.291
15557W        W87883  31.625  12.238   0.526
15558W        W87884   6.979  39.856   1.622
15559W        W87885   5.742  18.148  14.871
15560W        W87886  43.078  13.437   4.200
15561W        W87887  31.049  43.302   0.845
15562W        W87888  13.304  28.881   4.584
15563W        W87889  40.496  11.795   2.122
15564W        W87890  14.031  14.843  14.471
15565W        W87891  21.447  27.896  12.569
15566W        W87892  11.705  17.949  13.767
15567W        W87893   2.775   6.671   4.506
15568W        W87894   9.727  25.102   4.497
15569W        W87895  30.110  42.343  12.167
15570W        W87896  20.464   6.031   3.188
15571W        W87897  30.744  17.592  13.259
15572W        W87898   9.569  42.513  11.610
15573W        W87899   1.802  35.050   1.932
15574W        W87900  26.290  12.100   4.545
15575W        W87901  32.607   7.358   1.671
15576W        W87902   6.697  35.302  13.862
15577W        W87903  32.762  18.113   1.759
15578W        W87904  11.128  44.328   1.734
15579W        W87905   9.844  37.043   1.299
15580W        W87906  23.979  14.834  14.313
15581W        W87907  10.806  31.084  12.113
15582W        W87908  40.395   5.101  10.159
15583W        W87909   0.505  20.200  13.549
15584W        W87910   3.456  15.602   0.043
15585W        W87911  38.836   6.766  11.093
15586W        W87912  35.377  42.228  12.907
15587W        W87913  23.476  21.172   5.022
15588W        W87914  12.018  11.803  13.922
15589W        W87915  41.366  38.937  10.280
15590W        W87916  19.209  16.322  14.543
15591W        W87917   5.365   3.414   3.583
15592W        W87918  21.702  39.595  12.350
15593W        W87919  17.705  12.664  12.178
15594W        W87920   7.661  10.464  11.063
15595W        W87921  21.660  42.155   1.391
15596W        W87922  17.374   8.357  10.066
15597W        W87923  27.554  29.278   2.042
15598W        W87924  43.627  19.113  13.549
15599W        W87925   9.370  19.616   3.703
15600W        W87926   3.268  13.831   0.377
15601W        W87927  26.731  32.034   4.994
15602W        W87928  23.223  43.094   3.725
15603W        W87929  33.568  10.287  14.930
15604W        W87930   8.702  16.066   4.170
15605W        W87931   9.543  34.309   4.142
15606W        W87932  29.051  20.624   2.212
15607W        W87933  42.574  31.789  12.868
15608W        W87934   7.081  16.674  10.593
15609W        W87935  18.772   6.180   3.665
15610W        W87936   6.267  36.729   0.146
15611W        W87937  44.173  43.836   1.248
15612W        W87938  37.317  22.790  10.745
15613W        W87939  35.435  43.009   5.046
15614W        W87940  36.082  22.496   3.143
15615W        W87941  42.464  27.932   3.839
15616W        W87942  16.811  23.703   3.092
15617W        W87943  22.739  22.317  12.957
15618W        W87944  36.181  14.730  14.576
15619W        W87945  41.666  41.510   2.310
15620W        W87946  33.948  35.513  14.307
15621W        W87947   6.634  35.957   0.447
15622W        W87948  26.464  19.206  10.692
15623W        W87949  21.517  31.872  14.284
15624W        W87950  11.320   6.834   3.916
15625W        W87951  37.288  41.000  13.576
15626W        W87952  34.750  35.544  11.117
15627W        W87953  20.252  14.638  12.566
15628W        W87954  30.837   5.255   1.223
15629W        W87955  34.646  41.566  14.460
15630W        W87956  20.073  27.532   2.854
15631W        W87957   0.864  28.613   1.182
15632W        W87958  41.117  25.252   4.736
15633W        W87959  12.589  23.783   3.108
15634W        W87960   7.442  34.069   4.623
15635W        W87961  15.648   4.722   4.153
15636W        W87962   5.927  24.357  13.974
15637W        W87963  43.148  32.248  10.919
15638W        W87964  13.322   8.433   4.714
15639W        W87965   2.118   2.002   1.380
15640W        W87966  12.115  23.641  12.088
15641W        W87967  11.232  44.033   0.389
15642W        W87968   2.579   9.592   0.384
15643W        W87969   8.455  17.076   1.420
15644W        W87970  31.865  18.579  10.911
15645W        W87971   0.207   9.883  14.821
15646W        W87972  17.352  24.183   1.250
15647W        W87973  43.117  25.819  11.945
15648W        W87974  11.161  16.549  12.864
15649W        W87975  10.046  22.010   3.521
15650W        W87976  42.905  37.475   1.708
15651W        W87977  14.152  36.885   1.946
15652W        W87978  22.668  18.845   0.742
15653W        W87979  24.945  26.945   3.704
15654W        W87980  41.802  35.972   4.244
15655W        W87981  27.171  26.230  11.971
15656W        W87982   3.345   8.915   0.917
15657W        W87983  29.359   6.218  13.299
15658W        W87984  27.254   9.186   0.888
15659W        W87985  12.805  24.670   3.753
15660W        W87986   3.969  21.032  12.950
15661W        W87987   3.697   6.187  14.785
15662W        W87988  33.650  35.505  10.177
15663W        W87989  44.673  10.784   1.379
15664W        W87990  32.216  16.669   1.725
15665W        W87991   6.178  16.130  13.190
15666W        W87992   6.726  19.686  13.442
15667W        W87993  25.633  16.220  13.915
15668W        W87994  44.994  24.616   1.914
15669W        W87995  34.359  42.583  13.879
15670W        W87996  24.081  10.211   1.253
15671W        W87997  39.145  14.395  14.886
15672W        W87998   3.236  38.473  13.480
15673W        W87999  13.642  44.516  12.704
15674W        W88000  37.986  14.761   1.265
15675W        W88001   1.862  23.474  11.058
15676W        W88002   2.302  22.546  14.018
15677W        W88003  11.767   2.227  12.807
15678W        W88004  41.029  31.958   2.839
15679W        W88005  30.960  18.127   3.682
15680W        W88006   8.808  21.233   2.251
15681W        W88007  14.487  12.884   1.422
15682W        W88008  17.785  27.910  14.196
15683W        W88009   3.236  31.077   0.427
15684W        W88010  18.775  25.071   3.728
15685W        W88011  14.750  26.747  13.476
15686W        W88012  12.586  37.859   2.391
15687W        W88013  38.491  17.334   0.377
15688W        W88014  17.315  44.983  12.352
15689W        W88015  32.643  17.337   4.553
15690W        W88016  24.519  14.741   0.846
15691W        W88017  25.690  27.206  11.516
15692W        W88018  39.992  38.389   2.838
15693W        W88019  21.218   9.579  12.902
15694W        W88020  41.794   3.453   1.804
15695W        W88021  15.388  11.557   1.899
15696W        W88022   5.024  30.029  11.941
15697W        W88023  44.806  39.340   3.167
15698W        W88024  18.395  17.572  14.874
15699W        W88025  23.222  32.191  13.419
15700W        W88026  27.865  35.632  14.134
15701W        W88027  36.425   1.696  14.893
15702W        W88028  12.410  22.637   3.911
15703W        W88029  26.387  44.618  12.915
15704W        W88030  17.167  20.795   1.736
15705W        W88031  38.037  16.103   3.121
15706W        W88032  14.635  39.385   4.255
15707W        W88033  29.065  19.046   2.340
15708W        W88034  39.992  37.526  12.072
15709W        W88035   8.915   9.302   1.478
15710W        W88036  35.346  19.758  11.621
15711W        W88037   4.158  12.416  12.577
15712W        W88038  36.999  33.927  13.903
15713W        W88039  31.367  26.808   2.287
15714W        W88040   8.398   8.483   1.409
15715W        W88041   6.127   4.049  14.936
15716W        W88042   7.764  34.114  14.548
15717W        W88043  18.533  26.959  12.490
15718W        W88044  28.029  24.162   0.299
15719W        W88045   1.335  34.313  12.044
15720W        W88046   5.155  16.878   1.402
15721W        W88047  12.247  44.366   9.890
15722W        W88048  35.175  18.826   2.175
15723W        W88049  24.496  42.766   2.530
15724W        W88050  32.621  20.172   3.494
15725W        W88051  44.740   2.743  14.603
15726W        W88052  28.158  22.158  14.245
15727W        W88053  37.550  44.383  11.168
15728W        W88054  40.501  24.158   1.914
15729W        W88055  27.075  16.620   4.543
15730W        W88056  37.084  42.186  10.820
15731W        W88057   6.169  42.424  11.535
15732W        W88058  15.103   5.402   0.192
15733W        W88059   3.963  20.215   0.266
15734W        W88060  24.723  41.746   2.227
15735W        W88061  32.406  20.546  13.559
15736W        W88062   9.100   5.291  13.813
15737W        W88063  13.256  18.573  12.021
15738W        W88064  17.208   2.206  11.979
15739W        W88065  42.315   5.591   3.526
15740W        W88066  22.692  35.926   4.530
15741W        W88067  35.836   4.759  11.119
15742W        W88068  37.104  39.787  13.790
15743W        W88069  39.053  40.261   1.286
15744W        W88070  35.384  18.756  10.699
15745W        W88071  38.169  41.147   2.851
15746W        W88072   2.679  24.568  11.098
15747W        W88073  44.453   2.689   3.963
15748W        W88074  19.789   8.740  10.922
15749W        W88075  28.670  34.119  11.682
15750W        W88076  39.021  14.313   2.181
15751W        W88077  29.341  16.852  12.417
15752W        W88078  12.197  29.385  13.036
15753W        W88079   2.471  28.120  11.283
15754W        W88080  25.460  42.280  11.050
15755W        W88081   8.108   9.298   3.376
15756W        W88082   2.499  14.213   3.220
15757W        W88083  33.245  34.984   3.623
15758W        W88084  20.196  34.873   2.389
15759W        W88085   4.348  11.844   2.878
15760W        W88086  22.150  39.123   4.595
15761W        W88087   1.547   8.237   2.589
15762W        W88088   0.230  29.084   0.746
15763W        W88089  28.865  44.847   2.919
15764W        W88090  35.103  10.694   0.950
15765W        W88091  23.466  11.842  13.724
15766W        W88092   4.863  16.647  14.626
15767W        W88093   6.458  30.175   2.343
15768W        W88094  20.875   7.450  14.251
15769W        W88095  13.270  24.044   3.427
15770W        W88096  16.038  24.065  14.870
15771W        W88097  15.617  30.667   5.020
15772W        W88098   5.742  36.103  11.603
15773W        W88099  16.177  32.122  12.124
15774W        W88100  37.139  22.650  13.624
15775W        W88101  44.249  21.249  13.791
15776W        W88102  19.594   1.338   4.404
15777W        W88103  39.869  34.664  13.421
15778W        W88104  21.595   2.135   1.719
15779W        W88105   5.162  14.863   2.852
15780W        W88106   7.875  31.115   3.895
15781W        W88107  40.939  39.781  12.890
15782W        W88108  28.680  26.055   2.189
15783W        W88109  26.156  15.500   1.055
15784W        W88110  35.514  27.729   3.052
15785W        W88111  21.749   3.550   4.103
15786W        W88112  41.874  23.200  11.946
15787W        W88113  36.857   3.014   2.303
15788W        W88114  41.924   6.378   1.887
15789W        W88115   5.730  36.308   2.945
15790W        W88116   5.575  18.707   4.095
15791W        W88117   0.760  28.455  14.440
15792W        W88118   8.450   7.338   0.619
15793W        W88119   4.986   7.266  11.533
15794W        W88120  24.746  36.378  13.122
15795W        W88121  44.702  23.738  12.900
15796W        W88122   3.514   7.772   1.348
15797W        W88123  16.210   9.443  13.763
15798W        W88124  32.625   6.433   3.681
15799W        W88125  19.830   8.847  11.966
15800W        W88126  29.375   6.784   4.174
15801W        W88127  38.540  35.889   0.894
15802W        W88128  36.392   4.838   1.192
15803W        W88129  30.069  28.233   3.372
15804W        W88130  29.988  40.589   1.865
15805W        W88131  36.945  42.029   2.373
15806W        W88132  25.443  31.389   3.952
15807W        W88133  11.228  40.006   3.569
15808W        W88134  27.519   2.855  10.694
15809W        W88135   9.453   5.677   1.731
15810W        W88136  38.055   5.171  11.534
15811W        W88137  12.295   1.928   0.316
15812W        W88138  19.677  42.830  10.274
15813W        W88139   5.261  19.300   0.191
15814W        W88140  10.917   0.414  13.908
15815W        W88141  34.537  29.428   1.576
15816W        W88142  19.667  23.241  14.583
15817W        W88143  40.781  40.429   4.664
15818W        W88144  19.538  21.989  10.494
15819W        W88145   4.850  11.864  10.764
15820W        W88146  25.658  24.143   4.116
15821W        W88147  30.939   5.916  11.131
15822W        W88148  40.736  42.738   4.659
15823W        W88149  43.831  43.277   4.086
15824W        W88150  14.557  17.030  12.708
15825W        W88151  13.976  34.829  11.622
15826W        W88152   8.920  28.075  14.779
15827W        W88153  27.862  29.409   1.298
15828W        W88154   7.901  12.454  14.457
15829W        W88155  18.568   0.578  12.180
15830W        W88156   7.649   6.355   2.601
15831W        W88157  27.454  26.302  10.551
15832W        W88158  43.954  30.997  13.005
15833W        W88159  13.858  34.022   0.127
15834W        W88160   9.296  37.766   3.739
15835W        W88161  14.080  17.667   4.556
15836W        W88162  20.278  22.579   0.262
15837W        W88163  39.788  42.891  10.560
15838W        W88164  24.290  17.695   3.049
15839W        W88165  42.995  29.629   0.228
15840W        W88166  27.756  37.977   0.355
15841W        W88167  44.007  29.992   1.326
15842W        W88168  34.856   6.858  14.275
15843W        W88169  17.138  20.269  13.393
15844W        W88170  17.934  41.430  11.670
15845W        W88171  15.208  17.234   1.814
15846W        W88172  29.859  39.014   4.591
15847W        W88173  38.791  22.068  14.547
15848W        W88174   0.338  19.950   4.763
15849W        W88175  29.708  11.447   3.684
15850W        W88176  41.359  41.472  14.212
15851W        W88177  10.319   9.046  14.216
15852W        W88178  25.601  10.446   0.371
15853W        W88179  32.938  41.596  11.635
15854W        W88180   8.258  17.670  12.475
15855W        W88181  19.123  35.625  12.005
15856W        W88182  24.767  30.904   3.639
15857W        W88183  42.952  30.647  13.947
15858W        W88184  34.525  21.034   4.050
15859W        W88185  20.703  13.229  11.007
15860W        W88186  33.208  15.586  13.977
15861W        W88187  32.082  37.018   3.371
15862W        W88188  10.614  30.452   1.026
15863W        W88189  20.207   0.463   1.307
15864W        W88190  36.923  24.490   3.310
15865W        W88191  30.466  24.618   2.231
15866W        W88192  16.241  21.665  10.761
15867W        W88193  16.204  24.805   3.323
15868W        W88194  22.715   3.432  12.957
15869W        W88195  39.336  20.975   2.291
15870W        W88196  24.100  24.323  11.098
15871W        W88197  23.576  26.605  14.742
15872W        W88198   9.900  44.245  14.934
15873W        W88199  30.583  10.209  14.024
15874W        W88200  20.949  43.325  11.051
15875W        W88201  41.228  40.121  12.626
15876W        W88202  30.035  44.221  13.964
15877W        W88203  39.936  24.144  11.600
15878W        W88204  13.506   3.477  11.475
15879W        W88205   4.745  10.711   3.260
15880W        W88206   3.194  39.624   3.290
15881W        W88207   1.749  38.939  12.148
15882W        W88208  12.034  33.503   4.707
15883W        W88209  16.292   8.129   4.166
15884W        W88210  13.114  28.645  11.199
15885W        W88211  29.745  38.120  12.440
15886W        W88212   3.019  12.772   0.724
15887W        W88213   8.351  38.794  10.383
15888W        W88214   4.356  28.301   3.280
15889W        W88215  25.160  32.156  14.389
15890W        W88216  35.835  15.655   4.225
15891W        W88217   7.084  37.055   2.368
15892W        W88218  17.998  24.789   3.777
15893W        W88219   5.300  24.356   4.627
15894W        W88220   4.696   0.571  14.428
15895W        W88221   3.808  26.079  13.081
15896W        W88222  31.357   3.247  11.004
15897W        W88223  43.907  29.445   4.644
15898W        W88224  16.178  13.539  12.909
15899W        W88225  38.948  10.676  14.797
15900W        W88226   8.512  23.319  13.050
15901W        W88227   8.753   1.118  12.207
15902W        W88228  44.604  27.643  14.449
15903W        W88229  27.680  39.903  12.496
15904W        W88230  21.193  34.190  14.552
15905W        W88231   8.915  34.025  13.549
15906W        W88232  36.559  34.850  13.810
15907W        W88233  28.184  33.144  12.470
15908W        W88234  26.184   3.733  13.028
15909W        W88235   4.300  15.428  13.206
15910W        W88236  19.871  44.664  10.250
15911W        W88237  37.103  37.388   3.193
15912W        W88238   2.200   7.289  10.635
15913W        W88239  30.356   8.072  13.091
15914W        W88240   3.276  22.329   2.931
15915W        W88241  29.668   8.316  14.307
15916W        W88242  20.131  36.027   4.644
15917W        W88243  44.962   4.349  13.865
15918W        W88244  19.702  26.395   2.775
15919W        W88245   2.953  22.126   1.688
15920W        W88246  14.646   0.449   4.457
15921W        W88247  16.865  30.883  13.885
15922W        W88248  38.859  26.115  11.078
15923W        W88249   8.621  21.761  12.558
15924W        W88250   2.423  12.641  11.681
15925W        W88251  20.660  34.662   3.788
15926W        W88252  37.585  20.795  10.789
15927W        W88253  44.520  41.085   1.487
15928W        W88254  31.183   0.270  14.451
15929W        W88255   5.971  39.165   1.238
15930W        W88256  34.358  10.669  11.199
15931W        W88257   3.702  30.489   2.268
15932W        W88258  42.998   6.634   0.565
15933W        W88259  19.630  34.004   4.064
15934W        W88260  18.034  15.231  13.730
15935W        W88261   8.251  23.974  14.989
15936W        W88262  26.568  44.212  13.414
15937W        W88263  11.416  35.421   2.264
15938W        W88264  35.069   3.911   3.914
15939W        W88265   8.346   4.537   0.389
15940W        W88266  16.339  44.327  13.386
15941W        W88267   0.329  11.530   1.830
15942W        W88268   2.145  15.190  12.665
15943W        W88269  26.109   8.374  11.680
15944W        W88270   1.209  27.912  10.964
15945W        W88271  15.613   5.585   4.201
15946W        W88272  43.465  15.598  13.775
15947W        W88273   5.324  29.155   2.432
15948W        W88274  39.857   1.258  13.277
15949W        W88275  43.855  21.678  14.611
15950W        W88276   5.550  16.044   4.483
15951W        W88277  14.343  20.203  12.820
15952W        W88278  37.962  13.615   4.668
15953W        W88279   8.315  30.418  14.811
15954W        W88280  31.129  21.230   4.599
15955W        W88281   2.430   0.520  12.923
15956W        W88282  42.407   5.377  14.319
15957W        W88283  17.830   5.678  11.184
15958W        W88284  38.038  31.420  10.913
15959W        W88285   8.522  15.566   1.198
15960W        W88286  37.856  28.533  14.057
15961W        W88287   6.576  41.927   3.861
15962W        W88288  14.324  28.291   3.792
15963W        W88289  18.436  32.325  13.904
15964W        W88290  22.303  38.626  14.823
15965W        W88291  21.265  30.346   2.360
15966W        W88292  39.821  19.603  12.570
15967W        W88293  27.537  34.510   4.533
15968W        W88294  27.348  24.551  14.423
15969W        W88295  43.393  12.693   2.775
15970W        W88296  37.049   5.159   3.210
15971W        W88297  35.377  26.570  12.596
15972W        W88298  43.938  16.189   0.455
15973W        W88299  13.078  40.819   2.201
15974W        W88300  37.791  30.983  14.871
15975W        W88301  15.681  15.130   3.381
15976W        W88302  12.836   1.679   4.236
15977W        W88303  34.601  14.585  11.208
15978W        W88304  14.060  35.887   1.437
15979W        W88305   0.825  30.382   0.792
15980W        W88306  10.369  28.310   0.635
15981W        W88307  35.370  39.370   4.797
15982W        W88308  12.556  15.007   1.138
15983W        W88309   4.394  15.032  14.746
15984W        W88310  28.119   8.229   1.383
15985W        W88311  12.522  30.480  14.060
15986W        W88312  10.964   1.903   4.144
15987W        W88313  32.691  29.120   1.167
15988W        W88314  15.073  13.740  14.224
15989W        W88315  24.216  28.871   3.301
15990W        W88316  13.428  41.853   4.052
15991W        W88317  28.231  24.623  12.449
15992W        W88318   6.582   8.791   2.631
15993W        W88319  38.885   0.098   4.375
15994W        W88320  15.443  27.567   0.739
15995W        W88321   7.870  37.867   2.592
15996W        W88322   6.612   7.760  12.038
15997W        W88323  39.778  13.103  12.376
15998W        W88324  11.837  20.217   3.486
15999W        W88325  20.058  44.348  13.926
16000W        W88326  42.428   1.229  12.458
16001W        W88327  28.655   6.224  12.981
16002W        W88328  25.345  17.319   5.727
16003W        W88329  11.402  10.353  11.023
16004W        W88330  44.801  24.328   0.940
16005W        W88331  38.037  16.319  13.939
16006W        W88332  23.697  38.908   4.277
16007W        W88333  15.591  15.081  14.339
16008W        W88334  44.363  41.755  13.023
16009W        W88335  28.496   6.829  13.417
16010W        W88336  43.019  43.953   0.676
16011W        W88337   3.387  28.745  12.579
16012W        W88338  39.529  21.998  11.620
16013W        W88339  17.058  25.065   3.132
16014W        W88340  38.827  35.366   4.381
16015W        W88341  13.901   9.222   4.324
16016W        W88342   7.239  17.133  13.628
16017W        W88343  18.537  12.578  11.815
16018W        W88344  38.876   9.327   3.621
16019W        W88345  20.791   7.787   3.840
16020W        W88346  43.868  32.337   0.735
16021W        W88347   8.337  43.961  11.142
16022W        W88348  24.571  29.529  11.614
16023W        W88349   5.205   2.364   0.283
16024W        W88350   3.243   4.270  10.662
16025W        W88351  11.792  44.524   3.746
16026W        W88352  24.566   3.400   3.679
16027W        W88353  41.586  44.188   2.793
16028W        W88354  40.949   1.494   1.991
16029W        W88355  33.231  31.056  12.512
16030W        W88356  18.325  20.048   1.369
16031W        W88357   2.205   7.404   1.614
16032W        W88358  37.627  13.770  14.010
16033W        W88359   2.909  18.584   0.664
16034W        W88360  24.247  44.789   4.677
16035W        W88361  40.495   9.161  14.308
16036W        W88362  32.002  19.777   0.536
16037W        W88363  28.512  39.375  10.564
16038W        W88364   8.328  32.995   0.029
16039W        W88365  23.688  27.588  14.742
16040W        W88366   7.947  17.296  12.003
16041W        W88367   4.713  15.277  11.834
16042W        W88368  43.957  29.126   0.189
16043W        W88369  38.140  28.060   9.943
16044W        W88370  36.393  37.372   3.711
16045W        W88371  26.126   9.462  11.914
16046W        W88372  34.335  38.909   0.264
16047W        W88373  15.816  38.446   0.927
16048W        W88374  42.473   3.459   2.696
16049W        W88375  42.903   7.028   1.945
16050W        W88376   7.822  23.064   4.363
16051W        W88377  27.765  31.720  10.919
16052W        W88378  26.522  12.279  13.062
16053W        W88379  12.809  20.081  11.585
16054W        W88380  31.133   0.414  12.080
16055W        W88381   1.838  28.702   1.848
16056W        W88382   8.436  35.804  10.633
16057W        W88383  32.980  44.580   3.623
16058W        W88384  26.997  31.776  11.360
16059W        W88385  25.504   6.095  10.239
16060W        W88386  26.423   1.501   2.157
16061W        W88387  27.929  18.581   1.832
16062W        W88388  31.921  13.156   4.305
16063W        W88389   1.347   0.018  14.961
16064W        W88390   1.984  44.344   1.000
16065W        W88391   1.221   5.340  14.289
16066W        W88392  37.408  10.313  12.907
16067W        W88393  26.990  40.794   5.126
16068W        W88394  38.088  39.330  11.214
16069W        W88395  14.803  42.476  13.626
16070W        W88396  18.127  36.930  11.147
16071W        W88397  12.693  27.672  12.766
16072W        W88398  32.435  13.075  14.675
16073W        W88399  32.271   8.612  13.581
16074W        W88400  29.173  36.525   3.339
16075W        W88401  11.948  15.448   4.156
16076W        W88402  42.020  13.755   5.000
16077W        W88403   5.160  21.386  10.187
16078W        W88404  41.602  23.683  12.644
16079W        W88405  24.943  44.981  13.503
16080W        W88406  15.697  11.786  12.166
16081W        W88407  18.293  17.243  11.611
16082W        W88408  17.003   8.900   0.342
16083W        W88409  33.611  43.849   3.691
16084W        W88410   2.807  38.776   0.282
16085W        W88411  10.784  23.512   4.859
16086W        W88412   5.333   8.112   1.914
16087W        W88413  18.024  36.209   4.125
16088W        W88414  25.987   2.246   1.888
16089W        W88415  29.745   6.430   4.195
16090W        W88416  31.037   6.165  14.256
16091W        W88417  21.187  25.667   1.128
16092W        W88418  22.171  43.289   0.753
16093W        W88419  24.241  39.088   4.240
16094W        W88420  41.467  40.959  14.187
16095W        W88421  38.349  20.210  11.166
16096W        W88422   8.316  41.957  11.283
16097W        W88423  44.971  26.847  10.009
16098W        W88424  30.824  25.268  12.942
16099W        W88425  25.718  11.415  12.587
16100W        W88426  33.548  12.904  13.327
16101W        W88427   5.667   6.686   1.213
16102W        W88428  34.829   6.391  11.111
16103W        W88429  38.577  40.573   0.471
16104W        W88430  39.944  30.893  12.848
16105W        W88431  39.374   6.786  12.572
16106W        W88432  33.267  10.921   3.482
16107W        W88433   9.317  44.864  11.740
16108W        W88434  16.040  42.246   4.147
16109W        W88435  34.017  17.976  12.641
16110W        W88436  26.932  30.571  12.559
16111W        W88437   6.960  44.828  12.053
16112W        W88438   9.365  37.192   3.906
16113W        W88439  38.559  23.943   1.982
16114W        W88440   8.828  29.954   2.295
16115W        W88441  34.361  36.606  14.901
16116W        W88442  44.889   7.479  10.730
16117W        W88443   0.405   1.412  14.132
16118W        W88444  14.908  21.207   1.139
16119W        W88445  16.223  24.280   3.292
16120W        W88446  44.507  21.029   2.774
16121W        W88447  22.781  15.191  13.411
16122W        W88448  27.070  22.031  13.313
16123W        W88449  31.051  28.879   0.906
16124W        W88450  36.304  15.177   4.630
16125W        W88451   0.794  26.710  12.775
16126W        W88452   2.487  25.278   4.066
16127W        W88453  31.887  24.480  14.121
16128W        W88454  24.089  42.872   2.253
16129W        W88455  38.693   1.204   3.292
16130W        W88456  32.735  32.227  14.743
16131W        W88457  16.740  14.449   2.436
16132W        W88458  15.052   0.989  10.605
16133W        W88459  30.663  15.389   3.125
16134W        W88460  39.971  19.095  13.532
16135W        W88461   0.622  41.787  14.061
16136W        W88462  11.145  26.855   2.426
16137W        W88463  29.831   4.196  11.186
16138W        W88464  10.966  13.889   0.663
16139W        W88465  31.619  33.474  11.126
16140W        W88466  44.938  22.374   0.106
16141W        W88467  15.483  18.262   2.738
16142W        W88468  33.633  42.559   4.431
16143W        W88469  24.114  16.183  14.407
16144W        W88470  14.127  17.113  13.979
16145W        W88471  11.322  20.995   1.265
16146W        W88472   5.629  24.139   3.781
16147W        W88473  36.079   0.973   0.895
16148W        W88474   1.355  22.283   4.032
16149W        W88475   1.414  35.417   4.586
16150W        W88476  41.334   1.956  12.936
16151W        W88477  25.102  20.609   2.338
16152W        W88478  39.647  27.136  12.370
16153W        W88479  27.717  11.201  14.363
16154W        W88480   1.561  39.961   3.770
16155W        W88481  39.346  22.646   1.684
16156W        W88482  21.630  20.646  12.135
16157W        W88483  39.344   0.122  13.989
16158W        W88484  26.635  21.589   1.264
16159W        W88485   2.375   3.914  11.057
16160W        W88486  17.729  39.240   2.281
16161W        W88487  22.380  27.676   3.906
16162W        W88488   9.401  24.799  14.899
16163W        W88489  13.423   9.257  12.646
16164W        W88490   0.454  28.679  10.706
16165W        W88491  10.294  30.020  12.520
16166W        W88492  44.096  30.707  12.595
16167W        W88493  28.666  44.709   0.798
16168W        W88494  18.775  34.397  10.591
16169W        W88495  33.500  29.872   0.420
16170W        W88496  18.768  28.225   2.354
16171W        W88497   8.901  32.676  11.054
16172W        W88498  27.054  17.069  13.554
16173W        W88499   4.358   2.893  11.678
16174W        W88500   0.208  36.454  11.237
16175W        W88501  37.020  17.214  11.640
16176W        W88502  21.322  41.142  14.896
16177W        W88503  20.700  22.693  12.186
16178W        W88504  17.060  20.257  14.921
16179W        W88505  43.531   7.879   3.145
16180W        W88506  33.532  35.015   5.116
16181W        W88507  11.514   9.309   3.254
16182W        W88508  33.588  12.789  11.868
16183W        W88509   3.772  42.034   4.546
16184W        W88510  27.239  33.623   0.145
16185W        W88511  26.136   5.074   1.284
16186W        W88512  32.417  24.810  10.534
16187W        W88513  24.019  34.134  10.496
16188W        W88514  20.590   7.942  10.736
16189W        W88515  25.250   1.341   4.143
16190W        W88516  31.926  31.812  14.139
16191W        W88517  29.722  13.203  14.487
16192W        W88518  21.182   6.862   3.244
16193W        W88519  34.793  42.233   1.554
16194W        W88520  13.696  14.802   4.112
16195W        W88521  15.732  11.777   0.830
16196W        W88522   8.773   6.627   3.612
16197W        W88523  13.607  37.294   4.121
16198W        W88524  22.153  44.533  12.931
16199W        W88525   9.661  13.848   3.583
16200W        W88526  14.502  28.931   1.241
16201W        W88527  23.729  15.595   4.568
16202W        W88528   1.386   1.724  10.349
16203W        W88529  22.228   3.662  14.797
16204W        W88530  18.163  42.054   0.770
16205W        W88531   6.630  38.416  12.412
16206W        W88532  15.138  39.798  11.919
16207W        W88533   0.493  41.970   2.375
16208W        W88534  35.839  22.026  11.035
16209W        W88535   0.262   6.494  11.536
16210W        W88536   2.790  23.662   2.707
16211W        W88537  26.536   0.933   2.168
16212W        W88538   9.850  17.794  12.409
16213W        W88539  27.030  37.602  13.213
16214W        W88540  27.234  38.708   3.135
16215W        W88541   5.153   6.630   3.854
16216W        W88542  15.265  30.006   0.015
16217W        W88543   6.727   5.334  12.868
16218W        W88544  23.830  13.985   4.514
16219W        W88545  21.131   4.657   3.769
16220W        W88546  17.795  10.102  13.767
16221W        W88547   1.543  37.373   1.898
16222W        W88548  26.528  19.299   2.126
16223W        W88549  21.010  43.696   5.205
16224W        W88550   6.173  33.588   2.370
16225W        W88551  10.153  15.142   2.155
16226W        W88552   0.783  11.298   1.151
16227W        W88553  12.513  16.232   4.364
16228W        W88554  14.702  32.418  13.551
16229W        W88555  12.731  29.685  13.023
16230W        W88556   7.074  42.026   3.774
16231W        W88557  25.748  25.300  11.527
16232W        W88558  16.225  16.064  13.013
16233W        W88559   7.934   0.466  14.048
16234W        W88560   3.792  43.854   3.925
16235W        W88561   3.448  43.388  12.153
16236W        W88562  42.593  20.819  12.078
16237W        W88563  43.858  34.698  14.057
16238W        W88564  10.172  31.860   1.547
16239W        W88565  25.056  35.435   4.460
16240W        W88566  44.822  19.738   4.722
16241W        W88567  22.717  19.230   3.203
16242W        W88568  29.159  17.714   2.717
16243W        W88569  10.677  38.541   0.536
16244W        W88570  19.006  22.981  14.301
16245W        W88571  12.258   0.637  11.023
16246W        W88572   1.217  13.676  13.072
16247W        W88573  16.367  18.792  13.313
16248W        W88574  29.028   8.684   4.135
16249W        W88575  32.804  35.056   3.882
16250W        W88576  30.007  30.106  11.181
16251W        W88577  44.339  17.267  10.624
16252W        W88578  11.080  15.988  11.106
16253W        W88579  24.890  41.828   4.549
16254W        W88580   0.731   4.268  14.078
16255W        W88581  13.057  14.256  14.110
16256W        W88582  33.365   4.587  14.900
16257W        W88583  31.654  20.300   3.324
16258W        W88584  22.646  28.386  11.652
16259W        W88585  33.748  24.235   3.243
16260W        W88586  14.570  29.745   4.684
16261W        W88587   1.235  13.643   3.999
16262W        W88588  21.252  23.089   3.060
16263W        W88589  25.139  22.975  10.629
16264W        W88590  43.892  41.882  12.871
16265W        W88591  12.304   5.256   1.378
16266W        W88592  26.683  38.503  13.981
16267W        W88593   9.446  12.299   0.418
16268W        W88594  39.030  35.747  10.262
16269W        W88595  16.008  26.540   3.927
16270W        W88596  20.710  41.976  14.794
16271W        W88597  30.249  24.091   4.063
16272W        W88598  30.956  34.800   2.796
16273W        W88599  21.175  14.184   0.792
16274W        W88600  16.115  41.796  11.552
16275W        W88601  44.467  19.151   3.227
16276W        W88602  33.434   5.645   3.154
16277W        W88603   8.134  35.680   2.584
16278W        W88604  28.963   9.573  13.126
16279W        W88605  36.070  42.582   0.378
16280W        W88606  17.794  22.092   3.394
16281W        W88607  38.326  22.787  12.952
16282W        W88608  19.504  11.682   1.181
16283W        W88609  40.312  33.611   3.469
16284W        W88610  39.996   1.737  13.034
16285W        W88611   6.404  32.091  10.715
16286W        W88612  23.593  43.584   4.513
16287W        W88613   1.833  44.282   2.004
16288W        W88614  32.588   4.875  10.570
16289W        W88615  12.804  44.052   1.002
16290W        W88616  29.019  16.244  11.616
16291W        W88617  17.804  15.152  11.002
16292W        W88618  34.813  41.065   4.728
16293W        W88619   3.963   4.457   5.437
16294W        W88620   5.875  22.827  10.402
16295W        W88621  15.953  28.488   2.814
16296W        W88622  16.328  28.166  14.429
16297W        W88623   9.601  40.185  10.222
16298W        W88624  44.426   6.286  12.949
16299W        W88625  32.025  21.949   0.923
16300W        W88626  10.093   4.373   1.528
16301W        W88627  21.639  35.149   1.227
16302W        W88628  13.609  32.519   0.942
16303W        W88629  33.621  40.295   0.796
16304W        W88630   6.155  21.608  11.609
16305W        W88631  19.009  19.520   2.687
16306W        W88632  23.682  28.179  14.270
16307W        W88633  17.997  29.152   1.896
16308W        W88634   0.507  40.881   0.472
16309W        W88635  14.455  32.422  12.049
16310W        W88636   4.750   8.401  11.704
16311W        W88637  29.086  17.294  12.521
16312W        W88638  10.477   4.740  11.642
16313W        W88639  13.661  18.835   0.028
16314W        W88640  40.255  26.527  12.431
16315W        W88641  14.742   5.949  13.854
16316W        W88642  42.276  10.359  13.877
16317W        W88643  42.686  35.932  10.544
16318W        W88644   0.491  13.010  13.894
16319W        W88645  38.230   9.715  10.299
16320W        W88646   5.959  15.098   3.557
16321W        W88647  39.069  32.596   4.077
16322W        W88648  23.135  15.395   4.641
16323W        W88649  29.275  23.216  11.980
16324W        W88650   7.103   9.625  14.917
16325W        W88651  20.002  37.350   1.572
16326W        W88652  31.658  38.790  11.053
16327W        W88653  40.408  38.840   0.850
16328W        W88654  31.688  10.696  10.754
16329W        W88655  15.719  39.358   1.896
16330W        W88656   4.504   2.842   5.395
16331W        W88657  17.257  32.977  14.363
16332W        W88658  44.098  12.621  12.661
16333W        W88659   2.782   3.856   3.614
16334W        W88660   4.909   0.226   3.564
16335W        W88661  40.245   7.382   2.926
16336W        W88662   6.428  29.078   9.801
16337W        W88663  10.411  17.696  11.753
16338W        W88664  12.217  22.197   0.811
16339W        W88665  37.568  35.962   4.768
16340W        W88666  43.362   9.587  14.322
16341W        W88667  22.051  42.875   3.688
16342W        W88668  14.078  38.333  10.889
16343W        W88669   9.571  13.916  13.009
16344W        W88670  40.922  15.395   0.339
16345W        W88671  18.621  33.495  14.646
16346W        W88672  20.431  15.550  11.095
16347W        W88673  44.226  29.160   4.290
16348W        W88674   3.197  36.945   3.997
16349W        W88675   9.676  33.883   2.790
16350W        W88676  26.050   2.760   1.915
16351W        W88677  44.829  13.860   1.832
16352W        W88678  13.117   6.373   2.380
16353W        W88679   4.206  14.119   0.058
16354W        W88680  44.021  41.069   3.240
16355W        W88681  31.416  33.560   4.376
16356W        W88682  43.558   0.066   2.732
16357W        W88683   0.355   2.076   4.026
16358W        W88684   2.359  42.998   2.350
16359W        W88685  13.871  34.459  12.913
16360W        W88686  24.036  12.828  13.120
16361W        W88687   7.223   0.228  12.264
16362W        W88688  19.311  28.965  11.346
16363W        W88689  31.926  33.752   1.334
16364W        W88690  15.883   4.453   2.957
16365W        W88691   7.940  27.059   2.576
16366W        W88692  18.649  44.646  12.989
16367W        W88693  38.312  18.017   3.285
16368W        W88694   0.765  13.095  14.772
16369W        W88695  25.461  17.687  13.741
16370W        W88696  11.190  42.037  11.661
16371W        W88697   7.417  28.600   0.959
16372W        W88698   6.673  11.105   3.704
16373W        W88699  17.708  32.130  12.915
16374W        W88700   4.145  27.513   4.060
16375W        W88701  30.873  12.957   2.699
16376W        W88702  40.550  38.801  11.709
16377W        W88703  30.384   3.620  14.034
16378W        W88704  37.880   7.146  11.918
16379W        W88705  14.744   2.039  11.606
16380W        W88706  15.294  12.619   2.819
16381W        W88707  29.540  16.692  14.250
16382W        W88708   7.362  19.475  11.585
16383W        W88709  22.949  19.758  14.534
16384W        W88710  27.601   5.237  11.076
16385W        W88711  42.147  32.485  14.596
16386W        W88712  18.301  12.277  10.943
16387W        W88713  11.389  20.773   3.726
16388W        W88714   5.284   7.741  12.603
16389W        W88715   7.868  32.919   4.260
16390W        W88716  23.778  21.262   4.565
16391W        W88717  33.033  36.322  13.883
16392W        W88718  32.703  34.389   1.740
16393W        W88719   9.676  37.694  14.108
16394W        W88720  25.386  13.737   0.905
16395W        W88721  20.110  40.540   1.201
16396W        W88722  33.287  42.833  11.431
16397W        W88723  31.255  33.456   3.886
16398W        W88724  17.799  26.673   1.463
16399W        W88725   0.777  38.863  14.246
16400W        W88726   0.319  39.448   1.977
16401W        W88727   1.371  27.127  14.785
16402W        W88728  32.321  23.351  14.222
16403W        W88729  14.796  44.539  11.498
16404W        W88730  43.058  30.118   0.427
16405W        W88731   7.603   2.499   2.789
16406W        W88732   5.166   5.498   3.234
16407W        W88733  32.460  13.037   3.209
16408W        W88734  21.242  34.429  12.763
16409W        W88735  39.967   3.299  14.989
16410W        W88736   7.659  18.157  11.165
16411W        W88737  15.165  18.032  12.566
16412W        W88738  40.724  28.572   0.295
16413W        W88739  30.372  39.108  11.515
16414W        W88740  44.427  16.167   3.841
16415W        W88741   5.247  22.606  11.335
16416W        W88742  39.278   2.325   1.883
16417W        W88743  27.420  33.032   4.830
16418W        W88744  31.244  15.742   4.629
16419W        W88745  21.244  12.819  14.118
16420W        W88746  34.867  35.579  12.875
16421W        W88747  38.458   9.336  13.076
16422W        W88748   3.070  36.887   4.499
16423W        W88749  31.007  23.504  11.076
16424W        W88750  39.224  21.819  11.170
16425W        W88751   2.749  33.128  13.748
16426W        W88752   8.659   1.202   3.136
16427W        W88753  41.483  24.286  14.385
16428W        W88754  19.248   0.220   4.267
16429W        W88755   3.352  28.013   4.844
16430W        W88756  10.353  31.021  12.427
16431W        W88757  10.415   0.474  12.465
16432W        W88758  37.523  13.359   4.622
16433W        W88759  31.170  15.240  13.821
16434W        W88760  31.544   7.862  11.841
16435W        W88761  19.647   0.211   2.227
16436W        W88762   3.642   8.318  10.867
16437W        W88763   3.711  20.407  11.771
16438W        W88764  16.249   4.376   4.547
16439W        W88765  42.607  13.315  14.881
16440W        W88766  34.346  35.934  10.124
16441W        W88767  30.802  11.921  13.301
16442W        W88768  20.546   3.656   1.918
16443W        W88769  35.856   6.459  12.877
16444W        W88770  13.259   6.230  10.741
16445W        W88771  28.421  13.691   3.249
16446W        W88772  14.671  21.266  13.052
16447W        W88773  29.823  27.579  10.085
16448W        W88774  10.293  37.894   1.808
16449W        W88775   9.811  29.788   0.871
16450W        W88776  11.945  20.037  11.919
16451W        W88777  42.468  10.145   1.798
16452W        W88778   9.691  23.286  11.218
16453W        W88779  33.996  15.560   0.402
16454W        W88780  16.863   8.729  14.855
16455W        W88781  40.841   1.833  12.790
16456W        W88782  30.199  35.011  12.762
16457W        W88783  26.223  13.260   2.406
16458W        W88784  39.786   7.465   4.699
16459W        W88785  39.631  43.793   3.675
16460W        W88786  18.841  24.250  13.470
16461W        W88787  16.638  26.252  13.195
16462W        W88788   3.251  26.921   0.804
16463W        W88789  32.172  39.509   3.135
16464W        W88790  14.426  12.327   1.370
16465W        W88791  41.899  26.388  10.150
16466W        W88792  24.422  37.842   9.748
16467W        W88793  43.235   8.421  12.650
16468W        W88794   2.165  24.654  13.334
16469W        W88795  17.608   2.525  12.627
16470W        W88796  38.412  27.093  11.458
16471W        W88797  42.515  27.061  11.140
16472W        W88798   3.179  27.194   2.728
16473W        W88799  35.537  13.150   4.593
16474W        W88800  43.304  10.285   4.570
16475W        W88801  19.059  32.476   4.632
16476W        W88802  18.772  35.438   0.774
16477W        W88803  38.814  19.106   3.777
16478W        W88804  12.668  36.204  12.446
16479W        W88805  29.868  40.416  13.584
16480W        W88806   8.784  43.939   2.177
16481W        W88807  41.889  34.088  12.536
16482W        W88808  34.996  30.936  14.349
16483W        W88809   2.485  34.404   4.610
16484W        W88810   0.832  15.627  14.909
16485W        W88811  23.562   4.402  13.546
16486W        W88812  41.571  13.557   4.833
16487W        W88813  20.193  23.898   3.984
16488W        W88814  37.293  15.178   2.310
16489W        W88815  42.975  22.559   3.849
16490W        W88816  35.892   4.376  11.458
16491W        W88817  33.025  22.986   0.320
16492W        W88818  31.414  37.440   3.716
16493W        W88819   8.034  11.454  11.603
16494W        W88820  16.528  22.577  11.419
16495W        W88821  17.411  14.447  13.892
16496W        W88822  19.437   0.317   0.705
16497W        W88823   4.405  20.112  14.363
16498W        W88824  42.454  28.662  10.647
16499W        W88825  20.838  44.686  12.835
16500W        W88826  22.221  28.080   4.775
16501W        W88827   4.821  36.319   1.900
16502W        W88828  31.554  39.078  12.881
16503W        W88829  16.574  34.632  12.905
16504W        W88830  24.197  16.940   2.720
16505W        W88831  30.220  16.084   1.720
16506W        W88832  41.859   7.791  11.235
16507W        W88833  15.678   7.570   4.003
16508W        W88834  24.989  30.715   0.429
16509W        W88835  21.867  24.967   3.538
16510W        W88836  36.927  11.814  13.501
16511W        W88837  29.071  32.872  13.805
16512W        W88838  36.123  13.795   3.346
16513W        W88839  12.596  19.602  11.559
16514W        W88840  35.585  18.225   4.149
16515W        W88841  17.109  40.407   3.400
16516W        W88842  28.188  44.833   4.569
16517W        W88843  21.605   0.403  12.967
16518W        W88844  22.136   7.243   0.247
16519W        W88845  35.765  21.008   2.157
16520W        W88846   7.440   8.103   1.796
16521W        W88847  19.812  11.319   1.917
16522W        W88848  22.022  13.663  10.579
16523W        W88849  38.039  39.562  13.494
16524W        W88850  33.665  13.050   3.786
16525W        W88851   9.414  43.358  12.110
16526W        W88852   4.923  22.194   5.235
16527W        W88853  30.025  35.096  10.778
16528W        W88854  18.160   9.604  14.025
16529W        W88855  40.830  22.606   3.056
16530W        W88856  17.207   3.731  14.952
16531W        W88857  44.109  10.097  13.030
16532W        W88858  27.533  36.043   1.878
16533W        W88859  20.017  10.825   1.769
16534W        W88860  13.176  21.916  13.070
16535W        W88861  16.496   0.910  14.134
16536W        W88862  39.838   0.354  13.552
16537W        W88863  21.190  25.315   0.235
16538W        W88864   7.775   5.179  11.502
16539W        W88865   6.096  13.317  12.627
16540W        W88866  43.583  16.241   4.692
16541W        W88867  15.790  24.557   0.169
16542W        W88868   2.899  44.717  11.956
16543W        W88869  27.594  14.000  11.054
16544W        W88870  42.040  44.981   3.815
16545W        W88871  19.603   3.323   2.384
16546W        W88872   0.817   3.136   5.056
16547W        W88873  40.797  36.802  11.181
16548W        W88874  22.728  23.913   3.253
16549W        W88875   3.040  17.660   2.191
16550W        W88876  36.531  39.599   3.585
16551W        W88877  34.125   4.007  11.956
16552W        W88878  17.645  13.366   1.939
16553W        W88879  30.667   5.923   2.107
16554W        W88880   6.940  33.895   3.769
16555W        W88881   2.895  34.816  14.813
16556W        W88882   4.832  27.410   2.339
16557W        W88883  44.300  23.195  10.601
16558W        W88884   3.810   6.885  11.644
16559W        W88885  43.618   2.952  14.263
16560W        W88886  26.552  33.468  12.067
16561W        W88887  44.668  34.337  14.902
16562W        W88888  14.682  20.302   0.903
16563W        W88889   9.166  12.804  11.407
16564W        W88890  40.904  21.590   3.167
16565W        W88891   4.698   3.298  11.650
16566W        W88892  34.952  19.480  11.185
16567W        W88893  37.601  34.338   0.275
16568W        W88894  28.626  37.770   1.834
16569W        W88895  42.788   3.406   4.556
16570W        W88896   5.260  29.343  10.020
16571W        W88897  18.529  20.121  12.495
16572W        W88898  30.185  21.753   1.231
16573W        W88899  28.675  39.885  10.715
16574W        W88900  33.972  44.855   0.333
16575W        W88901  26.401  41.383   1.250
16576W        W88902  13.134   5.439   3.445
16577W        W88903  20.471  28.999  13.125
16578W        W88904  25.594  44.032  11.102
16579W        W88905   8.446   1.472  12.007
16580W        W88906  10.684   1.258  12.011
16581W        W88907  13.929  36.483   4.152
16582W        W88908  37.357  34.450  14.788
16583W        W88909  31.024   5.246   0.753
16584W        W88910  39.874   6.244  13.450
16585W        W88911  20.568  38.599   4.010
16586W        W88912   1.844  17.783   0.244
16587W        W88913  16.345  42.238  12.865
16588W        W88914  36.291   9.301   0.882
16589W        W88915  16.094  33.789  14.398
16590W        W88916   4.369  14.023   4.105
16591W        W88917  24.072  27.946   1.277
16592W        W88918  38.368  29.931  13.979
16593W        W88919   0.353  35.524   3.277
16594W        W88920  19.080  22.894   4.529
16595W        W88921  20.725  34.154  13.093
16596W        W88922   5.876  38.488   0.661
16597W        W88923  14.594  19.008  10.598
16598W        W88924  26.768  38.093  11.427
16599W        W88925   0.174   3.620  13.905
16600W        W88926  28.689  13.616  12.050
16601W        W88927   9.682  32.022   1.675
16602W        W88928  21.116   1.001  10.906
16603W        W88929  17.016  43.902   3.164
16604W        W88930  20.492  43.403   3.321
16605W        W88931   9.306  29.073  12.960
16606W        W88932  39.715  31.631  10.593
16607W        W88933   0.276  42.634  14.099
16608W        W88934   2.528  37.061   3.332
16609W        W88935  35.341   9.376  12.549
16610W        W88936  43.421   6.561  12.729
16611W        W88937  34.373  30.305   3.105
16612W        W88938  31.863  18.556   2.819
16613W        W88939  29.031  14.734   3.847
16614W        W88940  38.074  19.364  10.577
16615W        W88941  38.848  40.362  13.950
16616W        W88942  21.618  38.592  10.213
16617W        W88943  29.660  41.293  12.561
16618W        W88944  25.518   2.932  11.993
16619W        W88945  39.464  39.953   0.432
16620W        W88946  14.680  32.122  14.520
16621W        W88947  15.854  41.129  14.173
16622W        W88948  40.295   9.831   0.146
16623W        W88949   9.322   8.999  12.885
16624W        W88950  31.224  22.133  11.172
16625W        W88951  25.648  11.747   4.908
16626W        W88952  27.075  43.118  10.350
16627W        W88953  39.577  21.064  12.684
16628W        W88954  33.534  19.992  10.795
16629W        W88955  22.350  28.990   3.387
16630W        W88956  44.463  11.331   2.258
16631W        W88957  22.969  43.712  14.246
16632W        W88958   0.959  43.303  12.904
16633W        W88959   0.031   5.861   4.518
16634W        W88960  23.886   8.431  14.589
16635W        W88961  14.465  12.101  14.081
16636W        W88962  12.112  38.556   0.570
16637W        W88963   2.684  40.560  12.512
16638W        W88964  24.492  15.367   9.753
16639W        W88965  30.312   4.187   1.431
16640W        W88966  42.503  35.381  11.015
16641W        W88967  24.551  14.877   3.211
16642W        W88968  20.551  15.733  13.050
16643W        W88969  30.965  30.367  14.692
16644W        W88970  11.086  30.103   1.724
16645W        W88971  23.546  40.508  11.986
16646W        W88972  32.189  44.056   4.100
16647W        W88973  23.157  23.882  13.455
16648W        W88974  17.919  34.427   2.160
16649W        W88975  24.404   7.728  11.075
16650W        W88976   9.325  44.117   2.288
16651W        W88977  35.811   5.869   3.202
16652W        W88978  23.061   0.548   1.717
16653W        W88979  27.474   1.497  12.311
16654W        W88980  37.783  20.535   2.640
16655W        W88981   8.564  33.902  11.921
16656W        W88982  43.335   4.966   4.276
16657W        W88983  32.355  10.793   0.918
16658W        W88984  44.576   1.727  12.846
16659W        W88985  35.025   7.256  13.537
16660W        W88986  14.017  36.975   4.108
16661W        W88987  24.634  15.373   3.378
16662W        W88988  25.555   8.826  11.609
16663W        W88989   8.664  39.265  11.602
16664W        W88990  21.396  20.770  13.381
16665W        W88991  39.539  17.998   0.726
16666W        W88992   9.049  37.997   2.199
16667W        W88993   5.673   3.928   2.825
16668W        W88994  26.157  37.880  12.979
16669W        W88995   9.620  20.594   2.331
16670W        W88996  26.518  32.177   4.185
16671W        W88997   1.350  19.492   2.580
16672W        W88998  11.265   5.377  14.105
16673W        W88999  15.072   8.703   3.648
16674W        W89000  40.386  25.269  11.373
16675W        W89001  18.676  36.533  11.550
16676W        W89002  34.123  23.048   2.218
16677W        W89003  26.062  15.336  11.038
16678W        W89004  11.374  11.283  11.995
16679W        W89005  43.303   2.351  11.526
16680W        W89006  13.059  16.108  12.932
16681W        W89007   8.415  40.518   4.811
16682W        W89008   3.184  22.040  10.642
16683W        W89009  15.828  15.577   1.814
16684W        W89010   1.353  37.398   0.945
16685W        W89011  30.659  29.673   3.772
16686W        W89012  10.446  40.876   1.296
16687W        W89013  42.307  31.808   4.974
16688W        W89014   3.761  31.135  10.569
16689W        W89015   5.179  39.940  10.315
16690W        W89016  35.830  30.430   0.319
16691W        W89017  19.772  27.241   1.111
16692W        W89018  10.376  21.216   3.185
16693W        W89019  13.558  10.077   0.071
16694W        W89020  42.935  18.397  14.829
16695W        W89021  43.286  27.644   4.083
16696W        W89022  35.079  41.845   2.621
16697W        W89023   6.166   1.855  11.179
16698W        W89024  42.404  37.582  11.621
16699W        W89025  21.020   6.227  11.537
16700W        W89026   6.920  11.632  14.375
16701W        W89027   8.765  30.223  14.319
16702W        W89028  39.806  12.351  14.152
16703W        W89029  32.875  30.663   0.204
16704W        W89030  12.766  13.732  12.642
16705W        W89031  41.300  39.851  11.684
16706W        W89032  15.123  31.430   3.551
16707W        W89033  34.820   4.625   2.879
16708W        W89034  13.199   2.483   3.645
16709W        W89035  18.763  22.420  13.998
16710W        W89036   4.357  20.549  13.580
16711W        W89037   4.899  14.829  14.750
16712W        W89038  39.824   3.728   2.310
16713W        W89039  22.546   4.971   1.811
16714W        W89040  12.038   3.031   5.208
16715W        W89041   3.725  44.276   3.598
16716W        W89042  15.882  41.562  14.466
16717W        W89043  34.612  21.177  12.084
16718W        W89044  11.060  11.272   1.314
16719W        W89045  42.347   7.331   3.276
16720W        W89046  10.343  17.657  12.243
16721W        W89047   0.220  40.489   2.245
16722W        W89048   5.824  13.830   4.396
16723W        W89049  29.932  31.946  13.128
16724W        W89050  17.506  16.376  14.318
16725W        W89051  40.072  14.401  10.218
16726W        W89052   0.826  11.778  10.680
16727W        W89053  24.300  43.623  13.056
16728W        W89054   5.439   7.226  11.861
16729W        W89055   5.218  37.034  14.074
16730W        W89056  16.623  43.016   0.292
16731W        W89057  33.470  19.644   2.350
16732W        W89058   5.781  32.256  14.839
16733W        W89059   4.277  22.151   2.415
16734W        W89060  11.160   0.957  10.811
16735W        W89061   9.178  23.291  11.122
16736W        W89062   5.236  41.061  12.971
16737W        W89063  30.446  16.598  12.791
16738W        W89064  25.799   0.951   0.851
16739W        W89065  40.299  28.429   4.712
16740W        W89066   8.111  39.655  12.393
16741W        W89067  27.954  42.140   3.234
16742W        W89068  17.126  26.933  12.803
16743W        W89069  33.770  18.128   0.963
16744W        W89070  17.535  21.060   1.087
16745W        W89071  22.525  23.067   0.859
16746W        W89072  41.688  39.914  14.465
16747W        W89073  40.845  35.676  14.518
16748W        W89074  21.360  26.642  11.521
16749W        W89075  36.877  33.637  13.424
16750W        W89076  10.662   5.819  14.581
16751W        W89077   4.659  39.180  12.872
16752W        W89078  38.612  37.606   5.012
16753W        W89079  27.233   7.199   3.332
16754W        W89080  44.702   0.338  11.461
16755W        W89081  17.842  29.980  14.849
16756W        W89082  39.832   1.724  13.540
16757W        W89083  20.559  28.117   1.823
16758W        W89084  14.298  33.154   0.341
16759W        W89085  28.518  22.599  14.301
16760W        W89086   0.210  38.467   1.375
16761W        W89087   8.395  23.795   2.364
16762W        W89088  14.349   9.105   3.497
16763W        W89089  22.096  35.765  12.488
16764W        W89090  13.741  42.303  11.566
16765W        W89091  24.118  19.066  10.940
16766W        W89092  36.465  43.999   3.308
16767W        W89093  21.654  39.132   1.368
16768W        W89094  38.588  35.645   2.208
16769W        W89095  19.580   3.854   3.871
16770W        W89096   5.929   0.454   1.241
16771W        W89097  15.704  27.112  11.045
16772W        W89098   9.365  27.403   3.579
16773W        W89099  40.937  12.250  11.845
16774W        W89100  13.287  29.899   4.425
16775W        W89101   0.422  13.639  11.363
16776W        W89102  15.371  16.334   4.145
16777W        W89103   0.964  43.087  14.477
16778W        W89104  32.045  11.208  11.379
16779W        W89105  29.693  18.807   3.233
16780W        W89106   3.094  17.042  11.331
16781W        W89107  23.281  10.569   4.506
16782W        W89108  21.378  26.024   3.824
16783W        W89109  35.360  22.140  13.361
16784W        W89110  41.356  42.109  12.564
16785W        W89111  31.474  14.687  12.141
16786W        W89112  30.208   4.876   3.638
16787W        W89113  32.980  14.213  12.680
16788W        W89114  38.910  40.416  12.079
16789W        W89115  16.821  28.427   3.125
16790W        W89116   9.675  25.130   1.148
16791W        W89117  23.864  21.150   1.400
16792W        W89118  32.187  16.247  10.727
16793W        W89119   1.897   6.001   0.053
16794W        W89120   1.677  16.305   1.623
16795W        W89121  43.425  34.594   5.403
16796W        W89122  30.658  22.552  12.570
16797W        W89123   7.142  23.943  13.551
16798W        W89124  42.028  31.633  11.153
16799W        W89125  37.373   3.528  13.467
16800W        W89126  40.942  42.417   0.389
16801W        W89127  28.663  18.996   2.751
16802W        W89128  24.401  19.348   4.221
16803W        W89129   8.597  17.040  12.780
16804W        W89130  23.118  39.461   2.288
16805W        W89131   3.233  20.173   4.629
16806W        W89132   3.445  14.702   1.990
16807W        W89133  27.016  15.362   0.881
16808W        W89134   0.797   0.972   4.606
16809W        W89135  25.778   9.409  13.411
16810W        W89136   4.300  14.263   5.016
16811W        W89137  32.959  39.693   0.296
16812W        W89138  13.297  20.714  13.873
16813W        W89139   9.120  43.383  13.437
16814W        W89140  27.652  21.495   2.476
16815W        W89141  20.565  40.599  13.298
16816W        W89142   2.273  10.622  10.584
16817W        W89143  20.134   0.735  11.075
16818W        W89144  38.460   9.605   2.823
16819W        W89145  32.969   9.096   4.607
16820W        W89146  39.038  31.105  13.768
16821W        W89147  31.897  16.661  13.094
16822W        W89148  27.622  31.552  12.361
16823W        W89149  42.414   6.951   2.191
16824W        W89150   2.384  31.142  11.587
16825W        W89151  36.031  44.650   0.650
16826W        W89152  11.692  18.669  10.493
16827W        W89153  35.500   8.736  14.417
16828W        W89154  12.639  26.953   0.921
16829W        W89155  43.370  16.251   0.259
16830W        W89156  15.080   4.994  12.512
16831W        W89157  22.179  29.895   3.077
16832W        W89158  42.851  36.015  12.186
16833W        W89159  33.157  15.058  10.454
16834W        W89160  25.543   4.692  10.990
16835W        W89161  21.270  32.961   0.389
16836W        W89162  35.508   8.414   4.140
16837W        W89163  40.688  29.517  11.241
16838W        W89164  43.664  36.150   3.527
16839W        W89165  38.355   6.698   0.755
16840W        W89166  20.143  17.634   4.036
16841W        W89167  35.321  43.462  11.075
16842W        W89168  16.785  17.526   4.737
16843W        W89169  32.639  16.340   4.462
16844W        W89170  34.876   9.110  13.697
16845W        W89171   6.652  41.412  11.386
16846W        W89172  12.341  24.938   3.798
16847W        W89173  17.295  33.024   1.793
16848W        W89174  36.072  19.670   4.899
16849W        W89175  28.917  26.107  10.513
16850W        W89176   8.789   3.800   0.207
16851W        W89177  25.255  12.183  12.450
16852W        W89178   9.481   1.880  12.520
16853W        W89179  22.660   7.712   4.150
16854W        W89180  26.544  41.849   0.317
16855W        W89181  26.705  38.880  13.154
16856W        W89182  23.329  15.148  14.895
16857W        W89183  16.199  31.991   2.884
16858W        W89184  18.220   1.280  13.819
16859W        W89185   5.744  44.045   4.183
16860W        W89186  21.318   3.270  14.328
16861W        W89187   9.366  22.621  13.343
16862W        W89188  30.359  40.028  13.340
16863W        W89189  33.128  17.227  10.544
16864W        W89190  41.877   1.423   1.726
16865W        W89191  25.020  27.914  13.901
16866W        W89192  26.428  20.056   4.048
16867W        W89193  11.130  35.265  12.579
16868W        W89194  44.622  11.611  10.982
16869W        W89195  31.470  22.817  14.959
16870W        W89196   8.816  17.189   0.419
16871W        W89197  25.914  42.557  13.145
16872W        W89198  27.381  23.253   2.262
16873W        W89199  31.494  15.556   3.107
16874W        W89200  25.673  37.065   2.611
16875W        W89201  23.795   8.252  14.116
16876W        W89202  11.293   6.463   1.133
16877W        W89203  12.781   1.315   3.800
16878W        W89204  26.451   9.777  13.814
16879W        W89205  20.068  36.409  12.952
16880W        W89206   9.843   8.851  14.324
16881W        W89207  19.924   3.153  14.695
16882W        W89208  10.630  20.747   2.367
16883W        W89209  42.545  44.434   5.010
16884W        W89210  12.553   6.479  10.971
16885W        W89211  24.490  19.658   3.554
16886W        W89212  24.950   2.847   1.335
16887W        W89213  22.959  30.688   4.915
16888W        W89214  32.972  27.832  13.504
16889W        W89215  15.899  42.050  11.125
16890W        W89216  36.349  35.361   2.007
16891W        W89217  42.738  42.504   1.241
16892W        W89218   9.727  40.931   3.379
16893W        W89219  20.267  31.082  13.518
16894W        W89220   9.170  36.634  13.048
16895W        W89221  26.314   1.865  11.121
16896W        W89222  43.676  19.815   3.342
16897W        W89223   4.848   3.777   0.723
16898W        W89224   5.477  43.468   2.292
16899W        W89225   5.206  34.547  13.357
16900W        W89226  38.056  18.126   2.197
16901W        W89227  34.516  31.638  14.140
16902W        W89228  11.872  22.782   0.891
16903W        W89229  11.673   4.927   1.774
16904W        W89230  37.996   3.813  11.089
16905W        W89231  40.357   0.271  12.398
16906W        W89232  31.436   4.863   1.924
16907W        W89233  17.565  38.298   0.364
16908W        W89234   6.762  38.309  13.267
16909W        W89235   6.228  15.421  14.929
16910W        W89236  39.860  29.225  11.589
16911W        W89237  25.755   7.459  14.773
16912W        W89238  14.706  21.338  13.882
16913W        W89239  26.898   4.671  11.311
16914W        W89240   5.859   5.629   4.127
16915W        W89241  16.185   9.965  13.596
16916W        W89242  16.520  27.609   2.336
16917W        W89243   1.823  34.675  13.855
16918W        W89244  27.922  13.213   2.841
16919W        W89245  23.850  15.199  13.459
16920W        W89246  26.359  18.019   4.727
16921W        W89247  31.100  28.855   1.433
16922W        W89248   2.142  15.679   3.701
16923W        W89249  40.337  32.355  11.468
16924W        W89250  38.863  16.650   4.184
16925W        W89251  30.266  16.500   0.205
16926W        W89252  22.786  16.203  11.424
16927W        W89253   5.457  41.346  13.350
16928W        W89254  26.555  23.788   4.547
16929W        W89255  16.606  29.940   4.359
16930W        W89256   1.532  14.701   4.880
16931W        W89257   9.271  10.407   3.683
16932W        W89258   7.678  11.009  13.281
16933W        W89259  35.105   3.261   4.074
16934W        W89260   3.432  17.345  13.857
16935W        W89261  37.067  10.718   2.278
16936W        W89262  24.516  34.940  12.558
16937W        W89263   7.435  11.572  12.440
16938W        W89264  28.090  22.906   0.906
16939W        W89265  37.419  16.821  14.326
16940W        W89266   7.358  22.522   1.627
16941W        W89267  23.739  35.199   3.340
16942W        W89268  32.656  42.956  10.586
16943W        W89269  43.240  16.625   1.813
16944W        W89270  17.811  23.973   1.393
16945W        W89271  17.328  20.272   2.770
16946W        W89272   7.604   3.481   9.893
16947W        W89273   1.900  19.804   0.100
16948W        W89274  30.436  28.800  11.916
16949W        W89275  14.649  18.797   3.664
16950W        W89276  34.147  14.115   2.369
16951W        W89277  10.115   8.104   0.764
16952W        W89278  19.103   8.383  11.221
16953W        W89279  40.874   8.571   1.365
16954W        W89280   0.760  35.961   0.195
16955W        W89281  10.209  31.073  13.450
16956W        W89282  14.929  40.513  13.347
16957W        W89283   7.055  31.544   3.683
16958W        W89284  22.129  19.337  10.616
16959W        W89285  39.779   8.621  14.400
16960W        W89286  28.837  37.613  11.496
16961W        W89287   6.460   5.053   2.726
16962W        W89288  27.682   5.247  13.117
16963W        W89289  21.086  37.782  11.593
16964W        W89290  28.164   5.802   2.732
16965W        W89291   1.247  39.512   2.430
16966W        W89292   3.425   9.511   2.183
16967W        W89293  28.709  10.974   3.648
16968W        W89294   6.270  11.657  12.006
16969W        W89295   1.469   2.163   3.902
16970W        W89296  27.062   7.176   1.300
16971W        W89297  42.541  29.397  13.343
16972W        W89298  36.130  10.693   3.346
16973W        W89299   9.905   9.720  13.913
16974W        W89300  10.798  23.587   0.773
16975W        W89301  20.808  43.190  14.353
16976W        W89302  42.058  17.079   0.279
16977W        W89303  21.509   9.995   4.153
16978W        W89304  39.265  35.990  10.881
16979W        W89305  15.388  29.436  11.615
16980W        W89306  35.916  39.378  10.680
16981W        W89307  36.925  35.827   3.207
16982W        W89308  16.750  17.442   2.896
16983W        W89309  24.760  33.525   2.733
16984W        W89310  28.927  33.122  14.238
16985W        W89311  20.693  43.862   3.890
16986W        W89312  13.227  37.383  10.176
16987W        W89313  18.269  11.393   4.751
16988W        W89314   6.652  35.459   4.323
16989W        W89315  15.727  35.420  14.202
16990W        W89316  13.656  37.045   1.718
16991W        W89317  21.778  36.798   0.868
16992W        W89318  36.469  24.219   0.858
16993W        W89319  22.460  25.977  12.859
16994W        W89320  44.970  33.074   2.151
16995W        W89321  33.808  34.574  11.025
16996W        W89322  16.094  16.807  11.201
16997W        W89323  21.782  42.329   3.746
16998W        W89324  38.862  10.358  14.388
16999W        W89325  13.034  30.469  12.639
17000W        W89326  21.605   2.430   0.253
17001W        W89327   8.867  22.441  13.057
17002W        W89328  40.775  36.059   1.259
17003W        W89329  39.238  41.634  12.274
17004W        W89330   4.743   8.742   2.350
17005W        W89331  13.228  38.463   4.518
17006W        W89332  16.445  43.128   4.241
17007W        W89333   6.290  31.705  14.050
17008W        W89334  11.811   0.537  13.763
17009W        W89335  31.814  21.308  11.090
17010W        W89336  12.510  17.219  13.601
17011W        W89337   3.548  27.501  14.114
17012W        W89338  15.217  43.283   3.284
17013W        W89339   8.830   1.367   1.083
17014W        W89340  14.711   5.116   4.604
17015W        W89341  14.168  27.211   0.422
17016W        W89342  43.025  22.521   1.538
17017W        W89343  12.038  36.023   0.922
17018W        W89344   5.068   5.833   1.798
17019W        W89345  42.472  13.539  10.385
17020W        W89346  26.004  20.554   0.811
17021W        W89347  24.519   0.873   0.256
17022W        W89348  36.168  37.804  14.392
17023W        W89349  12.854  27.359  12.396
17024W        W89350  23.710  27.609  11.137
17025W        W89351  44.229  38.828   5.044
17026W        W89352  15.743  13.293   0.417
17027W        W89353  24.225   6.160   2.352
17028W        W89354  12.561  38.368  11.985
17029W        W89355   2.477  39.361  11.521
17030W        W89356   4.258  26.698  10.491
17031W        W89357  19.211  18.570   0.332
17032W        W89358  14.728  14.014  10.728
17033W        W89359  28.449  41.124  14.697
17034W        W89360  42.532   3.226   3.167
17035W        W89361  17.730   0.291  12.922
17036W        W89362  35.482   8.727   0.967
17037W        W89363  13.133  40.487  13.963
17038W        W89364   3.766  31.952  12.455
17039W        W89365  26.005  38.919   4.589
17040W        W89366   1.848  35.551  10.447
17041W        W89367  19.590  41.511  14.897
17042W        W89368  22.939  36.938   3.131
17043W        W89369  19.658  25.745  14.649
17044W        W89370  22.177  38.258  12.368
17045W        W89371  30.719  39.848   1.717
17046W        W89372  14.735  35.081   4.549
17047W        W89373  40.388  25.499   2.235
17048W        W89374   6.489   2.838   0.552
17049W        W89375  29.040   9.865  11.559
17050W        W89376  40.920  38.276  11.367
17051W        W89377  39.332  41.691   3.734
17052W        W89378  39.519  39.101   0.956
17053W        W89379  19.602  31.643   2.819
17054W        W89380  21.732  31.622   3.658
17055W        W89381   7.832  33.751   0.000
17056W        W89382  41.344  10.788   3.644
17057W        W89383  27.055  39.682   2.814
17058W        W89384  15.685  15.334  12.131
17059W        W89385  37.284  22.516  14.487
17060W        W89386  22.194   7.706   1.013
17061W        W89387  12.749   9.554  13.491
17062W        W89388   7.235  19.248   3.269
17063W        W89389   3.381  18.790  13.811
17064W        W89390  34.131  22.174  13.929
17065W        W89391   3.446  16.806  13.490
17066W        W89392   3.058  36.355  14.923
17067W        W89393   8.675  12.530  11.650
17068W        W89394  32.918   5.008  13.099
17069W        W89395  20.214  42.382  12.854
17070W        W89396  10.291  15.516   3.669
17071W        W89397  33.164  34.590   0.356
17072W        W89398   7.662  14.208  14.678
17073W        W89399  13.324  31.834   3.625
17074W        W89400  31.859  39.970  12.180
17075W        W89401  12.707   5.170  10.266
17076W        W89402   2.298  26.818   0.008
17077W        W89403  16.607  39.632   1.842
17078W        W89404  21.067   4.270  13.239
17079W        W89405  28.939   0.428   3.376
17080W        W89406  27.458  28.002  12.935
17081W        W89407  18.632  22.129  11.153
17082W        W89408  12.341  32.953   1.325
17083W        W89409  31.744  43.712  11.227
17084W        W89410  35.771  42.080  14.144
17085W        W89411  12.953  12.979   0.516
17086W        W89412  14.870  27.146   5.707
17087W        W89413  20.724   6.682   0.863
17088W        W89414   3.027   6.101  11.988
17089W        W89415  18.063  12.037   3.394
17090W        W89416  22.779  34.959  12.134
17091W        W89417  38.259   6.184  11.621
17092W        W89418   8.399  23.641   2.864
17093W        W89419  20.026   3.833   1.793
17094W        W89420  23.161   0.059  11.875
17095W        W89421  12.454  30.239  11.440
17096W        W89422  19.262  41.327   4.910
17097W        W89423   4.787  34.002  14.282
17098W        W89424  12.541  42.041  14.948
17099W        W89425   7.710  37.518  11.652
17100W        W89426  12.333   3.446  12.107
17101W        W89427  28.163  12.401   1.253
17102W        W89428  37.143  32.096   1.001
17103W        W89429  31.057  30.380   1.893
17104W        W89430  17.760   2.204  11.086
17105W        W89431  24.818   6.973  12.924
17106W        W89432  12.620  10.394  13.853
17107W        W89433  43.251  15.675   1.969
17108W        W89434  41.243  25.223  10.925
17109W        W89435   3.956   1.461   3.622
17110W        W89436  24.814  21.153   3.649
17111W        W89437   3.172  35.171   3.243
17112W        W89438  42.400  32.338   0.482
17113W        W89439  15.916  44.049   0.707
17114W        W89440  15.748   0.903  13.855
17115W        W89441  34.443  18.552   3.282
17116W        W89442  25.174   7.712   2.469
17117W        W89443  23.741  43.267   1.764
17118W        W89444  34.510  38.292  13.800
17119W        W89445  10.740  17.737   4.653
17120W        W89446  11.725  36.604  13.986
17121W        W89447   6.266  34.203  12.410
17122W        W89448  28.479   6.349   1.297
17123W        W89449  24.213  40.268   2.679
17124W        W89450  20.105  30.555  11.203
17125W        W89451  23.224  34.822   3.755
17126W        W89452  26.010  10.392  10.686
17127W        W89453  14.725  19.574   3.209
17128W        W89454  35.376  10.697  13.572
17129W        W89455  22.672  23.479   1.432
17130W        W89456  20.454  34.536   4.247
17131W        W89457  23.549  30.543   3.583
17132W        W89458  13.437  35.675  10.253
17133W        W89459  26.899  39.762  12.106
17134W        W89460  34.261  10.174   4.596
17135W        W89461  23.511  41.867  12.541
17136W        W89462   5.877   2.733  10.661
17137W        W89463  22.113   5.444   3.695
17138W        W89464  37.998   1.974   1.252
17139W        W89465  36.095   3.201   1.817
17140W        W89466  15.217  14.535  13.042
17141W        W89467  39.064  12.170  12.991
17142W        W89468  25.560  30.071   4.244
17143W        W89469  35.511   2.646   1.280
17144W        W89470  41.868  23.889   0.361
17145W        W89471   7.573  32.935  11.212
17146W        W89472  32.614  24.456   2.293
17147W        W89473  12.806  22.751   3.110
17148W        W89474  29.425  15.803   2.133
17149W        W89475  25.203  15.432  13.087
17150W        W89476   9.828  39.980  12.891
17151W        W89477  40.808  12.538   3.717
17152W        W89478  18.121  24.723  13.212
17153W        W89479  22.693  18.338   0.547
17154W        W89480  19.492  31.063   2.815
17155W        W89481  35.360  39.888   3.182
17156W        W89482   5.255  13.379  13.818
17157W        W89483  16.177   8.834  14.792
17158W        W89484   7.886   9.376   1.583
17159W        W89485  35.875  21.223   0.901
17160W        W89486  39.360  38.523   2.358
17161W        W89487  36.865  38.767   2.205
17162W        W89488   0.666  32.593   0.237
17163W        W89489  12.378   1.107   3.336
17164W        W89490  10.052  10.182   2.457
17165W        W89491  21.604  20.308   0.892
17166W        W89492   7.628  38.480  13.532
17167W        W89493  16.253  11.679   1.402
17168W        W89494   9.191  33.597  13.512
17169W        W89495  17.348  42.614   9.961
17170W        W89496  24.970  17.005  12.603
17171W        W89497  31.899   0.429   3.374
17172W        W89498   1.771  26.176  10.418
17173W        W89499  36.457  16.674   1.378
17174W        W89500  23.644  34.645  12.066
17175W        W89501   8.955   3.349   2.743
17176W        W89502  20.709  42.331   1.846
17177W        W89503  20.627  12.733  14.278
17178W        W89504   1.979  24.520   2.317
17179W        W89505  37.846  41.211   0.278
17180W        W89506  10.441  38.005  12.421
17181W        W89507  34.368  44.491  14.084
17182W        W89508  17.834  16.773   2.278
17183W        W89509  38.904  33.623   4.155
17184W        W89510  42.179  16.021  14.393
17185W        W89511  14.003  17.792   2.810
17186W        W89512   0.476   0.167  11.265
17187W        W89513  16.020  17.046   0.051
17188W        W89514  43.272   8.360   0.804
17189W        W89515  39.998  38.880   0.153
17190W        W89516   3.754   0.942  13.015
17191W        W89517  16.514  19.706  12.943
17192W        W89518  44.738  28.561  12.844
17193W        W89519   7.582  22.087   0.562
17194W        W89520  16.344  14.538   3.255
17195W        W89521  29.414   7.084  11.473
17196W        W89522   6.409  43.554  11.003
17197W        W89523  13.360   2.891   4.924
17198W        W89524  16.826   3.061   2.359
17199W        W89525   4.766   7.746  14.373
17200W        W89526  33.901  31.405  13.638
17201W        W89527  44.960  41.890  13.432
17202W        W89528  25.114  10.385   1.279
17203W        W89529   5.401  26.147   3.269
17204W        W89530  31.513   2.323   4.994
17205W        W89531  29.687  25.624   1.306
17206W        W89532  38.467  14.866   1.436
17207W        W89533  43.898  40.272  14.924
17208W        W89534  22.237  17.136   0.810
17209W        W89535  43.753  10.395  14.458
17210W        W89536  27.929  32.385  12.657
17211W        W89537  44.496  40.835  10.730
17212W        W89538   6.167  23.796   2.260
17213W        W89539   1.449   0.078   3.357
17214W        W89540   9.388  21.197   3.127
17215W        W89541  28.971   0.127   3.828
17216W        W89542  39.119  28.137   0.652
17217W        W89543  37.514  16.852  10.554
17218W        W89544   4.846  32.143   0.262
17219W        W89545  13.861  26.703  12.508
17220W        W89546   0.807  29.918  14.834
17221W        W89547  29.399  41.812   4.976
17222W        W89548  17.973  30.863  11.990
17223W        W89549  31.061  24.947   1.375
17224W        W89550   6.784  44.967  13.397
17225W        W89551   9.584   7.209  14.908
17226W        W89552  25.777  22.737   1.189
17227W        W89553  21.579  34.623  11.086
17228W        W89554  38.029  18.993  10.975
17229W        W89555  40.860  44.909   3.940
17230W        W89556   6.192  22.465  12.087
17231W        W89557  24.163  17.597   2.009
17232W        W89558   7.712  27.950  12.865
17233W        W89559   0.984  21.134  11.988
17234W        W89560   8.197  12.238  14.056
17235W        W89561  21.812  33.524   4.155
17236W        W89562  12.732   2.176   4.247
17237W        W89563   1.447  34.388   3.879
17238W        W89564  15.186  12.626  13.354
17239W        W89565  20.273   7.215   4.961
17240W        W89566  23.005  26.270   2.178
17241W        W89567  23.361  34.214   4.922
17242W        W89568  15.694  36.393   0.041
17243W        W89569  21.614  34.032   2.190
17244W        W89570  42.951  31.164  14.001
17245W        W89571  40.754  39.449   2.284
17246W        W89572  19.575  25.074   4.612
17247W        W89573  39.597  11.603  14.371
17248W        W89574   2.744   2.266   3.711
17249W        W89575  22.281   3.327  14.371
17250W        W89576  37.823  33.402  12.040
17251W        W89577  17.265  16.275   3.712
17252W        W89578  35.430  30.623   0.017
17253W        W89579  39.254  36.145  11.364
17254W        W89580  24.073  39.859   0.266
17255W        W89581   5.208   7.459  14.840
17256W        W89582  19.722  38.274  14.847
17257W        W89583  41.089  12.493  14.005
17258W        W89584  37.347  32.130  14.083
17259W        W89585  14.569   5.677   1.447
17260W        W89586   4.916  39.313  10.728
17261W        W89587   0.852  40.761   2.746
17262W        W89588   7.832   6.439   3.983
17263W        W89589  24.761  15.836   2.226
17264W        W89590  12.882  32.158  10.670
17265W        W89591   3.804  33.403   1.318
17266W        W89592  21.076  19.504   1.050
17267W        W89593   3.936  39.473   4.705
17268W        W89594  12.873   8.716  11.027
17269W        W89595  28.218  17.163   2.713
17270W        W89596  12.852  16.635  13.423
17271W        W89597   0.763  26.507  11.750
17272W        W89598  21.008  13.334  13.043
17273W        W89599   6.906  32.036  10.473
17274W        W89600  30.629  27.750   1.704
17275W        W89601  19.770  16.073  10.749
17276W        W89602  33.991  32.380  13.306
17277W        W89603  20.279  43.403   0.942
17278W        W89604  25.616  37.446   2.267
17279W        W89605  22.532   8.525   3.126
17280W        W89606  43.604  15.625  12.441
17281W        W89607  29.443  23.021   1.649
17282W        W89608  44.513  43.704  11.216
17283W        W89609  32.999   1.117  14.332
17284W        W89610  41.625  24.678  14.862
17285W        W89611  10.800  20.894  11.582
17286W        W89612  24.253   5.173  13.527
17287W        W89613  10.624  23.246   3.610
17288W        W89614  12.729  17.793  14.055
17289W        W89615  12.356  42.959   0.274
17290W        W89616  13.209   1.302   2.350
17291W        W89617   9.324  25.545  13.590
17292W        W89618   4.689  37.936  14.169
17293W        W89619  15.291  26.031   1.646
17294W        W89620  29.906  34.919   2.510
17295W        W89621  27.202  42.976   3.297
17296W        W89622  11.273  32.933  11.963
17297W        W89623  34.173  17.643   4.212
17298W        W89624   7.425  44.070  14.086
17299W        W89625  21.312  17.798   3.311
17300W        W89626  15.702  34.539   4.843
17301W        W89627   9.930   5.203  14.372
17302W        W89628  17.174  24.730  14.458
17303W        W89629  24.937  14.525   4.089
17304W        W89630  11.550  23.084  12.466
17305W        W89631  42.738  22.960   1.607
17306W        W89632  23.271  14.367   5.371
17307W        W89633   9.189  11.279  11.062
17308W        W89634  24.195   5.883  11.408
17309W        W89635   3.858  38.873  10.054
17310W        W89636   8.645  40.451  13.931
17311W        W89637   4.425   3.414   3.831
17312W        W89638  24.054  42.309  14.829
17313W        W89639  43.230   6.348  12.254
17314W        W89640  15.217  12.612   0.416
17315W        W89641  12.758   7.703   1.310
17316W        W89642  27.443  36.310   0.745
17317W        W89643  29.207  44.058  10.865
17318W        W89644  22.381  14.209   2.793
17319W        W89645  19.813  13.239   0.025
17320W        W89646   3.335  34.686  11.115
17321W        W89647  10.364  10.424   2.788
17322W        W89648  10.988  24.461   0.895
17323W        W89649  33.845   1.958  12.035
17324W        W89650  33.213  31.742  10.405
17325W        W89651  44.436  17.071   0.506
17326W        W89652  22.511  24.498  13.319
17327W        W89653  42.924  26.893   3.842
17328W        W89654  28.821  15.140   2.234
17329W        W89655   2.943  18.146  11.225
17330W        W89656  13.588   0.909   1.345
17331W        W89657  41.560  36.431   0.178
17332W        W89658  28.124   1.954  10.812
17333W        W89659  15.123   6.720   0.557
17334W        W89660  40.857  38.410  12.315
17335W        W89661  16.649  41.454   1.310
17336W        W89662  32.094  24.505  14.962
17337W        W89663  36.382   1.929  10.329
17338W        W89664  39.351  22.094   2.272
17339W        W89665  24.966  42.320  11.922
17340W        W89666  27.163  42.221  14.568
17341W        W89667  22.877  27.774   4.047
17342W        W89668  37.615  21.237   1.165
17343W        W89669  10.777  43.400   1.080
17344W        W89670  19.654  43.739   4.212
17345W        W89671  24.765  38.981   4.230
17346W        W89672   9.256   0.720   1.886
17347W        W89673  44.340  28.208   4.459
17348W        W89674  12.598  37.783  14.322
17349W        W89675  10.435  38.638  11.728
17350W        W89676  16.816  43.008  12.862
17351W        W89677  44.373  20.626   2.454
17352W        W89678  22.032  29.211  14.745
17353W        W89679  33.601  27.894   3.659
17354W        W89680  10.403  16.135   3.420
17355W        W89681  39.046  15.594  13.503
17356W        W89682   9.946  40.816   2.240
17357W        W89683   2.756  33.537  14.068
17358W        W89684  38.313  30.114   0.022
17359W        W89685  24.266  38.756  10.231
17360W        W89686  36.972  17.136   3.377
17361W        W89687  27.136  44.341  11.879
17362W        W89688  16.634  24.185   2.961
17363W        W89689  15.299   4.771   0.320
17364W        W89690  28.973  20.498   2.748
17365W        W89691   0.212  31.092  10.741
17366W        W89692  15.186  25.077  14.078
17367W        W89693  16.231  26.550  11.614
17368W        W89694   5.487  15.419  14.127
17369W        W89695   8.401  43.312  11.537
17370W        W89696  42.483  32.703  13.294
17371W        W89697  34.569   7.677   1.031
17372W        W89698  15.026  14.215   1.874
17373W        W89699   8.611  14.634  14.769
17374W        W89700  21.987  39.537  10.503
17375W        W89701  34.015  24.535   2.343
17376W        W89702  24.432  42.407   0.648
17377W        W89703   1.194  41.525   2.353
17378W        W89704   8.609   5.601   3.626
17379W        W89705  29.385  17.591   0.880
17380W        W89706  43.320  24.959   5.023
17381W        W89707  22.712  42.079   2.137
17382W        W89708   6.177  17.863   5.039
17383W        W89709  34.486  16.240   4.139
17384W        W89710  34.867  10.248   3.212
17385W        W89711  21.734  26.773   3.747
17386W        W89712  30.059  14.903  12.053
17387W        W89713  13.719  43.733   3.411
17388W        W89714  37.911  39.881  14.587
17389W        W89715   7.461   2.284  11.316
17390W        W89716  43.990  28.616  10.387
17391W        W89717  18.316  38.522  12.335
17392W        W89718  10.687  40.584   0.845
17393W        W89719  19.999   5.329  14.834
17394W        W89720  15.218  33.046   2.359
17395W        W89721  43.739  18.244   2.274
17396W        W89722   2.059  25.608  14.313
17397W        W89723  41.376  24.231   2.778
17398W        W89724  40.441   0.943   4.801
17399W        W89725  24.565   6.149  13.909
17400W        W89726   9.848  39.387   1.387
17401W        W89727  25.914  34.720  12.032
17402W        W89728  34.979  15.694   2.438
17403W        W89729  12.155  28.932  13.455
17404W        W89730   2.436  17.102   3.078
17405W        W89731  16.031  41.585   1.933
17406W        W89732  35.127  43.779  13.963
17407W        W89733  13.335  13.751   2.123
17408W        W89734   0.353  28.432   3.901
17409W        W89735  18.286   9.183  14.895
17410W        W89736  23.047  37.441  10.986
17411W        W89737  22.606   7.331  12.570
17412W        W89738   3.260  32.860  12.983
17413W        W89739   7.916  26.703  10.031
17414W        W89740  43.164  31.592   0.483
17415W        W89741  33.544  19.195  14.044
17416W        W89742  13.614  12.807  14.782
17417W        W89743   9.145  20.979  14.328
17418W        W89744  13.897  18.577   2.274
17419W        W89745  24.139  17.854   0.233
17420W        W89746  29.018   0.035  14.848
17421W        W89747  42.335  41.412   1.459
17422W        W89748  29.093  42.136   2.206
17423W        W89749  12.714  40.513   2.434
17424W        W89750   6.407  12.614  11.964
17425W        W89751  10.634  40.962   0.011
17426W        W89752  12.166  19.320   1.427
17427W        W89753  33.708  37.361   1.899
17428W        W89754  23.113  12.077  12.061
17429W        W89755   9.760  12.801  10.700
17430W        W89756  24.366  32.774   2.664
17431W        W89757  14.734  19.333  11.535
17432W        W89758  13.211  37.243   3.384
17433W        W89759   3.380  20.056   4.133
17434W        W89760   9.813  40.723  14.470
17435W        W89761   0.632   5.450  11.695
17436W        W89762  10.071  28.671   4.687
17437W        W89763  21.272  43.529  11.909
17438W        W89764  14.410  41.267  11.637
17439W        W89765  26.915  30.388   1.539
17440W        W89766   4.425  10.252  11.195
17441W        W89767  30.775  35.080  13.924
17442W        W89768   3.273   1.536  13.527
17443W        W89769  20.296  16.241  13.782
17444W        W89770  27.992   0.782   1.800
17445W        W89771  12.902  42.950  10.890
17446W        W89772  40.509  44.296   1.784
17447W        W89773   5.276  36.361  11.594
17448W        W89774  14.233   3.389   3.748
17449W        W89775  31.438   0.418   0.823
17450W        W89776  11.296  27.884  14.868
17451W        W89777  18.403   4.275   3.231
17452W        W89778  18.988   3.539   4.718
17453W        W89779  36.727  35.071   2.791
17454W        W89780  35.136   0.900  10.546
17455W        W89781   3.756  23.913   2.312
17456W        W89782   2.621  38.455   0.810
17457W        W89783  14.556  42.260   0.402
17458W        W89784  25.309   2.899  10.621
17459W        W89785   5.380  35.622   1.900
17460W        W89786  41.853  39.302  11.199
17461W        W89787  26.071  31.976  10.598
17462W        W89788  40.310   9.342   4.319
17463W        W89789   0.038  10.311  13.340
17464W        W89790  33.339  44.258  10.741
17465W        W89791  30.063   0.221   1.773
17466W        W89792  20.289  36.372   3.325
17467W        W89793   0.441  14.682  14.710
17468W        W89794  37.568   0.779   0.409
17469W        W89795  20.565  35.909  13.897
17470W        W89796  18.865  41.509   2.299
17471W        W89797  22.026  41.887   0.813
17472W        W89798  11.572   1.228  11.055
17473W        W89799  17.612   3.632   2.695
17474W        W89800   7.940  14.521  13.587
17475W        W89801  18.011  21.308  12.759
17476W        W89802  16.296  43.046  12.880
17477W        W89803  21.539  16.162  13.981
17478W        W89804  44.219   1.834   9.847
17479W        W89805   0.215   7.959   1.400
17480W        W89806  21.298   4.164   4.654
17481W        W89807  13.203  30.843  14.034
17482W        W89808   0.298   8.681  10.664
17483W        W89809  31.148  25.396   2.750
17484W        W89810  25.849  31.090   2.210
17485W        W89811  20.791  13.276  12.526
17486W        W89812  17.638  32.201   0.888
17487W        W89813  11.555   6.530   0.358
17488W        W89814   3.315  17.530  10.546
17489W        W89815  18.422  10.011  14.903
17490W        W89816  39.673  42.498   0.393
17491W        W89817  22.214  22.549   1.332
17492W        W89818  14.830  22.524  11.231
17493W        W89819  40.834   5.398   2.712
17494W        W89820   2.886  41.876   3.790
17495W        W89821  43.944  17.402  10.914
17496W        W89822  21.896  23.389   1.482
17497W        W89823  18.844  11.185  13.449
17498W        W89824  24.790   2.457  12.063
17499W        W89825  35.797  31.195   4.003
17500W        W89826  43.346  42.867   0.566
17501W        W89827  30.588  17.524  12.783
17502W        W89828   6.432  16.850   2.295
17503W        W89829  42.281  40.888  11.143
17504W        W89830  22.222   4.287  14.457
17505W        W89831  18.309  44.939  14.863
17506W        W89832  33.736  22.674  13.104
17507W        W89833  23.789   5.746  10.626
17508W        W89834  22.659  27.790   1.361
17509W        W89835  18.107  43.573   4.490
17510W        W89836  44.365  41.780   0.973
17511W        W89837   0.737   3.348  13.889
17512W        W89838  30.345  40.502  12.459
17513W        W89839  34.953  43.996   1.828
17514W        W89840  19.177  20.221  13.057
17515W        W89841  22.733   0.093  13.967
17516W        W89842  30.011  44.401  12.113
17517W        W89843  29.438  39.917   3.804
17518W        W89844  40.837  37.410   2.885
17519W        W89845  16.164  19.271  13.272
17520W        W89846  34.146   7.179  14.250
17521W        W89847  30.223  17.292  14.879
17522W        W89848  12.646  37.477   4.563
17523W        W89849   6.814  35.472  13.356
17524W        W89850  44.593  33.227  11.506
17525W        W89851  29.445  32.311  13.851
17526W        W89852  18.647  23.231   1.421
17527W        W89853  21.940  25.030  13.091
17528W        W89854  20.880  26.032   1.737
17529W        W89855  17.916   4.333   3.068
17530W        W89856  12.780   4.753   3.189
17531W        W89857  34.416  42.765  13.414
17532W        W89858  40.612  29.541   2.768
17533W        W89859  29.316   4.175  11.063
17534W        W89860  12.949  12.642  10.517
17535W        W89861  35.823  36.577  13.889
17536W        W89862   9.688  36.860  12.454
17537W        W89863  28.453  18.539   0.192
17538W        W89864  23.963  13.246  11.048
17539W        W89865   5.318  44.084   2.803
17540W        W89866  34.377  17.691  12.362
17541W        W89867  13.018   3.390  11.638
17542W        W89868  26.332  12.238   4.052
17543W        W89869  35.096   1.777   2.869
17544W        W89870  17.695  40.705   3.813
17545W        W89871  11.336  25.590  10.637
17546W        W89872  19.619  12.278   2.203
17547W        W89873  44.981   8.782   0.444
17548W        W89874  40.921  24.394   0.265
17549W        W89875  15.687  23.622   0.696
17550W        W89876  27.940  26.445   3.675
17551W        W89877  24.171  18.177  10.494
17552W        W89878  36.344  15.605  14.368
17553W        W89879  24.969  15.562   1.829
17554W        W89880  24.791  43.456  13.033
17555W        W89881  33.119   7.764  13.448
17556W        W89882  35.532   1.608  11.971
17557W        W89883  34.669   1.376   3.680
17558W        W89884  35.472  19.017   0.322
17559W        W89885   8.169  11.307  13.452
17560W        W89886  17.628   6.851   2.902
17561W        W89887  37.772  24.573   4.574
17562W        W89888  42.164  21.141   3.155
17563W        W89889  20.311  17.725  14.592
17564W        W89890  32.433  15.266   1.603
17565W        W89891   7.952  13.637  11.491
17566W        W89892  22.593  34.955  14.803
17567W        W89893   2.644  15.097  13.767
17568W        W89894  31.922   5.084  11.061
17569W        W89895   6.308  41.750   3.057
17570W        W89896  41.088   9.120   3.997
17571W        W89897  26.658  44.434  12.503
17572W        W89898   7.807  35.713   1.008
17573W        W89899  10.913  22.505   3.309
17574W        W89900  12.408  33.982  14.498
17575W        W89901  38.581   0.994  12.852
17576W        W89902  28.830   0.504   4.603
17577W        W89903   0.276  34.837   0.806
17578W        W89904  25.702  35.517  12.351
17579W        W89905  10.109  38.740   3.054
17580W        W89906  16.596  13.589  13.466
17581W        W89907  13.062  33.481   2.176
17582W        W89908  22.596  19.109  10.531
17583W        W89909  10.837  24.188  14.020
17584W        W89910  14.682  11.170   2.641
17585W        W89911  20.152   5.313  11.177
17586W        W89912  14.859  17.142  10.355
17587W        W89913  20.639   1.455  11.508
17588W        W89914  32.942  36.125   4.782
17589W        W89915   1.168   5.806  14.533
17590W        W89916  27.170  29.377  13.011
17591W        W89917  10.948  40.704   1.944
17592W        W89918  10.847  12.147   4.731
17593W        W89919  36.405  32.541   4.974
17594W        W89920  32.044   8.397   1.149
17595W        W89921  24.036  21.172   4.131
17596W        W89922  25.171  27.193   4.244
17597W        W89923  38.806  43.870   3.135
17598W        W89924  34.865  30.100   2.272
17599W        W89925  35.655  32.533  14.001
17600W        W89926  40.729  23.189  11.258
17601W        W89927   7.405  27.124  12.551
17602W        W89928  31.911  20.617   1.650
17603W        W89929  28.689  41.759  13.995
17604W        W89930  15.629   4.727  12.579
17605W        W89931  26.583  13.816  13.067
17606W        W89932  38.506  27.566  12.171
17607W        W89933   0.069  28.709  13.499
17608W        W89934  41.599  20.626   1.479
17609W        W89935  25.873   5.848   4.264
17610W        W89936  38.948   5.771   3.121
17611W        W89937  41.095  39.036   2.274
17612W        W89938  10.390  11.477  14.756
17613W        W89939  17.041  12.388  11.620
17614W        W89940  12.121  29.733  13.860
17615W        W89941  40.280   1.528   3.052
17616W        W89942   6.127   1.716   3.270
17617W        W89943  32.704  32.156  12.060
17618W        W89944  24.270  30.131  12.918
17619W        W89945  11.507  34.219  14.017
17620W        W89946  16.210  35.575  14.391
17621W        W89947  14.697  38.008   4.321
17622W        W89948  24.102   2.193   0.188
17623W        W89949   9.538   1.972   0.015
17624W        W89950   2.690  12.801  12.935
17625W        W89951  16.252  39.269   1.881
17626W        W89952  33.668  19.290   4.146
17627W        W89953  15.258  43.186  13.470
17628W        W89954  27.626  39.436  11.075
17629W        W89955  42.736  29.575   2.285
17630W        W89956   8.011  17.559  13.491
17631W        W89957  38.454  21.029   0.654
17632W        W89958  22.501  13.166  10.671
17633W        W89959  40.260   5.438  11.167
17634W        W89960   7.094  32.396   3.176
17635W        W89961   3.523  40.987   3.189
17636W        W89962  19.313   9.715  12.880
17637W        W89963  17.616  25.144  13.536
17638W        W89964  33.520  37.096  14.002
17639W        W89965  32.956   1.948  12.146
17640W        W89966  14.681  22.721  14.731
17641W        W89967  12.233  14.021  13.858
17642W        W89968  29.156  24.592  11.484
17643W        W89969  21.241  17.610  10.900
17644W        W89970   5.672  37.625   0.787
17645W        W89971  27.730  43.111  11.153
17646W        W89972  15.038  25.542  11.803
17647W        W89973  10.198  31.392   4.815
17648W        W89974  35.629  18.641   3.792
17649W        W89975  15.774  34.519   2.769
17650W        W89976  29.410  38.828   1.753
17651W        W89977  12.088  39.285   3.350
17652W        W89978  43.906  30.734  13.470
17653W        W89979   4.279  19.749  11.658
17654W        W89980  15.900  13.277  14.015
17655W        W89981  14.819  12.816  13.891
17656W        W89982   2.209  26.209   2.809
17657W        W89983  41.212   2.770  10.726
17658W        W89984   0.069  21.808   2.439
17659W        W89985  14.774  26.963  14.324
17660W        W89986   3.483  36.588  14.745
17661W        W89987  24.554  32.406   0.527
17662W        W89988  35.904  38.979  14.704
17663W        W89989  22.884  31.934   1.410
17664W        W89990  32.785   9.609   3.112
17665W        W89991   5.454  19.291  11.590
17666W        W89992  38.452  37.029  11.443
17667W        W89993  11.331  33.186  11.502
17668W        W89994  11.130  29.871  11.108
17669W        W89995   3.387  31.629   3.745
17670W        W89996  16.755   9.087   3.379
17671W        W89997  35.494  29.571  11.562
17672W        W89998   2.816  38.946   0.774
17673W        W89999  32.322  34.982   3.721
17674W        W90000  44.923  23.480  11.967
17675W        W90001  12.508  32.457   1.756
17676W        W90002  12.250  15.828   2.201
17677W        W90003  29.965  27.438   2.544
17678W        W90004  39.045  12.946   5.155
17679W        W90005  12.580  31.417   0.819
17680W        W90006  22.844  38.289   2.292
17681W        W90007  12.266   1.545   3.087
17682W        W90008  35.563  42.793   3.277
17683W        W90009   9.794  33.054   3.044
17684W        W90010  44.079  11.100  10.314
17685W        W90011  36.142  33.093  13.277
17686W        W90012  43.860  39.525   3.635
17687W        W90013  29.030   4.974  11.218
17688W        W90014  29.344  36.706   0.310
17689W        W90015  13.288  21.248  13.960
17690W        W90016  42.454  22.255  13.421
17691W        W90017  39.365   4.821  11.937
17692W        W90018  16.238   2.321  12.478
17693W        W90019   5.954   1.072   2.888
17694W        W90020  14.376  14.752   3.120
17695W        W90021  44.981  22.426  14.577
17696W        W90022   4.310   5.755  11.510
17697W        W90023   5.180  33.361  11.271
17698W        W90024  25.689  43.092  14.431
17699W        W90025  15.563  30.107  14.317
17700W        W90026  29.237  16.757   3.273
17701W        W90027   5.183   2.227  13.388
17702W        W90028  35.016  24.521   2.392
17703W        W90029  14.713  15.786  12.942
17704W        W90030   2.808  32.032   0.393
17705W        W90031   5.975  43.565   2.276
17706W        W90032   3.691  26.596  12.558
17707W        W90033  36.862  41.241  12.607
17708W        W90034   8.861  27.904   3.754
17709W        W90035  38.486  33.363  12.161
17710W        W90036   5.763  39.562  14.505
17711W        W90037  29.245   5.479  11.159
17712W        W90038  13.667  24.385   9.866
17713W        W90039  28.959  13.604  14.195
17714W        W90040  41.283   1.048  11.958
17715W        W90041   3.378  19.216   4.655
17716W        W90042   6.402  42.745  11.182
17717W        W90043   9.829  42.521   4.101
17718W        W90044   2.178  26.122  14.325
17719W        W90045  21.177  29.410  12.965
17720W        W90046   6.972  31.983  12.844
17721W        W90047   4.967  30.936   2.669
17722W        W90048  25.687  34.443   3.697
17723W        W90049  13.621  35.405   4.022
17724W        W90050  18.307  24.290  13.459
17725W        W90051  28.866  28.679  12.369
17726W        W90052  40.363  32.588   0.759
17727W        W90053   1.263  18.217   3.902
17728W        W90054   8.785  33.093   0.326
17729W        W90055  28.150   7.053  12.950
17730W        W90056  20.726  13.223  13.474
17731W        W90057  13.540  17.658  10.646
17732W        W90058  29.124  14.755  13.935
17733W        W90059  19.025  15.564   2.685
17734W        W90060  28.956  44.438   4.657
17735W        W90061   1.740   6.939   0.350
17736W        W90062  10.008  31.584  13.479
17737W        W90063  33.191   6.777  10.499
17738W        W90064   2.887  33.069   1.995
17739W        W90065  25.057  35.416  10.668
17740W        W90066   2.869  33.597   2.398
17741W        W90067  23.826  43.523  12.121
17742W        W90068  25.868  24.508  13.131
17743W        W90069  32.665  26.579  11.019
17744W        W90070  29.473  26.876   5.597
17745W        W90071  24.537  13.373   4.633
17746W        W90072  19.960  43.453  11.002
17747W        W90073  18.667  27.683   2.324
17748W        W90074   1.273  10.910   3.830
17749W        W90075   2.779  17.642  10.649
17750W        W90076  23.912   0.542   4.310
17751W        W90077   4.361   9.181   2.597
17752W        W90078   9.999   6.930   1.409
17753W        W90079  25.924  30.411  12.518
17754W        W90080  25.135  38.013   0.705
17755W        W90081  24.535  34.072  10.580
17756W        W90082   6.809  35.475   2.607
17757W        W90083  18.236  26.054   3.971
17758W        W90084  11.284   1.951  12.034
17759W        W90085  43.730  26.152  14.372
17760W        W90086  35.603  22.437   1.186
17761W        W90087  27.945  27.039  10.363
17762W        W90088  38.326   1.830  11.364
17763W        W90089   0.477   5.273   2.450
17764W        W90090  27.784  14.363  10.730
17765W        W90091  37.535  44.309   0.041
17766W        W90092  35.457  39.881   2.290
17767W        W90093   5.185  29.244  13.355
17768W        W90094  36.758  32.344   0.088
17769W        W90095   3.248  33.727   5.256
17770W        W90096  41.802  21.505   3.211
17771W        W90097  28.966  27.450  13.492
17772W        W90098  25.506  34.413  12.100
17773W        W90099  29.433  25.575   3.409
17774W        W90100  34.141   4.325  12.335
17775W        W90101  19.860   8.656   3.144
17776W        W90102  26.729  21.635   2.160
17777W        W90103  12.620  15.773   4.573
17778W        W90104  36.531  33.445   4.574
17779W        W90105  26.672  30.118   3.990
17780W        W90106   6.714  29.869  12.489
17781W        W90107  32.501   7.180   1.185
17782W        W90108  21.044  42.973   3.969
17783W        W90109  41.454   9.100  14.275
17784W        W90110  22.879  13.223  12.614
17785W        W90111  19.418  14.754  14.592
17786W        W90112  14.890  40.302  14.778
17787W        W90113  34.509  29.217  13.946
17788W        W90114  37.859  22.564   4.635
17789W        W90115  18.056  15.172  13.209
17790W        W90116   5.833  10.753  11.079
17791W        W90117   6.754  29.811   4.959
17792W        W90118  14.722  22.552   2.804
17793W        W90119   9.568  39.451   2.400
17794W        W90120  26.867  21.163  14.406
17795W        W90121   5.464  19.589   2.175
17796W        W90122  25.424  21.620   1.312
17797W        W90123  42.412   8.293  13.768
17798W        W90124  12.565  29.403  11.136
17799W        W90125  22.158   6.931   3.779
17800W        W90126  13.146  24.707   2.221
17801W        W90127   9.712  41.335  12.550
17802W        W90128  34.387  10.449  14.629
17803W        W90129   3.700   5.711  10.501
17804W        W90130  18.816   2.877   0.814
17805W        W90131  27.224   7.871   2.286
17806W        W90132   0.323  35.109  14.037
17807W        W90133  12.274  38.065   2.734
17808W        W90134  43.026   9.461  13.431
17809W        W90135  24.721  29.444   1.951
17810W        W90136  16.078  39.320  14.578
17811W        W90137  42.600   2.276  12.034
17812W        W90138   9.863  20.142   2.250
17813W        W90139  19.081  16.191   0.830
17814W        W90140  44.690  22.178   2.421
17815W        W90141  12.121  15.886   4.492
17816W        W90142   9.171  38.734  13.853
17817W        W90143  19.939   3.188  13.407
17818W        W90144  37.376  27.951   1.379
17819W        W90145   1.845  12.076   1.431
17820W        W90146  29.975  43.501  13.407
17821W        W90147   9.809  23.208  12.791
17822W        W90148   7.644  22.184  13.260
17823W        W90149  44.254   3.766  10.517
17824W        W90150  38.526  15.095   0.966
17825W        W90151  40.561  12.016   1.126
17826W        W90152  23.648   4.150   4.286
17827W        W90153   5.215  16.708  11.376
17828W        W90154  33.760  20.499  13.644
17829W        W90155   0.270  38.785   2.919
17830W        W90156  41.951   9.362  12.913
17831W        W90157  35.326  15.008   4.558
17832W        W90158  14.718  14.535  13.362
17833W        W90159  10.188  32.409  10.533
17834W        W90160   1.254  34.649  11.125
17835W        W90161  35.886  26.252  13.946
17836W        W90162  34.024  12.134  11.624
17837W        W90163  21.486  12.876  11.054
17838W        W90164  26.620   1.399   4.759
17839W        W90165  14.131   3.353   0.730
17840W        W90166  42.472   0.249  10.729
17841W        W90167  27.487  10.204   4.148
17842W        W90168   3.969  23.571   5.512
17843W        W90169  12.732  44.977   2.072
17844W        W90170  10.891   7.367  12.861
17845W        W90171  36.285  39.886   0.054
17846W        W90172  44.334  41.250  13.012
17847W        W90173  27.705  12.878   1.906
17848W        W90174   1.161  28.825   3.500
17849W        W90175   6.784   3.420  12.422
17850W        W90176  35.346   1.327  10.762
17851W        W90177  11.617  43.499   2.170
17852W        W90178   6.436  23.540  10.592
17853W        W90179  14.535  23.448   2.725
17854W        W90180  16.337  25.069   4.693
17855W        W90181   4.763  35.226  11.940
17856W        W90182  36.363  18.200  11.040
17857W        W90183  43.323  31.437  14.214
17858W        W90184  41.275   6.778  14.312
17859W        W90185  12.876  24.943   5.053
17860W        W90186  41.986  43.779   2.817
17861W        W90187  16.277  33.212  12.118
17862W        W90188  32.030   4.673  14.382
17863W        W90189  33.885  43.450   3.238
17864W        W90190  17.705  13.704   0.633
17865W        W90191  39.902  22.298   3.977
17866W        W90192   6.923  14.760  13.494
17867W        W90193   5.915  26.456   0.953
17868W        W90194  35.031  30.297   3.710
17869W        W90195  21.153  15.843   0.471
17870W        W90196  27.094  25.654   2.198
17871W        W90197   7.642  26.873   4.096
17872W        W90198  36.396  33.868   0.582
17873W        W90199  40.415  14.299  12.931
17874W        W90200   8.611  22.668  10.628
17875W        W90201  30.921   6.935  11.127
17876W        W90202  32.825   0.733  14.795
17877W        W90203  25.117  30.094  11.207
17878W        W90204  38.517   0.281   2.375
17879W        W90205  13.864  41.380  12.572
17880W        W90206  21.447  38.866  14.733
17881W        W90207  40.508  32.077  12.764
17882W        W90208  13.395  12.942  12.760
17883W        W90209  39.536  22.882  14.985
17884W        W90210  38.149   8.226  11.885
17885W        W90211  14.582  16.676   0.826
17886W        W90212  36.515   5.305   3.215
17887W        W90213  16.825  38.723   2.370
17888W        W90214   8.363  37.099   4.558
17889W        W90215  19.399  29.847  13.589
17890W        W90216  23.216  15.617   4.167
17891W        W90217  28.121  11.370  14.071
17892W        W90218  33.971  12.467  14.453
17893W        W90219  39.636  30.484  11.450
17894W        W90220  18.384  20.592   3.686
17895W        W90221  36.402  10.274  12.763
17896W        W90222  30.169  17.340   1.723
17897W        W90223   6.699  26.565   1.429
17898W        W90224   1.239  38.041   3.756
17899W        W90225  14.744   8.706  14.336
17900W        W90226   2.470   3.944   0.337
17901W        W90227  20.646   0.202  13.870
17902W        W90228  11.590  36.399   3.821
17903W        W90229  36.414  32.548   3.681
17904W        W90230  37.859  15.225   4.585
17905W        W90231  37.357  28.349  10.996
17906W        W90232  31.919   8.167   2.698
17907W        W90233  27.408  11.312  11.292
17908W        W90234  34.910  26.348   1.812
17909W        W90235   3.405  30.228   0.863
17910W        W90236  19.643  39.473   4.618
17911W        W90237  29.639  31.558  14.507
17912W        W90238  36.661  37.988  14.441
17913W        W90239  44.299  31.025   4.205
17914W        W90240  11.988  34.430  10.124
17915W        W90241  20.247  26.224  10.520
17916W        W90242  15.100   0.259  11.062
17917W        W90243  11.614  12.696  14.929
17918W        W90244  12.451   3.904   4.077
17919W        W90245   1.507  24.949   1.823
17920W        W90246  34.849  30.896   1.861
17921W        W90247  25.529   2.152   1.652
17922W        W90248  42.536   9.898  12.211
17923W        W90249  33.397  21.854  11.732
17924W        W90250  26.428  32.492  13.342
17925W        W90251   4.766  44.993  12.925
17926W        W90252  40.086  17.192   1.738
17927W        W90253  13.175  10.719  14.473
17928W        W90254  14.241  18.750  11.156
17929W        W90255  29.770  10.866   4.354
17930W        W90256  22.028   2.453  10.494
17931W        W90257   8.761  44.349   4.668
17932W        W90258  28.160  21.785  10.057
17933W        W90259   2.975  43.430  13.853
17934W        W90260   8.862  21.666   0.662
17935W        W90261  41.544  18.058  13.794
17936W        W90262  28.577  40.674  13.828
17937W        W90263  25.478  15.189   3.287
17938W        W90264  35.205  40.456  12.945
17939W        W90265  31.434  24.669   2.399
17940W        W90266  31.654  31.628   3.894
17941W        W90267   1.828  36.864  11.513
17942W        W90268   9.888  15.355  14.822
17943W        W90269  17.690  35.058   0.282
17944W        W90270   8.385  23.107  11.603
17945W        W90271  43.784   5.798   1.198
17946W        W90272  37.452  10.437  13.914
17947W        W90273  16.803  20.856  12.487
17948W        W90274  39.682  38.578  11.450
17949W        W90275  44.835   6.748   4.886
17950W        W90276  37.294   1.045  12.007
17951W        W90277  38.017  25.257   0.688
17952W        W90278  41.293   2.832  14.928
17953W        W90279  36.357  16.309   2.671
17954W        W90280  25.310  13.685   1.766
17955W        W90281  38.284  41.009  13.512
17956W        W90282  30.593  21.040  10.783
17957W        W90283   7.678   8.332   3.681
17958W        W90284  23.747  20.319   1.785
17959W        W90285  42.289  36.993   0.280
17960W        W90286  26.149  13.400   4.930
17961W        W90287   0.796  42.162  11.402
17962W        W90288  14.884   4.433  11.390
17963W        W90289  29.436   5.797  14.095
17964W        W90290   8.804  38.644   0.209
17965W        W90291  33.094  29.070  12.301
17966W        W90292   5.687  44.545   4.129
17967W        W90293  15.270  27.652  10.431
17968W        W90294  33.170   4.363  12.344
17969W        W90295  43.695   7.436  13.527
17970W        W90296  36.382  36.936  13.030
17971W        W90297  22.760   8.817  11.973
17972W        W90298   9.327  29.118   1.772
17973W        W90299  30.685  18.259   1.493
17974W        W90300  37.419  12.708  10.180
17975W        W90301  24.515  36.452  10.876
17976W        W90302  33.268  15.609   1.483
17977W        W90303  40.264   5.568   3.629
17978W        W90304   0.729   8.421  12.541
17979W        W90305  40.262  29.429   2.276
17980W        W90306  43.963  44.987  14.431
17981W        W90307  23.109  24.148   2.736
17982W        W90308  12.710  18.105   2.502
17983W        W90309  31.205  12.816   3.094
17984W        W90310   9.422  36.988  10.755
17985W        W90311  26.917  41.008   0.269
17986W        W90312   7.363  20.122  10.763
17987W        W90313  42.224  40.467  11.825
17988W        W90314  25.982  12.674   1.089
17989W        W90315  14.540  27.979   1.645
17990W        W90316  30.250  29.891   4.291
17991W        W90317   9.452  33.428   2.849
17992W        W90318  35.672  26.588  12.145
17993W        W90319  22.165  33.929   1.904
17994W        W90320  21.651  14.239  14.540
17995W        W90321  20.171  16.293  14.279
17996W        W90322  16.339  18.733  14.975
17997W        W90323  27.302  34.264   4.133
17998W        W90324   4.688  29.611   5.024
17999W        W90325  41.421  34.912   1.943
18000W        W90326  14.284  20.094  11.361
18001W        W90327  24.597  38.366  12.635
18002W        W90328  44.929  18.306   3.166
18003W        W90329  37.558   0.445  12.604
18004W        W90330  36.536  25.653   4.709
18005W        W90331  38.943  26.820   1.884
18006W        W90332   3.732  24.081   0.953
18007W        W90333   0.848  22.473  13.054
18008W        W90334  33.090  44.867  12.345
18009W        W90335  26.496  44.348   4.520
18010W        W90336   9.101  36.942  11.197
18011W        W90337  37.045  17.143   4.431
18012W        W90338   5.691   9.276  11.806
18013W        W90339  20.073  36.448  14.989
18014W        W90340   5.439   4.099  13.366
18015W        W90341   2.285  23.553   0.925
18016W        W90342  28.357   7.939  10.894
18017W        W90343   4.345   1.130   2.002
18018W        W90344  29.706  20.751  14.484
18019W        W90345   5.795  28.885  12.834
18020W        W90346  20.647  42.011  13.367
18021W        W90347  43.524  10.778  10.969
18022W        W90348  35.481  12.842  14.557
18023W        W90349   9.204  15.866   0.359
18024W        W90350  11.866  38.334   3.561
18025W        W90351  35.610  35.879   2.299
18026W        W90352   8.363  37.864   3.818
18027W        W90353  23.673  27.268   3.210
18028W        W90354   6.916  26.611   3.604
18029W        W90355   2.525   0.275   2.692
18030W        W90356   8.117  41.310  13.409
18031W        W90357   0.979  14.106   4.039
18032W        W90358  43.574  13.281   4.156
18033W        W90359   5.275   8.344   0.374
18034W        W90360  15.808  36.125   0.920
18035W        W90361   9.155  28.503  11.507
18036W        W90362  37.863  35.044   3.570
18037W        W90363  28.049  35.433  13.687
18038W        W90364   0.554  19.147  12.153
18039W        W90365   7.103  15.743  14.484
18040W        W90366  20.506  12.752  10.994
18041W        W90367  13.253   7.641  13.356
18042W        W90368  12.668  14.730  11.264
18043W        W90369  33.653  24.694  13.339
18044W        W90370  20.663   1.201   4.686
18045W        W90371  22.977  39.796  14.143
18046W        W90372  38.452  18.273   0.882
18047W        W90373  33.552  19.053   1.715
18048W        W90374  23.766  39.638   2.233
18049W        W90375  34.053  40.515  14.529
18050W        W90376  33.827  10.273   3.811
18051W        W90377   5.631  37.867  11.908
18052W        W90378  29.165  20.721   4.771
18053W        W90379  37.165   1.982  12.407
18054W        W90380  25.113  30.101  12.724
18055W        W90381   8.161   1.388  13.772
18056W        W90382  17.677  22.296   1.805
18057W        W90383   8.372  19.175  13.014
18058W        W90384  11.609  12.091   1.709
18059W        W90385  35.946  44.393   3.491
18060W        W90386  30.480  30.388  12.543
18061W        W90387  40.902  44.431  14.443
18062W        W90388  43.467  41.342  12.487
18063W        W90389  29.075   1.779   3.805
18064W        W90390  28.219  37.567   0.488
18065W        W90391  21.927  25.991  14.308
18066W        W90392   6.823   1.398  14.061
18067W        W90393  30.866  16.849   4.040
18068W        W90394  15.307   1.889   1.776
18069W        W90395   0.726  39.776   3.400
18070W        W90396   2.310   8.171   4.108
18071W        W90397  41.476  26.262  13.118
18072W        W90398  25.652  43.825  13.773
18073W        W90399   2.031  16.221  13.962
18074W        W90400  30.424  31.018   3.169
18075W        W90401  42.740   2.841  14.905
18076W        W90402  42.455  43.436   3.579
18077W        W90403  31.083   8.745  10.600
18078W        W90404  22.259  30.879   0.375
18079W        W90405   6.660  33.946  14.089
18080W        W90406  35.096  18.284   4.007
18081W        W90407   2.511  28.730   3.358
18082W        W90408  30.699  38.955  12.959
18083W        W90409  31.945  30.997  14.436
18084W        W90410  14.886   2.409   1.902
18085W        W90411  19.094  29.522  14.504
18086W        W90412  38.051  39.326   0.322
18087W        W90413   8.148  28.726  14.591
18088W        W90414  38.697  31.995   9.943
18089W        W90415  37.585  39.081   0.309
18090W        W90416  22.085  30.500  13.841
18091W        W90417  35.568  28.045  13.913
18092W        W90418  20.037  14.703  12.109
18093W        W90419  44.340  12.118   1.702
18094W        W90420  13.620  44.745   3.622
18095W        W90421  16.035  11.767   4.982
18096W        W90422  29.694  22.078   3.777
18097W        W90423   5.411  18.532  12.939
18098W        W90424   4.048   9.668   1.941
18099W        W90425  15.932   4.821   3.724
18100W        W90426  21.700  38.403   4.526
18101W        W90427  11.880  38.440   2.256
18102W        W90428   3.725   6.711   2.337
18103W        W90429   8.794  30.723   0.767
18104W        W90430  35.860  41.485   3.205
18105W        W90431   8.453  22.235   4.140
18106W        W90432  23.503   5.174   3.362
18107W        W90433  27.190   5.234   0.410
18108W        W90434  12.955  40.486  11.858
18109W        W90435  25.061  20.684  11.097
18110W        W90436  35.430   1.446  12.720
18111W        W90437  44.948  25.702   0.850
18112W        W90438  22.708  28.870  11.580
18113W        W90439  21.137  17.583  12.945
18114W        W90440  39.051  34.305  11.474
18115W        W90441  28.997   3.195   2.023
18116W        W90442  19.020  27.132  13.150
18117W        W90443  34.102  21.198  12.036
18118W        W90444   9.196  10.249  11.118
18119W        W90445  20.983   4.731  11.978
18120W        W90446  29.988   8.341   3.197
18121W        W90447  27.123  19.281   0.478
18122W        W90448  30.292  28.658   0.200
18123W        W90449   8.683  42.197  11.535
18124W        W90450  27.275  30.478  11.883
18125W        W90451  18.104  39.948   4.082
18126W        W90452  18.757  21.081  14.046
18127W        W90453  33.523  15.018   4.608
18128W        W90454  13.508  34.818  10.864
18129W        W90455   0.855  34.363  12.209
18130W        W90456  10.425  35.459   1.462
18131W        W90457  15.678  12.658  10.692
18132W        W90458   1.888  21.066   4.987
18133W        W90459   5.849   3.971   3.994
18134W        W90460  26.103  34.958  13.358
18135W        W90461  40.453   6.217  14.465
18136W        W90462  19.270  23.473  14.309
18137W        W90463  18.144  30.620  10.701
18138W        W90464  43.226  20.737  14.743
18139W        W90465  18.039  25.675  12.907
18140W        W90466  21.263   0.946   4.681
18141W        W90467  15.268   0.723   3.241
18142W        W90468  27.102  38.862  10.712
18143W        W90469   4.193   0.585   1.840
18144W        W90470  11.667  32.510  14.716
18145W        W90471  10.145  23.583  12.935
18146W        W90472  14.369  44.501   4.701
18147W        W90473   6.693  43.774   3.241
18148W        W90474  38.996  35.002  10.723
18149W        W90475  26.893  27.622  11.127
18150W        W90476  39.752  17.662   2.398
18151W        W90477  34.922   3.616   3.117
18152W        W90478   7.247  28.419  11.734
18153W        W90479  13.632  19.941   2.266
18154W        W90480  14.671  31.507   2.855
18155W        W90481  30.836  38.395  11.034
18156W        W90482   4.093  35.889   2.148
18157W        W90483  28.666   9.811  10.475
18158W        W90484  18.357   6.394  14.853
18159W        W90485  38.941   8.874  13.586
18160W        W90486   9.905   4.776   0.469
18161W        W90487  21.567  39.137  12.983
18162W        W90488   3.830  17.038  13.802
18163W        W90489  36.186   7.134   4.297
18164W        W90490  26.911  29.018   3.230
18165W        W90491  26.499  17.272   4.141
18166W        W90492  32.368   3.876  12.453
18167W        W90493  16.740   5.187  10.500
18168W        W90494  12.486  40.267  11.026
18169W        W90495   4.737  40.902  14.820
18170W        W90496  29.640  30.892  12.156
18171W        W90497   3.260  26.052  13.117
18172W        W90498   0.644   8.304   4.386
18173W        W90499   8.620  34.420   4.142
18174W        W90500  36.490  33.574  10.253
18175W        W90501  18.247   8.209   2.746
18176W        W90502  39.588   8.880   4.608
18177W        W90503  26.633  12.807  11.066
18178W        W90504  12.883  25.742  12.462
18179W        W90505  23.113  39.327  13.992
18180W        W90506   7.357  35.181   0.441
18181W        W90507  39.541  41.063   0.011
18182W        W90508  44.085   2.607   2.400
18183W        W90509  34.941  13.083  13.901
18184W        W90510   3.755  23.113  12.150
18185W        W90511  34.833  23.540  12.395
18186W        W90512  31.084   7.405   4.741
18187W        W90513  18.301  23.585   1.241
18188W        W90514  37.806  25.685   2.226
18189W        W90515   7.348   6.269   4.687
18190W        W90516  12.134  30.913  14.917
18191W        W90517  11.196  29.056  10.514
18192W        W90518  26.087   0.764   4.224
18193W        W90519   8.767  18.343   1.645
18194W        W90520  19.481   9.828  11.541
18195W        W90521  20.425  11.753  14.270
18196W        W90522  41.891  12.647  10.484
18197W        W90523  34.958   4.960  13.031
18198W        W90524  19.345   3.728  12.939
18199W        W90525  19.606  42.229  11.142
18200W        W90526  14.034   1.337  11.937
18201W        W90527  11.123  29.433  14.383
18202W        W90528  26.932   7.933   4.526
18203W        W90529  26.127  19.124   0.803
18204W        W90530  44.294  27.694   4.074
18205W        W90531   1.659  13.315   0.487
18206W        W90532  30.485   3.450  10.443
18207W        W90533  36.831  33.357   3.196
18208W        W90534   7.631  16.542   3.782
18209W        W90535   0.540  43.792   0.772
18210W        W90536  37.807  37.370  14.508
18211W        W90537  35.855  28.672   0.998
18212W        W90538  29.592  13.708  13.760
18213W        W90539   9.200  40.029  12.021
18214W        W90540  23.552  33.259  13.025
18215W        W90541  42.270  33.452   1.110
18216W        W90542  37.041  14.535   3.744
18217W        W90543  42.854  40.319  13.021
18218W        W90544   1.229  35.936   0.414
18219W        W90545   8.455  41.315  10.786
18220W        W90546  24.727  43.015  10.449
18221W        W90547  23.675  16.283  12.063
18222W        W90548  17.485  24.761   3.883
18223W        W90549  35.479   6.644  11.163
18224W        W90550  34.381  12.707   2.182
18225W        W90551  12.898  24.283  13.079
18226W        W90552  13.671  43.576  13.822
18227W        W90553  19.370  22.334   0.986
18228W        W90554  11.079   0.310   3.976
18229W        W90555  17.320  42.583   0.749
18230W        W90556  13.368  31.009  14.857
18231W        W90557  39.405  12.782  13.519
18232W        W90558   4.675  26.133   4.549
18233W        W90559  13.289  27.445  12.130
18234W        W90560  20.404   7.973   2.926
18235W        W90561  32.031   1.112  13.488
18236W        W90562   5.387   2.240   1.820
18237W        W90563  17.172  15.211  14.604
18238W        W90564   8.922   6.953  11.908
18239W        W90565  10.074  36.586   3.737
18240W        W90566   4.436   5.652  12.140
18241W        W90567  36.101  43.482  10.652
18242W        W90568  19.575   6.227  14.114
18243W        W90569  11.469   5.565   2.479
18244W        W90570  14.142  29.603  12.938
18245W        W90571  40.272  31.164  14.077
18246W        W90572  11.729  42.444   4.454
18247W        W90573  35.917   6.570   0.388
18248W        W90574  21.693   7.000   0.847
18249W        W90575  32.399   2.824  14.562
18250W        W90576  29.909  28.628   3.085
18251W        W90577  13.498   9.753  12.065
18252W        W90578  13.804  14.821  13.955
18253W        W90579  19.608  30.541   2.854
18254W        W90580  42.367  23.212   2.423
18255W        W90581  30.402  23.649   2.347
18256W        W90582  23.989  31.880   2.744
18257W        W90583   8.900  26.565  12.585
18258W        W90584  27.508  34.827  12.557
18259W        W90585  41.619  13.835  11.596
18260W        W90586   6.388   3.635  13.311
18261W        W90587  41.029  29.014   1.945
18262W        W90588  12.050  40.592  11.903
18263W        W90589  12.758  31.028   1.123
18264W        W90590  16.662  25.027  13.894
18265W        W90591  16.195  14.795   0.218
18266W        W90592  29.728  12.430   2.081
18267W        W90593   3.282  35.894  13.449
18268W        W90594  30.807  12.982   4.942
18269W        W90595  22.217  10.232  12.817
18270W        W90596  14.833  44.823  11.094
18271W        W90597  37.101  22.555   3.256
18272W        W90598   2.402  25.752  12.303
18273W        W90599  29.110  37.392  10.739
18274W        W90600  13.696  30.095  13.078
18275W        W90601  18.710  11.641  10.239
18276W        W90602  35.191  26.313   4.211
18277W        W90603  39.492  40.020  10.420
18278W        W90604   5.349  41.889   0.913
18279W        W90605  21.147   7.661   4.901
18280W        W90606  30.464   3.994   3.711
18281W        W90607   0.360   8.913  13.259
18282W        W90608  35.104  43.289  13.778
18283W        W90609  36.573  11.570   1.840
18284W        W90610  39.111  25.046   2.192
18285W        W90611   9.386  20.562  12.885
18286W        W90612  41.903  32.209  13.841
18287W        W90613  22.589   0.179   3.492
18288W        W90614  41.848  35.651   2.501
18289W        W90615  26.008   2.008  12.045
18290W        W90616   9.815   2.853  13.042
18291W        W90617  35.940  24.926  13.510
18292W        W90618  16.373   1.629  12.802
18293W        W90619  36.377  19.594  12.413
18294W        W90620  12.813  42.009  12.960
18295W        W90621  31.099  42.524   4.561
18296W        W90622  19.767  36.854   0.818
18297W        W90623  33.887  44.866   3.586
18298W        W90624  18.703  10.684  13.533
18299W        W90625  25.620  41.802   0.760
18300W        W90626  25.583  32.233  13.472
18301W        W90627   5.831   8.204   4.076
18302W        W90628   8.600   5.804  14.463
18303W        W90629  34.441  15.732  10.409
18304W        W90630  44.359  12.774   0.449
18305W        W90631  14.102  40.472  12.941
18306W        W90632   2.519  21.613  14.682
18307W        W90633   9.465   4.207   0.758
18308W        W90634  32.103   6.895   2.349
18309W        W90635  33.587  13.836  10.708
18310W        W90636  26.231  40.004  11.490
18311W        W90637  27.399  30.717   1.807
18312W        W90638  23.828  15.854  12.857
18313W        W90639  23.589  34.920  11.599
18314W        W90640  31.621  11.201   1.024
18315W        W90641   5.525  22.231   1.835
18316W        W90642  40.429   2.136  12.582
18317W        W90643   2.699  19.459   0.040
18318W        W90644   5.480  41.552  12.881
18319W        W90645  32.919   3.350   0.490
18320W        W90646   4.342  21.344  13.137
18321W        W90647  15.328  10.268  13.031
18322W        W90648  28.045  44.603   4.145
18323W        W90649  16.347  42.331   3.736
18324W        W90650  34.131  21.186  11.128
18325W        W90651  11.991   8.404  14.793
18326W        W90652   6.333   3.765   4.552
18327W        W90653  13.158  16.447   3.650
18328W        W90654   1.294  19.865   4.138
18329W        W90655  44.088  29.468  10.548
18330W        W90656   0.485  29.274   3.781
18331W        W90657  14.072  31.899  12.581
18332W        W90658  25.496  34.849  14.383
18333W        W90659  15.704  41.963   3.867
18334W        W90660  33.020  15.335   0.077
18335W        W90661  13.714  37.609   3.122
18336W        W90662  15.279  38.775   4.089
18337W        W90663  14.432  30.109  11.000
18338W        W90664  13.136  34.455  13.283
18339W        W90665  22.677  34.082   0.513
18340W        W90666   0.849  39.359   3.679
18341W        W90667  24.926  35.913   2.254
18342W        W90668  22.054   5.816   4.884
18343W        W90669  11.137  39.451  13.152
18344W        W90670  34.015   0.217  13.772
18345W        W90671  41.546  17.155  13.336
18346W        W90672  17.086  39.316  14.349
18347W        W90673  19.666   9.146  13.607
18348W        W90674  39.452  42.861  11.807
18349W        W90675  12.101  26.518   2.356
18350W        W90676   4.961   6.772  10.725
18351W        W90677  26.056  25.734   3.307
18352W        W90678   3.362  18.733  12.075
18353W        W90679  21.492  36.327   0.864
18354W        W90680   6.862  24.362   0.549
18355W        W90681   0.704  36.278  11.201
18356W        W90682  29.148  42.095  11.171
18357W        W90683  20.308  17.845  12.937
18358W        W90684   3.376  37.285  12.060
18359W        W90685  16.285   3.666  12.135
18360W        W90686  23.562  39.144   2.289
18361W        W90687  25.488   1.835   2.516
18362W        W90688  35.614  10.421  14.895
18363W        W90689  44.499   9.676   0.396
18364W        W90690   3.917  37.162   3.672
18365W        W90691  16.677  23.910  11.720
18366W        W90692  32.423  41.084  11.012
18367W        W90693  41.858  42.792  10.712
18368W        W90694   4.791   8.718  14.740
18369W        W90695  13.704   8.106  12.613
18370W        W90696  21.952  19.335  12.502
18371W        W90697  18.617   0.152  13.055
18372W        W90698  16.769  27.623   4.703
18373W        W90699  15.077  28.124  13.898
18374W        W90700  24.660   5.570  10.744
18375W        W90701  10.634  24.036   2.726
18376W        W90702  35.968  30.071   2.821
18377W        W90703   3.218  19.134   3.277
18378W        W90704  24.356  32.950  13.511
18379W        W90705  15.696  20.148  12.214
18380W        W90706  10.207  13.293   2.646
18381W        W90707  35.564  18.568   2.423
18382W        W90708  16.355  36.415   2.830
18383W        W90709  42.495  15.667  13.461
18384W        W90710   2.488  24.638  14.298
18385W        W90711   6.718  26.599  10.737
18386W        W90712  23.241  17.305  14.775
18387W        W90713  43.236  39.901   5.007
18388W        W90714   7.559  16.184  13.605
18389W        W90715  37.890  22.118   3.005
18390W        W90716   6.377  41.531  13.821
18391W        W90717  10.086  37.015   3.129
18392W        W90718  26.709  16.556  11.990
18393W        W90719  10.188  28.890   1.694
18394W        W90720  26.201  36.051  14.841
18395W        W90721  15.635  36.875   4.142
18396W        W90722  16.570  26.930  11.658
18397W        W90723  42.598  30.679  13.370
18398W        W90724   8.705  32.691  11.544
18399W        W90725  10.728   6.279   3.252
18400W        W90726  19.209  42.464   4.891
18401W        W90727   3.944  32.276  12.052
18402W        W90728  29.026  43.749  13.845
18403W        W90729   4.917  20.138   0.269
18404W        W90730   8.311   9.419  14.411
18405W        W90731  20.343  15.737   0.667
18406W        W90732   8.164  40.437   1.984
18407W        W90733   3.413  20.996   2.573
18408W        W90734  13.094  34.543   3.671
18409W        W90735  32.474  25.264   2.793
18410W        W90736  22.378  36.887   4.078
18411W        W90737  27.238   9.308   1.744
18412W        W90738  25.559  33.629   0.591
18413W        W90739  27.990  38.942  10.807
18414W        W90740  14.683  40.433  14.312
18415W        W90741   0.380  28.951   4.637
18416W        W90742   4.311  20.331  13.098
18417W        W90743  24.928  24.043   2.726
18418W        W90744   5.097  17.167  10.088
18419W        W90745   7.307   7.712  12.498
18420W        W90746  36.436  19.977  10.844
18421W        W90747   7.806  23.416   0.438
18422W        W90748   9.942   5.952   0.321
18423W        W90749  12.139  27.035   1.046
18424W        W90750  27.633  38.326  10.313
18425W        W90751  21.179  36.955  10.441
18426W        W90752   7.488  35.782   4.212
18427W        W90753  35.928  13.119   4.906
18428W        W90754  37.500   1.847   4.596
18429W        W90755  37.420   5.658  10.474
18430W        W90756  37.943  43.308   4.235
18431W        W90757   4.425  12.400  13.070
18432W        W90758   2.176   8.271   1.750
18433W        W90759   1.919  12.005   9.801
18434W        W90760  25.072  41.372  13.157
18435W        W90761  42.838  22.061  11.466
18436W        W90762  44.869  18.704  10.669
18437W        W90763  42.432  34.507   0.075
18438W        W90764   9.780   1.915  14.523
18439W        W90765  20.773  29.974   3.125
18440W        W90766   4.644  22.352   4.237
18441W        W90767   1.463  36.262   1.913
18442W        W90768  13.600  26.185   1.479
18443W        W90769  30.118  26.692  10.132
18444W        W90770  25.536   6.177  12.007
18445W        W90771  12.680  43.992   3.582
18446W        W90772  21.992  43.731   3.145
18447W        W90773   4.327  39.491   1.900
18448W        W90774  15.425   5.595   1.808
18449W        W90775  38.616  17.029  14.934
18450W        W90776   4.479  13.611   4.395
18451W        W90777   0.954  34.836  12.004
18452W        W90778  30.418  15.790  14.975
18453W        W90779   9.334   4.966   1.408
18454W        W90780  30.677   2.888   4.558
18455W        W90781  44.306  33.111  12.741
18456W        W90782   9.189  22.460  11.528
18457W        W90783  36.972  26.679  11.602
18458W        W90784  44.359  32.418   4.242
18459W        W90785   5.671  38.452   1.703
18460W        W90786   5.997  27.974   1.867
18461W        W90787   8.291  14.268  10.286
18462W        W90788  27.401  30.065  11.511
18463W        W90789  35.113  12.034  13.798
18464W        W90790  22.572   3.530   3.821
18465W        W90791  10.935  33.854  11.906
18466W        W90792  17.286  11.692  14.956
18467W        W90793  41.722  31.677   1.770
18468W        W90794  13.285  29.727  13.385
18469W        W90795  11.317   5.410   1.969
18470W        W90796   7.388  13.168  10.734
18471W        W90797  21.740   5.637   2.219
18472W        W90798   9.800  27.672  12.534
18473W        W90799  13.281  40.082  14.244
18474W        W90800   4.689  24.234  12.463
18475W        W90801  21.266   1.994  12.944
18476W        W90802  36.043  32.611  11.930
18477W        W90803  40.812  27.293   2.014
18478W        W90804   7.041  41.603  12.628
18479W        W90805   0.500  25.980  10.790
18480W        W90806  30.973   7.620   2.681
18481W        W90807  21.102   8.199   4.095
18482W        W90808  39.333  17.698  10.707
18483W        W90809  12.841  32.220  11.202
18484W        W90810  37.926  21.625   1.273
18485W        W90811  14.297  24.241   1.892
18486W        W90812  10.717  37.187  11.564
18487W        W90813  35.472  15.666  10.105
18488W        W90814  17.808  37.460  11.397
18489W        W90815  42.202  10.024  12.559
18490W        W90816  15.273  44.298  10.611
18491W        W90817  35.316  13.361   4.186
18492W        W90818  11.130  44.446   2.651
18493W        W90819  23.209   1.370  10.721
18494W        W90820  35.783  18.500   3.328
18495W        W90821  30.565  41.538   4.866
18496W        W90822   6.932  17.271  12.048
18497W        W90823  37.996  20.223   0.382
18498W        W90824   2.173  13.223   0.513
18499W        W90825  15.758  42.990  13.811
18500W        W90826  16.823  36.807  10.674
18501W        W90827   6.924  34.599  10.873
18502W        W90828  35.665  34.773   4.186
18503W        W90829  30.997  11.740   0.921
18504W        W90830   7.748  25.743   4.651
18505W        W90831  13.739  29.363   0.942
18506W        W90832  38.726  32.973   3.623
18507W        W90833  17.932   4.768  12.398
18508W        W90834  37.478   1.439   1.585
18509W        W90835   4.800  25.924  13.093
18510W        W90836  26.646  42.372  14.492
18511W        W90837  35.814  34.454  14.034
18512W        W90838   7.764   6.434  13.570
18513W        W90839  15.332  33.691   3.125
18514W        W90840  31.980  26.299   0.489
18515W        W90841  22.451  11.895  11.211
18516W        W90842  35.325  10.192  14.522
18517W        W90843  41.995  25.789  13.489
18518W        W90844   1.175  24.636  13.303
18519W        W90845   3.362  39.368  14.180
18520W        W90846  38.542  43.302   4.672
18521W        W90847  11.693  20.883  13.072
18522W        W90848  24.056   9.473   2.627
18523W        W90849  28.930  27.092   4.515
18524W        W90850  10.972  43.873  12.516
18525W        W90851   5.752  16.392  10.629
18526W        W90852  39.445  17.268  13.322
18527W        W90853   9.488   8.837   2.233
18528W        W90854  14.802   7.323   4.392
18529W        W90855  26.012  14.831  11.046
18530W        W90856  26.758  35.690   3.224
18531W        W90857  38.896  20.725   4.949
18532W        W90858  16.707  15.755  14.921
18533W        W90859  40.692  34.441  11.911
18534W        W90860  18.193  30.772   2.900
18535W        W90861  27.181  17.754   1.186
18536W        W90862   4.963  42.823   1.238
18537W        W90863   7.912  39.410  11.937
18538W        W90864  15.468   5.205   0.538
18539W        W90865  34.752   4.272  12.529
18540W        W90866  31.947  27.591   0.404
18541W        W90867   5.181   8.779   4.039
18542W        W90868   1.046   5.745  13.088
18543W        W90869  30.612  24.102   2.182
18544W        W90870  35.487  36.064  13.479
18545W        W90871  43.946  19.088  14.374
18546W        W90872  32.094  35.574  11.646
18547W        W90873  19.022  27.605  12.008
18548W        W90874  16.195  36.597  14.304
18549W        W90875  18.951  34.813   0.333
18550W        W90876  33.053  21.156   1.973
18551W        W90877  36.628  27.163  11.036
18552W        W90878  15.145  20.782   5.323
18553W        W90879  31.114   5.744   2.329
18554W        W90880   5.757  28.267   1.477
18555W        W90881  23.116  35.195  12.487
18556W        W90882  19.535  28.098  14.419
18557W        W90883   8.323  41.539   2.126
18558W        W90884  22.994   3.698   4.113
18559W        W90885  22.030  21.381  11.677
18560W        W90886   6.111  21.576   3.382
18561W        W90887  41.126  36.317  14.924
18562W        W90888  40.541  40.971   3.692
18563W        W90889   6.804  43.975  10.700
18564W        W90890   7.246  29.993  12.208
18565W        W90891  18.289  30.533   4.599
18566W        W90892  31.210  20.185   0.748
18567W        W90893  25.126  13.148  10.663
18568W        W90894   5.735  33.238  14.757
18569W        W90895  44.977   8.783   2.421
18570W        W90896  37.861   0.500   4.090
18571W        W90897  24.090  17.510  13.427
18572W        W90898  28.510   5.146  14.817
18573W        W90899   0.766  44.913  10.695
18574W        W90900  20.408  28.429  10.606
18575W        W90901  33.841  32.643   2.369
18576W        W90902   9.255  30.884  13.489
18577W        W90903  17.375  22.553   3.968
18578W        W90904  33.149  26.030   1.445
18579W        W90905  36.876  32.640   1.695
18580W        W90906  24.486   6.799  14.754
18581W        W90907  24.198  27.124  12.008
18582W        W90908  38.445   6.683   1.618
18583W        W90909  35.036  19.286  12.443
18584W        W90910  10.660  11.418  14.247
18585W        W90911  20.416  18.802   2.277
18586W        W90912  41.959  10.140  11.591
18587W        W90913  23.627  36.292  10.934
18588W        W90914  24.580  11.691  12.947
18589W        W90915  20.684  32.113   4.936
18590W        W90916   9.155  35.252  13.617
18591W        W90917  38.928   1.725   3.400
18592W        W90918  22.199  43.461  14.293
18593W        W90919   6.221  23.559   4.111
18594W        W90920  41.614   0.546   3.552
18595W        W90921  32.557  41.769  12.633
18596W        W90922  23.106  19.534   2.538
18597W        W90923  34.976  32.695  14.836
18598W        W90924  41.639  15.532   5.093
18599W        W90925  31.508  44.192   0.747
18600W        W90926  20.976  29.259  14.877
18601W        W90927  40.277  19.635   0.236
18602W        W90928  39.356  25.289   3.701
18603W        W90929   7.906  27.054   0.315
18604W        W90930   3.063  41.014   1.747
18605W        W90931  21.674  40.936  13.278
18606W        W90932  11.699  15.144  14.408
18607W        W90933  14.650  20.930   1.994
18608W        W90934  44.820  16.554  14.781
18609W        W90935  29.066   9.171  12.767
18610W        W90936  24.990   1.408  14.516
18611W        W90937  12.645  29.682  12.044
18612W        W90938  18.162   1.884  12.619
18613W        W90939  11.787  39.155   5.077
18614W        W90940  42.023   2.669   1.710
18615W        W90941  43.728  42.306   1.233
18616W        W90942   0.763  33.937   2.028
18617W        W90943  44.542  18.647   2.278
18618W        W90944  37.972  29.774   0.286
18619W        W90945   1.945  20.035   2.197
18620W        W90946  22.021  28.713  14.761
18621W        W90947  40.372  16.844   1.994
18622W        W90948  37.999  24.167   3.265
18623W        W90949  11.315   4.312   4.331
18624W        W90950  16.287  43.248  13.596
18625W        W90951  22.937  42.217  12.147
18626W        W90952  10.117   4.672   2.822
18627W        W90953   5.145  32.379  12.089
18628W        W90954   0.366   3.177   1.621
18629W        W90955  24.647  30.152   2.617
18630W        W90956  35.745   4.281   0.959
18631W        W90957  14.279  26.268   3.656
18632W        W90958  36.218  26.819  10.139
18633W        W90959  31.036  25.988   2.934
18634W        W90960  32.420  18.723   9.984
18635W        W90961  16.180  23.195  11.408
18636W        W90962  29.632  24.669  13.572
18637W        W90963   1.949  22.778  12.830
18638W        W90964  11.413  32.608   2.891
18639W        W90965  26.385  12.370  11.007
18640W        W90966  31.732  41.272   4.244
18641W        W90967  23.573  44.765  10.718
18642W        W90968  32.924   3.717   3.597
18643W        W90969  29.553   2.425  14.459
18644W        W90970  30.830  14.410  12.397
18645W        W90971  33.598  12.664   0.197
18646W        W90972  39.773  15.592  13.013
18647W        W90973  33.559   5.337   0.379
18648W        W90974  34.775  17.309  12.517
18649W        W90975   9.767  23.891  11.524
18650W        W90976   2.625  31.161   4.191
18651W        W90977  24.012  35.442   0.798
18652W        W90978  42.841  43.329   1.312
18653W        W90979  40.304  17.823  11.560
18654W        W90980   1.823   7.420   3.962
18655W        W90981   5.202  12.774  13.001
18656W        W90982   0.923  12.683  12.314
18657W        W90983  35.819  15.027  14.825
18658W        W90984  14.138  43.944   3.686
18659W        W90985   2.390  10.194  13.784
18660W        W90986   0.975  44.933   4.613
18661W        W90987  13.348  24.652  14.402
18662W        W90988  13.696  26.006   0.753
18663W        W90989   3.382  20.733   1.455
18664W        W90990  13.045  35.374  12.499
18665W        W90991  36.966   9.719   2.245
18666W        W90992  24.305  37.929   1.985
18667W        W90993  11.744  21.113   2.972
18668W        W90994  43.854  21.809   0.939
18669W        W90995  36.316  19.513   3.048
18670W        W90996   8.577  21.745   4.073
18671W        W90997  42.129  31.122   3.220
18672W        W90998  35.387  38.525   0.386
18673W        W90999  29.896  14.741   3.211
18674W        W91000  20.694  12.797   0.739
18675W        W91001  44.950   2.911  11.927
18676W        W91002   8.142  38.869   1.758
18677W        W91003  14.353  33.537   3.375
18678W        W91004  22.858   9.443  13.995
18679W        W91005   6.308   6.494  12.998
18680W        W91006  39.603  28.519   2.397
18681W        W91007  12.264   2.822   2.729
18682W        W91008  11.083  30.382   1.264
18683W        W91009  29.597  21.636  14.585
18684W        W91010  39.202  11.571   3.750
18685W        W91011   7.404  36.955  12.166
18686W        W91012  14.578  15.153  14.427
18687W        W91013  26.232  30.525  12.057
18688W        W91014  41.898  14.623   4.735
18689W        W91015  20.837  44.461  14.374
18690W        W91016  12.111  12.648   0.857
18691W        W91017  36.785  43.954  14.794
18692W        W91018  14.272   3.811   1.929
18693W        W91019  19.505  37.173   5.054
18694W        W91020   3.377  16.754   1.169
18695W        W91021   3.706  30.626   2.779
18696W        W91022  16.139  39.065   3.615
18697W        W91023  41.593  37.350  12.112
18698W        W91024  22.584   6.909   0.761
18699W        W91025  19.165   3.219   0.336
18700W        W91026  38.592   4.173  14.468
18701W        W91027  38.417   8.195   3.834
18702W        W91028  18.264  10.354  13.736
18703W        W91029  14.209  16.914   2.777
18704W        W91030  16.660  13.110   1.665
18705W        W91031  35.156  14.797  12.377
18706W        W91032  11.931  25.705   0.754
18707W        W91033  44.839  11.716   1.789
18708W        W91034  33.901  13.297   4.162
18709W        W91035   6.145  40.452   1.839
18710W        W91036  23.430  17.086   5.301
18711W        W91037  13.590  42.375   3.153
18712W        W91038  35.025  18.599   1.303
18713W        W91039  36.434  39.539  10.673
18714W        W91040  38.896  19.250   3.294
18715W        W91041  44.929  15.660  11.631
18716W        W91042  43.415  17.125   0.017
18717W        W91043  33.487  39.857   2.446
18718W        W91044  43.550   2.273   1.356
18719W        W91045  17.313  10.238   0.808
18720W        W91046  32.047  33.418  10.531
18721W        W91047  43.290  23.198   0.803
18722W        W91048   2.807   5.964  11.526
18723W        W91049  44.075  23.647   0.630
18724W        W91050  21.443  28.658  12.201
18725W        W91051  40.586  21.260   1.863
18726W        W91052  34.598  10.320  13.593
18727W        W91053   4.835  44.256   2.703
18728W        W91054  43.398   9.335   0.785
18729W        W91055   2.623   4.418   1.898
18730W        W91056  21.200  32.024   0.955
18731W        W91057  24.313  37.343  12.421
18732W        W91058  38.532   3.741   4.755
18733W        W91059  37.416   4.543   1.771
18734W        W91060  20.655  38.824  13.419
18735W        W91061  39.935  26.554   3.553
18736W        W91062  29.382   0.530  14.861
18737W        W91063  29.680  27.006  10.123
18738W        W91064  22.719   4.424  14.859
18739W        W91065  27.718  35.607   2.116
18740W        W91066   8.611  38.346  11.094
18741W        W91067  18.154   4.248   2.256
18742W        W91068  31.471  32.107   1.699
18743W        W91069   8.382  31.384   2.249
18744W        W91070   1.023   2.268  14.244
18745W        W91071  25.222  12.572  14.868
18746W        W91072   8.666  13.911   4.989
18747W        W91073  15.702   4.730  14.981
18748W        W91074   3.654  30.108  13.328
18749W        W91075  19.827  19.220   0.116
18750W        W91076  29.559  31.528   4.388
18751W        W91077  29.875  19.730  11.916
18752W        W91078  21.607  30.382  13.560
18753W        W91079   5.698  44.447   1.664
18754W        W91080  17.995  16.061  12.382
18755W        W91081  25.522  42.710  10.737
18756W        W91082  13.940  15.812  12.364
18757W        W91083  42.004  28.109  14.071
18758W        W91084  26.520  31.370  13.907
18759W        W91085   6.444  10.097  12.951
18760W        W91086  41.299  36.033   0.378
18761W        W91087   9.863  35.833  14.443
18762W        W91088  22.825  41.475  13.881
18763W        W91089  41.633  20.652   4.299
18764W        W91090  20.664   1.702   0.921
18765W        W91091  10.763   2.747   1.287
18766W        W91092  30.469   2.171  10.536
18767W        W91093  26.092  31.148   0.151
18768W        W91094  31.951  42.303  12.996
18769W        W91095  16.947  12.196  10.788
18770W        W91096  28.977   2.496   4.459
18771W        W91097  34.976  33.951  14.130
18772W        W91098  41.583  22.796   1.387
18773W        W91099  19.174   4.192  11.630
18774W        W91100   0.423  11.527   0.438
18775W        W91101   9.110  43.629   2.442
18776W        W91102  34.022  33.179   3.243
18777W        W91103  17.129   4.913  12.453
18778W        W91104  35.988  36.037  10.968
18779W        W91105  31.040  15.538   5.083
18780W        W91106  18.591   5.936  11.664
18781W        W91107  36.454  44.766  10.881
18782W        W91108  15.799  44.754   2.825
18783W        W91109  16.126  12.788   1.475
18784W        W91110  32.129  36.509   4.652
18785W        W91111  32.332  21.846  11.061
18786W        W91112   7.259  28.916  14.114
18787W        W91113  32.059  12.201   4.670
18788W        W91114  28.949  22.106   0.317
18789W        W91115  18.808  39.792   4.326
18790W        W91116  21.079  37.912  10.136
18791W        W91117  37.128  12.249  14.935
18792W        W91118  31.718  39.943   1.934
18793W        W91119  19.124  36.904  14.347
18794W        W91120  22.779  33.991  13.950
18795W        W91121  29.867  29.170  11.345
18796W        W91122  25.592  44.031  12.788
18797W        W91123  44.047  43.774  11.026
18798W        W91124   0.458  34.147  11.951
18799W        W91125   5.257  14.341   4.828
18800W        W91126  14.117   0.741   1.317
18801W        W91127  15.646  25.767   4.257
18802W        W91128  44.258   5.166   1.730
18803W        W91129  31.616  11.688   3.344
18804W        W91130  20.000  20.527   2.811
18805W        W91131  28.946  42.754  14.580
18806W        W91132   2.537   0.185   1.192
18807W        W91133  38.617  42.462   3.813
18808W        W91134   1.842  18.496  14.576
18809W        W91135  10.162  18.191   3.112
18810W        W91136  13.273  19.737  10.309
18811W        W91137   8.606  29.415   1.356
18812W        W91138  25.678  12.587  13.802
18813W        W91139  37.334   7.138   0.337
18814W        W91140  13.225  28.197   3.300
18815W        W91141   6.700  31.072  11.207
18816W        W91142   2.980  24.355   0.061
18817W        W91143  23.923  41.007  13.511
18818W        W91144  20.677  40.741   2.752
18819W        W91145  37.041  28.262  14.682
18820W        W91146  36.141   9.061  12.552
18821W        W91147   5.887  27.197  11.114
18822W        W91148  23.162   9.201   4.165
18823W        W91149  30.010  19.824  13.468
18824W        W91150  37.859   3.360  10.340
18825W        W91151   3.230  31.660  14.411
18826W        W91152   0.415  39.092   0.953
18827W        W91153  35.060  37.833   2.765
18828W        W91154  42.825   6.867  14.336
18829W        W91155  28.016  28.492   2.887
18830W        W91156  34.592   2.860  12.991
18831W        W91157  39.799  43.006   4.077
18832W        W91158  44.488  32.027  12.127
18833W        W91159  35.709  41.805  12.896
18834W        W91160  44.459  37.121  14.767
18835W        W91161  21.497   0.896  14.904
18836W        W91162  21.303   5.903   1.366
18837W        W91163  35.303  11.137  14.481
18838W        W91164  12.881  19.439   0.608
18839W        W91165  27.020  18.201   1.384
18840W        W91166  35.835   4.521   3.045
18841W        W91167  30.321  21.304  13.508
18842W        W91168  31.984   9.696   2.772
18843W        W91169   0.594  41.468   4.485
18844W        W91170  37.603   7.615  13.609
18845W        W91171   6.877  17.696  14.318
18846W        W91172  26.347  13.305  12.179
18847W        W91173  17.530  37.632  14.347
18848W        W91174  43.907  18.497   1.865
18849W        W91175   9.631  26.629   2.346
18850W        W91176  11.911  43.838  11.471
18851W        W91177  30.952   4.168  12.904
18852W        W91178  29.078  40.091   2.467
18853W        W91179  33.827  13.701  12.486
18854W        W91180  15.031   8.763  13.305
18855W        W91181  15.852  30.687  13.330
18856W        W91182  26.179   6.435   2.146
18857W        W91183  27.841  15.425   3.122
18858W        W91184  15.783   2.824  12.055
18859W        W91185   8.375   9.345  12.472
18860W        W91186  43.977  10.406  12.589
18861W        W91187  29.821  21.177   0.422
18862W        W91188  10.182  25.631  12.823
18863W        W91189  35.926  22.448   4.054
18864W        W91190   7.805  26.626  12.111
18865W        W91191  25.678  16.862   0.288
18866W        W91192   8.231  39.116  11.096
18867W        W91193  23.489   7.744  10.857
18868W        W91194  25.130  11.876   3.156
18869W        W91195   6.320  18.180   0.726
18870W        W91196  10.333  31.438  14.769
18871W        W91197  21.202   7.177  13.320
18872W        W91198  34.445  22.757   4.600
18873W        W91199  34.463  20.021   4.173
18874W        W91200   7.242  32.463  13.459
18875W        W91201  13.258  15.369  11.574
18876W        W91202   9.620  38.881  14.743
18877W        W91203  13.303  20.078  11.373
18878W        W91204   5.842  15.817  14.093
18879W        W91205   3.353  16.812   2.082
18880W        W91206  18.576  38.066  11.225
18881W        W91207  26.349   3.982  12.535
18882W        W91208  28.589  26.099  10.912
18883W        W91209   0.058  40.283  12.400
18884W        W91210  19.157  44.421   4.687
18885W        W91211  14.847   3.850  12.043
18886W        W91212   5.656  24.735   3.164
18887W        W91213  11.450  38.285   3.258
18888W        W91214  15.329  41.510   3.656
18889W        W91215   2.669  12.268  13.533
18890W        W91216  27.486   3.778  13.343
18891W        W91217  20.780  34.490  10.610
18892W        W91218  39.835  40.416   0.750
18893W        W91219  44.908  29.466   2.647
18894W        W91220   6.754  18.774  13.095
18895W        W91221  44.505  23.497  11.070
18896W        W91222  16.339  33.560   3.684
18897W        W91223  22.910  25.964   4.282
18898W        W91224  22.618  38.105  10.732
18899W        W91225  40.768   5.902   0.229
18900W        W91226   7.819   6.619  12.578
18901W        W91227  11.865  27.555  12.490
18902W        W91228  39.600  29.093  13.014
18903W        W91229  23.533  38.508   0.410
18904W        W91230  11.209  33.471   0.058
18905W        W91231   0.452  17.400   3.385
18906W        W91232  43.322   3.006   1.049
18907W        W91233  14.630  14.306  12.025
18908W        W91234  35.398  32.699  14.478
18909W        W91235  41.603  20.553   3.772
18910W        W91236  27.240  32.122   4.998
18911W        W91237  22.136  44.956  12.603
18912W        W91238  23.693  35.508  10.385
18913W        W91239  40.864  44.013   0.179
18914W        W91240  21.212  40.661   3.637
18915W        W91241   6.779  17.654  10.581
18916W        W91242  39.391  15.329   1.489
18917W        W91243   5.554  33.507  12.763
18918W        W91244   6.676  31.301  13.517
18919W        W91245  30.853  36.788  14.286
18920W        W91246  43.394  36.853   2.343
18921W        W91247  42.454  28.092   0.837
18922W        W91248   5.513  29.088   0.227
18923W        W91249  23.592  16.684   4.572
18924W        W91250  35.193  38.932  12.494
18925W        W91251  16.192  27.471  14.208
18926W        W91252  21.452   6.433   3.147
18927W        W91253  11.657  20.569   2.206
18928W        W91254  14.617  14.595   0.825
18929W        W91255  29.638   3.334  11.510
18930W        W91256  14.187  44.378  11.996
18931W        W91257  11.155  18.257   0.381
18932W        W91258   3.500   5.416   4.227
18933W        W91259  31.492   3.823  13.591
18934W        W91260   9.238   6.615  12.086
18935W        W91261  43.930  26.610   3.140
18936W        W91262  26.645  16.152   2.726
18937W        W91263   5.269  43.531  13.028
18938W        W91264  35.152  19.124  14.905
18939W        W91265  29.910  42.857   1.355
18940W        W91266  37.378  10.247   5.071
18941W        W91267  17.741   9.737  14.380
18942W        W91268  43.410  37.251   1.907
18943W        W91269  15.790  14.006   1.750
18944W        W91270  42.520  12.595   4.255
18945W        W91271  28.026  29.231   5.119
18946W        W91272   6.742  17.650   3.969
18947W        W91273  10.410   9.778  13.031
18948W        W91274  19.335  42.524   3.248
18949W        W91275  26.102  28.017  12.432
18950W        W91276   0.385  23.978   4.414
18951W        W91277  34.904  10.659  13.342
18952W        W91278  21.619   0.734   3.412
18953W        W91279   0.223   0.994   3.747
18954W        W91280   5.329   5.249  14.497
18955W        W91281  44.524   9.111   4.787
18956W        W91282  35.761  11.788   3.649
18957W        W91283  20.274   0.810   3.745
18958W        W91284   4.686  26.959   0.999
18959W        W91285  22.360  24.721  11.531
18960W        W91286  41.641  32.541  14.485
18961W        W91287   7.007  19.800  13.987
18962W        W91288  22.064  38.932   1.591
18963W        W91289  23.019   8.964  12.833
18964W        W91290  22.598  10.142  11.413
18965W        W91291  26.236  36.361  12.175
18966W        W91292  28.217   8.090   2.880
18967W        W91293   4.261  22.136  12.524
18968W        W91294  37.940  32.747   3.829
18969W        W91295  42.496  29.006  12.953
18970W        W91296  43.456  33.597   1.922
18971W        W91297   4.267  39.349  11.226
18972W        W91298  34.028  23.505  11.820
18973W        W91299  25.650  18.008   1.110
18974W        W91300   6.768  16.167   3.829
18975W        W91301  14.722  25.194  12.021
18976W        W91302  37.535  22.762   0.825
18977W        W91303  39.058   1.186  14.881
18978W        W91304  20.310  13.796   2.491
18979W        W91305  36.364   8.376   2.756
18980W        W91306  32.636  12.362  12.507
18981W        W91307  29.793   2.208  12.022
18982W        W91308  22.263  28.708  12.554
18983W        W91309   4.343  42.956  11.951
18984W        W91310  27.013  15.155  11.299
18985W        W91311  32.822   0.745   4.796
18986W        W91312  41.568   4.290   1.463
18987W        W91313  28.574   3.511   2.875
18988W        W91314  29.201  36.980  13.009
18989W        W91315  42.443   4.653   1.046
18990W        W91316  36.623  13.673  11.345
18991W        W91317  29.022   1.989   0.856
18992W        W91318  17.674  14.394   4.733
18993W        W91319  17.821   4.707  14.909
18994W        W91320   3.501  36.484   2.909
18995W        W91321  15.951  10.483  14.770
18996W        W91322  19.113  40.568  11.430
18997W        W91323  35.996  11.186  12.562
18998W        W91324   9.451  20.180   0.576
18999W        W91325   6.910  42.903  10.616
19000W        W91326   9.093  15.888  12.666
19001W        W91327  38.424  41.783   4.790
19002W        W91328   4.850   5.416  14.693
19003W        W91329   9.136  30.919  11.591
19004W        W91330  43.780   9.693   4.557
19005W        W91331  15.879  40.000   2.264
19006W        W91332  31.110  15.990   1.809
19007W        W91333  17.086  24.959  12.296
19008W        W91334  15.579   8.107   1.480
19009W        W91335  15.212   5.461   0.917
19010W        W91336  23.154   7.348   2.156
19011W        W91337  16.329   1.246   0.362
19012W        W91338  39.400  16.881  12.531
19013W        W91339  43.251   9.306  13.892
19014W        W91340   7.472  32.648   4.492
19015W        W91341  25.493  26.121   1.368
19016W        W91342  12.907   1.764   0.395
19017W        W91343  32.984  23.142  10.639
19018W        W91344  31.939  41.520   3.404
19019W        W91345   6.587   3.191  12.026
19020W        W91346  29.657   7.855  13.993
19021W        W91347  21.471  15.150   2.640
19022W        W91348   6.286  44.436   2.863
19023W        W91349  40.887  17.614  12.168
19024W        W91350  30.602  17.241  10.976
19025W        W91351   9.731  22.169  11.423
19026W        W91352  32.340   3.875  10.698
19027W        W91353   3.744  23.710   3.698
19028W        W91354  20.082  16.661   1.519
19029W        W91355  21.697  14.385   4.634
19030W        W91356  31.513  34.110  13.378
19031W        W91357   4.510  34.939   2.246
19032W        W91358  28.749   0.305   2.673
19033W        W91359  30.381   7.261   2.163
19034W        W91360  29.142   2.725  12.455
19035W        W91361   1.786  24.719  11.061
19036W        W91362  19.076  40.556   0.458
19037W        W91363   5.549   3.029   3.922
19038W        W91364   8.687  26.624  11.125
19039W        W91365  43.905  17.906  14.803
19040W        W91366  36.951  37.389  10.260
19041W        W91367   3.003  37.344  13.148
19042W        W91368  43.988  15.152  10.803
19043W        W91369  15.051  29.829  11.609
19044W        W91370  20.739   1.366  13.439
19045W        W91371   9.764  38.727  13.425
19046W        W91372  20.342  13.911   0.218
19047W        W91373   8.882  16.788   0.724
19048W        W91374   1.137  33.739   1.716
19049W        W91375   0.339  36.573   3.204
19050W        W91376  12.175  29.849  10.525
19051W        W91377   9.326  32.021   4.741
19052W        W91378  12.936  29.474   4.195
19053W        W91379  15.141  19.829  12.371
19054W        W91380  38.095  37.047   2.820
19055W        W91381  11.394  19.783  11.047
19056W        W91382  21.143  39.864   3.878
19057W        W91383  19.612  21.310  11.611
19058W        W91384  31.608  25.251   0.015
19059W        W91385  17.429  44.536   2.319
19060W        W91386  37.729  23.181  14.096
19061W        W91387  29.443  16.363   1.155
19062W        W91388  31.568  12.716   0.739
19063W        W91389   0.418   6.412  14.413
19064W        W91390  33.148  43.271  11.215
19065W        W91391   6.929  37.454  14.426
19066W        W91392   3.001  44.849  13.342
19067W        W91393  34.148  42.865  14.802
19068W        W91394  15.121   5.740  14.416
19069W        W91395   7.309  28.186   2.871
19070W        W91396  18.980  36.096  11.592
19071W        W91397  41.458  44.780  14.813
19072W        W91398   7.042  21.128   0.268
19073W        W91399  31.960  34.296  10.846
19074W        W91400  13.051  19.538   3.665
19075W        W91401   0.188  31.490   4.566
19076W        W91402  43.072  32.818  10.040
19077W        W91403  31.607  38.528  12.898
19078W        W91404  22.182   5.967  11.057
19079W        W91405  13.870  20.370  13.080
19080W        W91406  18.151  24.021  12.473
19081W        W91407  33.410   6.270  14.443
19082W        W91408   7.064  20.431  14.020
19083W        W91409  30.208  32.633  12.317
19084W        W91410  24.883  12.717  10.848
19085W        W91411  22.835  23.705   2.749
19086W        W91412  32.441   2.400  11.623
19087W        W91413  14.772  31.566   4.411
19088W        W91414  32.488  19.276  12.996
19089W        W91415  40.457  28.758  12.084
19090W        W91416  41.954   6.917   3.733
19091W        W91417  32.939  19.669  12.050
19092W        W91418  19.657   2.638   1.779
19093W        W91419  25.428  37.750   5.110
19094W        W91420  43.840  16.805  11.530
19095W        W91421  12.746  30.646  14.925
19096W        W91422   7.588  22.388  10.767
19097W        W91423  17.675  27.992   2.801
19098W        W91424   6.386  44.411   0.852
19099W        W91425  24.761   7.383  14.058
19100W        W91426  22.611  34.414  11.073
19101W        W91427  31.944  27.157  11.425
19102W        W91428  15.273  42.315  14.494
19103W        W91429   4.477   6.212   4.533
19104W        W91430  22.986  23.639   4.538
19105W        W91431  22.128  33.450   4.610
19106W        W91432   4.328  39.027   3.133
19107W        W91433   3.290  44.925   4.159
19108W        W91434  12.203  19.771   1.817
19109W        W91435  12.575  16.234   2.388
19110W        W91436  23.127  43.441   4.685
19111W        W91437  18.077  22.673  12.432
19112W        W91438  14.324  38.792  10.648
19113W        W91439  25.816  17.314  12.589
19114W        W91440  43.995  21.091   2.637
19115W        W91441   7.212  42.048   2.381
19116W        W91442  14.076  23.038   3.085
19117W        W91443  27.815   4.979  13.538
19118W        W91444   4.981  42.050  12.934
19119W        W91445   6.362  42.550   1.355
19120W        W91446   9.081  37.728   2.656
19121W        W91447  35.686  29.625  10.706
19122W        W91448  22.602  36.806   1.363
19123W        W91449  10.840  25.398   0.293
19124W        W91450  12.442  13.496  10.949
19125W        W91451  12.615  26.584   5.404
19126W        W91452  11.222  27.073  10.085
19127W        W91453  21.541  43.743   2.809
19128W        W91454  36.654  44.088   1.293
19129W        W91455  29.676  22.656  10.269
19130W        W91456  30.654  34.390   4.210
19131W        W91457  16.359  25.222  10.652
19132W        W91458   3.340  41.825   2.752
19133W        W91459  13.423  36.265   4.177
19134W        W91460   8.750   7.746  12.397
19135W        W91461  43.903   6.430  10.719
19136W        W91462   5.465  35.397   1.018
19137W        W91463  21.060  15.675  13.061
19138W        W91464  27.157  21.039  14.829
19139W        W91465   6.161   2.911  12.102
19140W        W91466  23.972  40.262   2.225
19141W        W91467   3.934  26.458  12.103
19142W        W91468  20.654  44.305  14.822
19143W        W91469   9.844  23.596   4.922
19144W        W91470  33.997  31.836  13.341
19145W        W91471   3.718  18.150   3.733
19146W        W91472  32.488   9.825  12.244
19147W        W91473   9.647  11.424   3.859
19148W        W91474  32.497   9.331   0.276
19149W        W91475  18.152  29.647  11.813
19150W        W91476  27.483   2.758  12.928
19151W        W91477   1.250  34.411   0.761
19152W        W91478  26.257   7.413  12.986
19153W        W91479   6.469  43.394   2.299
19154W        W91480  35.721  16.129   1.353
19155W        W91481  33.836  42.712   0.222
19156W        W91482   4.715  42.021  11.657
19157W        W91483  14.064  33.286   3.771
19158W        W91484  17.550   3.951  13.714
19159W        W91485  17.767  14.751  14.862
19160W        W91486   9.669  22.426   4.578
19161W        W91487  16.248  41.612  11.077
19162W        W91488  31.980  33.662  11.472
19163W        W91489  18.589  25.954   3.143
19164W        W91490  12.824  15.709  12.116
19165W        W91491  21.306  33.480   4.242
19166W        W91492   7.234  35.003   0.973
19167W        W91493   4.333  18.725   2.122
19168W        W91494  37.260  20.031   0.868
19169W        W91495  26.611   0.008  10.408
19170W        W91496  27.236  13.532  12.789
19171W        W91497  35.664  27.053  13.872
19172W        W91498   4.116  14.801  11.133
19173W        W91499  40.860  43.938   1.892
19174W        W91500   0.391  40.920  11.489
19175W        W91501  44.968   2.490   1.951
19176W        W91502  43.068  36.001  14.526
19177W        W91503  33.482   5.771   1.262
19178W        W91504  20.053  17.155   1.763
19179W        W91505  26.271   6.445  11.349
19180W        W91506  33.605  14.334  10.804
19181W        W91507   4.826   4.747   1.392
19182W        W91508  13.906  23.432  10.738
19183W        W91509  19.607  42.139  12.060
19184W        W91510  16.118  25.000   2.134
19185W        W91511  32.854   6.284   2.662
19186W        W91512  12.357   2.922  12.059
19187W        W91513   0.518  25.310   5.070
19188W        W91514  35.875  25.291  12.546
19189W        W91515   3.801  31.696   2.968
19190W        W91516  11.855  22.569  13.605
19191W        W91517   7.532  39.873   0.725
19192W        W91518  23.177  30.086  12.059
19193W        W91519  12.268  26.635   0.722
19194W        W91520  32.151   6.547   5.035
19195W        W91521  19.798  36.394   3.129
19196W        W91522  39.155  16.744  13.120
19197W        W91523   1.787   7.008  13.866
19198W        W91524   9.870  13.446  14.851
19199W        W91525   4.471  12.016  14.759
19200W        W91526  11.146  25.976  12.650
19201W        W91527  31.182  18.127  11.046
19202W        W91528  18.694  21.778  13.434
19203W        W91529  37.192  12.472   4.471
19204W        W91530  41.979  30.140  13.913
19205W        W91531  32.711  16.185   0.346
19206W        W91532  14.354  10.861  14.413
19207W        W91533  23.188   2.372  11.141
19208W        W91534   7.302  36.103   4.575
19209W        W91535  35.261   0.303   2.631
19210W        W91536   9.701  39.078  11.246
19211W        W91537  36.408  24.749   5.044
19212W        W91538  36.085  33.385  11.432
19213W        W91539  16.005  33.002   3.008
19214W        W91540  16.498  13.575  12.055
19215W        W91541  21.134   4.420  10.932
19216W        W91542  41.746  17.019   9.960
19217W        W91543  30.197  33.343   0.851
19218W        W91544  41.534  29.698   3.928
19219W        W91545   8.245   4.024   0.356
19220W        W91546  34.782   4.902  12.093
19221W        W91547  41.523  20.214  14.386
19222W        W91548  13.644  10.740  12.350
19223W        W91549  16.311  12.094   3.182
19224W        W91550  27.650  29.885  14.939
19225W        W91551   7.455  26.572   3.632
19226W        W91552  23.559   3.074   3.110
19227W        W91553  12.895  25.615   1.858
19228W        W91554  34.567  18.038  10.423
19229W        W91555  18.792  19.055   2.789
19230W        W91556  13.096  25.422  13.999
19231W        W91557   5.669  25.861  12.041
19232W        W91558  25.632  27.660  10.567
19233W        W91559  13.271   8.124  10.578
19234W        W91560  24.185  30.312   3.594
19235W        W91561  39.931  39.093   2.121
19236W        W91562  17.832  36.962  11.604
19237W        W91563  36.117  35.971  11.466
19238W        W91564  13.037   9.104  11.739
19239W        W91565  42.648  22.999   2.788
19240W        W91566  31.867  12.351  13.722
19241W        W91567  25.464   4.217  11.163
19242W        W91568  12.219  20.192   2.155
19243W        W91569  20.069  41.934   1.438
19244W        W91570  38.894  26.316   1.981
19245W        W91571  14.813  35.322  12.583
19246W        W91572   5.495  29.939  11.036
19247W        W91573  11.343  21.812   0.464
19248W        W91574  33.035   8.152  13.973
19249W        W91575  23.027  39.521   9.763
19250W        W91576  13.120   1.482  12.928
19251W        W91577  27.945   8.853   1.399
19252W        W91578  16.712  15.051  11.405
19253W        W91579  34.872  29.604  13.928
19254W        W91580   8.522  39.025   0.473
19255W        W91581  24.539  14.238  14.797
19256W        W91582  16.901  41.032  12.928
19257W        W91583   5.746  40.423   4.043
19258W        W91584  13.648  42.757  11.890
19259W        W91585  28.167   8.733  12.478
19260W        W91586  28.533  11.350  10.634
19261W        W91587  40.541  17.181  13.363
19262W        W91588  25.409  27.046   1.409
19263W        W91589   3.420   7.295   2.147
19264W        W91590  14.173  12.644   1.914
19265W        W91591  35.680  24.807   4.194
19266W        W91592   8.856  18.286   1.117
19267W        W91593  19.169  28.230   2.851
19268W        W91594   6.918  39.896  14.797
19269W        W91595  31.968  35.879  12.840
19270W        W91596  14.334   9.715  14.679
19271W        W91597  11.206  39.494  14.449
19272W        W91598   7.240  27.667  12.951
19273W        W91599  10.146  15.457   0.293
19274W        W91600  38.594  42.871   0.789
19275W        W91601  22.551  44.901  14.409
19276W        W91602  39.412  18.300  11.202
19277W        W91603  42.271  18.826   3.760
19278W        W91604  33.818  13.866  10.245
19279W        W91605  30.573  44.184  10.381
19280W        W91606  27.601  12.662   4.735
19281W        W91607  32.532  27.950  13.817
19282W        W91608  22.028  20.047   3.750
19283W        W91609  25.175  37.436  14.029
19284W        W91610  22.393  20.151  12.136
19285W        W91611   0.778  41.971   2.816
19286W        W91612   2.363  29.565   0.733
19287W        W91613  40.318   9.513  14.740
19288W        W91614  42.964  43.868  10.604
19289W        W91615   2.546  38.701  10.119
19290W        W91616  28.844  43.887  12.262
19291W        W91617  33.031  16.011   4.562
19292W        W91618  40.474  12.236   2.913
19293W        W91619   0.598  20.022   1.867
19294W        W91620   2.644  41.467  11.015
19295W        W91621  30.196   1.064   0.446
19296W        W91622  30.648  18.814   3.111
19297W        W91623  14.264  19.602   0.887
19298W        W91624  27.931   5.842  14.828
19299W        W91625   2.538  21.530   4.600
19300W        W91626  39.097  42.943   3.608
19301W        W91627  31.500  19.721   0.688
19302W        W91628   9.637   6.469  13.842
19303W        W91629  13.268  13.136   1.975
19304W        W91630  38.421   4.876   3.760
19305W        W91631   2.345  30.569   2.082
19306W        W91632  39.136  36.493  14.132
19307W        W91633  17.549  21.513   1.423
19308W        W91634  41.070  27.983   4.685
19309W        W91635  27.626   5.882   1.233
19310W        W91636  36.889   2.922   1.436
19311W        W91637  18.269  17.779   1.947
19312W        W91638  12.864  19.171  12.476
19313W        W91639  44.302  30.911   2.277
19314W        W91640   7.874  42.954  14.496
19315W        W91641  22.159   1.051   4.692
19316W        W91642  43.624   7.460  12.571
19317W        W91643   2.898   8.217  13.450
19318W        W91644   1.420  10.626   4.246
19319W        W91645  13.555  30.263   2.208
19320W        W91646  18.249   9.082  12.937
19321W        W91647  21.812  37.644   4.136
19322W        W91648  32.781  40.109  10.162
19323W        W91649   1.130  27.002   2.826
19324W        W91650   6.260  42.047   1.265
19325W        W91651  13.836   0.616  13.550
19326W        W91652   8.288   8.626   2.652
19327W        W91653   2.919  12.693   1.282
19328W        W91654  32.628  32.615   3.644
19329W        W91655   7.319   5.635   0.730
19330W        W91656  32.456   9.126   0.757
19331W        W91657   6.872  30.179   1.801
19332W        W91658   1.921  17.125  12.540
19333W        W91659   0.723   1.154  13.791
19334W        W91660  16.149  14.049  12.897
19335W        W91661  31.109  38.991  12.604
19336W        W91662  26.378  22.574   2.544
19337W        W91663  30.364  12.248   3.738
19338W        W91664  26.502  21.902  13.022
19339W        W91665  12.816  21.823   3.243
19340W        W91666  31.156  14.204   5.072
19341W        W91667  29.613  11.603   1.457
19342W        W91668  36.424  35.565  10.266
19343W        W91669   9.737  19.952  13.902
19344W        W91670  14.744  21.123  14.690
19345W        W91671  38.085  39.883   0.578
19346W        W91672  34.676  38.401   1.625
19347W        W91673  36.559   5.085   1.865
19348W        W91674  14.647  16.575   2.927
19349W        W91675  24.114  14.449  14.613
19350W        W91676   9.377  34.083   4.608
19351W        W91677  36.365   6.486   4.146
19352W        W91678   9.178  20.146  12.679
19353W        W91679  41.754  38.293   1.612
19354W        W91680  26.257  42.255  12.892
19355W        W91681  12.244  23.973   1.645
19356W        W91682   2.866  35.612   1.879
19357W        W91683   2.793  30.114  12.985
19358W        W91684  22.667  42.397  12.560
19359W        W91685  33.851  15.433   3.104
19360W        W91686  30.168  38.998   0.730
19361W        W91687  24.615  28.837  10.679
19362W        W91688  34.630  21.437   3.063
19363W        W91689  16.302  26.250   1.808
19364W        W91690  25.131  24.010   4.532
19365W        W91691   3.767  29.460  14.542
19366W        W91692  22.820  13.066  12.111
19367W        W91693  23.257  43.456   3.320
19368W        W91694  34.089  19.085   4.439
19369W        W91695  12.260  15.701  13.514
19370W        W91696   8.934  18.106   0.596
19371W        W91697  44.832  39.576  10.609
19372W        W91698  40.497  44.491   4.661
19373W        W91699   4.818   8.382   4.088
19374W        W91700  31.180   7.462   1.875
19375W        W91701  25.066   7.231  12.495
19376W        W91702   7.857  38.129   1.688
19377W        W91703  29.779  33.461  11.900
19378W        W91704  15.765  12.148  12.539
19379W        W91705  44.927  11.061   3.267
19380W        W91706  17.289  34.642  13.297
19381W        W91707  22.269  29.122  11.563
19382W        W91708   3.924  40.656  14.012
19383W        W91709  21.562  39.587  14.015
19384W        W91710  18.112  22.455  11.967
19385W        W91711  17.827  39.440   3.146
19386W        W91712  20.540   7.655  11.609
19387W        W91713  42.575  10.609   4.124
19388W        W91714  37.797  34.180  12.065
19389W        W91715  24.066  28.446  13.360
19390W        W91716  44.116  25.039   3.968
19391W        W91717  13.288   3.102  11.994
19392W        W91718  17.203  41.153   4.693
19393W        W91719   4.345  21.782   1.571
19394W        W91720   8.829  41.044  12.989
19395W        W91721  20.575  11.090   3.007
19396W        W91722  38.303   6.533  12.853
19397W        W91723  38.919  25.935   4.180
19398W        W91724  24.587  25.681   4.715
19399W        W91725  14.797  13.030  14.470
19400W        W91726   4.990   0.896   4.193
19401W        W91727  36.120   1.162  14.613
19402W        W91728  44.929  19.566   1.069
19403W        W91729  27.275   4.120   1.054
19404W        W91730  41.940  34.965   1.934
19405W        W91731  32.698  18.580  13.369
19406W        W91732   2.640  18.957  12.100
19407W        W91733  42.340  29.166  10.650
19408W        W91734  31.382  43.416  12.498
19409W        W91735  30.473  11.617  14.230
19410W        W91736  15.353  16.113   3.213
19411W        W91737   4.300  17.314   0.037
19412W        W91738  27.309  44.037   4.588
19413W        W91739  35.160  24.216   0.756
19414W        W91740  30.462  43.810   3.637
19415W        W91741  32.063   0.423   4.426
19416W        W91742   1.856  31.186   4.025
19417W        W91743  12.023  12.641  12.049
19418W        W91744  14.083  40.616   1.925
19419W        W91745  26.539  15.101  13.986
19420W        W91746   2.070  32.445   4.617
19421W        W91747  30.497  30.107   2.206
19422W        W91748  23.006  41.956  10.489
19423W        W91749  39.208  32.911   3.450
19424W        W91750  40.640  22.946   0.568
19425W        W91751   4.696   5.779  14.340
19426W        W91752  38.492  23.265  13.993
19427W        W91753  37.508  38.747   4.553
19428W        W91754  28.080  29.008  14.542
19429W        W91755  36.834   3.426  14.325
19430W        W91756  19.657   3.404   4.764
19431W        W91757  34.785  42.228  11.814
19432W        W91758  36.523  30.473   3.598
19433W        W91759  28.006  33.834   2.763
19434W        W91760  38.844  19.844   4.812
19435W        W91761  14.552  33.325  12.515
19436W        W91762   2.883   0.663   2.756
19437W        W91763  34.261  28.483  10.586
19438W        W91764   5.459  13.685  11.597
19439W        W91765  28.898  41.803  12.467
19440W        W91766   8.358  38.418   0.381
19441W        W91767  35.109  31.632   2.848
19442W        W91768   3.704  40.876  10.978
19443W        W91769  33.034  40.042   2.677
19444W        W91770  13.600   7.669  11.440
19445W        W91771  24.484  14.235   0.776
19446W        W91772  37.895  25.277  14.754
19447W        W91773  36.978   4.259   1.645
19448W        W91774  33.446  12.574   2.655
19449W        W91775  23.099  37.842   0.439
19450W        W91776   9.013  25.779  14.536
19451W        W91777  36.115  36.337   0.351
19452W        W91778  39.865  26.424  11.105
19453W        W91779  23.936  30.374   2.742
19454W        W91780   1.037  28.475  12.079
19455W        W91781  22.710  38.784  14.526
19456W        W91782  37.097   2.445   1.460
19457W        W91783  34.261  12.732  11.171
19458W        W91784   7.835  11.399   0.757
19459W        W91785  31.550  22.107  12.624
19460W        W91786  19.724  34.057  11.744
19461W        W91787  18.130   1.207   0.396
19462W        W91788  13.316  38.175  11.757
19463W        W91789   2.985  38.014  13.299
19464W        W91790  34.326  36.429  12.914
19465W        W91791  22.923   5.361  13.006
19466W        W91792   0.440   6.161  14.898
19467W        W91793  43.932  40.364   3.403
19468W        W91794  25.468  40.972   1.232
19469W        W91795  23.759   8.628   5.004
19470W        W91796   1.526   9.862  10.732
19471W        W91797  21.077  16.910   4.569
19472W        W91798  37.027  16.757   4.793
19473W        W91799  44.019  33.633   0.911
19474W        W91800  31.902  41.772  11.013
19475W        W91801  37.984   3.949   1.315
19476W        W91802  34.335  33.101  13.676
19477W        W91803  34.503   7.060  14.609
19478W        W91804  27.536  28.912   2.408
19479W        W91805  32.133   9.625   2.046
19480W        W91806  22.963  17.173   3.558
19481W        W91807  29.891  23.139   3.221
19482W        W91808  22.586  13.350  11.145
19483W        W91809   9.095  24.425  13.993
19484W        W91810  21.717   6.736   3.589
19485W        W91811  37.511  24.608  14.013
19486W        W91812  37.978  23.961  12.926
19487W        W91813  26.960  42.292  14.107
19488W        W91814  24.725   0.647   4.579
19489W        W91815  36.511   3.582   4.096
19490W        W91816  22.150  30.668   2.327
19491W        W91817   7.426  20.283  12.052
19492W        W91818  31.222  42.933  10.445
19493W        W91819  26.684  22.374  14.941
19494W        W91820   4.431  43.449   2.365
19495W        W91821  20.127  21.775   4.770
19496W        W91822  34.008  31.124   4.704
19497W        W91823  40.735  15.169  12.839
19498W        W91824  12.663  18.155   3.886
19499W        W91825   3.193  18.737  12.979
19500W        W91826   9.774  43.783   0.481
19501W        W91827  24.613  26.365  12.858
19502W        W91828  16.062  15.025  11.995
19503W        W91829  11.629  44.786   1.920
19504W        W91830   1.003   1.294  14.724
19505W        W91831  39.264  12.431  11.711
19506W        W91832  28.399  40.647  14.531
19507W        W91833  29.086  13.841  13.754
19508W        W91834  20.283   9.421  14.767
19509W        W91835   8.010  20.222   1.859
19510W        W91836  17.770  29.384   1.506
19511W        W91837  39.415  32.841   1.282
19512W        W91838  14.637  44.220  11.837
19513W        W91839  40.685  24.936   3.293
19514W        W91840  11.814  15.581  13.790
19515W        W91841   2.835  33.028   3.855
19516W        W91842  25.900  20.174  11.131
19517W        W91843  38.528   3.970   3.767
19518W        W91844  44.458   3.427   0.336
19519W        W91845  41.714  36.398  13.488
19520W        W91846  40.476  15.638   0.424
19521W        W91847   4.358   7.783  14.717
19522W        W91848   1.456  40.331   0.813
19523W        W91849  23.629  31.389   2.924
19524W        W91850  18.101  11.921   2.672
19525W        W91851  39.259   3.488  13.445
19526W        W91852  24.712  26.629   1.226
19527W        W91853  38.605   8.362  12.090
19528W        W91854  40.732  41.842   3.162
19529W        W91855  16.984  14.233  13.012
19530W        W91856  29.906   3.460   1.691
19531W        W91857   2.828  34.088   1.362
19532W        W91858  17.043  10.667  11.934
19533W        W91859   8.297  41.891  12.535
19534W        W91860  37.984  31.448  14.715
19535W        W91861   1.779  40.265  12.828
19536W        W91862   8.276  16.102   3.889
19537W        W91863   0.951  25.456   1.041
19538W        W91864  10.728   1.086   3.771
19539W        W91865  21.970  37.325   3.151
19540W        W91866  27.048  30.831  13.940
19541W        W91867  41.419  12.550   0.315
19542W        W91868  43.633  34.437   1.605
19543W        W91869   1.975  14.870   4.605
19544W        W91870   6.912  18.708  11.607
19545W        W91871  11.146  18.833  13.413
19546W        W91872  25.614   1.786   3.015
19547W        W91873  23.687   9.570  13.076
19548W        W91874   0.821  22.547   9.964
19549W        W91875  31.034  29.964  14.057
19550W        W91876  39.300  18.561  13.415
19551W        W91877  35.284  10.717   4.522
19552W        W91878  20.862  36.331   2.217
19553W        W91879  22.683  41.563   1.989
19554W        W91880   8.219  13.417   3.229
19555W        W91881  27.004  44.007  13.766
19556W        W91882   2.309  15.314  12.182
19557W        W91883  44.690  38.605  12.491
19558W        W91884  28.503  43.457  10.501
19559W        W91885  29.791  18.440   1.157
19560W        W91886  38.000  42.294  12.453
19561W        W91887   8.986  39.708  11.165
19562W        W91888  37.294  35.548  11.211
19563W        W91889   0.420  24.027   3.906
19564W        W91890  43.280  18.863   3.787
19565W        W91891  38.082   5.487   1.418
19566W        W91892  21.619   9.784   0.812
19567W        W91893  39.071  37.020  11.734
19568W        W91894   2.817  28.159   0.779
19569W        W91895  41.046  20.503  11.459
19570W        W91896  29.269  44.383  10.486
19571W        W91897  26.038  19.960   1.704
19572W        W91898  32.488   1.710  12.110
19573W        W91899  39.662  11.262  14.829
19574W        W91900   0.939  36.909  14.803
19575W        W91901  15.872   5.679   3.723
19576W        W91902  38.435  31.944  10.854
19577W        W91903  43.370   9.331  12.951
19578W        W91904  16.262  26.979  14.352
19579W        W91905   8.856  20.321   3.802
19580W        W91906  28.133  22.525  12.978
19581W        W91907  27.466  41.729   1.766
19582W        W91908  28.914   5.358  11.517
19583W        W91909   2.288   6.094   4.164
19584W        W91910  43.077  33.087   4.726
19585W        W91911   6.729  12.509  13.964
19586W        W91912  17.135  31.404  13.154
19587W        W91913  43.533   1.180  10.804
19588W        W91914  24.943   8.681  13.814
19589W        W91915  39.005  42.259  12.323
19590W        W91916  24.032  18.266  14.395
19591W        W91917  42.344  16.203   1.376
19592W        W91918  12.752  28.192   3.892
19593W        W91919   7.271   8.652   2.616
19594W        W91920  17.371  18.450   2.205
19595W        W91921  42.720   0.363   0.853
19596W        W91922  28.099  25.245   4.051
19597W        W91923   9.866  20.537  13.078
19598W        W91924  11.316  33.478  12.042
19599W        W91925   1.312  20.692  14.884
19600W        W91926  18.246   9.525  11.088
19601W        W91927  37.853  25.733  10.629
19602W        W91928  29.117   0.784  10.894
19603W        W91929   7.308   2.125  12.082
19604W        W91930  33.956  10.230  13.925
19605W        W91931  42.237   8.270  10.655
19606W        W91932  23.324  34.413  14.822
19607W        W91933  27.056  16.250  11.510
19608W        W91934   5.556   1.373   2.720
19609W        W91935   8.758  39.109   2.942
19610W        W91936  15.620  19.471   4.699
19611W        W91937  36.339  25.981  13.945
19612W        W91938  30.859   1.575   4.026
19613W        W91939   8.935  35.008  12.403
19614W        W91940  21.002   1.978  13.971
19615W        W91941  16.730   0.044  14.034
19616W        W91942  41.090  31.231   3.364
19617W        W91943  41.279  13.198  12.009
19618W        W91944   3.332  25.802   1.302
19619W        W91945  26.510  10.088   1.497
19620W        W91946   7.853   3.209  13.592
19621W        W91947  14.869   2.413   2.867
19622W        W91948  39.154  27.132  14.709
19623W        W91949  40.807  15.997   2.731
19624W        W91950  20.981  33.836  10.594
19625W        W91951   3.673  29.879   3.581
19626W        W91952  37.125  38.357   4.116
19627W        W91953   7.897   5.984   1.272
19628W        W91954  19.219  31.504   1.200
19629W        W91955  23.042  39.782  14.644
19630W        W91956  44.923  25.269  11.256
19631W        W91957  36.367  28.682  13.914
19632W        W91958   5.961   3.245  10.790
19633W        W91959  20.271   2.217  11.150
19634W        W91960  41.273  35.027   0.036
19635W        W91961  39.493  20.573   0.755
19636W        W91962  33.559   4.889   4.826
19637W        W91963   8.897  41.303   3.656
19638W        W91964  13.595  37.568   0.951
19639W        W91965  37.299  27.668   3.580
19640W        W91966  13.671   8.648   3.561
19641W        W91967  29.269   4.246   1.325
19642W        W91968  29.488   0.278  14.402
19643W        W91969  37.329  26.711  12.836
19644W        W91970   4.388  41.228  11.881
19645W        W91971  16.313   7.810   1.778
19646W        W91972  26.932  10.639   1.838
19647W        W91973  17.197  36.228   4.545
19648W        W91974  27.358  35.626  10.790
19649W        W91975   9.435  37.790   4.670
19650W        W91976  15.558   5.663  11.572
19651W        W91977  38.995  36.423   0.402
19652W        W91978  15.991  43.981   3.331
19653W        W91979   7.598  14.692   3.238
19654W        W91980  17.775   5.215  14.999
19655W        W91981  44.873  39.484   2.304
19656W        W91982  11.067   0.014   0.230
19657W        W91983   4.220   5.427   2.357
19658W        W91984   5.740  25.385  14.787
19659W        W91985   5.731   8.203  10.811
19660W        W91986  17.228  35.099   0.503
19661W        W91987  42.251  31.865   0.298
19662W        W91988  18.149  34.968   0.093
19663W        W91989   0.837   3.370  10.554
19664W        W91990  17.242  39.418   2.460
19665W        W91991  36.662  21.479  14.943
19666W        W91992  19.139  37.999  13.521
19667W        W91993  26.905  15.828   5.034
19668W        W91994   1.972  43.757  13.489
19669W        W91995  13.686  39.849  14.029
19670W        W91996  32.063  31.015   3.247
19671W        W91997  42.265   3.926   2.845
19672W        W91998  13.260  32.470   3.048
19673W        W91999  19.110  22.597   4.946
19674W        W92000  19.012  10.339  13.130
19675W        W92001  33.972  14.864   0.548
19676W        W92002  34.795  12.052   4.534
19677W        W92003  15.288  10.619   4.805
19678W        W92004   7.467  30.958   2.286
19679W        W92005  37.837  38.420   2.735
19680W        W92006  32.661  38.197   3.672
19681W        W92007  38.633   0.046   3.775
19682W        W92008  33.741  20.633   4.917
19683W        W92009  31.768  33.105  13.500
19684W        W92010   9.855  24.172  11.964
19685W        W92011  35.968  24.998  13.001
19686W        W92012  44.549   1.892   1.270
19687W        W92013   8.898  42.462  14.399
19688W        W92014  36.419  21.639   3.083
19689W        W92015  36.459   8.663   4.608
19690W        W92016   2.247  21.181  14.821
19691W        W92017  41.310   0.962  11.075
19692W        W92018  24.905  31.674   3.389
19693W        W92019   5.203  31.340   2.860
19694W        W92020  33.983  35.145  13.166
19695W        W92021  18.468   0.009  11.121
19696W        W92022  18.153  38.179   3.536
19697W        W92023  13.951  16.048  14.359
19698W        W92024  25.980  42.818  12.214
19699W        W92025   1.831   5.791   3.225
19700W        W92026   5.203  34.880   0.606
19701W        W92027   0.167  18.822  13.973
19702W        W92028  16.398   7.267  11.638
19703W        W92029   7.381  18.060   0.652
19704W        W92030  37.340   9.827  13.993
19705W        W92031  22.553  38.457   0.329
19706W        W92032   1.649  18.720  14.151
19707W        W92033  27.072  40.253  12.043
19708W        W92034  36.886  18.652  12.664
19709W        W92035  35.246   7.427  11.723
19710W        W92036   0.876  38.800  12.487
19711W        W92037  22.712  14.441   4.549
19712W        W92038  40.833  22.658   2.555
19713W        W92039  29.624  34.666  10.598
19714W        W92040  44.453   6.415  14.480
19715W        W92041  29.118  25.687   4.829
19716W        W92042  18.220  25.583  11.945
19717W        W92043  18.073   9.650   0.031
19718W        W92044  40.127  22.690  10.588
19719W        W92045  10.815  24.935   1.053
19720W        W92046  40.825  19.058  13.443
19721W        W92047  36.845  39.293  12.262
19722W        W92048  29.907  27.089  14.613
19723W        W92049  33.809   4.365   2.695
19724W        W92050  20.709  42.100   0.780
19725W        W92051   9.160   4.746   2.776
19726W        W92052  16.529  15.864   1.278
19727W        W92053  39.988   6.047  14.173
19728W        W92054  10.734   3.145   3.138
19729W        W92055  38.914  36.969  11.244
19730W        W92056  38.829  26.268  14.685
19731W        W92057  35.400  30.603   0.533
19732W        W92058  11.730  35.349  11.204
19733W        W92059  14.164  17.040   1.714
19734W        W92060  30.737   0.886   4.641
19735W        W92061   3.748  43.032  10.610
19736W        W92062  35.899  21.624  13.903
19737W        W92063  14.720  17.027   2.691
19738W        W92064  25.922  29.250   2.301
19739W        W92065  13.763  22.199  14.666
19740W        W92066  22.646  12.055   4.139
19741W        W92067   7.262   8.835  14.688
19742W        W92068  17.264  40.615  13.942
19743W        W92069  17.332  44.907   2.696
19744W        W92070   2.041  16.267   4.660
19745W        W92071  22.625   6.466  14.967
19746W        W92072  28.065  42.073   0.501
19747W        W92073  16.152  29.555   2.148
19748W        W92074  24.001  31.573   1.797
19749W        W92075  43.097  32.107   0.719
19750W        W92076  16.021  21.663  14.431
19751W        W92077  44.974  20.654  13.872
19752W        W92078  37.850   5.475   1.910
19753W        W92079  35.493  33.870  13.330
19754W        W92080  13.911  13.585  14.404
19755W        W92081  41.219  20.360   2.768
19756W        W92082  26.506  18.494   4.671
19757W        W92083  42.978  27.264   0.443
19758W        W92084   1.469  29.373  13.915
19759W        W92085   8.948  32.579  12.502
19760W        W92086  24.198  39.759  14.773
19761W        W92087   8.368  40.364   1.506
19762W        W92088   8.859  29.901  13.324
19763W        W92089   8.500   0.905  14.426
19764W        W92090   4.732  22.861   4.229
19765W        W92091  42.061  21.477  13.342
19766W        W92092   2.011  37.603  11.090
19767W        W92093  43.598   3.509  13.026
19768W        W92094  23.564   5.803   4.576
19769W        W92095  26.789  31.439  11.053
19770W        W92096  22.983  39.513   4.170
19771W        W92097  16.208  33.805  13.064
19772W        W92098  14.555  27.677  13.353
19773W        W92099   0.383  18.216   3.411
19774W        W92100  16.367  17.262  13.429
19775W        W92101  32.887  22.580   2.763
19776W        W92102   4.885  16.633   2.110
19777W        W92103  15.638  14.470   2.668
19778W        W92104  15.544   2.277  14.369
19779W        W92105  17.541  13.238   0.828
19780W        W92106  28.971   9.435   1.234
19781W        W92107  20.054  31.335  10.790
19782W        W92108  25.498  21.501   3.099
19783W        W92109  28.199  11.682  11.030
19784W        W92110  25.755   3.330   3.847
19785W        W92111  18.329  25.150  14.032
19786W        W92112  38.572   1.204   2.336
19787W        W92113  43.688  35.156   4.055
19788W        W92114   6.734  35.930   2.843
19789W        W92115   5.449   6.768  10.508
19790W        W92116  26.264   0.802  14.421
19791W        W92117  13.515  28.977  11.143
19792W        W92118  22.232  40.861  11.903
19793W        W92119   6.875  29.666   1.746
19794W        W92120  26.860  35.879   2.640
19795W        W92121  12.647  29.699   1.440
19796W        W92122  28.627  25.604   0.032
19797W        W92123   4.898   0.736  14.906
19798W        W92124  20.241   5.903   4.630
19799W        W92125  32.998   3.279   4.568
19800W        W92126   2.108  17.256   3.453
19801W        W92127  20.129   0.426  10.636
19802W        W92128  39.827  39.449   4.180
19803W        W92129  20.676  40.771  10.918
19804W        W92130  26.096  26.256   3.175
19805W        W92131   9.927   3.980  13.943
19806W        W92132   2.790   8.691  10.134
19807W        W92133  40.433  18.157   0.233
19808W        W92134  16.557  35.585  12.354
19809W        W92135  23.148  16.908  12.394
19810W        W92136  22.343  30.850   3.742
19811W        W92137  23.102  40.584  12.901
19812W        W92138  28.927  29.123  13.060
19813W        W92139  19.935  22.674  14.446
19814W        W92140  13.669  28.989   4.160
19815W        W92141  44.281   5.870   1.335
19816W        W92142  43.310  29.008   2.409
19817W        W92143   8.457  27.581  12.507
19818W        W92144  34.731  42.402   3.118
19819W        W92145  38.406   5.854  14.744
19820W        W92146   2.120  26.464   0.357
19821W        W92147  11.065  10.280   1.862
19822W        W92148  16.322  11.836   0.794
19823W        W92149  37.003  11.496  12.478
19824W        W92150  44.005  36.486  13.736
19825W        W92151  18.550  25.233  12.098
19826W        W92152  21.183   6.103  14.740
19827W        W92153  10.620  10.271   3.190
19828W        W92154   8.188  13.914   3.073
19829W        W92155  42.761  27.833  12.060
19830W        W92156   7.937  21.209   0.843
19831W        W92157  21.199   8.736  14.994
19832W        W92158  34.124  28.107   1.269
19833W        W92159  15.849  22.650  14.833
19834W        W92160  38.889  42.191   3.122
19835W        W92161  23.001  42.809   4.079
19836W        W92162  37.081  44.390   4.160
19837W        W92163  31.467   2.682  13.635
19838W        W92164  29.947  11.277  12.886
19839W        W92165  29.006  24.764   4.141
19840W        W92166  11.716  17.258  11.478
19841W        W92167  17.025  33.087  11.623
19842W        W92168  27.667  12.162   0.940
19843W        W92169  22.427  11.390  12.403
19844W        W92170  41.803  22.613  14.561
19845W        W92171  36.372  37.887   2.948
19846W        W92172   0.352  12.654   0.430
19847W        W92173  37.067  21.694   0.567
19848W        W92174  44.651  37.852   0.727
19849W        W92175  32.497  40.431   4.775
19850W        W92176  40.538  16.953  10.511
19851W        W92177  17.266  16.648  12.527
19852W        W92178  27.202  44.851  14.759
19853W        W92179  44.499   5.950  12.359
19854W        W92180   6.295  16.206   1.472
19855W        W92181  12.311  24.682   4.669
19856W        W92182   9.212   6.825   0.875
19857W        W92183  35.055  18.582   2.602
19858W        W92184   7.301  16.989  13.146
19859W        W92185   0.935  27.588   1.275
19860W        W92186  41.984  11.590  14.203
19861W        W92187  26.730   1.938  11.557
19862W        W92188  29.021  11.129  12.890
19863W        W92189  18.760  28.185   4.183
19864W        W92190  16.330  16.188  14.910
19865W        W92191  40.037  10.162   4.134
19866W        W92192  40.270  44.288   3.664
19867W        W92193   5.685   3.063   2.657
19868W        W92194  18.867  34.640   1.239
19869W        W92195  29.072  44.926   3.366
19870W        W92196  29.399  24.752   2.324
19871W        W92197   6.275  20.608  14.826
19872W        W92198  14.083  20.458  14.885
19873W        W92199  14.776  41.169   2.833
19874W        W92200  10.222  24.145   1.822
19875W        W92201  28.532  23.694  11.898
19876W        W92202   1.157  26.447  10.347
19877W        W92203  31.057   0.356   2.836
19878W        W92204  44.528  26.891  14.990
19879W        W92205  44.546  16.876  12.054
19880W        W92206  14.991  33.957  13.267
19881W        W92207  15.835  11.377  14.046
19882W        W92208  43.169  23.996  11.957
19883W        W92209  15.835   9.270   0.904
19884W        W92210  16.189   2.085   3.606
19885W        W92211  21.753   1.371  11.316
19886W        W92212  13.902  13.070   0.781
19887W        W92213  28.133  26.362   4.586
19888W        W92214   0.893  19.711   2.389
19889W        W92215  12.719  31.107   1.618
19890W        W92216  29.345  34.234  12.540
19891W        W92217   3.735   7.638   1.901
19892W        W92218  34.441  34.877  14.794
19893W        W92219  16.408  20.325   1.214
19894W        W92220  39.182  27.568  13.975
19895W        W92221  23.204  30.878  13.712
19896W        W92222  23.417   2.374   0.798
19897W        W92223  20.150  16.766  14.490
19898W        W92224  19.232  42.075   4.150
19899W        W92225  18.675  40.270  11.234
19900W        W92226  41.861  36.940  12.040
19901W        W92227  14.116  38.915   2.788
19902W        W92228  17.306   5.925   0.373
19903W        W92229  26.643  38.688  10.606
19904W        W92230  20.823  43.833  13.799
19905W        W92231   2.940  44.987  11.079
19906W        W92232  11.113  23.160   3.783
19907W        W92233  29.737  27.422   3.392
19908W        W92234  19.874  26.092   3.620
19909W        W92235  11.840  13.133  13.152
19910W        W92236  11.919  15.058   4.507
19911W        W92237  33.588  19.070  14.938
19912W        W92238  38.333   5.266   2.760
19913W        W92239  13.892   8.485  14.410
19914W        W92240   0.337  17.109   0.377
19915W        W92241  44.750  28.468   3.151
19916W        W92242  25.154  38.149  10.874
19917W        W92243  37.522  26.074  14.511
19918W        W92244  40.890  35.363   0.049
19919W        W92245  30.902   3.169  11.208
19920W        W92246   6.647  34.325  10.509
19921W        W92247  34.001  42.985   2.359
19922W        W92248   5.023  44.156  10.351
19923W        W92249   4.485   2.484  11.408
19924W        W92250  37.928   0.394  13.128
19925W        W92251  36.425   9.783   2.912
19926W        W92252  18.665   7.380  12.041
19927W        W92253  33.151  29.604   4.955
19928W        W92254  42.962   9.266   3.327
19929W        W92255   0.830  38.956   0.273
19930W        W92256  42.313  35.025   1.215
19931W        W92257  10.684   1.951  11.673
19932W        W92258  29.004  40.423  11.551
19933W        W92259  24.417  38.908   0.009
19934W        W92260   4.405  14.645   0.817
19935W        W92261  25.415  26.494   2.639
19936W        W92262  43.014  38.511   1.354
19937W        W92263  30.207  25.578   5.113
19938W        W92264  22.114  40.168  13.642
19939W        W92265  11.769  12.578  10.681
19940W        W92266   6.795   4.865  13.054
19941W        W92267  31.220   7.371  11.064
19942W        W92268  24.972   8.847   4.238
19943W        W92269  23.947   9.974  13.290
19944W        W92270  20.098  38.627  14.966
19945W        W92271   9.390  25.421  10.481
19946W        W92272   6.446  16.890  11.239
19947W        W92273  20.606  20.590  12.309
19948W        W92274  34.949  31.927  12.977
19949W        W92275   0.373  22.692  11.835
19950W        W92276  10.609  14.588   4.744
19951W        W92277  41.729   6.230  10.757
19952W        W92278  29.407  28.064  14.018
19953W        W92279  11.285   8.608  11.443
19954W        W92280  34.952  20.312  12.403
19955W        W92281  43.883  10.113   0.873
19956W        W92282   6.594  17.550   4.457
19957W        W92283  12.069  22.087  14.215
19958W        W92284  30.626   2.634   4.995
19959W        W92285  22.574  12.075   0.332
19960W        W92286   6.142  27.142   0.410
19961W        W92287  25.164  23.432   0.789
19962W        W92288  18.761  13.778  13.124
19963W        W92289  43.348  28.406  10.956
19964W        W92290  10.775   2.236   4.534
19965W        W92291  26.607  34.893   0.989
19966W        W92292   5.417  27.706  14.947
19967W        W92293  18.521  28.019  14.452
19968W        W92294  39.984  38.153  12.853
19969W        W92295  24.549   5.399  14.875
19970W        W92296  30.176   5.210  11.049
19971W        W92297   6.693   4.807   0.788
19972W        W92298  24.214  11.098   4.288
19973W        W92299  33.500   1.173  10.361
19974W        W92300   2.740   7.673   0.700
19975W        W92301   9.287  28.012   4.051
19976W        W92302  42.216  19.249  14.440
19977W        W92303  41.370  32.722   3.997
19978W        W92304  26.692  27.600  12.813
19979W        W92305  25.360  35.138  11.009
19980W        W92306  12.854   8.197   4.666
19981W        W92307  44.489  42.392   1.738
19982W        W92308  29.951   3.290  11.130
19983W        W92309  27.144  27.674   0.401
19984W        W92310  11.780  28.370   1.040
19985W        W92311  22.204  36.895  12.082
19986W        W92312   7.062  19.146   1.998
19987W        W92313  40.526  24.015   2.437
19988W        W92314  42.591   4.883   1.525
19989W        W92315  22.284  37.183   3.655
19990W        W92316   5.075  35.041   1.083
19991W        W92317  13.266  30.095   1.332
19992W        W92318  24.241  39.468  13.362
19993W        W92319  31.135   3.857   1.257
19994W        W92320  33.402   0.801  12.573
19995W        W92321  32.449   4.343  11.590
19996W        W92322  22.995  38.323  14.415
19997W        W92323  29.885   2.810   2.285
19998W        W92324   9.724  19.732  10.762
19999W        W92325  31.717   7.791   2.320
20000W        W92326  21.088  38.144  14.160
20001W        W92327  32.531  13.053  12.628
20002W        W92328  24.590   2.352   3.783
20003W        W92329   0.256   7.076   4.663
20004W        W92330  30.566  15.125  13.136
20005W        W92331  42.822  31.661   3.814
20006W        W92332  14.593   3.851  12.492
20007W        W92333  38.336  12.769   3.745
20008W        W92334  30.036  41.193  14.001
20009W        W92335  15.629   8.492   2.517
20010W        W92336  38.133  35.565  10.792
20011W        W92337  21.538   6.497   4.004
20012W        W92338  35.782  18.469   1.405
20013W        W92339  25.480   4.778  14.639
20014W        W92340  11.853  43.923   2.416
20015W        W92341  23.627  26.311  14.309
20016W        W92342  17.617  32.621  14.905
20017W        W92343   2.716  12.322   9.563
20018W        W92344  41.790  28.413  10.731
20019W        W92345   5.899  37.109  11.754
20020W        W92346  20.407  14.831   1.704
20021W        W92347  32.900  29.368  11.389
20022W        W92348   9.064  24.069  14.946
20023W        W92349  25.663  16.692   4.122
20024W        W92350  19.009  14.397  14.471
20025W        W92351  36.364   7.310   0.238
20026W        W92352  29.020  12.863   3.341
20027W        W92353   0.485   5.509   1.122
20028W        W92354  22.167  27.325   3.358
20029W        W92355   0.407   3.483  12.443
20030W        W92356  13.757  15.795  14.782
20031W        W92357  20.270  14.227   2.865
20032W        W92358  15.114  22.298  14.002
20033W        W92359   7.322  20.002   0.842
20034W        W92360   7.875   9.823   4.654
20035W        W92361   1.231  14.139  13.353
20036W        W92362   3.510  26.222  13.510
20037W        W92363  17.188  31.945   0.867
20038W        W92364  24.015   5.145   4.126
20039W        W92365  11.216  31.922  10.937
20040W        W92366  25.169   3.844   1.253
20041W        W92367  15.032  23.979   3.174
20042W        W92368  37.473  23.702  14.816
20043W        W92369  44.762   6.875   3.520
20044W        W92370  39.764  31.374  12.732
20045W        W92371  26.556  36.618   1.212
20046W        W92372  30.493  38.009  10.894
20047W        W92373  29.462  14.302   5.358
20048W        W92374   4.442  31.958  11.904
20049W        W92375  36.326  18.280   2.808
20050W        W92376  23.906   6.184  10.390
20051W        W92377  25.013  37.547   2.417
20052W        W92378  39.001  38.022  11.652
20053W        W92379   5.296   7.845   4.576
20054W        W92380  42.957  20.068  10.432
20055W        W92381  12.663  34.430   0.187
20056W        W92382  34.847  41.544   3.399
20057W        W92383  41.411  44.254   3.322
20058W        W92384  39.242   0.455   4.191
20059W        W92385  19.251  17.414  12.450
20060W        W92386   2.023   5.766   3.704
20061W        W92387  19.764  43.077  13.029
20062W        W92388   1.432   8.769  12.334
20063W        W92389   7.153  24.197   1.424
20064W        W92390   4.695  16.105  14.309
20065W        W92391   9.320  44.727  10.228
20066W        W92392  20.574  41.908   4.785
20067W        W92393   7.087  20.166  11.200
20068W        W92394  20.744  30.464   2.294
20069W        W92395  42.297  12.357  11.966
20070W        W92396  29.697  44.256  10.792
20071W        W92397  21.194  13.305  11.194
20072W        W92398  31.503  22.036  14.583
20073W        W92399  26.748  43.807   0.314
20074W        W92400  43.488  13.554   4.942
20075W        W92401   1.770  29.453  14.421
20076W        W92402  41.307   1.590   2.359
20077W        W92403  30.559  43.449   1.020
20078W        W92404  21.059  19.803   1.534
20079W        W92405  14.669   4.714   3.123
20080W        W92406  20.008  33.396  11.641
20081W        W92407   3.218   7.373  10.686
20082W        W92408  35.836  26.399   3.683
20083W        W92409  27.358   6.198  14.429
20084W        W92410  11.674   2.219  10.542
20085W        W92411  22.099  29.179   2.374
20086W        W92412  35.241  11.650  12.076
20087W        W92413   7.723  28.740  11.693
20088W        W92414  20.004  34.991  13.892
20089W        W92415  22.613  23.740  12.863
20090W        W92416   1.441  35.078   4.972
20091W        W92417  27.023  44.066  10.627
20092W        W92418  18.821  35.810  10.746
20093W        W92419   2.798  33.364  12.457
20094W        W92420  17.015  30.293  14.536
20095W        W92421  27.225  11.136  13.821
20096W        W92422  31.909  18.133  12.100
20097W        W92423  19.297  15.269  12.798
20098W        W92424  43.942  19.304   2.271
20099W        W92425  44.503  44.378  14.717
20100W        W92426  34.524   0.827  14.841
20101W        W92427  30.236  35.058  13.266
20102W        W92428   8.579   1.652   2.821
20103W        W92429   4.859  30.102   0.852
20104W        W92430  12.155  21.747   1.067
20105W        W92431   3.308  35.068   0.054
20106W        W92432  31.204  42.066   4.808
20107W        W92433  41.235  29.519  13.643
20108W        W92434  19.788   2.986  12.555
20109W        W92435  33.039  14.909   2.846
20110W        W92436   6.912  34.993   4.296
20111W        W92437   5.432  37.098   1.905
20112W        W92438  27.250  39.511   4.755
20113W        W92439  43.786  43.084  12.504
20114W        W92440  31.501  44.775   2.879
20115W        W92441  27.029   7.643   4.113
20116W        W92442  17.819  38.354  11.547
20117W        W92443  40.279   3.190  10.341
20118W        W92444   1.481   6.259   4.318
20119W        W92445  36.552  30.939  12.942
20120W        W92446   9.873  22.551  11.125
20121W        W92447  14.640  11.893   2.405
20122W        W92448  11.124  15.455   3.797
20123W        W92449  44.201  32.380  11.477
20124W        W92450  38.792  28.176   2.356
20125W        W92451   5.980  14.147  12.891
20126W        W92452   1.326   3.146   1.210
20127W        W92453  13.639  13.356  11.152
20128W        W92454  27.552  27.404   0.186
20129W        W92455  29.512  16.541   4.508
20130W        W92456  11.864  32.123   0.413
20131W        W92457  40.187  27.173   2.839
20132W        W92458   7.174  28.667   0.023
20133W        W92459  16.361   4.414   0.718
20134W        W92460  44.991  20.013   4.084
20135W        W92461   7.115  15.295  14.764
20136W        W92462  28.635  16.044  10.656
20137W        W92463   5.412   0.279  13.137
20138W        W92464  38.742  19.411  11.727
20139W        W92465  19.175  42.744   0.762
20140W        W92466   8.253  12.791  14.250
20141W        W92467  20.825  13.721  13.399
20142W        W92468   9.444  32.947  14.109
20143W        W92469  35.849   3.780  12.975
20144W        W92470  21.617   8.503  13.500
20145W        W92471  20.022   4.338  13.035
20146W        W92472  35.563  32.996  12.386
20147W        W92473   6.435  40.332  12.448
20148W        W92474  44.395  44.383   4.505
20149W        W92475   1.297   4.635   3.241
20150W        W92476  16.598  27.510  11.544
20151W        W92477   8.220  16.412   4.985
20152W        W92478  14.224  35.101   0.818
20153W        W92479  33.130  11.182  13.757
20154W        W92480  18.742  18.436   5.152
20155W        W92481  42.894  17.283  10.406
20156W        W92482  40.003  31.191   2.683
20157W        W92483  34.805  39.945  14.816
20158W        W92484  23.706  17.513   5.583
20159W        W92485  24.293  22.267  14.506
20160W        W92486  14.770  24.517   4.850
20161W        W92487  28.418   0.367  10.431
20162W        W92488  14.162  15.263   3.880
20163W        W92489  32.956  25.614  13.684
20164W        W92490  21.105   3.049   0.732
20165W        W92491   5.216  22.995   4.313
20166W        W92492   7.393  25.689   3.694
20167W        W92493  23.564  19.312   0.769
20168W        W92494  19.144  42.758   2.815
20169W        W92495   4.983  13.328   4.286
20170W        W92496   6.975  38.678   2.764
20171W        W92497  42.846  40.650  11.153
20172W        W92498  16.739  12.237  12.866
20173W        W92499  33.543   4.265   3.212
20174W        W92500   8.294  29.041   1.603
20175W        W92501   0.001   6.413   1.268
20176W        W92502  26.600  13.751   1.227
20177W        W92503  29.591  34.883  12.149
20178W        W92504   5.281   5.000   1.476
20179W        W92505  40.317  16.101   2.800
20180W        W92506   2.161   1.285  11.538
20181W        W92507   3.152  42.929  14.986
20182W        W92508  15.556  11.131   3.925
20183W        W92509  36.862  17.705  11.531
20184W        W92510   8.660  12.663  12.585
20185W        W92511   5.407  33.444  13.986
20186W        W92512  27.699  10.906   4.427
20187W        W92513  39.938  24.446   4.699
20188W        W92514  19.582  19.761   1.456
20189W        W92515  21.650   2.407  11.110
20190W        W92516  24.584  12.290  13.729
20191W        W92517  16.590  21.701   2.677
20192W        W92518  19.172   6.703   4.862
20193W        W92519  24.002  28.931   2.841
20194W        W92520  25.506   7.437  14.314
20195W        W92521  11.235   4.233   0.075
20196W        W92522  21.170  11.316   0.239
20197W        W92523  13.974  34.456  11.996
20198W        W92524  35.665   7.864  12.558
20199W        W92525  16.759   3.527  10.530
20200W        W92526  20.133  16.638  10.815
20201W        W92527  25.630  27.979  12.199
20202W        W92528  38.843   0.709   2.650
20203W        W92529  12.849  24.075  10.327
20204W        W92530  38.816  42.853  14.702
20205W        W92531  36.294  43.195   1.006
20206W        W92532   6.054  35.164  11.501
20207W        W92533  33.596  34.571   4.846
20208W        W92534  22.206   6.447   3.629
20209W        W92535  24.028   1.854  10.059
20210W        W92536   3.531  24.097   2.806
20211W        W92537  34.808  34.631  11.101
20212W        W92538  25.420   1.049  12.859
20213W        W92539  13.265   0.038   1.501
20214W        W92540   1.300  22.520  12.122
20215W        W92541  40.309   6.502  13.286
20216W        W92542  20.893  20.191  12.420
20217W        W92543   3.673   7.389  10.419
20218W        W92544   1.191  41.386  11.153
20219W        W92545   1.376  18.861  10.678
20220W        W92546  39.029  14.544   4.409
20221W        W92547  38.901   9.003  10.955
20222W        W92548  30.971   7.157  13.772
20223W        W92549   3.329   8.997  10.268
20224W        W92550   8.923   1.271  14.266
20225W        W92551   2.265  18.594  13.389
20226W        W92552  13.481  17.719   2.861
20227W        W92553  38.709  13.541  14.823
20228W        W92554  44.791  35.389  12.375
20229W        W92555  39.574  44.981  14.480
20230W        W92556  31.894  11.491  10.533
20231W        W92557  25.430  27.666   3.885
20232W        W92558  27.219  12.785   0.473
20233W        W92559  32.381  16.877  11.633
20234W        W92560  32.226  33.575   1.722
20235W        W92561  39.795  30.952  11.144
20236W        W92562  37.559  26.835   4.161
20237W        W92563  40.628   1.762   2.591
20238W        W92564  36.421  33.816  11.787
20239W        W92565  13.779   5.709   2.275
20240W        W92566  40.069  34.507  12.951
20241W        W92567   5.040  10.247   3.253
20242W        W92568  37.074  44.433  14.874
20243W        W92569  10.720  41.774  12.347
20244W        W92570  32.740  27.000   4.588
20245W        W92571  17.164  14.328   2.148
20246W        W92572  44.255  44.958   3.855
20247W        W92573  30.559  16.044  13.390
20248W        W92574   6.504  23.405  11.941
20249W        W92575   0.241  33.043   4.057
20250W        W92576  28.810  17.320  12.969
20251W        W92577   2.902  34.153  10.593
20252W        W92578  18.277   3.521  10.772
20253W        W92579  10.711  16.194   4.108
20254W        W92580   8.706   2.930   2.933
20255W        W92581  13.387  26.627   1.327
20256W        W92582  10.368  33.271  11.541
20257W        W92583  31.872  43.256  12.538
20258W        W92584  38.771  36.831   3.951
20259W        W92585  36.416  30.347  12.063
20260W        W92586  17.144  20.160  13.916
20261W        W92587   9.667  16.489  10.574
20262W        W92588  18.358  27.884  11.556
20263W        W92589  44.758  36.896   1.703
20264W        W92590  42.491  21.737  12.600
20265W        W92591   0.063  19.546   2.817
20266W        W92592  30.935   5.653  14.175
20267W        W92593  16.973  33.863  12.461
20268W        W92594  30.396  33.405   2.245
20269W        W92595  43.817  34.737  11.976
20270W        W92596  17.177   4.037   4.231
20271W        W92597  22.146  17.727  12.515
20272W        W92598   6.141  23.690   3.586
20273W        W92599  29.064  19.601   0.212
20274W        W92600   6.780  36.341  12.195
20275W        W92601  35.375  33.387   0.164
20276W        W92602  35.353  43.420  12.367
20277W        W92603   6.206  24.201  12.454
20278W        W92604  34.122  20.266  12.185
20279W        W92605  38.104  17.421  11.070
20280W        W92606  40.205  19.761  10.980
20281W        W92607  37.634  39.850  11.942
20282W        W92608  31.524   5.404   1.682
20283W        W92609  33.828  39.079  12.441
20284W        W92610  23.102   4.158  11.066
20285W        W92611  28.201  27.462  12.978
20286W        W92612   2.327   9.377  10.893
20287W        W92613  18.795  22.404  11.552
20288W        W92614  13.199  19.383   3.182
20289W        W92615  26.938  31.045   3.206
20290W        W92616  39.337   8.373   3.387
20291W        W92617   0.747  28.015   3.266
20292W        W92618   8.850  17.195   5.058
20293W        W92619  17.442   9.441   4.542
20294W        W92620  14.913  17.553   2.767
20295W        W92621  23.293  18.717   3.766
20296W        W92622  28.262  19.705  14.404
20297W        W92623  14.203  38.826  13.011
20298W        W92624  20.216  29.053  14.477
20299W        W92625  25.601  21.243   1.957
20300W        W92626   5.599  26.605   1.359
20301W        W92627   4.842  33.024  10.567
20302W        W92628  38.920  22.303   4.377
20303W        W92629  24.591  28.959   2.651
20304W        W92630  11.430  21.138  11.986
20305W        W92631  10.633   1.263  14.755
20306W        W92632   2.066  20.178  13.308
20307W        W92633   4.935  12.270  12.114
20308W        W92634  13.361  43.380  11.243
20309W        W92635  13.148  15.721  10.607
20310W        W92636  27.670  33.096  13.862
20311W        W92637   6.671  17.207  11.617
20312W        W92638  29.062  34.174  12.968
20313W        W92639  20.738  15.540   0.399
20314W        W92640  11.790   1.363  12.456
20315W        W92641   2.840   1.082   0.962
20316W        W92642  35.490  33.892   0.266
20317W        W92643  13.770  37.273   2.710
20318W        W92644  22.717   4.001  11.734
20319W        W92645  11.453  26.131  10.699
20320W        W92646  14.242  13.754  10.699
20321W        W92647  30.093   8.385  11.580
20322W        W92648  15.156  41.019   3.745
20323W        W92649  25.459  31.043   3.102
20324W        W92650   3.371   7.188  13.421
20325W        W92651  35.395   4.791   2.141
20326W        W92652  23.294   0.857  11.605
20327W        W92653  10.220  40.387   1.345
20328W        W92654  17.622  25.241   2.961
20329W        W92655   9.244  10.842   1.806
20330W        W92656  13.443  13.614   3.152
20331W        W92657  31.944   8.237   2.179
20332W        W92658  10.339  22.185  14.014
20333W        W92659  37.224   9.607  10.119
20334W        W92660   2.496  39.866  11.172
20335W        W92661  22.084   6.355  13.754
20336W        W92662   6.672  26.477  13.965
20337W        W92663  24.683  30.630  11.947
20338W        W92664   3.399  19.437   1.612
20339W        W92665  38.141  27.472  12.520
20340W        W92666  17.225  37.462  10.107
20341W        W92667  42.712   5.582   4.477
20342W        W92668  10.237  25.563  13.806
20343W        W92669  25.131  11.644   4.172
20344W        W92670  14.822  28.138  14.669
20345W        W92671   2.698  25.970  10.801
20346W        W92672  11.812   5.202   2.617
20347W        W92673  18.169  23.005   4.414
20348W        W92674  31.447   9.194   2.295
20349W        W92675  35.859   2.402   3.738
20350W        W92676  26.918  42.972   0.982
20351W        W92677  38.935  21.986  10.709
20352W        W92678   6.307   2.230  13.838
20353W        W92679  26.626  21.224   0.693
20354W        W92680   1.532  28.755   0.712
20355W        W92681  21.660  10.953  14.838
20356W        W92682  34.513  19.985  12.988
20357W        W92683   9.831  33.313   0.278
20358W        W92684   2.212  27.717  11.099
20359W        W92685  23.051   8.372  11.859
20360W        W92686  20.004  16.091   2.318
20361W        W92687  33.986  16.613   4.133
20362W        W92688  28.009   2.834   4.439
20363W        W92689  39.578  11.348   3.461
20364W        W92690  40.374  18.793  13.426
20365W        W92691  21.845  21.257   5.095
20366W        W92692  26.174  14.297   0.060
20367W        W92693   7.720  33.332   1.307
20368W        W92694   8.174   2.984  13.942
20369W        W92695  23.341  39.096  10.537
20370W        W92696  14.780   9.611   4.285
20371W        W92697  34.556   5.425   0.395
20372W        W92698  11.379  32.511   0.327
20373W        W92699   6.541  22.222   3.794
20374W        W92700  17.701  38.887   1.890
20375W        W92701  43.342  21.864  12.007
20376W        W92702  32.516   0.736  10.383
20377W        W92703   7.645  38.531   1.406
20378W        W92704  32.945   5.985  12.822
20379W        W92705   1.928  39.342   3.634
20380W        W92706  18.297  41.810   0.329
20381W        W92707  17.271   8.984  13.159
20382W        W92708  34.020  41.046   1.170
20383W        W92709  21.735  33.190   0.496
20384W        W92710   0.352   1.815   4.486
20385W        W92711  11.582  27.348  11.969
20386W        W92712  38.422  24.507   0.775
20387W        W92713  19.755  24.903   4.153
20388W        W92714  42.960  29.145   0.440
20389W        W92715  26.683   7.449  11.113
20390W        W92716  38.924   2.445  10.225
20391W        W92717  11.589  37.319   0.973
20392W        W92718  40.687  44.433  12.425
20393W        W92719  16.200  39.442  10.598
20394W        W92720  15.092  38.502   1.839
20395W        W92721  12.857  30.615   4.828
20396W        W92722   5.052  15.049  11.517
20397W        W92723  12.206   2.959  10.650
20398W        W92724   6.865  15.834  12.880
20399W        W92725  20.459  31.464  12.487
20400W        W92726  23.490  16.494   5.025
20401W        W92727   7.580   4.898  11.892
20402W        W92728  34.031  18.087  11.655
20403W        W92729  21.172   5.371   0.440
20404W        W92730  31.643  30.620   0.942
20405W        W92731   7.431  23.892  11.938
20406W        W92732  39.266   0.436  10.468
20407W        W92733  29.127  34.698  12.089
20408W        W92734  27.908   3.907  14.182
20409W        W92735  32.055  22.802   1.317
20410W        W92736   0.727  33.534   0.075
20411W        W92737  32.330  42.095   4.210
20412W        W92738  23.717   6.393   0.321
20413W        W92739  15.704   9.426   0.416
20414W        W92740  28.632  31.184  12.314
20415W        W92741  38.040   1.790   2.802
20416W        W92742  21.077  31.927  12.953
20417W        W92743  33.043   5.021  14.914
20418W        W92744   1.687  33.547   3.715
20419W        W92745  27.437   3.951  12.448
20420W        W92746  10.920  12.365  11.672
20421W        W92747  28.721  13.437  13.751
20422W        W92748  32.838  22.668  12.063
20423W        W92749  11.819  26.036  11.356
20424W        W92750   9.912  37.011  14.872
20425W        W92751  14.125  35.529  13.312
20426W        W92752  18.082   6.193  10.717
20427W        W92753  43.290  14.913  13.133
20428W        W92754  10.589  15.102   4.461
20429W        W92755  32.059  22.641   4.514
20430W        W92756  23.678  23.236   3.412
20431W        W92757  44.338  15.208   3.405
20432W        W92758  26.020  26.019   2.261
20433W        W92759  27.975   1.895  14.276
20434W        W92760  17.064  38.193   3.012
20435W        W92761  21.517  39.990   0.437
20436W        W92762  38.984  18.228   4.523
20437W        W92763   9.106  25.886   4.899
20438W        W92764  38.774   7.207   0.032
20439W        W92765   6.727   5.770  14.989
20440W        W92766   1.875  19.972   1.249
20441W        W92767  25.646  18.245  11.525
20442W        W92768  14.879  16.178  12.616
20443W        W92769   2.411   4.502  14.854
20444W        W92770   7.088  17.234  14.339
20445W        W92771   0.603  42.344  13.816
20446W        W92772  35.896  40.615   0.459
20447W        W92773  27.572  14.666   4.666
20448W        W92774  40.359  15.840  12.383
20449W        W92775  27.616  31.920  12.720
20450W        W92776  39.968  16.332  13.544
20451W        W92777  20.261  39.508  14.402
20452W        W92778  21.372  12.517   4.989
20453W        W92779  27.657   3.922   0.726
20454W        W92780  24.519   7.251   0.379
20455W        W92781  28.075  32.629  13.070
20456W        W92782  18.172   9.390  13.361
20457W        W92783  33.905  13.083   2.285
20458W        W92784  40.751   7.759  12.983
20459W        W92785  16.221  32.839  14.079
20460W        W92786  28.976   4.683  14.388
20461W        W92787  31.059  23.429   4.072
20462W        W92788  28.401  21.128  13.427
20463W        W92789   3.154  36.911   2.698
20464W        W92790  32.073  39.316   3.645
20465W        W92791  21.332  22.949   5.067
20466W        W92792  20.505  12.804   4.712
20467W        W92793  19.660  32.366   1.904
20468W        W92794   9.877   6.013   1.711
20469W        W92795  11.319  19.505   1.430
20470W        W92796  12.721  26.952   1.422
20471W        W92797  13.103  42.470  13.040
20472W        W92798  22.652  12.285  13.934
20473W        W92799  26.148  31.988  14.855
20474W        W92800  29.570  12.362  13.936
20475W        W92801  19.284  31.678  11.570
20476W        W92802  19.949  24.437  12.056
20477W        W92803   5.669   3.118  13.487
20478W        W92804  28.080  27.913   1.249
20479W        W92805   2.720  15.607  12.943
20480W        W92806   4.366  10.609   1.224
20481W        W92807  16.601   4.864   0.801
20482W        W92808  39.000   7.837   4.941
20483W        W92809  24.071  27.542   2.762
20484W        W92810  32.064   4.252  12.583
20485W        W92811  41.148  44.071   3.734
20486W        W92812  43.815  38.309  13.984
20487W        W92813  36.379  43.412   4.089
20488W        W92814   7.583  37.547   4.533
20489W        W92815  14.876  28.627  11.156
20490W        W92816  14.833   2.767   3.265
20491W        W92817   5.796  40.083   0.850
20492W        W92818   6.368  18.196  13.871
20493W        W92819  19.194   1.849  12.980
20494W        W92820  17.561  19.044   3.618
20495W        W92821  21.485  12.832   4.556
20496W        W92822  41.048  44.950   2.934
20497W        W92823  43.821  42.015  14.502
20498W        W92824  16.529  24.245  14.894
20499W        W92825  28.443  42.759   2.253
20500W        W92826  40.912  25.147   2.855
20501W        W92827  36.933  13.189  11.055
20502W        W92828  34.093  43.137   0.949
20503W        W92829  20.422   8.172  12.495
20504W        W92830  16.803   6.009   4.512
20505W        W92831  37.590  36.305   0.033
20506W        W92832  31.700  11.907   4.890
20507W        W92833  26.898  14.181  11.590
20508W        W92834  41.385   1.052   2.232
20509W        W92835  32.693   8.245  14.389
20510W        W92836  20.220  32.921   0.284
20511W        W92837   5.801   2.770  12.504
20512W        W92838  37.333   7.711   2.432
20513W        W92839  12.252  40.739  11.044
20514W        W92840  14.851  20.176  11.511
20515W        W92841  26.021  19.469   1.877
20516W        W92842  17.396  14.843  10.993
20517W        W92843  26.970   6.994  13.303
20518W        W92844  40.906   7.272   0.044
20519W        W92845  17.076  24.378   5.225
20520W        W92846  35.470  38.136   2.728
20521W        W92847  14.235  31.906  13.921
20522W        W92848  30.092  10.821  13.304
20523W        W92849  16.233  39.079   0.405
20524W        W92850  42.767  32.617   3.669
20525W        W92851  11.352  10.780  13.035
20526W        W92852  33.120  41.331   3.298
20527W        W92853   0.329  24.258  11.978
20528W        W92854  11.275   6.649  11.127
20529W        W92855  18.280   1.831  13.623
20530W        W92856  40.982  38.033  13.969
20531W        W92857  23.459  32.961  14.847
20532W        W92858   4.716   4.917   4.191
20533W        W92859  40.964  41.476   0.835
20534W        W92860   2.956  43.439  13.341
20535W        W92861  31.959   1.504   1.210
20536W        W92862  16.485   7.188  10.406
20537W        W92863  32.541  38.881  14.300
20538W        W92864  44.021  35.935   2.652
20539W        W92865  21.674  35.040  14.755
20540W        W92866  12.787  42.774  14.434
20541W        W92867  23.161   2.876   3.422
20542W        W92868  24.984  40.807   0.351
20543W        W92869  36.040  16.627  10.886
20544W        W92870  34.897  21.148  13.396
20545W        W92871   2.811  21.702   2.479
20546W        W92872  26.668   4.819   4.384
20547W        W92873  13.360   9.877   0.513
20548W        W92874  29.593  31.575  13.423
20549W        W92875  16.063  21.070   0.725
20550W        W92876   7.941   7.887   1.400
20551W        W92877  18.716  31.381  11.898
20552W        W92878   0.305  35.767   0.872
20553W        W92879   5.481   2.807   0.231
20554W        W92880  17.133  15.226  12.664
20555W        W92881  24.268  17.152   9.767
20556W        W92882  11.118  33.966  14.817
20557W        W92883   5.364  39.411   0.681
20558W        W92884  21.060   3.528   1.752
20559W        W92885  28.475   1.425  11.628
20560W        W92886  11.441  32.864   4.856
20561W        W92887  24.152   2.388   2.387
20562W        W92888   5.949  42.321  14.067
20563W        W92889  21.215  15.308   4.588
20564W        W92890  43.350  20.037  14.567
20565W        W92891  16.840  42.373   3.730
20566W        W92892  23.504  35.136  14.401
20567W        W92893  26.162  18.823   3.707
20568W        W92894  14.606   2.792   3.775
20569W        W92895   5.808  18.741   3.613
20570W        W92896  41.024  35.192  14.569
20571W        W92897   1.868  15.649   2.813
20572W        W92898  16.103   5.017  12.523
20573W        W92899  17.792  11.760  11.494
20574W        W92900   4.246  35.305  14.234
20575W        W92901   7.423  26.575  11.337
20576W        W92902  14.397   2.643  11.130
20577W        W92903  17.861  22.528  14.007
20578W        W92904   1.859  21.502   1.252
20579W        W92905  18.103  12.674  14.304
20580W        W92906  17.331  28.958  14.455
20581W        W92907   6.390   3.477  13.814
20582W        W92908  28.003  40.959  12.425
20583W        W92909  41.994  24.169   1.258
20584W        W92910  38.862  20.685   0.122
20585W        W92911  13.230  17.082  14.206
20586W        W92912  20.690  40.257  10.959
20587W        W92913   5.297  10.283  10.733
20588W        W92914  24.790  22.722  11.845
20589W        W92915   8.279  29.509  12.589
20590W        W92916  13.710   3.689   0.727
20591W        W92917  39.780  27.651  11.555
20592W        W92918  43.787  40.137  13.539
20593W        W92919   6.376  12.915   1.242
20594W        W92920   4.886  29.196   0.929
20595W        W92921  38.794  28.059  11.995
20596W        W92922  22.630  21.271   3.207
20597W        W92923  17.618   4.736   1.645
20598W        W92924   8.609   6.429  13.742
20599W        W92925  15.767   2.016   3.224
20600W        W92926  14.206  44.190   4.222
20601W        W92927  40.089  24.400  13.495
20602W        W92928   5.961   9.798  13.030
20603W        W92929  12.371  25.486   1.852
20604W        W92930   3.272   7.063  11.109
20605W        W92931   9.908  13.052  11.628
20606W        W92932  21.256  17.956   3.808
20607W        W92933   7.918  20.798   4.700
20608W        W92934  33.522   2.475  11.532
20609W        W92935  15.755   6.181   1.258
20610W        W92936  37.536  34.169  10.801
20611W        W92937  33.179  19.189   4.250
20612W        W92938  30.977  13.911   1.401
20613W        W92939   2.701  15.401   3.315
20614W        W92940   2.966   5.243   1.782
20615W        W92941   2.719  29.144  12.108
20616W        W92942  22.649  33.120  14.914
20617W        W92943  24.691  14.905   9.938
20618W        W92944  14.089   8.659   0.664
20619W        W92945   8.748  16.313  14.027
20620W        W92946  12.253  29.979   2.758
20621W        W92947  12.226   4.229   1.197
20622W        W92948   4.858  40.559   0.808
20623W        W92949  31.072  15.547  11.038
20624W        W92950  26.388  18.804   0.469
20625W        W92951  41.559  36.924  11.592
20626W        W92952   5.453  15.762  14.520
20627W        W92953  10.109  23.496  11.502
20628W        W92954  38.393  42.403  11.636
20629W        W92955   7.000  25.654  11.414
20630W        W92956   9.896  26.937   2.672
20631W        W92957  21.535  13.601   0.848
20632W        W92958   1.806   1.413  10.217
20633W        W92959  34.880  22.607  11.216
20634W        W92960   2.933  17.673  12.821
20635W        W92961  34.198  44.496   3.375
20636W        W92962   9.850   3.320  12.051
20637W        W92963  34.572  39.837  11.566
20638W        W92964  27.982  39.499  12.355
20639W        W92965  21.277  25.369   5.006
20640W        W92966  24.204  29.351   0.899
20641W        W92967  25.995  27.041   9.744
20642W        W92968  25.255  14.758   2.862
20643W        W92969  44.715  37.541  13.377
20644W        W92970  33.627  37.920   2.437
20645W        W92971   8.327  15.375   1.698
20646W        W92972  35.056  24.426  12.564
20647W        W92973  10.196  23.071  13.523
20648W        W92974  42.585   4.330   2.706
20649W        W92975  37.553  44.071   1.111
20650W        W92976   7.454  27.136   2.798
20651W        W92977  18.153  37.002   4.033
20652W        W92978  42.562  42.290  12.561
20653W        W92979  19.483   4.350  12.011
20654W        W92980  18.606  30.037   2.465
20655W        W92981   2.898   2.990   4.188
20656W        W92982   8.262  11.639   4.666
20657W        W92983   2.234  43.607  12.133
20658W        W92984  12.196  34.804  10.651
20659W        W92985  24.415  44.358  14.932
20660W        W92986   3.458  34.625  14.752
20661W        W92987  32.480  26.476  14.978
20662W        W92988  12.725   8.543  13.475
20663W        W92989  38.274  21.251   0.213
20664W        W92990   1.947  39.507  14.030
20665W        W92991  22.721  34.688   3.822
20666W        W92992  42.810  12.694   2.249
20667W        W92993  38.861  28.757  11.215
20668W        W92994  14.289  21.984  12.096
20669W        W92995  18.718   4.080  13.403
20670W        W92996  13.326  44.801   1.031
20671W        W92997  11.727  28.905   0.434
20672W        W92998  41.507  27.128   2.129
20673W        W92999  36.050   9.226  14.330
20674W        W93000  19.000   4.519  14.607
20675W        W93001   6.458  35.908  12.110
20676W        W93002  32.647  10.239  13.081
20677W        W93003  30.061   6.899   2.393
20678W        W93004  40.414   7.216   0.251
20679W        W93005  25.094  37.718   1.111
20680W        W93006  15.590  26.027   5.185
20681W        W93007  32.694  19.236   4.486
20682W        W93008  20.274   6.249  10.770
20683W        W93009  43.517  13.212   3.660
20684W        W93010  18.284  12.767   4.893
20685W        W93011  39.071   4.418  14.513
20686W        W93012  11.734  28.815   4.689
20687W        W93013  10.116  19.205  13.523
20688W        W93014   7.396  41.208  14.474
20689W        W93015   7.214   1.755   3.239
20690W        W93016  20.538  33.139   2.697
20691W        W93017  24.049  16.854  13.977
20692W        W93018  15.429  40.931   3.339
20693W        W93019  22.632  41.944  13.477
20694W        W93020  12.999   1.271   0.580
20695W        W93021  34.136  11.051   3.569
20696W        W93022   7.847  23.718   1.733
20697W        W93023   9.473  21.008  12.070
20698W        W93024  39.522  30.967   4.141
20699W        W93025  35.045  25.274  12.979
20700W        W93026  16.907  39.784  14.167
20701W        W93027  12.323  33.876   9.804
20702W        W93028   2.003  14.194  12.874
20703W        W93029   3.425  36.405  10.659
20704W        W93030   0.815  42.575   3.707
20705W        W93031  24.608   6.838   1.146
20706W        W93032  43.932  43.322   3.589
20707W        W93033  12.315  28.199   3.605
20708W        W93034  17.511  23.260  12.677
20709W        W93035  40.702  37.446   1.387
20710W        W93036   4.260  13.691  14.389
20711W        W93037  24.203  16.183   3.296
20712W        W93038  11.562  26.514   2.366
20713W        W93039  21.398  29.085   1.243
20714W        W93040   5.818  31.000  14.524
20715W        W93041  29.005  24.097  11.527
20716W        W93042  23.527  22.561   4.026
20717W        W93043  11.344  33.739   2.924
20718W        W93044  28.129  12.671   1.683
20719W        W93045  18.254  39.829   0.972
20720W        W93046  12.188  42.076  14.570
20721W        W93047   1.087  38.668  12.946
20722W        W93048   8.230  11.208  14.433
20723W        W93049  13.690   1.927  10.777
20724W        W93050   1.538  42.358   2.852
20725W        W93051  33.688  28.321   4.960
20726W        W93052  29.120  37.696   0.342
20727W        W93053  24.125  41.078  12.611
20728W        W93054  13.673  40.108   4.893
20729W        W93055  18.129  16.843  12.913
20730W        W93056  18.095  42.528   0.310
20731W        W93057  38.525  38.848   2.460
20732W        W93058   7.706   7.420  14.752
20733W        W93059   4.658  42.932  11.511
20734W        W93060  24.164  38.788   1.496
20735W        W93061  21.568   4.790   4.026
20736W        W93062   5.045  26.529  14.304
20737W        W93063  33.596  13.256   0.462
20738W        W93064  10.136  41.509   4.087
20739W        W93065   0.781  38.334   3.674
20740W        W93066  42.998  32.649  13.288
20741W        W93067  17.814  30.508  14.077
20742W        W93068  37.445  25.931   1.919
20743W        W93069   4.170  35.881  12.013
20744W        W93070  27.889  17.126  11.040
20745W        W93071   8.477  33.085  13.570
20746W        W93072  25.956  22.512   2.828
20747W        W93073  32.232  26.830  12.156
20748W        W93074  17.620  44.065  10.582
20749W        W93075  16.122   1.801  12.376
20750W        W93076  41.017  34.862   4.056
20751W        W93077  35.087  26.390   5.149
20752W        W93078  19.060  16.197   4.580
20753W        W93079   1.476  40.511  11.437
20754W        W93080  36.093   4.803   0.310
20755W        W93081   9.639  36.299  11.471
20756W        W93082  34.266  35.376  11.141
20757W        W93083  38.822  38.470  13.886
20758W        W93084  43.687   9.752  12.404
20759W        W93085   7.742  27.573  12.036
20760W        W93086  12.369  14.656   1.478
20761W        W93087   2.434   1.066   3.070
20762W        W93088  15.745  41.554  11.029
20763W        W93089  14.714  29.846  11.997
20764W        W93090  16.906  31.569   1.909
20765W        W93091  18.859  35.639  12.421
20766W        W93092  28.067  13.996  14.975
20767W        W93093  24.737   7.690   0.181
20768W        W93094  18.624  20.708  13.720
20769W        W93095   4.268   8.867   1.571
20770W        W93096  24.068  41.122   4.714
20771W        W93097  20.213  29.376  10.498
20772W        W93098  35.907  22.991   4.041
20773W        W93099  39.449  38.274  13.626
20774W        W93100  26.950   7.741  14.410
20775W        W93101  23.080  18.032   4.376
20776W        W93102  29.312  24.017   2.906
20777W        W93103  41.781  13.614   0.335
20778W        W93104  21.456   9.756  10.688
20779W        W93105  15.609  31.426   3.728
20780W        W93106  20.783   4.838   0.993
20781W        W93107   6.350  42.046  12.921
20782W        W93108  38.499  16.351   2.179
20783W        W93109  13.387  40.923  13.800
20784W        W93110   0.823  29.879  11.560
20785W        W93111  17.226  20.653   0.226
20786W        W93112   5.294  24.993  14.033
20787W        W93113  26.856  13.102  14.791
20788W        W93114  23.855  36.400  13.175
20789W        W93115  40.294   0.968  13.420
20790W        W93116  36.890  23.663   1.749
20791W        W93117   8.158  25.640  14.835
20792W        W93118  40.433  36.659  14.250
20793W        W93119  34.492   0.255  14.812
20794W        W93120   3.872   7.743   0.515
20795W        W93121   1.794  43.206  14.816
20796W        W93122  23.413   0.832   3.381
20797W        W93123  27.564   1.549   3.782
20798W        W93124   3.998  40.469  11.043
20799W        W93125  23.593  25.558  14.787
20800W        W93126   9.268  17.002   2.862
20801W        W93127  35.627  39.403   0.525
20802W        W93128  43.468  30.918   2.670
20803W        W93129  42.624  41.991   5.057
20804W        W93130  16.627  44.321   4.741
20805W        W93131   4.557  40.226  12.954
20806W        W93132  19.262  40.505  10.661
20807W        W93133  11.374   0.500  10.947
20808W        W93134  10.190   6.418   0.339
20809W        W93135  22.653  15.813  10.494
20810W        W93136  15.035  37.126   0.886
20811W        W93137  33.389  17.209   4.139
20812W        W93138   7.452   0.845   3.599
20813W        W93139  10.412  21.198   9.781
20814W        W93140  20.020  12.430   4.161
20815W        W93141  15.820  23.187   3.914
20816W        W93142  23.686  31.353  10.742
20817W        W93143   7.454   1.300   1.617
20818W        W93144  33.111  21.301  12.686
20819W        W93145  34.203  22.893  13.141
20820W        W93146  32.026  17.768   3.251
20821W        W93147  36.329  13.820   1.690
20822W        W93148  26.327  34.298  14.397
20823W        W93149  28.196  33.881   4.229
20824W        W93150   3.918  34.950   2.809
20825W        W93151  41.214   3.862   0.052
20826W        W93152   9.614  26.631  10.902
20827W        W93153  16.090   9.836   1.729
20828W        W93154  32.914  10.942   1.834
20829W        W93155  10.746   2.516  11.696
20830W        W93156  16.852   7.247   1.043
20831W        W93157   4.209   8.930  12.354
20832W        W93158  43.959  36.873  11.418
20833W        W93159  36.019  38.872   1.206
20834W        W93160  28.511  19.716  10.992
20835W        W93161  14.258  37.040  14.417
20836W        W93162  25.876  13.349  11.073
20837W        W93163  19.613  18.502   4.257
20838W        W93164  32.730  28.050   0.351
20839W        W93165  22.600   7.961  11.330
20840W        W93166  26.953  40.471  12.489
20841W        W93167  35.374  28.285   0.165
20842W        W93168  28.425  12.756   4.126
20843W        W93169  10.378  11.798   0.262
20844W        W93170   7.721   0.487  12.656
20845W        W93171   3.168   0.947   3.755
20846W        W93172  20.063  17.036  11.137
20847W        W93173   5.603   2.881   1.920
20848W        W93174  11.095  23.704  11.866
20849W        W93175   0.161  21.948  14.772
20850W        W93176  33.352  41.544   1.414
20851W        W93177  39.952   8.398  11.887
20852W        W93178  28.493   0.707   2.451
20853W        W93179  27.773  39.480  12.816
20854W        W93180  39.842  17.987  10.999
20855W        W93181  10.808  31.372   3.785
20856W        W93182  17.214  40.918   3.768
20857W        W93183  21.556  12.832  10.552
20858W        W93184  34.146  23.718   2.722
20859W        W93185  17.611  23.249   1.847
20860W        W93186  14.069  12.476   4.139
20861W        W93187  32.171  35.824  13.306
20862W        W93188  17.502  27.168  10.562
20863W        W93189  36.950   0.312   4.592
20864W        W93190  36.815  29.420   2.243
20865W        W93191  39.721   0.847   3.252
20866W        W93192  10.671  29.081   3.432
20867W        W93193  31.561  27.521  11.514
20868W        W93194  13.307  13.224   3.862
20869W        W93195   2.003  41.781  14.188
20870W        W93196  44.918  10.861  12.609
20871W        W93197   7.989  40.680  12.122
20872W        W93198  25.497  31.162  10.805
20873W        W93199  20.511  10.172   1.423
20874W        W93200  25.767  14.446  12.423
20875W        W93201  16.181  30.599   3.876
20876W        W93202  34.959   3.953   1.272
20877W        W93203   1.882  15.541   4.177
20878W        W93204  11.579  33.949   1.744
20879W        W93205  15.118   9.756  11.879
20880W        W93206   0.907  28.945  11.756
20881W        W93207  39.417  12.281  10.735
20882W        W93208  11.712  19.586   1.097
20883W        W93209  22.516  15.661   1.617
20884W        W93210   2.283   8.780   3.351
20885W        W93211  17.791  42.819  14.047
20886W        W93212  38.642  25.208   2.149
20887W        W93213  42.002  20.135   3.230
20888W        W93214  22.041  30.451  12.862
20889W        W93215   3.969  20.731  11.471
20890W        W93216  40.439  40.280   1.864
20891W        W93217  11.257   6.932   0.258
20892W        W93218  24.619  34.619   0.844
20893W        W93219  24.748  30.914  12.866
20894W        W93220  21.658  38.947   4.486
20895W        W93221  24.481  23.726   3.031
20896W        W93222  17.139  42.123  12.425
20897W        W93223  10.622  15.343   2.193
20898W        W93224  35.030  13.143   0.257
20899W        W93225   3.416  35.607   3.389
20900W        W93226  16.654  15.134  12.446
20901W        W93227  40.699  15.679  12.948
20902W        W93228  10.570  11.324   1.179
20903W        W93229   8.080  22.571  10.636
20904W        W93230  17.957  26.891  11.607
20905W        W93231  31.190   9.395   1.846
20906W        W93232   7.664   0.185  13.072
20907W        W93233  42.507  39.815   1.051
20908W        W93234  27.661  19.821  13.283
20909W        W93235  14.648  15.857   0.211
20910W        W93236  10.636  39.488   3.972
20911W        W93237  12.199  16.296  11.500
20912W        W93238  27.000  35.932   4.200
20913W        W93239   6.876   2.667   0.914
20914W        W93240  33.094  28.149  13.900
20915W        W93241  41.416  24.452   1.721
20916W        W93242  19.107  36.461   0.047
20917W        W93243  26.253   1.259  12.467
20918W        W93244  21.763  38.551  12.980
20919W        W93245  21.844   1.850   2.365
20920W        W93246  28.451  32.357   2.709
20921W        W93247  41.451  16.756  13.636
20922W        W93248   0.869   8.252  14.297
20923W        W93249  26.926  38.718   3.754
20924W        W93250  35.952   5.277   0.162
20925W        W93251   4.946   1.505  10.746
20926W        W93252  43.776  15.809   3.311
20927W        W93253   5.269   7.087   4.010
20928W        W93254  25.738  12.889   4.674
20929W        W93255  20.265  27.031   1.455
20930W        W93256   6.860   8.315  13.791
20931W        W93257  15.488  36.775   2.668
20932W        W93258  19.622  27.429  13.937
20933W        W93259  26.159  11.243  13.717
20934W        W93260  31.988  32.039  12.494
20935W        W93261  29.447  42.250   3.098
20936W        W93262   5.165   6.985  13.911
20937W        W93263  14.242  37.948  11.885
20938W        W93264  37.783  42.968   4.607
20939W        W93265  18.111  21.595  11.614
20940W        W93266  31.451  25.661   3.110
20941W        W93267  11.789  30.405  11.666
20942W        W93268  25.363  15.607  10.658
20943W        W93269   6.805   2.901   1.366
20944W        W93270  11.713  37.816  10.703
20945W        W93271  20.984  35.625   1.769
20946W        W93272  19.063   4.306  11.108
20947W        W93273  32.523  13.818   0.471
20948W        W93274  42.663  44.759  13.868
20949W        W93275  30.882  42.823  12.222
20950W        W93276  20.373  28.955   3.182
20951W        W93277   4.484  36.403  14.055
20952W        W93278  34.597  10.842  14.317
20953W        W93279   5.522  41.524  13.825
20954W        W93280  16.275  12.795   2.447
20955W        W93281  36.280   7.669   4.974
20956W        W93282  44.471  25.067  11.101
20957W        W93283  26.598  26.434   3.257
20958W        W93284  23.540  10.175  10.988
20959W        W93285  25.224   8.253  13.869
20960W        W93286  17.352   7.586  11.076
20961W        W93287  36.322  13.297   5.184
20962W        W93288  13.174  41.404   2.351
20963W        W93289  38.805  22.714   4.083
20964W        W93290  11.639  31.415  12.941
20965W        W93291  30.199   2.270  11.205
20966W        W93292  27.996  16.572   4.466
20967W        W93293  19.554  37.008   1.812
20968W        W93294   0.872  19.797   3.355
20969W        W93295   0.372  43.238   4.230
20970W        W93296  26.615   5.740  11.591
20971W        W93297  24.617  35.518  10.357
20972W        W93298  14.514  18.436   1.003
20973W        W93299  11.656  42.333   2.909
20974W        W93300  26.248  34.428  13.894
20975W        W93301  41.048  43.077   3.806
20976W        W93302   3.855  28.467  11.092
20977W        W93303  40.784  29.983   3.761
20978W        W93304  19.317  40.832   1.781
20979W        W93305  23.263  17.190  13.793
20980W        W93306   5.880  40.310  12.977
20981W        W93307  12.174  41.082  14.304
20982W        W93308  32.988  17.927  14.121
20983W        W93309  10.310  24.699   3.588
20984W        W93310  19.273  19.619   4.847
20985W        W93311  32.890  28.546  12.395
20986W        W93312   0.255  23.204   3.706
20987W        W93313  10.582  20.070  12.896
20988W        W93314  28.047  33.096  10.913
20989W        W93315  32.368  17.778   2.792
20990W        W93316  35.582   8.139   2.152
20991W        W93317  33.133  24.701   1.805
20992W        W93318  33.140  13.267   2.710
20993W        W93319  37.855  28.598   1.981
20994W        W93320   8.991  42.387  12.395
20995W        W93321  22.772  22.331   2.488
20996W        W93322  38.841  43.686  12.540
20997W        W93323   6.714   4.770   5.249
20998W        W93324  20.598  29.712  11.366
20999W        W93325  22.182  33.304   1.350
21000W        W93326  42.588  33.900  10.696
21001W        W93327   1.966  32.795   2.303
21002W        W93328  39.262  31.366   4.997
21003W        W93329  31.002  19.705   0.792
21004W        W93330   3.927  41.391   4.813
21005W        W93331  41.830  30.194   1.887
21006W        W93332   6.284   0.828  11.116
21007W        W93333  11.723  25.467   2.643
21008W        W93334  17.063  39.880  10.520
21009W        W93335  17.312  29.431  11.953
21010W        W93336   5.574   9.874  14.904
21011W        W93337  43.939   6.526  14.428
21012W        W93338  35.592  12.750  12.933
21013W        W93339   1.776   0.172  10.661
21014W        W93340   8.217  41.003  11.167
21015W        W93341  20.958   1.775   1.364
21016W        W93342  20.021  14.670  11.270
21017W        W93343  17.685  39.007   1.394
21018W        W93344  26.723  30.609   0.639
21019W        W93345  23.470  44.752   2.511
21020W        W93346  34.924  39.248  10.970
21021W        W93347  30.720   6.405  11.983
21022W        W93348  29.894  29.677  12.417
21023W        W93349  34.590  34.047  13.301
21024W        W93350  13.714  10.291   3.653
21025W        W93351  26.852   6.794   3.387
21026W        W93352  13.238  18.202   2.687
21027W        W93353  43.544   9.085   2.695
21028W        W93354   0.716  43.286   0.772
21029W        W93355  24.136  25.608  14.781
21030W        W93356  22.711  17.546  10.729
21031W        W93357   8.177  29.985   1.671
21032W        W93358  34.340   9.207   3.768
21033W        W93359  34.505  17.750   4.593
21034W        W93360   8.982   7.090  13.250
21035W        W93361  16.151  27.236  11.475
21036W        W93362  14.236  28.811   2.141
21037W        W93363   0.504  22.521   4.234
21038W        W93364  24.541  41.049   0.188
21039W        W93365   0.428  31.603  11.643
21040W        W93366  27.744  38.614   3.238
21041W        W93367  31.754  41.068  13.444
21042W        W93368  32.945  40.998  14.400
21043W        W93369  14.199  10.922  12.091
21044W        W93370  26.598  19.826  11.537
21045W        W93371  24.006  40.449   0.357
21046W        W93372  15.070  34.925  14.388
21047W        W93373  19.310  13.808   2.590
21048W        W93374   0.030  18.581   2.157
21049W        W93375  20.557  35.837   0.664
21050W        W93376  18.644  44.702   3.111
21051W        W93377   9.961  37.081  12.053
21052W        W93378   6.987  19.653   4.644
21053W        W93379   0.162  32.696   0.265
21054W        W93380  37.567  43.198   5.000
21055W        W93381  22.639   8.716   4.459
21056W        W93382  26.254   8.496   4.947
21057W        W93383   9.256  16.635   1.935
21058W        W93384  34.216  14.243   1.760
21059W        W93385  41.976  41.816   3.100
21060W        W93386  38.873  24.265  14.961
21061W        W93387  10.934   8.159   3.252
21062W        W93388  28.742   5.141  14.282
21063W        W93389  28.790  10.788  12.139
21064W        W93390  20.017  18.415  11.070
21065W        W93391  25.615  33.601   4.594
21066W        W93392  33.464  25.095   3.732
21067W        W93393   0.722  24.784  13.476
21068W        W93394  21.874   2.796  12.135
21069W        W93395   4.883   1.329  11.231
21070W        W93396  32.396  36.580  10.923
21071W        W93397   9.442  27.159   2.628
21072W        W93398  17.753   6.289   2.166
21073W        W93399  31.642  38.371   3.831
21074W        W93400   2.578   4.985  12.324
21075W        W93401  20.534  28.017   0.567
21076W        W93402  13.138  37.020   0.295
21077W        W93403  35.317  43.784   0.116
21078W        W93404   6.895  42.326  12.175
21079W        W93405  10.602   8.174  13.340
21080W        W93406  21.170  25.057   2.917
21081W        W93407  42.711  14.236  11.211
21082W        W93408  43.336  15.027  14.974
21083W        W93409  34.812  24.321   3.358
21084W        W93410  30.972   5.595   1.827
21085W        W93411   0.739  21.131  12.835
21086W        W93412  35.523  13.705  11.256
21087W        W93413   7.169  12.091   1.843
21088W        W93414  10.336  11.790  10.783
21089W        W93415   4.383  21.398  13.999
21090W        W93416   2.831   8.882  12.856
21091W        W93417  24.113  20.043   4.703
21092W        W93418  43.058   3.298  14.901
21093W        W93419  30.907  23.571   1.454
21094W        W93420  12.560  40.545   3.450
21095W        W93421  43.571  42.596  12.510
21096W        W93422  28.506  11.862  10.651
21097W        W93423   5.817  13.922   0.037
21098W        W93424  26.205  25.579   3.800
21099W        W93425  32.577  32.658  13.458
21100W        W93426  32.044  43.149  13.466
21101W        W93427  42.019  26.363   4.747
21102W        W93428   2.713   2.749   0.802
21103W        W93429   8.942  27.087  14.666
21104W        W93430  35.145   5.429   0.938
21105W        W93431  19.033  23.280   3.192
21106W        W93432  41.398  29.329  11.542
21107W        W93433   4.906  31.756   2.860
21108W        W93434   9.770  44.937   0.783
21109W        W93435  36.900  43.592   0.901
21110W        W93436  39.532  20.177  14.853
21111W        W93437  22.497   0.207   4.901
21112W        W93438  41.432  42.694  14.833
21113W        W93439  21.576   3.239   0.888
21114W        W93440  38.540  44.356  13.034
21115W        W93441   3.883  26.080  11.139
21116W        W93442  17.591  22.103  12.553
21117W        W93443   8.735   6.783   1.703
21118W        W93444  13.334  29.697  11.670
21119W        W93445  34.894  25.286  10.963
21120W        W93446  33.452  11.257  14.876
21121W        W93447  44.470   1.494  11.970
21122W        W93448  31.120  41.983  11.827
21123W        W93449   9.411  15.121  11.046
21124W        W93450   4.029  42.831   4.312
21125W        W93451   0.477  42.937   4.645
21126W        W93452  21.971  44.632  10.692
21127W        W93453  27.209  30.213  12.872
21128W        W93454   4.039   3.275   3.399
21129W        W93455  35.370  43.064   0.732
21130W        W93456  36.541  19.933   3.297
21131W        W93457   7.286  14.286   0.323
21132W        W93458  17.368  22.093   3.693
21133W        W93459  43.954   2.349   3.247
21134W        W93460  18.190  24.626  12.320
21135W        W93461  33.305  35.610  11.988
21136W        W93462  21.985   3.704  12.555
21137W        W93463   2.232   2.990   3.743
21138W        W93464   2.963  14.872  12.381
21139W        W93465  17.122   3.969  13.373
21140W        W93466  41.082  35.439  10.453
21141W        W93467  33.980  22.785   3.625
21142W        W93468  30.033  15.231   2.691
21143W        W93469  36.572   9.004  11.077
21144W        W93470  19.273  21.190   3.942
21145W        W93471  39.155  25.816   0.376
21146W        W93472  11.893  40.834   2.909
21147W        W93473  22.505  29.676  13.860
21148W        W93474  22.880  41.345  11.637
21149W        W93475  13.262  41.047   3.946
21150W        W93476   6.554  31.321  14.352
21151W        W93477  41.844  38.369  14.282
21152W        W93478   5.799   9.361   2.306
21153W        W93479  29.985  42.739   2.765
21154W        W93480  30.336  25.217  12.819
21155W        W93481  10.253  28.223   3.004
21156W        W93482  28.150  33.474   0.771
21157W        W93483  38.601   3.205  14.815
21158W        W93484   1.422  41.535  11.611
21159W        W93485  39.312  27.947  12.005
21160W        W93486  30.200   4.331  14.048
21161W        W93487  26.500  20.755   1.823
21162W        W93488  36.126  41.319   0.701
21163W        W93489  12.080  34.502  11.535
21164W        W93490   3.461  37.022  11.589
21165W        W93491  44.203  42.903  11.692
21166W        W93492  11.284  43.502  12.723
21167W        W93493  27.052  22.550  11.977
21168W        W93494  18.489  22.249  13.578
21169W        W93495  42.376  14.086  12.158
21170W        W93496  27.927  26.727   2.342
21171W        W93497  14.648  21.711  11.216
21172W        W93498  25.288   8.969   1.966
21173W        W93499  28.471   9.591   1.172
21174W        W93500  12.117  12.154   1.743
21175W        W93501  19.654  20.210   4.065
21176W        W93502  11.449  42.982   3.724
21177W        W93503   2.478  31.016  10.609
21178W        W93504  12.003   2.341  10.147
21179W        W93505   3.197  34.366   2.058
21180W        W93506   2.204  23.123   1.222
21181W        W93507  23.778  12.554  12.715
21182W        W93508   3.209  33.853   2.093
21183W        W93509  40.574  22.439  10.342
21184W        W93510  17.098  41.455  12.305
21185W        W93511  44.387  23.712  14.459
21186W        W93512   5.057  43.233  11.072
21187W        W93513  15.000   4.336  14.005
21188W        W93514  30.312  33.814  12.463
21189W        W93515  10.359  26.890  11.596
21190W        W93516  22.731  18.340  13.326
21191W        W93517  28.605  31.943   1.454
21192W        W93518  37.254  34.844   4.915
21193W        W93519  40.956  39.430  12.093
21194W        W93520  26.164  16.043  10.450
21195W        W93521   3.881  32.836  14.259
21196W        W93522   5.359  44.655   4.525
21197W        W93523  36.856   1.936  14.018
21198W        W93524   5.127  33.583  14.408
21199W        W93525  10.844  10.920  14.247
21200W        W93526  38.562  21.450   0.937
21201W        W93527  42.308  29.155  12.454
21202W        W93528  37.837  11.045   1.795
21203W        W93529  22.100  14.882   5.623
21204W        W93530  41.165  42.002   0.202
21205W        W93531  10.681   0.896  13.554
21206W        W93532   6.751   4.861  13.556
21207W        W93533  23.892  14.645   4.690
21208W        W93534  41.586  23.762  10.724
21209W        W93535  41.980  37.249  12.452
21210W        W93536  17.604  42.235  12.652
21211W        W93537   8.699  30.970  11.886
21212W        W93538  29.683  37.651  11.244
21213W        W93539  41.914  31.026  12.993
21214W        W93540   1.798   1.352  14.636
21215W        W93541  42.742  16.783   1.751
21216W        W93542  14.690   7.495  12.110
21217W        W93543  26.603  13.194   5.115
21218W        W93544  33.101  33.910   0.949
21219W        W93545   7.159  29.938   1.353
21220W        W93546  29.125  19.039  11.085
21221W        W93547  32.588  30.712   3.858
21222W        W93548   5.251   9.618   4.455
21223W        W93549  36.830  43.018  11.880
21224W        W93550  34.230  34.086   4.590
21225W        W93551  33.342  33.873   9.752
21226W        W93552   7.633   3.450  13.000
21227W        W93553  34.819  37.159   1.946
21228W        W93554   5.310  35.010  12.180
21229W        W93555  29.591  34.364  12.090
21230W        W93556  25.117  36.393  12.624
21231W        W93557  21.386   0.341  14.266
21232W        W93558  44.539  16.654  13.360
21233W        W93559  27.995  26.272  14.171
21234W        W93560  23.737  16.532  11.621
21235W        W93561  35.495   9.520   2.355
21236W        W93562  12.586  25.216   1.101
21237W        W93563  42.881  42.337   4.576
21238W        W93564  28.461  22.770   1.841
21239W        W93565  37.832  38.217  13.097
21240W        W93566   6.034   1.212   3.407
21241W        W93567  26.506  12.035   0.463
21242W        W93568   1.256   8.382   1.119
21243W        W93569  11.333   8.887   4.426
21244W        W93570   9.928   8.334  14.030
21245W        W93571  11.274  21.249   3.110
21246W        W93572  39.498  10.035  14.040
21247W        W93573  28.259  22.929   0.399
21248W        W93574  33.847   3.382   2.139
21249W        W93575  35.182  30.067   4.969
21250W        W93576   3.989   9.500   0.456
21251W        W93577  39.939  30.884  14.395
21252W        W93578  25.539  18.459  11.052
21253W        W93579   6.084   3.276  11.302
21254W        W93580  36.135  41.305   4.561
21255W        W93581  14.074  11.152   3.696
21256W        W93582   2.258  39.392  11.075
21257W        W93583  21.453  41.287  12.942
21258W        W93584   6.956  23.183  11.594
21259W        W93585  12.398  27.471   4.194
21260W        W93586  22.281   5.291   4.163
21261W        W93587   0.936  37.393  10.659
21262W        W93588  12.916  40.610   4.114
21263W        W93589  33.180  43.312   2.293
21264W        W93590  27.442  22.534   1.904
21265W        W93591   7.277  24.808  12.851
21266W        W93592   4.211   2.587  10.754
21267W        W93593  30.047  14.024   0.023
21268W        W93594  35.928  15.976   0.005
21269W        W93595   0.450  41.266  10.698
21270W        W93596   1.430  37.910   4.281
21271W        W93597  31.181  10.858   0.043
21272W        W93598  13.161   6.691  14.470
21273W        W93599   4.093  33.450  14.017
21274W        W93600  24.186  30.615  11.073
21275W        W93601   6.406  42.780   4.040
21276W        W93602  14.456  42.732   4.621
21277W        W93603  14.799  13.709  13.731
21278W        W93604  20.500  17.094   0.293
21279W        W93605  30.931  10.917  12.987
21280W        W93606   4.724   7.134  13.017
21281W        W93607  34.993  26.698   2.184
21282W        W93608  26.270  18.329  13.527
21283W        W93609  38.376  10.855   4.708
21284W        W93610  41.978  22.759  11.028
21285W        W93611  31.914   1.170   1.826
21286W        W93612  22.815  19.252   0.431
21287W        W93613  14.041  28.823  14.929
21288W        W93614   1.961  16.783   4.578
21289W        W93615  20.621  25.444   3.293
21290W        W93616  42.910  26.193   2.004
21291W        W93617  35.808  13.226  10.586
21292W        W93618  38.284  37.518   3.730
21293W        W93619   0.654  10.546   0.463
21294W        W93620  10.858  43.222  12.013
21295W        W93621  35.488  21.505  12.619
21296W        W93622  21.582  34.028  13.376
21297W        W93623  12.429  31.036  13.398
21298W        W93624  41.272  40.070   3.230
21299W        W93625  26.967   6.558  13.564
21300W        W93626   3.709  18.503  11.302
21301W        W93627   6.903   9.388  12.499
21302W        W93628  27.883   5.652   1.754
21303W        W93629   5.685  35.027  13.290
21304W        W93630  18.615  28.034   0.905
21305W        W93631  40.808  25.960   4.348
21306W        W93632  25.946  37.260  12.006
21307W        W93633  12.889  23.809  12.915
21308W        W93634  33.875   2.854  11.536
21309W        W93635  44.483   9.281  14.981
21310W        W93636  13.855  15.786   2.063
21311W        W93637  39.995   4.236  12.950
21312W        W93638  30.869  36.977   3.248
21313W        W93639  26.703  43.372   2.281
21314W        W93640   1.533  44.024   3.237
21315W        W93641  41.397  23.675   0.470
21316W        W93642   6.506  30.088  11.038
21317W        W93643  44.472  12.806   3.421
21318W        W93644  28.135  21.098   0.834
21319W        W93645  12.711  14.205   0.865
21320W        W93646  24.684  24.251  13.618
21321W        W93647  37.541  32.873   1.630
21322W        W93648  26.583  37.333   1.719
21323W        W93649  33.342   2.411  10.633
21324W        W93650  19.180  17.593   0.445
21325W        W93651   2.845  25.507  12.173
21326W        W93652  20.738  27.363   2.292
21327W        W93653  37.956  39.248   1.220
21328W        W93654   5.300  36.583   3.117
21329W        W93655  44.810  44.036  12.061
21330W        W93656  38.901   9.418   2.653
21331W        W93657  19.778   0.006   4.847
21332W        W93658  26.979  25.173   4.984
21333W        W93659  15.370  18.135   1.062
21334W        W93660  12.843   6.705  13.447
21335W        W93661  25.160  22.329  14.770
21336W        W93662  42.325  30.626   4.800
21337W        W93663  41.992  28.800  10.430
21338W        W93664  24.292  18.986   2.372
21339W        W93665  39.780  23.776   3.633
21340W        W93666  39.989  20.806  11.978
21341W        W93667  10.333  38.400   2.381
21342W        W93668   2.783  28.332   0.279
21343W        W93669  25.154  32.857   2.468
21344W        W93670  29.165   7.684   3.282
21345W        W93671  13.273  32.824  13.475
21346W        W93672  23.710  13.571   4.779
21347W        W93673  38.257  40.959  10.752
21348W        W93674  37.623  43.890   0.320
21349W        W93675  32.717  25.523  11.963
21350W        W93676  28.403  37.907   3.266
21351W        W93677   2.288  35.289   4.291
21352W        W93678  38.406  28.645   4.642
21353W        W93679  32.575   1.805  14.361
21354W        W93680   9.763  33.385   1.894
21355W        W93681  20.958  40.289  13.654
21356W        W93682  33.859  15.638  14.479
21357W        W93683  42.832  19.074  11.450
21358W        W93684  34.157  38.366   3.651
21359W        W93685  27.067  28.179   0.438
21360W        W93686  31.364  34.614   1.359
21361W        W93687   3.550  16.755   4.495
21362W        W93688   0.333   5.772   4.077
21363W        W93689  29.491  43.448   0.890
21364W        W93690  23.899  30.970   1.237
21365W        W93691  25.332  11.885   2.690
21366W        W93692  40.428   3.899  14.385
21367W        W93693   5.396  42.910   4.326
21368W        W93694  43.082   9.184   4.950
21369W        W93695  26.843  11.205   4.136
21370W        W93696  12.794  20.141  14.564
21371W        W93697  37.309  42.792   1.017
21372W        W93698  43.472  12.705   5.031
21373W        W93699  25.416  21.611  13.736
21374W        W93700  38.915  23.429  13.762
21375W        W93701  34.477  36.117  11.568
21376W        W93702  18.159  10.459   4.545
21377W        W93703   2.913  16.720   3.729
21378W        W93704  43.814  16.880  14.732
21379W        W93705  30.430  30.229  14.841
21380W        W93706  18.813  13.358  11.537
21381W        W93707  12.777   7.019   2.824
21382W        W93708   4.310  16.564   0.482
21383W        W93709  34.539  30.695   0.776
21384W        W93710   2.214  31.090  13.465
21385W        W93711  33.330   5.712  12.591
21386W        W93712  15.838  18.756  14.802
21387W        W93713  39.867   9.588   2.396
21388W        W93714  16.261  16.774  10.712
21389W        W93715   2.231  34.933  13.583
21390W        W93716  41.459  26.816   1.463
21391W        W93717  44.971   0.023  11.117
21392W        W93718   8.281  10.177   0.678
21393W        W93719   8.712   8.169   4.591
21394W        W93720  33.138  33.533   1.826
21395W        W93721  37.141  37.556   4.140
21396W        W93722  36.256  30.203   4.864
21397W        W93723  34.824   3.908   1.771
21398W        W93724   5.770  40.211   4.532
21399W        W93725  12.165  16.616   1.723
21400W        W93726  43.673  38.495  11.545
21401W        W93727  13.440  11.370  14.263
21402W        W93728  27.683  42.794  13.850
21403W        W93729  40.747   0.830  14.719
21404W        W93730   0.406  28.504  13.136
21405W        W93731  14.143  26.370  11.854
21406W        W93732   9.887  42.903  13.564
21407W        W93733   4.869  12.110  11.221
21408W        W93734  20.731  25.210  11.392
21409W        W93735  43.909   7.456   0.881
21410W        W93736  43.470  43.959   4.576
21411W        W93737  35.082   4.445  11.516
21412W        W93738  13.386   8.606  14.265
21413W        W93739   3.207  34.857   1.942
21414W        W93740   2.120  36.552  11.205
21415W        W93741  40.418   3.161   2.732
21416W        W93742  11.963  29.398  13.496
21417W        W93743  43.769   8.296  13.550
21418W        W93744  20.056  42.434  10.983
21419W        W93745  26.715   9.206   0.778
21420W        W93746   1.338  20.640   2.391
21421W        W93747   5.158   7.110  11.064
21422W        W93748  31.988  23.681   0.956
21423W        W93749  37.596  26.602   2.911
21424W        W93750  13.322   4.055   1.024
21425W        W93751  21.571  22.568  13.259
21426W        W93752  40.818  13.176  12.195
21427W        W93753   8.902  16.259   2.704
21428W        W93754  25.128  12.044  14.877
21429W        W93755  36.266  34.413  13.772
21430W        W93756   9.200  18.633   0.922
21431W        W93757  44.848   0.835  11.389
21432W        W93758  30.580  16.985  11.415
21433W        W93759  34.865  17.212  10.721
21434W        W93760  36.182  11.271  13.532
21435W        W93761  22.727  44.709  11.745
21436W        W93762  35.600   3.418  13.745
21437W        W93763  16.292  15.144  11.120
21438W        W93764  44.063  31.021  14.506
21439W        W93765  15.722   4.376  10.766
21440W        W93766  40.241  41.378   3.669
21441W        W93767  22.537   4.165  13.462
21442W        W93768  35.526  11.656  10.252
21443W        W93769  32.043  15.218  14.317
21444W        W93770  19.145  29.666  10.642
21445W        W93771   4.753  17.544   0.157
21446W        W93772  27.639   1.932  10.643
21447W        W93773  17.174  29.492  11.445
21448W        W93774  14.608  24.673  10.712
21449W        W93775   9.287   6.308  10.696
21450W        W93776  36.120   6.903   4.768
21451W        W93777  33.617   1.941   1.189
21452W        W93778  30.479  39.098  14.275
21453W        W93779  17.476  23.301  14.046
21454W        W93780  20.567  38.474  14.847
21455W        W93781   1.237  42.527  11.528
21456W        W93782  42.007  31.928  12.033
21457W        W93783  33.332  35.954   0.904
21458W        W93784  29.548  39.510   2.801
21459W        W93785   8.151   9.163   1.980
21460W        W93786  42.262  26.976   1.108
21461W        W93787  11.556  27.862  12.749
21462W        W93788  41.523   2.966  13.067
21463W        W93789   3.709  10.182  10.619
21464W        W93790  19.343  31.179  13.746
21465W        W93791  31.286   5.692   0.860
21466W        W93792  40.314   3.189   0.765
21467W        W93793  30.884  43.317   4.300
21468W        W93794  32.093  16.782  13.590
21469W        W93795  31.881   0.736  11.095
21470W        W93796  24.013  38.686   0.248
21471W        W93797  39.250  33.121   0.448
21472W        W93798   1.517   9.901  12.927
21473W        W93799   3.835  37.231  10.417
21474W        W93800  16.745   8.878   4.076
21475W        W93801  37.611  33.948   4.159
21476W        W93802  20.047  13.922  11.896
21477W        W93803  18.248  40.088   0.504
21478W        W93804  42.385  28.667   4.526
21479W        W93805  39.814  42.764  12.619
21480W        W93806  11.945  15.279  10.672
21481W        W93807  12.833  41.925   3.236
21482W        W93808   4.000  43.283  14.981
21483W        W93809   4.836  30.021   4.054
21484W        W93810  14.237  42.692  10.612
21485W        W93811  23.089  18.701   0.018
21486W        W93812   9.674  11.996  11.263
21487W        W93813   9.749  11.954   2.212
21488W        W93814   1.010  29.119   4.725
21489W        W93815  33.944  21.982   1.343
21490W        W93816  34.775  22.107  12.598
21491W        W93817  22.658  26.717  11.812
21492W        W93818  40.486  23.195   0.127
21493W        W93819  16.769  18.547   4.639
21494W        W93820   0.681  30.235   3.318
21495W        W93821  19.577  28.987   0.735
21496W        W93822  15.598  14.578  14.321
21497W        W93823  13.684  27.165   2.832
21498W        W93824  16.440  11.619  11.105
21499W        W93825  33.518  42.255  13.431
21500W        W93826  44.547  26.136   3.848
21501W        W93827   1.009  22.280   3.576
21502W        W93828  35.554  34.092  14.332
21503W        W93829  26.934  27.733   4.488
21504W        W93830  30.136   0.789  14.790
21505W        W93831  39.936  39.295  10.960
21506W        W93832  36.646  13.376   3.705
21507W        W93833  22.330  40.018   0.748
21508W        W93834  28.993  26.189   4.501
21509W        W93835  36.924  23.284  14.283
21510W        W93836   3.891   2.868  12.532
21511W        W93837  17.318  39.567   3.937
21512W        W93838   0.383  37.430  11.456
21513W        W93839  28.582  29.617  10.664
21514W        W93840  10.925   6.214   0.848
21515W        W93841  11.348  31.660   3.852
21516W        W93842  43.248  26.480   3.708
21517W        W93843  27.675   9.968   3.689
21518W        W93844  38.628  35.315  11.981
21519W        W93845   2.651  17.534   1.765
21520W        W93846  26.021   4.056   2.914
21521W        W93847  16.967  14.707  13.854
21522W        W93848  26.010   8.751  11.332
21523W        W93849   8.619  25.428   1.700
21524W        W93850   1.411  21.075  14.411
21525W        W93851  25.761  33.128  12.667
21526W        W93852  38.431  33.316  14.945
21527W        W93853  17.816  42.648  12.932
21528W        W93854  22.978  16.981  10.085
21529W        W93855  17.008  38.363   3.799
21530W        W93856  29.948   9.915   0.983
21531W        W93857  21.610  31.878   3.090
21532W        W93858   5.259  40.540   0.417
21533W        W93859  28.066  10.360   0.489
21534W        W93860  27.288  10.375   0.828
21535W        W93861   1.056  43.825   0.930
21536W        W93862   2.899  10.948  11.873
21537W        W93863  26.616  13.030   3.717
21538W        W93864  18.582  12.692  11.045
21539W        W93865   3.801   8.979   1.326
21540W        W93866  42.977  44.775  11.488
21541W        W93867  37.954  35.846   1.300
21542W        W93868  14.809  13.148   2.667
21543W        W93869  32.700  28.066  11.225
21544W        W93870  32.116  25.868   3.736
21545W        W93871   8.234  15.728  12.091
21546W        W93872  41.238  28.592  14.395
21547W        W93873  27.861  34.002  11.945
21548W        W93874  43.037  30.498  14.796
21549W        W93875  18.364  17.464  10.766
21550W        W93876  11.074  30.872  13.173
21551W        W93877  40.431  21.120  11.141
21552W        W93878  37.472  29.916   1.567
21553W        W93879  40.334  26.571   1.775
21554W        W93880   7.965  40.108   4.158
21555W        W93881  40.445  33.773   3.938
21556W        W93882  13.159   8.116   1.909
21557W        W93883   7.946   9.339  13.166
21558W        W93884  41.590   8.533  11.905
21559W        W93885  29.367  22.060   1.245
21560W        W93886   1.747   7.673   2.729
21561W        W93887   9.711   2.233   1.228
21562W        W93888  23.132  37.546  13.803
21563W        W93889  12.088   9.190   0.426
21564W        W93890  22.746  30.562  13.051
21565W        W93891   0.000  43.353   0.168
21566W        W93892  30.920  15.807   0.036
21567W        W93893  40.331   7.845   2.688
21568W        W93894  30.943  19.276   3.743
21569W        W93895  22.778  30.921  13.412
21570W        W93896  19.523  20.258   2.199
21571W        W93897  29.064  16.505  12.072
21572W        W93898  33.032  19.109  14.815
21573W        W93899  14.592  20.768   1.503
21574W        W93900   2.426  27.711   3.678
21575W        W93901  26.081  39.494  11.474
21576W        W93902  11.876  18.524  12.356
21577W        W93903  39.962  16.640  12.589
21578W        W93904  29.743  13.300   3.219
21579W        W93905  29.339  38.964  11.513
21580W        W93906  15.821  41.513   0.656
21581W        W93907  11.161  42.508   2.801
21582W        W93908  17.173   2.311   2.740
21583W        W93909   8.732  13.925   0.903
21584W        W93910  24.653   8.415  11.198
21585W        W93911  17.789   9.945  11.080
21586W        W93912  19.002  18.392  14.862
21587W        W93913  34.808  28.586  12.001
21588W        W93914  40.568  35.395  10.543
21589W        W93915  25.244  22.835  14.804
21590W        W93916  41.541   4.776   4.761
21591W        W93917  23.376  32.565   0.549
21592W        W93918  11.833   5.250  10.504
21593W        W93919  43.898  11.104  11.360
21594W        W93920   8.408  13.707  14.712
21595W        W93921   9.348  12.104   4.580
21596W        W93922  25.054   2.265   1.937
21597W        W93923  30.098  39.978   3.625
21598W        W93924  19.568   9.336  10.713
21599W        W93925  38.045  25.970  13.720
21600W        W93926  19.477  37.444   3.802
21601W        W93927  22.817   8.199   4.304
21602W        W93928  36.585  26.261   0.295
21603W        W93929  17.604  24.463  10.597
21604W        W93930  14.839  29.457   1.868
21605W        W93931   1.901  16.510  14.584
21606W        W93932  22.069  10.783  14.560
21607W        W93933   5.707  40.873  12.149
21608W        W93934   2.718  43.863  13.943
21609W        W93935  40.364  32.564  11.929
21610W        W93936   9.137  21.623   1.454
21611W        W93937  14.180  32.101  11.697
21612W        W93938  21.166  23.506   0.205
21613W        W93939  13.073  31.499  13.039
21614W        W93940  21.632  33.114   1.388
21615W        W93941  29.908   1.233   1.852
21616W        W93942  39.528   8.351   1.387
21617W        W93943  43.341  34.618  10.825
21618W        W93944   4.947   3.301  13.903
21619W        W93945  36.499  20.714  13.324
21620W        W93946   8.717  33.828   2.606
21621W        W93947  24.488  21.570   3.280
21622W        W93948   1.259  35.057   3.319
21623W        W93949  10.286  39.016   4.006
21624W        W93950  40.241   4.223  11.184
21625W        W93951  43.304  38.973  14.704
21626W        W93952  18.346  17.670   3.429
21627W        W93953   7.263  44.271   4.327
21628W        W93954  20.733  21.582  11.132
21629W        W93955  28.434  43.452   0.418
21630W        W93956  38.533  42.287   4.700
21631W        W93957  36.103  14.262   4.577
21632W        W93958  28.789  29.341   2.352
21633W        W93959  20.200  22.310   3.785
21634W        W93960   3.215  31.670  11.714
21635W        W93961  19.139  41.996  10.908
21636W        W93962   7.137  15.654  10.576
21637W        W93963  19.115  43.332   4.682
21638W        W93964  30.161  36.376   1.439
21639W        W93965   0.972   1.667   5.153
21640W        W93966  27.020   2.708  11.399
21641W        W93967  14.975  11.647   2.743
21642W        W93968  29.049  11.448  14.303
21643W        W93969  42.502   0.172   4.012
21644W        W93970  31.506   4.197  14.046
21645W        W93971  20.131  27.773   0.894
21646W        W93972   6.655  23.276  11.006
21647W        W93973   8.429  36.431   3.375
21648W        W93974  31.404   2.326  13.247
21649W        W93975  10.041  15.723   4.720
21650W        W93976   4.618   5.317   9.611
21651W        W93977  44.324  12.134  12.768
21652W        W93978  35.900  38.398  12.426
21653W        W93979  43.962  23.563   1.678
21654W        W93980  35.778  40.586   1.324
21655W        W93981  41.836  18.175  10.604
21656W        W93982  13.571  24.563   4.052
21657W        W93983  10.192  25.273   0.816
21658W        W93984   5.817  33.489   4.669
21659W        W93985  33.535   8.844  13.133
21660W        W93986   1.021  21.766  13.953
21661W        W93987  37.832  28.660  14.562
21662W        W93988  25.096   3.795   0.253
21663W        W93989  33.449   6.190   5.043
21664W        W93990   3.065   2.344   0.790
21665W        W93991  32.477  17.720  12.344
21666W        W93992  43.193  39.456  12.989
21667W        W93993  26.014  37.046  14.401
21668W        W93994  11.662  33.426   1.823
21669W        W93995   3.935   2.594  10.169
21670W        W93996   9.237  13.557   2.637
21671W        W93997  13.528   5.376  10.581
21672W        W93998   9.449  13.123  14.946
21673W        W93999  36.844  15.130  11.150
21674W        W94000   0.326  41.916   4.610
21675W        W94001  13.095  15.674   1.014
21676W        W94002   8.308  21.271   1.636
21677W        W94003  12.025   6.866  12.993
21678W        W94004  38.000   6.551  13.786
21679W        W94005  37.986  40.810   3.200
21680W        W94006  28.699  38.265  12.997
21681W        W94007  36.774  39.314   2.170
21682W        W94008  32.077   2.642  12.486
21683W        W94009  15.026  24.553   0.799
21684W        W94010   5.907  35.162   3.631
21685W        W94011  32.363  36.604   2.632
21686W        W94012  35.563  18.044  13.481
21687W        W94013  24.101  12.829   1.406
21688W        W94014  36.562  43.569  12.945
21689W        W94015  32.959   8.691  14.459
21690W        W94016   3.112   6.341  12.463
21691W        W94017  24.000  43.782  12.658
21692W        W94018  29.655  41.625  10.422
21693W        W94019  19.053   5.200   2.849
21694W        W94020  32.194   9.153  12.012
21695W        W94021  12.805  44.439  13.301
21696W        W94022  16.574  36.057  12.560
21697W        W94023  38.607  15.809   0.361
21698W        W94024  10.243  26.471   4.054
21699W        W94025  21.468  36.360  12.295
21700W        W94026  15.899  39.489  11.024
21701W        W94027   8.628  37.171  11.080
21702W        W94028  38.237  12.840   0.436
21703W        W94029   0.272  30.549  13.317
21704W        W94030  15.158  23.152  12.309
21705W        W94031  16.109  19.565  13.724
21706W        W94032   4.467   8.786   3.674
21707W        W94033  35.920  19.822  12.559
21708W        W94034   3.348  42.205  10.748
21709W        W94035   0.355  33.981   3.997
21710W        W94036   9.736   4.653  12.674
21711W        W94037  14.235  34.845  13.957
21712W        W94038  14.791   0.961   3.346
21713W        W94039  41.699   2.729   4.096
21714W        W94040   1.844  31.670   3.888
21715W        W94041  20.175   0.523   4.227
21716W        W94042  40.981  36.251   3.647
21717W        W94043  31.037  26.512   0.270
21718W        W94044  44.056  19.563   0.712
21719W        W94045  37.769   2.287  14.940
21720W        W94046  20.031  23.432   4.154
21721W        W94047   7.097  21.433   2.226
21722W        W94048   9.509   9.129   0.772
21723W        W94049  12.331   0.383  11.902
21724W        W94050  40.372  43.321  13.928
21725W        W94051  16.781  30.919   1.290
21726W        W94052  27.973  31.660  12.997
21727W        W94053  42.095  36.611   2.211
21728W        W94054   8.609   6.683  12.830
21729W        W94055  38.334  11.336  10.498
21730W        W94056  35.973  11.554   2.821
21731W        W94057   0.797   5.295   0.760
21732W        W94058  14.120  36.704  10.054
21733W        W94059   5.887  21.010   4.621
21734W        W94060  13.718  43.483   4.740
21735W        W94061  34.708  43.821   4.056
21736W        W94062  32.318  24.509  11.859
21737W        W94063  38.307   8.707   1.872
21738W        W94064   7.259  31.892  11.254
21739W        W94065  25.202   1.044   2.814
21740W        W94066  34.894  14.144  12.901
21741W        W94067  21.188  42.576   4.310
21742W        W94068  21.100  33.388   2.377
21743W        W94069  27.077  39.145  13.409
21744W        W94070   3.905  38.046   1.909
21745W        W94071   9.064  17.504   2.467
21746W        W94072  21.453  29.573   2.657
21747W        W94073  32.921  10.659   2.264
21748W        W94074  25.353  31.951   3.404
21749W        W94075  33.077  15.656   2.295
21750W        W94076  23.205   6.211   4.476
21751W        W94077  31.019  41.756   2.774
21752W        W94078   1.460  30.923  12.061
21753W        W94079  25.139  32.074  12.821
21754W        W94080  15.614   5.964  11.977
21755W        W94081   4.644  44.728  11.551
21756W        W94082  42.234  33.035   4.159
21757W        W94083  31.226  37.847   1.697
21758W        W94084  33.888  12.086  10.585
21759W        W94085  36.679  19.971   3.810
21760W        W94086   8.133  44.958  12.694
21761W        W94087  40.715  22.660  13.751
21762W        W94088   5.325   7.405   1.399
21763W        W94089  42.936  40.909  14.443
21764W        W94090  43.038  18.117   4.090
21765W        W94091  27.262  22.087   1.687
21766W        W94092  16.188  44.795  13.100
21767W        W94093  31.140   9.619   0.086
21768W        W94094   0.094  16.120   3.228
21769W        W94095  30.251  35.508   0.346
21770W        W94096   9.806  21.161  10.669
21771W        W94097  18.498  34.907  12.975
21772W        W94098  18.730  11.546  13.084
21773W        W94099  32.615  25.870  14.916
21774W        W94100   3.331  31.999   0.286
21775W        W94101  37.534   3.972  10.901
21776W        W94102  12.240  34.665  12.874
21777W        W94103  29.121  19.062  14.824
21778W        W94104  44.483   2.861  13.217
21779W        W94105  19.279   3.758   2.278
21780W        W94106  28.377  22.640  12.539
21781W        W94107  33.352   9.095   4.222
21782W        W94108  36.689  26.198  14.447
21783W        W94109  21.813  16.242  13.002
21784W        W94110  34.820  15.050   3.829
21785W        W94111  22.159  32.360  12.464
21786W        W94112  20.380  28.604   1.854
21787W        W94113  37.397   0.450   4.369
21788W        W94114  11.537  35.292   5.414
21789W        W94115  20.156  13.709   2.973
21790W        W94116  38.691  44.919  13.045
21791W        W94117  10.292  36.804   1.256
21792W        W94118  37.880  44.809   1.393
21793W        W94119   4.625  29.159   0.357
21794W        W94120  42.254  13.678   1.330
21795W        W94121  23.060  13.589  13.989
21796W        W94122   6.911  13.347  14.726
21797W        W94123  26.139   3.474   9.886
21798W        W94124   3.226  43.776  11.671
21799W        W94125  17.031  24.191   4.734
21800W        W94126   9.771  38.448  12.916
21801W        W94127  14.558  20.584  12.567
21802W        W94128  27.619  10.911   4.930
21803W        W94129   3.164  25.304   2.209
21804W        W94130  28.271   2.776  13.399
21805W        W94131  24.759  22.626  13.854
21806W        W94132  31.115   6.097  12.406
21807W        W94133  16.688  42.458   0.059
21808W        W94134  19.013  15.705  12.735
21809W        W94135  22.873   8.404  11.353
21810W        W94136  11.738  34.835   4.490
21811W        W94137  24.287  12.783   9.991
21812W        W94138  34.350  19.621  13.953
21813W        W94139   0.857  32.985  11.529
21814W        W94140   1.374  21.269   3.043
21815W        W94141   8.043  36.255  10.449
21816W        W94142  37.565  10.856  14.789
21817W        W94143  22.542  42.702  12.998
21818W        W94144   4.137  19.696   3.701
21819W        W94145  36.850  22.549   1.832
21820W        W94146  26.469  36.106   4.273
21821W        W94147   4.280  43.454   3.689
21822W        W94148  13.226   4.003  13.953
21823W        W94149   0.815  42.483   2.214
21824W        W94150  18.032  24.189  11.988
21825W        W94151   9.330  43.629   3.668
21826W        W94152  13.204  35.520   3.679
21827W        W94153  33.174  22.802   4.121
21828W        W94154  23.568  21.306   3.170
21829W        W94155  26.085  24.615  12.666
21830W        W94156  28.211  44.198  14.102
21831W        W94157   4.028  39.853  13.845
21832W        W94158   6.197   6.810   0.399
21833W        W94159  34.730  20.429   2.834
21834W        W94160   4.698   2.250   0.279
21835W        W94161  44.312  17.601  14.966
21836W        W94162  40.654  32.466  14.784
21837W        W94163  43.008   0.096   3.903
21838W        W94164  19.498  25.386   0.016
21839W        W94165  33.938   5.753   2.444
21840W        W94166  18.651   8.136  13.448
21841W        W94167  39.075  27.693  12.400
21842W        W94168  14.850  34.398   0.507
21843W        W94169  34.443  34.066  13.786
21844W        W94170  13.651  27.673   3.735
21845W        W94171  41.890   9.950  13.910
21846W        W94172  40.504  38.971   0.315
21847W        W94173  23.472   0.832   4.224
21848W        W94174  20.817  38.093  11.926
21849W        W94175  16.126  44.496  14.521
21850W        W94176  14.687   5.988  11.217
21851W        W94177  40.404  36.456   4.755
21852W        W94178  28.103  22.264   1.523
21853W        W94179  13.720  22.010   2.928
21854W        W94180  12.370   9.670  11.870
21855W        W94181  15.107  32.033  14.233
21856W        W94182  12.339  42.279  12.487
21857W        W94183  32.441  43.804   4.494
21858W        W94184   0.853  15.639   4.171
21859W        W94185  11.310  18.527  14.973
21860W        W94186   7.303  27.318  12.043
21861W        W94187  43.000  22.807   3.390
21862W        W94188  42.166  18.235  12.964
21863W        W94189  23.433  12.227   2.740
21864W        W94190  26.116   8.552  10.873
21865W        W94191   1.680  17.954  13.036
21866W        W94192  37.573  12.834   4.515
21867W        W94193  41.092  28.984   3.742
21868W        W94194  12.239  30.162  14.438
21869W        W94195  34.542  27.106  11.577
21870W        W94196  42.947   4.703   2.404
21871W        W94197   1.822  13.010  11.577
21872W        W94198  35.844  34.123  11.856
21873W        W94199  28.001   0.682  13.876
21874W        W94200   2.199  15.712  13.880
21875W        W94201  24.381  39.815   3.683
21876W        W94202  42.455   6.335  11.340
21877W        W94203   6.382  24.572   0.690
21878W        W94204  44.855  44.463  12.855
21879W        W94205   4.820  16.884  11.626
21880W        W94206  30.603  37.331   1.676
21881W        W94207  20.455  40.960   4.688
21882W        W94208   1.781  29.474   3.178
21883W        W94209  14.303  29.153  14.341
21884W        W94210  38.273  27.285   4.422
21885W        W94211   5.020  43.996   0.545
21886W        W94212  43.883  21.122   1.769
21887W        W94213  14.312  41.433  14.894
21888W        W94214  17.500  24.988   3.414
21889W        W94215  31.165  31.734   0.221
21890W        W94216  37.965   3.732   1.805
21891W        W94217   1.215  13.076  11.613
21892W        W94218  36.812  29.544  10.537
21893W        W94219  24.803  28.557   0.284
21894W        W94220  10.397   0.989  11.490
21895W        W94221  20.205   5.868   3.611
21896W        W94222  17.341   7.392   3.815
21897W        W94223  27.066  37.122  13.482
21898W        W94224  39.168  20.623  11.587
21899W        W94225  34.569  36.515   2.389
21900W        W94226  37.895  33.486  13.482
21901W        W94227   2.978  26.227  11.147
21902W        W94228   6.318  21.223   2.846
21903W        W94229   7.134  22.425   0.667
21904W        W94230  12.886   9.239   3.673
21905W        W94231  44.482  36.633   3.637
21906W        W94232  38.066  31.455  14.211
21907W        W94233  21.234  18.281  13.973
21908W        W94234  16.215   4.222  12.960
21909W        W94235  35.130  24.700   3.254
21910W        W94236  17.056  28.896   1.663
21911W        W94237  22.243  15.084  10.710
21912W        W94238   0.450   8.821   0.012
21913W        W94239  44.347  26.630   2.786
21914W        W94240  22.827  14.635  10.940
21915W        W94241  44.332  12.656  11.944
21916W        W94242  32.020  17.267   1.091
21917W        W94243   8.629   7.265  12.528
21918W        W94244  20.273  13.136  12.507
21919W        W94245   3.561  30.701   4.128
21920W        W94246  40.998  14.547  12.388
21921W        W94247  42.023  30.643  13.928
21922W        W94248  37.393  15.583  12.996
21923W        W94249  39.847   6.499  13.902
21924W        W94250   4.754  15.264  13.927
21925W        W94251   6.615  41.324  11.890
21926W        W94252  37.607  16.558   1.435
21927W        W94253  35.350  16.677  11.592
21928W        W94254   3.871  32.494  13.863
21929W        W94255  38.523  10.682   0.096
21930W        W94256  40.200  34.479  10.154
21931W        W94257  28.979   6.313  10.562
21932W        W94258  17.012  24.735   2.238
21933W        W94259  35.327   8.215  10.758
21934W        W94260  31.767  18.185   1.538
21935W        W94261  29.504  17.988  13.567
21936W        W94262  32.667  36.563   2.215
21937W        W94263  13.257  28.191  14.463
21938W        W94264  15.534  30.383  14.774
21939W        W94265  15.815  19.603   1.795
21940W        W94266  42.014   6.417  11.594
21941W        W94267  37.268  20.478  10.544
21942W        W94268  22.617  18.267   1.044
21943W        W94269  32.771  27.155  13.912
21944W        W94270  42.115  26.726  11.121
21945W        W94271  33.633  11.152   3.780
21946W        W94272  37.259  30.441  13.835
21947W        W94273  21.519  32.875  10.923
21948W        W94274  36.435  18.064   1.867
21949W        W94275  38.496  31.883   2.679
21950W        W94276  19.211   0.843   3.393
21951W        W94277   5.041  11.794   4.607
21952W        W94278  33.147  33.402  10.796
21953W        W94279  10.895  15.053   0.744
21954W        W94280  15.136  43.807   3.267
21955W        W94281  23.568  10.307  13.455
21956W        W94282   4.352  27.631  10.426
21957W        W94283  42.914  15.029   0.274
21958W        W94284   3.682  12.345  13.554
21959W        W94285  38.050  22.098   1.527
21960W        W94286  12.346  21.297   4.135
21961W        W94287  20.055  25.631   3.863
21962W        W94288   1.170   4.238   2.354
21963W        W94289   4.952  29.776  12.577
21964W        W94290   9.881  35.460  13.370
21965W        W94291  28.528  12.253   1.625
21966W        W94292  32.402   2.819  14.027
21967W        W94293  43.665  24.139  12.007
21968W        W94294   0.003  35.037  12.902
21969W        W94295   0.916  31.384   4.137
21970W        W94296  32.128  25.090   3.386
21971W        W94297  42.578  13.541   4.219
21972W        W94298   5.207  22.098  10.650
21973W        W94299  11.401  10.909  11.020
21974W        W94300  17.036  25.677  11.490
21975W        W94301  43.483  18.076  12.415
21976W        W94302  41.848  38.818  11.582
21977W        W94303  19.189  22.445  11.850
21978W        W94304   1.710  21.411  10.182
21979W        W94305   9.771  17.951  13.871
21980W        W94306  14.310   8.346   2.180
21981W        W94307  17.666   8.314  10.506
21982W        W94308  35.129  38.598   1.433
21983W        W94309   4.141  26.177   4.639
21984W        W94310  30.408   7.421  12.058
21985W        W94311   9.282  38.054   1.719
21986W        W94312  38.000  21.521   4.681
21987W        W94313   6.568  19.123   2.144
21988W        W94314  19.900  10.808  14.097
21989W        W94315  38.103  31.054  13.887
21990W        W94316   1.749   4.769  11.656
21991W        W94317  21.533  27.214   1.857
21992W        W94318  18.249  21.061  13.934
21993W        W94319   0.158   5.057  10.657
21994W        W94320  28.176  24.448   4.215
21995W        W94321  13.654  11.320   4.667
21996W        W94322  12.238   1.068  12.437
21997W        W94323   0.517  43.907  11.576
21998W        W94324  29.002   7.991   0.277
21999W        W94325  37.159  18.793  14.541
22000W        W94326  38.883  38.776   4.304
22001W        W94327  22.913  32.080   3.175
22002W        W94328   7.770  36.140  12.877
22003W        W94329  16.886  44.171   0.041
22004W        W94330  26.467  38.295  12.946
22005W        W94331  38.409  37.570  10.630
22006W        W94332  15.142   0.290  14.484
22007W        W94333  12.143  25.605  14.327
22008W        W94334  34.843  13.802  12.485
22009W        W94335  42.313   8.386  12.374
22010W        W94336  24.763  38.538  14.050
22011W        W94337  30.085  37.414  11.002
22012W        W94338  44.869  34.881   1.165
22013W        W94339  28.224   0.204  14.080
22014W        W94340  42.896   5.891   2.785
22015W        W94341   8.486  24.129  13.529
22016W        W94342  32.745  30.903  12.369
22017W        W94343  41.861   6.495   3.366
22018W        W94344  33.061  34.501  14.852
22019W        W94345  20.357   7.310   1.274
22020W        W94346  23.209  17.578   5.455
22021W        W94347  12.320   8.828   4.779
22022W        W94348  41.984  34.576   5.178
22023W        W94349  18.055  44.545   4.491
22024W        W94350   9.168  37.581   4.198
22025W        W94351  18.449   1.742  11.134
22026W        W94352   0.817   6.798  14.319
22027W        W94353  14.407  13.260  10.706
22028W        W94354  37.595   9.456   4.801
22029W        W94355   0.941  21.161   1.392
22030W        W94356  41.490  19.042   4.979
22031W        W94357   1.297  32.150   2.340
22032W        W94358  23.842  13.200   4.048
22033W        W94359  34.849  35.042  11.961
22034W        W94360  33.918   0.581   0.573
22035W        W94361   8.164  43.813  14.993
22036W        W94362  10.685  36.843  12.900
22037W        W94363  18.093   5.388   0.398
22038W        W94364  23.090  43.983  10.504
22039W        W94365  27.743   9.861  12.205
22040W        W94366  34.620  28.371   0.736
22041W        W94367  15.017  10.746   2.915
22042W        W94368  13.092  16.848   2.721
22043W        W94369  31.195  32.915  10.526
22044W        W94370  43.070  35.538  12.079
22045W        W94371   6.948  43.645  13.445
22046W        W94372  32.041  12.599   0.536
22047W        W94373  43.589   1.444  11.566
22048W        W94374  27.385  39.231  13.817
22049W        W94375   8.090  19.189  12.064
22050W        W94376  21.805  41.472   4.097
22051W        W94377   2.627   7.082  12.022
22052W        W94378  10.158  41.455  11.235
22053W        W94379  25.254   5.914   0.926
22054W        W94380  44.368   4.460   3.605
22055W        W94381  38.548  15.176  10.728
22056W        W94382   8.094  16.109   1.437
22057W        W94383  41.864  12.755  14.120
22058W        W94384  41.220  24.246  14.838
22059W        W94385  23.474  27.778   4.522
22060W        W94386   9.763  40.346   0.894
22061W        W94387  16.620   6.534   2.356
22062W        W94388  25.532   0.729  12.059
22063W        W94389  40.805  32.005  14.535
22064W        W94390  19.454  40.487   3.621
22065W        W94391   5.922  40.304  10.844
22066W        W94392   0.858  34.700   3.362
22067W        W94393  16.001   9.463  10.689
22068W        W94394  37.464  29.524   3.495
22069W        W94395  37.044   5.790  14.415
22070W        W94396  36.056  38.948  11.467
22071W        W94397   1.796  15.356  11.138
22072W        W94398  23.183  35.476   4.460
22073W        W94399   2.325   7.564   2.798
22074W        W94400  37.940  37.927  14.888
22075W        W94401   1.029  10.373  10.753
22076W        W94402  18.493  22.052   4.268
22077W        W94403  19.912  40.822   4.276
22078W        W94404  18.661   6.903  11.810
22079W        W94405  12.749  36.014   5.130
22080W        W94406  25.102  19.956   2.826
22081W        W94407  10.466  31.723   2.484
22082W        W94408  29.894  25.570   1.892
22083W        W94409  33.410   3.873  10.718
22084W        W94410  24.330  35.315   3.008
22085W        W94411  22.169  22.097   4.283
22086W        W94412  21.743   0.313   2.278
22087W        W94413  31.418  15.868  14.908
22088W        W94414   7.516  17.653  11.150
22089W        W94415  30.652  35.797  13.370
22090W        W94416   7.265   3.818  12.925
22091W        W94417   4.900  22.703   5.117
22092W        W94418  19.754   0.292   0.264
22093W        W94419  42.391   2.915   0.407
22094W        W94420  43.891  32.632   2.725
22095W        W94421  18.226   8.172  14.777
22096W        W94422  41.847   3.242  12.775
22097W        W94423  12.948  32.757  13.869
22098W        W94424   9.436   2.753  14.468
22099W        W94425  35.578  26.457   0.368
22100W        W94426  41.567  27.990  11.654
22101W        W94427  25.521  12.673   1.831
22102W        W94428  36.205  34.693   4.119
22103W        W94429   6.654  31.588  11.233
22104W        W94430  44.899  23.195  12.855
22105W        W94431  44.537  43.772  11.714
22106W        W94432  26.438   2.410   3.174
22107W        W94433  41.032  25.046  11.413
22108W        W94434  16.076  26.943   2.644
22109W        W94435  43.528  17.539  12.353
22110W        W94436  28.970  13.153   2.690
22111W        W94437  15.209  32.099   0.242
22112W        W94438  13.857  17.286  11.488
22113W        W94439  23.674  33.057  11.738
22114W        W94440  44.108  11.188   2.645
22115W        W94441  33.246  11.323  11.891
22116W        W94442  22.840  18.086   3.111
22117W        W94443  32.869   2.556  10.440
22118W        W94444  44.790  23.754  10.712
22119W        W94445  29.587  24.167  10.620
22120W        W94446  18.649   8.919   1.765
22121W        W94447  15.515  20.475   1.320
22122W        W94448  36.352  25.173   0.358
22123W        W94449   2.248  34.447  13.396
22124W        W94450  17.129  15.737  12.246
22125W        W94451   6.025  17.575   4.580
22126W        W94452  15.849  44.954   4.605
22127W        W94453  21.046  26.640  14.487
22128W        W94454  15.619   6.362  11.116
22129W        W94455  42.512  37.309   0.943
22130W        W94456  11.708   5.432   1.599
22131W        W94457  21.218   8.970  11.201
22132W        W94458  21.661  20.273  10.924
22133W        W94459  25.258  42.802  12.783
22134W        W94460  43.876  16.557  10.720
22135W        W94461  14.631  19.163  12.914
22136W        W94462  16.840  18.252  11.932
22137W        W94463  20.671  16.572   3.610
22138W        W94464   0.942  17.560   3.493
22139W        W94465  29.953  12.299   1.091
22140W        W94466  22.176  37.361   1.950
22141W        W94467   6.759   4.932  12.092
22142W        W94468  37.822  12.135  10.899
22143W        W94469   2.595  11.095   2.670
22144W        W94470   2.001   2.946   3.285
22145W        W94471  13.485  21.121  10.967
22146W        W94472  28.867   7.651   4.159
22147W        W94473  28.603   8.742   2.822
22148W        W94474  37.433  21.943  14.040
22149W        W94475   6.820  18.887  11.140
22150W        W94476  41.130   3.538   2.142
22151W        W94477  42.815  26.012   4.807
22152W        W94478  43.877  25.160  12.135
22153W        W94479   1.985  34.616  14.382
22154W        W94480  24.935  38.988  14.982
22155W        W94481  17.157  11.432   0.420
22156W        W94482  25.635  36.168  13.944
22157W        W94483   7.871  40.408  13.479
22158W        W94484  20.555  24.693   0.451
22159W        W94485   6.017  26.863  11.490
22160W        W94486   2.780  21.759  11.561
22161W        W94487  11.156  34.870   0.056
22162W        W94488  38.974  16.634  11.148
22163W        W94489   4.280  28.571  12.621
22164W        W94490   5.676  23.134  12.115
22165W        W94491  41.445  25.234  14.125
22166W        W94492   7.272  18.501   2.874
22167W        W94493  32.680  38.480   4.099
22168W        W94494  42.012   4.249  11.391
22169W        W94495  36.488  12.615   0.804
22170W        W94496  16.207   9.276   3.573
22171W        W94497  35.628  35.276   2.757
22172W        W94498  36.308  17.629  12.431
22173W        W94499   6.712  10.617  11.168
22174W        W94500  13.839  31.828   0.267
22175W        W94501   5.670  37.117  12.630
22176W        W94502  39.439  15.166   0.455
22177W        W94503  29.373  41.289   3.494
22178W        W94504   5.250  19.795  10.777
22179W        W94505  15.116  20.544   2.804
22180W        W94506   7.883  15.072  13.545
22181W        W94507   0.151  23.117  12.395
22182W        W94508  12.570  34.515   3.689
22183W        W94509   5.663  34.878   3.282
22184W        W94510   8.864  36.963   4.753
22185W        W94511  42.299   3.886   5.049
22186W        W94512  43.310  21.269  14.782
22187W        W94513   6.041  29.171   3.296
22188W        W94514  32.939   6.832   4.739
22189W        W94515   4.833  13.742   4.041
22190W        W94516  36.089  23.781   2.772
22191W        W94517   3.080  11.660  12.831
22192W        W94518   3.319  43.548  11.212
22193W        W94519  30.514  43.307  14.503
22194W        W94520  10.757  19.263   3.567
22195W        W94521  31.163  26.982   0.468
22196W        W94522  40.464   5.662   0.857
22197W        W94523   6.785   6.286  13.008
22198W        W94524  38.023  20.061  11.925
22199W        W94525  14.305  30.012   0.740
22200W        W94526  25.164  12.583  11.743
22201W        W94527  18.223  13.220  12.926
22202W        W94528  22.583  12.416  13.408
22203W        W94529  40.279  16.287   4.572
22204W        W94530   4.355  25.092   4.404
22205W        W94531  33.072  31.040   0.928
22206W        W94532   7.605  30.343   4.226
22207W        W94533  15.578  17.297  13.941
22208W        W94534  39.750   1.356   3.091
22209W        W94535   4.089  39.986  11.850
22210W        W94536  43.578   4.658   3.927
22211W        W94537  40.836  37.375  10.399
22212W        W94538  35.107  18.335  13.494
22213W        W94539  24.961  26.363  12.481
22214W        W94540  26.742   0.111  14.883
22215W        W94541   6.505  13.821  10.732
22216W        W94542   5.206  17.245  13.917
22217W        W94543  38.558  30.074   0.489
22218W        W94544   9.427  14.174   4.815
22219W        W94545  37.822  39.219  13.886
22220W        W94546  43.858   5.055  10.949
22221W        W94547   6.254  27.606  10.830
22222W        W94548  28.091   2.278   0.875
22223W        W94549  24.759  38.494  14.919
22224W        W94550   7.195  17.324   2.206
22225W        W94551  23.976   8.833   4.364
22226W        W94552  19.981  29.534   3.474
22227W        W94553  41.213  41.289  13.018
22228W        W94554   7.361  12.848  11.988
22229W        W94555  43.763  19.795   2.283
22230W        W94556   4.742  31.290   1.399
22231W        W94557  14.069   5.811   2.756
22232W        W94558  40.015  33.531   2.370
22233W        W94559  20.287   6.788   2.189
22234W        W94560  25.184   3.519  14.830
22235W        W94561  23.883  23.692  13.477
22236W        W94562  44.836   1.935  14.723
22237W        W94563  34.712   7.268  11.516
22238W        W94564  40.507  32.951   2.649
22239W        W94565   1.066  11.453  14.272
22240W        W94566  33.723  19.696   2.804
22241W        W94567   0.844  20.543   4.522
22242W        W94568  18.540  24.770   1.280
22243W        W94569  36.306  14.452  11.095
22244W        W94570   3.281  27.376   1.838
22245W        W94571   5.912  19.221  11.785
22246W        W94572  23.119  25.106   4.532
22247W        W94573   8.484  20.687  13.862
22248W        W94574   5.389  40.403  11.622
22249W        W94575   7.596  32.092  13.589
22250W        W94576  18.059  10.877   1.811
22251W        W94577   7.183  44.760  12.526
22252W        W94578   1.960  21.309  12.968
22253W        W94579  26.726   8.270  13.845
22254W        W94580   0.883  14.624  12.281
22255W        W94581  34.378  28.215   1.727
22256W        W94582  44.329  36.223  10.432
22257W        W94583  20.178  22.618  12.329
22258W        W94584   3.745  38.064  11.079
22259W        W94585  39.896   5.582   4.039
22260W        W94586   1.686  25.527   0.305
22261W        W94587   1.468  19.701   3.686
22262W        W94588  20.617   2.668  14.302
22263W        W94589  18.633  27.599   0.400
22264W        W94590   6.394  42.960   4.525
22265W        W94591   2.193  41.260  11.121
22266W        W94592  21.181  28.512   4.880
22267W        W94593  35.762   0.823   1.479
22268W        W94594   0.052  35.100  14.471
22269W        W94595  19.673  27.190   4.497
22270W        W94596  11.328   9.894   3.642
22271W        W94597  13.559  27.794  11.526
22272W        W94598  33.559  24.003  10.514
22273W        W94599   9.101  40.814  14.745
22274W        W94600  37.312  35.468  12.902
22275W        W94601  19.256  42.969  14.742
22276W        W94602  16.287   8.335   3.665
22277W        W94603  15.558  30.855   4.228
22278W        W94604   5.219  12.150  13.430
22279W        W94605  37.358  16.588   1.922
22280W        W94606  39.087  42.528  13.896
22281W        W94607   2.266  35.948  14.462
22282W        W94608   7.458  15.880  11.965
22283W        W94609  26.611  27.934   0.550
22284W        W94610  35.464   0.751   4.717
22285W        W94611  37.073  19.818  14.545
22286W        W94612  31.133  20.803  11.617
22287W        W94613   2.124  38.515  14.406
22288W        W94614  27.549  39.062   1.883
22289W        W94615  17.320  44.931   1.884
22290W        W94616  20.867  26.663   3.996
22291W        W94617  17.060  42.840  13.328
22292W        W94618  27.722  19.011   2.688
22293W        W94619  12.357  29.742  13.391
22294W        W94620  25.563  38.061  10.576
22295W        W94621  36.116  18.105  14.817
22296W        W94622  15.252  42.015   3.599
22297W        W94623  15.230  11.832   1.048
22298W        W94624   2.538  17.072   3.630
22299W        W94625  40.837  39.353   0.378
22300W        W94626  25.545  14.755   1.478
22301W        W94627  23.809  41.802   0.444
22302W        W94628  11.231  11.273  12.967
22303W        W94629  28.869  31.340   0.793
22304W        W94630  17.312  27.625   2.804
22305W        W94631  43.920  12.317   0.040
22306W        W94632  33.716  18.656  13.377
22307W        W94633  14.314  42.020  12.901
22308W        W94634  23.295   6.412   2.155
22309W        W94635  37.978  25.978   1.758
22310W        W94636  36.928   7.200  11.103
22311W        W94637  20.033  10.053   1.267
22312W        W94638  20.973  29.441   2.395
22313W        W94639  29.213   2.435  11.134
22314W        W94640   2.372  35.271  11.577
22315W        W94641   4.780  12.486  14.843
22316W        W94642  33.514  40.178  13.305
22317W        W94643  30.636  34.815  14.366
22318W        W94644   4.266  22.112  11.121
22319W        W94645  33.041  33.427  13.293
22320W        W94646  12.110  24.950  11.555
22321W        W94647  43.785   9.158  13.861
22322W        W94648  11.676  21.207  14.960
22323W        W94649  38.424  27.957  14.320
22324W        W94650  38.169  13.257  13.373
22325W        W94651  30.823  17.444  11.535
22326W        W94652  13.010  12.830   1.044
22327W        W94653  41.002  11.747   0.909
22328W        W94654  44.958  37.846   3.108
22329W        W94655  25.372  17.811  11.555
22330W        W94656  39.995   1.922  10.711
22331W        W94657  19.567  37.904   0.793
22332W        W94658  43.489  13.441  12.659
22333W        W94659  23.543  39.434   1.310
22334W        W94660  11.040   4.748  11.061
22335W        W94661  12.594   9.227   0.390
22336W        W94662   7.420   5.817   1.218
22337W        W94663  35.455   1.143  11.768
22338W        W94664  37.723  29.602   9.734
22339W        W94665  25.610  23.771   2.342
22340W        W94666   2.440  38.847   2.314
22341W        W94667   7.719   8.437   0.874
22342W        W94668  37.008  18.834   4.111
22343W        W94669   3.736  23.724   5.089
22344W        W94670  25.419  21.467  14.499
22345W        W94671   9.428  27.918   1.316
22346W        W94672  21.955  39.355   4.180
22347W        W94673   1.010  33.495  11.641
22348W        W94674  39.556  19.042   3.176
22349W        W94675   2.643  34.846   4.226
22350W        W94676  27.456   2.201  13.801
22351W        W94677  43.933   9.212   3.057
22352W        W94678  31.904  44.200  14.837
22353W        W94679  40.261   2.502  14.387
22354W        W94680   3.924  28.948  11.288
22355W        W94681  29.666   1.469  11.162
22356W        W94682   3.139   5.202   0.010
22357W        W94683  36.340   5.797   3.168
22358W        W94684  30.114  26.399  10.585
22359W        W94685  38.642   2.686   3.323
22360W        W94686  31.826  13.186   2.356
22361W        W94687   1.774  18.173   3.814
22362W        W94688  31.179  28.938   0.406
22363W        W94689  19.983  28.325  12.534
22364W        W94690  33.150   7.329  12.728
22365W        W94691  43.023  30.476  11.563
22366W        W94692  21.689  18.050   1.330
22367W        W94693  17.639  34.458   4.518
22368W        W94694  11.566  17.265   0.419
22369W        W94695  16.156   3.138   0.333
22370W        W94696  16.670  19.649   2.404
22371W        W94697  44.459   3.541   4.032
22372W        W94698  20.246  26.998   3.640
22373W        W94699  41.424  15.730  12.443
22374W        W94700  19.597   8.938   2.768
22375W        W94701  34.035   6.340  12.409
22376W        W94702  34.181  16.031   0.357
22377W        W94703  32.024  32.011   0.453
22378W        W94704  37.128  42.447   2.622
22379W        W94705  15.631   0.975   1.246
22380W        W94706   3.396  25.907   0.779
22381W        W94707  41.310   3.922  10.777
22382W        W94708  37.293  19.735   4.073
22383W        W94709  40.077  35.036  14.368
22384W        W94710   0.295   6.930  14.392
22385W        W94711  10.848  14.616  14.499
22386W        W94712  43.770  11.828   2.671
22387W        W94713  42.733   9.713   1.901
22388W        W94714   2.767   7.112   3.717
22389W        W94715  27.933   7.996  12.090
22390W        W94716  20.347   0.729  11.950
22391W        W94717   7.913  25.253  14.491
22392W        W94718   8.964  36.246  13.385
22393W        W94719  42.093  39.040   4.081
22394W        W94720   4.559  26.560   2.844
22395W        W94721  41.863   7.476   3.262
22396W        W94722  39.914   0.576  11.964
22397W        W94723  40.313   1.827  14.435
22398W        W94724  30.911  29.430  12.458
22399W        W94725  38.953  33.970   4.547
22400W        W94726  38.639  11.260  12.235
22401W        W94727  38.270  38.030   3.686
22402W        W94728  36.029  19.744   2.682
22403W        W94729  28.007  21.350   4.425
22404W        W94730   3.526  36.331   1.379
22405W        W94731  28.004  10.800  11.449
22406W        W94732   9.362  35.774  13.928
22407W        W94733  34.454  40.754   1.179
22408W        W94734  11.327   6.857   1.789
22409W        W94735  43.376  30.108   3.646
22410W        W94736   0.564  19.649   2.922
22411W        W94737  31.988  20.266  13.375
22412W        W94738  27.264  12.138   3.627
22413W        W94739   6.275   2.763   4.035
22414W        W94740  19.607  24.749  14.438
22415W        W94741  31.313  31.561   4.285
22416W        W94742   6.190   8.097  13.828
22417W        W94743  43.487  39.585   3.288
22418W        W94744  14.120  34.274   4.624
22419W        W94745  30.175  13.088  12.919
22420W        W94746  37.849  42.302   3.369
22421W        W94747  15.870  38.798   2.310
22422W        W94748  27.348  18.691   3.530
22423W        W94749   4.817  23.255  12.288
22424W        W94750  39.042  28.968   3.581
22425W        W94751   4.373  38.753  10.195
22426W        W94752  25.155  24.799   4.190
22427W        W94753  25.427  26.151  14.936
22428W        W94754  39.982  33.860  11.567
22429W        W94755  12.372  40.493  10.586
22430W        W94756   3.352  24.840   2.124
22431W        W94757  44.321  29.949  10.545
22432W        W94758  15.275  28.166  14.921
22433W        W94759  43.271  28.277   3.426
22434W        W94760  34.467  25.238   0.365
22435W        W94761  38.010  26.913   2.253
22436W        W94762  34.035  20.667  11.157
22437W        W94763  35.050  40.090  11.477
22438W        W94764  22.199  17.269  12.240
22439W        W94765  21.110  13.064  10.705
22440W        W94766   0.843   0.013   1.379
22441W        W94767  41.080  23.721   4.468
22442W        W94768   8.814  19.578  14.098
22443W        W94769  36.519  36.514   1.282
22444W        W94770  40.504  39.932   4.620
22445W        W94771  35.899  10.657  12.488
22446W        W94772  36.853  30.994  11.736
22447W        W94773  40.499  42.840  12.845
22448W        W94774  33.638  29.758  10.587
22449W        W94775  32.211  10.252   0.967
22450W        W94776  20.042  27.729   1.897
22451W        W94777  12.619   4.606   5.033
22452W        W94778  20.767  10.418  14.220
22453W        W94779  41.763  21.120   3.914
22454W        W94780  30.936  26.575  12.111
22455W        W94781  23.218   2.683   4.300
22456W        W94782  31.829  18.999  11.677
22457W        W94783  13.843  44.447  14.403
22458W        W94784  13.325  37.687  11.996
22459W        W94785  44.203   0.937   3.790
22460W        W94786   9.671  40.479   3.110
22461W        W94787  10.984  10.845  11.904
22462W        W94788  39.345   5.197   2.839
22463W        W94789  20.197  35.071   1.882
22464W        W94790  30.456  27.878  12.125
22465W        W94791  34.854  25.095   0.735
22466W        W94792   9.359  16.593   3.866
22467W        W94793  21.197  32.835   1.450
22468W        W94794   9.658  22.658  11.575
22469W        W94795  26.534  37.980   0.730
22470W        W94796  31.268  43.373  10.773
22471W        W94797  13.593  11.180   1.875
22472W        W94798  27.161  24.114   0.261
22473W        W94799  44.712   6.395  12.460
22474W        W94800  13.446  20.461   2.201
22475W        W94801  28.724  12.966   3.742
22476W        W94802  35.013  23.937  13.315
22477W        W94803  38.734  12.260   2.191
22478W        W94804  14.782  25.963   4.643
22479W        W94805   9.361  24.263  12.081
22480W        W94806  10.248  40.560  12.416
22481W        W94807   7.233   3.383   0.262
22482W        W94808   6.763  10.665   2.533
22483W        W94809  28.027  33.403   4.293
22484W        W94810  41.818  11.377  10.785
22485W        W94811  10.317  11.890   2.630
22486W        W94812  38.520  30.680  13.292
22487W        W94813  25.173  31.621  13.050
22488W        W94814   8.209   3.045   2.861
22489W        W94815  17.712  42.129   1.602
22490W        W94816  22.031  11.112  10.667
22491W        W94817  28.711   6.367  11.020
22492W        W94818  35.873  23.476   1.826
22493W        W94819  21.660  37.485  13.725
22494W        W94820  36.605  10.279  13.514
22495W        W94821   5.320  37.583   3.167
22496W        W94822  37.269  29.509  10.735
22497W        W94823  23.373  14.366  14.151
22498W        W94824  36.029  34.647   4.599
22499W        W94825  32.159  38.205  10.784
22500W        W94826  39.112  11.774  13.318
22501W        W94827  23.797   9.897   2.458
22502W        W94828   6.276  38.259  14.735
22503W        W94829  29.527   4.763   0.792
22504W        W94830  14.355  21.981  12.912
22505W        W94831   4.178  28.539   3.768
22506W        W94832  31.079   0.889  13.254
22507W        W94833  15.108  39.284   4.064
22508W        W94834  28.130   9.753  14.735
22509W        W94835  31.909   6.769   4.601
22510W        W94836  13.420  44.965   4.847
22511W        W94837   9.128  14.639  14.855
22512W        W94838  14.267  16.096  13.929
22513W        W94839  25.729   6.292  10.718
22514W        W94840  16.679   0.503  13.831
22515W        W94841  32.537  43.297  13.435
22516W        W94842  43.289  37.907  12.486
22517W        W94843  17.019   0.719  12.923
22518W        W94844  31.569   7.165   4.417
22519W        W94845  18.655  19.254   2.327
22520W        W94846  33.498  21.773   2.443
22521W        W94847  38.401  14.799  14.529
22522W        W94848   8.345  20.500   1.313
22523W        W94849   0.827   2.000   4.494
22524W        W94850  27.412  25.693  13.595
22525W        W94851  39.448   8.364  11.688
22526W        W94852  44.933  24.127   4.648
22527W        W94853  32.910  20.548   3.828
22528W        W94854  33.515  32.609   4.367
22529W        W94855  16.194  13.582  14.795
22530W        W94856  12.768  12.404  12.035
22531W        W94857  28.116  35.886   5.263
22532W        W94858   1.570  44.907  14.043
22533W        W94859  38.347  17.773   0.134
22534W        W94860   9.423   7.107  12.008
22535W        W94861  37.984  28.362  12.165
22536W        W94862   9.180  15.880   3.034
22537W        W94863  22.145   6.203   0.766
22538W        W94864  11.939  18.236  13.354
22539W        W94865   7.714  44.103   0.838
22540W        W94866  17.125  43.941   4.519
22541W        W94867  36.598  27.412   2.178
22542W        W94868  15.938  42.632   3.192
22543W        W94869  12.656  32.596  10.906
22544W        W94870  15.531   6.039   4.018
22545W        W94871  12.191   7.123  11.698
22546W        W94872  23.106  11.742  14.479
22547W        W94873  11.985  21.652  11.119
22548W        W94874  27.664   3.476  14.350
22549W        W94875  29.775  34.662   4.783
22550W        W94876  26.451  19.193   1.650
22551W        W94877  22.628  21.270  10.965
22552W        W94878  37.529  33.948   1.025
22553W        W94879  33.436  25.425   3.339
22554W        W94880  18.798  15.121   2.587
22555W        W94881  10.829  21.561   1.702
22556W        W94882  25.601  19.171   1.747
22557W        W94883  44.485  22.259  10.625
22558W        W94884  25.247  20.502  12.472
22559W        W94885  29.556  32.897  12.967
22560W        W94886  18.813  34.027  12.410
22561W        W94887   0.218  35.042   4.097
22562W        W94888  36.548   1.494  12.002
22563W        W94889  27.502  33.294  12.814
22564W        W94890  21.984   3.362   1.545
22565W        W94891  36.894  31.165   2.936
22566W        W94892  26.974  40.121   1.774
22567W        W94893  39.302  28.636  11.430
22568W        W94894  26.546  44.716   3.631
22569W        W94895  40.285  30.096   3.348
22570W        W94896  14.724  17.577  11.192
22571W        W94897  37.110  21.074  13.902
22572W        W94898  25.410  25.312  13.066
22573W        W94899  42.914  34.477  11.970
22574W        W94900  18.357  30.871  14.796
22575W        W94901  30.811  27.486  11.022
22576W        W94902  10.307   0.939   2.344
22577W        W94903   2.252  19.199   1.684
22578W        W94904   8.363  13.254   3.736
22579W        W94905   7.089  28.188   4.224
22580W        W94906  20.646  44.215  11.883
22581W        W94907  34.495  32.387   1.886
22582W        W94908  26.037  34.027  13.023
22583W        W94909   0.682  43.077   3.760
22584W        W94910  17.175   9.933  14.539
22585W        W94911  21.583  33.348  10.713
22586W        W94912   4.289  24.926   3.934
22587W        W94913   5.342  37.869   2.718
22588W        W94914  44.453  12.388  11.496
22589W        W94915  22.028  40.631   4.600
22590W        W94916  32.715   6.921  14.975
22591W        W94917  10.657  16.762  10.504
22592W        W94918  33.996  20.174   0.117
22593W        W94919  21.161  22.297  13.907
22594W        W94920  17.783  32.877   4.310
22595W        W94921  25.107  29.322   1.388
22596W        W94922  11.082  22.217   0.239
22597W        W94923   9.404  19.292   4.497
22598W        W94924   8.626  19.345   0.397
22599W        W94925  14.811   9.418  11.159
22600W        W94926  30.062  41.717   2.869
22601W        W94927  18.668   3.710   1.518
22602W        W94928  40.103   9.081  13.076
22603W        W94929  18.707  42.153   3.460
22604W        W94930   5.208  31.455  12.024
22605W        W94931   5.247  30.184  10.666
22606W        W94932  32.118  25.672  12.525
22607W        W94933  20.342  38.561   9.982
22608W        W94934  40.099   7.845   4.093
22609W        W94935  26.670  10.945   3.434
22610W        W94936  10.580  15.036  11.889
22611W        W94937  42.822  30.839   4.888
22612W        W94938   6.445   0.939  13.369
22613W        W94939  33.664  38.223  12.644
22614W        W94940  21.216  25.474   2.572
22615W        W94941  39.515  42.822  13.046
22616W        W94942  28.034   7.559  13.017
22617W        W94943  20.427   4.377  14.878
22618W        W94944   5.222  17.114  12.912
22619W        W94945  25.895  20.726   4.048
22620W        W94946  39.352  36.870  13.082
22621W        W94947   0.479  18.836   2.201
22622W        W94948  12.861  31.938   0.412
22623W        W94949  40.594   5.016  11.148
22624W        W94950   1.545  42.835  11.205
22625W        W94951  22.157  40.471   2.691
22626W        W94952   4.813  21.608   3.115
22627W        W94953  42.510  23.284  13.504
22628W        W94954   8.302  16.226   0.972
22629W        W94955  38.904  13.359  11.956
22630W        W94956  27.360   4.444  11.503
22631W        W94957  25.538   8.479   0.460
22632W        W94958  16.743  36.633   4.451
22633W        W94959  14.703  22.512  12.492
22634W        W94960   3.538   6.028   0.357
22635W        W94961  34.626  43.214   0.220
22636W        W94962  44.366  12.608  11.045
22637W        W94963  36.149  19.726  14.358
22638W        W94964   2.251  17.319   2.129
22639W        W94965  10.167  11.676  14.317
22640W        W94966   0.606  35.099  14.481
22641W        W94967  31.934   9.916  11.655
22642W        W94968  22.129  42.412  10.645
22643W        W94969  15.126  27.123  11.715
22644W        W94970   5.761  40.805  13.929
22645W        W94971  11.699   1.048  13.785
22646W        W94972  25.904  27.831   3.685
22647W        W94973  16.328  41.258  14.987
22648W        W94974  38.432  41.971   3.612
22649W        W94975  34.749  18.254  13.977
22650W        W94976  15.606  15.105  10.085
22651W        W94977  11.401  43.662   1.725
22652W        W94978  26.103  35.878  12.358
22653W        W94979   5.052  18.246   0.503
22654W        W94980  34.511  17.977  11.452
22655W        W94981  23.480  26.419   3.561
22656W        W94982  44.822  28.985   2.926
22657W        W94983  25.274  23.629  10.695
22658W        W94984  15.747  19.172   0.106
22659W        W94985  34.806  16.286   3.722
22660W        W94986  17.103  21.794   1.352
22661W        W94987  40.165  35.825   3.271
22662W        W94988  33.629   8.895  14.074
22663W        W94989  22.326  27.593  10.691
22664W        W94990   1.907   9.724  14.465
22665W        W94991  35.870   7.999  14.828
22666W        W94992  42.814  36.915   1.693
22667W        W94993  22.635  27.696  14.209
22668W        W94994  37.233  35.151   2.822
22669W        W94995  40.769  42.298   3.404
22670W        W94996  21.676  44.429   1.737
22671W        W94997  17.321  18.096  12.959
22672W        W94998  15.081  37.801   1.450
22673W        W94999  15.159  21.543   0.829
22674W        W95000   9.858  17.270   3.728
22675W        W95001  42.002   3.663  12.998
22676W        W95002  40.525  44.897  14.992
22677W        W95003  28.959   7.943   2.812
22678W        W95004  23.986   6.964  11.577
22679W        W95005  40.640  28.493  13.030
22680W        W95006   2.823  24.981   9.656
22681W        W95007  32.440   0.047  12.103
22682W        W95008  14.337  17.294   1.274
22683W        W95009  10.100  14.283  11.057
22684W        W95010  25.944  22.289   0.961
22685W        W95011  16.380  16.186   3.279
22686W        W95012  40.285   1.911   1.284
22687W        W95013  40.422   3.660  12.481
22688W        W95014  31.080   2.241   2.258
22689W        W95015  15.189   5.807   0.519
22690W        W95016   4.325  37.260  14.528
22691W        W95017  37.813   4.422   4.203
22692W        W95018  42.450   5.147   4.409
22693W        W95019  35.430  27.232  14.982
22694W        W95020  42.295  21.093   4.632
22695W        W95021   6.620  39.038   2.786
22696W        W95022   2.303  20.577   5.505
22697W        W95023  12.611  42.387   3.377
22698W        W95024  19.668  17.652  14.189
22699W        W95025  10.580  14.859  14.869
22700W        W95026  24.585  21.845  14.381
22701W        W95027   2.299  24.882   3.196
22702W        W95028   6.575  26.812  10.037
22703W        W95029  16.852   4.796  11.309
22704W        W95030   8.624  43.978   1.243
22705W        W95031  40.002  34.036   3.666
22706W        W95032  23.190  34.472  13.911
22707W        W95033  41.788  43.124   4.692
22708W        W95034   5.291  20.283  12.184
22709W        W95035  27.771  33.921   3.294
22710W        W95036  34.096  40.387   0.547
22711W        W95037   8.896   9.275  11.182
22712W        W95038   0.586  32.499   1.888
22713W        W95039  28.668  21.863   4.880
22714W        W95040  35.293   8.351   2.808
22715W        W95041   5.426  42.510  10.787
22716W        W95042  38.744  33.860   2.207
22717W        W95043  13.673  32.768  14.882
22718W        W95044  44.041  14.242   1.299
22719W        W95045  30.796   7.432   4.320
22720W        W95046  12.141  12.253  11.043
22721W        W95047  35.655  10.511  11.123
22722W        W95048  10.666  16.591  11.565
22723W        W95049  16.372  41.413  14.498
22724W        W95050  27.620  42.462  12.000
22725W        W95051  13.414  30.403   0.899
22726W        W95052  31.862  34.949   2.766
22727W        W95053  18.336   7.396  12.482
22728W        W95054   5.108  33.614  13.597
22729W        W95055  18.116   0.365  11.943
22730W        W95056  25.630  13.914   1.367
22731W        W95057  11.367  13.865   2.788
22732W        W95058  44.882  20.048   0.912
22733W        W95059  26.684  44.981  13.962
22734W        W95060   1.617  10.604   0.427
22735W        W95061   7.760  30.090  14.058
22736W        W95062  44.269  40.369   0.308
22737W        W95063  42.465  24.438   4.808
22738W        W95064   5.289  44.361  14.277
22739W        W95065  15.877   4.295   0.678
22740W        W95066  41.544   6.225   1.255
22741W        W95067  37.296  44.927  14.801
22742W        W95068  18.527  23.463   0.561
22743W        W95069  16.375  32.510   0.829
22744W        W95070  40.258  15.861   3.804
22745W        W95071  11.753  35.008   2.189
22746W        W95072  29.668  15.874  12.397
22747W        W95073  17.868  20.714  14.152
22748W        W95074   4.497   1.128   2.518
22749W        W95075  11.370  15.560  11.966
22750W        W95076  24.572   7.584  10.619
22751W        W95077  24.705  12.167   2.261
22752W        W95078   4.383  27.173   2.462
22753W        W95079   4.043  26.605   2.937
22754W        W95080  12.153  23.189  13.409
22755W        W95081  18.390   1.838  11.652
22756W        W95082   4.831  25.616  11.646
22757W        W95083   2.727  24.250  10.619
22758W        W95084  20.041  24.692   3.496
22759W        W95085  40.048  16.255   4.104
22760W        W95086  11.688   4.798   0.862
22761W        W95087  25.022   0.887   0.383
22762W        W95088   5.440  36.602   4.996
22763W        W95089   6.751  39.889   2.650
22764W        W95090   3.879  18.636   1.778
22765W        W95091  21.172  33.740   2.871
22766W        W95092  39.562  38.597   3.793
22767W        W95093  39.318  19.128   0.440
22768W        W95094  13.273   7.119   1.703
22769W        W95095  14.703  16.215  10.957
22770W        W95096   4.179   0.630   4.505
22771W        W95097  33.996   2.469  13.351
22772W        W95098  34.992  23.281   3.582
22773W        W95099  18.166  40.534  11.871
22774W        W95100  36.472   8.474   1.272
22775W        W95101  32.454  26.578   4.645
22776W        W95102   5.569  12.681  11.319
22777W        W95103  44.567   0.320   3.112
22778W        W95104  23.607  43.329  10.897
22779W        W95105  26.721  36.965   0.866
22780W        W95106  25.676  20.889  12.469
22781W        W95107  15.663  26.463   0.178
22782W        W95108  19.010  43.498  14.053
22783W        W95109  11.904  23.976   0.452
22784W        W95110  30.197   6.656  14.103
22785W        W95111  37.911  22.310   4.168
22786W        W95112  26.483  41.335   0.217
22787W        W95113  32.424  42.822  10.050
22788W        W95114  40.621  43.420  11.673
22789W        W95115  33.079  17.009  11.024
22790W        W95116  20.160   2.777   1.038
22791W        W95117  19.662   2.351   2.298
22792W        W95118  26.161  23.856   2.131
22793W        W95119  14.880  24.686   0.314
22794W        W95120  33.463   9.823   2.430
22795W        W95121  26.936  19.045  12.034
22796W        W95122   4.885  36.013  11.525
22797W        W95123  28.469  31.816  14.417
22798W        W95124  33.519  18.294   1.407
22799W        W95125  14.910  14.597   2.230
22800W        W95126  26.812  13.141   1.247
22801W        W95127   0.119   7.774   4.073
22802W        W95128  34.757  10.378   4.062
22803W        W95129  12.798  40.878   1.661
22804W        W95130  14.349  44.884  13.787
22805W        W95131   6.783   6.855  11.705
22806W        W95132  39.546   1.231   3.580
22807W        W95133  32.884  43.077   0.356
22808W        W95134  11.655  14.571  11.991
22809W        W95135  24.599  16.948   0.537
22810W        W95136  18.872   6.154   2.853
22811W        W95137  32.124   3.362  11.557
22812W        W95138  42.197  17.051   0.796
22813W        W95139  13.637  32.969   2.610
22814W        W95140   4.426  38.863   4.663
22815W        W95141  20.567  43.018   4.175
22816W        W95142  40.347   3.428   0.304
22817W        W95143  37.729  13.876   5.578
22818W        W95144  25.323  16.040   3.640
22819W        W95145   3.079  20.171   1.451
22820W        W95146  40.415  21.545   0.990
22821W        W95147  39.602  44.937   2.462
22822W        W95148  17.590  37.755   3.777
22823W        W95149  16.591  23.938  11.174
22824W        W95150  13.604  10.416  13.222
22825W        W95151  43.686  23.159   3.806
22826W        W95152  17.865  25.070  11.650
22827W        W95153  32.882   1.434   2.728
22828W        W95154  28.102  34.603   1.983
22829W        W95155  28.827   1.744   3.343
22830W        W95156  43.262  23.970  12.923
22831W        W95157   0.719  10.272  11.133
22832W        W95158  16.134  29.059   2.037
22833W        W95159   6.888   9.364   1.392
22834W        W95160   1.458   3.990   4.306
22835W        W95161  27.488  28.900   0.191
22836W        W95162  44.445  11.411  13.889
22837W        W95163  27.048   3.915   0.032
22838W        W95164   8.341  39.112   2.174
22839W        W95165   3.406  16.199   3.204
22840W        W95166  41.658  44.113   3.769
22841W        W95167  20.163  30.443   3.806
22842W        W95168  27.654  36.958  11.882
22843W        W95169  10.156  10.875   2.899
22844W        W95170   1.521  19.137  12.362
22845W        W95171   4.652  15.299   2.600
22846W        W95172   5.444  36.252   1.228
22847W        W95173   4.887  43.405  11.530
22848W        W95174  14.127  34.950  13.006
22849W        W95175  34.451  30.541  12.215
22850W        W95176  34.146  33.641   2.301
22851W        W95177  17.639   1.468   1.912
22852W        W95178   0.833   3.807   1.171
22853W        W95179  21.118  33.604  12.299
22854W        W95180  22.725  24.950   3.245
22855W        W95181  35.975  24.105   4.618
22856W        W95182  14.709  32.483   2.875
22857W        W95183   4.940  31.223  11.458
22858W        W95184  21.734  12.662  13.916
22859W        W95185  39.488  27.897  14.312
22860W        W95186  29.183  27.251   3.480
22861W        W95187  16.770  40.235   2.275
22862W        W95188  14.587  17.173   0.612
22863W        W95189  43.848  37.392  11.599
22864W        W95190  37.918  29.654  14.790
22865W        W95191  25.711  28.650  11.581
22866W        W95192  41.102  27.865   3.698
22867W        W95193  27.514  36.523   2.743
22868W        W95194   9.112  33.508   2.468
22869W        W95195  27.270  29.861  11.022
22870W        W95196  42.735  36.351   3.321
22871W        W95197  23.988  36.617   0.378
22872W        W95198  39.107  42.614   2.941
22873W        W95199  15.840  13.259   2.862
22874W        W95200   0.432  18.761  13.518
22875W        W95201  14.310  30.899   3.826
22876W        W95202  18.072  29.356   2.854
22877W        W95203  33.624  23.117   3.776
22878W        W95204  31.894  43.764   1.764
22879W        W95205  28.687  33.791  11.268
22880W        W95206  18.108   3.380   4.515
22881W        W95207   0.272  34.008  12.409
22882W        W95208   9.244  19.793  11.621
22883W        W95209  30.033   2.109   0.123
22884W        W95210   4.001  11.735   2.506
22885W        W95211   5.321  39.859  14.938
22886W        W95212  22.633  42.399  14.367
22887W        W95213  22.500  42.671  10.118
22888W        W95214  27.610  24.783  14.020
22889W        W95215  36.438  36.420   3.298
22890W        W95216   0.420  13.327  12.671
22891W        W95217  18.818  14.457  13.979
22892W        W95218  13.144   1.399   4.654
22893W        W95219  37.939   1.033   2.257
22894W        W95220  28.714  10.331   1.929
22895W        W95221  43.884   8.514  12.209
22896W        W95222  40.529   4.886   3.183
22897W        W95223  32.614   4.149  11.144
22898W        W95224  21.749   9.651   2.658
22899W        W95225  24.305  43.405   3.326
22900W        W95226  26.161  31.802   4.093
22901W        W95227  16.027  23.534  14.781
22902W        W95228  33.771   4.614  11.141
22903W        W95229   4.196   3.678  14.024
22904W        W95230  38.817   0.897  12.061
22905W        W95231  37.251  38.862  13.243
22906W        W95232  42.046  32.996  11.123
22907W        W95233   5.800  40.356  10.333
22908W        W95234  44.855  16.790  12.954
22909W        W95235  35.438  36.102   5.419
22910W        W95236  30.026  32.235  12.695
22911W        W95237   3.404   7.451   3.321
22912W        W95238  19.710  17.082   2.336
22913W        W95239  17.103  36.166  11.648
22914W        W95240  13.917  31.398  12.550
22915W        W95241  24.915   1.537  14.036
22916W        W95242  16.605   3.005   3.718
22917W        W95243   6.143  25.567  13.568
22918W        W95244  30.692  37.073   1.227
22919W        W95245  43.248   4.360   2.136
22920W        W95246  19.157  20.557  14.488
22921W        W95247  24.289  42.580   4.809
22922W        W95248  16.220  34.597   4.638
22923W        W95249  12.254  13.188   3.734
22924W        W95250  10.728  27.380  11.566
22925W        W95251  43.714  24.710   2.451
22926W        W95252   9.192  30.607   3.914
22927W        W95253   1.345  20.906  13.668
22928W        W95254   9.447  17.847   2.232
22929W        W95255  22.351  16.352  11.194
22930W        W95256  26.842  18.375  10.059
22931W        W95257  34.463   9.858  11.808
22932W        W95258  13.255  38.296   3.199
22933W        W95259   2.329  32.970  10.443
22934W        W95260  14.348  37.293  13.581
22935W        W95261  16.611  27.816  10.558
22936W        W95262  23.497   1.930  11.853
22937W        W95263  37.944   1.723  14.269
22938W        W95264  35.975   8.632   4.045
22939W        W95265  12.045  38.873   4.704
22940W        W95266  36.368  12.306  11.979
22941W        W95267  42.352  34.939  10.746
22942W        W95268  36.362   7.327   3.318
22943W        W95269  42.809   2.903   4.652
22944W        W95270  24.481   0.531   3.585
22945W        W95271  20.184  21.651   0.077
22946W        W95272  14.695  19.306   3.697
22947W        W95273  34.959   0.495  14.841
22948W        W95274  39.035  34.654  11.113
22949W        W95275  32.890   1.865   1.979
22950W        W95276  23.575  10.266   1.407
22951W        W95277  40.551  14.041  12.037
22952W        W95278  17.682  30.605   3.219
22953W        W95279  20.724  33.659  13.154
22954W        W95280  38.638   4.848  12.507
22955W        W95281  15.300  26.958   2.052
22956W        W95282  28.390  21.764  12.644
22957W        W95283  34.568  15.498   4.102
22958W        W95284  21.643  27.138  12.989
22959W        W95285   1.709  41.453  11.179
22960W        W95286  15.280  24.170  11.997
22961W        W95287  37.051   6.269   1.045
22962W        W95288  26.697  10.859   0.357
22963W        W95289   9.372   2.492   0.336
22964W        W95290  14.246  14.318   0.508
22965W        W95291  40.826   3.942   4.238
22966W        W95292   4.684  10.237  10.437
22967W        W95293  19.499  17.881   1.945
22968W        W95294  30.103   1.499   2.265
22969W        W95295   2.754  34.979   1.307
22970W        W95296   4.590   0.827  12.083
22971W        W95297  20.659   3.877  14.713
22972W        W95298  10.635  16.627  12.851
22973W        W95299  14.281  44.841  11.770
22974W        W95300  17.997   0.329   3.831
22975W        W95301  39.056  21.693  14.309
22976W        W95302  24.562  11.388   2.706
22977W        W95303  12.180   4.795   4.512
22978W        W95304   9.798  22.302   0.954
22979W        W95305   7.274  28.858  11.371
22980W        W95306  27.810  23.076  12.084
22981W        W95307  15.594  38.588  12.886
22982W        W95308  27.511  28.395   3.713
22983W        W95309  32.359  38.282  11.238
22984W        W95310   8.187  38.439   1.417
22985W        W95311  24.475  39.297  10.837
22986W        W95312  44.735  38.399  11.445
22987W        W95313  10.522  35.985   3.034
22988W        W95314  31.623  31.405  14.307
22989W        W95315  35.597   6.918   4.696
22990W        W95316  19.030  25.558   2.156
22991W        W95317   8.169  38.376   4.758
22992W        W95318   3.690  42.035  12.497
22993W        W95319  39.299  41.183  11.645
22994W        W95320  41.491  40.965   3.601
22995W        W95321  12.594   0.324  10.769
22996W        W95322  43.487  31.423   2.851
22997W        W95323   9.971  30.375   5.101
22998W        W95324  40.055   8.125   2.282
22999W        W95325  18.890  26.034  14.799
23000W        W95326  12.555   4.227   2.470
23001W        W95327  26.043   0.749   2.155
23002W        W95328  11.355  13.912  13.281
23003W        W95329  29.470  35.993   4.282
23004W        W95330  37.353  33.731   1.918
23005W        W95331  22.056  17.051  10.629
23006W        W95332  44.912  28.442  13.917
23007W        W95333  43.431  39.949  11.803
23008W        W95334   0.032   1.817   0.195
23009W        W95335  15.299  30.108   3.720
23010W        W95336  17.573  26.312  10.183
23011W        W95337  36.719   6.200   5.078
23012W        W95338  22.653  27.767  10.254
23013W        W95339  29.710  17.638  13.284
23014W        W95340  21.286  44.519  11.178
23015W        W95341  22.518  35.459   0.882
23016W        W95342  37.054   1.493  12.002
23017W        W95343  15.868  13.266   1.306
23018W        W95344  38.490  44.931   1.972
23019W        W95345  28.558  23.689  12.440
23020W        W95346  25.521   9.763  14.388
23021W        W95347  32.757  23.101   4.420
23022W        W95348   4.442  22.816   1.176
23023W        W95349  38.512  15.039  11.937
23024W        W95350  33.947  42.256   0.994
23025W        W95351  15.810  25.494   3.825
23026W        W95352  32.454   5.910   3.692
23027W        W95353  12.621  33.033  12.418
23028W        W95354  16.509   8.160   1.398
23029W        W95355  27.921   1.557   4.151
23030W        W95356   1.768  15.253   3.174
23031W        W95357  25.743  16.464  14.345
23032W        W95358  25.455  43.089   2.385
23033W        W95359  35.948  39.568   3.770
23034W        W95360   4.645  29.362  13.940
23035W        W95361  23.105  27.211   3.261
23036W        W95362  24.932  28.423   1.145
23037W        W95363  41.394   4.467  14.029
23038W        W95364  36.536  31.927  14.636
23039W        W95365  18.684  36.612  11.056
23040W        W95366  42.773  43.408  12.606
23041W        W95367  38.362  32.860   3.263
23042W        W95368  13.942   3.003   2.391
23043W        W95369  20.792  39.297  10.202
23044W        W95370   6.259  33.060   4.096
23045W        W95371   6.991  23.674   4.511
23046W        W95372   6.610  15.142  13.315
23047W        W95373  10.327  23.784   4.792
23048W        W95374  35.097  40.456   4.589
23049W        W95375   8.645  22.043  14.802
23050W        W95376   4.312   5.147  12.193
23051W        W95377   5.245  31.126  12.429
23052W        W95378  22.515  15.612  13.314
23053W        W95379  24.948  22.766  11.064
23054W        W95380   7.848  42.512  13.218
23055W        W95381   2.148   4.339   0.282
23056W        W95382  33.799   6.806  12.503
23057W        W95383  19.624  24.582  12.491
23058W        W95384  10.834  16.284  10.604
23059W        W95385   9.403  11.178  12.537
23060W        W95386  41.977  20.087  12.825
23061W        W95387   7.204  25.365  13.528
23062W        W95388  29.102  28.688   1.757
23063W        W95389  11.818  12.904   1.334
23064W        W95390  35.156   1.794  10.655
23065W        W95391  39.988  24.955  11.168
23066W        W95392   8.852  25.747   2.597
23067W        W95393   3.759  42.823   2.504
23068W        W95394   5.593  10.038   0.907
23069W        W95395  23.022  11.026   0.927
23070W        W95396   4.690   3.764  13.874
23071W        W95397  29.362  32.720  14.202
23072W        W95398  38.562  40.146   0.207
23073W        W95399   5.954  30.480  13.375
23074W        W95400  35.506  34.607  14.436
23075W        W95401  40.974  31.116   4.570
23076W        W95402  14.098  29.461  11.058
23077W        W95403  28.586  20.794   2.537
23078W        W95404  14.080   7.622  13.953
23079W        W95405  28.126  40.496   4.875
23080W        W95406  12.299   2.917  13.758
23081W        W95407  40.345  35.594  11.535
23082W        W95408  23.483   6.390   0.793
23083W        W95409  11.662  35.405  13.645
23084W        W95410  43.320  30.258   1.612
23085W        W95411  18.791  28.622  11.618
23086W        W95412  43.061  19.614   0.468
23087W        W95413   0.345  14.186   3.530
23088W        W95414  32.031  24.657   0.988
23089W        W95415   7.125  25.669   1.438
23090W        W95416  38.927  11.515  11.869
23091W        W95417  15.343  31.964   5.170
23092W        W95418  31.112  41.799   3.773
23093W        W95419   5.464   7.115   0.987
23094W        W95420   2.773  42.812   4.629
23095W        W95421  13.794  30.419  12.599
23096W        W95422   5.621  27.708   4.130
23097W        W95423   2.971  28.992   1.084
23098W        W95424  40.251  25.674  13.931
23099W        W95425  35.886  15.263  11.186
23100W        W95426  18.464   8.730   2.628
23101W        W95427  38.382  40.739  13.082
23102W        W95428  31.868  19.484  12.859
23103W        W95429  12.830  37.899   2.841
23104W        W95430  44.957  31.953   2.682
23105W        W95431   6.689  10.167  10.902
23106W        W95432  15.228   3.056  12.145
23107W        W95433  33.483  27.181  12.571
23108W        W95434  21.237   8.731  13.243
23109W        W95435  38.658   7.146   1.713
23110W        W95436  17.323   9.044   5.136
23111W        W95437  21.276  28.415   3.937
23112W        W95438  42.358  26.917   2.149
23113W        W95439   8.673  26.228   3.736
23114W        W95440  16.662  24.311  13.593
23115W        W95441  18.807  29.927  12.013
23116W        W95442  39.711   7.531   2.957
23117W        W95443  19.810   1.982   3.550
23118W        W95444  29.138  10.386   1.612
23119W        W95445   6.437   7.591   2.224
23120W        W95446   9.754  25.222  14.442
23121W        W95447   9.784   9.032  13.387
23122W        W95448  32.059   2.412  14.013
23123W        W95449  10.683  20.943  13.797
23124W        W95450  17.943  20.184  14.290
23125W        W95451   1.338  23.108   5.249
23126W        W95452  17.423  18.031   1.813
23127W        W95453  35.258  15.943   2.851
23128W        W95454  43.253  31.569   4.068
23129W        W95455  32.509  30.311   4.218
23130W        W95456  11.080  15.749  10.656
23131W        W95457  44.145  18.150  10.443
23132W        W95458  24.524  39.279   5.314
23133W        W95459  44.930  19.747  10.673
23134W        W95460  23.707  26.448  12.918
23135W        W95461   3.676   5.735   1.952
23136W        W95462  42.825  20.626   0.672
23137W        W95463  35.501  21.186   9.880
23138W        W95464  25.139   7.255   2.730
23139W        W95465  18.693  13.098  13.129
23140W        W95466  19.728   5.525  14.422
23141W        W95467  15.498  36.498  11.860
23142W        W95468  18.196  35.609  13.444
23143W        W95469  20.803  23.051  11.043
23144W        W95470  32.062  28.235  13.796
23145W        W95471   9.823  10.881  13.789
23146W        W95472  41.927  31.337  13.405
23147W        W95473  33.484  31.830   1.828
23148W        W95474   0.988  43.029   0.429
23149W        W95475  27.519   2.998   0.866
23150W        W95476  28.219  31.034   3.715
23151W        W95477   7.314  37.572  10.979
23152W        W95478  34.107  44.022  11.577
23153W        W95479  29.253  11.658   4.629
23154W        W95480   9.061   3.649   4.127
23155W        W95481  12.345  21.670   3.373
23156W        W95482  10.729  15.798   3.722
23157W        W95483   8.447  32.877  11.133
23158W        W95484  30.043  24.171   4.522
23159W        W95485  30.007   8.863  14.993
23160W        W95486  39.529  27.552   4.353
23161W        W95487  11.715  12.093  13.064
23162W        W95488  44.048   9.763   4.094
23163W        W95489  19.669   4.453  10.170
23164W        W95490  30.756  27.985   0.806
23165W        W95491  12.786  21.016   1.923
23166W        W95492  18.277  28.062   2.345
23167W        W95493   9.763  31.961  11.953
23168W        W95494  28.648  32.740  11.465
23169W        W95495  37.976  16.971   0.522
23170W        W95496  12.516   8.422  14.821
23171W        W95497  38.393  39.935   3.258
23172W        W95498  31.043  26.722  11.637
23173W        W95499  16.259  14.562   0.741
23174W        W95500   2.667   7.364  13.969
23175W        W95501  23.631  39.482  10.405
23176W        W95502  25.883  15.701  11.360
23177W        W95503  33.013  31.909  13.376
23178W        W95504  44.948  11.373  14.015
23179W        W95505  40.470  26.914   2.184
23180W        W95506  37.026  17.625  12.007
23181W        W95507  27.474  20.903  11.186
23182W        W95508  15.835   3.556   2.665
23183W        W95509  34.608   8.680   4.541
23184W        W95510   4.774  29.884   3.527
23185W        W95511  32.623  30.270  11.160
23186W        W95512  18.196  32.140  11.716
23187W        W95513  19.943  14.196  11.094
23188W        W95514  44.809  28.097   4.668
23189W        W95515   5.265  43.051   2.672
23190W        W95516  32.187   3.827  13.920
23191W        W95517  35.596  15.891   2.457
23192W        W95518  35.100  32.435  13.097
23193W        W95519  39.985  14.885  10.975
23194W        W95520  23.443  30.243   1.106
23195W        W95521  35.359  17.594  14.992
23196W        W95522  29.164  30.347   4.486
23197W        W95523  38.934  31.489   4.588
23198W        W95524  41.760   3.256  11.850
23199W        W95525  15.732   4.442   1.150
23200W        W95526  11.326  13.084   1.479
23201W        W95527  29.105   1.216   1.955
23202W        W95528  11.834  15.399  13.299
23203W        W95529  21.648  41.324   1.799
23204W        W95530  32.926  27.931  11.714
23205W        W95531  13.538  33.534   3.738
23206W        W95532  38.009  16.315   4.371
23207W        W95533  15.610  33.621  14.513
23208W        W95534  23.797  43.887  13.667
23209W        W95535  32.862  17.705  10.672
23210W        W95536  25.985  11.968   1.230
23211W        W95537  38.958  12.668  13.791
23212W        W95538  18.322  42.986   0.262
23213W        W95539   5.752  17.303   3.364
23214W        W95540  23.053  39.263   1.819
23215W        W95541  37.605  30.395   0.809
23216W        W95542   4.330  15.009   1.199
23217W        W95543  15.896  12.325   1.377
23218W        W95544  23.819  41.757   4.150
23219W        W95545  12.671   0.715  14.226
23220W        W95546   3.447  14.028  13.483
23221W        W95547  25.513  25.102  14.790
23222W        W95548  33.521  44.768  10.572
23223W        W95549  17.778   9.135  12.632
23224W        W95550  19.051  44.465   3.788
23225W        W95551  30.095  34.150   0.298
23226W        W95552  40.036  11.543  10.609
23227W        W95553  23.008  32.356  12.081
23228W        W95554  28.961  28.622  11.050
23229W        W95555  11.106  13.710  13.703
23230W        W95556  39.595  18.624  12.941
23231W        W95557  34.011   2.975  13.333
23232W        W95558   7.238   0.844  11.572
23233W        W95559  29.870  24.210  12.002
23234W        W95560  11.249   3.219  12.489
23235W        W95561  40.047   2.307  12.871
23236W        W95562   2.861  28.140   4.702
23237W        W95563   2.806  11.327   4.162
23238W        W95564  39.689  32.951  11.489
23239W        W95565  12.808  30.570   2.881
23240W        W95566  20.728  24.722  12.480
23241W        W95567  44.500  26.672   1.358
23242W        W95568  13.813   6.371  13.814
23243W        W95569  35.962  14.773   4.526
23244W        W95570  25.266  14.277  13.843
23245W        W95571  27.908  43.611  11.168
23246W        W95572  15.286   3.216   0.305
23247W        W95573  20.127  30.421   4.665
23248W        W95574   2.713  41.296  13.115
23249W        W95575  12.410  44.446   1.335
23250W        W95576   8.718  28.761  11.312
23251W        W95577   4.386  28.070  13.494
23252W        W95578  32.368  14.126  11.919
23253W        W95579  25.272  18.145  13.422
23254W        W95580   7.191  21.314  12.916
23255W        W95581   9.518   8.137  12.035
23256W        W95582  35.022  24.653   1.016
23257W        W95583  43.917   3.272   1.890
23258W        W95584  29.079  43.498  13.390
23259W        W95585   1.012   4.399  12.149
23260W        W95586   1.365   7.147  14.943
23261W        W95587  35.435  16.223   4.133
23262W        W95588  13.852  40.898  12.785
23263W        W95589  37.857  17.362  11.526
23264W        W95590   6.686  20.243  12.622
23265W        W95591  12.523   9.462   3.351
23266W        W95592  32.125  17.024   3.786
23267W        W95593   5.176  19.486  11.189
23268W        W95594  27.697  28.745  14.289
23269W        W95595  20.545  10.712   2.181
23270W        W95596   8.734  23.308   4.180
23271W        W95597  13.208  13.724  14.961
23272W        W95598   7.218  16.837  12.143
23273W        W95599  17.139  12.322   4.360
23274W        W95600  18.701  43.040  14.919
23275W        W95601  35.124  26.014   0.044
23276W        W95602  29.374  17.903  11.415
23277W        W95603  31.456  20.038   4.185
23278W        W95604  43.562  18.012   4.018
23279W        W95605  37.636   4.863  12.478
23280W        W95606  15.603  23.130   3.352
23281W        W95607  28.175  15.035  13.365
23282W        W95608  18.287  32.970   3.568
23283W        W95609  14.010  44.050  14.718
23284W        W95610  31.620  24.513  13.204
23285W        W95611  28.026   5.333  14.881
23286W        W95612  39.622   4.888  12.368
23287W        W95613  40.368   0.986  13.945
23288W        W95614   7.290   8.333  11.619
23289W        W95615  24.013  21.606  14.767
23290W        W95616   7.957  14.267  11.965
23291W        W95617  34.038   5.933   2.903
23292W        W95618   6.680  17.954  10.999
23293W        W95619  11.732  38.117   2.626
23294W        W95620   0.240   3.363  11.912
23295W        W95621  13.367  25.970   3.396
23296W        W95622  41.382  21.047  14.018
23297W        W95623  35.989  33.965  13.793
23298W        W95624  20.704  22.705   3.201
23299W        W95625  20.251  26.551   0.548
23300W        W95626  26.091   4.321   3.833
23301W        W95627  15.575   9.491   2.778
23302W        W95628  32.917   0.452   0.687
23303W        W95629  19.926  34.534   3.225
23304W        W95630  37.501   9.582  13.548
23305W        W95631  13.876  40.537  12.387
23306W        W95632  33.061  11.246  13.244
23307W        W95633  25.810   4.900   3.342
23308W        W95634  17.020  12.163   9.828
23309W        W95635  25.147   4.734  10.585
23310W        W95636  12.770  22.523   4.918
23311W        W95637  12.221   7.406   3.617
23312W        W95638  26.673   4.769   1.442
23313W        W95639  29.126  28.580  11.577
23314W        W95640  37.565   2.268   1.318
23315W        W95641  24.743  29.929   1.756
23316W        W95642  42.740  16.628   0.868
23317W        W95643  22.077  41.358  13.779
23318W        W95644   0.760  24.554   3.225
23319W        W95645  40.480  24.040   5.293
23320W        W95646   9.700  24.649   1.330
23321W        W95647  21.092  10.505   3.608
23322W        W95648  36.480  29.170  10.444
23323W        W95649  20.206  24.973   3.882
23324W        W95650  41.194   6.667   4.142
23325W        W95651  24.653  32.641  10.755
23326W        W95652  42.982   5.729   0.091
23327W        W95653   6.252  43.984  14.897
23328W        W95654   3.975   7.612   3.370
23329W        W95655  33.878  43.710   1.810
23330W        W95656  31.836  28.996   4.114
23331W        W95657  42.862  23.791  10.596
23332W        W95658  30.513  44.397  11.391
23333W        W95659  22.722  25.102  12.689
23334W        W95660  26.083   0.564  14.858
23335W        W95661  37.382  22.652   4.968
23336W        W95662  10.136  39.020   0.745
23337W        W95663  43.346  31.446  13.416
23338W        W95664  34.332   6.300  11.952
23339W        W95665  42.493   7.841   3.301
23340W        W95666   2.439  33.969  10.368
23341W        W95667  16.653  40.017   0.423
23342W        W95668   2.418   4.306   2.653
23343W        W95669  23.137   4.874   1.259
23344W        W95670  31.417  10.326   4.816
23345W        W95671  26.761   2.802   2.413
23346W        W95672  13.377  12.124  13.202
23347W        W95673  14.859  13.894   0.490
23348W        W95674  19.038  20.561  11.395
23349W        W95675  24.815  40.868   2.115
23350W        W95676  27.466  19.967   4.032
23351W        W95677  37.196  25.876   1.474
23352W        W95678   1.867   5.326   2.423
23353W        W95679  33.993   8.109  13.968
23354W        W95680   5.232  40.860  14.949
23355W        W95681   5.703  31.424  12.990
23356W        W95682  26.524  37.585  13.949
23357W        W95683  24.041  27.411  13.409
23358W        W95684  27.598  36.285  14.388
23359W        W95685  17.822   4.805  10.923
23360W        W95686   4.191  23.144   4.890
23361W        W95687  15.709  11.711  13.645
23362W        W95688  33.463   7.722  11.513
23363W        W95689  15.791  34.970  13.912
23364W        W95690  32.588  16.309   1.785
23365W        W95691  24.469  25.168   4.734
23366W        W95692  23.275  29.024   0.996
23367W        W95693  35.999  23.362  13.390
23368W        W95694  16.526   1.260   3.104
23369W        W95695  35.465  36.885   1.286
23370W        W95696  32.060   9.681   0.237
23371W        W95697  16.880  18.740  13.369
23372W        W95698  40.554  23.392  11.991
23373W        W95699  28.465  37.487   3.701
23374W        W95700   1.025  42.274  10.969
23375W        W95701  17.287  12.266  12.616
23376W        W95702  41.289  41.123   0.165
23377W        W95703  10.519  26.150  11.947
23378W        W95704   9.870  29.580  10.754
23379W        W95705  35.836  44.835  13.462
23380W        W95706   3.640  21.567   1.385
23381W        W95707  24.103  31.115  10.987
23382W        W95708   9.586  21.957   3.296
23383W        W95709  26.637  35.267  11.602
23384W        W95710  20.132  22.370   1.413
23385W        W95711  31.768  40.590  14.201
23386W        W95712  44.719  13.719  13.041
23387W        W95713   4.821  28.554   3.213
23388W        W95714  10.656   5.444   3.634
23389W        W95715  11.988  15.884  13.121
23390W        W95716  10.138  20.175  11.629
23391W        W95717  11.401  25.610  11.566
23392W        W95718  27.674   2.274   1.811
23393W        W95719  14.285  21.645  14.715
23394W        W95720  32.873  21.858   4.193
23395W        W95721  38.379  22.100   2.323
23396W        W95722  36.065  35.130  11.891
23397W        W95723   6.703  10.379  14.371
23398W        W95724  33.404  26.160  12.472
23399W        W95725  23.559  40.177  11.596
23400W        W95726  28.335  38.820  11.378
23401W        W95727  39.694  32.946   3.263
23402W        W95728  30.186  39.307  10.570
23403W        W95729  16.329  30.118  12.928
23404W        W95730  10.636  21.668  11.613
23405W        W95731  23.916  34.293   3.889
23406W        W95732  28.587  29.965   0.972
23407W        W95733  40.951  10.560  13.042
23408W        W95734  24.528  30.417  14.038
23409W        W95735   4.796   9.159   0.007
23410W        W95736   4.220  34.843  14.516
23411W        W95737  34.355  28.583   3.621
23412W        W95738   3.807  18.220  12.232
23413W        W95739   2.721  15.755   3.696
23414W        W95740   4.949  44.413   1.702
23415W        W95741  44.820  30.911   1.711
23416W        W95742  14.298   0.252  12.526
23417W        W95743  41.011  13.431  13.036
23418W        W95744   3.676  29.156   4.115
23419W        W95745  42.777   3.807   3.323
23420W        W95746  22.603  15.891   0.521
23421W        W95747   5.676  21.044  13.011
23422W        W95748  20.211  35.934   1.635
23423W        W95749  14.124  38.341   2.784
23424W        W95750  12.169  24.928   0.356
23425W        W95751  40.021   3.459   4.038
23426W        W95752  28.082  16.543  12.946
23427W        W95753  36.665  21.676   0.959
23428W        W95754  34.539   1.252   0.885
23429W        W95755  23.560  10.927  11.376
23430W        W95756  28.948  29.638   0.374
23431W        W95757  37.632  23.949   3.546
23432W        W95758  13.325  33.181  11.554
23433W        W95759  34.126  18.638   2.589
23434W        W95760  25.570   4.436   1.306
23435W        W95761  24.398  15.219  10.235
23436W        W95762  31.406  33.080  13.121
23437W        W95763  28.715  33.886   0.368
23438W        W95764  25.884  21.247  13.409
23439W        W95765  13.724  16.144   2.602
23440W        W95766  38.727  13.408   1.881
23441W        W95767  22.787   0.870   2.022
23442W        W95768  23.996  24.821  11.052
23443W        W95769  16.170  36.606   3.294
23444W        W95770  36.350  32.535  12.393
23445W        W95771  17.304  14.350  11.173
23446W        W95772  28.899  17.227  11.542
23447W        W95773   1.966  22.121  13.988
23448W        W95774  41.901  22.484   4.123
23449W        W95775  36.396  31.159   2.749
23450W        W95776  35.134   6.167   4.951
23451W        W95777   8.188  29.352  13.861
23452W        W95778  36.543  12.766   1.814
23453W        W95779   8.854  35.485   2.136
23454W        W95780  12.067  18.887   1.162
23455W        W95781  18.712  28.155  13.948
23456W        W95782  43.377   9.009   3.665
23457W        W95783  14.268  24.067   3.214
23458W        W95784  20.459   5.373  11.610
23459W        W95785  44.367  33.871   3.644
23460W        W95786  36.347  44.403   1.585
23461W        W95787  43.332  33.093  14.809
23462W        W95788   3.758   8.475   2.218
23463W        W95789  30.170  26.585   1.751
23464W        W95790  27.657  39.584  14.068
23465W        W95791  25.422  16.835   4.532
23466W        W95792  20.812  35.451  13.972
23467W        W95793  25.703  15.346   1.253
23468W        W95794  23.862  32.044   4.018
23469W        W95795  31.530  30.635   2.033
23470W        W95796  40.882   4.182   0.925
23471W        W95797  24.577  36.113   1.420
23472W        W95798  17.923  44.172  14.893
23473W        W95799   1.538   3.289  10.669
23474W        W95800  43.480  41.888   3.085
23475W        W95801  36.009   5.936  11.702
23476W        W95802  16.345   5.328   4.322
23477W        W95803  28.983  22.228  14.092
23478W        W95804  30.141  13.416  14.292
23479W        W95805  31.450  33.344  10.655
23480W        W95806  44.836   0.742   3.168
23481W        W95807   0.175   8.867   2.914
23482W        W95808   8.662  41.896   2.249
23483W        W95809  35.769  17.816  13.934
23484W        W95810  28.576   7.114   3.918
23485W        W95811  31.125  35.840   2.784
23486W        W95812  22.674  36.906  14.986
23487W        W95813   1.797  12.212   2.856
23488W        W95814   0.864  41.793  12.463
23489W        W95815  27.224   2.628   3.847
23490W        W95816  10.635  43.413   0.558
23491W        W95817  15.080  29.149   3.414
23492W        W95818  38.715  17.774   0.622
23493W        W95819  19.711  28.393   2.803
23494W        W95820  18.614  16.899  14.832
23495W        W95821  22.789  30.498  12.140
23496W        W95822   2.753   9.467  13.807
23497W        W95823  22.284  35.264  10.453
23498W        W95824  31.331  20.590   2.676
23499W        W95825   8.321  34.529   4.569
23500W        W95826  16.605  19.558   4.348
23501W        W95827   7.816  21.728   0.189
23502W        W95828   2.375  22.524   3.641
23503W        W95829  18.755  31.549  11.410
23504W        W95830  13.408  44.860  14.917
23505W        W95831  22.754  40.876  11.842
23506W        W95832  22.547  28.047   2.290
23507W        W95833  39.757   9.806   0.281
23508W        W95834  13.132   5.152  11.427
23509W        W95835  27.111   6.452  14.788
23510W        W95836  40.496  24.537   3.020
23511W        W95837  22.547  39.099   1.713
23512W        W95838  12.855  28.179  11.938
23513W        W95839  43.302  28.971  13.822
23514W        W95840  35.049  10.941   2.311
23515W        W95841   9.376  24.038  10.709
23516W        W95842  44.415  23.070   4.543
23517W        W95843  41.235  12.722  12.469
23518W        W95844  22.209   1.733  14.478
23519W        W95845  13.219  14.711  10.499
23520W        W95846  14.266  25.291   2.925
23521W        W95847  25.590  43.010   1.394
23522W        W95848   7.639  44.643  14.915
23523W        W95849   8.274  42.526  13.866
23524W        W95850  39.022  38.426   3.937
23525W        W95851  16.057  38.337  12.908
23526W        W95852  12.817  26.318  12.960
23527W        W95853  23.102  23.626  13.898
23528W        W95854  42.589  29.087   4.722
23529W        W95855   0.191  37.354   0.413
23530W        W95856  43.416  29.357   0.064
23531W        W95857  23.014  17.717   2.777
23532W        W95858  29.924  20.616  14.014
23533W        W95859  33.564  28.447  12.009
23534W        W95860  31.392   0.405  12.538
23535W        W95861  16.044  14.336  14.902
23536W        W95862  42.266  36.637  14.574
23537W        W95863  33.453  27.117   0.734
23538W        W95864  36.605   6.038  14.558
23539W        W95865  40.785  26.485  13.330
23540W        W95866  42.158  39.737  14.395
23541W        W95867  14.815  36.125  13.799
23542W        W95868   4.125  20.222  11.498
23543W        W95869  35.015  43.290  10.652
23544W        W95870  12.786  33.701  13.494
23545W        W95871  15.727   7.253   0.374
23546W        W95872  14.160  15.341   1.874
23547W        W95873   7.169  31.110  13.082
23548W        W95874  21.123   3.401  12.032
23549W        W95875  44.882  40.838  11.158
23550W        W95876  27.835  41.982  10.082
23551W        W95877  29.940  16.422   0.895
23552W        W95878  18.199  29.459  14.025
23553W        W95879   5.425   9.176  12.687
23554W        W95880   1.163  27.107   1.336
23555W        W95881   9.190   0.020  12.779
23556W        W95882  30.124  14.265  14.534
23557W        W95883  11.616  19.596   0.580
23558W        W95884  39.436  26.177   1.938
23559W        W95885  40.517   1.886  11.720
23560W        W95886  22.995  34.281  14.367
23561W        W95887  42.802  12.112   2.723
23562W        W95888  38.941   8.265   1.387
23563W        W95889   7.476  16.531   0.992
23564W        W95890  15.002  36.782   5.024
23565W        W95891  19.814  20.082   1.076
23566W        W95892  16.708  28.167  10.927
23567W        W95893  10.309  17.574   3.749
23568W        W95894  31.457  39.579  11.060
23569W        W95895  44.647  35.489   4.286
23570W        W95896  31.407  11.635  10.595
23571W        W95897  15.182  23.752  13.937
23572W        W95898  44.709   0.996   3.589
23573W        W95899   5.529   2.103  11.108
23574W        W95900   8.827  36.087   3.230
23575W        W95901  44.852  34.155   4.322
23576W        W95902   3.477  19.722  11.053
23577W        W95903  36.018  44.800   2.167
23578W        W95904   5.238  32.139   4.644
23579W        W95905  22.859  25.711   0.277
23580W        W95906  38.652  20.707   2.983
23581W        W95907  10.146  18.620  12.554
23582W        W95908  23.413  16.079   1.220
23583W        W95909   9.268  30.995   0.415
23584W        W95910  44.491  25.728   9.943
23585W        W95911  26.373  15.730  10.940
23586W        W95912  28.714   0.358   1.618
23587W        W95913  38.797   8.434  13.829
23588W        W95914  11.814   0.009  13.939
23589W        W95915  22.002  30.976  12.913
23590W        W95916  43.547  17.669   3.640
23591W        W95917  29.914   5.793   4.757
23592W        W95918  30.954   3.263  13.339
23593W        W95919  38.923  40.298  14.841
23594W        W95920  18.544   8.197   1.271
23595W        W95921  18.613  32.473   0.862
23596W        W95922  21.047  33.077   4.868
23597W        W95923  15.814  27.267  12.894
23598W        W95924  38.004  44.331  11.487
23599W        W95925  15.214  43.412   4.803
23600W        W95926  23.236  20.690  14.346
23601W        W95927  38.351   5.302   4.066
23602W        W95928  15.126  44.112   0.252
23603W        W95929   5.837  43.061   4.060
23604W        W95930  13.340  29.029  13.973
23605W        W95931  15.225  37.290  14.842
23606W        W95932  36.678   5.806   0.420
23607W        W95933  36.080  36.093   4.199
23608W        W95934  39.414   7.911   1.762
23609W        W95935  21.787   3.806  13.889
23610W        W95936  29.056  18.665   2.710
23611W        W95937  22.972  10.772   2.295
23612W        W95938   3.428  14.618   3.326
23613W        W95939  21.615  12.524   2.743
23614W        W95940  22.065  42.182   0.289
23615W        W95941  19.951  38.502   2.862
23616W        W95942  43.911  32.912   4.563
23617W        W95943  20.830  31.350   1.623
23618W        W95944  29.691   7.773   3.780
23619W        W95945  27.950  21.229   3.683
23620W        W95946  44.624   8.900  12.527
23621W        W95947   1.609  44.214  10.369
23622W        W95948  13.505  42.951   4.796
23623W        W95949   4.501  25.707   3.282
23624W        W95950  30.246  24.986   4.203
23625W        W95951  14.049  29.383  13.917
23626W        W95952  38.565  24.924  10.557
23627W        W95953   5.312  14.124  13.349
23628W        W95954   5.361  22.744   3.650
23629W        W95955   8.620  21.164   3.591
23630W        W95956  21.951  10.329  13.780
23631W        W95957   5.716  28.504   0.532
23632W        W95958  36.458  24.160   4.404
23633W        W95959  33.089  29.574  12.973
23634W        W95960  31.789   2.418   0.092
23635W        W95961  34.982  24.832   1.963
23636W        W95962   0.416  29.600   1.852
23637W        W95963  10.119  35.341   1.059
23638W        W95964  22.519   2.011  11.527
23639W        W95965  25.961  39.109   3.688
23640W        W95966   4.258  39.051  13.852
23641W        W95967  22.309  43.304   3.155
23642W        W95968   3.352  27.841   3.569
23643W        W95969  37.821  37.393  12.287
23644W        W95970  34.343  28.483  12.205
23645W        W95971  27.107  32.304  11.966
23646W        W95972   8.059  18.822   1.987
23647W        W95973  25.449  29.653   1.140
23648W        W95974  25.211  29.615  12.595
23649W        W95975  27.267  25.725   1.705
23650W        W95976   5.229  11.256   3.724
23651W        W95977   8.194  40.803  13.406
23652W        W95978  28.526  25.219  14.689
23653W        W95979  15.247  11.019  11.540
23654W        W95980  23.158  39.365   3.693
23655W        W95981   2.666  16.687   3.273
23656W        W95982  28.139  25.678   3.724
23657W        W95983  39.473   5.939  11.151
23658W        W95984  14.314  39.447   2.104
23659W        W95985  42.351  16.489   1.922
23660W        W95986  31.168  30.535  10.657
23661W        W95987   0.332  12.593   1.786
23662W        W95988  31.011  35.969   1.742
23663W        W95989  11.799  25.431   3.551
23664W        W95990  24.412  33.816  14.423
23665W        W95991  25.538  40.401  12.969
23666W        W95992  23.049  10.911  12.840
23667W        W95993   9.424  19.741  12.483
23668W        W95994  29.131  43.896  11.845
23669W        W95995   9.565  21.104   5.066
23670W        W95996   7.963  23.554   3.172
23671W        W95997  16.313  38.799  14.842
23672W        W95998  33.119  38.007  11.616
23673W        W95999  13.865  19.118  13.385
23674W        W96000  23.744   3.212   4.093
23675W        W96001  25.745   9.669   1.787
23676W        W96002  31.644  15.978   0.371
23677W        W96003  21.591  27.509   2.306
23678W        W96004   0.345  24.963   3.961
23679W        W96005  17.624   2.681   3.797
23680W        W96006   7.678   2.546  11.705
23681W        W96007  32.133   6.671   0.434
23682W        W96008  40.126  27.006  14.905
23683W        W96009  15.088   5.705   4.079
23684W        W96010  21.798  26.662  10.810
23685W        W96011  39.981  12.487   4.044
23686W        W96012  40.391  40.930   4.612
23687W        W96013  18.639  27.530  12.523
23688W        W96014   3.743  40.927   4.632
23689W        W96015  32.715  15.579   3.361
23690W        W96016   0.751  28.434  11.640
23691W        W96017  44.508  22.738  11.714
23692W        W96018  20.187  11.083   2.187
23693W        W96019  34.107  30.948  13.681
23694W        W96020  13.854   5.894  13.991
23695W        W96021   3.012  23.596   4.655
23696W        W96022  22.442   9.637   0.413
23697W        W96023  29.574  18.516   0.693
23698W        W96024  43.167  34.514   3.851
23699W        W96025   1.456   1.453  13.154
23700W        W96026  26.098  18.567   2.230
23701W        W96027  18.111   6.114  12.977
23702W        W96028  18.659   9.170  12.574
23703W        W96029   0.364   9.761   5.120
23704W        W96030  12.771  32.670  14.343
23705W        W96031  17.100  42.500  13.893
23706W        W96032   0.846  21.943   0.368
23707W        W96033   0.423  40.547   2.998
23708W        W96034   8.828  43.013  14.460
23709W        W96035  30.390  26.789  14.756
23710W        W96036   6.842  34.619  14.517
23711W        W96037  21.403  36.805  14.923
23712W        W96038  33.954  29.232   3.753
23713W        W96039  37.101  14.339   1.775
23714W        W96040  41.279  38.312  14.829
23715W        W96041  32.141  13.793  12.499
23716W        W96042  12.331   9.668   4.471
23717W        W96043   5.768  43.405   0.683
23718W        W96044  22.221   1.598   4.488
23719W        W96045  13.839   5.487  14.318
23720W        W96046   8.802  22.948   1.876
23721W        W96047  43.380  20.777  10.620
23722W        W96048  38.641  12.739  11.894
23723W        W96049  18.514  29.965   0.963
23724W        W96050  24.526  28.446  14.825
23725W        W96051  32.140   5.995  12.586
23726W        W96052  13.555  28.679  14.714
23727W        W96053  17.698  24.855  12.435
23728W        W96054  18.272   8.690  10.615
23729W        W96055  13.718  26.645   2.843
23730W        W96056  27.416  12.629  14.501
23731W        W96057  21.465  37.759  12.818
23732W        W96058  33.185  13.630   2.359
23733W        W96059  32.131  39.794   0.258
23734W        W96060  18.251  27.284   3.476
23735W        W96061  32.443   1.779  13.871
23736W        W96062  10.405  31.701   3.835
23737W        W96063  12.334   7.743  12.500
23738W        W96064  12.341  40.001   4.068
23739W        W96065  14.468  29.374  12.073
23740W        W96066  33.916  32.011   0.263
23741W        W96067   2.015  11.695  12.838
23742W        W96068   4.226  22.707   0.699
23743W        W96069  23.525   8.693   4.545
23744W        W96070  44.907   3.767  12.701
23745W        W96071  29.217  39.752  12.970
23746W        W96072  10.873  29.469   0.746
23747W        W96073  31.128   7.776   3.561
23748W        W96074  14.143  22.461   0.563
23749W        W96075  16.149   4.869   4.410
23750W        W96076   7.490  23.802   2.694
23751W        W96077  34.631   8.442   1.437
23752W        W96078  30.050  17.810   1.902
23753W        W96079  28.062   5.856  13.515
23754W        W96080   0.873  17.105   0.495
23755W        W96081   6.472  23.040  14.765
23756W        W96082  25.505  12.273  14.535
23757W        W96083   2.751   8.752   4.082
23758W        W96084   5.244  43.568   2.762
23759W        W96085  27.260  34.007   3.322
23760W        W96086  10.550  32.454   0.932
23761W        W96087   9.108  33.460   1.230
23762W        W96088  29.588  28.224   3.659
23763W        W96089   6.357  24.392  12.000
23764W        W96090  38.859  28.669   4.970
23765W        W96091  29.428  41.476   1.470
23766W        W96092   1.247  17.797   1.657
23767W        W96093   5.155  32.013  13.823
23768W        W96094   7.802  34.955  10.610
23769W        W96095  16.215  28.018  10.175
23770W        W96096  20.785  24.036   3.269
23771W        W96097  27.085   4.832  14.881
23772W        W96098  33.327  31.009  13.048
23773W        W96099   3.530  33.129   0.949
23774W        W96100  24.304  13.227  11.926
23775W        W96101  32.306  39.340   1.999
23776W        W96102  21.562  40.712  14.702
23777W        W96103  37.011  18.159   1.750
23778W        W96104  31.634  36.033   3.584
23779W        W96105  41.445  29.747  12.625
23780W        W96106  16.065   2.117  13.821
23781W        W96107  21.579  29.913  14.995
23782W        W96108   0.182  42.959   0.962
23783W        W96109  41.236  27.740   1.447
23784W        W96110  27.693  26.067   4.576
23785W        W96111  27.561  25.146  12.309
23786W        W96112  25.497  31.667  10.715
23787W        W96113  22.683  38.462   3.727
23788W        W96114  34.280  20.768   3.699
23789W        W96115  17.002  27.221  10.777
23790W        W96116  17.337  18.826  11.857
23791W        W96117   2.883  15.534   2.285
23792W        W96118  38.070  32.930  13.346
23793W        W96119  24.047   7.294   1.704
23794W        W96120  16.085   4.855   0.897
23795W        W96121  22.226  25.688  12.503
23796W        W96122   1.939  25.560  11.648
23797W        W96123  38.347  30.094  12.491
23798W        W96124  19.090  14.840  12.410
23799W        W96125  27.181   5.237  11.969
23800W        W96126  33.179  15.643   3.603
23801W        W96127  21.091  29.191  13.424
23802W        W96128  39.627   2.798  12.797
23803W        W96129  35.149  30.871  12.885
23804W        W96130  39.063  25.941  14.352
23805W        W96131   2.045  37.127  11.909
23806W        W96132  40.874  36.222   4.685
23807W        W96133  11.780  44.022  10.484
23808W        W96134  30.496  42.563   0.436
23809W        W96135  39.326  16.566  14.390
23810W        W96136   7.813   2.236  12.098
23811W        W96137  10.866   9.973   0.278
23812W        W96138  20.857  27.479  13.258
23813W        W96139  40.883  18.473   1.452
23814W        W96140  18.593   3.668   0.295
23815W        W96141   9.636   5.723   3.648
23816W        W96142  20.140  10.546   1.357
23817W        W96143   8.980  42.523  11.859
23818W        W96144   8.631   7.653   3.689
23819W        W96145  17.944  23.059  13.991
23820W        W96146  41.981  25.187   3.716
23821W        W96147  28.694  28.557   4.604
23822W        W96148  41.483  22.103   2.146
23823W        W96149  24.014  44.411  12.560
23824W        W96150   9.779   3.978   1.942
23825W        W96151   4.910   6.297   1.990
23826W        W96152  35.268  18.361   3.514
23827W        W96153  11.605  36.811   2.421
23828W        W96154   0.269  26.074  12.445
23829W        W96155  31.106  25.361  10.451
23830W        W96156  13.864  13.742   1.341
23831W        W96157  25.708  40.659  14.847
23832W        W96158  17.650   1.460   0.442
23833W        W96159  19.081  11.128  11.620
23834W        W96160  41.768   6.676   4.172
23835W        W96161  13.797  19.631   4.106
23836W        W96162   6.407  10.842   4.065
23837W        W96163  35.541  13.827   4.174
23838W        W96164  35.489   4.991  13.012
23839W        W96165  43.557  30.436  14.776
23840W        W96166  25.041  24.571   3.242
23841W        W96167  29.618  37.474  13.587
23842W        W96168  44.896  11.198   1.672
23843W        W96169   6.176  35.877  13.462
23844W        W96170   0.030  25.599   3.295
23845W        W96171   2.281  21.229  11.316
23846W        W96172  15.571  17.031   3.662
23847W        W96173   4.423  31.655  10.959
23848W        W96174  23.526  12.891  13.023
23849W        W96175  43.486  39.120   1.611
23850W        W96176  37.038  27.978   2.796
23851W        W96177  17.906  15.182  11.877
23852W        W96178  33.216   5.515  11.576
23853W        W96179  16.180  10.164   1.321
23854W        W96180  43.754  15.788   1.880
23855W        W96181  13.375   5.316   4.384
23856W        W96182  29.696   9.880  10.482
23857W        W96183  23.225  10.219   2.476
23858W        W96184  14.820  26.955  11.039
23859W        W96185  27.451  39.504   0.570
23860W        W96186  34.564  34.598  11.544
23861W        W96187  33.038  43.772  12.930
23862W        W96188  27.060  15.364   3.596
23863W        W96189  37.511  14.755  14.061
23864W        W96190  21.016  40.797  14.439
23865W        W96191  27.995   7.749   4.107
23866W        W96192   4.312  10.880   3.734
23867W        W96193   0.203  30.525   5.092
23868W        W96194  36.866  10.427   9.607
23869W        W96195  44.432  15.719   2.663
23870W        W96196  30.844  19.742  12.870
23871W        W96197  40.905  39.073   0.816
23872W        W96198   3.745   9.321  10.030
23873W        W96199  17.319  30.547   2.312
23874W        W96200  32.296  35.926   4.174
23875W        W96201  17.247   0.749   3.184
23876W        W96202   8.064  27.581  10.738
23877W        W96203  24.152  35.353  13.427
23878W        W96204  26.753  16.257   3.236
23879W        W96205   1.579   4.755   4.999
23880W        W96206  29.069  16.065   0.942
23881W        W96207  37.557   4.325   4.658
23882W        W96208   2.248  39.900   9.698
23883W        W96209  24.455  16.806   4.658
23884W        W96210  42.486  30.493  11.398
23885W        W96211  44.505  37.420   3.349
23886W        W96212  29.430   2.988   1.814
23887W        W96213  38.981   9.613   4.616
23888W        W96214  22.506  38.656  12.433
23889W        W96215  41.277  25.146  14.634
23890W        W96216  43.745  27.445  10.986
23891W        W96217  37.365  27.625  12.881
23892W        W96218  27.560  32.376   3.638
23893W        W96219  43.514  27.930   1.761
23894W        W96220  24.001  35.821   1.670
23895W        W96221  24.439  33.721  11.437
23896W        W96222   6.977   9.573  12.012
23897W        W96223   5.403  29.689  11.935
23898W        W96224  13.862  33.149   9.909
23899W        W96225  43.711   1.998   0.912
23900W        W96226  14.188  40.500  10.649
23901W        W96227  23.484  43.269   0.743
23902W        W96228   2.543  24.995   4.514
23903W        W96229  10.832  25.654   5.482
23904W        W96230  41.865  11.561  14.707
23905W        W96231  16.757  17.595   0.032
23906W        W96232  33.750   7.809  14.821
23907W        W96233  41.902  32.092   1.101
23908W        W96234  15.065  31.738   3.161
23909W        W96235  31.474  43.466   3.797
23910W        W96236  20.318  18.189   4.663
23911W        W96237  39.186  29.160  11.142
23912W        W96238  21.638  44.320  13.380
23913W        W96239  13.133  13.999  14.539
23914W        W96240  38.521   8.385  11.577
23915W        W96241  21.879  25.428   5.125
23916W        W96242  37.291  42.887   2.896
23917W        W96243  43.186   5.892  14.226
23918W        W96244   6.285  28.773  11.602
23919W        W96245  40.066  19.689   3.556
23920W        W96246  19.125  28.582   3.295
23921W        W96247   6.119  25.693   2.868
23922W        W96248  22.527   2.292   3.273
23923W        W96249  32.394  10.313  12.496
23924W        W96250   3.865  35.886   3.552
23925W        W96251  42.825  34.806  11.593
23926W        W96252  33.504  41.769   2.743
23927W        W96253  22.621  38.898   4.509
23928W        W96254  15.387  41.507  13.525
23929W        W96255  38.920  37.920  12.166
23930W        W96256  31.505  33.321  11.597
23931W        W96257  29.185  23.091   0.268
23932W        W96258  17.551  34.956   1.312
23933W        W96259  21.095  31.810   1.440
23934W        W96260  24.468  15.297  11.615
23935W        W96261   0.078  15.884   4.862
23936W        W96262  23.576  34.282  12.913
23937W        W96263  30.601  35.800  14.266
23938W        W96264  16.239  40.390   2.315
23939W        W96265  23.293  41.380  12.595
23940W        W96266  42.997   3.196  11.545
23941W        W96267  15.364  37.116  13.779
23942W        W96268   7.464  37.344  13.447
23943W        W96269  12.954  32.670   5.033
23944W        W96270  27.572  42.315   2.333
23945W        W96271  31.993  35.407   2.338
23946W        W96272  11.287   2.301  12.990
23947W        W96273  28.270  16.187  14.068
23948W        W96274   8.909  22.950  13.206
23949W        W96275  42.103   0.502   3.747
23950W        W96276  30.199   5.425   0.080
23951W        W96277  24.784  18.307  14.920
23952W        W96278  25.532  10.798  14.254
23953W        W96279   4.668  42.475  14.027
23954W        W96280  19.414  10.638   0.811
23955W        W96281  30.109  30.032   3.467
23956W        W96282   6.147   4.717  14.402
23957W        W96283  38.438  38.504   1.109
23958W        W96284  40.162  36.473  13.840
23959W        W96285  11.314  12.908  12.481
23960W        W96286  13.009  32.934  11.157
23961W        W96287   4.885  35.862   3.555
23962W        W96288  36.840  18.711  13.167
23963W        W96289  34.931   9.633  11.663
23964W        W96290  27.953  18.233   1.004
23965W        W96291  32.122  25.623   4.689
23966W        W96292   0.675  13.708   1.408
23967W        W96293  17.490  12.124  11.704
23968W        W96294  36.412   0.133  12.891
23969W        W96295  24.122   2.670  13.888
23970W        W96296  38.406  33.532   4.384
23971W        W96297  17.711  33.915   4.145
23972W        W96298  20.685  26.458  14.997
23973W        W96299  39.464  29.509  11.405
23974W        W96300  39.751  33.445   0.002
23975W        W96301  33.877   5.120  11.171
23976W        W96302  40.957  28.037   0.437
23977W        W96303  44.872  36.447   3.362
23978W        W96304  44.558  44.296   3.129
23979W        W96305  32.461  32.602  11.032
23980W        W96306   7.295  39.939  11.872
23981W        W96307  40.291  44.765  12.396
23982W        W96308   0.008   1.487  14.492
23983W        W96309  33.186  24.835   4.534
23984W        W96310  13.175  25.531  13.060
23985W        W96311   3.147  30.380  10.883
23986W        W96312  11.684   5.516   3.019
23987W        W96313  27.649  14.366   3.327
23988W        W96314  40.831  15.787   4.067
23989W        W96315  12.853  27.726   2.548
23990W        W96316  35.437  39.594  13.313
23991W        W96317   3.723  31.031  12.447
23992W        W96318  32.527   7.959   3.842
23993W        W96319  43.251  32.533  11.390
23994W        W96320  40.360  41.329  12.409
23995W        W96321  24.302  26.406   3.381
23996W        W96322  35.170  29.586  13.471
23997W        W96323   2.492   6.328  13.031
23998W        W96324  31.447  21.966  10.736
23999W        W96325  42.545  12.170   1.380
24000W        W96326  39.917  42.251  14.816
24001W        W96327  37.441  42.353   0.742
24002W        W96328  36.871  21.463  13.677
24003W        W96329   3.395  39.832  14.405
24004W        W96330  25.593  34.095   4.376
24005W        W96331   2.653  39.894   2.738
24006W        W96332  13.786  39.043   4.122
24007W        W96333  28.944  21.430  12.834
24008W        W96334   7.444  12.599   2.740
24009W        W96335  37.621   6.185  10.621
24010W        W96336  26.766   3.522   3.629
24011W        W96337  28.695  20.621  13.370
24012W        W96338   4.895   3.469  13.009
24013W        W96339   4.847   5.675   2.468
24014W        W96340  12.146  26.157   0.917
24015W        W96341  42.847  26.998   2.849
24016W        W96342  33.931   9.185   2.422
24017W        W96343  38.653   2.021   2.664
24018W        W96344  25.000  20.780  12.904
24019W        W96345   7.290   2.393  13.501
24020W        W96346  10.324  28.277   4.955
24021W        W96347   7.171  22.160  13.467
24022W        W96348  32.890  32.403   2.594
24023W        W96349  24.590  10.312   1.362
24024W        W96350  21.822  21.714  13.486
24025W        W96351   1.816  14.066   3.768
24026W        W96352   9.941  32.254  13.438
24027W        W96353  37.989  22.243  11.594
24028W        W96354   9.265  12.764   1.307
24029W        W96355  18.822   3.861  12.925
24030W        W96356  28.558   9.865  12.966
24031W        W96357   4.402   6.448   0.834
24032W        W96358  22.639  26.252  10.068
24033W        W96359  10.593   7.728   4.651
24034W        W96360  44.364  41.834  10.687
24035W        W96361  34.868  37.372  14.641
24036W        W96362  22.206  19.050  13.908
24037W        W96363   1.917  26.913   3.610
24038W        W96364  43.049  44.950  12.864
24039W        W96365  41.496  10.167  14.529
24040W        W96366  33.880  20.846   4.089
24041W        W96367  33.915  21.197  13.394
24042W        W96368  21.634   4.347  11.416
24043W        W96369   5.021   2.180  10.935
24044W        W96370  37.137  43.458  10.735
24045W        W96371  31.840   5.445   4.117
24046W        W96372   1.218   1.751  14.490
24047W        W96373   5.698  31.436   4.633
24048W        W96374  43.284  41.723   3.958
24049W        W96375  16.030  21.145  14.433
24050W        W96376  22.032  40.350   4.155
24051W        W96377  35.143   3.320  13.446
24052W        W96378  22.032  25.937  13.788
24053W        W96379  11.710  14.247  14.562
24054W        W96380  30.092  42.542   3.729
24055W        W96381  19.777  33.519  11.107
24056W        W96382  13.617  12.693   1.160
24057W        W96383  38.011   6.942   0.335
24058W        W96384  21.707  10.476   0.035
24059W        W96385   1.313   6.047  11.636
24060W        W96386  32.972  44.034   3.609
24061W        W96387  38.342   5.359   1.869
24062W        W96388  41.530  41.102  12.388
24063W        W96389  27.627  33.655   1.452
24064W        W96390   4.456   1.707  14.336
24065W        W96391  27.998  19.432  10.007
24066W        W96392  30.055  32.579  10.569
24067W        W96393  15.726  19.278  11.126
24068W        W96394  22.805  14.180  11.609
24069W        W96395   8.692  31.740   2.457
24070W        W96396   5.219   3.265  11.930
24071W        W96397  15.406   5.477  14.752
24072W        W96398  16.568   5.256  13.422
24073W        W96399  14.905   2.334  10.597
24074W        W96400  20.530  34.072   2.495
24075W        W96401  21.290  38.529  13.879
24076W        W96402  40.528  26.980   1.218
24077W        W96403  29.785  23.447  11.579
24078W        W96404  24.436  16.996   4.144
24079W        W96405   1.501   0.524   3.604
24080W        W96406  15.150  14.831  13.466
24081W        W96407  13.288  43.355   4.480
24082W        W96408  14.548  35.302   0.187
24083W        W96409  31.949  37.393  14.466
24084W        W96410   8.014   1.829   2.817
24085W        W96411   4.731  24.457  12.939
24086W        W96412  20.974  28.322  11.006
24087W        W96413   7.236  42.380  10.703
24088W        W96414   4.862  11.791   2.832
24089W        W96415  37.098  13.793  14.007
24090W        W96416  20.344  34.836  10.340
24091W        W96417  36.324  28.963  11.782
24092W        W96418  38.043  25.408   1.722
24093W        W96419   1.181  36.910  11.832
24094W        W96420  33.699  36.454   5.049
24095W        W96421   4.260  17.265   1.828
24096W        W96422   7.682   3.585   2.208
24097W        W96423  20.136   9.828   1.716
24098W        W96424  14.929  10.262  11.208
24099W        W96425  12.368  43.278  13.519
24100W        W96426  39.940  37.677  10.683
24101W        W96427  27.195  17.176  14.033
24102W        W96428   1.202  31.965  11.396
24103W        W96429  27.121  26.748  12.129
24104W        W96430  36.798  22.357  14.394
24105W        W96431  39.259  10.412   5.310
24106W        W96432  38.120   6.427   2.845
24107W        W96433  32.168  33.441  14.917
24108W        W96434  15.905   7.432  11.609
24109W        W96435  28.686  10.164  11.206
24110W        W96436   0.568   9.543   4.222
24111W        W96437  19.194  40.591   1.336
24112W        W96438  17.038  23.283   3.300
24113W        W96439   6.655  14.547  12.462
24114W        W96440  25.413  40.536   4.463
24115W        W96441  20.572   8.943   1.689
24116W        W96442  15.271   1.969   3.705
24117W        W96443  42.849  11.311   0.239
24118W        W96444  34.627  13.711  12.955
24119W        W96445   2.653   1.343  11.608
24120W        W96446  21.040   7.159  11.604
24121W        W96447  34.176  16.488   3.208
24122W        W96448  42.656  21.290   3.233
24123W        W96449  38.391  23.763  14.063
24124W        W96450  16.239  31.063   3.629
24125W        W96451  10.671   7.670   2.793
24126W        W96452   0.741  15.878   1.359
24127W        W96453  19.114  23.891   1.099
24128W        W96454  33.942  22.096   4.564
24129W        W96455  39.581  41.875  13.071
24130W        W96456   1.996  27.404  12.451
24131W        W96457   1.957  39.329   3.096
24132W        W96458  25.409  36.976   2.169
24133W        W96459  23.737  37.546   9.863
24134W        W96460  24.497  39.276  10.325
24135W        W96461  33.809   2.489  11.970
24136W        W96462  30.933  12.288  10.985
24137W        W96463  21.147  39.364  14.249
24138W        W96464  31.213  30.451   9.919
24139W        W96465  27.028   0.948  13.883
24140W        W96466   7.620   9.094   0.389
24141W        W96467   7.770   8.272  14.202
24142W        W96468  36.487  28.444   2.295
24143W        W96469  27.083   5.152   1.289
24144W        W96470  20.682  33.653   2.752
24145W        W96471  25.686   7.852  13.464
24146W        W96472  14.604  10.646   2.627
24147W        W96473  38.977  40.389   2.656
24148W        W96474  43.802   5.099   4.122
24149W        W96475  13.169  30.724   0.248
24150W        W96476  10.644  34.363  12.623
24151W        W96477   0.240  32.734  13.119
24152W        W96478  19.579   1.483  13.146
24153W        W96479   6.903   7.858   2.220
24154W        W96480  11.181  28.186   4.153
24155W        W96481  13.144  30.569  10.618
24156W        W96482  26.120  31.434   3.294
24157W        W96483  18.231  15.259  14.269
24158W        W96484   7.319  30.506   2.020
24159W        W96485  36.595  44.355  13.336
24160W        W96486  28.999  10.818  13.608
24161W        W96487   9.162  24.014  12.531
24162W        W96488  19.222  14.852  11.163
24163W        W96489   4.646  17.613   1.797
24164W        W96490  17.558  13.781   1.672
24165W        W96491   8.925  22.566  13.568
24166W        W96492  23.150  24.252   1.180
24167W        W96493  25.612  28.383  13.495
24168W        W96494  15.593  21.668  14.064
24169W        W96495  21.999  31.730  14.413
24170W        W96496  32.120  16.547   3.622
24171W        W96497  22.158  13.038   2.122
24172W        W96498   1.718  13.542   1.365
24173W        W96499  28.167   6.706   2.676
24174W        W96500  13.379  13.413   0.819
24175W        W96501  10.188   4.640   0.072
24176W        W96502  40.982  31.519   1.331
24177W        W96503  34.294   9.108   0.821
24178W        W96504  31.528  24.664   0.868
24179W        W96505   2.839  22.421  14.273
24180W        W96506  16.057  17.185  12.094
24181W        W96507  17.686   1.285  14.537
24182W        W96508  42.408  22.687   4.032
24183W        W96509  16.610  41.244   2.191
24184W        W96510  22.056  37.249   1.003
24185W        W96511  21.015   6.301  12.421
24186W        W96512   9.019  40.265   4.178
24187W        W96513  37.810  24.126  14.837
24188W        W96514  29.382   9.247  10.704
24189W        W96515  12.949  14.043   5.001
24190W        W96516   1.279   5.493   0.683
24191W        W96517  38.505   6.158  14.304
24192W        W96518  15.125   7.677   0.431
24193W        W96519   9.217  17.120  10.516
24194W        W96520  37.403  38.211   0.493
24195W        W96521   8.596  41.530  14.802
24196W        W96522  13.744   1.748   2.849
24197W        W96523   3.704  13.336   2.464
24198W        W96524  35.893  23.255   3.601
24199W        W96525  25.800  23.772  11.613
24200W        W96526  17.487   9.287  13.524
24201W        W96527  35.058  43.531  13.321
24202W        W96528  29.483  39.409  10.726
24203W        W96529  26.443  40.021  11.027
24204W        W96530   3.165  44.728   2.367
24205W        W96531  19.484   4.908   2.370
24206W        W96532   9.166  42.442   0.681
24207W        W96533  15.919  38.884   1.789
24208W        W96534  34.917   2.412  12.926
24209W        W96535  23.179  42.430   4.377
24210W        W96536  37.473  11.129   3.857
24211W        W96537  18.753  38.507  11.499
24212W        W96538  42.782  36.218   4.128
24213W        W96539  26.031  26.691   4.565
24214W        W96540  12.843  41.900  13.924
24215W        W96541  19.619  26.055  12.762
24216W        W96542   2.322  38.313   1.226
24217W        W96543  24.250  19.243  13.442
24218W        W96544  43.215   8.630   2.540
24219W        W96545  41.937   9.636  11.482
24220W        W96546  28.065  13.448  12.103
24221W        W96547  24.311  22.732  13.139
24222W        W96548  44.811  24.799  10.808
24223W        W96549  37.854  10.657  11.987
24224W        W96550  28.616  25.922   1.392
24225W        W96551  32.421   2.643   2.275
24226W        W96552  43.342   3.278   1.666
24227W        W96553   6.015   8.518   4.442
24228W        W96554  23.190  36.743  10.901
24229W        W96555  13.964  16.113   1.177
24230W        W96556  13.868  26.221   0.326
24231W        W96557  38.595  27.976   2.822
24232W        W96558  41.877  44.565   0.784
24233W        W96559  35.552  30.898   1.334
24234W        W96560  34.139  18.609   1.161
24235W        W96561  10.347   0.409  14.794
24236W        W96562   9.682  40.371   2.225
24237W        W96563   4.183  13.155  14.973
24238W        W96564  25.717   0.425   2.386
24239W        W96565  26.513   3.672  14.770
24240W        W96566  37.743  33.952   2.285
24241W        W96567  32.893  34.813  11.506
24242W        W96568  24.615  10.247  14.931
24243W        W96569  35.293  21.608   4.186
24244W        W96570  24.416  27.048   1.392
24245W        W96571  15.914  26.046  14.407
24246W        W96572  27.804  12.239  14.519
24247W        W96573  16.146  12.391  13.951
24248W        W96574  16.817  42.511   1.013
24249W        W96575  26.409   5.980  11.177
24250W        W96576  33.470  44.045   1.905
24251W        W96577  19.653  36.591   2.663
24252W        W96578  29.032  29.823  12.396
24253W        W96579  27.189  33.457   1.666
24254W        W96580   3.243   4.152   0.734
24255W        W96581  21.803  36.658   3.932
24256W        W96582  30.727  15.335  10.728
24257W        W96583  32.130  22.543  11.528
24258W        W96584  40.109  20.451   4.164
24259W        W96585  38.335  28.089   3.275
24260W        W96586   9.945  16.402  13.540
24261W        W96587  30.680  28.460  13.824
24262W        W96588  37.337  39.485   2.828
24263W        W96589  31.021  11.613   0.417
24264W        W96590  31.315  13.215   2.481
24265W        W96591  35.137  38.002  12.323
24266W        W96592  28.941  42.333  10.763
24267W        W96593   1.496  14.638  14.438
24268W        W96594  29.023  19.540   1.127
24269W        W96595  44.267  38.074   3.802
24270W        W96596  19.232  33.896  13.549
24271W        W96597  18.782  11.650  12.564
24272W        W96598  12.707  35.890   2.337
24273W        W96599  23.521  40.267   0.608
24274W        W96600  29.518  24.911  11.271
24275W        W96601  32.431  44.251  11.633
24276W        W96602  35.863   0.602   3.141
24277W        W96603  17.109  40.341   0.410
24278W        W96604  44.269   5.477  11.575
24279W        W96605   4.479  30.852  14.900
24280W        W96606  16.812  24.911   1.332
24281W        W96607  25.782   4.843  12.292
24282W        W96608  34.690  16.097  13.370
24283W        W96609  40.155  41.862   2.306
24284W        W96610  38.367  15.594  10.475
24285W        W96611   1.167  30.822   1.849
24286W        W96612  40.100  42.891  11.645
24287W        W96613  12.781  33.327  11.485
24288W        W96614  30.433  27.104   4.572
24289W        W96615  30.183   4.387  10.854
24290W        W96616  12.088  39.534   0.449
24291W        W96617  33.040  26.575   2.214
24292W        W96618  36.051   8.088   0.406
24293W        W96619  29.446   0.775   0.336
24294W        W96620  31.461   0.194   4.207
24295W        W96621  10.891  12.712   1.335
24296W        W96622  20.577  32.621   0.012
24297W        W96623  34.507  14.887  10.764
24298W        W96624  30.494   7.214   4.682
24299W        W96625  33.097  38.357  14.825
24300W        W96626  33.326  24.687  12.932
24301W        W96627  10.454  18.323  13.387
24302W        W96628   3.314  43.861  10.788
24303W        W96629  21.330  14.838  14.322
24304W        W96630  36.018  35.604   3.267
24305W        W96631  12.212   1.882   1.775
24306W        W96632  40.269   7.988  12.981
24307W        W96633   4.250   8.412   4.629
24308W        W96634  26.892   7.309   3.715
24309W        W96635  40.914   4.170  12.511
24310W        W96636   4.549  35.248   1.431
24311W        W96637   3.113  11.185   2.854
24312W        W96638   4.413  17.138   4.475
24313W        W96639  20.829   9.466   5.023
24314W        W96640  16.109   2.488   3.956
24315W        W96641   5.077  19.805  14.895
24316W        W96642  43.980  26.915   4.577
24317W        W96643  25.240  34.485   1.414
24318W        W96644  22.100   8.354  13.393
24319W        W96645   7.771  34.364  11.459
24320W        W96646   5.494  36.382  14.221
24321W        W96647  32.650  35.095  14.263
24322W        W96648  32.865  18.762   0.181
24323W        W96649   1.320  31.304  14.296
24324W        W96650  32.397  26.002  12.193
24325W        W96651   6.199  21.083  13.107
24326W        W96652  15.117  14.544   4.446
24327W        W96653  28.644  27.706   2.735
24328W        W96654  38.411  28.936   0.290
24329W        W96655   3.040  36.410  13.974
24330W        W96656   8.682  11.657   5.051
24331W        W96657  27.148  39.464  10.737
24332W        W96658  27.908  37.352  11.591
24333W        W96659  36.508  38.621   1.327
24334W        W96660  31.840  19.597   3.256
24335W        W96661  41.035  21.205   0.544
24336W        W96662  24.284  21.531  10.203
24337W        W96663  18.933  13.898  10.888
24338W        W96664  39.083  34.544   2.739
24339W        W96665  37.931  19.616   4.557
24340W        W96666   2.582  23.484  12.055
24341W        W96667   1.218  19.208   1.261
24342W        W96668  26.211  25.526  11.620
24343W        W96669  21.540  15.416  11.750
24344W        W96670  23.234   8.788  11.059
24345W        W96671  25.045  14.097  11.089
24346W        W96672   8.908  13.163  14.903
24347W        W96673   6.250  24.520  12.871
24348W        W96674  10.456  17.546   0.541
24349W        W96675  20.615  24.136   3.741
24350W        W96676   2.983  43.394  11.945
24351W        W96677  34.448  22.048   3.832
24352W        W96678  43.736  14.825   0.286
24353W        W96679   1.389  44.911  12.387
24354W        W96680   9.186  16.773   4.705
24355W        W96681  17.332  41.268  11.030
24356W        W96682  42.128  28.195  14.932
24357W        W96683  22.209  42.618  12.389
24358W        W96684  35.752  27.246  12.479
24359W        W96685  30.561  11.472   0.231
24360W        W96686  37.130  42.874  12.325
24361W        W96687  11.462  31.869   2.194
24362W        W96688  14.198  20.317  10.496
24363W        W96689  42.961  22.682   2.026
24364W        W96690  18.797  13.461  10.659
24365W        W96691  25.282  20.172   3.673
24366W        W96692  36.323  17.375   2.912
24367W        W96693  12.805  29.978  14.190
24368W        W96694  41.107  28.334   4.297
24369W        W96695  26.052   5.600  11.182
24370W        W96696  36.219  26.341  11.534
24371W        W96697  35.998  11.410  10.234
24372W        W96698  23.883  27.007   0.136
24373W        W96699   8.822  20.110   4.753
24374W        W96700  21.010  29.894  13.023
24375W        W96701  43.225  29.579  12.622
24376W        W96702  12.077   0.508   2.215
24377W        W96703  20.923  42.305  14.438
24378W        W96704  36.316  21.119  14.762
24379W        W96705  20.220  17.737  11.955
24380W        W96706  38.752  41.922  14.465
24381W        W96707   9.752  17.464  13.997
24382W        W96708  25.453  38.240   4.890
24383W        W96709  33.129   4.186   4.219
24384W        W96710  10.619   2.232   1.268
24385W        W96711  24.700  35.464  13.425
24386W        W96712  24.170  34.869   1.772
24387W        W96713   2.419  13.632  13.905
24388W        W96714   6.022  43.387  10.691
24389W        W96715   4.945  40.318   2.923
24390W        W96716  22.085  13.124  14.813
24391W        W96717   9.717  16.805   3.061
24392W        W96718   2.771   3.749  14.474
24393W        W96719  13.655  33.147  13.436
24394W        W96720  31.538  17.618   2.274
24395W        W96721   8.898  23.627   3.045
24396W        W96722  20.547  22.741  11.669
24397W        W96723   8.407  36.851  10.688
24398W        W96724  19.273  23.646  11.643
24399W        W96725   0.223  42.805  10.581
24400W        W96726  26.164  29.393  12.705
24401W        W96727   3.873  32.462   4.063
24402W        W96728  32.417  22.472  13.383
24403W        W96729  14.015  41.799  14.390
24404W        W96730   8.105  38.588  13.885
24405W        W96731  11.174  42.348  13.921
24406W        W96732  42.898   0.480   4.244
24407W        W96733  11.122  26.501  10.923
24408W        W96734  12.836  37.588  11.851
24409W        W96735  13.808  19.655  11.058
24410W        W96736  30.667  41.237  10.387
24411W        W96737   9.718  20.192  13.430
24412W        W96738  21.592   0.166  11.234
24413W        W96739   0.937   5.805   0.484
24414W        W96740   6.685  39.470   4.545
24415W        W96741  33.447  33.780   4.899
24416W        W96742   8.847   5.146   1.401
24417W        W96743   4.694   9.671  14.875
24418W        W96744  26.591   6.862   1.085
24419W        W96745  37.067  11.846  14.445
24420W        W96746  16.775  32.194   9.984
24421W        W96747  37.794   2.845   2.334
24422W        W96748   9.363  26.037  13.281
24423W        W96749  10.704  10.447  13.337
24424W        W96750  12.133   1.359   4.583
24425W        W96751  24.884   7.550  14.541
24426W        W96752  41.530  10.395  11.476
24427W        W96753  44.774  42.484  10.588
24428W        W96754  37.664  35.062  11.176
24429W        W96755  15.618  41.534   2.217
24430W        W96756  12.238  38.077   4.652
24431W        W96757  11.688  42.325  13.851
24432W        W96758  39.052  42.284   4.777
24433W        W96759  29.824  40.340   9.901
24434W        W96760  32.491  20.720   3.566
24435W        W96761  24.236  19.553   4.816
24436W        W96762  35.108   9.514  12.115
24437W        W96763  20.055   2.397   2.658
24438W        W96764  20.607  37.696  10.204
24439W        W96765  15.614  33.604   4.298
24440W        W96766  23.787  21.269  12.832
24441W        W96767  20.788  41.412   4.963
24442W        W96768   9.810  15.658   3.721
24443W        W96769  44.330  23.880   4.067
24444W        W96770  36.748  20.567   3.738
24445W        W96771  37.837  14.246   1.247
24446W        W96772  25.600  44.018   1.107
24447W        W96773  44.538   8.318   1.760
24448W        W96774   7.575  21.247   0.291
24449W        W96775  24.628  37.934  10.220
24450W        W96776  33.136  17.125  12.048
24451W        W96777  32.823  27.504   4.618
24452W        W96778  14.601  15.533   1.652
24453W        W96779  30.552  18.649   4.490
24454W        W96780  36.905  31.606   3.215
24455W        W96781   2.683  31.976  13.848
24456W        W96782  10.358  25.449  11.492
24457W        W96783   3.742  22.515   0.799
24458W        W96784  41.035  37.553  13.813
24459W        W96785  31.223  29.808   4.404
24460W        W96786  34.395  21.152  13.562
24461W        W96787  41.519  28.066   3.427
24462W        W96788  18.386  19.621   4.428
24463W        W96789  27.519  38.920   4.609
24464W        W96790   6.009  23.050   1.454
24465W        W96791  12.980  13.549  10.970
24466W        W96792  13.443   8.168  14.531
24467W        W96793  29.571  34.487   2.278
24468W        W96794  23.204   7.222  11.169
24469W        W96795  26.059  20.581   4.575
24470W        W96796   7.233  25.156   1.314
24471W        W96797  35.565  13.082   1.905
24472W        W96798   6.829  42.614   0.230
24473W        W96799  43.703  37.471   0.123
24474W        W96800  20.739  18.077   3.867
24475W        W96801  33.892  10.293  13.036
24476W        W96802  28.540  15.262   4.350
24477W        W96803  29.566  27.437   4.374
24478W        W96804  19.980   3.323  12.217
24479W        W96805   0.651  15.162  13.562
24480W        W96806  32.614  32.155  14.232
24481W        W96807   7.415   7.221  13.910
24482W        W96808  36.994  31.622   1.849
24483W        W96809  28.094  41.814  10.738
24484W        W96810  17.181  12.443   1.342
24485W        W96811  44.425  23.351   4.094
24486W        W96812  19.506  18.594   2.420
24487W        W96813   2.931  24.183  10.146
24488W        W96814  22.712   2.012   2.129
24489W        W96815  38.143  11.284   1.373
24490W        W96816  42.372   0.859   2.649
24491W        W96817  40.274   0.885   4.319
24492W        W96818   5.614  20.810   1.769
24493W        W96819  33.865  28.473  12.431
24494W        W96820  25.982  11.237   3.845
24495W        W96821  19.125  38.870  14.130
24496W        W96822  20.233   8.350   4.250
24497W        W96823  34.461   8.300  14.905
24498W        W96824  11.716  21.183  14.427
24499W        W96825   9.015  11.849   1.711
24500W        W96826   6.451   4.427  12.553
24501W        W96827  41.025  19.253  12.004
24502W        W96828  16.095  16.639   2.589
24503W        W96829   0.791  12.823   0.202
24504W        W96830  38.536  24.740   1.358
24505W        W96831  29.017  22.815  14.347
24506W        W96832   6.382  22.727   2.235
24507W        W96833  24.896  34.461   4.140
24508W        W96834  13.391  41.576   1.844
24509W        W96835  28.162   6.555   1.823
24510W        W96836   7.738  23.107   0.872
24511W        W96837  33.231   3.260   4.071
24512W        W96838  22.141  11.692   4.648
24513W        W96839  35.875  38.580   2.484
24514W        W96840  41.298   6.608  12.482
24515W        W96841  13.702  17.783   0.877
24516W        W96842   5.990  34.528   0.562
24517W        W96843   9.905   8.427  12.614
24518W        W96844  37.812  43.961  11.852
24519W        W96845   3.915  11.343  14.280
24520W        W96846   9.891  20.628   4.646
24521W        W96847  21.010  23.167  12.424
24522W        W96848   5.100  35.978   2.182
24523W        W96849   9.353  44.776  11.250
24524W        W96850  30.440   2.169   1.674
24525W        W96851  43.302  28.241   4.742
24526W        W96852  13.311   6.730   0.451
24527W        W96853  17.041  22.590  11.503
24528W        W96854  44.295  25.596  13.121
24529W        W96855  20.756   1.088   1.738
24530W        W96856   2.349  37.983   4.542
24531W        W96857  20.439  38.427  12.004
24532W        W96858  22.062  43.727  13.845
24533W        W96859  27.869  15.668  11.180
24534W        W96860  28.542  22.117   3.310
24535W        W96861   8.279   7.163  10.860
24536W        W96862   0.587   2.807  13.948
24537W        W96863   7.740   8.256  14.981
24538W        W96864  42.706  42.530  12.134
24539W        W96865  28.119  11.862  14.254
24540W        W96866  29.526  25.790  12.804
24541W        W96867  20.555   1.019  14.900
24542W        W96868  25.018  38.768   1.236
24543W        W96869   9.722  36.874  13.983
24544W        W96870   4.011  23.439   2.237
24545W        W96871  27.954  12.302   2.611
24546W        W96872  19.629  31.919   1.657
24547W        W96873  42.524   5.278  12.966
24548W        W96874  41.087   9.041   1.371
24549W        W96875  30.640  28.999  11.028
24550W        W96876  35.831  12.760   3.671
24551W        W96877  17.572   9.880   2.957
24552W        W96878  22.458  41.954   1.705
24553W        W96879  12.145  27.157  12.329
24554W        W96880  38.496  40.327   2.936
24555W        W96881  17.485  42.040  13.116
24556W        W96882  31.983  23.628  11.489
24557W        W96883  18.752  40.286  13.006
24558W        W96884  15.973   9.181  13.353
24559W        W96885  33.539  15.152  13.809
24560W        W96886  41.377  34.551   0.261
24561W        W96887   0.948  13.236  12.976
24562W        W96888  28.628  27.277   4.911
24563W        W96889  12.638  44.923  14.696
24564W        W96890  34.277   9.235   2.819
24565W        W96891  16.788   3.246   3.266
24566W        W96892  27.038   0.472  10.466
24567W        W96893  34.012   5.133   4.778
24568W        W96894  14.813  34.631   1.434
24569W        W96895  10.347  15.231  10.583
24570W        W96896  25.754  29.023   4.694
24571W        W96897  21.676  10.253   3.745
24572W        W96898  23.990  38.935  12.527
24573W        W96899  22.031   5.405   3.184
24574W        W96900  24.509   2.657   0.206
24575W        W96901  19.226  11.448   2.403
24576W        W96902  29.997  19.664   0.782
24577W        W96903  26.183  41.436  11.845
24578W        W96904  22.515  12.555  14.402
24579W        W96905  32.322  14.655  11.187
24580W        W96906   7.397  19.175  10.667
24581W        W96907  32.943  13.287  12.859
24582W        W96908   0.763   1.528   4.689
24583W        W96909  21.076  32.106   1.933
24584W        W96910  37.166  11.787  11.555
24585W        W96911  11.180  44.945   2.170
24586W        W96912  24.916  22.196  11.066
24587W        W96913   3.801  26.053   0.417
24588W        W96914  13.348  44.918  12.895
24589W        W96915  40.950  43.310   0.336
24590W        W96916   2.553  35.922   0.445
24591W        W96917  43.373  34.823   1.205
24592W        W96918   2.245  18.754   3.214
24593W        W96919   8.973  44.350  13.540
24594W        W96920  11.651   8.033  11.004
24595W        W96921   7.308  10.879  11.079
24596W        W96922  34.196  39.840   1.685
24597W        W96923  27.709  37.157  10.963
24598W        W96924  42.385  41.434  14.528
24599W        W96925  16.088  15.189   4.682
24600W        W96926  34.011  40.941  13.377
24601W        W96927  24.767  39.834  13.980
24602W        W96928  34.067  34.418  11.456
24603W        W96929  35.843  12.892  12.038
24604W        W96930  35.012  20.088  12.848
24605W        W96931  16.154   0.408   4.514
24606W        W96932  23.957  42.254  11.991
24607W        W96933  22.063  34.877   1.440
24608W        W96934  41.122   4.896  12.186
24609W        W96935  36.925  17.690  13.401
24610W        W96936  24.432  23.749   0.777
24611W        W96937  11.939  39.993   1.928
24612W        W96938  28.683  43.482  13.064
24613W        W96939  34.572  17.890  14.376
24614W        W96940  32.958  37.841   3.303
24615W        W96941  35.934  42.609   4.172
24616W        W96942   3.524   3.816  13.089
24617W        W96943  31.940  35.953   2.258
24618W        W96944  17.012  17.001  13.967
24619W        W96945  14.201  19.172   3.129
24620W        W96946  42.182  29.726   3.261
24621W        W96947  23.879  16.038   2.919
24622W        W96948  26.486  29.488   1.471
24623W        W96949   1.142   0.690  11.042
24624W        W96950  13.175  21.299   3.092
24625W        W96951  38.509  14.100   1.668
24626W        W96952  37.564  15.935   3.273
24627W        W96953   0.824   8.844  13.497
24628W        W96954  26.546  39.328   1.683
24629W        W96955   0.284  14.855  13.806
24630W        W96956   6.809   6.338  10.931
24631W        W96957  14.380  15.782   2.038
24632W        W96958  35.293   0.718  13.517
24633W        W96959  44.254  43.730  12.122
24634W        W96960   7.171  36.300   1.678
24635W        W96961  31.743  44.943  11.421
24636W        W96962  38.551  32.341   3.259
24637W        W96963  14.651  27.033   4.710
24638W        W96964  21.899  20.672  10.570
24639W        W96965  27.577  13.065  14.078
24640W        W96966  12.086  43.413  11.196
24641W        W96967   2.747  26.578   3.269
24642W        W96968  35.463   5.927   0.582
24643W        W96969   4.444  14.435  11.005
24644W        W96970  23.221  12.190   1.716
24645W        W96971  16.197  11.585  12.379
24646W        W96972  10.164  16.173   4.964
24647W        W96973  10.266  22.135  12.563
24648W        W96974  27.946  17.543   4.066
24649W        W96975  19.352   5.361   0.431
24650W        W96976   5.503  39.038  11.675
24651W        W96977   9.126   0.945   3.972
24652W        W96978  36.670  36.113  14.934
24653W        W96979  19.412  34.544   3.162
24654W        W96980   0.809  24.108  12.143
24655W        W96981  27.655  27.497   2.680
24656W        W96982   1.525  21.680  13.861
24657W        W96983  24.620  29.175  13.414
24658W        W96984  24.663  22.125   1.312
24659W        W96985  16.486  28.109   4.747
24660W        W96986   3.980  13.319  13.138
24661W        W96987  21.704  18.964  12.768
24662W        W96988  11.398  15.266  12.462
24663W        W96989  31.102   4.069   0.241
24664W        W96990  40.675  36.659   3.811
24665W        W96991  42.250  23.524   2.053
24666W        W96992  41.283   5.337   0.273
24667W        W96993  17.680  43.445  14.857
24668W        W96994  14.781   0.941   4.361
24669W        W96995   5.230  29.449   1.781
24670W        W96996  23.276  29.183   2.394
24671W        W96997  25.205  15.807   0.287
24672W        W96998  26.453   8.941   4.248
24673W        W96999  16.805  30.492   3.610
24674W        W97000  38.932   7.695  11.674
24675W        W97001  12.770  31.575   4.506
24676W        W97002  14.618   8.935   2.017
24677W        W97003  17.803   3.885  14.192
24678W        W97004  18.884  20.664  11.858
24679W        W97005  20.044  13.700  13.765
24680W        W97006  28.768  36.340  12.488
24681W        W97007  20.323  32.314   1.382
24682W        W97008  36.546  40.857   2.718
24683W        W97009  43.444  25.782  12.353
24684W        W97010  41.850  13.303   4.312
24685W        W97011  12.604  12.226  13.331
24686W        W97012  22.603  39.191   0.822
24687W        W97013  37.036   3.234   1.850
24688W        W97014  35.649  11.049  11.101
24689W        W97015   6.415  36.392  13.459
24690W        W97016  40.908  26.968   0.277
24691W        W97017  18.349  34.024   2.790
24692W        W97018  17.685  26.170   2.447
24693W        W97019  20.310  14.262  12.185
24694W        W97020  41.549  31.477   2.650
24695W        W97021  20.807   4.058   4.821
24696W        W97022  32.038  26.929   0.862
24697W        W97023  11.795   2.925  13.501
24698W        W97024  29.764  18.903  14.315
24699W        W97025  38.470  44.151   2.401
24700W        W97026   5.342  26.268  13.962
24701W        W97027   7.223  30.019   4.083
24702W        W97028  14.668  25.616   0.721
24703W        W97029   2.040  38.464  12.056
24704W        W97030   8.247  39.346   4.580
24705W        W97031  12.576  15.611  10.064
24706W        W97032  35.069  11.547  14.715
24707W        W97033  35.140   7.261  14.050
24708W        W97034  19.577   8.658  13.518
24709W        W97035  19.026  37.488   4.710
24710W        W97036  14.819  21.222   1.631
24711W        W97037  28.560   1.817   2.859
24712W        W97038  40.449  21.558  14.959
24713W        W97039   4.842  11.514  13.901
24714W        W97040   8.851   1.337   3.613
24715W        W97041  38.605  18.153  13.824
24716W        W97042   9.922   2.597  12.597
24717W        W97043   1.741  34.493  12.471
24718W        W97044  11.946   4.369  13.434
24719W        W97045  33.048  37.763  12.615
24720W        W97046  44.432   9.363   0.882
24721W        W97047   9.154  16.987  14.456
24722W        W97048  30.693   9.245   4.530
24723W        W97049  39.608  28.040   2.664
24724W        W97050  10.289  10.755   0.614
24725W        W97051  35.522  24.572  11.420
24726W        W97052  12.834   1.856  14.379
24727W        W97053  41.351   9.787   4.598
24728W        W97054   4.253  31.011  12.487
24729W        W97055  11.803  30.970  12.409
24730W        W97056  24.091  23.737  12.993
24731W        W97057  34.396   8.925   2.380
24732W        W97058   2.063  42.520  13.901
24733W        W97059  24.476  36.055  13.858
24734W        W97060  21.025  33.593   0.907
24735W        W97061  16.073  32.374  14.859
24736W        W97062   6.861   2.157   0.878
24737W        W97063   5.165  44.690   4.041
24738W        W97064  36.535  31.872   1.723
24739W        W97065   4.483   4.197   3.210
24740W        W97066   9.872  15.839   0.036
24741W        W97067   3.002  25.619  13.110
24742W        W97068   0.972  32.514  11.341
24743W        W97069  20.844   8.383   3.047
24744W        W97070  12.720  40.844   4.598
24745W        W97071   4.359  25.578  12.390
24746W        W97072  32.831  30.465   4.734
24747W        W97073   4.411  18.473  13.533
24748W        W97074  31.157  12.704  10.217
24749W        W97075  30.096   5.894   1.414
24750W        W97076  12.222  38.815   2.191
24751W        W97077  19.687   4.736  13.066
24752W        W97078  36.906  22.529   2.348
24753W        W97079  32.545  33.096  11.090
24754W        W97080   4.890  12.965   2.193
24755W        W97081  29.863  30.687  13.414
24756W        W97082  12.666  27.744  13.276
24757W        W97083  42.838  13.635  13.960
24758W        W97084   8.745   6.205  11.616
24759W        W97085  27.473  36.510   1.701
24760W        W97086  28.931  13.741   3.250
24761W        W97087  17.000  29.704   4.099
24762W        W97088  21.608  44.399  12.856
24763W        W97089  41.907  27.008   2.412
24764W        W97090  30.067  23.850  14.858
24765W        W97091  27.085  29.527   2.837
24766W        W97092  36.280  28.034   3.315
24767W        W97093  15.255   0.165   0.360
24768W        W97094   5.259   9.712   1.665
24769W        W97095  17.184  13.621   4.584
24770W        W97096  36.510  19.232   0.708
24771W        W97097   8.183   7.341   2.240
24772W        W97098  24.573  43.611   3.753
24773W        W97099  13.336  33.488  10.105
24774W        W97100  18.931   1.474  14.875
24775W        W97101   7.614  21.235   1.260
24776W        W97102   2.830  36.846  14.927
24777W        W97103  34.839  35.052  10.077
24778W        W97104  27.156  38.553   0.221
24779W        W97105  26.743  14.631   2.937
24780W        W97106   9.176  28.194   1.739
24781W        W97107  20.495  25.984  12.987
24782W        W97108  26.213   8.683  14.345
24783W        W97109  30.457  12.268  13.442
24784W        W97110  28.022  24.891   4.408
24785W        W97111  32.111  27.465  10.619
24786W        W97112   7.342  33.916  11.439
24787W        W97113  33.328  13.781  13.411
24788W        W97114   9.163  25.245   4.974
24789W        W97115   1.882  26.263  12.953
24790W        W97116  11.336  31.984  11.896
24791W        W97117  23.416  16.025   3.709
24792W        W97118  18.301  32.933   2.263
24793W        W97119  44.836  17.074   3.618
24794W        W97120  30.023   3.306   4.984
24795W        W97121  25.976  18.151   2.519
24796W        W97122  26.696  28.650   4.636
24797W        W97123  15.219  31.209  10.545
24798W        W97124  36.913  10.207  12.840
24799W        W97125  22.768   9.556   4.054
24800W        W97126  28.575  20.609   3.568
24801W        W97127  14.198  40.841   4.591
24802W        W97128  23.240  41.237   5.052
24803W        W97129  40.602  37.381  11.689
24804W        W97130  21.580   5.822  13.406
24805W        W97131  32.925  25.665   2.170
24806W        W97132  24.660  40.784  13.768
24807W        W97133  24.151   4.660   0.306
24808W        W97134  38.928  40.518   3.156
24809W        W97135  32.846  27.370   1.521
24810W        W97136  34.418  33.078  14.173
24811W        W97137  43.953   9.448   2.601
24812W        W97138  31.391  26.469  12.459
24813W        W97139  10.785  36.057   3.531
24814W        W97140  27.195  34.474  12.837
24815W        W97141   1.062  25.075  14.989
24816W        W97142   6.235  31.550  13.436
24817W        W97143  13.251  29.167  11.613
24818W        W97144   9.850  41.036  14.018
24819W        W97145  12.682  30.996   4.496
24820W        W97146  17.538  12.390   0.484
24821W        W97147  32.703  18.058   0.911
24822W        W97148  26.242   1.799  12.465
24823W        W97149  32.138  41.235  13.809
24824W        W97150   7.618   1.886   2.082
24825W        W97151  14.992  41.070  10.907
24826W        W97152  44.703  44.742   4.040
24827W        W97153  17.302  35.442   4.243
24828W        W97154  38.983   0.892   0.707
24829W        W97155   8.928  15.394   2.774
24830W        W97156  24.986  17.649  10.251
24831W        W97157   3.554  19.521   0.159
24832W        W97158   3.328   1.893  14.939
24833W        W97159  35.877  43.964   4.474
24834W        W97160  21.439  21.842  12.491
24835W        W97161   5.196  33.587   1.891
24836W        W97162  13.393  28.948   1.913
24837W        W97163   7.397   0.891  12.535
24838W        W97164  19.990  11.171  11.736
24839W        W97165  35.999  16.256  12.179
24840W        W97166  41.922  13.219  13.239
24841W        W97167  36.044  23.973   0.686
24842W        W97168   2.969   3.712   0.802
24843W        W97169  33.141  34.618  10.248
24844W        W97170   1.881  34.115   4.049
24845W        W97171  21.963  33.310  12.312
24846W        W97172  19.043  24.659   0.089
24847W        W97173  38.029  20.946   4.648
24848W        W97174  15.767  18.245  13.910
24849W        W97175  21.511  33.404  11.346
24850W        W97176  10.106  38.830  12.648
24851W        W97177   3.748  15.562   1.744
24852W        W97178  35.216   4.224   0.910
24853W        W97179  25.154  24.488   1.764
24854W        W97180  31.541  15.775   4.036
24855W        W97181  43.661  36.651  13.379
24856W        W97182  36.980   5.352  10.822
24857W        W97183  18.739  39.420   1.748
24858W        W97184   7.260   6.441   2.198
24859W        W97185  20.098  42.349  13.850
24860W        W97186   8.149   2.450  13.126
24861W        W97187  33.923   2.292   0.314
24862W        W97188  43.428   5.590  10.649
24863W        W97189  37.504  21.950   2.187
24864W        W97190   4.285  31.113  10.663
24865W        W97191  43.612  40.021   1.876
24866W        W97192  34.546  33.899   3.301
24867W        W97193   5.494  11.285   2.360
24868W        W97194  22.610  17.868  11.705
24869W        W97195  34.744  11.914  14.919
24870W        W97196   5.233  44.212   4.252
24871W        W97197  44.965   3.504   0.493
24872W        W97198  35.012  11.755   0.330
24873W        W97199  43.034  42.866  13.333
24874W        W97200  26.017  17.809   0.448
24875W        W97201   1.509   5.666   1.912
24876W        W97202   0.467   2.845   3.277
24877W        W97203  23.146  40.521   0.323
24878W        W97204  38.029  38.790  11.913
24879W        W97205  25.472  35.055   4.657
24880W        W97206   4.620   3.966  12.162
24881W        W97207  28.746   8.746   0.440
24882W        W97208  44.546   1.782  11.513
24883W        W97209  32.655  16.823   4.644
24884W        W97210   0.801  19.051   1.591
24885W        W97211   6.438  24.676   3.636
24886W        W97212  20.103  24.916  14.418
24887W        W97213  26.661  18.890   2.443
24888W        W97214  25.184  11.156   3.318
24889W        W97215   8.732  33.313  14.836
24890W        W97216  40.829  14.278  14.311
24891W        W97217  16.567   6.240  12.557
24892W        W97218  40.816   5.932   2.790
24893W        W97219  34.005  16.828  14.722
24894W        W97220  13.952  14.763  11.653
24895W        W97221   9.270  12.240  14.049
24896W        W97222  37.502  17.080  13.813
24897W        W97223  17.644   0.672  14.773
24898W        W97224  42.494  31.145  14.262
24899W        W97225  20.671  19.405   4.159
24900W        W97226  12.954  30.918  12.335
24901W        W97227   4.282   3.930   1.766
24902W        W97228  25.650  34.772   1.788
24903W        W97229   7.324  29.959   1.833
24904W        W97230  21.720  17.636  12.177
24905W        W97231  30.409  29.129   2.083
24906W        W97232   4.520  10.142  12.105
24907W        W97233  17.083  15.182  12.167
24908W        W97234  17.208  19.009  12.645
24909W        W97235   6.213  33.577   3.412
24910W        W97236  18.741  32.729   2.906
24911W        W97237  38.477  25.197  13.036
24912W        W97238   4.348   0.527  14.833
24913W        W97239   0.519   9.640   0.162
24914W        W97240   4.545  29.949  12.088
24915W        W97241  12.539  43.104   4.615
24916W        W97242   8.131   8.253   3.897
24917W        W97243   9.727  35.623   0.802
24918W        W97244  41.623  14.731   3.354
24919W        W97245  23.072  36.087  13.942
24920W        W97246  21.261   0.342   3.426
24921W        W97247  17.802  13.561  12.473
24922W        W97248  10.353  43.261   3.680
24923W        W97249  25.217  21.215  14.100
24924W        W97250  32.594  40.070   0.362
24925W        W97251  31.392  11.160   2.526
24926W        W97252  20.089  26.246   2.126
24927W        W97253   1.308  13.393   3.451
24928W        W97254  14.587  10.415  12.396
24929W        W97255  22.227  11.582  13.551
24930W        W97256  23.042   6.958   2.852
24931W        W97257  42.667  24.438   0.018
24932W        W97258  13.714   8.819   4.599
24933W        W97259  11.236  43.909  14.051
24934W        W97260   6.234   0.674  11.626
24935W        W97261   9.854  39.489  10.924
24936W        W97262  17.003  12.382   0.492
24937W        W97263  35.908   7.576   4.135
24938W        W97264   8.076  17.164   0.944
24939W        W97265  19.530  18.457  11.223
24940W        W97266  21.538   5.366  11.742
24941W        W97267   9.533  25.657  11.274
24942W        W97268  20.367   8.541   3.089
24943W        W97269  43.743   9.162  11.057
24944W        W97270  12.295  43.966  10.604
24945W        W97271  30.239  35.423  12.465
24946W        W97272  43.733  19.655   4.167
24947W        W97273  11.164  15.157   1.280
24948W        W97274  24.469  40.269  13.923
24949W        W97275  42.115   4.801  14.391
24950W        W97276  14.096  11.262  11.694
24951W        W97277  13.945  32.442   1.362
24952W        W97278  34.915  33.343  10.209
24953W        W97279   0.292   3.860   4.628
24954W        W97280   7.766   3.956  13.109
24955W        W97281  22.019  29.981  14.374
24956W        W97282  37.373  38.066   1.455
24957W        W97283  43.010   9.279   1.968
24958W        W97284  22.933   2.460   0.943
24959W        W97285   2.799  32.612   3.145
24960W        W97286  12.200   3.212   1.640
24961W        W97287  22.426  31.896   4.992
24962W        W97288  17.295  26.123   4.690
24963W        W97289  16.230  38.305   0.613
24964W        W97290  43.502  44.056  11.660
24965W        W97291  15.838   7.602   1.497
24966W        W97292  14.678  12.607  11.509
24967W        W97293  16.473   1.498   2.647
24968W        W97294  29.556   3.283   1.361
24969W        W97295  16.982  11.247  14.975
24970W        W97296   1.299  14.065   2.175
24971W        W97297   1.816  19.444  11.887
24972W        W97298   3.479  31.974  12.938
24973W        W97299   9.819  43.508   4.537
24974W        W97300  29.244  37.389  12.639
24975W        W97301   1.886  24.658   5.031
24976W        W97302  36.948  28.082   1.893
24977W        W97303  30.482  44.224  11.881
24978W        W97304  42.021  25.560   1.323
24979W        W97305  21.737  27.552   0.346
24980W        W97306  40.046   9.471  14.301
24981W        W97307  38.253  30.482   2.294
24982W        W97308  14.125   6.146   2.331
24983W        W97309  35.573  15.356  11.866
24984W        W97310  10.943  31.122  10.649
24985W        W97311  28.730  28.219   1.897
24986W        W97312  10.090  30.470   4.577
24987W        W97313  15.416   0.827  14.656
24988W        W97314  39.136  23.043   0.246
24989W        W97315  25.160  35.513  14.723
24990W        W97316  37.150  20.985   3.137
24991W        W97317   1.766   6.324  10.732
24992W        W97318  29.109  40.629  11.101
24993W        W97319  28.931  12.597   1.921
24994W        W97320  41.437  27.653  12.449
24995W        W97321  21.729  39.270   1.867
24996W        W97322  27.118  29.979  14.780
24997W        W97323  28.908  13.683   0.565
24998W        W97324  14.956  30.860   2.611
24999W        W97325   4.478  16.741  13.272
25000W        W97326  40.793  32.496  12.833
25001W        W97327  12.121   7.236  12.500
25002W        W97328  37.117  11.268  13.765
25003W        W97329  11.094   4.752   2.764
25004W        W97330  35.485  23.241   2.939
25005W        W97331  17.207   9.262  13.969
25006W        W97332  12.347  25.407   0.459
25007W        W97333  33.860   5.986  11.186
25008W        W97334  23.173   6.863   2.362
25009W        W97335  20.245  30.088   2.266
25010W        W97336  28.026  37.131   0.291
25011W        W97337  35.598  19.391  13.918
25012W        W97338   3.877  34.056  10.730
25013W        W97339   9.389  40.737   1.327
25014W        W97340  15.035  15.781   1.426
25015W        W97341  23.675  16.703   2.314
25016W        W97342   5.930  14.118   3.652
25017W        W97343  13.748   9.331  11.916
25018W        W97344  27.384  40.723   0.361
25019W        W97345  16.030   6.741   4.052
25020W        W97346   6.859   9.465  14.482
25021W        W97347  41.200  44.397  12.461
25022W        W97348  43.732  11.283   2.322
25023W        W97349  38.064   4.360   0.985
25024W        W97350  28.443  28.412   4.172
25025W        W97351  15.655  32.888  12.582
25026W        W97352  42.282  23.220  11.071
25027W        W97353  22.649  26.895   0.887
25028W        W97354  44.499   7.809  13.698
25029W        W97355  33.752  37.345   3.253
25030W        W97356  30.428   5.786   3.592
25031W        W97357  26.310  35.526   1.963
25032W        W97358  40.866  32.432  14.233
25033W        W97359  21.312  38.978   3.437
25034W        W97360   8.562  24.839  10.551
25035W        W97361   2.831  37.595  10.681
25036W        W97362  42.682  37.929  11.213
25037W        W97363  31.411  30.133   2.258
25038W        W97364  35.958  15.368  12.654
25039W        W97365  12.850  11.344  14.827
25040W        W97366  10.178  20.487   1.131
25041W        W97367  11.312  21.504  14.398
25042W        W97368  20.185  16.587   3.215
25043W        W97369   1.149  42.799  10.874
25044W        W97370  25.087  41.463  10.254
25045W        W97371  20.306  25.112   1.309
25046W        W97372  26.657  21.422   4.401
25047W        W97373   2.479  23.956   1.363
25048W        W97374   5.114  24.198   3.820
25049W        W97375  38.136  15.859  12.041
25050W        W97376  18.807  12.005  11.572
25051W        W97377  16.114   8.705  12.482
25052W        W97378  44.791  38.718  12.997
25053W        W97379   1.829   1.599   0.589
25054W        W97380   2.901  18.733  10.782
25055W        W97381  14.649  27.076   0.445
25056W        W97382  24.087  13.823   0.444
25057W        W97383  29.061   4.841  10.375
25058W        W97384  37.823  18.570  14.998
25059W        W97385   4.786  34.823  10.135
25060W        W97386  13.270  39.412  12.119
25061W        W97387   6.696  35.268  10.562
25062W        W97388  19.660  30.422   0.998
25063W        W97389  27.612  20.608   2.253
25064W        W97390  44.821  37.091  12.450
25065W        W97391  25.005   5.333   3.835
25066W        W97392  18.523  35.139  11.431
25067W        W97393  21.564  32.995   4.845
25068W        W97394  14.879  28.557  14.966
25069W        W97395   3.374   6.584  10.914
25070W        W97396  43.319   5.667   1.734
25071W        W97397   4.463   7.219   4.115
25072W        W97398  43.919  37.261  11.067
25073W        W97399  27.208  43.287   2.478
25074W        W97400  33.541  24.660   0.860
25075W        W97401   5.396  22.929  10.551
25076W        W97402  30.573  37.075   2.603
25077W        W97403   3.333  43.120   3.789
25078W        W97404  41.037   9.400  14.294
25079W        W97405  20.298  21.031   1.864
25080W        W97406   0.996  34.019  10.749
25081W        W97407  30.454  31.922  10.741
25082W        W97408  35.841  36.429  12.521
25083W        W97409  39.924  29.195   1.374
25084W        W97410  36.356  21.795  13.474
25085W        W97411  40.914  44.189   2.506
25086W        W97412   6.088  36.796  11.157
25087W        W97413  33.679  10.659  14.123
25088W        W97414   7.121  40.808   2.674
25089W        W97415  29.105  26.627  13.829
25090W        W97416  43.423  23.131   3.304
25091W        W97417  34.522  20.058  12.468
25092W        W97418  29.052   6.786  12.607
25093W        W97419  30.750  28.616   3.674
25094W        W97420  18.759  27.555  10.622
25095W        W97421  13.658  38.656  10.809
25096W        W97422  43.981  42.309   1.720
25097W        W97423  38.519  30.820   1.992
25098W        W97424  41.717  23.165  13.351
25099W        W97425   7.060  44.572   9.777
25100W        W97426  10.677  26.058   4.678
25101W        W97427  33.071   9.186  11.503
25102W        W97428  44.201  41.536   4.234
25103W        W97429  19.111  22.754  13.806
25104W        W97430  34.538  13.244  11.932
25105W        W97431  42.526  40.886   4.194
25106W        W97432  20.994  40.537  11.248
25107W        W97433  26.880   3.957   4.000
25108W        W97434  38.589   3.940   2.791
25109W        W97435  22.260  31.419  13.001
25110W        W97436  35.046  26.509   1.312
25111W        W97437  15.073  14.136   0.041
25112W        W97438  36.881   0.453   0.933
25113W        W97439  18.116  12.551   1.340
25114W        W97440   3.272  21.535  13.329
25115W        W97441  31.570   9.291   3.955
25116W        W97442  33.816  25.182  14.192
25117W        W97443  37.245  22.910   4.123
25118W        W97444  24.656  18.795   1.885
25119W        W97445   0.041  22.951  11.064
25120W        W97446  19.763   0.191   4.334
25121W        W97447  15.338  24.216  14.222
25122W        W97448  15.186   8.684   2.690
25123W        W97449   6.866  17.687   0.509
25124W        W97450  31.047  13.126  14.183
25125W        W97451  40.501  41.718   0.867
25126W        W97452   4.727  11.007  14.853
25127W        W97453  17.186   6.951   0.255
25128W        W97454   6.778   6.418  10.426
25129W        W97455  29.473   1.981  13.832
25130W        W97456  24.231  40.563  13.550
25131W        W97457  20.431  24.561  11.190
25132W        W97458   8.332  24.959  11.889
25133W        W97459  35.763  26.981   3.718
25134W        W97460   4.422   3.025  12.522
25135W        W97461   4.785  10.138  14.038
25136W        W97462   4.782  30.233  11.501
25137W        W97463  31.035   4.316   0.954
25138W        W97464  39.421  43.414   4.176
25139W        W97465  34.157  20.596  14.884
25140W        W97466  25.247  40.370  11.547
25141W        W97467   1.725  22.583  14.031
25142W        W97468  15.589   3.273  14.535
25143W        W97469  23.448  37.233   4.878
25144W        W97470  17.748  27.672  13.746
25145W        W97471  19.990  28.267  14.549
25146W        W97472  24.476  14.654   1.349
25147W        W97473  21.219  22.703  13.602
25148W        W97474  12.802  26.763  11.522
25149W        W97475  18.326   9.979   0.406
25150W        W97476  36.535  39.110  11.548
25151W        W97477  41.712  29.918   3.236
25152W        W97478  34.194  43.866   4.123
25153W        W97479  13.783  24.219   1.766
25154W        W97480   6.536   5.935  10.000
25155W        W97481  22.993  16.580   0.915
25156W        W97482  26.196  39.152  12.489
25157W        W97483  35.630  34.423  10.257
25158W        W97484   6.742  28.560  14.769
25159W        W97485  12.565  38.603   1.830
25160W        W97486   1.186   1.255   4.846
25161W        W97487  33.065   9.616   1.216
25162W        W97488  10.931  19.113  13.000
25163W        W97489  39.436  26.894  11.974
25164W        W97490  42.308  21.001  12.951
25165W        W97491  13.353  17.372  13.463
25166W        W97492   9.884  38.241  13.379
25167W        W97493  32.810  28.219   3.994
25168W        W97494  40.583   7.780   3.815
25169W        W97495  37.737  28.986   2.294
25170W        W97496   0.419  42.898  13.663
25171W        W97497   4.327  35.595   1.761
25172W        W97498  11.506  30.151   0.859
25173W        W97499  32.106   4.486   3.330
25174W        W97500   4.448  14.169  13.018
25175W        W97501   9.748   5.657  12.551
25176W        W97502  42.607  31.013   1.208
25177W        W97503  42.543   4.835   2.074
25178W        W97504  35.511  28.575   3.293
25179W        W97505   0.304  36.332   3.658
25180W        W97506   4.708  14.768   4.036
25181W        W97507   6.902  44.962  11.219
25182W        W97508  23.047  19.614   1.560
25183W        W97509   1.232  23.123  11.821
25184W        W97510  31.219  33.467   0.394
25185W        W97511  13.592  29.403  10.845
25186W        W97512  18.517  18.341  12.423
25187W        W97513  31.789  38.181   4.297
25188W        W97514  34.901  39.050   3.668
25189W        W97515  30.863  26.505   1.163
25190W        W97516  33.482   9.927   1.390
25191W        W97517  31.071  10.751   2.479
25192W        W97518   6.714  22.027   2.752
25193W        W97519  14.174  31.610   3.105
25194W        W97520  15.327   0.931   2.761
25195W        W97521  15.711  38.027   3.152
25196W        W97522   9.787  25.313  13.017
25197W        W97523  38.449  41.914   3.083
25198W        W97524  14.352  42.423  14.956
25199W        W97525  40.905  28.178   2.223
25200W        W97526  26.555  10.632  14.028
25201W        W97527   7.861   2.500   0.268
25202W        W97528  40.551  22.917   1.188
25203W        W97529  39.785   6.157   1.023
25204W        W97530   7.678  42.051  13.116
25205W        W97531  39.433  40.599   4.280
25206W        W97532  19.828  32.391  13.705
25207W        W97533   6.929   4.320   0.862
25208W        W97534  26.238   2.875  12.530
25209W        W97535  39.908  35.367  12.609
25210W        W97536  40.220  17.605  10.998
25211W        W97537  18.245  13.721  13.124
25212W        W97538  12.843  21.623   4.677
25213W        W97539  14.184  17.505   0.819
25214W        W97540  28.506  31.539   2.859
25215W        W97541   6.402  20.049   4.042
25216W        W97542  36.265   0.280   2.274
25217W        W97543  36.877  29.738   2.734
25218W        W97544  12.814  27.476   1.615
25219W        W97545  29.869  21.233   5.089
25220W        W97546   8.801  33.481  12.661
25221W        W97547  14.591   1.381  11.113
25222W        W97548  28.470  11.550   3.585
25223W        W97549  10.368   6.052  14.986
25224W        W97550  35.016   9.300   0.322
25225W        W97551  32.914   4.458   2.848
25226W        W97552  32.002  13.008   0.856
25227W        W97553  36.822   6.691  12.015
25228W        W97554   3.876  23.801  12.550
25229W        W97555   1.750  41.357   0.238
25230W        W97556  11.320  14.042   3.297
25231W        W97557  23.264  24.545   2.459
25232W        W97558  28.098  11.684   3.992
25233W        W97559  28.017  19.180  10.486
25234W        W97560   3.640   6.831   0.474
25235W        W97561  17.242  40.359  10.636
25236W        W97562  34.575  12.245   0.270
25237W        W97563   0.103  17.791   0.072
25238W        W97564  20.100  27.503   4.394
25239W        W97565  13.359  40.948  12.888
25240W        W97566  26.940  17.705   0.230
25241W        W97567  31.956  21.698  13.835
25242W        W97568  19.245  31.494  14.664
25243W        W97569  26.437   3.932   3.723
25244W        W97570   9.397   7.595  13.781
25245W        W97571  11.073  11.882  11.096
25246W        W97572  11.619  41.906  13.532
25247W        W97573  32.018  37.597   0.884
25248W        W97574  24.923  24.508   4.549
25249W        W97575   6.477  13.336   1.790
25250W        W97576   6.669   5.358   2.353
25251W        W97577  20.396  29.539  12.320
25252W        W97578  19.518  18.003   4.192
25253W        W97579  24.486  43.933   2.698
25254W        W97580  25.434  17.944  11.046
25255W        W97581  36.352  39.336  12.558
25256W        W97582  32.308  32.443   4.686
25257W        W97583  11.179  35.105  12.110
25258W        W97584  10.757  40.231  10.637
25259W        W97585  13.129  32.312   0.893
25260W        W97586  35.954  28.421   4.603
25261W        W97587   3.955   8.858  13.737
25262W        W97588  20.296  16.194   1.380
25263W        W97589  37.028  19.032   4.611
25264W        W97590   7.127   2.668  11.227
25265W        W97591  16.678  21.105  13.011
25266W        W97592  10.735  26.657   5.028
25267W        W97593   0.006  33.427  13.822
25268W        W97594  21.137  12.932  12.262
25269W        W97595  19.319   4.322   2.850
25270W        W97596  12.074  29.508  11.276
25271W        W97597   4.753  33.378  11.984
25272W        W97598  21.105  25.194  13.150
25273W        W97599  30.281  25.513   3.227
25274W        W97600  30.007   5.769  14.121
25275W        W97601  36.971  10.383  10.123
25276W        W97602   8.861  36.579   3.121
25277W        W97603  24.194  16.119   0.895
25278W        W97604  44.791  42.394  13.994
25279W        W97605  11.556  22.075   0.038
25280W        W97606   2.410   9.168   4.091
25281W        W97607   3.950  16.283   1.667
25282W        W97608  37.291  12.131   2.776
25283W        W97609  28.887  13.085  11.689
25284W        W97610  12.088   1.964  10.695
25285W        W97611  10.354  35.903   0.390
25286W        W97612  42.950  31.067   0.361
25287W        W97613  21.806   4.708  10.808
25288W        W97614  37.606  14.825   4.872
25289W        W97615   7.730  22.193   2.407
25290W        W97616  25.546  44.174   3.639
25291W        W97617  36.321  18.515   1.607
25292W        W97618  20.400  30.363  14.446
25293W        W97619  43.709  40.869   1.810
25294W        W97620  11.690  36.893  12.912
25295W        W97621  24.420  12.442  11.042
25296W        W97622  23.793   4.722  10.597
25297W        W97623   9.832  18.205  14.333
25298W        W97624  37.417  17.178  11.284
25299W        W97625  15.661  23.568   3.607
25300W        W97626   0.821  24.425  13.012
25301W        W97627  29.512  31.877  12.839
25302W        W97628   2.743  28.232   4.211
25303W        W97629  26.459  44.742  13.466
25304W        W97630   5.302  37.478  13.823
25305W        W97631  21.377  26.867  11.054
25306W        W97632  13.890  36.636  11.098
25307W        W97633  44.636  15.682  14.987
25308W        W97634  13.100  11.548   3.647
25309W        W97635   7.269  38.147   0.319
25310W        W97636  21.664  20.839   2.604
25311W        W97637  35.441  31.048  14.106
25312W        W97638  28.482  39.504  12.403
25313W        W97639   7.529   7.286   0.211
25314W        W97640  21.568  13.850  14.870
25315W        W97641  12.778  38.561   2.327
25316W        W97642   3.361  27.362  12.861
25317W        W97643  31.537  10.734  13.696
25318W        W97644  23.567  32.765  13.158
25319W        W97645  42.602  12.085  10.713
25320W        W97646  34.557   0.231  12.534
25321W        W97647   5.217  40.769   2.880
25322W        W97648  11.356   2.253   1.769
25323W        W97649  29.447  42.590   0.737
25324W        W97650  24.638  43.261   2.634
25325W        W97651   2.553  23.753  10.653
25326W        W97652   7.663  15.359   2.129
25327W        W97653  41.718  18.715   3.716
25328W        W97654   9.081  43.327   4.075
25329W        W97655  33.990  43.741  12.979
25330W        W97656   8.754  34.579   0.405
25331W        W97657  36.483  44.778   1.915
25332W        W97658  21.242  19.787   0.646
25333W        W97659  23.166   3.492  13.889
25334W        W97660  24.568   7.011  11.575
25335W        W97661  43.740   3.948  13.638
25336W        W97662  39.444   1.847   4.688
25337W        W97663  42.379   0.923  12.019
25338W        W97664  31.925  17.095   1.581
25339W        W97665  44.329   3.386   2.696
25340W        W97666  23.486  27.352  10.741
25341W        W97667  19.795   5.556   4.879
25342W        W97668  25.213  26.543   0.716
25343W        W97669   9.609  18.726  14.301
25344W        W97670  10.837  28.390  13.892
25345W        W97671  38.832   2.752  12.594
25346W        W97672  16.759  19.152   2.186
25347W        W97673  34.588  25.574  10.656
25348W        W97674  28.981  26.756   1.376
25349W        W97675  27.291  28.570   5.508
25350W        W97676  26.975  14.552  14.785
25351W        W97677  22.202  18.542  13.957
25352W        W97678  11.739   4.270  12.868
25353W        W97679  40.821  37.340   0.844
25354W        W97680   1.274  28.387  13.114
25355W        W97681  43.302  43.206   4.108
25356W        W97682   9.616  39.512  13.944
25357W        W97683   5.673  14.396   2.207
25358W        W97684  42.414  23.214   4.159
25359W        W97685  43.939  29.119  11.644
25360W        W97686  35.012  14.646  12.858
25361W        W97687   8.288  11.774  12.710
25362W        W97688   3.928  25.890  10.658
25363W        W97689  16.082   1.379   1.787
25364W        W97690   5.106   4.978  12.472
25365W        W97691  35.491   4.718  12.577
25366W        W97692  35.838  11.637  11.544
25367W        W97693  23.174  14.747   3.535
25368W        W97694   3.170  18.546   3.313
25369W        W97695  31.101  31.980   0.727
25370W        W97696  35.061  14.465   0.179
25371W        W97697  31.890   0.777   0.008
25372W        W97698  10.902  30.646   0.354
25373W        W97699  19.118  42.117  12.809
25374W        W97700  29.680  12.344   4.041
25375W        W97701  42.108  16.169  13.402
25376W        W97702   8.177   9.438  11.588
25377W        W97703  36.965  20.798   0.502
25378W        W97704  17.116  32.743  14.788
25379W        W97705  28.514  23.654   3.284
25380W        W97706   8.224  31.626   2.704
25381W        W97707  37.526  38.077  10.651
25382W        W97708  28.569  24.653   2.981
25383W        W97709   4.848  27.935   0.712
25384W        W97710   6.274  12.074   0.346
25385W        W97711  29.914   8.835   3.313
25386W        W97712  15.012  31.056   1.669
25387W        W97713  44.701  43.316  11.497
25388W        W97714  32.157  10.175  12.049
25389W        W97715  26.531  33.825  14.412
25390W        W97716   9.714  22.515  12.978
25391W        W97717  27.850  36.976  13.735
25392W        W97718  10.574   0.013   3.174
25393W        W97719  25.984  10.757   4.106
25394W        W97720  38.042   2.525   1.327
25395W        W97721  10.405  44.738   2.760
25396W        W97722  28.453  27.471   0.333
25397W        W97723  24.687  22.151  14.829
25398W        W97724   8.917   4.803  13.003
25399W        W97725  15.721  22.346   2.089
25400W        W97726  18.749  24.647   3.041
25401W        W97727  37.673  12.181  12.818
25402W        W97728  23.128  23.143  11.077
25403W        W97729  27.654  17.773  14.050
25404W        W97730   0.532  20.703   3.254
25405W        W97731   1.564  11.383  14.025
25406W        W97732  29.637  28.008   0.979
25407W        W97733   2.277   3.426  11.996
25408W        W97734   4.661   6.534  13.840
25409W        W97735  10.727   1.359  10.472
25410W        W97736  43.746  26.696  13.508
25411W        W97737  25.436  15.393   4.259
25412W        W97738  39.917  16.045  11.566
25413W        W97739  41.807  37.657   4.499
25414W        W97740  11.249  20.488   1.360
25415W        W97741  32.272  29.434   3.423
25416W        W97742  17.458   1.763  11.136
25417W        W97743   7.477   8.185   1.279
25418W        W97744   8.351  34.182   2.778
25419W        W97745  10.866  15.731   9.942
25420W        W97746  11.197  10.364   4.263
25421W        W97747  11.487  29.250  14.752
25422W        W97748  11.919  18.660  14.307
25423W        W97749  10.093   7.800   4.741
25424W        W97750  31.403  14.164  12.055
25425W        W97751  24.920   4.585   3.262
25426W        W97752  28.491  30.088   1.824
25427W        W97753  36.315   1.273  11.022
25428W        W97754   9.653  37.775   4.197
25429W        W97755   7.711   1.199  14.747
25430W        W97756  31.532  15.373   4.878
25431W        W97757  35.316  16.633   0.028
25432W        W97758  20.607  40.983  11.928
25433W        W97759   5.366  11.781  10.723
25434W        W97760   4.700  13.864  11.188
25435W        W97761   0.999  14.110  12.913
25436W        W97762  32.847  22.136   3.049
25437W        W97763  22.582  27.357  13.248
25438W        W97764  38.526  35.145   2.307
25439W        W97765   7.435  17.281  11.942
25440W        W97766  43.342  22.579  12.587
25441W        W97767  38.807   4.401   2.869
25442W        W97768  41.430  36.749  14.006
25443W        W97769  43.613   6.716  14.842
25444W        W97770  28.204  43.202   2.173
25445W        W97771  12.667  34.370  11.474
25446W        W97772  28.419  40.390   0.911
25447W        W97773   3.267  34.067   1.637
25448W        W97774  44.483  27.098   4.588
25449W        W97775  37.267  16.629  12.396
25450W        W97776  17.827  35.432  11.669
25451W        W97777  13.834  27.766   4.535
25452W        W97778  29.210  41.066  14.283
25453W        W97779  31.473   3.251   4.953
25454W        W97780  41.252   7.884   1.765
25455W        W97781  38.558  17.222  11.181
25456W        W97782  39.755   2.724   2.254
25457W        W97783  25.589  17.951   5.018
25458W        W97784  40.971  34.797   1.685
25459W        W97785  26.014  39.299  14.179
25460W        W97786  23.023   6.912  12.946
25461W        W97787  32.609  33.366  12.370
25462W        W97788   6.781  27.066  10.943
25463W        W97789  36.309   0.899  11.605
25464W        W97790  38.932  34.808   2.293
25465W        W97791  42.893   5.430   0.933
25466W        W97792   4.294  31.668   3.664
25467W        W97793  38.994   1.827  12.634
25468W        W97794  27.416  35.205   1.533
25469W        W97795  31.659  37.542  13.167
25470W        W97796  25.797  10.852   0.632
25471W        W97797  35.109  14.935   0.389
25472W        W97798  18.180   4.853   0.948
25473W        W97799  16.051  31.120  12.104
25474W        W97800  25.894  44.032  14.552
25475W        W97801  18.746  36.971  14.662
25476W        W97802  42.150  15.506   1.637
25477W        W97803   1.480  33.391   0.805
25478W        W97804  27.039   3.616   2.455
25479W        W97805   9.124  44.609  13.092
25480W        W97806   2.876  44.902   4.884
25481W        W97807   5.779  40.831  13.049
25482W        W97808  22.251  36.202  13.484
25483W        W97809   3.173  32.541  10.540
25484W        W97810  44.357  18.650   1.400
25485W        W97811  39.955   1.395  12.430
25486W        W97812   1.077  25.782   2.310
25487W        W97813  31.510  40.035  11.263
25488W        W97814  15.580  32.625   0.303
25489W        W97815  43.491  14.056   5.079
25490W        W97816  15.591  25.526  11.095
25491W        W97817  16.363  20.157  11.168
25492W        W97818  15.344  13.794  12.358
25493W        W97819  38.533  40.252   2.425
25494W        W97820   1.776  23.739   3.586
25495W        W97821  33.077  34.956  14.557
25496W        W97822  43.948  12.332  13.072
25497W        W97823  23.622  21.934  13.385
25498W        W97824  39.034  28.529  13.866
25499W        W97825  41.550  20.074  10.460
25500W        W97826  18.739  36.558  12.485
25501W        W97827   5.170   0.007  14.091
25502W        W97828  35.281  14.285   4.188
25503W        W97829  21.681   8.142  13.115
25504W        W97830  35.598  18.110   2.201
25505W        W97831  13.575  20.656  12.483
25506W        W97832  11.143  37.278   1.863
25507W        W97833   1.014  30.566   3.030
25508W        W97834  43.181  12.456  12.542
25509W        W97835  15.258  32.182  13.782
25510W        W97836  27.749   2.937  12.533
25511W        W97837  26.627  33.467  11.173
25512W        W97838  38.890   9.608   1.300
25513W        W97839   0.185  39.958  10.609
25514W        W97840  42.307  25.170   0.350
25515W        W97841  18.150  36.613   1.810
25516W        W97842  19.768  14.284   1.833
25517W        W97843  35.340  15.229   0.023
25518W        W97844  15.390  31.475  13.472
25519W        W97845  13.564  18.711   0.918
25520W        W97846  18.508  27.533   0.914
25521W        W97847  25.610  30.224  10.410
25522W        W97848  15.635  11.493  14.519
25523W        W97849  41.861  13.765   0.891
25524W        W97850   5.675  36.370  12.941
25525W        W97851  35.112  18.477  12.074
25526W        W97852  36.130  30.364   1.837
25527W        W97853   8.830  43.004   3.599
25528W        W97854  25.124  20.356   1.872
25529W        W97855  31.626  33.015  12.048
25530W        W97856  17.469  13.883   3.287
25531W        W97857  33.207  19.658   2.808
25532W        W97858  24.413   6.905   1.620
25533W        W97859  27.017  12.045  11.429
25534W        W97860  21.177  44.375  14.947
25535W        W97861  21.503  25.407   4.333
25536W        W97862   8.575  30.406   4.087
25537W        W97863  32.107  11.680  12.500
25538W        W97864  26.600  44.099   2.790
25539W        W97865  43.459  21.342  10.054
25540W        W97866  33.061  20.837   4.270
25541W        W97867  25.488  31.525  14.752
25542W        W97868  14.756  39.874   0.535
25543W        W97869   3.947   9.158   1.862
25544W        W97870   7.427   5.446  13.410
25545W        W97871   7.839  15.990   3.102
25546W        W97872  35.524   6.698  11.818
25547W        W97873  28.157   9.555   0.185
25548W        W97874  26.182  28.449  13.860
25549W        W97875  33.126   1.885   0.248
25550W        W97876  20.533  13.151  12.976
25551W        W97877  19.079   6.756  14.971
25552W        W97878  25.703   9.128  13.873
25553W        W97879  35.645  33.005  13.325
25554W        W97880  14.146   4.217   3.552
25555W        W97881  20.424  19.053  12.583
25556W        W97882  31.819  42.767  14.743
25557W        W97883  24.945  28.809  14.167
25558W        W97884  19.183   1.512   0.342
25559W        W97885   5.766  10.241  10.997
25560W        W97886  30.473   3.799   4.606
25561W        W97887  36.781   9.168   4.393
25562W        W97888  29.773  35.228  12.480
25563W        W97889  27.008  26.467  13.501
25564W        W97890  23.283  19.773  14.139
25565W        W97891   0.405   7.806  12.144
25566W        W97892   0.289  13.861   1.050
25567W        W97893  31.971  22.785  13.375
25568W        W97894  44.312   8.315   0.011
25569W        W97895  20.571  35.118   4.199
25570W        W97896  20.758   4.682   4.191
25571W        W97897  11.032  32.690  13.000
25572W        W97898  20.465   8.702  11.511
25573W        W97899  14.313  20.668  12.126
25574W        W97900  20.190  17.723  12.450
25575W        W97901  18.777  10.688   1.446
25576W        W97902   5.487  19.685  12.827
25577W        W97903   1.850  29.482   4.775
25578W        W97904  33.430   1.473   4.375
25579W        W97905   2.825  42.962  10.565
25580W        W97906  23.444  28.564   3.703
25581W        W97907  33.972  39.841   2.685
25582W        W97908  16.886   4.025  10.371
25583W        W97909  13.714  39.594   4.364
25584W        W97910   9.292  23.117  13.524
25585W        W97911  39.019  43.327   4.909
25586W        W97912  25.467   4.150  13.567
25587W        W97913   7.358  36.537   3.743
25588W        W97914  44.886  41.961   0.975
25589W        W97915  21.963  29.545   2.754
25590W        W97916  16.541  12.130  11.102
25591W        W97917  30.557   7.139   0.307
25592W        W97918  21.471   9.806  11.528
25593W        W97919  34.823   9.738  11.183
25594W        W97920  14.241   8.304  11.434
25595W        W97921   1.818   8.237   4.841
25596W        W97922  38.745  28.087  13.846
25597W        W97923   5.404  25.082  11.231
25598W        W97924   8.762   2.463   2.635
25599W        W97925   6.933   1.727   3.656
25600W        W97926  22.228  26.131  13.291
25601W        W97927  33.807  26.128  10.501
25602W        W97928   5.688  15.346   3.168
25603W        W97929  17.049  17.039  11.091
25604W        W97930  13.401   1.900  11.275
25605W        W97931  39.463   1.709   3.377
25606W        W97932  28.472  27.995  13.830
25607W        W97933  26.016  21.316  12.540
25608W        W97934   3.450   5.521   0.312
25609W        W97935  19.781  14.066   2.831
25610W        W97936  38.793  41.066  11.617
25611W        W97937  38.254   8.705  14.394
25612W        W97938  23.274  27.774  12.956
25613W        W97939  31.037  10.847  13.529
25614W        W97940  35.359  22.786  10.460
25615W        W97941  36.796  25.772  12.565
25616W        W97942   5.702  30.367   3.681
25617W        W97943  35.017  36.920  11.670
25618W        W97944  16.657  23.496   0.354
25619W        W97945  22.783  13.815  11.052
25620W        W97946  16.199  27.418  12.359
25621W        W97947  22.297   4.141  14.978
25622W        W97948  29.590  43.224  14.908
25623W        W97949  12.350   7.641   4.072
25624W        W97950  37.357   0.296   0.194
25625W        W97951  18.975   5.305  13.852
25626W        W97952  14.120  38.142   2.276
25627W        W97953  37.077   4.948  11.611
25628W        W97954  42.216  34.009  14.235
25629W        W97955   1.346  27.471   4.048
25630W        W97956  20.683   4.612  10.753
25631W        W97957  39.412   3.083  14.455
25632W        W97958  32.473  12.320  10.778
25633W        W97959  17.243   2.970   1.761
25634W        W97960  31.429   2.055   0.032
25635W        W97961  37.552   9.350   4.286
25636W        W97962  35.567  18.690  12.933
25637W        W97963   3.957   1.964  12.153
25638W        W97964  30.993  11.112   1.725
25639W        W97965  16.046  42.121   3.186
25640W        W97966  14.673  40.498  12.870
25641W        W97967  34.615  25.159   2.918
25642W        W97968  36.521  43.354   2.644
25643W        W97969  19.732  26.056  11.374
25644W        W97970  32.978  13.788   4.754
25645W        W97971  12.238  42.792  13.357
25646W        W97972  29.909   7.851  11.180
25647W        W97973  32.966  22.669  13.965
25648W        W97974  17.633  12.209   1.439
25649W        W97975  19.202  19.713  12.879
25650W        W97976  42.486  37.192   3.329
25651W        W97977  11.241   5.275   3.752
25652W        W97978   9.901  12.294  10.649
25653W        W97979  33.526  44.330   2.368
25654W        W97980  40.570  29.522   3.701
25655W        W97981  30.029  43.231   1.785
25656W        W97982  17.047  13.317   0.723
25657W        W97983  24.415  19.657   1.609
25658W        W97984  13.741   8.511   5.031
25659W        W97985  12.600  20.951   0.895
25660W        W97986   8.285   9.729   0.301
25661W        W97987  13.322  39.773  11.185
25662W        W97988  16.522  43.352  10.685
25663W        W97989  18.652  24.704  13.291
25664W        W97990  37.041  39.744  12.405
25665W        W97991  11.677  43.697   4.544
25666W        W97992  16.545  33.272  11.167
25667W        W97993  29.551  10.340   2.164
25668W        W97994  43.894  31.467   1.309
25669W        W97995  20.494  12.781  13.357
25670W        W97996  38.128  34.645   2.680
25671W        W97997  24.181  18.264   3.911
25672W        W97998  29.908   6.375  14.843
25673W        W97999  37.420  41.797  11.637
25674W        W98000  29.451   5.370  13.789
25675W        W98001  16.891  37.643  10.914
25676W        W98002  13.309  18.154  13.847
25677W        W98003  33.848  12.319  12.074
25678W        W98004  18.744  44.362  12.105
25679W        W98005  32.465  41.197  12.762
25680W        W98006  25.993  34.605   2.138
25681W        W98007  42.984  40.511  10.678
25682W        W98008  15.327   7.791  11.112
25683W        W98009  20.088  30.915   3.572
25684W        W98010  14.064  28.053  11.105
25685W        W98011  34.327  15.161   0.330
25686W        W98012   8.135   3.879   4.826
25687W        W98013  32.047   4.855   1.254
25688W        W98014  17.291  10.979   4.614
25689W        W98015  21.476  23.182  14.915
25690W        W98016  22.743  22.156   3.878
25691W        W98017  27.319  18.819  10.764
25692W        W98018  15.040  29.473  11.247
25693W        W98019  42.757   7.492  11.955
25694W        W98020  30.040  16.249   4.579
25695W        W98021  30.543  11.108  10.583
25696W        W98022  44.766   6.206   4.859
25697W        W98023  26.438  33.171   5.021
25698W        W98024   9.636  13.624  14.433
25699W        W98025  39.481  20.574  12.865
25700W        W98026   7.709   2.783  14.820
25701W        W98027   0.320  27.205  14.761
25702W        W98028   3.752  10.673  12.939
25703W        W98029  12.802  35.987  12.933
25704W        W98030  39.574  32.009   1.460
25705W        W98031   4.848  10.578  13.793
25706W        W98032  15.386  17.233   0.796
25707W        W98033  14.197  30.644   1.664
25708W        W98034  37.328  21.520   1.503
25709W        W98035   2.149  43.260   4.033
25710W        W98036   5.613  16.096  11.027
25711W        W98037  43.005  20.192   2.293
25712W        W98038  15.386  40.570   3.768
25713W        W98039  40.194  15.142   2.733
25714W        W98040  13.344   1.264  13.362
25715W        W98041  44.339  11.605  12.836
25716W        W98042   1.984  39.400  12.248
25717W        W98043   5.660  12.794  14.751
25718W        W98044  44.083  40.460  11.500
25719W        W98045  13.830  18.643  12.361
25720W        W98046  40.183  43.356  11.398
25721W        W98047  40.904  15.382  11.092
25722W        W98048   1.448   1.043   3.123
25723W        W98049  33.058  36.926   1.502
25724W        W98050  42.635  14.030   0.356
25725W        W98051   1.817   8.178  14.225
25726W        W98052   4.504  22.484   5.633
25727W        W98053   6.346  12.716   2.172
25728W        W98054  35.608  11.116   2.250
25729W        W98055  42.012   0.507  10.736
25730W        W98056  29.636  25.628   0.761
25731W        W98057   4.885   3.391   2.120
25732W        W98058  40.919  30.979   2.509
25733W        W98059  11.796  11.136   2.541
25734W        W98060  14.234   3.379  13.357
25735W        W98061  33.691  17.180   0.642
25736W        W98062   6.000   7.398   2.946
25737W        W98063   1.945  33.710  12.153
25738W        W98064  30.868  20.637  12.052
25739W        W98065   8.787  28.082  13.881
25740W        W98066  44.540   2.682   1.714
25741W        W98067  43.240  13.576  13.081
25742W        W98068  40.453  34.918  10.310
25743W        W98069  38.732  36.522  11.438
25744W        W98070   7.033  33.329  14.987
25745W        W98071   6.862  31.099  12.110
25746W        W98072  26.539  39.838  13.676
25747W        W98073  24.435  41.456   0.879
25748W        W98074  24.195   3.713  13.858
25749W        W98075   8.322  10.635   3.665
25750W        W98076  36.042   3.223   0.980
25751W        W98077  26.829  14.597  12.088
25752W        W98078  19.500   8.281   3.180
25753W        W98079  39.420  22.099   4.123
25754W        W98080  44.245  39.873  13.641
25755W        W98081  39.101  27.802   4.575
25756W        W98082   8.324   1.508   1.840
25757W        W98083  23.050  11.446  12.927
25758W        W98084   7.291  39.853   2.852
25759W        W98085  16.306  36.306   0.851
25760W        W98086   3.876  15.153   1.467
25761W        W98087  18.404  40.116  12.666
25762W        W98088  43.939   0.410   2.640
25763W        W98089  44.460  31.657   0.748
25764W        W98090   9.836  36.578  11.862
25765W        W98091   3.316  10.104   4.168
25766W        W98092  27.457  17.395   3.339
25767W        W98093  14.316   5.676   2.318
25768W        W98094  31.588  40.369  12.358
25769W        W98095  26.429  29.725  11.274
25770W        W98096  19.108  19.457  14.026
25771W        W98097  19.700   3.348  12.984
25772W        W98098  31.031  44.843   2.634
25773W        W98099  23.967  31.366   3.632
25774W        W98100  23.028  19.608  12.002
25775W        W98101  29.561  42.147   4.551
25776W        W98102  44.833   6.309   4.363
25777W        W98103  11.307  14.568   3.331
25778W        W98104  10.297  26.920  13.384
25779W        W98105  15.616   7.287  12.024
25780W        W98106   8.332  41.810   3.150
25781W        W98107  43.985  16.826   4.203
25782W        W98108  26.919  24.133   3.729
25783W        W98109   7.394  43.394   1.164
25784W        W98110  29.815  17.692   0.569
25785W        W98111   8.425  14.651  12.307
25786W        W98112  19.145  42.641  12.822
25787W        W98113  43.705  41.572   4.427
25788W        W98114  25.617  19.171  12.765
25789W        W98115  26.478  19.620  14.983
25790W        W98116  20.637  16.392  10.674
25791W        W98117   8.263  26.488   2.728
25792W        W98118  19.089  20.749   4.161
25793W        W98119  27.013  40.765   0.727
25794W        W98120  15.794  44.721  13.937
25795W        W98121  24.527  36.364   0.467
25796W        W98122   1.984  34.037   0.884
25797W        W98123  17.551  43.806  13.332
25798W        W98124  44.092  12.947   1.873
25799W        W98125  30.174  33.875   0.921
25800W        W98126   3.163  31.852  13.939
25801W        W98127  18.219   6.879   4.671
25802W        W98128  11.301  42.840  13.331
25803W        W98129  10.203  30.121   0.862
25804W        W98130  14.861  29.505   4.326
25805W        W98131   6.408  38.598   1.831
25806W        W98132   3.164  37.915  10.423
25807W        W98133   2.404  20.696  14.814
25808W        W98134  18.502   4.954   0.445
25809W        W98135  13.904  26.183   2.998
25810W        W98136  21.020  29.072   1.593
25811W        W98137  14.818   3.652   3.149
25812W        W98138  24.645  44.169   2.158
25813W        W98139  24.785   5.317  13.550
25814W        W98140  25.597   9.633   1.270
25815W        W98141  33.136  28.198  12.094
25816W        W98142  15.254  41.919  14.845
25817W        W98143  13.347  42.884  11.146
25818W        W98144   0.777  24.576   0.554
25819W        W98145  25.497  41.581  14.319
25820W        W98146  23.299  29.586  12.196
25821W        W98147  24.941  31.085  11.978
25822W        W98148   9.104  12.188   3.264
25823W        W98149  40.518  36.598  12.019
25824W        W98150  33.822   6.182  11.941
25825W        W98151   3.856  26.273  11.609
25826W        W98152  14.196  32.621  10.935
25827W        W98153  37.011   3.033   4.942
25828W        W98154  19.038  18.630   2.636
25829W        W98155  25.691  40.489   2.924
25830W        W98156  40.322  34.539  10.655
25831W        W98157   2.359  16.446   0.959
25832W        W98158  23.781  26.279   4.763
25833W        W98159  29.171  16.074   4.460
25834W        W98160   7.644  39.875   1.250
25835W        W98161   3.423  30.617   3.620
25836W        W98162   6.938  24.853   3.606
25837W        W98163  32.412  18.266  12.037
25838W        W98164  40.319  19.256  14.391
25839W        W98165   4.294  44.624  11.174
25840W        W98166  18.881   4.531   5.025
25841W        W98167  16.212   2.386   1.696
25842W        W98168   3.819   2.392   2.210
25843W        W98169  19.065  33.540  11.356
25844W        W98170   7.716  38.935  12.110
25845W        W98171  30.367   9.891   4.512
25846W        W98172  12.453   5.442  14.847
25847W        W98173   2.436  19.777   3.278
25848W        W98174  28.990  16.660  14.039
25849W        W98175   4.865   0.154  12.425
25850W        W98176  42.308  24.555   4.288
25851W        W98177  40.439  20.634  14.883
25852W        W98178  29.885   6.939  11.195
25853W        W98179  16.237  15.857  14.486
25854W        W98180  43.901  30.427   0.700
25855W        W98181  29.854  41.204   4.277
25856W        W98182  42.911   5.822   4.910
25857W        W98183  17.119   4.484  13.364
25858W        W98184  33.865  19.658  11.419
25859W        W98185  27.268  13.617  11.140
25860W        W98186  31.855  12.401  14.237
25861W        W98187  24.274  25.610  11.224
25862W        W98188   5.113  20.089  11.719
25863W        W98189  14.331  33.926  10.112
25864W        W98190  42.425  29.179  11.539
25865W        W98191  31.467  40.866  12.499
25866W        W98192  28.071  17.568  14.339
25867W        W98193  35.093  41.862   0.324
25868W        W98194   9.503  10.667  13.416
25869W        W98195  29.019   3.227   0.142
25870W        W98196  15.344  20.094  11.385
25871W        W98197  35.169  44.155  14.343
25872W        W98198   0.585  17.652  14.872
25873W        W98199  25.994  33.352  14.812
25874W        W98200  24.020  29.530   4.059
25875W        W98201   7.240  41.946  11.996
25876W        W98202  24.205  20.694   0.260
25877W        W98203  13.692   0.781   2.920
25878W        W98204  17.346  29.033  10.156
25879W        W98205  15.538  17.734  12.814
25880W        W98206   2.185  17.280   4.022
25881W        W98207   3.733   1.025   2.343
25882W        W98208  42.985   1.883  12.083
25883W        W98209   0.936  37.903  13.331
25884W        W98210  28.044  39.824   3.821
25885W        W98211  26.922  25.630  12.995
25886W        W98212  29.040  12.564  12.517
25887W        W98213  27.823  22.531  12.545
25888W        W98214  20.086  19.865  13.424
25889W        W98215  10.852   6.879  12.009
25890W        W98216   5.825  14.812  12.037
25891W        W98217   0.754  23.090   3.814
25892W        W98218   9.732  41.580  10.989
25893W        W98219   9.442  10.633   4.778
25894W        W98220  28.043  39.472   0.446
25895W        W98221   4.942  32.518  13.915
25896W        W98222   1.010  37.949  14.263
25897W        W98223  31.957  43.135   0.695
25898W        W98224  17.499   5.170   4.546
25899W        W98225  44.740  29.971  12.633
25900W        W98226  36.436  11.822  10.790
25901W        W98227   1.957  31.055  10.656
25902W        W98228  34.994   0.774   2.626
25903W        W98229  22.181  16.789   5.189
25904W        W98230  30.241  13.977   2.233
25905W        W98231  36.847   4.848  12.054
25906W        W98232  31.336  16.656   4.031
25907W        W98233  28.442  33.068   1.015
25908W        W98234   1.920   1.005   1.431
25909W        W98235  16.261  17.440  11.683
25910W        W98236   3.097   9.710  11.121
25911W        W98237  27.435  21.697  14.571
25912W        W98238  42.792  29.059   2.308
25913W        W98239   0.689   3.061  11.460
25914W        W98240  41.796  18.260   2.502
25915W        W98241   5.427  16.248   3.163
25916W        W98242  36.172  18.287   3.644
25917W        W98243  15.198  12.777   3.855
25918W        W98244  14.637  25.393  12.522
25919W        W98245  17.839  41.232  11.202
25920W        W98246  44.281  18.362  13.500
25921W        W98247  35.947  33.479   2.913
25922W        W98248  26.118  37.408   3.308
25923W        W98249  27.708  28.658   4.592
25924W        W98250  29.902  40.881  14.835
25925W        W98251  20.381  37.262   3.490
25926W        W98252  43.376   1.603  14.890
25927W        W98253  24.982  13.344   1.433
25928W        W98254  41.880  14.049  14.951
25929W        W98255   7.452  24.499   0.018
25930W        W98256  29.694  11.388   1.915
25931W        W98257   4.902  43.362   1.322
25932W        W98258  24.724   7.361  11.208
25933W        W98259  30.906  14.518   1.926
25934W        W98260  12.236  34.696   0.006
25935W        W98261   2.674  12.054   2.732
25936W        W98262  31.202  43.718   4.171
25937W        W98263  39.587  23.951  13.510
25938W        W98264  18.533  31.038   1.485
25939W        W98265  40.412  43.255   0.272
25940W        W98266  23.624  27.086  11.196
25941W        W98267  28.950  34.558  11.610
25942W        W98268  17.358  39.429  14.971
25943W        W98269  34.312  29.564  11.552
25944W        W98270  25.059  11.181  13.327
25945W        W98271  23.449   4.430   2.629
25946W        W98272  43.794  17.058  10.581
25947W        W98273  34.308  17.529  11.570
25948W        W98274  29.859  39.877   4.119
25949W        W98275  24.663  19.004  11.049
25950W        W98276  11.820   9.740   3.297
25951W        W98277   0.745  20.613  13.369
25952W        W98278   2.908  30.119   3.631
25953W        W98279  43.419  25.682   0.945
25954W        W98280  30.350   4.500   0.237
25955W        W98281  34.442  23.694  11.546
25956W        W98282  19.690  40.616   1.508
25957W        W98283  27.346  26.470  11.524
25958W        W98284  32.082   3.880  12.942
25959W        W98285  20.254  34.337   0.493
25960W        W98286  36.580  36.149   4.261
25961W        W98287  18.018  13.794   4.240
25962W        W98288  11.852  11.568   4.098
25963W        W98289  32.600  27.489  13.552
25964W        W98290  29.641   8.210   2.815
25965W        W98291  41.804   0.544   2.778
25966W        W98292  28.550  41.320  10.739
25967W        W98293  39.313  19.051  12.853
25968W        W98294  42.934  38.923   3.218
25969W        W98295  11.584   6.824   4.426
25970W        W98296  19.068   8.894  11.192
25971W        W98297  39.385  39.074   2.338
25972W        W98298  27.742  36.000   3.173
25973W        W98299  30.005  40.376  14.704
25974W        W98300  41.342   5.293  13.390
25975W        W98301  20.733  44.785   3.987
25976W        W98302  41.848  38.343  13.343
25977W        W98303  35.821  37.321   2.404
25978W        W98304   5.197  12.403  12.559
25979W        W98305  34.096  13.194   1.391
25980W        W98306  26.068  40.143   2.731
25981W        W98307  32.047  32.689   1.182
25982W        W98308  25.900  32.588  13.240
25983W        W98309  10.701  25.705  13.573
25984W        W98310  38.919   4.304   3.734
25985W        W98311  20.224  15.486   4.545
25986W        W98312   0.815  13.884   2.262
25987W        W98313  37.165  33.457  13.831
25988W        W98314  35.431   9.632   0.407
25989W        W98315  36.117  32.415   4.158
25990W        W98316  27.645  31.101   4.600
25991W        W98317  13.150   8.882   2.374
25992W        W98318  20.187  14.828   3.747
25993W        W98319   3.018   3.764   2.257
25994W        W98320  29.173  10.832  12.484
25995W        W98321  15.399  23.660   2.360
25996W        W98322  36.533  42.509  14.528
25997W        W98323  43.462  38.126   3.238
25998W        W98324  12.616  37.541   1.631
25999W        W98325  30.138   5.957   2.724
26000W        W98326  43.276  32.662   3.653
26001W        W98327  39.698  36.253   1.157
26002W        W98328   5.964  18.153   2.851
26003W        W98329  39.516   0.838  10.712
26004W        W98330   8.992  37.510   3.371
26005W        W98331   6.325  25.733   0.433
26006W        W98332  18.796  36.028  14.938
26007W        W98333   4.612  18.437   1.375
26008W        W98334  40.366  35.111  11.365
26009W        W98335  39.049   4.716  13.381
26010W        W98336  18.526  29.048  14.009
26011W        W98337  10.420   2.839   0.907
26012W        W98338  17.095   8.278   2.256
26013W        W98339  33.665   4.216   4.153
26014W        W98340  34.960  33.332  12.870
26015W        W98341  29.363   1.771   1.205
26016W        W98342   9.329   9.089  14.966
26017W        W98343  28.512   8.760  11.176
26018W        W98344  18.681  38.148  12.475
26019W        W98345  18.790  44.038  10.951
26020W        W98346  41.258  18.165   0.717
26021W        W98347  14.856  36.305   4.203
26022W        W98348  10.661  25.549   3.469
26023W        W98349   6.801  33.896  13.605
26024W        W98350  42.601  16.196  13.521
26025W        W98351  41.785  20.652  12.591
26026W        W98352  33.491  25.660   2.174
26027W        W98353  43.446  27.409  12.104
26028W        W98354  29.012  33.948  14.758
26029W        W98355  39.603  18.691  12.397
26030W        W98356   3.289  40.316   0.164
26031W        W98357  42.886  33.476  14.384
26032W        W98358  40.287  39.974  14.113
26033W        W98359  25.033  39.946  13.542
26034W        W98360  40.083  14.551  14.771
26035W        W98361  31.967  36.144   1.746
26036W        W98362  30.675  14.785   2.342
26037W        W98363  31.116  24.017   1.999
26038W        W98364  44.659   3.070  11.548
26039W        W98365  39.230   9.908  11.721
26040W        W98366  13.840  40.537   0.912
26041W        W98367   7.067  11.261   0.378
26042W        W98368  42.516  40.221  14.962
26043W        W98369  35.048  25.967   1.473
26044W        W98370   3.638  39.894   1.576
26045W        W98371  44.022   1.483   1.308
26046W        W98372  43.215   1.001  14.286
26047W        W98373  40.565  38.953   2.343
26048W        W98374  26.130  26.833  11.012
26049W        W98375  16.253  27.000  12.876
26050W        W98376  22.885  34.437   1.413
26051W        W98377  36.334  20.658  11.467
26052W        W98378  30.922  29.533   0.259
26053W        W98379  24.938  25.415  11.949
26054W        W98380  19.559  44.795   2.502
26055W        W98381   3.261  23.471   3.672
26056W        W98382  29.617   8.863  12.156
26057W        W98383  23.652  22.034   2.927
26058W        W98384   8.545  35.824   2.874
26059W        W98385  13.354  25.012  12.978
26060W        W98386  28.182  36.125   9.857
26061W        W98387  31.223  33.754   3.002
26062W        W98388  27.720   3.098   4.793
26063W        W98389  20.713  25.191   0.390
26064W        W98390   3.271  12.803   4.601
26065W        W98391  12.533  39.288   0.444
26066W        W98392   6.227  15.678  12.362
26067W        W98393  16.994  41.624  11.301
26068W        W98394  31.119  25.961   2.412
26069W        W98395  25.512  18.043   2.751
26070W        W98396  14.303   5.516   1.011
26071W        W98397  13.501  33.432   5.515
26072W        W98398  42.935  10.191  10.601
26073W        W98399  16.700  33.023  14.710
26074W        W98400   1.375  29.635   2.361
26075W        W98401  24.958   7.939  12.928
26076W        W98402   8.584  40.157  14.751
26077W        W98403  42.528  13.626   3.636
26078W        W98404  24.253  21.109  14.942
26079W        W98405  17.030  14.683   0.362
26080W        W98406  24.668  33.914  11.998
26081W        W98407  10.462  26.443   1.298
26082W        W98408  25.674  39.443  14.959
26083W        W98409  25.957  34.876   3.760
26084W        W98410  37.082   3.887   1.278
26085W        W98411  16.553  39.279  12.106
26086W        W98412   2.558  11.029  10.766
26087W        W98413  25.466  16.431   2.150
26088W        W98414  40.175  32.524  14.942
26089W        W98415   4.674  19.511  11.889
26090W        W98416   5.794  17.158  12.942
26091W        W98417   2.170  23.050  13.294
26092W        W98418  32.528   5.800   9.659
26093W        W98419   3.536  42.972   4.252
26094W        W98420  30.955   9.232  13.886
26095W        W98421  37.440  12.713  13.490
26096W        W98422  27.527  10.273  12.506
26097W        W98423   9.724  23.103   3.558
26098W        W98424   4.794   8.197   2.347
26099W        W98425   9.929   1.490  14.271
26100W        W98426   2.482  39.369   0.851
26101W        W98427   4.358  37.402   1.361
26102W        W98428  23.262  43.265   4.215
26103W        W98429  25.467  21.420   2.578
26104W        W98430  31.469  34.053   2.173
26105W        W98431  29.472  12.270  12.383
26106W        W98432  26.833  10.452   3.586
26107W        W98433  23.588  19.760   3.149
26108W        W98434   5.964   9.839  14.017
26109W        W98435  27.489  23.872  12.415
26110W        W98436   6.422  44.796  12.101
26111W        W98437  11.216  42.335   2.286
26112W        W98438  43.001  30.804   4.405
26113W        W98439  31.722  43.980   2.200
26114W        W98440  26.652  31.927  14.631
26115W        W98441  21.502  37.551  14.727
26116W        W98442  19.472  41.914  13.385
26117W        W98443  27.610  10.654   3.433
26118W        W98444   2.818  18.211  12.971
26119W        W98445  35.416  29.081  11.380
26120W        W98446   9.808   7.358  14.288
26121W        W98447   2.167  32.457  10.503
26122W        W98448  20.800  37.052  12.093
26123W        W98449  15.417   6.796  11.954
26124W        W98450  27.944  44.247   2.133
26125W        W98451  20.028  44.441  13.006
26126W        W98452  29.661  36.540  12.480
26127W        W98453  33.498   6.303   1.333
26128W        W98454  10.792   0.234   1.960
26129W        W98455  34.080  17.688   1.838
26130W        W98456  42.412  38.656   4.241
26131W        W98457  40.588   8.273  13.761
26132W        W98458  17.278  21.515   0.950
26133W        W98459  20.456  37.850   1.007
26134W        W98460  42.200  23.938   0.798
26135W        W98461  21.149  15.517   2.096
26136W        W98462   4.495  23.611  11.938
26137W        W98463  30.321  14.188  11.627
26138W        W98464  17.551   6.700  14.964
26139W        W98465   1.263   7.808   2.751
26140W        W98466  28.232  34.303  12.121
26141W        W98467  17.292  32.072   4.209
26142W        W98468   8.796   4.700  12.500
26143W        W98469   0.547  23.461  12.371
26144W        W98470  28.685  35.121   0.288
26145W        W98471   5.409  44.099   0.224
26146W        W98472  30.939  10.122  10.050
26147W        W98473  11.168  17.349   1.848
26148W        W98474   9.411  36.058   0.768
26149W        W98475  42.085   1.269   0.433
26150W        W98476  24.036  43.819  11.672
26151W        W98477   5.273  18.119   3.423
26152W        W98478  36.646   9.518   1.186
26153W        W98479  30.687  22.153   4.756
26154W        W98480  33.461  31.671   2.693
26155W        W98481  32.199   6.886  14.960
26156W        W98482   0.278  42.398   2.208
26157W        W98483  10.777  32.701   0.332
26158W        W98484  18.626  10.630   3.592
26159W        W98485  19.626   7.941   0.948
26160W        W98486  35.102  37.197   3.316
26161W        W98487  37.089  18.024  14.829
26162W        W98488  20.746   5.115  10.695
26163W        W98489  43.180  24.215  14.948
26164W        W98490  44.916   1.418   0.482
26165W        W98491   0.410  10.637   2.874
26166W        W98492  20.098   3.862  12.362
26167W        W98493  11.850   6.738  14.993
26168W        W98494  42.617   5.839   0.470
26169W        W98495  20.234  11.607   0.282
26170W        W98496   2.127  23.962   9.839
26171W        W98497  35.989  41.385  11.949
26172W        W98498  18.748  23.502  14.373
26173W        W98499  17.548   3.158   2.870
26174W        W98500   1.803  31.686  13.072
26175W        W98501  15.039  11.178  13.400
26176W        W98502  31.663  21.323   2.194
26177W        W98503  42.066   8.131   0.298
26178W        W98504   3.525  19.093  14.342
26179W        W98505  16.040   0.014  14.459
26180W        W98506  35.779   5.233   3.664
26181W        W98507  13.838  24.753  14.491
26182W        W98508  36.233  44.636  12.956
26183W        W98509  29.090  27.923   5.646
26184W        W98510  23.567  18.138  12.432
26185W        W98511  39.577  17.299  10.465
26186W        W98512   4.893  32.918   4.632
26187W        W98513  23.752  36.802  14.925
26188W        W98514  16.664  43.001   1.928
26189W        W98515   7.712  19.721   2.798
26190W        W98516  19.526  26.582   3.227
26191W        W98517   5.588  28.045  10.765
26192W        W98518  23.543  11.701  10.479
26193W        W98519   5.309  22.185  11.651
26194W        W98520  11.869  34.398  14.759
26195W        W98521  30.846  33.449   2.761
26196W        W98522  32.136  33.861  13.105
26197W        W98523  25.740   5.250  10.520
26198W        W98524  41.627  41.259  13.334
26199W        W98525  17.976  42.177  13.081
26200W        W98526  11.912  15.784   0.329
26201W        W98527   5.796   4.448   0.053
26202W        W98528  29.446  26.925  11.998
26203W        W98529  28.634  26.592   0.040
26204W        W98530  18.053  35.012   1.505
26205W        W98531  26.485   6.778  13.655
26206W        W98532  14.626  39.466   0.269
26207W        W98533  38.404  40.595  12.574
26208W        W98534  28.356  43.352   3.879
26209W        W98535  33.844  19.612  14.025
26210W        W98536  21.345  43.688  13.932
26211W        W98537  21.149  43.961   4.171
26212W        W98538  14.714  22.955   3.718
26213W        W98539  44.057  34.836   4.228
26214W        W98540  19.460  11.671   1.684
26215W        W98541  13.046  23.272   4.095
26216W        W98542  35.665   1.892   1.935
26217W        W98543  40.932  37.298  14.263
26218W        W98544  41.940   6.217  12.071
26219W        W98545   2.685  20.555   2.262
26220W        W98546  28.751  30.956   2.050
26221W        W98547  23.821  12.236   4.082
26222W        W98548  36.075   2.778  12.097
26223W        W98549   3.666  26.262   2.879
26224W        W98550   9.144  41.491  13.605
26225W        W98551  19.117  23.037   0.282
26226W        W98552   2.182  20.702   9.748
26227W        W98553  18.949  36.413  14.467
26228W        W98554   2.730  20.557  12.058
26229W        W98555   6.933  29.602  12.078
26230W        W98556   8.942  35.887   0.653
26231W        W98557  27.105  12.750  13.470
26232W        W98558  20.619  44.980  12.423
26233W        W98559  10.840   9.195   1.382
26234W        W98560  35.063  34.146   3.312
26235W        W98561   6.291  15.138  10.741
26236W        W98562  10.910  28.446   0.907
26237W        W98563   9.690  32.907  11.080
26238W        W98564   7.599  30.387  12.438
26239W        W98565  39.196   9.203   1.348
26240W        W98566  35.290  10.324  13.188
26241W        W98567  16.220  23.258   0.207
26242W        W98568  28.078  34.672   3.895
26243W        W98569  18.249  12.329  12.973
26244W        W98570   4.326   0.940   1.495
26245W        W98571   3.183  17.716  10.991
26246W        W98572  30.949   2.443   3.616
26247W        W98573   6.248  36.594   0.665
26248W        W98574  23.002  38.940  11.593
26249W        W98575  32.485  42.329   0.514
26250W        W98576   0.185  33.009  12.678
26251W        W98577  39.479  16.065  14.380
26252W        W98578  19.276   4.647  12.748
26253W        W98579  17.789  35.500  12.983
26254W        W98580  35.563  27.638   4.057
26255W        W98581  37.524  18.214   3.490
26256W        W98582   9.316  26.071   4.449
26257W        W98583   5.481  15.803   3.986
26258W        W98584  16.231  24.260   0.321
26259W        W98585  41.256   8.437  11.523
26260W        W98586  41.813  13.231   1.722
26261W        W98587  25.352   6.751   3.178
26262W        W98588  19.741  42.563  13.003
26263W        W98589  34.666  30.433   1.680
26264W        W98590  33.221   2.498   1.922
26265W        W98591   2.212  19.106  11.154
26266W        W98592  43.870  39.276  13.892
26267W        W98593  35.543   8.612  12.031
26268W        W98594  36.084  30.907   3.667
26269W        W98595  14.353  28.137   0.496
26270W        W98596  42.349  35.454   2.380
26271W        W98597  37.386  28.846   1.819
26272W        W98598  17.097   2.528   0.712
26273W        W98599   3.123  36.447   3.862
26274W        W98600  38.589  38.660  11.044
26275W        W98601  16.401  38.434  11.126
26276W        W98602  17.101   4.221  12.910
26277W        W98603  30.570  11.932  11.169
26278W        W98604  33.351   1.649  14.828
26279W        W98605  16.834   4.747  11.834
26280W        W98606  36.329   2.253   4.685
26281W        W98607   3.198  12.747   3.780
26282W        W98608  38.333  44.284   0.615
26283W        W98609  14.619   4.755   0.732
26284W        W98610  18.773  14.752   4.212
26285W        W98611  28.278   5.597  10.765
26286W        W98612  37.672  15.217  14.921
26287W        W98613  27.901  21.706  14.328
26288W        W98614  35.352  37.518  14.478
26289W        W98615  14.593  32.928   2.660
26290W        W98616  34.969  24.781  10.720
26291W        W98617   6.633  15.899  14.319
26292W        W98618  19.563   6.808  14.795
26293W        W98619  25.569  23.230  13.549
26294W        W98620   5.025  26.168  13.521
26295W        W98621  17.132   3.946   3.396
26296W        W98622  35.882  37.072  12.945
26297W        W98623  19.209  29.365  13.549
26298W        W98624   4.326  30.609   3.620
26299W        W98625  26.946   7.203  10.692
26300W        W98626  43.044   0.959   2.480
26301W        W98627   4.989   0.683  12.377
26302W        W98628  34.857   8.297   3.647
26303W        W98629  11.047  43.579   4.147
26304W        W98630  37.365  26.420  12.379
26305W        W98631   5.627  31.425   1.225
26306W        W98632   8.675  37.627   0.145
26307W        W98633   4.905  27.615   0.287
26308W        W98634  42.797  33.573  13.348
26309W        W98635  32.447  29.173  13.476
26310W        W98636  36.340   6.906   0.973
26311W        W98637  37.156   5.998   4.817
26312W        W98638   9.315  28.678   2.728
26313W        W98639  16.598  42.117   0.760
26314W        W98640  34.810  31.086   2.810
26315W        W98641  22.221  10.812   3.599
26316W        W98642  37.048   3.884  10.678
26317W        W98643  37.542  18.984  14.803
26318W        W98644  31.113  35.901   0.419
26319W        W98645  22.907  33.514   2.844
26320W        W98646  22.735  42.343   4.132
26321W        W98647  21.234   4.986   1.911
26322W        W98648  40.890  11.452   2.163
26323W        W98649  41.940  19.750   2.919
26324W        W98650  36.387  14.134  11.484
26325W        W98651  38.857  29.185   4.023
26326W        W98652   1.776  29.847  12.374
26327W        W98653  38.860  42.427   1.992
26328W        W98654  11.160  33.543   1.067
26329W        W98655   8.838   3.059  11.606
26330W        W98656  22.190   7.000   1.315
26331W        W98657  37.661  41.796   5.228
26332W        W98658  37.244  33.105   4.520
26333W        W98659  30.952   1.872  14.926
26334W        W98660   6.836  35.041   0.317
26335W        W98661  39.453   9.697   3.598
26336W        W98662  20.201  33.314  12.629
26337W        W98663   6.399  30.923  11.921
26338W        W98664   9.876   0.414  12.502
26339W        W98665  40.976   3.351   2.614
26340W        W98666  26.606   5.849  12.587
26341W        W98667  31.986  39.571  12.504
26342W        W98668  34.081  44.355   4.368
26343W        W98669  28.094  20.959   4.768
26344W        W98670  21.038   2.701  11.125
26345W        W98671   5.651  19.624  11.045
26346W        W98672  10.590   2.138  14.861
26347W        W98673   9.397  31.437   0.811
26348W        W98674  35.753  42.638   2.818
26349W        W98675  15.634  21.891   2.864
26350W        W98676  17.648  15.073  10.518
26351W        W98677   2.376  30.497  11.082
26352W        W98678  16.196  39.725  14.302
26353W        W98679   6.265  21.071  13.620
26354W        W98680  22.967  32.649  13.374
26355W        W98681   1.743  29.134  12.155
26356W        W98682  36.980  36.741   1.309
26357W        W98683  37.930   8.284   1.193
26358W        W98684  28.518  41.381  11.628
26359W        W98685   8.446  44.236  14.868
26360W        W98686  21.258  11.248  10.241
26361W        W98687  38.957  15.117   0.251
26362W        W98688   6.135   5.639  13.589
26363W        W98689  12.872  10.485   1.220
26364W        W98690  26.188   4.242  12.968
26365W        W98691  18.433  11.376  14.837
26366W        W98692   9.786   6.380  14.371
26367W        W98693  14.901  29.028   1.601
26368W        W98694  13.604  28.671   3.704
26369W        W98695  12.202  29.906  12.920
26370W        W98696   8.751  14.618  13.280
26371W        W98697  41.953  32.126   1.611
26372W        W98698  19.105  22.464  14.420
26373W        W98699  27.260  44.502  13.863
26374W        W98700  39.984  10.086  11.580
26375W        W98701  11.741  27.224  10.051
26376W        W98702  22.511   6.500   1.776
26377W        W98703  28.192   4.332  14.281
26378W        W98704  39.336  18.303   3.852
26379W        W98705   0.421  29.893   0.446
26380W        W98706  28.804  18.190  12.820
26381W        W98707  18.567  16.084   1.634
26382W        W98708  30.180  41.947   1.277
26383W        W98709  10.833  30.589  14.783
26384W        W98710   6.782  23.524   1.422
26385W        W98711  33.869   5.038  13.847
26386W        W98712  30.980   1.759  11.598
26387W        W98713  19.888  31.522   3.479
26388W        W98714   3.100  26.601   0.439
26389W        W98715  21.567  36.441   0.278
26390W        W98716  27.677  17.895  11.190
26391W        W98717  35.457   7.263  14.754
26392W        W98718   1.041   9.423   1.245
26393W        W98719  30.659  12.334   2.816
26394W        W98720   6.083  32.351  12.164
26395W        W98721  15.130   1.381   4.632
26396W        W98722  33.907   5.470   1.365
26397W        W98723  17.446  20.512  11.995
26398W        W98724  17.129  38.805  14.185
26399W        W98725  14.013   7.788   3.372
26400W        W98726  21.106  21.060   1.195
26401W        W98727  43.114  23.271  13.475
26402W        W98728  13.793   4.753   0.990
26403W        W98729   1.321   1.949   9.866
26404W        W98730   5.866   7.081  11.563
26405W        W98731  16.157  11.260  13.040
26406W        W98732   5.658  13.144  13.582
26407W        W98733  11.507  10.776   4.182
26408W        W98734  15.003  30.234   4.133
26409W        W98735  34.884  20.995   0.840
26410W        W98736  10.558  40.466  12.938
26411W        W98737   4.650  22.273  13.872
26412W        W98738  24.658  15.584   4.312
26413W        W98739  18.645   9.429  13.927
26414W        W98740  18.650  42.868  12.056
26415W        W98741   7.311   1.468   2.825
26416W        W98742  30.411  17.157   3.058
26417W        W98743  10.645  41.332  11.404
26418W        W98744  11.790   2.921  14.019
26419W        W98745  21.057  41.396   4.549
26420W        W98746  21.601  19.358  10.764
26421W        W98747  26.592  32.339   3.289
26422W        W98748  42.393  35.751   3.637
26423W        W98749   3.336  39.395   1.707
26424W        W98750   2.424   9.797  10.554
26425W        W98751  40.330  27.575   3.797
26426W        W98752  27.688  10.890  13.016
26427W        W98753  27.932  31.080   5.031
26428W        W98754  31.582  12.756   2.728
26429W        W98755  30.692  42.594   2.358
26430W        W98756  25.975  16.284  12.600
26431W        W98757   3.162  18.167  14.456
26432W        W98758  34.507   4.349   3.285
26433W        W98759  11.660  32.481   3.413
26434W        W98760   1.589  32.119  10.049
26435W        W98761  24.298   3.993  12.960
26436W        W98762  36.072   7.160  14.493
26437W        W98763  18.981  35.415   4.225
26438W        W98764  44.895  10.698   1.843
26439W        W98765  42.419   8.600  14.546
26440W        W98766  14.310  37.402   0.037
26441W        W98767   5.613  20.309  14.458
26442W        W98768  33.073  14.803   4.763
26443W        W98769  16.138  32.167   2.387
26444W        W98770  26.446  24.190   1.860
26445W        W98771  26.043   5.257   3.658
26446W        W98772  43.447   5.291  12.135
26447W        W98773  29.381   7.554   4.142
26448W        W98774  12.959  10.564   0.113
26449W        W98775  13.088  43.321   2.428
26450W        W98776   7.706   5.398  12.052
26451W        W98777  15.231  11.646  13.373
26452W        W98778   6.281  28.951  12.092
26453W        W98779   1.918  44.867   3.294
26454W        W98780  17.327  34.878  10.987
26455W        W98781  39.600  26.634  14.015
26456W        W98782  24.239  21.733  11.539
26457W        W98783  20.935  19.296  13.695
26458W        W98784   0.814  17.763  14.381
26459W        W98785   5.130  37.481   3.658
26460W        W98786  38.368   2.486   3.708
26461W        W98787  38.035   6.223  12.076
26462W        W98788  21.697  13.287  11.311
26463W        W98789   2.492  31.896   2.915
26464W        W98790  43.091   2.905   2.408
26465W        W98791  14.651   4.376  14.449
26466W        W98792  19.612  27.863   3.708
26467W        W98793  23.755   4.977  12.756
26468W        W98794   5.915  37.599   9.852
26469W        W98795  14.302  22.686  13.910
26470W        W98796  10.865  35.504  14.835
26471W        W98797  25.064  35.644  11.130
26472W        W98798  31.420   4.242   3.669
26473W        W98799  24.194   6.671   2.388
26474W        W98800  19.041  10.855   0.496
26475W        W98801  21.671  21.957  11.107
26476W        W98802  41.849  39.691   4.551
26477W        W98803   9.383   5.831   4.084
26478W        W98804  43.465  27.657   4.561
26479W        W98805  11.363  21.850   0.990
26480W        W98806   4.633  29.491   2.648
26481W        W98807   8.476  28.279  11.428
26482W        W98808  28.515  42.762  14.905
26483W        W98809   1.876  27.179  12.927
26484W        W98810  14.254  37.512  12.674
26485W        W98811   7.048  22.897  11.163
26486W        W98812  33.038   1.226   4.677
26487W        W98813  34.050  34.640  10.579
26488W        W98814   3.253  16.748  12.098
26489W        W98815  25.599   9.319   2.168
26490W        W98816  31.942  13.555  13.369
26491W        W98817  22.508  18.324  10.953
26492W        W98818  17.332  19.689   1.864
26493W        W98819   3.857  16.675   3.594
26494W        W98820  34.308  18.163   1.883
26495W        W98821  23.032  35.400  11.994
26496W        W98822  32.807  20.600  13.236
26497W        W98823   3.155  38.580  14.403
26498W        W98824  40.008   2.345   1.430
26499W        W98825  41.873  41.593   0.762
26500W        W98826  34.558   7.860   3.424
26501W        W98827  26.152  10.383  13.544
26502W        W98828  23.371  16.261   2.291
26503W        W98829  40.672  41.768   0.306
26504W        W98830   1.305  28.867  12.943
26505W        W98831  36.335  42.764   1.362
26506W        W98832  43.350  25.555   4.874
26507W        W98833  32.661  14.906   1.315
26508W        W98834  20.968  22.257  12.102
26509W        W98835   9.217  11.596   4.575
26510W        W98836  21.782  39.791   1.851
26511W        W98837  10.228   9.952   1.332
26512W        W98838   6.604   7.143  13.565
26513W        W98839  33.472  33.634   0.693
26514W        W98840   9.835   2.892   2.742
26515W        W98841   4.018   6.491   4.714
26516W        W98842  40.491  28.184   0.024
26517W        W98843  37.890  12.662  11.162
26518W        W98844  22.982   3.455  11.651
26519W        W98845  39.345  41.418  14.192
26520W        W98846  25.256  10.690  11.474
26521W        W98847   9.181  10.639  12.147
26522W        W98848   2.869  28.857   0.221
26523W        W98849  11.325  18.079   2.370
26524W        W98850   7.366  43.211  14.446
26525W        W98851   4.708  26.584  10.703
26526W        W98852  13.376  16.576  12.013
26527W        W98853   8.505  14.628  11.431
26528W        W98854  38.608  39.113   3.365
26529W        W98855  28.105  28.934   5.529
26530W        W98856  21.115  35.830   1.305
26531W        W98857  14.199  44.830   2.343
26532W        W98858  17.078  12.961   2.157
26533W        W98859  14.286   3.307  14.781
26534W        W98860  24.090  25.983  13.610
26535W        W98861   0.079  38.891   3.749
26536W        W98862  16.903   0.906   2.790
26537W        W98863  35.613  33.410  13.963
26538W        W98864  14.525  13.769   3.910
26539W        W98865  24.539   2.749  11.180
26540W        W98866  39.489  21.103   0.800
26541W        W98867  16.607   1.399   1.867
26542W        W98868  37.367  24.142  11.166
26543W        W98869  24.176  25.257   1.296
26544W        W98870  34.908  30.565  13.227
26545W        W98871  24.217   5.879  10.903
26546W        W98872  32.985  44.554   1.696
26547W        W98873  38.786  38.800   1.631
26548W        W98874  37.247  35.597  14.384
26549W        W98875   3.782  43.004  11.483
26550W        W98876  13.810  31.982   1.844
26551W        W98877  26.798  29.350  11.585
26552W        W98878  43.079  41.546   1.311
26553W        W98879  11.779   1.392  11.508
26554W        W98880  27.146   6.317   0.757
26555W        W98881  31.899  11.040   2.295
26556W        W98882  33.365  42.329   0.289
26557W        W98883  39.562  28.068   4.581
26558W        W98884  24.204  35.339   0.110
26559W        W98885  42.482  11.883  12.093
26560W        W98886  44.853  24.747  13.300
26561W        W98887  10.711  44.306  11.202
26562W        W98888  15.457  18.087  14.319
26563W        W98889  33.046  34.007   0.046
26564W        W98890  23.437   3.264  12.488
26565W        W98891  28.000   6.751   0.361
26566W        W98892  39.284  10.124  12.491
26567W        W98893   9.943  25.533   1.845
26568W        W98894  33.363  28.828  14.254
26569W        W98895  31.232  14.269   2.309
26570W        W98896  22.246  36.663   3.580
26571W        W98897  26.599  12.506  13.981
26572W        W98898  31.628  11.006  14.495
26573W        W98899  17.517   8.480   2.971
26574W        W98900  13.620  21.120  10.474
26575W        W98901  10.365  16.123  10.447
26576W        W98902  18.255  39.068  13.497
26577W        W98903   1.392  10.241  10.426
26578W        W98904   6.052  30.502   2.207
26579W        W98905  18.990  32.095   2.423
26580W        W98906  39.167  32.117   4.227
26581W        W98907  37.567   9.068   1.108
26582W        W98908  20.284  44.232   1.545
26583W        W98909  23.051   6.450  10.595
26584W        W98910  44.021  24.952   0.712
26585W        W98911  34.427  36.251   1.747
26586W        W98912   7.214  27.521  14.478
26587W        W98913  25.939  39.460   2.232
26588W        W98914   7.694  42.603   1.760
26589W        W98915  10.669  17.337  12.513
26590W        W98916   6.586  14.414   3.226
26591W        W98917  33.429  11.179  11.446
26592W        W98918  44.866   9.640   0.811
26593W        W98919  33.524  13.301  10.714
26594W        W98920  13.750  12.838  12.022
26595W        W98921  17.665  23.664   0.454
26596W        W98922  33.066   1.623  14.395
26597W        W98923  44.478   7.137   2.801
26598W        W98924   9.922  14.696   2.294
26599W        W98925  30.597  25.534   0.985
26600W        W98926  41.900  27.529  10.662
26601W        W98927  12.626   9.199  10.936
26602W        W98928  24.996  34.833  14.630
26603W        W98929  19.119  12.991   1.329
26604W        W98930   4.409   0.369  13.065
26605W        W98931   4.361   4.515  12.764
26606W        W98932  19.110  35.686  11.187
26607W        W98933   8.163  38.608  11.161
26608W        W98934  16.047  26.004   2.183
26609W        W98935  35.783  41.110   0.399
26610W        W98936  40.421  20.224  13.112
26611W        W98937  25.668  40.693   0.813
26612W        W98938  16.905  32.599  12.164
26613W        W98939   3.765  22.527   1.685
26614W        W98940  39.439  33.650   4.748
26615W        W98941  16.746   0.970   0.498
26616W        W98942  22.859  17.598   0.588
26617W        W98943  15.174   5.272  11.645
26618W        W98944  38.548  37.839   4.080
26619W        W98945  18.818  36.821  10.508
26620W        W98946  43.204  36.502   4.222
26621W        W98947  11.916  20.476  13.941
26622W        W98948  11.477  13.662   3.665
26623W        W98949  11.724  24.721  13.168
26624W        W98950  10.807  31.972  14.816
26625W        W98951  39.965  22.444  14.947
26626W        W98952  16.346   9.188   3.079
26627W        W98953  38.598  39.876  13.910
26628W        W98954  21.543  37.419   0.263
26629W        W98955   0.994  32.831   1.954
26630W        W98956  15.689  44.207   1.218
26631W        W98957  29.063  10.918   3.246
26632W        W98958  11.937   6.192   1.670
26633W        W98959   3.437  43.733  13.429
26634W        W98960  34.073  10.579   0.911
26635W        W98961  20.779  10.779  14.585
26636W        W98962  37.323  25.338   3.308
26637W        W98963   9.375   1.236  12.022
26638W        W98964  22.150  34.243  12.548
26639W        W98965  14.055  41.232   0.339
26640W        W98966  10.653  16.898  11.025
26641W        W98967   2.825  18.612   4.595
26642W        W98968  28.872  27.190   0.422
26643W        W98969  39.248  11.149  12.617
26644W        W98970   5.465  21.251  14.963
26645W        W98971  28.917  28.684   5.065
26646W        W98972   1.317  29.901  12.087
26647W        W98973  30.711  31.352   0.922
26648W        W98974  40.952  22.498  14.203
26649W        W98975  43.563  38.592  10.669
26650W        W98976  14.267  20.703  13.037
26651W        W98977  13.589  15.737  11.491
26652W        W98978  15.719  32.115   1.264
26653W        W98979  34.293  33.547   1.341
26654W        W98980  21.280  26.046  10.656
26655W        W98981  30.403  29.013  13.982
26656W        W98982  40.320  22.028   1.278
26657W        W98983  37.291  20.699   2.721
26658W        W98984  37.097  32.527   3.202
26659W        W98985   1.497  13.164  13.040
26660W        W98986   4.805  16.562   0.604
26661W        W98987  19.296  42.396  12.387
26662W        W98988   1.575  11.654   4.321
26663W        W98989  43.200  44.728  14.981
26664W        W98990  15.100  38.542   4.520
26665W        W98991  12.229  31.115  12.031
26666W        W98992  14.757  41.303   1.973
26667W        W98993  32.041  21.546  11.484
26668W        W98994  20.465  28.081  12.670
26669W        W98995  22.700  30.169  11.764
26670W        W98996  23.445  44.739   1.947
26671W        W98997  21.220  13.872   2.664
26672W        W98998  23.122  13.230   1.293
26673W        W98999  21.645  31.626  13.822
26674W        W99000  21.158  34.393   2.180
26675W        W99001  30.772  40.956  14.481
26676W        W99002  36.845  11.917  12.800
26677W        W99003  36.083  27.505  13.405
26678W        W99004   2.972  22.224  11.415
26679W        W99005   5.397   5.485  14.008
26680W        W99006  40.450   7.162  10.538
26681W        W99007  43.796  17.234   2.501
26682W        W99008  13.269  27.584   5.067
26683W        W99009  11.210   1.986   4.630
26684W        W99010  32.843  24.304  13.082
26685W        W99011  36.288   8.233  14.509
26686W        W99012  18.349  41.369   2.292
26687W        W99013  12.288  32.918   3.896
26688W        W99014   4.585  37.942   4.244
26689W        W99015  25.430  41.222  11.124
26690W        W99016   9.697  26.367  12.976
26691W        W99017  18.239  10.556   1.442
26692W        W99018  21.517  23.228   1.816
26693W        W99019  33.613  15.909  11.493
26694W        W99020  13.835  12.136   3.298
26695W        W99021  20.589  11.613  12.871
26696W        W99022  21.226  35.237  12.364
26697W        W99023  20.132  23.084   2.213
26698W        W99024   8.846  42.057  10.574
26699W        W99025  33.937  34.268  10.217
26700W        W99026  29.555   6.321   3.499
26701W        W99027  10.873  28.972  14.493
26702W        W99028  15.343  36.532   1.772
26703W        W99029  23.035  14.294   1.374
26704W        W99030   1.708  37.317   3.201
26705W        W99031  34.589  20.829   4.536
26706W        W99032   6.757  27.763  14.328
26707W        W99033  21.063   1.984   0.475
26708W        W99034  25.106  39.459  11.413
26709W        W99035  11.247  28.140  13.504
26710W        W99036   8.324  25.517   0.717
26711W        W99037  10.369   0.470   3.244
26712W        W99038  16.193  21.578   1.746
26713W        W99039  10.339  20.708   0.373
26714W        W99040  33.419   3.355   0.368
26715W        W99041  15.707  10.810  10.425
26716W        W99042  34.858  35.378   0.899
26717W        W99043   5.318  24.493   1.925
26718W        W99044   8.178  28.230   3.257
26719W        W99045   0.266  14.676   1.865
26720W        W99046  38.925  31.396   3.227
26721W        W99047  14.890  41.404   4.583
26722W        W99048  43.889  18.723  11.470
26723W        W99049  21.625  37.791   1.778
26724W        W99050  34.157  14.728  12.136
26725W        W99051  17.397   4.756   0.190
26726W        W99052   9.086   9.733  13.416
26727W        W99053  10.768  11.179  13.793
26728W        W99054  11.128  20.738  13.942
26729W        W99055  26.878  24.584  12.358
26730W        W99056  24.425   5.360   0.894
26731W        W99057  41.084  10.352   3.614
26732W        W99058  32.461  24.140   1.638
26733W        W99059  32.043  18.335   4.112
26734W        W99060  11.803  44.738  11.861
26735W        W99061  31.829  26.239  11.638
26736W        W99062  37.839   8.561   3.330
26737W        W99063  22.563  33.957  12.006
26738W        W99064  23.488   6.162  12.029
26739W        W99065  14.085   7.243   2.786
26740W        W99066  15.877  31.859   4.149
26741W        W99067  29.080   6.991   1.833
26742W        W99068  41.142   6.248  11.607
26743W        W99069  12.432  16.112  14.684
26744W        W99070  44.984  37.390   0.926
26745W        W99071  32.026  13.333   3.245
26746W        W99072   5.614   5.920   1.832
26747W        W99073   0.787  25.525  14.938
26748W        W99074  28.497  31.903  11.916
26749W        W99075  20.620   1.306   2.192
26750W        W99076  43.501  29.421  13.637
26751W        W99077  20.324   9.928  14.927
26752W        W99078  16.160  42.250  12.367
26753W        W99079  35.708   5.432  13.340
26754W        W99080  41.440  27.310   1.236
26755W        W99081  12.625  32.573  10.392
26756W        W99082  42.990  31.041   1.919
26757W        W99083   1.276   9.673   1.667
26758W        W99084   7.604  28.548   2.445
26759W        W99085   1.126  43.764  13.009
26760W        W99086  32.328  30.060  10.391
26761W        W99087  27.694  27.937   4.159
26762W        W99088  23.694  17.084   0.583
26763W        W99089  29.601  18.281   3.269
26764W        W99090  35.510  10.970   4.132
26765W        W99091   8.273  23.158   3.076
26766W        W99092  18.841  37.020   2.283
26767W        W99093  36.367   8.190   3.686
26768W        W99094   6.649  31.885   3.708
26769W        W99095  39.944   7.256  14.871
26770W        W99096  25.001  39.088  14.486
26771W        W99097  29.683   7.543   3.301
26772W        W99098  28.100  15.546  13.285
26773W        W99099  41.836  10.358  13.579
26774W        W99100  18.518  35.599   4.275
26775W        W99101  37.078  26.697  14.860
26776W        W99102  13.816   5.930  12.802
26777W        W99103  10.682  42.999   3.267
26778W        W99104  27.107  44.354   2.641
26779W        W99105  38.952  17.938   2.115
26780W        W99106  35.155  16.714  10.750
26781W        W99107  10.193  15.016   3.139
26782W        W99108   8.177  25.430   3.287
26783W        W99109  26.241  26.845  14.886
26784W        W99110  34.106  31.892   0.785
26785W        W99111  15.732  32.005  11.849
26786W        W99112  26.468  11.334  13.292
26787W        W99113  28.489   8.481   4.052
26788W        W99114  31.597  20.481   0.234
26789W        W99115  27.579  13.584  14.225
26790W        W99116  24.660  41.981  10.697
26791W        W99117   3.404  20.862  12.275
26792W        W99118  28.092   5.655   0.293
26793W        W99119  24.006  19.392  12.998
26794W        W99120  18.764  12.218  12.515
26795W        W99121  28.558   6.852   3.479
26796W        W99122  44.292  34.164   2.254
26797W        W99123  10.590  39.929   2.717
26798W        W99124  16.560  30.849  12.205
26799W        W99125  37.304  23.639   2.397
26800W        W99126  40.401  40.970  11.181
26801W        W99127  40.188   7.449   3.771
26802W        W99128   4.039  44.947   3.221
26803W        W99129  10.298  29.358   4.279
26804W        W99130   3.095  36.679  10.966
26805W        W99131   2.866  27.091   4.543
26806W        W99132   0.875  13.190  12.459
26807W        W99133   9.091   8.279  14.158
26808W        W99134  13.323  38.798  14.518
26809W        W99135   1.384   9.211   2.470
26810W        W99136  25.629  26.752  10.205
26811W        W99137  35.821  38.227   0.287
26812W        W99138  15.571   7.248   3.582
26813W        W99139  21.712  35.866   4.547
26814W        W99140   3.888   7.259   0.290
26815W        W99141  44.854  10.168   3.712
26816W        W99142   4.994  28.624   2.742
26817W        W99143   7.682   4.981  13.478
26818W        W99144  38.943  12.591  13.283
26819W        W99145  42.527  14.647  13.455
26820W        W99146  40.305  43.323  12.634
26821W        W99147  32.389  28.611  13.479
26822W        W99148  23.772  22.492   2.694
26823W        W99149  34.556  36.891  10.738
26824W        W99150  21.338  29.588  12.013
26825W        W99151   1.437  12.375   4.774
26826W        W99152  38.961  39.807   0.298
26827W        W99153  40.166  35.198   2.898
26828W        W99154  26.432   4.465  12.341
26829W        W99155   8.190  21.957   2.327
26830W        W99156  40.017  44.786  14.300
26831W        W99157  10.412   8.787  11.052
26832W        W99158  20.557  43.936   2.574
26833W        W99159  27.787  23.671   0.435
26834W        W99160  21.598  37.382  13.228
26835W        W99161  32.885  30.946  11.632
26836W        W99162  33.475  21.517   2.926
26837W        W99163  20.733  23.968  13.435
26838W        W99164  39.662  31.944   4.261
26839W        W99165  33.154  14.874  12.494
26840W        W99166  39.510  13.274  13.828
26841W        W99167   4.318  30.743  12.971
26842W        W99168  28.563  16.612  11.968
26843W        W99169  28.244   8.681   4.595
26844W        W99170  44.459   2.176   1.709
26845W        W99171  40.896  44.323  12.912
26846W        W99172  12.599  38.946   3.735
26847W        W99173  37.819  21.727  13.307
26848W        W99174  27.412   2.436  13.343
26849W        W99175  10.721   7.728   0.370
26850W        W99176  10.145  23.246   4.157
26851W        W99177  22.086  44.770   0.106
26852W        W99178  33.868  16.124  10.539
26853W        W99179  23.301  35.795   3.799
26854W        W99180  10.907  34.117  14.354
26855W        W99181   6.352  15.798  12.833
26856W        W99182  19.332  25.536  11.054
26857W        W99183   7.180  32.984   0.812
26858W        W99184  14.569  40.106  13.580
26859W        W99185   5.743  42.689   5.007
26860W        W99186  27.763  34.461  14.811
26861W        W99187  10.938  24.023   2.277
26862W        W99188  32.614  35.091   0.585
26863W        W99189   8.455  15.874  13.416
26864W        W99190  37.061  21.253   4.120
26865W        W99191   7.227  18.659   1.855
26866W        W99192  39.291  41.797   2.421
26867W        W99193  43.778   8.284  12.647
26868W        W99194   1.511  27.618   4.514
26869W        W99195  35.831  35.045  10.658
26870W        W99196  33.065  40.867   4.531
26871W        W99197  26.765  12.147   0.895
26872W        W99198  23.739   0.724   1.694
26873W        W99199  26.415  42.764  13.094
26874W        W99200   9.151  19.210  11.262
26875W        W99201  28.652   4.162  12.912
26876W        W99202  16.813  23.823   2.211
26877W        W99203  24.264  21.254  12.635
26878W        W99204  12.402   1.437   4.124
26879W        W99205  29.727  22.800  13.077
26880W        W99206  12.759  17.019   1.356
26881W        W99207  25.118  32.912  10.688
26882W        W99208  28.548  24.673  13.840
26883W        W99209  44.865  39.234   1.801
26884W        W99210  17.800  40.846   1.751
26885W        W99211   7.344  42.940  12.906
26886W        W99212  44.300  27.959   4.915
26887W        W99213  36.350  40.980   1.680
26888W        W99214   7.691   5.687  14.467
26889W        W99215   8.653   2.888  12.460
26890W        W99216  12.915  39.110  13.962
26891W        W99217   4.440  41.368  10.886
26892W        W99218  28.667  19.608  13.350
26893W        W99219  18.315  11.817  12.822
26894W        W99220  26.646  25.228  11.771
26895W        W99221  34.509  23.608   0.919
26896W        W99222  33.528  39.336  12.102
26897W        W99223  11.478  40.382  11.086
26898W        W99224  25.880   4.957   0.424
26899W        W99225   7.328  31.856   1.303
26900W        W99226  26.474  31.654   1.333
26901W        W99227  18.676  31.183   4.881
26902W        W99228  28.069  42.609  14.675
26903W        W99229  20.542  21.780   1.253
26904W        W99230  40.231   6.263  14.956
26905W        W99231  27.391  14.655  12.953
26906W        W99232  39.362   0.769  14.845
26907W        W99233  30.503   8.682  11.797
26908W        W99234  42.862  11.766   4.766
26909W        W99235   8.360  32.944   2.383
26910W        W99236  27.972  30.549  12.412
26911W        W99237   1.358  39.557  13.263
26912W        W99238  44.347   7.915  11.493
26913W        W99239  39.624  16.306  13.942
26914W        W99240  18.576  10.237   4.335
26915W        W99241  37.974   9.211  11.276
26916W        W99242  10.098  43.018  10.117
26917W        W99243  41.387  24.561   4.158
26918W        W99244  22.689  16.730  12.737
26919W        W99245  37.845  42.331  10.386
26920W        W99246  23.033  30.578   2.838
26921W        W99247   7.144  23.383  11.140
26922W        W99248   3.594   8.981   2.206
26923W        W99249  13.118  44.546   1.927
26924W        W99250  31.949  24.720   2.450
26925W        W99251   6.374   9.322   1.441
26926W        W99252  21.671  35.334  11.547
26927W        W99253  21.747  19.667  11.618
26928W        W99254  29.890  17.956  10.657
26929W        W99255  20.820  37.794  11.158
26930W        W99256  22.543  44.706  13.475
26931W        W99257   1.673  42.710  14.809
26932W        W99258  19.592   3.560   1.892
26933W        W99259  16.244   2.184   3.104
26934W        W99260  40.623   9.723  11.947
26935W        W99261  15.082  21.600  11.513
26936W        W99262  34.241  39.101  14.079
26937W        W99263  21.725  26.754   0.793
26938W        W99264  39.048  44.021  10.013
26939W        W99265  42.522  23.728  10.974
26940W        W99266   8.661   0.350   4.512
26941W        W99267  17.844   1.953   1.764
26942W        W99268  36.129  20.844   1.804
26943W        W99269  38.060  12.343  13.090
26944W        W99270  11.766   6.446  13.296
26945W        W99271  12.199  39.658  14.947
26946W        W99272  44.381  10.544   1.770
26947W        W99273  38.451   9.266  11.055
26948W        W99274  34.915  43.716   2.270
26949W        W99275  24.156  38.649  10.866
26950W        W99276  22.037  25.430  13.950
26951W        W99277  22.005  29.701  14.799
26952W        W99278  43.714  39.417  13.017
26953W        W99279  32.610   8.419   1.265
26954W        W99280  10.432  31.570   0.717
26955W        W99281   1.023  28.938   0.074
26956W        W99282   0.257   4.404  11.623
26957W        W99283   7.906  39.031   2.720
26958W        W99284  40.023  38.328   0.887
26959W        W99285  42.552  23.537  11.911
26960W        W99286  27.670  27.514  12.878
26961W        W99287   0.996  16.897  14.247
26962W        W99288   8.911  37.453   1.210
26963W        W99289  23.045  13.179  14.763
26964W        W99290  13.847  37.613  14.786
26965W        W99291  28.757   6.119   3.782
26966W        W99292   2.476  21.030   0.303
26967W        W99293  31.869  37.283  13.550
26968W        W99294   2.882  12.775   0.212
26969W        W99295  41.867  14.811   2.494
26970W        W99296  24.960  26.157   1.299
26971W        W99297   2.568   3.240   0.872
26972W        W99298  18.138   1.441  11.861
26973W        W99299   2.435   9.685   4.199
26974W        W99300   7.380  36.613   3.121
26975W        W99301  28.522  36.108  10.697
26976W        W99302  22.906   6.650   4.248
26977W        W99303   4.385  30.170  14.017
26978W        W99304  31.051  37.944   1.213
26979W        W99305  32.837  28.330  13.364
26980W        W99306  16.407  13.228  11.686
26981W        W99307  15.154  35.101   3.242
26982W        W99308  38.078  25.682  12.599
26983W        W99309  35.316  26.219  12.062
26984W        W99310  17.582  30.212   1.784
26985W        W99311  22.305  23.407  14.937
26986W        W99312   6.752   0.836  10.837
26987W        W99313  42.261  37.493  10.766
26988W        W99314  32.690  35.807  13.380
26989W        W99315  16.141  14.555  12.859
26990W        W99316  12.558  31.574   1.760
26991W        W99317  18.497  42.273   4.243
26992W        W99318  37.017  44.055  13.412
26993W        W99319  32.385  35.895  12.017
26994W        W99320  26.444  10.457   1.868
26995W        W99321  34.861  11.573  13.798
26996W        W99322  43.385  20.289   0.011
26997W        W99323  12.411  36.352  12.012
26998W        W99324  35.882  41.046   1.896
26999W        W99325  38.538  21.167  10.310
27000W        W99326   8.224  15.831  11.161
27001W        W99327  34.263  31.163  10.655
27002W        W99328  21.238  36.084   1.750
27003W        W99329  21.507   1.307  14.570
27004W        W99330   3.665  12.335   1.756
27005W        W99331   7.269  20.642  11.070
27006W        W99332  11.897  15.071  13.898
27007W        W99333  26.549  27.066   1.693
27008W        W99334  41.802  17.847  12.838
27009W        W99335   7.867  31.784  14.654
27010W        W99336  27.676   4.768   3.970
27011W        W99337  38.518   0.963  10.804
27012W        W99338  21.609  33.641  12.115
27013W        W99339   9.315  36.103  14.453
27014W        W99340  14.703  43.734   4.689
27015W        W99341  20.852  26.601   4.507
27016W        W99342  14.765  42.095  14.003
27017W        W99343  26.753   5.395  10.746
27018W        W99344  44.820  30.684   0.385
27019W        W99345  21.117  42.376   2.680
27020W        W99346  20.436   8.327   4.806
27021W        W99347  32.834  39.419   1.322
27022W        W99348  25.928  30.549   3.626
27023W        W99349  36.394   0.845  14.288
27024W        W99350  33.214  15.368   0.967
27025W        W99351  18.612  34.418  13.168
27026W        W99352  16.283  36.297  13.857
27027W        W99353   7.694  17.546   1.836
27028W        W99354  39.352  36.862   2.317
27029W        W99355   9.896  32.945   2.139
27030W        W99356  15.810   8.834  13.823
27031W        W99357   3.910  36.154  10.571
27032W        W99358  37.800  16.835   1.871
27033W        W99359  38.732  35.396  13.272
27034W        W99360  14.656  38.282   2.837
27035W        W99361  28.152  24.098  14.268
27036W        W99362  38.263  40.953   3.611
27037W        W99363  21.758  35.112  14.178
27038W        W99364  37.086   9.431  14.320
27039W        W99365   7.626  11.137  10.728
27040W        W99366  33.377  44.293   3.826
27041W        W99367  11.691  33.391  14.887
27042W        W99368   0.698   2.000   3.627
27043W        W99369  12.287  32.423   2.665
27044W        W99370  20.031  35.874  13.818
27045W        W99371  38.022   0.232   2.640
27046W        W99372   6.234  12.613  13.924
27047W        W99373  17.782  11.355  11.140
27048W        W99374   8.758  18.455   4.541
27049W        W99375   9.149  31.557   4.547
27050W        W99376  37.794  17.309   1.363
27051W        W99377  23.160   9.709  14.852
27052W        W99378  25.194   3.421  12.092
27053W        W99379  42.267  36.324   0.910
27054W        W99380  38.829   8.766   0.860
27055W        W99381  39.293  25.516  14.532
27056W        W99382  24.208  29.178  12.097
27057W        W99383  29.224  27.961   2.738
27058W        W99384   7.266  11.960   0.314
27059W        W99385  43.280  18.682  12.026
27060W        W99386  12.939   4.395   0.972
27061W        W99387   0.696   6.666  12.900
27062W        W99388  40.323   4.853   4.118
27063W        W99389  22.783  41.329  11.107
27064W        W99390   2.265  22.927  11.247
27065W        W99391  26.018  22.883   3.192
27066W        W99392   2.282  18.085   3.897
27067W        W99393  10.061  30.962  14.857
27068W        W99394   6.999  20.614   1.435
27069W        W99395  20.693  11.191   1.363
27070W        W99396  13.651  12.111   1.896
27071W        W99397   9.161  19.585  14.473
27072W        W99398  14.637   3.253  13.013
27073W        W99399  12.113  35.604  11.942
27074W        W99400   4.934  41.751   2.147
27075W        W99401  20.673  10.684   4.464
27076W        W99402  32.754  36.150   4.302
27077W        W99403   8.679  29.670  11.418
27078W        W99404  13.304  28.419   1.872
27079W        W99405  40.770  31.605  11.946
27080W        W99406   9.439  44.464  14.855
27081W        W99407  25.331   5.410  11.524
27082W        W99408  19.383  39.999  13.530
27083W        W99409  31.522   3.669   3.674
27084W        W99410  41.106  23.707  12.401
27085W        W99411  12.768   4.305  11.859
27086W        W99412  22.231  28.940  14.327
27087W        W99413  17.158   5.975   2.750
27088W        W99414  22.044  17.281  13.152
27089W        W99415  35.376   0.030  13.036
27090W        W99416   7.787   1.744  14.819
27091W        W99417  28.580  42.954   1.773
27092W        W99418   9.382  32.687   0.395
27093W        W99419   9.315  12.713  10.398
27094W        W99420  31.450  34.774  14.807
27095W        W99421  41.251   9.115   0.890
27096W        W99422   9.776  43.989   3.169
27097W        W99423  17.125  16.629   1.827
27098W        W99424  36.194  18.085  13.981
27099W        W99425  27.535  33.132   1.455
27100W        W99426  32.551  36.154  14.515
27101W        W99427  37.321   3.756   2.414
27102W        W99428   1.767  33.354  13.035
27103W        W99429  20.764   2.267   1.444
27104W        W99430  20.756  27.118  14.284
27105W        W99431   1.417  22.171  13.989
27106W        W99432  21.686   8.734   4.573
27107W        W99433  40.273  22.976  12.057
27108W        W99434  14.568  19.987   4.138
27109W        W99435  35.962  20.641  14.161
27110W        W99436  31.059  36.379  14.541
27111W        W99437  31.728   2.354  12.815
27112W        W99438  27.994  27.680  12.514
27113W        W99439   0.845   6.104   2.455
27114W        W99440  22.568  13.398   4.536
27115W        W99441  35.994  42.262  11.075
27116W        W99442  31.572  42.038   3.790
27117W        W99443  32.595   7.754  11.909
27118W        W99444  20.071  28.088   3.677
27119W        W99445  25.111  11.173  12.419
27120W        W99446  12.289  37.084  13.187
27121W        W99447  16.184  13.828   2.674
27122W        W99448   0.655  41.880   0.505
27123W        W99449  27.161  16.469  12.964
27124W        W99450  15.356   3.992  14.869
27125W        W99451  23.185  22.041  13.638
27126W        W99452  44.238  36.293   0.793
27127W        W99453  25.950  34.403  13.418
27128W        W99454  35.463  10.308  10.689
27129W        W99455  17.815  41.058   0.310
27130W        W99456  34.281  35.597  14.827
27131W        W99457  25.052   1.494  11.154
27132W        W99458  24.967  34.830   3.796
27133W        W99459   3.290  42.775  10.748
27134W        W99460  12.467  34.466  13.795
27135W        W99461   5.435  20.818  10.725
27136W        W99462  13.940  11.185  14.306
27137W        W99463  10.426  30.978  13.924
27138W        W99464  34.662  31.505   0.405
27139W        W99465  32.039  23.540   1.959
27140W        W99466  38.995  10.661   2.243
27141W        W99467  41.751  40.356   0.263
27142W        W99468   3.191  33.946   4.181
27143W        W99469  33.291  31.145   1.785
27144W        W99470  26.540  21.766   2.656
27145W        W99471  10.185  10.295  10.972
27146W        W99472   5.315   5.358  14.994
27147W        W99473  10.814  20.913   0.250
27148W        W99474  41.847  15.355   4.193
27149W        W99475  21.592  43.266  10.671
27150W        W99476  29.573  17.471   2.874
27151W        W99477  11.236  18.636   4.679
27152W        W99478  18.700  29.357  10.637
27153W        W99479  34.994  25.718  14.123
27154W        W99480  27.942  11.675   4.468
27155W        W99481  34.527  23.989  14.717
27156W        W99482  35.055  18.064   1.301
27157W        W99483  29.501   3.857  14.517
27158W        W99484  17.099   5.839  11.645
27159W        W99485  13.541  29.177  12.068
27160W        W99486  44.819  12.229  10.391
27161W        W99487  28.419  14.738  12.947
27162W        W99488   5.371   9.714  14.430
27163W        W99489  26.572  18.864  12.494
27164W        W99490   6.562  21.711  10.726
27165W        W99491   1.044  21.009  13.253
27166W        W99492  34.203  26.072   4.966
27167W        W99493  24.294   4.828  12.515
27168W        W99494  30.408  44.286   4.675
27169W        W99495  41.858  33.887  13.408
27170W        W99496  27.972  41.797  13.477
27171W        W99497  40.086  17.246  10.639
27172W        W99498  37.635   7.979  11.523
27173W        W99499  17.905  19.636   4.255
27174W        W99500  19.765  39.423  14.187
27175W        W99501  38.358  19.045   4.629
27176W        W99502  23.745  30.043  14.782
27177W        W99503   4.643   2.125   2.307
27178W        W99504  38.892  38.647   3.458
27179W        W99505   5.342  28.583  11.156
27180W        W99506  21.090  15.099  10.726
27181W        W99507  37.098  40.056  11.986
27182W        W99508   3.557   5.251  13.648
27183W        W99509  28.033  23.622  14.072
27184W        W99510  17.365  35.549  14.934
27185W        W99511   9.750  39.457   3.825
27186W        W99512  22.167   1.476   3.762
27187W        W99513  39.733  42.769   4.673
27188W        W99514  36.689   9.844  14.468
27189W        W99515  41.331  36.432   4.563
27190W        W99516  28.125  33.976  13.474
27191W        W99517  27.748  11.175  13.768
27192W        W99518   6.227  12.835   3.173
27193W        W99519  23.945  37.060  13.733
27194W        W99520   9.166  41.364  14.584
27195W        W99521  26.211  39.901   2.201
27196W        W99522  30.046  39.056   1.763
27197W        W99523  25.372  40.369   4.991
27198W        W99524  43.889   5.386  10.555
27199W        W99525   5.930  41.809  13.993
27200W        W99526  11.455  27.077   5.477
27201W        W99527  13.577  20.008   1.430
27202W        W99528  36.015  43.767  12.947
27203W        W99529  12.375  40.976   0.727
27204W        W99530  41.130  33.850  14.987
27205W        W99531  42.514  36.003  13.348
27206W        W99532  15.365  28.727   1.703
27207W        W99533   7.862  28.961   1.900
27208W        W99534   8.948  33.944   1.639
27209W        W99535  11.736  33.510   4.154
27210W        W99536  16.860  40.224  11.967
27211W        W99537  16.284  32.273   4.254
27212W        W99538  38.487   7.131   0.460
27213W        W99539  19.724  22.556  12.608
27214W        W99540  25.891  10.396   0.830
27215W        W99541  27.088  29.807   3.825
27216W        W99542  28.570  38.536   0.384
27217W        W99543  41.474  44.797  13.491
27218W        W99544  37.821   5.817  12.996
27219W        W99545  31.901  15.784  13.194
27220W        W99546   5.169  35.799   0.847
27221W        W99547  31.617   4.596  10.705
27222W        W99548  23.656  43.409  14.428
27223W        W99549  20.180  18.789  11.377
27224W        W99550  39.825  12.175  13.671
27225W        W99551  14.118  11.910   2.238
27226W        W99552   3.493  21.712  10.221
27227W        W99553  25.520  24.580   1.046
27228W        W99554  27.156  34.782  11.875
27229W        W99555  26.034  25.938  13.142
27230W        W99556  37.639  34.409  11.616
27231W        W99557  16.225   8.480  11.566
27232W        W99558  26.957  41.507  13.187
27233W        W99559  42.305  35.981   1.699
27234W        W99560   1.386  18.310  14.400
27235W        W99561  10.144  16.867   2.765
27236W        W99562   2.141  25.026  14.213
27237W        W99563  14.191   1.538   3.948
27238W        W99564  40.348  23.478   1.383
27239W        W99565   3.720  34.556   3.637
27240W        W99566  40.988  24.748  11.005
27241W        W99567  33.186   9.402  11.948
27242W        W99568  40.437  16.280  12.808
27243W        W99569  42.820  18.627  14.015
27244W        W99570  25.720   8.353  10.630
27245W        W99571   3.463  44.524  11.519
27246W        W99572  13.602   4.880   4.178
27247W        W99573  27.479  25.297   3.155
27248W        W99574  28.125  24.501   2.282
27249W        W99575  32.995  26.101  13.424
27250W        W99576   8.188   7.893   3.542
27251W        W99577  11.106  35.645   5.624
27252W        W99578  15.804  43.843   4.028
27253W        W99579   3.715  17.126   1.008
27254W        W99580  10.823   2.337   0.319
27255W        W99581   3.286  41.949   0.931
27256W        W99582  32.786   1.522  10.828
27257W        W99583  13.402  17.750  12.235
27258W        W99584  41.522  40.847  11.453
27259W        W99585  29.970  16.717   4.354
27260W        W99586   5.810  22.281  10.581
27261W        W99587   3.780  25.004  14.525
27262W        W99588  38.113   9.406  12.279
27263W        W99589  13.267   1.736  13.605
27264W        W99590  22.411   5.251  13.087
27265W        W99591  23.155  31.395  13.764
27266W        W99592   2.662  23.454   4.995
27267W        W99593   3.774  15.598   3.830
27268W        W99594   4.710   1.222   1.305
27269W        W99595  30.593   4.482  14.396
27270W        W99596  17.280  28.533  11.878
27271W        W99597   5.009   8.855  10.609
27272W        W99598  10.554  16.388   2.348
27273W        W99599  42.048  18.397   3.977
27274W        W99600  24.299  15.159  10.755
27275W        W99601  21.709  40.456  12.545
27276W        W99602  39.396  32.008  11.187
27277W        W99603  11.640  37.470  11.554
27278W        W99604  10.791  34.825  11.927
27279W        W99605  18.575   5.425   0.227
27280W        W99606  17.119  11.142  11.565
27281W        W99607  31.056  17.478  13.662
27282W        W99608   6.873  18.217   0.715
27283W        W99609   1.344  31.952   0.819
27284W        W99610   6.941  11.590   4.593
27285W        W99611   2.839  15.215  10.999
27286W        W99612  42.922  20.464   4.152
27287W        W99613  11.410  30.321   2.370
27288W        W99614  10.871  11.349   4.262
27289W        W99615  36.910  16.972  12.577
27290W        W99616   8.789  42.462  13.279
27291W        W99617  42.068  35.023   0.237
27292W        W99618  22.694  19.192  11.970
27293W        W99619  39.397  33.346  11.146
27294W        W99620  13.911  18.802  11.533
27295W        W99621   4.887  15.744  14.711
27296W        W99622  26.999  27.247  14.439
27297W        W99623  25.673   8.699   5.473
27298W        W99624  17.930  42.318  11.938
27299W        W99625   2.913  26.598  14.937
27300W        W99626  40.757   1.193  12.840
27301W        W99627  12.146  19.442   3.311
27302W        W99628   9.888   2.442   0.784
27303W        W99629  38.015   7.373   2.612
27304W        W99630   8.248   5.652   2.628
27305W        W99631  14.181   8.370   1.090
27306W        W99632   7.963   8.217  11.089
27307W        W99633  42.791  14.879  13.886
27308W        W99634  36.185  36.439  10.735
27309W        W99635  23.953   8.625   2.210
27310W        W99636  23.951   8.643  13.802
27311W        W99637  25.694  43.399   0.316
27312W        W99638   3.190  11.500   3.261
27313W        W99639  30.891  13.907   4.246
27314W        W99640  37.384  32.404   1.783
27315W        W99641  15.154  22.673   3.677
27316W        W99642  43.577  15.154  11.499
27317W        W99643  42.480  26.626   3.145
27318W        W99644  21.048  28.562   2.866
27319W        W99645  37.429  41.375   4.172
27320W        W99646  10.270  25.880  13.382
27321W        W99647  24.666  27.890  12.114
27322W        W99648  16.799  44.790   0.856
27323W        W99649  41.259   0.210   1.656
27324W        W99650  37.371  41.084   4.623
27325W        W99651  24.119  37.555   5.093
27326W        W99652  13.622  40.931  11.426
27327W        W99653  32.984  25.994  11.025
27328W        W99654  13.361  21.996   0.359
27329W        W99655  42.690  29.541  14.776
27330W        W99656   5.515  26.919   2.791
27331W        W99657  41.014  35.285  12.793
27332W        W99658  13.415  12.903   0.729
27333W        W99659  33.860  38.446   3.259
27334W        W99660  29.695  17.282  14.860
27335W        W99661  43.370   0.453  14.391
27336W        W99662   8.368  18.068  14.883
27337W        W99663  37.438  18.833  12.118
27338W        W99664  26.161  22.416  14.931
27339W        W99665  41.838  14.265   4.279
27340W        W99666  12.277  14.790   4.761
27341W        W99667  19.754  28.714  11.313
27342W        W99668  25.655  27.103  12.562
27343W        W99669  36.362  43.233   4.929
27344W        W99670  13.714   5.233   0.779
27345W        W99671  19.420  29.894   2.077
27346W        W99672  37.429   9.591   2.441
27347W        W99673  27.422  24.066   3.734
27348W        W99674   8.742   1.767  13.675
27349W        W99675  20.439  22.585   1.781
27350W        W99676   5.449  19.376  12.351
27351W        W99677  39.427   4.771   2.583
27352W        W99678  21.148  31.877  12.131
27353W        W99679  35.156  32.409  11.623
27354W        W99680   4.368  15.560   3.148
27355W        W99681  18.941  36.389   4.442
27356W        W99682   2.336  20.005   4.639
27357W        W99683  34.165  24.031   2.283
27358W        W99684  43.388  15.386   0.977
27359W        W99685  20.289  31.935  12.541
27360W        W99686  34.479  11.638  11.189
27361W        W99687  19.767   1.356  14.499
27362W        W99688  38.223  10.160   1.433
27363W        W99689   1.342   7.695   0.035
27364W        W99690  20.470  40.429  13.789
27365W        W99691  33.917  39.363   3.865
27366W        W99692  32.633   4.778   1.343
27367W        W99693  17.605  14.739   2.895
27368W        W99694   9.780   7.857  14.455
27369W        W99695  18.437  32.200  10.872
27370W        W99696  37.008  39.193  11.725
27371W        W99697  15.267  29.509  14.836
27372W        W99698  12.846  16.224   4.809
27373W        W99699  31.951  16.074   3.770
27374W        W99700  26.049  31.537  14.072
27375W        W99701  39.308   4.045  12.609
27376W        W99702  11.337  32.667   1.187
27377W        W99703  28.715  27.931   4.076
27378W        W99704  29.464  41.780   3.300
27379W        W99705  20.170  38.830  12.543
27380W        W99706  26.028  31.976   2.875
27381W        W99707  37.440  43.800  13.579
27382W        W99708   5.097  42.324  14.910
27383W        W99709   8.937  20.491  14.006
27384W        W99710   5.965  28.477  11.991
27385W        W99711  14.627  10.901   1.172
27386W        W99712  32.407   7.301  12.078
27387W        W99713  12.631  11.031   4.939
27388W        W99714  25.766  28.721  13.988
27389W        W99715   5.393  15.663   0.457
27390W        W99716   9.996   2.182   4.106
27391W        W99717  44.391  38.542  13.326
27392W        W99718  26.486  21.589  10.663
27393W        W99719   1.834  27.703   4.124
27394W        W99720   9.284  34.597   4.541
27395W        W99721  33.655  19.148   3.071
27396W        W99722  28.205  32.270  12.195
27397W        W99723  33.719   8.124  14.430
27398W        W99724  38.106  33.993   4.054
27399W        W99725   0.335  36.059  10.903
27400W        W99726  23.471  30.051   3.416
27401W        W99727  14.391  41.958   4.133
27402W        W99728  26.570  38.309   2.673
27403W        W99729  33.630  11.051  13.806
27404W        W99730  36.626  20.509   1.792
27405W        W99731  39.237  25.446   0.032
27406W        W99732  11.244  38.178  12.951
27407W        W99733  24.720  26.112   3.272
27408W        W99734   5.911  37.335  14.530
27409W        W99735  35.121  12.266  10.899
27410W        W99736  44.273  11.350  14.777
27411W        W99737  23.214  39.551  11.064
27412W        W99738  14.264   0.334   3.204
27413W        W99739  22.514   1.895   1.678
27414W        W99740  12.257  30.919   4.198
27415W        W99741   2.757   8.286   4.334
27416W        W99742  36.894  35.587   2.722
27417W        W99743  41.598  30.755  12.542
27418W        W99744  11.512  15.159   4.016
27419W        W99745  33.187  20.263   0.675
27420W        W99746  30.772  32.372  14.766
27421W        W99747  37.633   5.976   2.643
27422W        W99748  38.478  25.444   3.274
27423W        W99749  10.406  16.516   3.807
27424W        W99750  23.455  31.308   2.444
27425W        W99751  33.888  30.560  12.891
27426W        W99752  26.469  16.310   1.330
27427W        W99753  21.095  11.410  12.853
27428W        W99754  22.862   8.293   0.397
27429W        W99755  32.063  14.163   2.718
27430W        W99756  36.043  17.176   3.632
27431W        W99757  28.934  38.281   4.146
27432W        W99758   5.427  11.835  11.601
27433W        W99759  43.690  38.423   0.431
27434W        W99760  29.552  25.001  14.925
27435W        W99761  44.239  28.689  14.986
27436W        W99762   1.002  26.171  10.761
27437W        W99763   1.906  18.740  12.000
27438W        W99764  34.630  28.570  13.180
27439W        W99765  12.811  31.987   2.719
27440W        W99766  17.549  15.580  11.139
27441W        W99767  25.183  25.014  12.696
27442W        W99768   4.796   0.242  14.851
27443W        W99769  44.417   1.830  12.368
27444W        W99770  19.503  16.802   3.761
27445W        W99771   8.680  23.162   0.447
27446W        W99772  21.524  21.786   2.757
27447W        W99773  31.088   8.201   1.261
27448W        W99774   7.301  11.940   4.397
27449W        W99775  23.179   0.452   2.208
27450W        W99776  29.068   1.985  10.935
27451W        W99777  16.559  23.208   4.777
27452W        W99778  16.089  24.100  11.221
27453W        W99779  21.786  30.941  14.550
27454W        W99780  35.610  32.427   9.834
27455W        W99781  20.137   8.216  10.287
27456W        W99782  26.303  10.270   4.662
27457W        W99783  15.284  29.727  12.534
27458W        W99784   6.792  25.387  14.881
27459W        W99785   8.433  14.344   4.377
27460W        W99786  40.000   5.705   4.532
27461W        W99787  37.497  22.807  14.873
27462W        W99788  26.780   4.233   1.263
27463W        W99789  41.251  12.683   4.573
27464W        W99790   7.101  26.911  10.017
27465W        W99791  13.277  25.010   3.904
27466W        W99792  31.620  35.555   4.562
27467W        W99793  39.615   8.748  13.919
27468W        W99794   9.627  43.516   3.270
27469W        W99795   3.262   8.837   4.535
27470W        W99796  10.631  29.739  14.365
27471W        W99797   7.111  35.056   3.791
27472W        W99798  41.060   0.397  10.628
27473W        W99799  35.147   7.858  12.449
27474W        W99800  14.066  29.091  13.047
27475W        W99801  39.902  38.856   3.024
27476W        W99802  35.009  24.171  14.732
27477W        W99803  32.071   1.772   0.781
27478W        W99804  25.132  36.046  13.000
27479W        W99805  21.160   7.771   0.885
27480W        W99806  16.377  24.598   1.289
27481W        W99807   3.029   0.265  12.972
27482W        W99808   9.792  24.459  14.944
27483W        W99809  25.079   6.645   1.382
27484W        W99810  15.891  13.152  11.618
27485W        W99811  22.526  18.820   1.709
27486W        W99812  11.144   1.968  10.704
27487W        W99813  42.522  32.189   2.338
27488W        W99814  10.127  35.513   4.286
27489W        W99815  25.085  19.279  10.628
27490W        W99816  40.127  25.017   2.333
27491W        W99817  29.674   4.716   4.162
27492W        W99818   2.172  36.056   3.678
27493W        W99819  23.554  41.527   1.158
27494W        W99820  40.864  13.880   4.244
27495W        W99821  40.720  23.180   1.657
27496W        W99822  15.657  18.131   1.862
27497W        W99823  28.272  19.214  10.947
27498W        W99824  17.243  36.032  13.752
27499W        W99825  10.137  38.368   4.709
27500W        W99826   3.253  30.473  12.165
27501W        W99827  40.095  39.877  14.943
27502W        W99828  42.948   2.347   3.081
27503W        W99829  27.035  36.597   3.591
27504W        W99830  41.931  42.440   1.883
27505W        W99831  15.828  30.189  13.182
27506W        W99832   7.143  36.090   0.460
27507W        W99833  29.963  37.372  11.988
27508W        W99834  21.427  44.579   4.796
27509W        W99835  15.674  43.071  10.300
27510W        W99836  10.803  11.081   4.698
27511W        W99837  14.223   8.869   1.251
27512W        W99838  35.099  22.481   3.252
27513W        W99839   7.226  41.508   3.760
27514W        W99840   2.267   3.066  10.177
27515W        W99841   1.384   5.832  11.141
27516W        W99842   7.825   3.965   2.726
27517W        W99843  18.201  44.775  10.766
27518W        W99844  36.221  40.187  11.597
27519W        W99845  38.580  14.247   3.523
27520W        W99846  32.146   0.118   0.782
27521W        W99847  33.996  16.487   0.238
27522W        W99848   4.809  33.622  11.504
27523W        W99849  15.063  12.109  12.561
27524W        W99850  42.162  12.263   0.319
27525W        W99851   1.391  24.978   2.723
27526W        W99852  17.877  10.192   0.214
27527W        W99853  17.170  11.581   3.111
27528W        W99854  30.460  14.604   4.299
27529W        W99855   0.834  29.930   1.230
27530W        W99856  29.384   2.273   0.324
27531W        W99857  42.999  16.704  11.964
27532W        W99858  13.564  14.848  13.480
27533W        W99859   0.962  25.304  11.522
27534W        W99860  44.815  36.306  12.091
27535W        W99861  33.566  42.529  12.966
27536W        W99862  34.953  25.316   2.100
27537W        W99863   9.358  22.139  10.506
27538W        W99864  25.035  37.133   0.289
27539W        W99865  32.408   1.021  12.687
27540W        W99866  32.700  20.281   0.793
27541W        W99867   5.211  15.999   3.579
27542W        W99868  26.632  42.159  11.110
27543W        W99869  10.277  12.968  10.756
27544W        W99870  15.360  28.445   0.882
27545W        W99871  10.127  40.470   4.068
27546W        W99872  31.992  31.173   1.464
27547W        W99873  25.636   3.315   9.942
27548W        W99874  18.752  15.606  11.739
27549W        W99875   5.352   9.971  11.137
27550W        W99876  19.704  24.404   4.093
27551W        W99877  22.213  39.663  13.557
27552W        W99878   5.817  32.961   4.866
27553W        W99879  11.911  40.719  10.602
27554W        W99880  22.369   9.632   1.258
27555W        W99881   3.496   0.724   4.105
27556W        W99882  22.335  22.957  13.912
27557W        W99883  16.302   9.153   4.069
27558W        W99884  42.779   1.854  10.768
27559W        W99885  16.719  34.505   3.640
27560W        W99886  40.881  29.380   4.106
27561W        W99887  15.619  13.543   2.460
27562W        W99888  18.174  29.689   1.325
27563W        W99889  40.770   1.509   0.982
27564W        W99890  40.331  10.162   1.439
27565W        W99891  14.408  25.660   3.705
27566W        W99892  17.667  11.691   1.299
27567W        W99893  34.358  36.018  14.056
27568W        W99894  17.198  22.936   3.649
27569W        W99895  27.774   7.890   3.130
27570W        W99896  14.018  36.263   9.772
27571W        W99897  18.327  10.461   1.965
27572W        W99898  37.320  27.892   0.501
27573W        W99899  37.336  24.813   3.266
27574W        W99900  11.212   5.260  11.153
27575W        W99901  20.063   3.547  10.887
27576W        W99902  41.960  14.585  14.901
27577W        W99903  36.976  23.779   4.149
27578W        W99904  36.037  17.571  12.000
27579W        W99905  22.207  31.387   0.449
27580W        W99906  18.648   2.507   2.315
27581W        W99907  23.013  34.795  13.493
27582W        W99908  39.290  24.796  13.882
27583W        W99909  41.048  38.613   3.628
27584W        W99910  13.658  43.342  14.310
27585W        W99911  32.390  44.449   4.743
27586W        W99912  36.033   5.308  13.712
27587W        W99913  16.783  32.556   0.466
27588W        W99914  35.906  25.231  13.958
27589W        W99915  25.627  36.454   1.329
27590W        W99916  26.672  11.937  11.065
27591W        W99917  18.249  35.316   3.297
27592W        W99918   1.666  43.950   1.529
27593W        W99919  20.722   8.459   4.379
27594W        W99920  15.093  34.387  13.534
27595W        W99921  39.230  39.565   2.275
27596W        W99922  18.662  40.609  13.939
27597W        W99923  22.450  30.424  10.123
27598W        W99924  20.131  42.499  11.922
27599W        W99925   7.463  31.144   4.634
27600W        W99926   7.287  35.408  14.537
27601W        W99927  14.381  11.720  11.064
27602W        W99928  10.798  35.693  10.633
27603W        W99929   5.303   3.875  10.730
27604W        W99930   0.474  23.522   3.207
27605W        W99931   7.760  44.544   3.629
27606W        W99932   4.305   0.909  10.816
27607W        W99933  10.841  27.120   4.824
27608W        W99934   4.818   3.518  12.098
27609W        W99935  30.950  18.802   3.539
27610W        W99936  23.753   3.486  12.123
27611W        W99937  33.044  21.203   0.044
27612W        W99938  16.684  18.569   3.640
27613W        W99939  38.973  21.550  12.466
27614W        W99940  11.097  44.721  11.245
27615W        W99941  13.970  19.598   3.384
27616W        W99942   5.302   1.962   4.436
27617W        W99943  17.577  29.270  12.910
27618W        W99944   3.051   4.860   5.567
27619W        W99945  12.503  33.604  13.907
27620W        W99946  23.386  16.626  13.369
27621W        W99947  32.377  26.937  11.682
27622W        W99948  23.807  12.934   0.801
27623W        W99949   8.716  30.084  11.088
27624W        W99950  40.587   0.933  11.589
27625W        W99951  34.632  35.919   3.738
27626W        W99952  21.527   2.616   1.524
27627W        W99953  18.585  23.930  14.665
27628W        W99954  12.668  34.716  13.382
27629W        W99955   8.600  36.860  12.370
27630W        W99956  22.734  19.635   4.618
27631W        W99957  13.171  15.263  14.339
27632W        W99958   8.595   5.265  13.812
27633W        W99959  39.799  25.674   4.139
27634W        W99960  14.096  28.183   1.422
27635W        W99961  13.494  38.471  10.341
27636W        W99962   5.843  40.538  13.468
27637W        W99963  14.460  33.614  12.073
27638W        W99964  30.446  31.938   4.256
27639W        W99965  23.228  18.298  12.843
27640W        W99966   1.443   6.947   0.780
27641W        W99967  23.476   8.647  14.024
27642W        W99968   9.513  38.968  10.801
27643W        W99969   2.605   7.806   1.481
27644W        W99970  41.088   9.797   4.142
27645W        W99971   9.819  27.420  11.191
27646W        W99972  39.106  21.042  12.476
27647W        W99973  41.569  27.504   2.566
27648W        W99974  10.805  28.785  11.204
27649W        W99975   9.848  21.655   0.216
27650W        W99976   6.121   7.935  11.186
27651W        W99977  44.943   6.081  12.088
27652W        W99978  43.372  44.538  11.730
27653W        W99979  21.372  13.038   2.331
27654W        W99980  42.435  42.071   3.835
27655W        W99981  22.168  28.137   3.786
27656W        W99982  41.570  28.880   4.559
27657W        W99983  27.453  20.248  13.070
27658W        W99984  30.692  26.690   2.604
27659W        W99985  31.060  13.722   0.388
27660W        W99986   7.719  20.856  14.493
27661W        W99987  33.823  25.461  13.472
27662W        W99988   7.100   9.044   1.772
27663W        W99989  20.720  26.622  12.900
27664W        W99990  26.942  12.271  13.375
27665W        W99991  15.664  25.666   0.817
27666W        W99992   2.981  23.125   3.389
27667W        W99993  31.939  42.870   2.792
27668W        W99994  41.068  38.560  10.534
27669W        W99995  14.315   4.959   0.361
27670W        W99996  26.148  26.205  11.951
27671W        W99997  33.582   7.533   3.765
27672W        W99998  29.615   7.196   1.669
27673W        W99999  24.274  37.471   1.687
27674W        W    0  13.158  21.692   4.065
27675W        W    1  37.925   7.681  11.225
27676W        W    2  21.973  17.143   2.270
27677W        W    3  23.658   3.474   2.744
27678W        W    4  23.177  42.257  13.486
27679W        W    5  44.288   7.676  11.962
27680W        W    6  32.576  39.690   4.734
27681W        W    7  10.808   6.158   4.841
27682W        W    8  34.982   0.556   1.799
27683W        W    9  25.309  20.593  11.545
27684W        W   10  26.192  16.710  11.951
27685W        W   11  34.471  21.146  12.588
27686W        W   12   4.935  44.300  13.892
27687W        W   13  36.570  33.674  12.933
27688W        W   14  14.631  26.166   5.076
27689W        W   15  21.981  33.974   3.915
27690W        W   16  36.940   5.837  13.482
27691W        W   17  40.281   6.647  14.126
27692W        W   18  17.766  18.182   0.467
27693W        W   19  20.224  11.619  11.608
27694W        W   20   5.626  22.330   0.784
27695W        W   21  22.047  18.961   3.164
27696W        W   22  29.447   8.321   2.354
27697W        W   23  42.428   0.680   4.126
27698W        W   24   4.772  18.334  10.676
27699W        W   25   4.942   4.352  11.550
27700W        W   26   3.382  24.099   1.542
27701W        W   27   8.103  23.954   4.095
27702W        W   28   9.039  37.028   0.942
27703W        W   29  18.563   4.685   1.294
27704W        W   30  26.007  21.806   0.801
27705W        W   31  23.717   2.397  11.202
27706W        W   32  41.386  23.127   2.280
27707W        W   33   1.449  15.318   2.749
27708W        W   34  31.643   0.671   4.204
27709W        W   35  40.889  44.895   4.537
27710W        W   36  37.304   8.389  12.386
27711W        W   37  31.437  34.486   2.457
27712W        W   38  44.143   0.856   1.953
27713W        W   39  11.697  43.763  11.946
27714W        W   40  38.338  26.952   0.256
27715W        W   41  37.913  40.561   4.857
27716W        W   42  30.440  30.394   4.255
27717W        W   43  36.592  26.440  14.008
27718W        W   44  38.164  22.299  12.927
27719W        W   45  39.632   5.226   2.410
27720W        W   46  38.178  25.128   2.348
27721W        W   47   4.849   4.445  12.057
27722W        W   48  30.819  42.414   0.827
27723W        W   49  27.456   0.484   1.006
27724W        W   50  34.211  30.966  12.641
27725W        W   51   0.283  41.861   3.728
27726W        W   52  22.671  42.598   2.257
27727W        W   53  12.573  44.367  12.839
27728W        W   54  30.477  23.705  13.426
27729W        W   55   1.816  31.176   4.549
27730W        W   56  21.062  38.351   3.806
27731W        W   57  26.485  42.285   4.006
27732W        W   58  43.059  14.808  10.591
27733W        W   59   8.230  26.998  13.407
27734W        W   60  11.634   7.268   1.862
27735W        W   61  23.818  19.110   2.235
27736W        W   62   1.002  12.280   4.150
27737W        W   63  35.497   8.121  12.135
27738W        W   64  41.796  17.838  12.314
27739W        W   65   9.467  31.623  11.621
27740W        W   66  21.655   2.914   0.036
27741W        W   67  41.058  18.061  14.048
27742W        W   68  25.092   8.814   1.241
27743W        W   69  28.989  26.145   2.607
27744W        W   70  25.684  30.072   3.710
27745W        W   71  40.598  34.273   2.760
27746W        W   72  43.053  19.300   1.324
27747W        W   73  18.216  35.137  10.690
27748W        W   74   2.548  16.092  13.984
27749W        W   75  29.562  39.665   5.197
27750W        W   76  36.805  28.202  12.319
27751W        W   77   0.684  39.978  10.670
27752W        W   78  17.192   8.179  13.305
27753W        W   79  17.325  22.434  13.957
27754W        W   80  23.502  26.534   2.031
27755W        W   81  12.225  20.968  12.936
27756W        W   82  27.037  37.537  14.836
27757W        W   83   6.980  10.035   4.117
27758W        W   84  41.361   7.889   0.188
27759W        W   85  38.606  40.547  13.504
27760W        W   86   2.192  31.675   0.788
27761W        W   87  32.081   1.870   2.516
27762W        W   88  43.848  24.494  11.657
27763W        W   89  36.013  42.557   1.839
27764W        W   90  18.065  34.279   4.191
27765W        W   91  32.478  38.968   1.270
27766W        W   92  12.954  39.439   5.043
27767W        W   93   1.046  35.213   0.760
27768W        W   94  24.928  22.531   3.461
27769W        W   95  43.901  40.499  10.610
27770W        W   96  18.317   3.045   0.849
27771W        W   97  32.206  44.077   0.828
27772W        W   98   7.182  43.255  11.616
27773W        W   99  25.918  20.680   3.468
27774W        W  100  15.730  32.916  13.945
27775W        W  101   1.055  16.383  11.160
27776W        W  102   6.717   0.496  13.472
27777W        W  103  40.551  28.892  10.402
27778W        W  104   8.816  25.363  14.322
27779W        W  105   6.931  37.343  13.527
27780W        W  106   0.227  25.972  11.217
27781W        W  107   3.950   2.527   3.631
27782W        W  108   0.374   0.384   3.811
27783W        W  109  29.845  40.694   4.302
27784W        W  110  40.085  44.005   1.763
27785W        W  111  11.044  17.384   0.407
27786W        W  112  14.843  36.959  10.674
27787W        W  113   1.678  27.835  12.403
27788W        W  114  31.090  10.648   0.522
27789W        W  115   7.303   2.597   3.904
27790W        W  116  25.982  20.452   1.821
27791W        W  117  19.514  21.466   1.015
27792W        W  118  28.987  22.483  10.982
27793W        W  119  34.954  10.363  12.375
27794W        W  120  36.276  15.585   5.157
27795W        W  121  40.774  22.905  14.469
27796W        W  122   4.759  17.359  10.617
27797W        W  123  39.532   2.298  12.843
27798W        W  124  31.016   8.851  11.105
27799W        W  125   2.517   8.781  11.694
27800W        W  126  43.607   0.828   0.797
27801W        W  127  32.939  32.391   0.185
27802W        W  128  19.991  13.702  10.962
27803W        W  129  34.838  32.887   0.764
27804W        W  130  14.833  40.986  12.632
27805W        W  131  31.933  32.973   1.818
27806W        W  132  22.182  32.925  12.045
27807W        W  133  43.698  41.981   4.800
27808W        W  134  34.965  30.058  13.364
27809W        W  135  33.305  23.485  14.539
27810W        W  136  34.135  33.378  12.649
27811W        W  137  35.859  43.282  12.383
27812W        W  138  23.288  14.249   3.692
27813W        W  139  16.487  34.969   3.803
27814W        W  140  17.674  15.061   2.376
27815W        W  141  41.380  38.008   1.397
27816W        W  142  28.961  32.472   2.667
27817W        W  143  17.123  24.929   0.842
27818W        W  144  29.257  18.731  11.503
27819W        W  145  40.031   6.718   2.396
27820W        W  146   5.855   9.371   1.451
27821W        W  147  43.760  19.343  12.069
27822W        W  148  36.561  23.802   3.318
27823W        W  149  44.888  18.567  14.762
27824W        W  150   9.859   0.744  13.128
27825W        W  151  38.112  17.705  13.353
27826W        W  152  33.916  12.590   4.786
27827W        W  153  18.561  27.836  12.043
27828W        W  154  15.612  27.084   0.812
27829W        W  155  22.265  15.094   5.178
27830W        W  156   6.380  16.540  11.612
27831W        W  157  38.409  36.588   2.260
27832W        W  158  36.179  13.171   1.379
27833W        W  159   9.258  15.070   0.892
27834W        W  160   2.228  41.785  11.129
27835W        W  161  13.628   5.421   3.145
27836W        W  162  16.529  44.246   3.720
27837W        W  163   4.170   1.510  12.347
27838W        W  164  36.590  24.034  11.594
27839W        W  165  15.327  44.625  13.391
27840W        W  166   7.162  11.142   2.867
27841W        W  167  31.888  17.185  13.286
27842W        W  168   0.327  27.951   4.570
27843W        W  169  17.687  12.140   2.406
27844W        W  170   2.270  19.060  12.981
27845W        W  171  28.953  21.689   2.166
27846W        W  172  21.601  37.898  13.323
27847W        W  173   3.451  24.691  11.413
27848W        W  174  25.425  20.432   4.127
27849W        W  175  43.305   4.325   0.785
27850W        W  176  18.838  17.653   3.310
27851W        W  177   9.479  34.238  10.881
27852W        W  178   5.449  23.170   0.933
27853W        W  179  23.589  17.598   5.080
27854W        W  180  37.418  36.431   1.431
27855W        W  181   3.620   0.652  13.942
27856W        W  182  24.748  15.735  11.822
27857W        W  183  17.072  44.607   0.301
27858W        W  184  20.625  42.020   2.339
27859W        W  185  15.138  20.067   1.146
27860W        W  186  32.979  10.476  10.452
27861W        W  187  24.072  33.919   1.697
27862W        W  188  26.717   4.220   0.350
27863W        W  189   5.668  17.684  13.470
27864W        W  190  17.335   5.944  13.872
27865W        W  191  44.885   4.800  12.699
27866W        W  192  36.166  43.992   1.190
27867W        W  193   3.793  39.058  14.804
27868W        W  194  27.241  15.438  11.700
27869W        W  195  28.949  36.007   1.695
27870W        W  196  30.483  14.327  14.937
27871W        W  197  21.544  23.852   0.052
27872W        W  198  18.963  33.851  12.877
27873W        W  199  23.253  30.210   2.056
27874W        W  200  14.178  25.118  10.060
27875W        W  201  19.672   2.011   1.870
27876W        W  202  32.643  38.987   4.189
27877W        W  203  22.122  26.346  11.075
27878W        W  204  28.435  22.958   3.630
27879W        W  205  26.880  24.288  14.372
27880W        W  206  39.528   9.879   2.693
27881W        W  207  38.552   6.568  13.794
27882W        W  208  17.191  11.911   1.330
27883W        W  209  16.565   2.852   0.494
27884W        W  210  25.118  34.649   3.173
27885W        W  211  19.441   0.229   1.764
27886W        W  212  36.991  18.154  12.785
27887W        W  213   7.608  43.969  10.985
27888W        W  214  44.585  28.070  11.112
27889W        W  215  36.024  39.592  13.469
27890W        W  216  38.256   1.236  12.544
27891W        W  217   2.891  20.715   2.818
27892W        W  218  23.161  34.002  12.727
27893W        W  219  15.813  17.738   3.863
27894W        W  220  30.572  13.335  11.166
27895W        W  221  24.480  31.377  14.802
27896W        W  222  33.185   9.696   0.422
27897W        W  223   7.731  10.119   1.404
27898W        W  224  25.404  44.780  13.439
27899W        W  225   1.222  38.375   3.380
27900W        W  226  33.544  33.042   4.633
27901W        W  227  35.594  13.219   3.748
27902W        W  228  30.760  42.478  13.961
27903W        W  229  18.662  25.920   2.626
27904W        W  230  42.486   6.971   3.686
27905W        W  231  13.632  34.879   1.335
27906W        W  232  14.588  38.508  14.058
27907W        W  233  12.321  11.420  14.821
27908W        W  234  24.706  13.832  14.528
27909W        W  235   6.850   3.469  11.137
27910W        W  236  43.875   1.698  13.095
27911W        W  237  18.219   2.035   0.833
27912W        W  238  28.728   1.682   0.560
27913W        W  239   1.653  12.742   3.659
27914W        W  240  30.185  21.039   1.842
27915W        W  241  31.146   3.474   0.225
27916W        W  242  24.161  35.471  11.639
27917W        W  243  15.367  29.894  11.167
27918W        W  244   5.711  23.692   4.564
27919W        W  245  21.547  29.387   3.138
27920W        W  246  44.402  43.799  12.604
27921W        W  247  31.347  39.906  12.273
27922W        W  248  37.625  14.267   1.823
27923W        W  249  41.300   5.155   2.681
27924W        W  250  33.565  10.292   2.828
27925W        W  251  10.410   6.447  13.567
27926W        W  252  29.519  43.079   4.219
27927W        W  253   0.863  10.576   3.806
27928W        W  254  27.476  12.702  10.636
27929W        W  255  24.031  44.274  13.964
27930W        W  256   9.618  22.073   3.844
27931W        W  257  10.535  10.360   3.663
27932W        W  258   0.247  16.909  13.922
27933W        W  259   1.353   5.774   4.645
27934W        W  260   9.655   4.185   4.565
27935W        W  261  33.245  29.367  14.163
27936W        W  262  36.195   5.635   0.442
27937W        W  263   4.841  38.924  12.462
27938W        W  264  22.688  11.407  13.363
27939W        W  265  16.698  14.029  14.455
27940W        W  266  35.802  16.824  12.324
27941W        W  267  23.383  36.964   5.308
27942W        W  268  28.010  26.042   4.997
27943W        W  269  32.101   9.761  11.215
27944W        W  270  35.330   1.266   4.642
27945W        W  271  24.549   1.731  13.378
27946W        W  272  43.123  43.707  10.104
27947W        W  273   8.885  15.426   0.852
27948W        W  274  21.202  23.660  14.707
27949W        W  275  39.338   9.243   2.842
27950W        W  276  30.257   7.747  10.809
27951W        W  277  17.125  23.153   1.665
27952W        W  278  29.427   7.369   2.455
27953W        W  279  41.148  42.328   3.045
27954W        W  280  40.059  31.156   3.213
27955W        W  281   0.081  37.743   1.681
27956W        W  282  18.377  39.567   1.400
27957W        W  283  18.697  25.696  12.399
27958W        W  284  21.321  34.147   2.605
27959W        W  285  16.547  18.502  10.663
27960W        W  286   6.392  34.397  13.408
27961W        W  287  35.006  39.566  11.617
27962W        W  288  31.904  18.486   1.938
27963W        W  289  26.559  10.553  12.044
27964W        W  290  39.115  38.741   1.202
27965W        W  291   2.699  40.917   3.559
27966W        W  292  11.218  25.235  11.919
27967W        W  293  23.339  44.549  11.131
27968W        W  294  26.575  19.934   3.575
27969W        W  295  27.713  44.095  11.270
27970W        W  296  21.035  35.977   2.944
27971W        W  297  28.109  39.971   0.975
27972W        W  298   3.457  14.754  13.935
27973W        W  299  41.012  38.353   0.278
27974W        W  300  31.653  24.036  13.886
27975W        W  301  32.544   4.810  13.399
27976W        W  302  17.124  29.972  13.358
27977W        W  303   8.793   6.721  14.193
27978W        W  304   7.804   1.855  13.882
27979W        W  305   7.850  25.131  11.205
27980W        W  306  29.713   8.358  11.153
27981W        W  307  43.443   4.626  14.016
27982W        W  308  26.143  42.686   4.172
27983W        W  309  15.670  14.709  10.881
27984W        W  310  25.686  11.787  12.151
27985W        W  311   9.896  44.060   4.708
27986W        W  312  22.929  24.217   3.711
27987W        W  313  33.950  31.015  11.647
27988W        W  314  29.363  33.275  14.425
27989W        W  315  10.094  11.265  13.561
27990W        W  316   5.242  23.662   4.831
27991W        W  317  41.611  36.418   2.209
27992W        W  318   7.687   8.268   2.285
27993W        W  319  39.572  27.001   0.759
27994W        W  320  35.677  22.002  14.495
27995W        W  321   8.670  27.077   4.231
27996W        W  322  20.094   8.838   1.877
27997W        W  323  28.733  16.262  14.274
27998W        W  324   5.945  42.134  13.561
27999W        W  325  28.143  38.000   4.821
28000W        W  326  33.371  36.413  14.812
28001W        W  327  39.119   5.729   2.651
28002W        W  328  38.955  32.480  11.331
28003W        W  329  44.594   3.479   3.526
28004W        W  330   1.865  29.581  11.036
28005W        W  331  37.256  19.748   2.443
28006W        W  332   4.437   6.164   1.795
28007W        W  333  33.913  34.059  11.090
28008W        W  334   1.660   3.374   2.142
28009W        W  335  19.022  33.543  10.413
28010W        W  336  42.814   1.608  11.665
28011W        W  337  15.767   3.068   3.229
28012W        W  338  28.697   5.825   3.353
28013W        W  339  26.526  18.751  13.445
28014W        W  340   3.466  28.892   0.948
28015W        W  341  27.151  29.678   4.795
28016W        W  342  41.238  28.826  11.511
28017W        W  343  33.833  44.349  10.652
28018W        W  344   8.839  37.516  11.451
28019W        W  345   3.524   6.294   4.568
28020W        W  346  30.105  10.404  14.027
28021W        W  347   9.632  28.631  11.678
28022W        W  348  41.007  11.570  12.917
28023W        W  349   8.505  20.102   0.973
28024W        W  350  39.248  43.045   1.849
28025W        W  351  23.264  44.498   1.525
28026W        W  352  23.148  19.550   1.052
28027W        W  353  19.487  28.889  10.862
28028W        W  354  28.683  37.424   0.364
28029W        W  355  33.445  12.754  10.622
28030W        W  356  38.790  40.523   1.649
28031W        W  357   4.785   7.129   4.627
28032W        W  358  39.584  28.457   4.174
28033W        W  359  18.023  33.879  12.523
28034W        W  360  16.130  12.465  10.881
28035W        W  361   5.360  15.307  12.487
28036W        W  362  17.549  33.852  11.688
28037W        W  363  22.500  31.349   3.257
28038W        W  364  35.423   2.153   3.634
28039W        W  365  14.589  24.749  12.219
28040W        W  366   2.090  23.670  11.987
28041W        W  367  13.057  40.438   4.584
28042W        W  368   9.884  34.475   3.604
28043W        W  369  21.997  44.832   0.599
28044W        W  370  34.334  13.665  12.543
28045W        W  371  24.010  24.534  10.616
28046W        W  372  37.603  37.980   2.905
28047W        W  373   9.807  41.449  10.502
28048W        W  374  14.482  34.462  12.079
28049W        W  375   9.342  33.987   2.393
28050W        W  376  35.894  13.572   2.916
28051W        W  377  13.564  27.151  10.941
28052W        W  378   5.803   4.807   5.045
28053W        W  379  33.760   6.127   2.160
28054W        W  380  37.600  43.805  12.436
28055W        W  381  23.561  32.456   2.797
28056W        W  382  20.461  27.157   4.099
28057W        W  383   9.745  13.302   3.831
28058W        W  384   2.428  39.548  14.260
28059W        W  385   1.358  42.984  13.538
28060W        W  386  17.872  13.666   2.398
28061W        W  387   9.924  15.349   2.827
28062W        W  388  24.253   5.286   3.187
28063W        W  389  43.751  37.765  10.953
28064W        W  390  31.127   3.990   2.339
28065W        W  391  28.047  43.514  14.756
28066W        W  392  37.404   7.443  14.926
28067W        W  393  27.532   6.444   0.362
28068W        W  394  39.339  41.403   3.311
28069W        W  395  31.472  34.507   0.276
28070W        W  396  10.216  32.416   3.271
28071W        W  397  42.075  41.268  10.836
28072W        W  398   1.808  24.799   1.402
28073W        W  399  25.725  16.359   0.248
28074W        W  400  31.856  38.517   1.440
28075W        W  401  12.312  28.967  12.128
28076W        W  402  26.895  34.842   2.322
28077W        W  403  28.571  16.770   0.535
28078W        W  404   7.005  24.519  10.474
28079W        W  405  25.576  41.569   3.682
28080W        W  406  42.793  10.901  11.573
28081W        W  407  21.672  40.445  14.258
28082W        W  408  20.339  42.523  12.385
28083W        W  409  32.065  25.538   0.838
28084W        W  410   7.735   3.571   4.535
28085W        W  411  29.218  31.704   3.140
28086W        W  412   3.303  41.151  12.214
28087W        W  413  24.716  31.011  11.514
28088W        W  414   8.948  25.221   2.672
28089W        W  415  35.252  10.389   4.124
28090W        W  416  22.609  10.388  12.454
28091W        W  417  17.252  33.428  12.478
28092W        W  418  11.822  24.711   9.804
28093W        W  419  25.902  30.150   1.234
28094W        W  420  29.926   1.969  11.546
28095W        W  421  34.275   6.433  12.861
28096W        W  422  28.916  38.985  14.441
28097W        W  423  36.871   3.816  12.577
28098W        W  424  11.351   0.246   3.094
28099W        W  425   4.603  33.970   4.992
28100W        W  426   9.823  38.950   3.718
28101W        W  427  23.530  29.147  11.187
28102W        W  428  19.514   6.017   4.184
28103W        W  429  29.208  38.877   1.270
28104W        W  430  16.204  21.989  13.085
28105W        W  431  24.831   8.311  11.673
28106W        W  432  21.290  33.947  12.957
28107W        W  433  40.621  36.762  12.498
28108W        W  434   8.325  12.246   2.914
28109W        W  435  33.084  10.986  10.604
28110W        W  436  11.039  30.752   0.889
28111W        W  437  28.536  35.104   2.807
28112W        W  438  24.196  21.266  10.650
28113W        W  439  40.238  12.468   1.438
28114W        W  440  41.431  36.822   4.252
28115W        W  441  30.850  44.263   4.972
28116W        W  442   4.180  24.129  14.190
28117W        W  443   8.639  31.615   0.772
28118W        W  444  17.192   5.420  10.299
28119W        W  445   0.453  35.356   3.765
28120W        W  446  39.940  20.356  12.936
28121W        W  447  37.102  31.858   2.335
28122W        W  448  18.587   0.631   2.079
28123W        W  449   8.683  34.270   1.322
28124W        W  450  41.692  17.561   1.373
28125W        W  451  43.246  15.872   1.089
28126W        W  452  42.072   4.912   4.126
28127W        W  453   8.603   9.225   0.578
28128W        W  454  21.507  19.711   4.314
28129W        W  455  42.203   1.029  14.244
28130W        W  456  41.432  42.452  10.628
28131W        W  457  10.218  39.504   0.986
28132W        W  458   0.359  43.210   1.616
28133W        W  459  12.305  28.247   0.840
28134W        W  460  33.083  36.847   2.429
28135W        W  461  40.414  38.485  11.167
28136W        W  462  16.109   1.850  13.378
28137W        W  463  14.812  23.162  14.443
28138W        W  464  21.864  30.595   1.867
28139W        W  465   9.924  37.419   0.482
28140W        W  466  42.493  35.918   0.192
28141W        W  467  33.171  33.885  13.003
28142W        W  468  28.651  24.033   3.591
28143W        W  469  22.742   5.254  13.497
28144W        W  470   2.867  33.050  10.477
28145W        W  471   1.232  19.695  12.477
28146W        W  472   4.732  44.537   4.275
28147W        W  473  40.782  26.491   2.043
28148W        W  474  29.605   2.797   2.718
28149W        W  475   3.857  36.602  14.365
28150W        W  476  22.128   9.298   2.016
28151W        W  477  32.997  34.878  13.088
28152W        W  478  19.352  17.499  14.924
28153W        W  479  33.581  17.899  11.865
28154W        W  480  16.817   5.826  13.775
28155W        W  481   7.493  37.656   3.301
28156W        W  482  11.351   3.368  10.941
28157W        W  483  17.797  43.488   4.080
28158W        W  484  16.310  12.330   2.197
28159W        W  485  26.661  37.792  12.800
28160W        W  486   8.810  31.046  13.292
28161W        W  487  12.914  21.053  11.520
28162W        W  488  32.989  14.449   2.648
28163W        W  489  25.920  44.758  13.451
28164W        W  490  42.340   7.892   2.438
28165W        W  491  21.866  25.884  12.047
28166W        W  492  17.080  13.104  13.441
28167W        W  493   9.934  43.912  11.687
28168W        W  494  24.108   4.377  10.992
28169W        W  495  23.013   5.383   3.429
28170W        W  496  28.597  19.256  11.774
28171W        W  497   6.251  22.695  13.446
28172W        W  498   6.982  29.798   3.629
28173W        W  499  23.667  16.601   0.361
28174W        W  500  37.956  14.196  10.995
28175W        W  501   8.676  31.389   1.484
28176W        W  502  44.941  33.356  10.207
28177W        W  503   4.001  43.798   0.985
28178W        W  504  14.654  22.457   1.845
28179W        W  505   6.122  18.565  10.460
28180W        W  506  23.972   2.223   3.257
28181W        W  507  38.895  13.882   1.925
28182W        W  508  33.399  35.113   2.630
28183W        W  509  13.138  34.930   2.159
28184W        W  510  33.552  18.556  11.110
28185W        W  511  31.966  35.960   4.581
28186W        W  512  30.138  32.948   2.271
28187W        W  513   5.015  41.541  13.083
28188W        W  514  17.314  24.552  12.553
28189W        W  515  23.054  15.657  13.331
28190W        W  516  20.219  12.854   2.792
28191W        W  517  40.374  30.435   4.846
28192W        W  518  28.127  33.679   1.603
28193W        W  519  20.125   6.345   3.438
28194W        W  520  43.016  22.391   1.042
28195W        W  521  40.457  44.767   4.230
28196W        W  522  44.862  17.234   4.154
28197W        W  523   8.132  34.400   3.240
28198W        W  524   7.737  19.712  13.340
28199W        W  525  20.068  41.902  10.997
28200W        W  526  14.265  16.739  12.106
28201W        W  527  13.225   8.146   4.270
28202W        W  528   8.215   7.403   3.387
28203W        W  529  30.859  39.510   3.192
28204W        W  530   0.810  23.734   0.742
28205W        W  531  10.786  12.916   4.097
28206W        W  532   0.496   6.482   0.735
28207W        W  533  19.222   6.888  13.490
28208W        W  534  32.510  31.650   4.238
28209W        W  535  36.039  20.145  14.059
28210W        W  536  16.763  36.204  11.222
28211W        W  537  18.888  13.872   2.239
28212W        W  538  39.378  33.302  13.507
28213W        W  539  21.685  16.216   0.707
28214W        W  540  14.161   1.931   3.121
28215W        W  541  41.462  19.538   0.051
28216W        W  542  35.450  13.704   1.452
28217W        W  543  40.845  12.561  10.672
28218W        W  544  14.636  29.534  11.590
28219W        W  545  20.041  40.218  11.457
28220W        W  546  35.986   0.237   4.585
28221W        W  547  31.344  27.968   2.812
28222W        W  548   0.340  12.681  14.908
28223W        W  549   6.758  38.896   0.506
28224W        W  550   9.314  25.598   2.763
28225W        W  551  36.980  38.089  12.732
28226W        W  552  28.039  25.455  13.500
28227W        W  553  44.749   7.430  12.060
28228W        W  554  37.268  13.131  12.169
28229W        W  555  43.852  23.650  14.453
28230W        W  556  40.437  25.703   0.444
28231W        W  557   5.028  22.297   3.653
28232W        W  558  25.012  43.414   3.545
28233W        W  559  16.847  17.830  14.556
28234W        W  560  13.177   5.382  14.994
28235W        W  561  13.792   8.467   0.272
28236W        W  562   9.423  21.683   1.903
28237W        W  563  25.059  33.587   3.167
28238W        W  564  15.181  42.954   4.577
28239W        W  565  14.187  26.919   2.858
28240W        W  566  39.381   2.485   4.051
28241W        W  567  44.837  30.522  13.881
28242W        W  568   8.143  14.649   0.852
28243W        W  569  19.291  36.388   4.007
28244W        W  570  34.476  35.891   5.204
28245W        W  571  25.666  32.606  14.928
28246W        W  572  36.020  15.184  14.341
28247W        W  573  26.237   1.275   5.109
28248W        W  574  41.379  26.591  11.618
28249W        W  575  24.921  39.134  11.038
28250W        W  576  20.209  23.982  12.051
28251W        W  577  43.571  26.649  12.565
28252W        W  578  33.976  24.193   2.762
28253W        W  579  35.491  32.668  10.279
28254W        W  580   2.819  15.998  12.140
28255W        W  581   2.827   3.397   3.353
28256W        W  582  27.895  22.045  13.277
28257W        W  583   0.697  15.686  10.004
28258W        W  584  23.736   0.683  13.507
28259W        W  585  16.656   8.846   2.376
28260W        W  586   3.180  12.237  11.621
28261W        W  587  22.124  23.994  10.762
28262W        W  588  34.627  22.354   1.235
28263W        W  589  44.950  38.410  12.094
28264W        W  590  18.752   4.464  11.515
28265W        W  591  18.636  23.809  13.923
28266W        W  592  26.844  38.858  14.373
28267W        W  593  32.467  17.698  13.841
28268W        W  594  21.585   2.142  10.664
28269W        W  595  43.291  20.773  13.793
28270W        W  596  33.533  42.620  10.672
28271W        W  597  27.005   0.440   4.566
28272W        W  598  21.906  41.428   4.936
28273W        W  599  23.029   8.157   0.915
28274W        W  600   4.590  30.462   4.925
28275W        W  601  27.959  31.660   4.189
28276W        W  602  29.666   2.269   4.152
28277W        W  603  23.615  23.520  11.153
28278W        W  604  30.932  28.868   4.815
28279W        W  605  43.016  35.422  13.470
28280W        W  606  24.130  35.891  13.451
28281W        W  607  43.698  32.382  11.152
28282W        W  608  12.287  44.561  14.448
28283W        W  609  27.033  34.825  13.291
28284W        W  610  28.963  24.467  11.030
28285W        W  611  37.308   6.795   0.802
28286W        W  612  33.225   6.959  14.866
28287W        W  613  13.546   1.324  12.034
28288W        W  614  19.057  31.863   4.161
28289W        W  615  31.923  27.636   1.315
28290W        W  616  22.224  35.854   0.735
28291W        W  617  23.049   6.407   3.464
28292W        W  618   5.312  12.650   4.121
28293W        W  619  22.831  20.529  13.396
28294W        W  620   9.905  24.966  14.860
28295W        W  621   2.443  38.499  11.209
28296W        W  622  10.692  26.586   2.417
28297W        W  623  10.217  29.899   3.831
28298W        W  624  27.156  40.208   3.742
28299W        W  625  18.728  42.039  11.600
28300W        W  626  34.319  24.721   2.735
28301W        W  627  11.594  31.045   3.481
28302W        W  628  31.044  27.619  11.482
28303W        W  629  15.269  41.060  12.371
28304W        W  630  17.555   0.797  12.897
28305W        W  631  12.575  19.837  13.708
28306W        W  632  39.256  25.999   4.688
28307W        W  633   1.344  28.866  12.026
28308W        W  634  26.628   5.745   1.053
28309W        W  635  16.725  22.213  13.788
28310W        W  636  20.585  12.103   1.768
28311W        W  637  26.219  36.964   0.774
28312W        W  638  29.924  13.081  12.457
28313W        W  639  27.119  44.714  12.559
28314W        W  640  23.058  25.155  13.897
28315W        W  641  39.951  30.340   1.971
28316W        W  642   6.752   1.466   4.099
28317W        W  643  19.285  26.570   1.651
28318W        W  644  31.218  41.626  14.745
28319W        W  645   3.977   8.981  11.593
28320W        W  646  36.354  24.204  14.406
28321W        W  647  36.019  25.520   3.570
28322W        W  648  31.896  38.963  11.528
28323W        W  649  15.744  29.446   4.091
28324W        W  650  32.651  11.843  12.506
28325W        W  651   7.777  19.748   0.777
28326W        W  652  12.325   9.249  14.126
28327W        W  653  31.004   5.113  13.310
28328W        W  654  34.186   4.895   1.337
28329W        W  655  37.423  13.360  10.813
28330W        W  656  35.074  39.369  14.655
28331W        W  657  35.990  31.235   4.843
28332W        W  658  41.028  14.227  11.942
28333W        W  659  15.108  41.558  13.952
28334W        W  660  33.972  44.388   2.923
28335W        W  661   2.655   3.808  12.017
28336W        W  662  17.138  14.262   2.859
28337W        W  663   3.476   4.703  14.938
28338W        W  664  16.583  44.316   1.952
28339W        W  665  33.987  39.796   4.193
28340W        W  666  27.534  26.726  10.259
28341W        W  667   7.317  41.941  10.979
28342W        W  668   2.905   3.522  10.474
28343W        W  669   3.860  30.610   5.065
28344W        W  670  40.455  44.247  11.028
28345W        W  671  39.636  27.667  12.326
28346W        W  672   4.682  41.458  10.438
28347W        W  673  26.184   3.950   2.010
28348W        W  674  34.133  34.905   1.982
28349W        W  675  42.768  39.240   2.831
28350W        W  676  12.461  22.680   1.534
28351W        W  677  32.375  16.829  12.927
28352W        W  678  13.508  27.938   1.826
28353W        W  679  44.758  43.792   0.360
28354W        W  680  15.168  11.707  10.575
28355W        W  681  34.336   6.604   4.256
28356W        W  682  43.552  33.864   1.444
28357W        W  683  38.011  31.555  13.707
28358W        W  684  35.094   5.220  11.104
28359W        W  685  36.044  16.983  12.765
28360W        W  686  14.294   3.565  13.846
28361W        W  687  38.478  43.139  14.983
28362W        W  688  43.504  25.829  13.552
28363W        W  689  31.323  10.976  10.973
28364W        W  690  35.143   3.832   0.279
28365W        W  691  10.626  11.861  14.499
28366W        W  692  23.259  28.948  13.563
28367W        W  693  34.655  33.256   1.610
28368W        W  694   7.640   3.508   2.764
28369W        W  695  35.881  19.499   2.246
28370W        W  696  35.938   4.006   2.182
28371W        W  697   6.858  12.657   0.387
28372W        W  698  16.261  39.425   4.565
28373W        W  699  12.294  41.058  12.962
28374W        W  700  14.843  10.860  10.476
28375W        W  701  15.595  40.116  13.139
28376W        W  702  15.075  26.539   1.058
28377W        W  703  16.240  23.124  10.323
28378W        W  704  34.688  19.582  10.753
28379W        W  705  16.269  12.687   4.580
28380W        W  706  31.179   7.066  12.378
28381W        W  707   7.127  33.890   0.797
28382W        W  708  18.091  18.853   4.925
28383W        W  709   0.234   6.981   0.442
28384W        W  710  10.821  26.447   0.409
28385W        W  711   7.284  11.203  11.492
28386W        W  712  25.078  31.309   4.323
28387W        W  713   0.461  17.623   0.399
28388W        W  714   2.962   0.864  13.654
28389W        W  715  40.325  17.802   3.310
28390W        W  716  26.590  43.369  10.612
28391W        W  717  43.268  37.135  12.021
28392W        W  718   7.567  37.959  10.751
28393W        W  719  38.795  32.559   1.707
28394W        W  720  25.042  15.053   4.135
28395W        W  721   8.528  20.897  13.051
28396W        W  722   4.468  33.562  13.608
28397W        W  723  31.981   5.434  11.985
28398W        W  724  26.194  33.407   2.686
28399W        W  725  40.103  36.502   1.887
28400W        W  726  39.016   5.701  11.133
28401W        W  727  33.311  26.642   0.004
28402W        W  728  29.615  42.772  12.471
28403W        W  729  37.076  21.560  14.156
28404W        W  730  39.960  16.016   3.402
28405W        W  731  19.004  38.887   1.001
28406W        W  732  22.202  23.913   0.709
28407W        W  733  35.955  13.659   2.276
28408W        W  734  31.059  44.057  12.541
28409W        W  735  35.501  20.857   3.187
28410W        W  736  24.522  20.017   1.250
28411W        W  737  25.751  34.338  10.744
28412W        W  738   1.808  17.477   2.443
28413W        W  739  33.195  30.939  14.898
28414W        W  740   9.072   5.738   4.497
28415W        W  741   4.905  44.896   0.994
28416W        W  742  12.362  18.797   2.160
28417W        W  743  43.949  38.008  10.530
28418W        W  744   9.155  22.069   3.606
28419W        W  745  43.022  34.327   2.256
28420W        W  746  23.535  15.091  11.530
28421W        W  747   3.823  40.368   3.795
28422W        W  748  18.338  24.851  11.842
28423W        W  749  33.139  26.579  13.307
28424W        W  750  18.215  35.945  13.060
28425W        W  751  15.647  19.228  13.000
28426W        W  752   5.158  33.370  10.760
28427W        W  753  16.366   1.313  11.448
28428W        W  754  10.408   7.206  12.133
28429W        W  755  33.681  39.737  11.471
28430W        W  756   9.361  20.698   1.330
28431W        W  757   9.623  21.781  12.514
28432W        W  758  41.817  40.695   4.794
28433W        W  759  25.140  15.905   0.817
28434W        W  760   4.930  30.492  10.384
28435W        W  761  16.081  40.271   4.383
28436W        W  762  42.374  32.831  13.813
28437W        W  763  18.088  28.081  13.811
28438W        W  764  31.168  16.760   3.194
28439W        W  765   8.922  43.783  12.956
28440W        W  766   9.380  23.538  11.575
28441W        W  767  35.518  44.854   1.842
28442W        W  768  40.943  21.659   4.636
28443W        W  769   2.746   1.970   4.148
28444W        W  770  10.357  31.305   4.324
28445W        W  771  42.239  41.946  12.803
28446W        W  772  13.217  44.202  13.528
28447W        W  773  40.269   5.151   4.555
28448W        W  774   8.221  33.665  13.891
28449W        W  775  22.550  37.503  13.366
28450W        W  776  40.454  18.220   2.394
28451W        W  777   8.312  28.519   0.525
28452W        W  778  28.059  20.169  14.562
28453W        W  779  23.256   9.192  10.693
28454W        W  780  39.090  28.653   0.803
28455W        W  781  23.886  43.412  10.447
28456W        W  782  39.577  30.395   4.099
28457W        W  783  21.078  41.826   4.884
28458W        W  784  38.431  19.437   3.113
28459W        W  785   0.258  23.529  10.630
28460W        W  786  11.353  14.759  14.475
28461W        W  787   9.374  34.160   1.912
28462W        W  788  27.132  24.773  11.100
28463W        W  789  36.096  32.973  12.349
28464W        W  790   9.349  44.326   1.327
28465W        W  791   9.020  16.469   4.288
28466W        W  792  37.894  19.315   1.247
28467W        W  793  23.694   5.289   2.453
28468W        W  794  15.806  10.272   1.780
28469W        W  795  23.708   6.103   1.207
28470W        W  796  21.549  35.859   2.810
28471W        W  797  33.222  38.471   1.671
28472W        W  798   1.417   1.027   2.252
28473W        W  799   6.949  43.080  12.615
28474W        W  800  41.428   8.621  13.708
28475W        W  801  18.521   2.696  12.405
28476W        W  802  22.620   4.314   2.271
28477W        W  803  32.572  40.764   4.376
28478W        W  804  38.376   5.498  12.958
28479W        W  805  21.508  32.716  13.031
28480W        W  806  16.249  33.608  12.450
28481W        W  807  43.780  36.804  12.867
28482W        W  808  25.590  39.245   1.869
28483W        W  809   4.947  44.697   3.572
28484W        W  810  19.289   9.844   0.217
28485W        W  811  18.638   8.713   3.592
28486W        W  812  38.530  25.590   1.806
28487W        W  813   1.418  33.830  13.968
28488W        W  814  19.047  41.440   1.791
28489W        W  815   7.388  30.394   1.520
28490W        W  816   4.207   9.093   0.188
28491W        W  817  13.618  14.218   4.263
28492W        W  818  35.824  32.374  11.532
28493W        W  819  36.032  33.376   4.407
28494W        W  820  37.736  23.790   4.196
28495W        W  821  21.129  13.767   3.964
28496W        W  822  14.601  10.135   0.913
28497W        W  823  27.540  43.591   2.750
28498W        W  824  40.089   9.819  12.025
28499W        W  825  23.121   4.380  14.427
28500W        W  826   6.271  23.009  10.079
28501W        W  827  40.061  30.567   3.406
28502W        W  828  20.531  17.853   2.308
28503W        W  829  25.865  21.157   3.636
28504W        W  830  17.258  12.684   3.544
28505W        W  831  22.598   7.404   0.536
28506W        W  832  44.011  39.590  10.940
28507W        W  833  11.367  19.030   2.375
28508W        W  834  42.476  11.199  14.309
28509W        W  835  26.547  44.743   0.399
28510W        W  836  10.056  31.539   2.724
28511W        W  837  28.464  10.470   3.688
28512W        W  838  22.971  31.682  13.360
28513W        W  839  20.701  17.253  11.344
28514W        W  840  40.064  19.412  13.963
28515W        W  841  33.773  37.802  12.377
28516W        W  842  37.270  25.514   2.250
28517W        W  843  28.439  41.627  14.803
28518W        W  844   5.494  27.045  12.346
28519W        W  845  14.557  39.904  14.957
28520W        W  846  16.062  11.776  14.490
28521W        W  847  39.598  16.303   1.183
28522W        W  848  14.230  30.194  14.354
28523W        W  849  43.591  42.306  12.048
28524W        W  850  37.447  33.240   1.992
28525W        W  851  40.336  25.727  13.416
28526W        W  852  31.440  40.994   0.245
28527W        W  853  38.357  18.047  11.932
28528W        W  854  38.014  35.481   3.778
28529W        W  855  30.641  17.020   4.477
28530W        W  856  22.857   3.561   0.329
28531W        W  857   3.207  26.946   3.236
28532W        W  858  15.533  32.469   3.701
28533W        W  859  14.687  38.944   0.856
28534W        W  860  24.878  15.710  14.851
28535W        W  861  29.982  15.297  12.374
28536W        W  862  30.843  32.406   2.395
28537W        W  863   9.763   8.642   2.627
28538W        W  864  11.134  31.488  14.405
28539W        W  865  14.530  28.897  14.740
28540W        W  866  33.867  16.637  10.371
28541W        W  867  22.291   3.703  12.145
28542W        W  868   3.888  24.673  11.127
28543W        W  869  35.426  30.668   2.788
28544W        W  870  20.623   5.904   1.899
28545W        W  871  23.387  40.202   5.160
28546W        W  872  23.853  44.752  11.149
28547W        W  873   6.605  14.846   0.792
28548W        W  874   1.915  22.028   0.756
28549W        W  875   7.104   4.926  14.517
28550W        W  876  30.981   2.929   1.505
28551W        W  877  44.838  37.827   1.228
28552W        W  878  21.473   8.770  11.598
28553W        W  879  30.696  18.990  13.253
28554W        W  880  15.205  16.482  14.136
28555W        W  881   8.390  35.046   0.384
28556W        W  882  26.029  27.291  11.923
28557W        W  883  18.578  34.853  10.416
28558W        W  884  38.439  11.347  11.769
28559W        W  885   4.686  19.086   1.987
28560W        W  886  19.792  20.250   0.200
28561W        W  887  25.022  38.024   2.651
28562W        W  888   7.594  16.747   2.898
28563W        W  889  14.718   0.295  12.841
28564W        W  890  42.892  32.456  14.327
28565W        W  891  17.644   9.251   0.383
28566W        W  892  10.895  31.169  14.067
28567W        W  893   2.552  41.430   1.699
28568W        W  894  44.877  30.974   3.073
28569W        W  895  21.316  27.246  12.065
28570W        W  896  19.912   2.203  13.473
28571W        W  897  32.197  44.516   0.116
28572W        W  898   4.254  30.665  13.927
28573W        W  899   0.171  25.298  12.080
28574W        W  900  10.658  14.582  11.115
28575W        W  901  16.610   1.785   4.371
28576W        W  902  43.455  35.131  12.096
28577W        W  903  24.714  32.574   3.741
28578W        W  904  37.252  32.776  10.690
28579W        W  905  35.796  10.117   1.194
28580W        W  906  22.612  37.592  10.721
28581W        W  907  20.629  33.050   4.557
28582W        W  908  13.820   9.586  11.438
28583W        W  909  18.168   2.321  12.347
28584W        W  910  40.101  27.008   3.736
28585W        W  911   3.348   3.757  13.617
28586W        W  912  32.773  31.237   1.886
28587W        W  913   4.011  26.934   2.181
28588W        W  914  40.776  25.659   0.818
28589W        W  915  34.042  34.354   5.011
28590W        W  916   0.176   1.373   1.404
28591W        W  917  36.996  22.612   3.777
28592W        W  918  23.562  13.542   1.273
28593W        W  919  24.307  40.607  12.578
28594W        W  920   2.413  20.795  14.297
28595W        W  921  24.185  10.909   3.289
28596W        W  922  27.183  27.536  10.674
28597W        W  923  29.257  36.853   4.613
28598W        W  924  25.110  16.800  10.609
28599W        W  925  43.026  29.999   2.305
28600W        W  926   9.376  36.573  12.130
28601W        W  927  19.846  25.506   2.677
28602W        W  928  19.242   4.666  11.416
28603W        W  929  39.793   7.903  11.542
28604W        W  930   4.321  34.456  12.350
28605W        W  931   4.678   2.679   2.330
28606W        W  932   4.444  32.318   3.477
28607W        W  933  14.899  13.004  10.709
28608W        W  934  12.842   7.796  12.627
28609W        W  935  22.102  34.155   2.961
28610W        W  936  42.467  26.539   1.296
28611W        W  937  30.657  42.755  12.864
28612W        W  938  28.354  36.033  13.170
28613W        W  939  35.372  24.389   4.225
28614W        W  940  44.117  16.983   0.897
28615W        W  941  40.020   4.379  11.638
28616W        W  942  33.654  13.428   4.576
28617W        W  943  38.484   9.129  12.591
28618W        W  944  40.915  22.940  14.992
28619W        W  945  36.362  23.729   4.716
28620W        W  946  27.977  13.042  11.169
28621W        W  947  29.638  31.396  12.363
28622W        W  948  39.194   0.837  14.348
28623W        W  949  42.554   2.439   1.349
28624W        W  950   9.021  19.746  14.963
28625W        W  951   0.664  15.790   3.705
28626W        W  952   2.525  22.434   0.306
28627W        W  953  11.422   0.795  14.641
28628W        W  954  40.401  25.208  13.491
28629W        W  955  37.547  41.374  11.345
28630W        W  956  27.776  14.356   2.121
28631W        W  957  35.312  15.683   3.302
28632W        W  958   0.238   4.415   3.796
28633W        W  959  30.600   6.006   1.268
28634W        W  960  27.580   7.180  12.083
28635W        W  961  30.579  34.372   2.732
28636W        W  962   2.230   8.698   4.196
28637W        W  963  42.181  21.147  10.150
28638W        W  964  40.426  26.931  10.728
28639W        W  965  41.799  27.229  11.998
28640W        W  966  36.602  42.810   1.814
28641W        W  967  25.031  17.330  10.717
28642W        W  968  10.914  28.648  10.731
28643W        W  969  34.079   7.283   5.108
28644W        W  970  41.033  35.293   1.925
28645W        W  971  34.519  19.527  14.865
28646W        W  972  20.724   6.141  13.493
28647W        W  973  31.580  25.485  10.619
28648W        W  974  13.592  32.074   1.229
28649W        W  975   3.723  27.469  13.650
28650W        W  976  38.478   5.569  11.038
28651W        W  977  30.542  38.559   3.098
28652W        W  978  22.390  39.323  14.428
28653W        W  979  15.203  43.022   3.731
28654W        W  980  10.870  27.970   0.722
28655W        W  981  28.914   9.711  14.474
28656W        W  982  33.531  26.525   1.993
28657W        W  983  35.654  23.094  12.796
28658W        W  984  35.074   3.127   3.222
28659W        W  985  33.705  36.108  13.410
28660W        W  986  40.149  32.097  11.956
28661W        W  987  40.786  29.567  13.396
28662W        W  988  29.462   4.655  14.921
28663W        W  989   6.271  36.376  12.100
28664W        W  990  14.416  29.319   4.033
28665W        W  991  25.140  26.447   2.156
28666W        W  992  30.100   5.373   1.878
28667W        W  993   4.292   5.891  13.038
28668W        W  994  18.813  37.972   2.111
28669W        W  995  24.573  31.563   2.406
28670W        W  996  13.176   5.238   1.486
28671W        W  997  39.550  18.817   2.713
28672W        W  998  23.239   9.921   4.689
28673W        W  999  32.670  24.711   4.658
28674W        W 1000   2.926  40.352   2.828
28675W        W 1001   2.785  19.597  12.062
28676W        W 1002  27.125  23.085   2.814
28677W        W 1003  42.347  28.402   3.640
28678W        W 1004   4.683   0.406   0.894
28679W        W 1005   3.248  27.793   2.668
28680W        W 1006   3.490  38.054  12.579
28681W        W 1007  15.641   9.988  14.508
28682W        W 1008  18.758  42.560  11.615
28683W        W 1009  10.302  43.557   0.954
28684W        W 1010  31.737   7.259  11.071
28685W        W 1011  17.285  36.573  13.002
28686W        W 1012  38.346   2.491   1.803
28687W        W 1013  34.699  19.935   2.724
28688W        W 1014  31.803   9.037  14.947
28689W        W 1015  15.370   6.345  14.837
28690W        W 1016  11.778  38.230  14.126
28691W        W 1017  44.980  43.497  11.115
28692W        W 1018  37.341  42.333  13.086
28693W        W 1019   9.863  28.624  14.933
28694W        W 1020  23.798  35.593   1.232
28695W        W 1021  34.461  17.124   4.712
28696W        W 1022  41.831   4.756  13.917
28697W        W 1023  13.407   9.157   4.228
28698W        W 1024  31.047  38.739   1.809
28699W        W 1025   3.769   9.303   0.921
28700W        W 1026  44.728  36.121  12.912
28701W        W 1027   5.664   2.322   4.572
28702W        W 1028   6.210  29.577  14.874
28703W        W 1029   1.257  31.440   0.701
28704W        W 1030  39.733   5.348   4.925
28705W        W 1031  41.550  15.364  13.073
28706W        W 1032  25.088   0.178  10.657
28707W        W 1033  13.870  16.461  11.038
28708W        W 1034   6.335  44.059   1.249
28709W        W 1035  17.050  32.095  12.064
28710W        W 1036  39.280  21.533   3.158
28711W        W 1037  42.412  38.458   2.217
28712W        W 1038  34.977  38.025  10.763
28713W        W 1039  33.480  28.283  14.241
28714W        W 1040   6.454  15.668  11.904
28715W        W 1041  13.864  25.956  10.534
28716W        W 1042  30.210  21.196  14.035
28717W        W 1043  14.109   2.925  12.423
28718W        W 1044   5.235  15.237   1.796
28719W        W 1045   7.798  22.036   4.600
28720W        W 1046  14.467   1.517   1.879
28721W        W 1047   0.265  27.805  12.242
28722W        W 1048   5.671   8.722   0.387
28723W        W 1049   3.749  12.718  12.835
28724W        W 1050  23.567   8.633  14.953
28725W        W 1051  27.024  31.145   4.198
28726W        W 1052  21.449  35.041   3.233
28727W        W 1053  32.127  10.835   3.377
28728W        W 1054   1.448  32.524   4.370
28729W        W 1055   0.916  40.342  12.369
28730W        W 1056   7.228  39.919   3.779
28731W        W 1057  43.861  33.115  10.790
28732W        W 1058   0.999  19.029   3.343
28733W        W 1059  30.701  10.492  12.185
28734W        W 1060  29.167   1.991  13.134
28735W        W 1061  21.662  22.754   0.148
28736W        W 1062   9.420  33.750   4.199
28737W        W 1063  13.293   4.460   3.308
28738W        W 1064   6.111  38.032  11.713
28739W        W 1065  31.256  36.163  10.615
28740W        W 1066  33.623   7.937   1.973
28741W        W 1067  33.950  17.017  10.718
28742W        W 1068  11.913   5.498   1.125
28743W        W 1069  30.757  10.667   4.226
28744W        W 1070   2.270  32.141  14.455
28745W        W 1071  30.356  19.631  13.807
28746W        W 1072  44.422  41.575  14.528
28747W        W 1073  30.206  12.563   4.650
28748W        W 1074  15.028  20.148   2.185
28749W        W 1075   4.147  14.118  11.774
28750W        W 1076  23.734  32.616   0.148
28751W        W 1077  30.182  23.682  14.042
28752W        W 1078  35.427  33.445   5.101
28753W        W 1079  44.003  22.559  14.022
28754W        W 1080  22.785  11.857  11.611
28755W        W 1081  22.293  35.056   3.768
28756W        W 1082  28.008  14.215  12.779
28757W        W 1083   3.602   0.512   1.831
28758W        W 1084   3.680  31.066  13.397
28759W        W 1085  41.943  38.977  13.069
28760W        W 1086  42.429  16.172   2.805
28761W        W 1087  26.580  33.740  10.723
28762W        W 1088   4.168  44.926   3.740
28763W        W 1089   0.781  32.158   2.222
28764W        W 1090  37.166   5.333  13.475
28765W        W 1091   0.682  12.762  11.009
28766W        W 1092  11.813  33.100  14.062
28767W        W 1093  25.136  41.558   0.822
28768W        W 1094   8.411  43.865  13.074
28769W        W 1095  19.014  41.068  11.468
28770W        W 1096  38.805  10.391   3.652
28771W        W 1097  40.931  18.408  11.594
28772W        W 1098  24.256  11.847   5.305
28773W        W 1099   6.210  14.907   0.034
28774W        W 1100  24.182   7.426  13.533
28775W        W 1101  22.068  39.479  10.998
28776W        W 1102  44.464   7.771   0.931
28777W        W 1103  20.134  30.633   1.191
28778W        W 1104  31.970  32.868   4.732
28779W        W 1105  15.623  31.056  11.760
28780W        W 1106  44.441  34.506   4.246
28781W        W 1107  31.902  10.254   2.780
28782W        W 1108   5.729  24.235   0.934
28783W        W 1109   2.520  15.056   1.377
28784W        W 1110  31.499  32.187  12.661
28785W        W 1111  19.492   3.961   3.350
28786W        W 1112  10.263  35.409   3.787
28787W        W 1113  31.161  43.564   3.106
28788W        W 1114  10.598   6.791   3.243
28789W        W 1115  38.321  13.702   1.944
28790W        W 1116  40.076   9.438   0.451
28791W        W 1117   0.750   9.891  14.740
28792W        W 1118  16.217  27.564  11.873
28793W        W 1119  23.647  18.025  10.683
28794W        W 1120  27.331   9.844  14.305
28795W        W 1121   8.212  33.865  12.872
28796W        W 1122  38.360   0.765   2.432
28797W        W 1123  16.810  38.826  12.153
28798W        W 1124  39.266   9.725   3.108
28799W        W 1125   7.865  27.478  14.971
28800W        W 1126  29.111  38.207   2.737
28801W        W 1127   4.889  42.767  11.024
28802W        W 1128  10.606  25.457  13.048
28803W        W 1129   7.895  40.053   2.759
28804W        W 1130  38.170  18.308   4.132
28805W        W 1131   0.247  10.635  10.445
28806W        W 1132  18.022  23.138  12.653
28807W        W 1133  29.718  43.951   2.162
28808W        W 1134  16.517  19.760  13.472
28809W        W 1135   8.652   2.232  13.890
28810W        W 1136  30.511  19.114  13.756
28811W        W 1137  17.735  42.858   1.057
28812W        W 1138  18.219  43.093   4.695
28813W        W 1139  17.066  43.107  12.395
28814W        W 1140  30.525   8.662  12.307
28815W        W 1141  41.605  12.273  13.972
28816W        W 1142  41.312  41.061  13.695
28817W        W 1143  23.113   0.908   2.441
28818W        W 1144   9.846  20.892   0.369
28819W        W 1145  21.555   7.910   1.783
28820W        W 1146   8.964   7.354   0.883
28821W        W 1147  22.749  15.746   3.186
28822W        W 1148  24.654  18.487  11.085
28823W        W 1149  12.844  23.111  12.429
28824W        W 1150  39.482   7.331  12.805
28825W        W 1151   5.285   0.199   1.766
28826W        W 1152  32.001  15.064  13.824
28827W        W 1153  22.037  23.024   1.104
28828W        W 1154   7.125   4.345  10.734
28829W        W 1155  14.711  23.272  11.979
28830W        W 1156  34.113   5.032   4.155
28831W        W 1157  24.810  39.640   0.214
28832W        W 1158  13.720  32.107  11.381
28833W        W 1159  16.755   4.602  13.969
28834W        W 1160  26.703  25.736  13.801
28835W        W 1161  24.625   5.895   3.715
28836W        W 1162  15.938  38.966  13.869
28837W        W 1163  16.551   4.223  12.571
28838W        W 1164  12.643   3.027  12.468
28839W        W 1165  31.954  44.016   4.556
28840W        W 1166  34.590  31.278  13.771
28841W        W 1167  36.709  31.501   0.388
28842W        W 1168   2.339  40.517   1.263
28843W        W 1169  25.008   6.755   3.548
28844W        W 1170  12.723  18.275  11.183
28845W        W 1171  30.831  31.629  11.070
28846W        W 1172   4.778  14.858  14.258
28847W        W 1173  16.077  23.590   2.694
28848W        W 1174  23.828   8.851   0.365
28849W        W 1175   5.959  30.032   2.413
28850W        W 1176  34.684  27.194   4.147
28851W        W 1177   7.231  14.491   5.139
28852W        W 1178  15.616  26.233  10.248
28853W        W 1179  19.076  17.447   3.737
28854W        W 1180   9.759  12.351  13.896
28855W        W 1181  15.202  31.995   1.296
28856W        W 1182  31.655  17.226  14.793
28857W        W 1183  21.834   7.906   3.610
28858W        W 1184  36.819  11.771   0.775
28859W        W 1185  24.624   2.179   2.424
28860W        W 1186  12.172  28.386  14.329
28861W        W 1187   9.633  16.298  14.892
28862W        W 1188  33.968  35.063  14.589
28863W        W 1189  32.569  24.420  14.798
28864W        W 1190  18.251   5.038   0.011
28865W        W 1191  43.387  15.211   0.467
28866W        W 1192  19.299  27.862  14.806
28867W        W 1193  24.267  20.791   2.842
28868W        W 1194  16.495  36.937  14.859
28869W        W 1195  14.100  14.643  13.564
28870W        W 1196   3.671  23.105  10.247
28871W        W 1197   8.647   5.903   0.933
28872W        W 1198  27.814  23.135   0.302
28873W        W 1199  10.680  28.220  12.547
28874W        W 1200   3.923  21.230   2.751
28875W        W 1201  19.595   3.980  12.401
28876W        W 1202  15.997   6.925   0.053
28877W        W 1203  15.382  26.028   0.137
28878W        W 1204  29.479  24.734   3.990
28879W        W 1205   4.846   0.041  10.653
28880W        W 1206   4.609  35.619  12.900
28881W        W 1207  40.528  30.850   0.628
28882W        W 1208   4.190   2.821   2.131
28883W        W 1209  21.688   0.367   4.217
28884W        W 1210   9.984  42.199   2.303
28885W        W 1211  10.222  24.374  13.188
28886W        W 1212   3.370   5.640   0.904
28887W        W 1213  42.233  14.383  11.336
28888W        W 1214   2.260  25.020  12.987
28889W        W 1215   7.150  36.893  13.591
28890W        W 1216   1.897   5.135  13.006
28891W        W 1217  40.847   5.749  12.670
28892W        W 1218  33.860  33.005   2.774
28893W        W 1219  35.326  29.087   0.458
28894W        W 1220  38.144   1.345  11.555
28895W        W 1221  37.874  31.629   1.967
28896W        W 1222  24.762   6.445  12.906
28897W        W 1223  26.424  34.545  12.053
28898W        W 1224  31.458   4.486   4.131
28899W        W 1225   7.909  17.901   4.486
28900W        W 1226   3.933   9.882  11.640
28901W        W 1227  43.704   4.776   4.577
28902W        W 1228  22.069  41.340  11.542
28903W        W 1229  10.139  25.404  12.372
28904W        W 1230  31.447  16.876  11.475
28905W        W 1231  14.656  41.466   9.892
28906W        W 1232  17.285  25.996  12.555
28907W        W 1233  29.731  43.834   0.298
28908W        W 1234  21.203  10.797   4.450
28909W        W 1235   6.694  30.336  11.602
28910W        W 1236   4.805  22.139   3.207
28911W        W 1237  27.257  19.109  14.999
28912W        W 1238  22.137   0.466  12.886
28913W        W 1239   4.361  37.352   2.304
28914W        W 1240   4.760  21.582   0.389
28915W        W 1241  33.524  16.758   4.381
28916W        W 1242  31.664  41.872  14.645
28917W        W 1243  30.876   3.396   1.671
28918W        W 1244  12.183  23.119   1.288
28919W        W 1245   9.102  33.045   2.704
28920W        W 1246  34.012  41.631   2.734
28921W        W 1247  18.733  17.105   0.879
28922W        W 1248   0.654   5.384  12.543
28923W        W 1249  17.737  18.752  13.748
28924W        W 1250  41.878  22.208  12.917
28925W        W 1251  20.877   5.720   3.221
28926W        W 1252  33.367  21.105   1.044
28927W        W 1253   5.365  29.228  12.865
28928W        W 1254  31.521  13.308  11.609
28929W        W 1255  44.271  41.513   1.472
28930W        W 1256   6.769  27.484  14.785
28931W        W 1257  32.021  18.808  14.280
28932W        W 1258  36.481  34.426   4.562
28933W        W 1259  17.742  32.569   2.749
28934W        W 1260  18.130   1.707   2.265
28935W        W 1261   9.793   4.671  11.710
28936W        W 1262  44.966  17.571   3.541
28937W        W 1263  14.783  34.215  10.176
28938W        W 1264  44.527   0.830  14.911
28939W        W 1265  19.208  34.571  14.882
28940W        W 1266  39.842  40.887  12.473
28941W        W 1267  25.033  36.131   0.504
28942W        W 1268  34.016  19.754  10.948
28943W        W 1269  34.350  14.327  12.920
28944W        W 1270  39.329  36.882   4.650
28945W        W 1271   2.298  31.999  10.710
28946W        W 1272  36.213  18.326   1.152
28947W        W 1273  33.319  30.559  11.601
28948W        W 1274  17.512  12.753  12.657
28949W        W 1275   3.184   8.215  12.154
28950W        W 1276  29.627  41.243  11.408
28951W        W 1277  43.379  33.621   9.848
28952W        W 1278  38.041  21.487  14.247
28953W        W 1279  18.845   3.363  14.986
28954W        W 1280   4.821  32.479  12.972
28955W        W 1281  27.916  28.046  12.060
28956W        W 1282  13.797  43.585  14.727
28957W        W 1283  44.973   7.887  13.952
28958W        W 1284  27.683   6.878   2.774
28959W        W 1285   6.863   0.027   3.818
28960W        W 1286  40.955  17.176  10.814
28961W        W 1287   2.222  14.947   0.968
28962W        W 1288  28.089  23.437  11.314
28963W        W 1289  43.611  31.544   2.365
28964W        W 1290  30.708   8.732   3.795
28965W        W 1291  27.862  42.119   1.658
28966W        W 1292  34.257  35.224   4.100
28967W        W 1293   8.438  11.168  11.685
28968W        W 1294  22.538  14.388  13.947
28969W        W 1295   8.771  21.974   4.497
28970W        W 1296  17.451  20.013  14.317
28971W        W 1297  15.451  43.436  13.886
28972W        W 1298  36.791   6.123   2.375
28973W        W 1299   5.658  43.879  13.061
28974W        W 1300  40.260  39.349   4.494
28975W        W 1301  13.833  21.570  10.099
28976W        W 1302  21.756  24.085   0.981
28977W        W 1303  12.949  20.524   2.056
28978W        W 1304  24.748  20.915   2.703
28979W        W 1305   2.830   5.110  12.766
28980W        W 1306  11.224   7.844   1.473
28981W        W 1307  39.448   7.435   4.284
28982W        W 1308  19.859   2.030  12.550
28983W        W 1309  17.834  24.082  14.302
28984W        W 1310  16.770  13.660  14.839
28985W        W 1311   1.412  41.856   3.663
28986W        W 1312   5.830  21.512   2.403
28987W        W 1313  34.570   8.472   4.064
28988W        W 1314  32.019   9.277   1.004
28989W        W 1315  15.335  22.680  12.189
28990W        W 1316  30.788  25.568   3.113
28991W        W 1317  22.546  25.263  10.307
28992W        W 1318  24.564  30.695  13.611
28993W        W 1319  17.158  22.591   1.858
28994W        W 1320  31.074  24.919  13.867
28995W        W 1321   8.422  34.085   4.879
28996W        W 1322   7.383  35.571   3.728
28997W        W 1323  41.486  37.822  13.949
28998W        W 1324  28.229  34.024   5.046
28999W        W 1325  44.892  26.411  12.528
29000W        W 1326   5.238  17.078  11.929
29001W        W 1327  26.496  17.284   1.196
29002W        W 1328   2.584   9.801  11.043
29003W        W 1329  25.727  15.637   2.570
29004W        W 1330  15.755  23.537   4.527
29005W        W 1331  29.616  21.547   3.682
29006W        W 1332  16.851  29.398   0.069
29007W        W 1333   2.073  42.346  12.068
29008W        W 1334  30.389   0.382   0.854
29009W        W 1335  10.591  36.150  13.349
29010W        W 1336   1.743  33.398  14.717
29011W        W 1337   1.971  21.916  13.041
29012W        W 1338  36.948  19.530  11.736
29013W        W 1339  24.660  11.830  14.779
29014W        W 1340   8.614  11.224  10.421
29015W        W 1341  19.977  23.325   1.324
29016W        W 1342  16.638  34.867   3.089
29017W        W 1343  22.690   9.228   2.700
29018W        W 1344  18.287  31.597   0.398
29019W        W 1345  37.761  16.074   1.329
29020W        W 1346   2.988  15.852  12.584
29021W        W 1347  29.278  30.756   1.354
29022W        W 1348  11.867  26.093  14.479
29023W        W 1349  35.821  30.393  13.425
29024W        W 1350   0.400   8.420   2.708
29025W        W 1351   3.480   1.793  12.942
29026W        W 1352  36.751  35.522   9.846
29027W        W 1353  30.455   7.714   1.747
29028W        W 1354  20.071  12.608   1.355
29029W        W 1355   1.243  34.582   4.888
29030W        W 1356   2.077  36.798  13.841
29031W        W 1357  11.655  21.927   1.426
29032W        W 1358  24.052  31.885  14.004
29033W        W 1359  25.585  12.818   0.774
29034W        W 1360  30.477  17.406  12.309
29035W        W 1361   2.499  41.540  11.987
29036W        W 1362  25.730  14.152   4.493
29037W        W 1363  22.512  18.297  11.468
29038W        W 1364  29.398  24.685  10.395
29039W        W 1365  23.720   9.136   3.424
29040W        W 1366  31.430   3.691   4.615
29041W        W 1367  43.860  30.948   3.455
29042W        W 1368   2.186   5.834  12.280
29043W        W 1369   0.408  43.841  12.456
29044W        W 1370  27.916  39.911  12.035
29045W        W 1371  21.101  16.676  11.848
29046W        W 1372   1.002  15.739   1.760
29047W        W 1373  32.599  40.467  13.987
29048W        W 1374  43.935  38.952   2.849
29049W        W 1375  21.041   2.035   1.806
29050W        W 1376  35.748  43.951   0.385
29051W        W 1377  29.429  29.210  14.287
29052W        W 1378  19.401   3.801   0.934
29053W        W 1379  35.822  41.479  10.659
29054W        W 1380  30.459  36.829   0.844
29055W        W 1381  40.748  16.023  14.413
29056W        W 1382   6.721  20.893   2.776
29057W        W 1383   4.482  15.671   0.515
29058W        W 1384   5.719   9.654   1.865
29059W        W 1385  43.444  12.221   3.888
29060W        W 1386  11.131  22.158  14.713
29061W        W 1387  26.405  27.933   1.842
29062W        W 1388  37.044  23.222  10.750
29063W        W 1389   1.184  41.778   0.426
29064W        W 1390  34.533  14.800  12.972
29065W        W 1391  38.044  13.573  12.142
29066W        W 1392  23.458   5.297  14.067
29067W        W 1393  16.288  17.653   3.631
29068W        W 1394  13.336  27.839   4.644
29069W        W 1395   0.487  23.119  14.677
29070W        W 1396  20.083   1.708  13.327
29071W        W 1397  27.860  16.017  12.030
29072W        W 1398  28.538  22.008  13.934
29073W        W 1399  11.224  33.943   1.385
29074W        W 1400  37.904  14.202  14.026
29075W        W 1401  34.417  17.083  14.958
29076W        W 1402  28.526  30.459  12.735
29077W        W 1403  44.317  19.801  13.868
29078W        W 1404  21.283  24.294   0.868
29079W        W 1405  26.524   9.524   3.257
29080W        W 1406   1.918  18.997  14.559
29081W        W 1407  31.514   5.020   4.172
29082W        W 1408  27.385  10.855  12.596
29083W        W 1409  10.335  12.782   4.970
29084W        W 1410  40.541  42.420  14.247
29085W        W 1411  11.059  13.454   4.849
29086W        W 1412   7.179  29.504  10.710
29087W        W 1413   6.192  14.233  10.621
29088W        W 1414   1.035  32.119  14.537
29089W        W 1415  16.263  10.217  11.502
29090W        W 1416   3.878  19.142   3.755
29091W        W 1417   0.092   0.807   2.319
29092W        W 1418   1.357  30.104   0.242
29093W        W 1419   1.968  42.726   0.689
29094W        W 1420  19.261   7.577   3.659
29095W        W 1421  32.678   0.713   2.081
29096W        W 1422  36.310  15.590   0.270
29097W        W 1423  43.041  15.143   1.790
29098W        W 1424  27.876   2.224   2.679
29099W        W 1425  26.206   0.195  13.387
29100W        W 1426  33.921  41.908  11.547
29101W        W 1427   2.466  25.118  12.153
29102W        W 1428  42.596  31.064  10.522
29103W        W 1429   0.379  15.950   2.293
29104W        W 1430  12.270  24.241  13.525
29105W        W 1431  31.590  22.041  13.127
29106W        W 1432   5.717  15.878  11.501
29107W        W 1433  32.150  39.127   4.119
29108W        W 1434  34.674  27.108  13.810
29109W        W 1435  31.800   3.735  11.666
29110W        W 1436   4.164  24.631   1.456
29111W        W 1437   2.982  16.677  11.670
29112W        W 1438  15.249   6.303  11.979
29113W        W 1439   6.953   7.941  11.669
29114W        W 1440  28.104   7.435  11.150
29115W        W 1441  34.158   1.491  13.489
29116W        W 1442   2.445  37.825   1.793
29117W        W 1443  31.945   2.838  14.841
29118W        W 1444  30.529  13.111  12.042
29119W        W 1445  39.758  23.101   0.880
29120W        W 1446  20.646  24.697  13.817
29121W        W 1447  14.992  18.627   0.406
29122W        W 1448  25.245   9.707   4.085
29123W        W 1449  26.605  39.652  10.643
29124W        W 1450  39.535  38.365   4.670
29125W        W 1451  24.766  29.994  13.084
29126W        W 1452  42.442   9.772  10.715
29127W        W 1453  26.228  25.011  11.956
29128W        W 1454  26.737  13.263  12.520
29129W        W 1455   9.990  41.074   0.494
29130W        W 1456   2.850  22.808   3.745
29131W        W 1457  26.156  32.059  12.813
29132W        W 1458   0.376  22.706  14.351
29133W        W 1459  17.683   6.849  12.092
29134W        W 1460   3.732  13.691   1.260
29135W        W 1461  37.147  34.327   4.986
29136W        W 1462   5.128  40.537   3.354
29137W        W 1463  22.988  22.886  14.522
29138W        W 1464  27.474  39.939   1.803
29139W        W 1465  41.256  23.671   0.974
29140W        W 1466  27.736  43.718  11.642
29141W        W 1467  15.561   0.242   2.655
29142W        W 1468  21.770  37.170  12.030
29143W        W 1469   1.770  28.458   3.715
29144W        W 1470   7.213  12.400  13.841
29145W        W 1471   2.982  37.006   0.869
29146W        W 1472  40.871  33.984  12.049
29147W        W 1473  27.890   5.354   2.774
29148W        W 1474  39.584   5.756   2.433
29149W        W 1475  19.575   9.341   0.304
29150W        W 1476   6.103  34.848  13.518
29151W        W 1477  38.793  31.947   3.643
29152W        W 1478   2.955  41.855  13.951
29153W        W 1479  30.704  30.646   3.874
29154W        W 1480  36.254  36.989  11.151
29155W        W 1481  43.561   0.954  12.689
29156W        W 1482  39.456  27.094   4.147
29157W        W 1483  43.871   1.768  14.934
29158W        W 1484  44.230   0.761  13.013
29159W        W 1485  34.974   6.771   1.806
29160W        W 1486  25.191  13.695  14.425
29161W        W 1487  19.107  21.164   4.485
29162W        W 1488  26.891   3.170  10.621
29163W        W 1489   3.002  20.569  13.568
29164W        W 1490  37.898   6.285   4.832
29165W        W 1491   0.583  43.945   3.694
29166W        W 1492   3.139  34.581  13.251
29167W        W 1493  18.870  14.278  10.015
29168W        W 1494   9.743  29.120   3.541
29169W        W 1495  19.196  10.761  13.818
29170W        W 1496  26.605   3.166  13.798
29171W        W 1497  25.002  15.155   3.084
29172W        W 1498   2.420  27.029   2.126
29173W        W 1499  42.875   5.594  11.134
29174W        W 1500  28.109  39.004  14.894
29175W        W 1501  40.959  16.664   3.301
29176W        W 1502  16.334   6.914   1.779
29177W        W 1503  19.237  38.931   1.437
29178W        W 1504  23.029  37.286   1.822
29179W        W 1505  36.545  43.088   3.102
29180W        W 1506  36.233  43.512   3.275
29181W        W 1507  21.221  18.043  11.178
29182W        W 1508   5.307  28.219   2.679
29183W        W 1509  14.646  16.844  14.901
29184W        W 1510  12.420  42.302  13.302
29185W        W 1511  23.050  35.663  10.977
29186W        W 1512  30.026  30.148   4.700
29187W        W 1513  13.078  34.534   4.579
29188W        W 1514   2.980  17.228   3.859
29189W        W 1515  29.503  38.533  10.764
29190W        W 1516  24.978  11.380   4.846
29191W        W 1517  25.532  30.614  10.790
29192W        W 1518  30.070   8.582   4.827
29193W        W 1519  26.174  37.682  13.554
29194W        W 1520  16.845  19.172   4.077
29195W        W 1521   0.483   3.405  13.332
29196W        W 1522  43.296  39.226   4.136
29197W        W 1523  13.371  18.538   2.219
29198W        W 1524  10.910  38.705  11.522
29199W        W 1525  22.164  23.097   3.035
29200W        W 1526  22.496  36.072  12.417
29201W        W 1527  35.508   1.756  11.064
29202W        W 1528  29.804  10.277  14.434
29203W        W 1529  42.160  38.921  13.592
29204W        W 1530   1.473  35.919  13.978
29205W        W 1531  43.985  15.351   1.652
29206W        W 1532  11.623   1.072  12.070
29207W        W 1533   0.113  44.314  12.392
29208W        W 1534  40.040  22.964  12.872
29209W        W 1535   5.384  38.235  14.283
29210W        W 1536  25.063  18.773   1.479
29211W        W 1537  17.787  35.251   1.879
29212W        W 1538   7.218  19.833   1.521
29213W        W 1539  35.389  14.772   0.788
29214W        W 1540   4.443  34.103   4.104
29215W        W 1541  43.930  14.669  12.604
29216W        W 1542  36.523  44.922   0.363
29217W        W 1543  38.425  29.573  12.502
29218W        W 1544  34.560  16.204   4.653
29219W        W 1545  17.583   0.768   2.215
29220W        W 1546  26.783  19.163  13.705
29221W        W 1547  24.455  35.901   4.294
29222W        W 1548  43.004  13.678   0.263
29223W        W 1549   8.221  32.101   3.776
29224W        W 1550  14.600  41.961  12.402
29225W        W 1551   4.668  24.160   0.887
29226W        W 1552   3.868   1.307  11.956
29227W        W 1553  38.106  37.940   2.764
29228W        W 1554  22.496   3.309   2.363
29229W        W 1555   5.714   0.936   1.415
29230W        W 1556   0.841  40.137   2.090
29231W        W 1557  29.502  16.987   4.227
29232W        W 1558  24.375  36.887   3.260
29233W        W 1559  30.139  37.251   0.950
29234W        W 1560  40.504  36.936   0.730
29235W        W 1561   5.470  13.860  10.718
29236W        W 1562  10.845   0.435   2.958
29237W        W 1563  35.926   1.274  11.599
29238W        W 1564   3.280  39.414   3.762
29239W        W 1565  23.267  27.244   2.364
29240W        W 1566  32.704  26.150   1.722
29241W        W 1567  10.469  11.330  11.091
29242W        W 1568  42.289  30.142  14.358
29243W        W 1569  24.625  25.678   1.866
29244W        W 1570  12.831  14.101   2.786
29245W        W 1571  22.273  12.723   3.526
29246W        W 1572  38.369  36.817  14.807
29247W        W 1573  38.376   9.323   3.264
29248W        W 1574  26.659  28.147  13.489
29249W        W 1575  15.946  29.426  14.875
29250W        W 1576  24.955   2.447   0.414
29251W        W 1577  22.600  13.643  12.770
29252W        W 1578  20.791  23.645   3.622
29253W        W 1579   1.245  31.485   4.565
29254W        W 1580  15.393  31.635  12.564
29255W        W 1581  43.486  22.694   3.666
29256W        W 1582   6.922  33.500   1.559
29257W        W 1583  25.050  31.438  11.603
29258W        W 1584  44.174  24.538  14.959
29259W        W 1585  24.728  25.493  10.908
29260W        W 1586  40.962  17.981   3.836
29261W        W 1587  25.244  33.493  14.728
29262W        W 1588  28.104   2.349   3.903
29263W        W 1589  18.716  42.357  13.003
29264W        W 1590  17.572   2.371   2.435
29265W        W 1591   7.225  29.119   2.112
29266W        W 1592  13.440  35.175  10.359
29267W        W 1593  21.756  14.688  11.034
29268W        W 1594  25.529  33.786   3.194
29269W        W 1595  41.917  23.475  11.515
29270W        W 1596  14.684  42.925  12.402
29271W        W 1597  38.268  27.223  14.817
29272W        W 1598  33.384  31.169  14.413
29273W        W 1599  21.014  22.149   0.430
29274W        W 1600  12.520  33.549  14.841
29275W        W 1601  24.923  25.292   4.924
29276W        W 1602  39.516  11.711   2.945
29277W        W 1603  42.225   8.789   2.900
29278W        W 1604  16.809  30.388   1.268
29279W        W 1605  36.311  35.635  11.121
29280W        W 1606  10.611  41.371  11.916
29281W        W 1607  40.011   3.368  13.990
29282W        W 1608  34.279  27.474   0.650
29283W        W 1609  39.932   1.914  12.515
29284W        W 1610  37.492  43.615  12.934
29285W        W 1611  44.788  23.186  11.484
29286W        W 1612  28.107  27.437  13.488
29287W        W 1613  15.136  35.320   2.759
29288W        W 1614  13.080   8.455   3.826
29289W        W 1615   5.880  39.279   0.574
29290W        W 1616  26.946  24.624   2.413
29291W        W 1617  27.775  35.002   5.059
29292W        W 1618  28.484   3.424   2.000
29293W        W 1619  39.734  18.123  12.859
29294W        W 1620  29.492  32.429  11.031
29295W        W 1621   8.960  32.974  13.754
29296W        W 1622  29.033  36.027   3.599
29297W        W 1623  39.188   7.637   2.156
29298W        W 1624  32.376  38.378  14.315
29299W        W 1625   5.938  40.369   1.360
29300W        W 1626  20.771  10.275  12.413
29301W        W 1627  30.660   2.831  13.547
29302W        W 1628   6.694  39.996  13.503
29303W        W 1629  26.431  12.121   1.858
29304W        W 1630  26.108  44.958   3.830
29305W        W 1631  36.111  31.158   2.065
29306W        W 1632  33.186   1.274  11.082
29307W        W 1633  23.756   4.392   3.037
29308W        W 1634  32.979  21.124   1.426
29309W        W 1635  44.309  11.418   0.805
29310W        W 1636  10.970  24.638   5.710
29311W        W 1637  31.474  26.735  13.325
29312W        W 1638  28.323  29.357   2.742
29313W        W 1639  25.136  30.998   2.718
29314W        W 1640  15.628  43.591   3.293
29315W        W 1641  12.213  32.567   4.289
29316W        W 1642  44.489  39.572  14.327
29317W        W 1643  24.014   4.097  11.447
29318W        W 1644  34.883  19.265  14.486
29319W        W 1645  30.496  31.033  10.526
29320W        W 1646   8.798  19.727  11.367
29321W        W 1647   4.751  35.397   2.402
29322W        W 1648   0.300   8.411   0.302
29323W        W 1649  38.775  29.920   2.782
29324W        W 1650  34.002   7.567   0.197
29325W        W 1651   6.507  15.202  11.627
29326W        W 1652  12.195  20.548  14.789
29327W        W 1653  43.351  40.852  14.781
29328W        W 1654  27.434  33.031  10.930
29329W        W 1655   8.977  17.217  14.936
29330W        W 1656  41.035   6.823  10.748
29331W        W 1657  38.399  26.976  14.361
29332W        W 1658  41.304   3.964   1.146
29333W        W 1659  34.416   9.936  13.869
29334W        W 1660   4.259  11.721   1.520
29335W        W 1661  38.435  13.229   3.526
29336W        W 1662  12.488  39.788  13.005
29337W        W 1663  29.204  31.452  14.806
29338W        W 1664  35.463  20.511  11.151
29339W        W 1665  11.486  28.638   1.827
29340W        W 1666  19.588  42.941  11.659
29341W        W 1667   9.036   1.427   4.095
29342W        W 1668  33.028  27.217  12.338
29343W        W 1669  35.594  25.603  12.932
29344W        W 1670  28.162   4.155  13.777
29345W        W 1671  33.726   9.861  14.194
29346W        W 1672  22.646  33.540  12.817
29347W        W 1673  11.683  24.106   2.902
29348W        W 1674  25.897  37.484   2.855
29349W        W 1675  16.572   2.801  14.296
29350W        W 1676  13.848  17.202  10.609
29351W        W 1677  20.133  24.654  11.631
29352W        W 1678  36.305   7.344   3.838
29353W        W 1679  40.031  30.828  11.594
29354W        W 1680  39.979  14.785   4.612
29355W        W 1681  38.569  23.977  12.507
29356W        W 1682  15.761   5.394   0.939
29357W        W 1683  29.927  24.567   3.056
29358W        W 1684  23.781  21.533  11.087
29359W        W 1685  28.896  39.283  14.010
29360W        W 1686   3.349  21.706   1.802
29361W        W 1687  18.610  21.717   1.447
29362W        W 1688  36.610  24.374   1.828
29363W        W 1689   1.473  31.198  14.864
29364W        W 1690  23.748  22.532  14.000
29365W        W 1691  34.390  28.487  12.726
29366W        W 1692  13.253  43.696   3.150
29367W        W 1693  11.841  30.648  10.041
29368W        W 1694  11.906  11.778   3.644
29369W        W 1695  30.524  41.869   2.682
29370W        W 1696   4.409  16.567  11.825
29371W        W 1697  40.538  20.790   1.493
29372W        W 1698   7.935  35.605   3.670
29373W        W 1699  24.205  40.564   0.819
29374W        W 1700  22.281  20.563  11.491
29375W        W 1701  21.770  40.960   4.261
29376W        W 1702   0.347   4.170  10.763
29377W        W 1703   9.342  42.332   3.203
29378W        W 1704  16.061  17.336  11.216
29379W        W 1705  43.465  18.213   0.030
29380W        W 1706  30.110  22.662   0.649
29381W        W 1707  40.975  43.579   3.752
29382W        W 1708  31.689   8.303  14.494
29383W        W 1709  42.720  11.181  12.895
29384W        W 1710  42.294   1.746  13.272
29385W        W 1711   5.326  30.321  14.238
29386W        W 1712  19.198   7.279  11.232
29387W        W 1713  27.131  26.080   5.442
29388W        W 1714   7.270  14.855  11.917
29389W        W 1715   7.222   6.885   0.339
29390W        W 1716  33.967  41.855  14.943
29391W        W 1717  14.606   7.150   3.190
29392W        W 1718  19.016  23.204   4.103
29393W        W 1719  34.123  25.293   1.687
29394W        W 1720   6.108  41.894   5.142
29395W        W 1721  22.965  18.759   3.226
29396W        W 1722  14.847  31.474  13.421
29397W        W 1723   0.556  16.716   1.258
29398W        W 1724  13.528  10.283   5.059
29399W        W 1725  23.619  26.003  13.903
29400W        W 1726  40.297  42.102   3.259
29401W        W 1727  24.590  37.377  11.086
29402W        W 1728  11.976  10.565   4.155
29403W        W 1729  12.766  32.900   1.725
29404W        W 1730  25.010  34.387  13.702
29405W        W 1731  36.623  29.273  10.941
29406W        W 1732  10.873   8.909   4.148
29407W        W 1733   1.572   9.130  12.010
29408W        W 1734  32.265  38.001   0.685
29409W        W 1735  39.033  13.152  13.586
29410W        W 1736  25.028  28.473   4.548
29411W        W 1737  19.292  37.018  12.059
29412W        W 1738  35.250   0.719   1.338
29413W        W 1739  12.559  11.304   0.727
29414W        W 1740  37.731  39.398  13.110
29415W        W 1741   8.319  25.456   4.643
29416W        W 1742  40.212  14.294   1.737
29417W        W 1743  19.152   0.425   1.388
29418W        W 1744  43.794   9.308   3.727
29419W        W 1745   8.870  11.560  11.722
29420W        W 1746  38.692  16.547  13.562
29421W        W 1747  16.793  29.864   1.390
29422W        W 1748  18.989  11.876  12.134
29423W        W 1749  40.260   6.939   4.141
29424W        W 1750  23.244  44.456   4.583
29425W        W 1751  19.362  24.497   1.845
29426W        W 1752   7.635  42.739  14.935
29427W        W 1753  13.187  22.165   1.671
29428W        W 1754  26.998  11.570  12.922
29429W        W 1755  40.630  15.604   4.681
29430W        W 1756  41.886   9.174  12.411
29431W        W 1757  15.313   8.001   0.809
29432W        W 1758  24.162   0.342   0.037
29433W        W 1759  17.249  15.355  13.142
29434W        W 1760  41.366  23.686   2.293
29435W        W 1761   0.218  32.156   1.760
29436W        W 1762  33.053   5.539  14.800
29437W        W 1763  27.511   7.180   1.001
29438W        W 1764  44.900  33.405  12.819
29439W        W 1765  17.087  19.205  10.207
29440W        W 1766  12.620  25.693   2.847
29441W        W 1767  27.300  40.331  13.789
29442W        W 1768   6.937  24.543   4.053
29443W        W 1769   9.274  24.971   3.874
29444W        W 1770   6.338  32.866  14.512
29445W        W 1771  23.456  14.863  10.190
29446W        W 1772  33.448  42.453   1.956
29447W        W 1773  23.716  42.873   3.756
29448W        W 1774  31.528  13.261  14.062
29449W        W 1775  23.644   6.347  12.891
29450W        W 1776  29.402  40.220  11.259
29451W        W 1777   2.354   7.382   3.313
29452W        W 1778  27.363   2.332   1.360
29453W        W 1779   8.747  35.539   3.261
29454W        W 1780   6.762  14.786  12.028
29455W        W 1781  13.373  12.706  14.339
29456W        W 1782   2.573  20.642  13.844
29457W        W 1783  34.557  10.281   2.736
29458W        W 1784  24.699  11.330  14.515
29459W        W 1785  24.649  43.334  11.731
29460W        W 1786  40.013  12.625   3.233
29461W        W 1787  10.617   5.472   2.792
29462W        W 1788  34.878  39.996   0.797
29463W        W 1789  18.959  21.458   2.951
29464W        W 1790  16.549  34.443  13.818
29465W        W 1791  14.274  18.441  11.634
29466W        W 1792  14.048  38.503   1.870
29467W        W 1793  37.070  29.408  11.570
29468W        W 1794  19.522  35.954   3.286
29469W        W 1795  11.132  24.270  11.010
29470W        W 1796  32.522  32.999   1.334
29471W        W 1797  32.150   1.966  11.643
29472W        W 1798  19.107  43.446  14.551
29473W        W 1799  35.846   2.379   0.481
29474W        W 1800  29.814  14.304   2.267
29475W        W 1801  21.169   8.307  14.717
29476W        W 1802   9.911  25.991   3.278
29477W        W 1803  38.822   9.267  14.784
29478W        W 1804  32.152   8.463  11.479
29479W        W 1805  27.315  12.969   5.045
29480W        W 1806   0.360   5.108  13.902
29481W        W 1807  31.637  44.167  12.905
29482W        W 1808  41.098   5.877  12.020
29483W        W 1809   9.689  21.236   2.710
29484W        W 1810  43.102   7.857  11.236
29485W        W 1811  27.553  43.468  14.469
29486W        W 1812   9.367  28.418   1.301
29487W        W 1813  15.019  36.007  12.500
29488W        W 1814  22.025  10.737   1.691
29489W        W 1815   9.239  39.919   1.710
29490W        W 1816  18.643   9.189  13.476
29491W        W 1817  37.297  28.297   5.112
29492W        W 1818  35.276   8.176  14.402
29493W        W 1819   1.158  36.992  10.912
29494W        W 1820  37.349  14.651  12.999
29495W        W 1821  43.227  16.382  10.807
29496W        W 1822  24.533   0.900   2.102
29497W        W 1823  36.933   4.895   0.977
29498W        W 1824  10.920  11.217  12.270
29499W        W 1825  22.654  39.892   4.769
29500W        W 1826  13.071   7.117  11.607
29501W        W 1827  27.509  28.617   2.854
29502W        W 1828  12.135  38.993  14.391
29503W        W 1829   3.563  11.318   1.561
29504W        W 1830  36.675   2.761   0.562
29505W        W 1831   6.297  22.085   3.353
29506W        W 1832  22.107  14.495   1.488
29507W        W 1833  25.141  32.188   1.133
29508W        W 1834  39.754  40.864  13.006
29509W        W 1835  37.618  38.928   5.030
29510W        W 1836  23.651   2.777   3.542
29511W        W 1837   2.897  16.515  13.967
29512W        W 1838  15.633  18.003   3.450
29513W        W 1839   0.709  18.109   4.718
29514W        W 1840  32.509   0.351  14.492
29515W        W 1841  27.888   5.131  14.011
29516W        W 1842  43.190  26.939  12.257
29517W        W 1843  16.908  40.482   1.841
29518W        W 1844  33.415  38.301   2.131
29519W        W 1845  34.928  13.535  12.054
29520W        W 1846   7.489  33.174  12.035
29521W        W 1847   3.433  22.633  12.544
29522W        W 1848  20.178  41.375  14.212
29523W        W 1849  23.903  21.596   1.661
29524W        W 1850  10.779  42.064  13.739
29525W        W 1851  34.449  10.992   0.313
29526W        W 1852   3.185  38.932   2.815
29527W        W 1853  18.551  19.975   3.144
29528W        W 1854   5.879  14.073   0.929
29529W        W 1855  37.276  25.149  12.548
29530W        W 1856  26.687   9.356  14.395
29531W        W 1857  19.137  14.211  10.508
29532W        W 1858   9.127  36.313   0.343
29533W        W 1859   2.210  25.085  11.720
29534W        W 1860  25.256  37.582   0.407
29535W        W 1861  30.404   1.292  13.765
29536W        W 1862  43.421  19.504  13.823
29537W        W 1863  10.461  34.330   2.784
29538W        W 1864  17.233   5.987   1.677
29539W        W 1865  19.258  17.887   2.417
29540W        W 1866  27.134   1.772   9.881
29541W        W 1867   3.932  20.834  13.434
29542W        W 1868   5.479  27.925   3.672
29543W        W 1869  37.947   8.334  14.198
29544W        W 1870  21.600  39.267  10.647
29545W        W 1871  39.444  24.757   1.931
29546W        W 1872  30.197  30.452  12.998
29547W        W 1873  33.037  36.189  11.404
29548W        W 1874  29.570  41.823   2.791
29549W        W 1875  37.468  26.987  14.665
29550W        W 1876  32.570  16.968  13.795
29551W        W 1877  18.908  39.223  13.826
29552W        W 1878  27.014  13.847   3.624
29553W        W 1879  20.701  14.538   3.045
29554W        W 1880  34.938  14.869   1.501
29555W        W 1881  25.387   0.994  14.213
29556W        W 1882  11.718  43.494  10.366
29557W        W 1883  39.335  33.214  12.424
29558W        W 1884  11.881  39.587  11.940
29559W        W 1885  15.124  38.106  12.616
29560W        W 1886   6.165  44.538   0.312
29561W        W 1887  32.380  34.327  12.045
29562W        W 1888   4.011  34.045  12.277
29563W        W 1889  32.438  19.510   0.408
29564W        W 1890  43.792   8.890   0.200
29565W        W 1891  44.790  34.865  12.478
29566W        W 1892  41.650  24.587   1.278
29567W        W 1893  42.477  35.120  12.068
29568W        W 1894   6.432  34.339  14.349
29569W        W 1895  34.535  41.635  13.967
29570W        W 1896  12.518  33.470   1.255
29571W        W 1897  44.560  37.020  11.450
29572W        W 1898  30.536   2.702   1.685
29573W        W 1899   8.787  31.997   1.070
29574W        W 1900  37.042  12.740  13.075
29575W        W 1901  25.088  18.483   3.819
29576W        W 1902   4.634  39.131  12.036
29577W        W 1903  23.717  16.086   1.650
29578W        W 1904  40.570  20.545  11.848
29579W        W 1905  13.245  19.206   2.677
29580W        W 1906  42.019  42.542  11.466
29581W        W 1907  27.018  33.192  12.078
29582W        W 1908  44.168  37.515  14.928
29583W        W 1909  37.745  34.427  13.507
29584W        W 1910  13.624  41.373  13.022
29585W        W 1911  43.001  33.451  11.531
29586W        W 1912  22.185   6.471  13.235
29587W        W 1913  10.266   5.380  13.846
29588W        W 1914  36.744  34.391   3.661
29589W        W 1915   4.366  41.796  14.936
29590W        W 1916  37.951  13.125   3.676
29591W        W 1917  44.947  20.697  12.922
29592W        W 1918  42.513  20.351  10.353
29593W        W 1919   1.579   8.344   0.698
29594W        W 1920  12.950  24.608  11.890
29595W        W 1921  28.211  14.089  14.486
29596W        W 1922  36.295  20.277   3.604
29597W        W 1923  41.872  31.591   4.772
29598W        W 1924  27.586  34.729   4.063
29599W        W 1925  19.256  29.644   4.235
29600W        W 1926  29.519  22.562  13.500
29601W        W 1927   0.536   0.180   3.385
29602W        W 1928  40.965  40.049   2.719
29603W        W 1929  13.143  15.740  14.561
29604W        W 1930  26.658  20.061  13.779
29605W        W 1931  44.232  27.666  11.076
29606W        W 1932   5.549  18.018  14.395
29607W        W 1933  14.287  13.398  12.927
29608W        W 1934  19.225   7.204   4.050
29609W        W 1935  14.056   2.134  12.754
29610W        W 1936  25.759  41.300  11.517
29611W        W 1937  12.118  27.159  13.883
29612W        W 1938  37.371  11.208  12.812
29613W        W 1939  41.661  39.804  13.536
29614W        W 1940  18.074  42.283   3.074
29615W        W 1941   6.170  18.222   2.390
29616W        W 1942   3.090  44.875  12.427
29617W        W 1943  10.499   9.021   0.985
29618W        W 1944   4.793  21.671   4.449
29619W        W 1945  15.806  17.340  10.767
29620W        W 1946  19.569  44.949  12.107
29621W        W 1947  41.324  13.564  13.494
29622W        W 1948  41.336   0.358   3.148
29623W        W 1949   4.344  29.534   1.397
29624W        W 1950  11.198   2.717  12.319
29625W        W 1951  27.549   8.694   2.757
29626W        W 1952  38.767   7.403  12.081
29627W        W 1953  39.496  16.379  12.516
29628W        W 1954   9.743  40.997   4.348
29629W        W 1955  22.168  40.301  10.153
29630W        W 1956   9.118  43.345   3.269
29631W        W 1957  39.231  14.964   3.640
29632W        W 1958  23.508  30.436   3.046
29633W        W 1959  11.084  44.833   4.189
29634W        W 1960  36.575  19.065  12.426
29635W        W 1961   1.174  21.716  14.866
29636W        W 1962  34.094   8.071   0.273
29637W        W 1963  10.409  24.636   1.820
29638W        W 1964  34.256   6.178   2.399
29639W        W 1965   6.516  42.775   5.198
29640W        W 1966  30.377  34.081  14.013
29641W        W 1967  41.565  24.607  12.586
29642W        W 1968  18.803  12.826   3.726
29643W        W 1969  14.848   4.783  10.457
29644W        W 1970   8.708   9.206   2.511
29645W        W 1971   2.789   6.837  14.262
29646W        W 1972  19.544  43.571  10.742
29647W        W 1973  18.952  32.247  10.787
29648W        W 1974   8.134  11.328   3.758
29649W        W 1975  26.056  19.473  10.904
29650W        W 1976  35.417  19.821  13.029
29651W        W 1977  28.118   8.370  14.314
29652W        W 1978   8.926   0.317  13.723
29653W        W 1979  12.735  13.133   2.743
29654W        W 1980  44.325  15.654   3.719
29655W        W 1981   2.424  14.863   4.117
29656W        W 1982  41.195  31.612  12.991
29657W        W 1983  28.395   3.775  14.042
29658W        W 1984  35.278  13.705   0.053
29659W        W 1985  10.211  33.455   0.593
29660W        W 1986   8.480  32.068   3.345
29661W        W 1987  27.120  42.547   0.433
29662W        W 1988   7.394   9.089  13.857
29663W        W 1989  26.575  19.646  13.401
29664W        W 1990   3.834  29.579   1.353
29665W        W 1991  42.196  13.600  13.929
29666W        W 1992   5.927  32.346  11.676
29667W        W 1993  42.748  32.143   5.339
29668W        W 1994   7.836  36.984  14.207
29669W        W 1995  43.194  26.299  10.950
29670W        W 1996  27.043  33.353  10.040
29671W        W 1997  15.135   1.708   4.214
29672W        W 1998  25.604  37.909   3.944
29673W        W 1999  21.669   0.950   0.392
29674W        W 2000  16.200  13.658   3.623
29675W        W 2001  18.505  17.075   3.121
29676W        W 2002  30.171   6.472  11.140
29677W        W 2003   8.568   3.331   0.869
29678W        W 2004   9.663  15.791  12.697
29679W        W 2005  39.749  40.867   3.283
29680W        W 2006  15.052  30.466  14.998
29681W        W 2007  42.789  19.615   0.015
29682W        W 2008  27.534  20.786  12.857
29683W        W 2009  37.395  37.398   4.576
29684W        W 2010  19.206  21.967  12.648
29685W        W 2011  38.832  23.778  11.172
29686W        W 2012   4.719  43.605   0.689
29687W        W 2013  39.960  15.313  12.067
29688W        W 2014  39.514  22.780  11.107
29689W        W 2015  17.669   9.152  12.129
29690W        W 2016  23.409  27.061  13.860
29691W        W 2017  19.903  24.132  12.455
29692W        W 2018   2.395  13.283   4.454
29693W        W 2019   6.490  13.702  11.618
29694W        W 2020  44.917  39.156  13.956
29695W        W 2021  41.047  32.580   2.358
29696W        W 2022  44.849   3.548  10.363
29697W        W 2023  33.989  17.041   4.442
29698W        W 2024  43.252  36.188  11.202
29699W        W 2025  29.228  39.030  12.569
29700W        W 2026  16.126   3.489   3.645
29701W        W 2027  36.030  42.026  11.526
29702W        W 2028  23.864  35.652   0.349
29703W        W 2029   5.987  25.182  14.361
29704W        W 2030  26.170  11.343  11.860
29705W        W 2031  12.391  25.776  12.331
29706W        W 2032  27.504   0.898   1.481
29707W        W 2033  10.704  18.620   4.656
29708W        W 2034  19.426   1.362  14.902
29709W        W 2035  10.763   6.242  14.275
29710W        W 2036  34.111  30.067  11.544
29711W        W 2037  12.312  20.159  13.987
29712W        W 2038  13.841   8.327  13.584
29713W        W 2039  32.380  22.595   2.785
29714W        W 2040   8.223  33.861   4.107
29715W        W 2041   8.644   9.473   4.146
29716W        W 2042  16.869  24.605   4.476
29717W        W 2043  37.767  44.266   1.986
29718W        W 2044  31.100  23.671  14.501
29719W        W 2045  34.475   7.843  14.022
29720W        W 2046  35.863   9.855   0.682
29721W        W 2047  40.076  37.475   3.255
29722W        W 2048  20.877  31.653   0.704
29723W        W 2049   3.673  29.465   4.897
29724W        W 2050  21.602  40.916   4.776
29725W        W 2051  29.589   2.067  14.846
29726W        W 2052  44.485  17.495   3.646
29727W        W 2053   6.199  32.168   4.663
29728W        W 2054  25.165  43.393   4.023
29729W        W 2055  27.574   8.926   3.663
29730W        W 2056   8.362  23.531   3.879
29731W        W 2057  35.296   7.186   2.857
29732W        W 2058  43.115  24.071   5.016
29733W        W 2059  41.428   1.806  10.900
29734W        W 2060  36.909   5.665   2.169
29735W        W 2061  16.365  40.418  10.956
29736W        W 2062  31.502  10.617  12.205
29737W        W 2063  19.633  12.620  13.023
29738W        W 2064  25.997   0.743   0.383
29739W        W 2065  24.215  14.779  10.365
29740W        W 2066  16.685  28.100   0.513
29741W        W 2067   6.152   6.448  13.927
29742W        W 2068  12.206  19.550  12.809
29743W        W 2069   1.154  23.798   2.047
29744W        W 2070  40.394   4.168  12.600
29745W        W 2071  27.072   9.480   3.920
29746W        W 2072   2.066   5.015   5.682
29747W        W 2073  44.611  19.422   1.985
29748W        W 2074   3.708  23.548  14.026
29749W        W 2075  28.036   7.060   1.750
29750W        W 2076  28.884  11.295  11.016
29751W        W 2077  38.215  12.082  13.488
29752W        W 2078  11.674  17.797   3.733
29753W        W 2079   6.982  17.823  13.027
29754W        W 2080  44.403  11.816   0.459
29755W        W 2081  24.638  42.869  11.988
29756W        W 2082  12.069   7.920  10.716
29757W        W 2083  27.599  31.294  11.295
29758W        W 2084  16.344   3.368   4.093
29759W        W 2085   6.466  33.185   2.262
29760W        W 2086   8.211  33.964  14.728
29761W        W 2087  31.531  34.709   3.435
29762W        W 2088   8.341  24.549  11.531
29763W        W 2089  15.554  17.696  12.303
29764W        W 2090  18.926   5.418  12.459
29765W        W 2091  40.834   6.235  12.955
29766W        W 2092  26.652  17.853   3.467
29767W        W 2093  17.113  32.457   3.033
29768W        W 2094   3.095  24.256   0.565
29769W        W 2095  24.253  28.712  12.971
29770W        W 2096   9.354  20.009   2.296
29771W        W 2097   6.736  11.240   1.367
29772W        W 2098  20.795  37.933   4.617
29773W        W 2099   9.782  15.812  13.612
29774W        W 2100  25.619  23.131   3.452
29775W        W 2101  41.611  37.810   1.830
29776W        W 2102  10.840   2.516  13.523
29777W        W 2103  27.606  37.246  14.987
29778W        W 2104  29.932  42.496  14.046
29779W        W 2105  44.995  35.932   2.533
29780W        W 2106  18.655   0.382   1.262
29781W        W 2107   4.393  25.043   1.238
29782W        W 2108  25.574  10.467  12.305
29783W        W 2109  11.709   5.191  13.919
29784W        W 2110  21.236  14.407   0.226
29785W        W 2111  27.513  43.475   0.527
29786W        W 2112  11.516   4.520  11.021
29787W        W 2113   3.719  41.297   1.265
29788W        W 2114  30.876  19.989   1.669
29789W        W 2115  14.791  19.516  14.291
29790W        W 2116   6.170  33.885  14.348
29791W        W 2117  30.985  26.013  13.628
29792W        W 2118  38.110   0.658  13.545
29793W        W 2119  37.994  17.112  10.653
29794W        W 2120  31.613   8.427   0.856
29795W        W 2121  21.607  27.459  14.850
29796W        W 2122  30.513  37.923  10.373
29797W        W 2123  40.054  32.703   2.402
29798W        W 2124  29.328  21.117   0.314
29799W        W 2125  19.701  15.225  13.859
29800W        W 2126   3.870   2.872  14.454
29801W        W 2127  14.095  32.133  13.038
29802W        W 2128  16.517  44.489  12.056
29803W        W 2129  11.684   3.649   1.677
29804W        W 2130  44.801  25.104   0.267
29805W        W 2131  43.679  17.069  12.464
29806W        W 2132  20.524  13.769  11.838
29807W        W 2133  35.023  31.070   3.291
29808W        W 2134  44.009   3.543   4.981
29809W        W 2135  41.444   7.853   2.319
29810W        W 2136  14.879   5.458  11.124
29811W        W 2137  37.641  35.605  13.368
29812W        W 2138  33.319   0.729   4.852
29813W        W 2139  19.545  26.562   0.752
29814W        W 2140  41.851  32.460  11.270
29815W        W 2141   8.107  38.361  14.931
29816W        W 2142   9.374  24.458   3.833
29817W        W 2143  35.749  19.760  10.824
29818W        W 2144  15.132   7.684  11.603
29819W        W 2145  19.709  30.593   1.489
29820W        W 2146  40.137  21.516  11.332
29821W        W 2147  13.657  10.888   2.703
29822W        W 2148  40.280  12.107  14.872
29823W        W 2149   1.187   2.059   0.834
29824W        W 2150  43.984  38.355  11.984
29825W        W 2151  13.084  14.089  11.137
29826W        W 2152  17.456   6.339  12.488
29827W        W 2153  44.675   3.800  13.173
29828W        W 2154  40.762  15.125   1.704
29829W        W 2155  29.509   5.361   3.204
29830W        W 2156   2.001   2.356   0.742
29831W        W 2157   9.254  26.609  10.547
29832W        W 2158  30.642   7.014  12.297
29833W        W 2159  40.362  11.935   4.618
29834W        W 2160  32.040   6.428  10.753
29835W        W 2161  13.790  14.326  13.890
29836W        W 2162   5.147   2.695   1.741
29837W        W 2163  42.519  32.535   1.407
29838W        W 2164  12.865   7.856  11.130
29839W        W 2165   2.368   8.582  14.838
29840W        W 2166  23.994   6.886  12.432
29841W        W 2167   5.382  11.757   2.108
29842W        W 2168  41.294  32.447   2.810
29843W        W 2169  12.087   6.733   2.335
29844W        W 2170  12.603  30.141   1.739
29845W        W 2171  19.830  13.159  13.817
29846W        W 2172  24.236  35.354  14.567
29847W        W 2173   4.017  38.266   0.458
29848W        W 2174   8.228  23.570  11.837
29849W        W 2175  14.239  40.387  14.569
29850W        W 2176  33.557  14.831  10.742
29851W        W 2177  28.563  18.132   1.655
29852W        W 2178  32.353  26.935  11.189
29853W        W 2179   5.603  27.464  13.277
29854W        W 2180  27.559  21.409  11.101
29855W        W 2181  16.109  23.239   1.199
29856W        W 2182  35.948  36.341   3.528
29857W        W 2183  32.012  11.743  14.937
29858W        W 2184  24.004  11.503   1.777
29859W        W 2185  27.296  20.050  14.078
29860W        W 2186  11.754  26.564  13.954
29861W        W 2187  23.228  34.359   3.513
29862W        W 2188  38.521  21.804  13.822
29863W        W 2189  43.353   7.630  12.980
29864W        W 2190  24.784  16.056   0.456
29865W        W 2191  25.541   0.968  11.007
29866W        W 2192  22.792  15.749   1.168
29867W        W 2193  20.393  40.987  14.480
29868W        W 2194  17.301  41.893   2.766
29869W        W 2195  44.287  21.005   3.705
29870W        W 2196  34.168  16.381   2.284
29871W        W 2197  17.129   0.338   3.527
29872W        W 2198  26.381  26.486   0.967
29873W        W 2199  14.705  28.921   4.223
29874W        W 2200   3.505  24.252   2.014
29875W        W 2201  20.365  44.524  10.232
29876W        W 2202   8.734  18.786   1.316
29877W        W 2203  42.899  37.629   5.259
29878W        W 2204  17.284  26.652   4.622
29879W        W 2205   5.748  44.941   1.256
29880W        W 2206  26.362  21.109  14.399
29881W        W 2207  11.571  40.424  11.989
29882W        W 2208  30.060  27.652   0.231
29883W        W 2209  30.184  13.067  14.711
29884W        W 2210  34.463  22.553   1.711
29885W        W 2211  13.309  35.948   1.832
29886W        W 2212  25.396  12.127  13.642
29887W        W 2213  42.576  34.975   0.291
29888W        W 2214   5.147  30.071   2.259
29889W        W 2215  23.477  21.099  10.404
29890W        W 2216  44.475  16.192  14.965
29891W        W 2217  32.302  25.992  11.684
29892W        W 2218  40.398  24.712  14.366
29893W        W 2219   1.197  39.293  14.946
29894W        W 2220  41.192  41.937   1.399
29895W        W 2221   0.408  41.282  13.325
29896W        W 2222  20.962  26.613   3.317
29897W        W 2223  13.667  43.231  11.660
29898W        W 2224  19.586   7.925  13.033
29899W        W 2225  36.785   8.951   1.961
29900W        W 2226   0.742   7.266   4.731
29901W        W 2227  18.294  13.666  12.607
29902W        W 2228   6.852  44.562   3.577
29903W        W 2229  36.990  13.333  11.546
29904W        W 2230   1.477  23.599  13.052
29905W        W 2231  20.488  21.661   2.815
29906W        W 2232  10.904  35.143  11.500
29907W        W 2233  25.453   9.078  13.019
29908W        W 2234  37.767  36.065  13.876
29909W        W 2235  43.585  37.601  12.092
29910W        W 2236  38.786   5.885  10.708
29911W        W 2237  12.020  22.980  13.890
29912W        W 2238   6.216  40.997   1.336
29913W        W 2239  23.437  22.509  11.878
29914W        W 2240  27.665  17.774   4.434
29915W        W 2241  40.881  24.907   0.397
29916W        W 2242   1.004   8.992  10.786
29917W        W 2243  28.608  38.112   4.552
29918W        W 2244   6.960  29.218  11.166
29919W        W 2245  35.794  12.359   0.774
29920W        W 2246   3.870  27.647  10.247
29921W        W 2247  11.896  23.930   2.466
29922W        W 2248   4.714  16.705   1.614
29923W        W 2249   2.086  11.437   4.970
29924W        W 2250  31.208   9.677   2.309
29925W        W 2251  40.910  15.176   3.417
29926W        W 2252   6.898  19.058   2.613
29927W        W 2253   8.888  15.321   3.622
29928W        W 2254  18.230  29.823   2.751
29929W        W 2255   2.003  10.381  11.571
29930W        W 2256  43.970   6.335   2.240
29931W        W 2257  39.951  10.864  12.021
29932W        W 2258   7.760  10.633  11.979
29933W        W 2259  11.449  19.037  12.998
29934W        W 2260   7.665  28.504   1.722
29935W        W 2261  43.598  12.841   1.821
29936W        W 2262  38.979  19.380  12.625
29937W        W 2263  44.888  15.218  11.358
29938W        W 2264  22.316  32.162   0.878
29939W        W 2265   5.248  18.982  11.207
29940W        W 2266  43.470  11.432   3.246
29941W        W 2267  31.420  33.942   4.045
29942W        W 2268  35.541  33.446  13.027
29943W        W 2269  13.698   2.605  12.507
29944W        W 2270   1.008  11.931  13.372
29945W        W 2271  11.867  30.473   0.704
29946W        W 2272  18.739  34.952  12.368
29947W        W 2273  23.605  22.732  12.709
29948W        W 2274  24.936  26.872  12.416
29949W        W 2275  44.866  26.547   2.670
29950W        W 2276  37.576  23.268   2.155
29951W        W 2277  43.837  41.197   4.063
29952W        W 2278  38.984  13.774  14.409
29953W        W 2279  26.544  32.364  12.043
29954W        W 2280   9.106  29.735  11.151
29955W        W 2281  35.810   7.277   3.711
29956W        W 2282  36.150   9.097   0.430
29957W        W 2283  36.221  16.193   1.346
29958W        W 2284  23.339  14.077  11.600
29959W        W 2285  24.174   1.677   1.677
29960W        W 2286  15.136  38.567   3.609
29961W        W 2287  32.783  23.573   4.665
29962W        W 2288  42.908  20.114   0.409
29963W        W 2289  13.668  21.770   2.473
29964W        W 2290  17.509  39.716   2.161
29965W        W 2291  15.170  33.682   0.450
29966W        W 2292  17.945  22.083   2.203
29967W        W 2293  19.125  22.189  10.817
29968W        W 2294  40.562   2.459   3.314
29969W        W 2295  31.609  36.825  14.995
29970W        W 2296  42.807  37.463  13.729
29971W        W 2297  18.329   2.787   4.319
29972W        W 2298  41.369  44.004  14.457
29973W        W 2299  43.048  41.010  11.575
29974W        W 2300  42.581   9.388  11.991
29975W        W 2301   2.179  40.020   0.238
29976W        W 2302  13.175  13.830  10.558
29977W        W 2303  28.160  15.027  14.830
29978W        W 2304   2.130  44.801  10.680
29979W        W 2305   3.789  39.399   1.420
29980W        W 2306  32.661  17.197  10.741
29981W        W 2307  25.407  44.303  10.303
29982W        W 2308  27.872   1.491  10.872
29983W        W 2309  10.644  22.548  10.665
29984W        W 2310   5.836  32.539   4.571
29985W        W 2311  43.430  32.625   4.625
29986W        W 2312  21.470  40.422   2.645
29987W        W 2313   9.858  23.455  13.403
29988W        W 2314  41.612  26.179  13.603
29989W        W 2315  11.858  24.316   3.389
29990W        W 2316  16.091   5.393  13.118
29991W        W 2317  22.237  42.147  11.584
29992W        W 2318  35.021  12.157  11.411
29993W        W 2319  25.028   6.862   4.553
29994W        W 2320   4.778  23.514   4.535
29995W        W 2321  20.258  36.913   4.772
29996W        W 2322  13.376  43.930  12.854
29997W        W 2323  43.988   8.408  10.437
29998W        W 2324  16.636   0.188   3.603
29999W        W 2325  22.581   2.550  11.557
30000W        W 2326  27.433  16.261  10.705
30001W        W 2327  38.058  15.071   0.756
30002W        W 2328   9.812   1.240   4.496
30003W        W 2329  15.292  18.140  11.091
30004W        W 2330  34.102  43.929   2.703
30005W        W 2331  43.373  34.887  13.884
30006W        W 2332  13.528  29.916   0.507
30007W        W 2333  44.457  22.266  11.956
30008W        W 2334  33.447   5.927   4.593
30009W        W 2335  23.832  13.744  11.162
30010W        W 2336   2.706  31.056   0.466
30011W        W 2337  33.396  18.236   4.185
30012W        W 2338  23.093   8.652  14.714
30013W        W 2339  25.908  26.256  13.515
30014W        W 2340   4.875  37.622   0.376
30015W        W 2341  22.561  28.089  10.724
30016W        W 2342  27.138  18.168   1.892
30017W        W 2343  16.035  35.321  13.084
30018W        W 2344  32.730  42.521  11.269
30019W        W 2345  44.297  22.196   3.306
30020W        W 2346   4.359   8.479   3.262
30021W        W 2347  30.700  43.781   3.202
30022W        W 2348  43.304   6.734   1.795
30023W        W 2349  35.570   3.997   4.177
30024W        W 2350   6.776  31.081   3.585
30025W        W 2351  32.119  20.077  14.705
30026W        W 2352  11.562  44.988   0.276
30027W        W 2353  22.751  27.242   0.486
30028W        W 2354  15.276  22.832  11.368
30029W        W 2355  16.869  29.509  13.360
30030W        W 2356  10.869  35.921  11.094
30031W        W 2357  35.778   7.342  11.823
30032W        W 2358  32.579  41.991   3.757
30033W        W 2359  26.766  27.163  11.514
30034W        W 2360  43.460   3.392   0.717
30035W        W 2361   0.954  19.754   0.885
30036W        W 2362   7.272  17.205   3.612
30037W        W 2363   9.307  26.124  11.428
30038W        W 2364  31.656  35.998  14.228
30039W        W 2365  38.952   0.747  12.562
30040W        W 2366  44.306  27.424   3.218
30041W        W 2367  43.772  40.400  13.100
30042W        W 2368  34.789  22.811   4.990
30043W        W 2369  31.615   5.273   4.739
30044W        W 2370   5.851  35.028  14.319
30045W        W 2371  31.132  27.660  13.718
30046W        W 2372   2.731  16.739   0.690
30047W        W 2373  26.261   6.798  12.028
30048W        W 2374  40.006  10.286   3.637
30049W        W 2375   0.897  44.367   3.749
30050W        W 2376  11.857  29.088   5.396
30051W        W 2377  31.888   1.246  12.469
30052W        W 2378  41.540  23.283   4.165
30053W        W 2379  42.064  28.592   1.882
30054W        W 2380  21.458   4.181   0.133
30055W        W 2381  21.057  32.410  14.942
30056W        W 2382  14.143   5.665   3.891
30057W        W 2383  21.967   9.600  10.724
30058W        W 2384  33.002  36.763  14.834
30059W        W 2385  32.095  23.973  12.477
30060W        W 2386  44.868  38.548  13.501
30061W        W 2387   8.898   1.815   4.670
30062W        W 2388  18.153  40.554   1.421
30063W        W 2389  39.211   7.280  11.840
30064W        W 2390  14.197  27.112   5.078
30065W        W 2391  37.542  21.416  13.957
30066W        W 2392  27.610  30.558  11.452
30067W        W 2393  14.256   7.764  12.520
30068W        W 2394  30.857   0.808  12.381
30069W        W 2395  34.146   3.368  11.378
30070W        W 2396  29.177  42.046  12.090
30071W        W 2397  11.503  13.932   0.540
30072W        W 2398  35.470  26.563  13.982
30073W        W 2399  37.891  12.723   3.091
30074W        W 2400  14.439  17.607   4.149
30075W        W 2401   0.644  21.757  14.892
30076W        W 2402  30.923   9.851   1.866
30077W        W 2403  20.200  15.409  13.775
30078W        W 2404  22.752   6.103  11.659
30079W        W 2405  36.302   1.616  12.988
30080W        W 2406  43.835  30.884   3.987
30081W        W 2407  27.601  17.195   0.934
30082W        W 2408  39.432  19.541  12.942
30083W        W 2409  14.779  44.004  14.171
30084W        W 2410  12.230   3.636  14.488
30085W        W 2411  30.808  11.565   4.564
30086W        W 2412  12.620   8.290  12.929
30087W        W 2413  13.148  41.332  11.237
30088W        W 2414   8.838  21.537  12.134
30089W        W 2415   7.328  28.117   0.753
30090W        W 2416  22.509   8.827  11.511
30091W        W 2417  10.734  11.779  13.505
30092W        W 2418  25.259   0.821   1.748
30093W        W 2419  41.409  24.223  11.588
30094W        W 2420  43.235  17.714   4.478
30095W        W 2421  29.191  10.819  10.664
30096W        W 2422  42.305  31.691   3.143
30097W        W 2423   8.346  22.058   1.328
30098W        W 2424  26.220   7.958  12.409
30099W        W 2425  15.255  36.971  11.959
30100W        W 2426  35.295   4.943  12.157
30101W        W 2427   1.086  18.282  12.621
30102W        W 2428   9.936   9.061   2.851
30103W        W 2429   9.353  44.528  12.585
30104W        W 2430  25.475  24.296   2.393
30105W        W 2431  22.949   8.425   4.775
30106W        W 2432   5.984  14.727  10.699
30107W        W 2433  16.283  23.971  12.965
30108W        W 2434  19.256  39.232  10.807
30109W        W 2435  25.459  30.544   0.207
30110W        W 2436  44.457  35.317   3.172
30111W        W 2437  25.986  14.829   4.666
30112W        W 2438  32.789  34.029   3.522
30113W        W 2439  25.197  43.806  14.930
30114W        W 2440  40.429  23.125   4.629
30115W        W 2441  23.029  31.026  12.847
30116W        W 2442  41.405  24.132  12.471
30117W        W 2443  28.952  18.155   4.702
30118W        W 2444  37.465   3.984  12.800
30119W        W 2445  32.526  22.732  12.476
30120W        W 2446   9.629  43.700   2.289
30121W        W 2447  39.643  29.369   1.831
30122W        W 2448  17.014  33.419  11.045
30123W        W 2449  22.559  13.794   1.203
30124W        W 2450  25.730   8.668   2.005
30125W        W 2451  10.203  43.267  11.569
30126W        W 2452  19.096   8.848  12.362
30127W        W 2453  15.717   4.623   1.939
30128W        W 2454  32.186   8.797  13.069
30129W        W 2455   7.760  38.393  10.932
30130W        W 2456  14.126  40.812  11.042
30131W        W 2457   2.195  41.761   3.110
30132W        W 2458  12.364   5.175  11.318
30133W        W 2459  23.384   1.765   4.683
30134W        W 2460  29.583  36.523   4.130
30135W        W 2461   0.039  24.201   3.595
30136W        W 2462  11.879  37.550  11.094
30137W        W 2463   4.011  43.367   3.230
30138W        W 2464  30.349   7.377  12.575
30139W        W 2465  23.517  17.256   3.184
30140W        W 2466  24.046  39.976  11.495
30141W        W 2467  43.878   5.350   3.664
30142W        W 2468  14.354  41.020   3.183
30143W        W 2469  17.564  27.038   2.799
30144W        W 2470  19.552  11.320  10.700
30145W        W 2471  34.983  42.018   3.613
30146W        W 2472  19.676   3.151   0.930
30147W        W 2473  16.038   0.801   0.359
30148W        W 2474  16.099  39.770   1.845
30149W        W 2475  16.791  14.207   3.326
30150W        W 2476  25.448  42.297  14.014
30151W        W 2477   5.378   5.347  10.747
30152W        W 2478   2.354  18.898  13.806
30153W        W 2479  35.620  34.377   2.891
30154W        W 2480  41.829   5.013  14.796
30155W        W 2481   9.674   9.681  13.435
30156W        W 2482  25.912  14.751  12.018
30157W        W 2483  10.161  29.091  10.839
30158W        W 2484  34.122  33.489  13.977
30159W        W 2485  11.593  37.427  12.870
30160W        W 2486  12.611  20.516   2.840
30161W        W 2487  40.138  18.818   3.421
30162W        W 2488  38.828  13.642   4.650
30163W        W 2489  31.352  35.043   0.262
30164W        W 2490   9.309  39.242  12.949
30165W        W 2491   7.698  40.899  13.554
30166W        W 2492  12.552  41.496   3.421
30167W        W 2493  39.800  21.025   5.020
30168W        W 2494  32.352   6.640   4.188
30169W        W 2495   5.319  13.223   0.839
30170W        W 2496  22.681  35.413   4.657
30171W        W 2497  31.125  24.272  12.469
30172W        W 2498  17.504  29.657   4.111
30173W        W 2499  33.025  40.858   2.117
30174W        W 2500  22.102   9.808   2.226
30175W        W 2501  33.611  16.265  12.457
30176W        W 2502  42.398  36.345  12.924
30177W        W 2503  21.263  22.700  12.217
30178W        W 2504  16.452   7.788  14.883
30179W        W 2505  39.577  37.326   2.122
30180W        W 2506   0.019  43.499  14.274
30181W        W 2507  32.671   8.879   2.190
30182W        W 2508   1.902  22.707   1.351
30183W        W 2509  19.705  18.765   0.338
30184W        W 2510  40.070   9.061  14.621
30185W        W 2511  31.157  24.157  11.551
30186W        W 2512  41.543  14.963   2.870
30187W        W 2513   1.961   4.753   0.550
30188W        W 2514  21.522  24.657   3.762
30189W        W 2515  23.483  41.325   3.107
30190W        W 2516   0.915  26.909   0.042
30191W        W 2517  18.203  26.198   2.638
30192W        W 2518  25.461  20.998   4.123
30193W        W 2519   4.487  14.328   2.745
30194W        W 2520   9.870  22.018  12.904
30195W        W 2521  40.818  25.039  10.621
30196W        W 2522  15.317  16.155  12.892
30197W        W 2523  17.601  18.639   0.688
30198W        W 2524  38.026  16.743  12.156
30199W        W 2525  26.494   2.413   2.666
30200W        W 2526  15.774  14.709   1.603
30201W        W 2527  39.463  10.500  13.820
30202W        W 2528  32.011   7.689  11.186
30203W        W 2529  23.170   2.774   2.931
30204W        W 2530   7.328  30.770  14.283
30205W        W 2531  13.040   6.740  13.951
30206W        W 2532   8.275  34.871   4.106
30207W        W 2533   6.577   9.564  14.903
30208W        W 2534  19.564  17.307   3.790
30209W        W 2535  38.371  31.992   2.199
30210W        W 2536  36.790   2.313  13.321
30211W        W 2537  37.441  33.444  14.840
30212W        W 2538   6.855  15.906   0.637
30213W        W 2539   5.678  11.733  12.040
30214W        W 2540  12.600  14.327  14.885
30215W        W 2541  30.916   6.237   3.745
30216W        W 2542  11.702  12.025  13.573
30217W        W 2543  44.477  36.276   1.704
30218W        W 2544  19.505   4.902   1.834
30219W        W 2545  21.035   1.839   4.120
30220W        W 2546  31.113  15.040  10.915
30221W        W 2547  32.663  28.821   3.020
30222W        W 2548   9.298  22.995   0.346
30223W        W 2549  40.051   1.858   2.692
30224W        W 2550   8.831  38.624   2.825
30225W        W 2551  13.990   7.327  11.332
30226W        W 2552   6.893   0.303   3.225
30227W        W 2553   9.601   1.851  14.027
30228W        W 2554  43.336   5.106   3.761
30229W        W 2555  31.601   9.456   0.764
30230W        W 2556  29.221  22.050   2.406
30231W        W 2557  39.411  22.383  14.875
30232W        W 2558   1.820   7.146   1.855
30233W        W 2559  39.421  12.787  10.580
30234W        W 2560  14.552  38.664  12.066
30235W        W 2561  40.300  42.321  11.542
30236W        W 2562  42.299   6.849  14.350
30237W        W 2563   6.692  33.486   4.764
30238W        W 2564  32.712  20.091   4.212
30239W        W 2565  42.276   8.754   0.749
30240W        W 2566  34.636  32.236   2.358
30241W        W 2567  35.879  17.556   3.163
30242W        W 2568   1.159  18.196   1.327
30243W        W 2569  30.409  19.714   3.591
30244W        W 2570  27.689  23.201  11.589
30245W        W 2571  26.133  13.526   4.009
30246W        W 2572  40.918  11.531  10.540
30247W        W 2573  29.431  27.228  13.373
30248W        W 2574  37.847  37.311   0.461
30249W        W 2575  22.272  41.785   2.182
30250W        W 2576   5.913   8.139  14.873
30251W        W 2577  33.936   5.490   3.859
30252W        W 2578  10.716   3.884  11.134
30253W        W 2579  32.391  21.049   3.196
30254W        W 2580  34.795  40.934   2.764
30255W        W 2581   1.537  32.535  12.678
30256W        W 2582  31.351   3.418  13.890
30257W        W 2583  24.684  43.907  14.803
30258W        W 2584   3.827  34.061   2.341
30259W        W 2585  22.644  30.413   3.631
30260W        W 2586   5.399  20.483   2.152
30261W        W 2587   2.354  32.891   1.851
30262W        W 2588   0.330   5.596  10.531
30263W        W 2589  34.397  33.894  14.826
30264W        W 2590  14.040   9.135  11.540
30265W        W 2591  11.713  14.822  10.731
30266W        W 2592   5.368  40.046  14.057
30267W        W 2593  19.245  40.985   3.432
30268W        W 2594  34.997   1.522  11.093
30269W        W 2595  11.537  20.256   3.923
30270W        W 2596  36.879  36.415   2.367
30271W        W 2597  21.107   3.454   5.003
30272W        W 2598  32.163  17.981  13.039
30273W        W 2599   1.043  42.824  10.367
30274W        W 2600  37.619  44.549  14.591
30275W        W 2601  10.476  32.771   3.770
30276W        W 2602  38.358   1.488  14.835
30277W        W 2603  11.177   3.675   1.438
30278W        W 2604  43.506   0.982  11.286
30279W        W 2605  31.920  41.152  11.668
30280W        W 2606  10.387  12.717   1.228
30281W        W 2607  38.975  24.541  14.416
30282W        W 2608  35.874  21.219  10.917
30283W        W 2609  38.031  41.841  10.662
30284W        W 2610   2.870  35.020   0.307
30285W        W 2611  19.695  25.548  11.490
30286W        W 2612  20.588  37.922  12.369
30287W        W 2613  13.726   1.719  14.843
30288W        W 2614  41.224  27.524   4.074
30289W        W 2615  16.211   9.380  14.867
30290W        W 2616   3.503  25.595  12.960
30291W        W 2617  18.636  18.438  14.484
30292W        W 2618  44.243   2.942  10.387
30293W        W 2619  12.114  21.205  13.363
30294W        W 2620   8.742  36.983  14.290
30295W        W 2621  35.503   1.929  11.553
30296W        W 2622  29.908  14.570   3.691
30297W        W 2623  13.171  37.964   0.470
30298W        W 2624  34.050  43.398   4.667
30299W        W 2625   4.756  16.404  10.473
30300W        W 2626   5.497  34.294  11.412
30301W        W 2627   8.720  18.488   4.032
30302W        W 2628  23.618  14.056  13.833
30303W        W 2629  37.088  44.903  13.970
30304W        W 2630  44.958  16.636  10.816
30305W        W 2631  10.103  17.736   0.918
30306W        W 2632  38.128  10.017  10.694
30307W        W 2633  21.302  24.723   3.298
30308W        W 2634   2.191   2.035  11.112
30309W        W 2635   2.981  24.410   3.629
30310W        W 2636  33.163  38.862  14.993
30311W        W 2637   4.961  44.509  10.724
30312W        W 2638   7.821  12.660   2.344
30313W        W 2639  15.583  17.462  11.473
30314W        W 2640  44.393  25.928  13.999
30315W        W 2641  13.732  44.442  14.935
30316W        W 2642   4.773  43.737   2.642
30317W        W 2643  22.610  16.486   5.059
30318W        W 2644  15.624  24.764  11.580
30319W        W 2645  40.266  30.533   0.311
30320W        W 2646  39.980  17.544  14.288
30321W        W 2647  11.853  31.644   0.227
30322W        W 2648   1.574  35.839   2.861
30323W        W 2649  15.825  20.312   2.365
30324W        W 2650  28.164  30.019  10.932
30325W        W 2651  34.099  38.479   2.286
30326W        W 2652  27.523   8.351   0.146
30327W        W 2653  41.868  28.455  12.650
30328W        W 2654  25.123  17.315   0.775
30329W        W 2655  15.138  16.290  10.672
30330W        W 2656  10.717  10.398  14.269
30331W        W 2657   0.909   2.402   5.423
30332W        W 2658   8.155  33.125   4.662
30333W        W 2659  39.755  16.394   3.699
30334W        W 2660  13.380  33.893   5.262
30335W        W 2661  11.146  22.962   4.255
30336W        W 2662  33.423  33.307   3.624
30337W        W 2663  16.192  32.040  11.600
30338W        W 2664  26.030  33.110   3.668
30339W        W 2665  22.250  26.605  11.510
30340W        W 2666   8.118  31.196  12.547
30341W        W 2667  17.256   6.881   3.756
30342W        W 2668   9.794   3.473   1.751
30343W        W 2669  19.936  44.648   3.251
30344W        W 2670  36.905  15.724   0.168
30345W        W 2671  37.106  27.568   2.208
30346W        W 2672   0.444   2.313   4.688
30347W        W 2673   6.448  38.507   2.804
30348W        W 2674   5.413  39.209  14.385
30349W        W 2675  24.508  38.001   1.210
30350W        W 2676   2.027   1.161  10.586
30351W        W 2677  42.485  44.963   2.484
30352W        W 2678   1.921  23.228   2.659
30353W        W 2679  24.627  38.015  13.906
30354W        W 2680   2.656   1.991   2.124
30355W        W 2681  10.614   2.997   1.715
30356W        W 2682  33.607  10.406  13.512
30357W        W 2683   8.488  12.870   1.667
30358W        W 2684   4.263  20.167   3.899
30359W        W 2685  11.967  33.928  11.090
30360W        W 2686  23.503   3.347  11.660
30361W        W 2687  25.531  36.638   0.417
30362W        W 2688  35.374  40.108  14.917
30363W        W 2689  10.555  43.039  14.064
30364W        W 2690  14.560   4.640   4.503
30365W        W 2691  25.227  21.208  13.120
30366W        W 2692  19.464   8.668  11.470
30367W        W 2693   3.870  23.308   4.477
30368W        W 2694  28.061  31.377  14.878
30369W        W 2695   2.957   8.140  12.644
30370W        W 2696  14.814  27.061   3.803
30371W        W 2697   3.977  42.122   1.383
30372W        W 2698  14.406  26.035  11.136
30373W        W 2699  38.578  19.690   0.951
30374W        W 2700  21.631  44.897   4.439
30375W        W 2701  40.831  41.525  14.493
30376W        W 2702  25.133  35.678  14.230
30377W        W 2703  35.755  14.590   3.630
30378W        W 2704  25.187   0.277   4.809
30379W        W 2705  26.495  40.528   3.727
30380W        W 2706  14.990  12.733   1.417
30381W        W 2707  32.368   5.284   1.297
30382W        W 2708  29.755   4.202   4.058
30383W        W 2709   8.216  21.476   0.475
30384W        W 2710  28.405  33.083   4.607
30385W        W 2711  22.748   2.273  13.835
30386W        W 2712  38.547  18.014   4.309
30387W        W 2713  42.770  31.407  13.587
30388W        W 2714  16.126  10.862  10.743
30389W        W 2715  31.915  24.491  12.464
30390W        W 2716  14.688  43.804   1.977
30391W        W 2717  25.724  23.619   4.184
30392W        W 2718  32.118  13.891  13.008
30393W        W 2719  19.293  43.532   2.858
30394W        W 2720  40.418  27.944  14.564
30395W        W 2721  12.088  32.048  13.522
30396W        W 2722   0.426  34.666  11.992
30397W        W 2723   4.991   9.782  10.536
30398W        W 2724  12.209  20.194   4.587
30399W        W 2725  32.939  38.377   2.646
30400W        W 2726   0.039   0.223   3.282
30401W        W 2727   9.475  20.341   1.907
30402W        W 2728  33.474  28.221   2.703
30403W        W 2729  25.623   6.987   2.768
30404W        W 2730  32.089  13.641   0.208
30405W        W 2731  17.995  30.084   0.333
30406W        W 2732  12.803  11.321  10.542
30407W        W 2733   4.484  18.753  11.371
30408W        W 2734  26.663  40.297  14.426
30409W        W 2735  28.976  37.505  11.987
30410W        W 2736   3.897  11.112  13.801
30411W        W 2737  44.860  31.183   1.271
30412W        W 2738  35.111   8.644   0.206
30413W        W 2739  36.657  30.629  10.257
30414W        W 2740   6.691  11.852  10.274
30415W        W 2741   7.830  17.842   0.448
30416W        W 2742  25.374  37.329  14.923
30417W        W 2743  30.612  44.402   0.687
30418W        W 2744  30.119  35.978  14.003
30419W        W 2745   5.194  16.213  13.048
30420W        W 2746  18.892  44.269   1.656
30421W        W 2747  43.550  28.104  14.026
30422W        W 2748   3.410   9.743   9.847
30423W        W 2749  12.363  38.278   2.206
30424W        W 2750  35.515  32.539   0.352
30425W        W 2751  19.506  17.815  11.538
30426W        W 2752  17.605  15.116  13.427
30427W        W 2753   8.410  30.999  12.976
30428W        W 2754   8.068  26.478  12.960
30429W        W 2755  40.941   1.211   2.421
30430W        W 2756  35.987  35.788  10.154
30431W        W 2757  31.974  40.517   1.003
30432W        W 2758  38.882  12.655  11.442
30433W        W 2759  21.808  27.497  10.607
30434W        W 2760  28.481  29.121  10.689
30435W        W 2761  27.353   4.781  11.111
30436W        W 2762  19.378  21.626  13.010
30437W        W 2763   3.408  38.783   5.082
30438W        W 2764  21.534  29.145  13.988
30439W        W 2765  27.680  30.057  13.605
30440W        W 2766  34.068  30.657  14.161
30441W        W 2767  40.733   6.134  13.545
30442W        W 2768  23.924  43.838   1.652
30443W        W 2769  22.179  22.088   0.580
30444W        W 2770  16.992  41.095   4.214
30445W        W 2771  10.651  39.658  13.142
30446W        W 2772  22.256  31.414   4.580
30447W        W 2773  32.900  39.875   4.211
30448W        W 2774  32.213  41.129  12.078
30449W        W 2775  22.426   2.886  11.184
30450W        W 2776  12.692  20.245   2.397
30451W        W 2777   3.702  11.853   3.696
30452W        W 2778  22.123  43.261  10.539
30453W        W 2779  20.253  30.455  12.979
30454W        W 2780  39.321  41.009  12.787
30455W        W 2781  40.370  24.698   4.924
30456W        W 2782  42.772  35.863   1.507
30457W        W 2783   4.266  30.231  13.021
30458W        W 2784  10.240  42.337  14.854
30459W        W 2785   1.975  10.894   5.082
30460W        W 2786   2.946  23.754  14.331
30461W        W 2787   6.191  26.896   0.879
30462W        W 2788  17.866   6.423  14.665
30463W        W 2789  10.977  11.563   3.407
30464W        W 2790  22.763  16.228   3.335
30465W        W 2791  35.790  30.662   4.057
30466W        W 2792  34.154  38.039  13.426
30467W        W 2793  35.386  14.031  11.657
30468W        W 2794  19.813  38.901   2.276
30469W        W 2795  43.486  35.420   1.018
30470W        W 2796  44.696  11.693   3.914
30471W        W 2797  34.336  40.156   4.379
30472W        W 2798   8.622  25.111   4.384
30473W        W 2799  44.865  11.617  14.473
30474W        W 2800  15.694  17.120   1.658
30475W        W 2801   4.180   0.735   2.346
30476W        W 2802  28.379  21.049  14.250
30477W        W 2803   0.455  22.033  10.554
30478W        W 2804  19.302  19.078   2.598
30479W        W 2805   5.441  22.545  13.130
30480W        W 2806  14.115  18.749   3.633
30481W        W 2807  15.274  37.458  13.403
30482W        W 2808   0.629  36.170   0.963
30483W        W 2809   9.351   5.376   4.817
30484W        W 2810  10.877  44.253   2.223
30485W        W 2811  29.622  19.765  10.058
30486W        W 2812  25.187  25.148   3.168
30487W        W 2813  11.236  41.572  14.449
30488W        W 2814  10.135  31.155   0.845
30489W        W 2815  27.945  33.035  11.414
30490W        W 2816  35.934  11.358  13.060
30491W        W 2817  37.313  30.606  11.070
30492W        W 2818  14.699  43.752   0.122
30493W        W 2819  17.777  34.001   0.257
30494W        W 2820   0.332  27.208  10.460
30495W        W 2821  26.615  34.488  10.244
30496W        W 2822  39.166  17.642   0.368
30497W        W 2823   0.421   4.783   2.285
30498W        W 2824  19.626  11.722   2.200
30499W        W 2825  30.054  20.678  11.570
30500W        W 2826  31.600  29.163   3.675
30501W        W 2827  41.436   5.223   4.072
30502W        W 2828  34.230  11.109   2.629
30503W        W 2829  24.029  43.463  13.492
30504W        W 2830  31.548  18.060  14.094
30505W        W 2831  40.882  38.550  13.882
30506W        W 2832  27.969  21.876  13.835
30507W        W 2833   6.194  11.477   2.757
30508W        W 2834   8.459   7.954   1.356
30509W        W 2835  18.703  21.397   1.914
30510W        W 2836  24.072  30.675   1.663
30511W        W 2837  38.573  20.280   2.106
30512W        W 2838  31.342   5.298   1.206
30513W        W 2839   5.737  30.892   2.287
30514W        W 2840  27.246  31.016  14.399
30515W        W 2841   2.354   0.188  13.742
30516W        W 2842   9.252  18.487  14.986
30517W        W 2843  16.172  33.399   9.922
30518W        W 2844  34.090  11.915   0.191
30519W        W 2845   5.196  24.563   2.942
30520W        W 2846  24.016  42.572   2.686
30521W        W 2847  19.983  35.533   1.887
30522W        W 2848  39.014  16.218  12.456
30523W        W 2849   7.948  20.411   5.027
30524W        W 2850   4.486  17.533  13.821
30525W        W 2851  36.454  19.503   0.239
30526W        W 2852  25.584   7.232   3.214
30527W        W 2853  32.323   0.897  11.317
30528W        W 2854  16.249   7.551   4.755
30529W        W 2855  35.991   4.961   2.821
30530W        W 2856   1.986   3.425  14.841
30531W        W 2857  20.726  36.092   1.590
30532W        W 2858  34.021  25.621   4.480
30533W        W 2859  33.776  30.033  12.004
30534W        W 2860  17.262  34.317  12.465
30535W        W 2861  26.236  27.280  10.121
30536W        W 2862  44.348   2.713   4.870
30537W        W 2863  29.665  25.977  12.342
30538W        W 2864  19.789  14.829   4.090
30539W        W 2865  43.392  22.755  10.470
30540W        W 2866   2.734  28.015  12.466
30541W        W 2867  10.776  20.096   2.842
30542W        W 2868  10.745  21.007  13.208
30543W        W 2869  32.894  26.881   1.371
30544W        W 2870  14.097  31.949   1.142
30545W        W 2871  34.066   5.232   0.410
30546W        W 2872   4.005  30.583   0.256
30547W        W 2873  30.741   9.062  12.056
30548W        W 2874   0.287  20.600   3.688
30549W        W 2875  25.911  37.377  11.167
30550W        W 2876  14.926  36.176  12.978
30551W        W 2877  12.990  38.574  11.712
30552W        W 2878  42.006   5.258  12.878
30553W        W 2879  12.203   1.664   4.999
30554W        W 2880  28.912   1.749  12.168
30555W        W 2881  33.423  42.594  14.782
30556W        W 2882  37.551  13.861  10.999
30557W        W 2883  37.522  28.175   3.680
30558W        W 2884  19.587  20.505  12.980
30559W        W 2885  43.567   8.702  11.311
30560W        W 2886  30.655  17.542   4.562
30561W        W 2887  29.047  44.612  14.526
30562W        W 2888   6.480  38.067  13.841
30563W        W 2889  24.564  13.078  14.111
30564W        W 2890  26.102  38.870   0.517
30565W        W 2891  39.217  11.752   2.510
30566W        W 2892  41.212   5.870  13.017
30567W        W 2893  20.626  24.896   2.826
30568W        W 2894  17.522   6.568   3.327
30569W        W 2895   8.689   1.585   0.647
30570W        W 2896  29.563  37.932  13.358
30571W        W 2897   4.683  25.796   0.319
30572W        W 2898   4.378  28.412   1.869
30573W        W 2899   0.491  31.728   3.173
30574W        W 2900  12.704  10.840  14.757
30575W        W 2901  19.625  17.114   3.333
30576W        W 2902  37.996  23.166   2.490
30577W        W 2903   5.175  43.347  14.053
30578W        W 2904  19.516  27.094   1.554
30579W        W 2905  33.455  35.900  10.644
30580W        W 2906  20.140   2.028   3.984
30581W        W 2907  35.943  35.469  11.517
30582W        W 2908   4.248  30.120  11.496
30583W        W 2909  16.201  15.685  14.984
30584W        W 2910  39.918  11.632  12.953
30585W        W 2911  16.893   5.676  12.088
30586W        W 2912  18.856  44.482  12.570
30587W        W 2913  43.943  36.515  11.808
30588W        W 2914   1.879  19.617  13.925
30589W        W 2915  36.011  28.650   1.994
30590W        W 2916  36.530  23.420   2.947
30591W        W 2917  38.238  21.368   9.933
30592W        W 2918  13.294  36.268   3.203
30593W        W 2919  35.293  34.324   0.028
30594W        W 2920  38.585  34.383   2.726
30595W        W 2921  19.967   6.127   1.778
30596W        W 2922   8.752  38.453   1.311
30597W        W 2923   7.732  25.249   0.688
30598W        W 2924  10.422   9.017  11.534
30599W        W 2925   0.455  32.011   1.290
30600W        W 2926  21.693  44.851   1.426
30601W        W 2927  41.404  28.884  10.717
30602W        W 2928  17.228  38.965   0.173
30603W        W 2929  41.242   3.507   0.423
30604W        W 2930  33.290   8.461  10.685
30605W        W 2931  40.487  38.542  14.387
30606W        W 2932  23.540  42.233  14.864
30607W        W 2933  43.969  37.395   3.354
30608W        W 2934  18.140  29.598   0.431
30609W        W 2935  18.236  18.230  11.094
30610W        W 2936  24.771   8.872   4.700
30611W        W 2937  26.493  12.908   3.226
30612W        W 2938  43.847  41.915   4.082
30613W        W 2939  33.284  38.820  11.998
30614W        W 2940  25.814  26.761   3.747
30615W        W 2941  33.887  16.809  13.316
30616W        W 2942   9.879   7.637  14.948
30617W        W 2943   5.635   5.579  13.570
30618W        W 2944   3.393  31.158   2.372
30619W        W 2945  35.010  44.951   4.719
30620W        W 2946  44.012  22.948   2.908
30621W        W 2947  13.718   8.180   1.267
30622W        W 2948  40.759  35.404   0.901
30623W        W 2949   0.477   4.844  11.520
30624W        W 2950  28.524  40.901  12.382
30625W        W 2951  28.770   4.018   3.742
30626W        W 2952  31.432   7.282   2.313
30627W        W 2953  41.918  29.641  13.937
30628W        W 2954  37.839  42.210  14.893
30629W        W 2955  26.176  24.198  13.993
30630W        W 2956   4.095  16.411  12.971
30631W        W 2957  26.185  15.763  10.025
30632W        W 2958  10.652  23.500  12.006
30633W        W 2959  26.264  14.215   2.318
30634W        W 2960  30.994  20.147   2.523
30635W        W 2961  24.155  18.730   4.524
30636W        W 2962  32.003   3.267   0.271
30637W        W 2963  29.502   7.264  10.010
30638W        W 2964  44.234  19.615  11.378
30639W        W 2965  18.017  20.238   2.225
30640W        W 2966  35.407  23.509   3.402
30641W        W 2967  30.088  17.300  13.518
30642W        W 2968  21.754  39.236   3.351
30643W        W 2969  13.950  40.833  14.555
30644W        W 2970  35.608   6.282  11.539
30645W        W 2971  23.514   6.933  12.604
30646W        W 2972  30.368  19.151   1.936
30647W        W 2973  23.149  12.247  13.788
30648W        W 2974  11.064   5.856  13.361
30649W        W 2975   2.309  29.429  14.764
30650W        W 2976  27.196  29.402   5.753
30651W        W 2977  10.121  38.985  14.828
30652W        W 2978   9.629  11.453  12.141
30653W        W 2979   9.611  17.255   3.282
30654W        W 2980  13.797  30.653   4.743
30655W        W 2981  13.022   5.710   1.268
30656W        W 2982   1.341   4.271  13.664
30657W        W 2983  21.688  25.622   3.899
30658W        W 2984  11.307  42.833   4.525
30659W        W 2985  35.415  26.624   3.868
30660W        W 2986  34.821  13.258  14.406
30661W        W 2987  11.164  17.482  12.545
30662W        W 2988  25.669  12.968  12.846
30663W        W 2989  21.531  26.825  14.462
30664W        W 2990   2.702  12.763   9.863
30665W        W 2991   5.930  32.155   4.203
30666W        W 2992   9.748  19.460   1.693
30667W        W 2993   7.726  44.901  13.497
30668W        W 2994   4.200   0.382  14.363
30669W        W 2995  11.783   0.779  11.242
30670W        W 2996  19.701  19.808   2.022
30671W        W 2997  17.814  16.777   4.567
30672W        W 2998  28.133  41.846  13.972
30673W        W 2999  44.289  22.210   1.448
30674W        W 3000  23.605  40.363   4.719
30675W        W 3001   5.749  23.442   2.224
30676W        W 3002  30.149  31.540  10.550
30677W        W 3003   6.279   3.275   4.014
30678W        W 3004   0.408   2.575   4.175
30679W        W 3005  41.071  35.963   3.219
30680W        W 3006   8.410   5.736  10.765
30681W        W 3007  44.439  41.583  13.497
30682W        W 3008   7.816  21.149   1.750
30683W        W 3009  44.606   7.841   2.297
30684W        W 3010  29.594   5.230   1.666
30685W        W 3011  35.672  28.475  11.202
30686W        W 3012  19.150  18.322   2.176
30687W        W 3013   8.197   4.875  10.136
30688W        W 3014   6.084  32.024   0.814
30689W        W 3015  39.471  34.358  11.142
30690W        W 3016  39.817  30.141   3.627
30691W        W 3017   2.016  18.605  11.104
30692W        W 3018  41.797   1.262   4.592
30693W        W 3019  29.637  42.494  12.017
30694W        W 3020  29.005  16.795   2.830
30695W        W 3021   9.164  42.832   4.132
30696W        W 3022   6.315  10.179  12.152
30697W        W 3023  20.837  30.747   1.842
30698W        W 3024  11.260  37.366  12.454
30699W        W 3025  34.586  32.348  13.043
30700W        W 3026  16.534   7.528   3.349
30701W        W 3027  41.756  25.216  12.104
30702W        W 3028  39.083  28.921   1.829
30703W        W 3029   0.488  15.237  10.711
30704W        W 3030  34.632   9.890  10.729
30705W        W 3031   4.982  43.364   2.334
30706W        W 3032  26.872   6.107  12.036
30707W        W 3033   7.770  31.945  12.393
30708W        W 3034  44.671  15.909   3.437
30709W        W 3035  17.674  11.000   3.666
30710W        W 3036  43.832  35.171  13.854
30711W        W 3037  20.953  11.746  14.593
30712W        W 3038  17.219   6.612  12.119
30713W        W 3039   1.940  11.984   3.313
30714W        W 3040  35.953  21.160   4.587
30715W        W 3041   5.205   1.677  12.929
30716W        W 3042  26.510  22.280   1.814
30717W        W 3043  12.250  31.133   1.820
30718W        W 3044  33.559   1.097   4.014
30719W        W 3045  27.171  25.647   4.842
30720W        W 3046  40.290  12.784   2.792
30721W        W 3047   2.479  13.821   4.319
30722W        W 3048   6.343  19.077  11.003
30723W        W 3049   0.252  10.621  11.666
30724W        W 3050  19.259  19.214   3.103
30725W        W 3051  11.651  14.327   5.102
30726W        W 3052  25.668  25.307   3.358
30727W        W 3053  40.466   2.971   3.285
30728W        W 3054  28.725  25.467  12.610
30729W        W 3055  36.112  40.994   2.425
30730W        W 3056  43.678  23.473   0.300
30731W        W 3057  11.355  34.606  13.022
30732W        W 3058  25.039  28.210  11.988
30733W        W 3059  25.699  17.271  13.493
30734W        W 3060  41.919  27.145  14.060
30735W        W 3061   7.655  34.443   1.809
30736W        W 3062  44.810  36.466   2.841
30737W        W 3063  29.596  15.427   1.772
30738W        W 3064  27.374  19.566   3.724
30739W        W 3065   3.800  26.025   1.408
30740W        W 3066  32.057  32.438   1.656
30741W        W 3067  32.863  41.776   3.343
30742W        W 3068   2.532  35.858  13.978
30743W        W 3069  12.648  18.665   4.659
30744W        W 3070  14.626   0.656   2.950
30745W        W 3071  33.548  41.076   1.341
30746W        W 3072  37.147  41.470  13.009
30747W        W 3073   3.434  40.606  12.987
30748W        W 3074   5.164  11.335  11.604
30749W        W 3075  36.392  21.454  13.900
30750W        W 3076  20.280  43.947  14.785
30751W        W 3077  18.743  22.577   3.236
30752W        W 3078  13.104  42.465  12.082
30753W        W 3079  21.743   1.813   4.620
30754W        W 3080  26.559  28.924   5.027
30755W        W 3081  25.232   6.836   2.432
30756W        W 3082   5.981   1.363  11.634
30757W        W 3083  39.574  33.201   1.700
30758W        W 3084  33.535  16.770   0.921
30759W        W 3085  35.347  43.899  12.123
30760W        W 3086  30.587   7.315  14.824
30761W        W 3087  28.532  29.080  14.314
30762W        W 3088  29.036  34.923   2.803
30763W        W 3089  39.330  20.514   3.098
30764W        W 3090   5.365  11.046  12.597
30765W        W 3091  14.139   5.751  11.538
30766W        W 3092  38.386   9.139   4.897
30767W        W 3093   3.465  40.066  12.974
30768W        W 3094   8.157   5.446   3.353
30769W        W 3095  34.589  35.090   3.257
30770W        W 3096  36.371  36.951   1.953
30771W        W 3097  16.065  11.682   3.738
30772W        W 3098  13.142  44.393  12.885
30773W        W 3099   2.241  44.336  14.876
30774W        W 3100  37.404   4.781   2.257
30775W        W 3101  22.708  42.688   5.092
30776W        W 3102  14.811  19.740  11.176
30777W        W 3103  26.054  26.025  11.446
30778W        W 3104   2.612  35.803  13.092
30779W        W 3105  15.168  42.406  12.302
30780W        W 3106  37.294  29.067  12.581
30781W        W 3107  12.250   2.298  11.634
30782W        W 3108   5.928  10.129   2.745
30783W        W 3109  23.082  35.001   9.886
30784W        W 3110  17.628  22.258   4.666
30785W        W 3111  43.730  22.400   2.230
30786W        W 3112  22.664   9.034   4.035
30787W        W 3113  37.212   9.563   2.929
30788W        W 3114   2.143  13.790   1.248
30789W        W 3115  23.205  17.013   1.819
30790W        W 3116  29.929  21.258   1.426
30791W        W 3117  13.351  17.160  14.705
30792W        W 3118  30.045  13.223   2.808
30793W        W 3119  40.100  23.891  13.466
30794W        W 3120  21.478  43.881  12.978
30795W        W 3121  29.426  44.393  11.198
30796W        W 3122  34.404   2.300  13.628
30797W        W 3123  38.995  41.353  13.084
30798W        W 3124  16.586  36.884   2.136
30799W        W 3125  37.155  30.125   1.905
30800W        W 3126  13.395  11.752  11.214
30801W        W 3127  13.578  16.154   3.617
30802W        W 3128  43.570   9.239  12.479
30803W        W 3129  18.621  22.751   1.264
30804W        W 3130  11.644  35.024   4.979
30805W        W 3131  39.305   2.087  11.519
30806W        W 3132  30.457  22.605   3.687
30807W        W 3133  22.634  30.942   4.183
30808W        W 3134  38.015  40.894  13.959
30809W        W 3135  18.490  32.090   0.199
30810W        W 3136   8.923  15.282  11.088
30811W        W 3137  15.583  11.533   3.592
30812W        W 3138   6.567  36.356   4.241
30813W        W 3139  14.582  31.142  11.643
30814W        W 3140  26.687  30.032   2.109
30815W        W 3141   8.117   4.452  14.371
30816W        W 3142   4.275  26.762   3.392
30817W        W 3143  11.596  17.822   0.881
30818W        W 3144  41.830  14.259  14.472
30819W        W 3145  18.840  31.254   1.954
30820W        W 3146   1.840   4.728  12.678
30821W        W 3147  12.789   0.310   0.410
30822W        W 3148  24.992  26.454   3.799
30823W        W 3149  42.726   2.507   0.342
30824W        W 3150  27.389   8.932   1.378
30825W        W 3151  19.586   6.255  12.083
30826W        W 3152  15.843  40.798  13.730
30827W        W 3153  33.339   6.937  13.698
30828W        W 3154  38.552  11.790  12.090
30829W        W 3155  15.508   9.186  13.594
30830W        W 3156  35.036  27.647   2.193
30831W        W 3157  43.177  42.755   5.054
30832W        W 3158  31.575  22.168   0.931
30833W        W 3159  20.777  27.472   1.408
30834W        W 3160   7.814  39.422   0.938
30835W        W 3161  41.555  17.126   0.326
30836W        W 3162  18.849  15.289  13.039
30837W        W 3163  26.129   0.669  11.653
30838W        W 3164   9.157  26.676   0.000
30839W        W 3165  31.724  12.485  12.523
30840W        W 3166   8.254  10.171  13.748
30841W        W 3167  35.432  41.560   1.076
30842W        W 3168  30.659   9.588  14.840
30843W        W 3169  15.515  15.616  10.172
30844W        W 3170   6.817  21.118  11.951
30845W        W 3171  32.472  37.451  11.586
30846W        W 3172   9.386  20.308  11.630
30847W        W 3173  24.192  23.531  14.863
30848W        W 3174  41.898  43.447   1.841
30849W        W 3175  31.350  18.785  13.394
30850W        W 3176  43.244  14.610   2.204
30851W        W 3177  32.625  23.756   1.309
30852W        W 3178  32.889  19.056  12.556
30853W        W 3179  36.940  20.632   2.305
30854W        W 3180  19.738  10.828  12.426
30855W        W 3181   3.256  23.068  10.596
30856W        W 3182  18.992  40.561  12.321
30857W        W 3183  19.104   0.702   0.946
30858W        W 3184  21.625  36.150   3.807
30859W        W 3185   9.571  27.791  10.225
30860W        W 3186  31.656   3.844   1.342
30861W        W 3187   9.863  12.721  13.034
30862W        W 3188  18.060  18.762   2.919
30863W        W 3189  17.580  28.105   0.174
30864W        W 3190  39.060  40.069  11.741
30865W        W 3191   6.854  32.151   1.350
30866W        W 3192  29.752  24.961   2.676
30867W        W 3193  35.934  35.693   1.910
30868W        W 3194  10.851  34.499  10.729
30869W        W 3195  16.066  27.123   4.685
30870W        W 3196  20.049  22.115  12.544
30871W        W 3197  12.225   0.330  12.964
30872W        W 3198   5.208   6.722   0.203
30873W        W 3199  23.465  33.974  11.564
30874W        W 3200  18.322  21.481   1.086
30875W        W 3201  27.222   7.067  13.752
30876W        W 3202  32.977  36.284   2.524
30877W        W 3203  27.088  15.841   2.827
30878W        W 3204  12.121  36.961  14.206
30879W        W 3205  25.944  27.075  14.499
30880W        W 3206   9.150  30.163   1.909
30881W        W 3207  13.777  20.635   3.162
30882W        W 3208  11.587  44.361  13.141
30883W        W 3209  39.456   7.258   2.375
30884W        W 3210   9.358   8.443   2.871
30885W        W 3211  19.402  26.736  12.051
30886W        W 3212  20.992  17.121   2.057
30887W        W 3213  16.839  29.097  14.484
30888W        W 3214  34.659   7.486  11.053
30889W        W 3215   6.621  32.505   2.184
30890W        W 3216  26.712  43.562  12.974
30891W        W 3217  11.259   9.200  10.575
30892W        W 3218  30.829  33.801  12.775
30893W        W 3219  22.519   2.186  13.388
30894W        W 3220  20.052  15.868  11.606
30895W        W 3221   1.021  43.076   4.301
30896W        W 3222  39.532  11.665  10.687
30897W        W 3223  39.047  16.835  14.741
30898W        W 3224  18.553  43.250   1.246
30899W        W 3225  26.591  30.382  14.759
30900W        W 3226   2.749  28.548   3.788
30901W        W 3227  21.522  16.273   3.156
30902W        W 3228   5.256  43.745  14.880
30903W        W 3229  10.174  23.044  12.429
30904W        W 3230   1.909  38.282  13.933
30905W        W 3231  35.586  29.525   0.341
30906W        W 3232  16.373  33.423   2.152
30907W        W 3233  33.092  31.435  14.835
30908W        W 3234  44.515  39.794   4.222
30909W        W 3235  24.973  27.467  13.557
30910W        W 3236  11.282  34.739   4.674
30911W        W 3237  14.826  25.009   3.750
30912W        W 3238  39.250  37.012  12.213
30913W        W 3239  12.827  43.910  10.696
30914W        W 3240  38.186  31.976  11.615
30915W        W 3241   3.303  30.368  14.520
30916W        W 3242  14.084  43.361   2.693
30917W        W 3243  38.090   5.812  14.321
30918W        W 3244  37.457  11.199  12.322
30919W        W 3245  22.256  28.671  13.453
30920W        W 3246  41.857  16.667  11.567
30921W        W 3247  30.192   6.686   3.307
30922W        W 3248  17.576  36.370  14.338
30923W        W 3249   1.153   3.373   5.398
30924W        W 3250  35.519  17.067   1.244
30925W        W 3251  30.323  16.250  11.119
30926W        W 3252  26.549  11.786   2.354
30927W        W 3253  32.027  12.833   3.479
30928W        W 3254   5.396  31.191  10.664
30929W        W 3255  43.573  33.044  11.225
30930W        W 3256  32.930  35.199   1.535
30931W        W 3257  34.935  32.888   1.280
30932W        W 3258   7.565  35.134  11.946
30933W        W 3259  42.818   6.042   4.226
30934W        W 3260  22.219  24.285   0.238
30935W        W 3261  19.191  28.695   4.662
30936W        W 3262   5.242  37.538   2.229
30937W        W 3263  24.193  33.934  12.789
30938W        W 3264  21.056  19.831   9.897
30939W        W 3265  22.133  24.950   2.604
30940W        W 3266   6.126  38.501  13.787
30941W        W 3267   0.450  32.062  10.733
30942W        W 3268   9.770  35.005  11.966
30943W        W 3269  10.874  12.603  10.747
30944W        W 3270   0.540  18.887  12.582
30945W        W 3271   2.412   3.633  12.457
30946W        W 3272   8.395  19.135   2.217
30947W        W 3273  37.234  44.727  11.984
30948W        W 3274  22.255  34.579   3.571
30949W        W 3275   9.315   5.938  12.468
30950W        W 3276  44.454  35.087   3.620
30951W        W 3277  30.376  10.236  12.482
30952W        W 3278  23.025   3.707  12.624
30953W        W 3279  42.418  24.303   3.599
30954W        W 3280  33.942  15.973  12.206
30955W        W 3281  22.240  33.032   1.869
30956W        W 3282   1.967  23.957  14.068
30957W        W 3283  19.578  42.731   0.313
30958W        W 3284   9.135  20.087  11.220
30959W        W 3285  22.603  23.069  10.830
30960W        W 3286  35.475  39.764  11.529
30961W        W 3287  30.418   1.181   1.814
30962W        W 3288  17.818  10.537  14.065
30963W        W 3289   7.748  24.628  11.188
30964W        W 3290   1.784  26.626  14.965
30965W        W 3291   3.525  21.945   5.157
30966W        W 3292  44.776  12.848   0.041
30967W        W 3293  17.200   5.024  14.227
30968W        W 3294  38.588  14.793  12.881
30969W        W 3295  34.299  40.367  11.186
30970W        W 3296  28.581  20.957  12.978
30971W        W 3297  44.862  38.202   1.662
30972W        W 3298   6.327  39.080  11.112
30973W        W 3299  31.603  25.010  10.449
30974W        W 3300  21.655  10.126   0.448
30975W        W 3301   6.055   5.560   0.994
30976W        W 3302  36.058   0.375  14.117
30977W        W 3303  20.078  11.460   4.236
30978W        W 3304  18.788  21.185   4.043
30979W        W 3305  31.170   6.712   3.664
30980W        W 3306  20.853  38.966   2.150
30981W        W 3307  25.554   3.957   2.661
30982W        W 3308  11.307   0.461   0.398
30983W        W 3309  31.300  20.558  11.166
30984W        W 3310  25.196  44.913  11.328
30985W        W 3311  38.731   1.298  14.509
30986W        W 3312  40.523  32.883   3.597
30987W        W 3313  25.729  23.250   1.469
30988W        W 3314  31.559   0.537  14.001
30989W        W 3315   4.012  11.335   1.797
30990W        W 3316  40.317  23.859  13.929
30991W        W 3317  34.077  39.942   0.229
30992W        W 3318  16.538  26.540  12.641
30993W        W 3319  30.142  10.125   0.418
30994W        W 3320   1.222  42.305   3.846
30995W        W 3321  17.128  12.326  14.024
30996W        W 3322   2.418  12.035  14.820
30997W        W 3323   4.938  22.579   4.613
30998W        W 3324   1.451  21.140   1.240
30999W        W 3325  18.526  40.801  12.139
31000W        W 3326  33.428  39.526   3.933
31001W        W 3327  18.132   3.715  14.993
31002W        W 3328   6.817  38.858   1.452
31003W        W 3329  26.462  29.536  11.899
31004W        W 3330  19.064  19.729   3.194
31005W        W 3331  19.481   2.785   3.751
31006W        W 3332  40.155   9.323   2.762
31007W        W 3333   2.196  11.917   2.717
31008W        W 3334  17.489  14.977  13.905
31009W        W 3335  22.073  34.514  11.103
31010W        W 3336  29.802  37.505  14.580
31011W        W 3337  27.960  11.930   2.217
31012W        W 3338  41.996  13.708  13.444
31013W        W 3339   5.887  36.942   1.714
31014W        W 3340   8.245  12.177   4.625
31015W        W 3341   6.491  15.246   2.907
31016W        W 3342  21.669  18.145   5.060
31017W        W 3343  19.634   5.979  11.194
31018W        W 3344   9.413  21.309  13.983
31019W        W 3345  30.680  34.849  10.818
31020W        W 3346  22.826  19.975  10.356
31021W        W 3347  21.718  40.468   0.416
31022W        W 3348  35.624  10.229  13.578
31023W        W 3349  22.377  29.589   0.855
31024W        W 3350  12.708  30.111   3.137
31025W        W 3351  22.339  14.701  11.876
31026W        W 3352  41.038  19.332   2.767
31027W        W 3353  34.410  41.534   1.657
31028W        W 3354  32.427  28.227   1.747
31029W        W 3355  32.116  20.039   3.413
31030W        W 3356  40.087  28.657  11.171
31031W        W 3357  40.782  17.286  12.910
31032W        W 3358  11.407   0.330  13.991
31033W        W 3359   0.502  36.792  11.489
31034W        W 3360  17.470  30.158   0.404
31035W        W 3361  43.312  40.556  12.920
31036W        W 3362  18.680  40.604  14.867
31037W        W 3363  42.230  31.445  12.164
31038W        W 3364  33.983  16.755   0.682
31039W        W 3365  16.112  26.591   5.085
31040W        W 3366  27.615  13.203  11.970
31041W        W 3367   6.712  14.838  13.985
31042W        W 3368  10.634  12.341   3.144
31043W        W 3369  41.489  24.805   2.078
31044W        W 3370  10.882  42.534   4.608
31045W        W 3371  30.606  21.460  14.306
31046W        W 3372  39.047  29.759  13.324
31047W        W 3373  41.705  10.677  14.574
31048W        W 3374  14.172   6.890  14.388
31049W        W 3375  40.333  29.900   2.065
31050W        W 3376  24.930  16.175   3.987
31051W        W 3377  44.558  12.269   4.753
31052W        W 3378  22.237  12.171  10.608
31053W        W 3379  40.641  28.065   3.613
31054W        W 3380  38.434   9.281  10.135
31055W        W 3381   6.765  18.885  13.615
31056W        W 3382  17.508  39.824   3.369
31057W        W 3383   8.277   6.305  11.440
31058W        W 3384   8.859  17.646  11.873
31059W        W 3385  34.987  23.811   3.482
31060W        W 3386   8.492  22.744   3.342
31061W        W 3387  19.069  41.412  12.087
31062W        W 3388  16.799  15.272  10.523
31063W        W 3389  18.635   4.666  12.143
31064W        W 3390  12.766  24.095  13.520
31065W        W 3391  12.433  29.159   1.782
31066W        W 3392  38.946  12.597   4.762
31067W        W 3393  14.104  40.082   1.980
31068W        W 3394  10.242  13.588  12.458
31069W        W 3395  14.728  16.650  10.653
31070W        W 3396  14.603  27.590   0.234
31071W        W 3397   7.366  19.325   1.578
31072W        W 3398   8.918   3.691   1.676
31073W        W 3399  39.736  38.472   0.379
31074W        W 3400  24.035  16.122  14.929
31075W        W 3401  44.388  11.767  14.358
31076W        W 3402   1.323  23.489  13.559
31077W        W 3403  21.116  38.656   0.365
31078W        W 3404   8.808  26.915   1.290
31079W        W 3405  27.885  39.466   1.739
31080W        W 3406   5.922  19.243   3.700
31081W        W 3407  15.215  18.716   4.629
31082W        W 3408   8.178  42.468   2.037
31083W        W 3409  38.877  16.706  12.696
31084W        W 3410  26.142  40.651   2.675
31085W        W 3411  23.183  28.457  13.738
31086W        W 3412   1.276  23.033   3.672
31087W        W 3413  27.078  15.417   4.761
31088W        W 3414  44.488  41.383   3.692
31089W        W 3415  13.654   4.209  13.734
31090W        W 3416  40.657  41.068  12.025
31091W        W 3417  25.092  21.552   0.926
31092W        W 3418  34.461   2.781  13.478
31093W        W 3419   7.767  41.309   2.304
31094W        W 3420  10.755  31.216   0.399
31095W        W 3421  39.160   8.707   1.270
31096W        W 3422  42.915   1.622   0.708
31097W        W 3423  33.941   1.357   4.510
31098W        W 3424  37.285  23.051   0.475
31099W        W 3425   0.367  36.916  13.819
31100W        W 3426  11.271   5.338  12.225
31101W        W 3427   0.637  32.858  12.014
31102W        W 3428  41.755  36.278   1.325
31103W        W 3429  22.577  29.536   4.691
31104W        W 3430  32.465  35.637  12.893
31105W        W 3431  33.085  37.623  14.467
31106W        W 3432  24.713  20.976  11.337
31107W        W 3433  41.840  33.734   1.249
31108W        W 3434   0.927  33.137   3.312
31109W        W 3435  10.359   7.669  14.776
31110W        W 3436  40.701  17.968   1.510
31111W        W 3437   4.232   7.358   0.675
31112W        W 3438  21.562  26.116   0.311
31113W        W 3439  31.633  29.865   0.470
31114W        W 3440  40.780   2.209   1.781
31115W        W 3441  32.414  34.554   2.576
31116W        W 3442  32.958  24.324  13.607
31117W        W 3443   6.374  34.797  10.176
31118W        W 3444   7.779  13.946   0.970
31119W        W 3445   3.365  11.104  11.083
31120W        W 3446  35.928  34.841   1.476
31121W        W 3447  34.950  35.780   2.807
31122W        W 3448  31.994  42.540   4.326
31123W        W 3449  24.877  32.184  11.117
31124W        W 3450  20.826  15.744   0.864
31125W        W 3451  23.027  23.110  13.403
31126W        W 3452  43.594  17.080   0.860
31127W        W 3453  37.407  34.163  12.667
31128W        W 3454  32.694  36.997  10.934
31129W        W 3455   9.422  33.985   1.430
31130W        W 3456  17.779  29.893  14.085
31131W        W 3457  44.582  27.734   0.873
31132W        W 3458  44.891   0.696  13.607
31133W        W 3459  35.102  34.640   0.415
31134W        W 3460   4.385  35.969   0.391
31135W        W 3461  13.330  32.540   2.545
31136W        W 3462  28.580  40.499  11.139
31137W        W 3463  32.881  44.033  13.361
31138W        W 3464  36.314  35.026   4.961
31139W        W 3465  33.845  39.548  14.943
31140W        W 3466  36.944  20.085   4.745
31141W        W 3467  19.922   4.407  14.731
31142W        W 3468  26.760  43.503   1.746
31143W        W 3469  29.047  11.781   0.226
31144W        W 3470  30.247  30.650   0.126
31145W        W 3471   7.415  13.686   4.743
31146W        W 3472   6.793  28.662   1.713
31147W        W 3473  28.404  39.129   3.606
31148W        W 3474  42.812  29.116  13.828
31149W        W 3475  15.115  35.264  13.008
31150W        W 3476   9.207  19.521  12.059
31151W        W 3477  25.957  17.622   2.007
31152W        W 3478  34.348  34.938   4.525
31153W        W 3479  10.631   0.040   4.061
31154W        W 3480  34.900  36.097  14.167
31155W        W 3481  35.926  40.091   4.450
31156W        W 3482  39.206   1.298   3.195
31157W        W 3483  26.070   6.925   1.211
31158W        W 3484  25.121  37.049   2.600
31159W        W 3485  19.798   3.099   1.935
31160W        W 3486  34.076  23.851  14.479
31161W        W 3487  29.438  42.975   1.116
31162W        W 3488  43.282  41.346  14.900
31163W        W 3489   6.435   5.133  11.681
31164W        W 3490  37.096  26.666   2.760
31165W        W 3491  38.310  13.367  12.871
31166W        W 3492  25.898  13.617  13.600
31167W        W 3493   2.754  35.395  13.969
31168W        W 3494  37.138  43.542  13.902
31169W        W 3495  29.787   4.344  12.431
31170W        W 3496  30.050  37.728   0.161
31171W        W 3497  44.948  43.380   1.342
31172W        W 3498   4.526  39.986  13.804
31173W        W 3499  30.049  35.268  12.015
31174W        W 3500   2.936  39.344  14.939
31175W        W 3501  27.977  35.417  12.029
31176W        W 3502  18.593  24.715  14.252
31177W        W 3503  41.009  37.776  14.412
31178W        W 3504  38.079  22.571   3.213
31179W        W 3505   5.359  12.592   0.252
31180W        W 3506  38.730  43.983   3.636
31181W        W 3507  17.204  13.803   0.503
31182W        W 3508   3.768   1.380   4.094
31183W        W 3509  27.986  36.645  14.528
31184W        W 3510  43.492  22.706  14.918
31185W        W 3511  23.933   6.494  11.366
31186W        W 3512   3.408  37.553  12.490
31187W        W 3513  13.879   8.182  14.823
31188W        W 3514  43.297  22.257  11.584
31189W        W 3515  22.709  21.584  14.270
31190W        W 3516  14.256  27.108   1.368
31191W        W 3517  20.276   2.975   2.058
31192W        W 3518   5.568   8.751  12.441
31193W        W 3519  23.667  25.766   0.969
31194W        W 3520  30.359  12.363   1.463
31195W        W 3521   0.327  37.464   1.315
31196W        W 3522   2.330  36.381  10.750
31197W        W 3523   4.488  44.595   0.957
31198W        W 3524  13.587  25.731   1.200
31199W        W 3525  43.490  19.303   3.299
31200W        W 3526  23.591  17.113  10.751
31201W        W 3527  40.444  17.344  12.472
31202W        W 3528  30.911  37.553  10.376
31203W        W 3529  37.433  11.394   3.415
31204W        W 3530  23.719   7.571   1.374
31205W        W 3531  19.300  13.624  10.659
31206W        W 3532  31.016  16.303  14.988
31207W        W 3533  40.620  29.536   0.326
31208W        W 3534   3.343  41.294   2.785
31209W        W 3535  37.810   3.873   2.293
31210W        W 3536  15.546   4.303  13.909
31211W        W 3537   4.495  14.099   1.523
31212W        W 3538  30.949  31.182  12.177
31213W        W 3539  37.781  19.251  11.944
31214W        W 3540   1.645  11.654   1.137
31215W        W 3541  32.939  22.798   0.939
31216W        W 3542  24.999  13.108   2.409
31217W        W 3543   8.926  24.596  12.345
31218W        W 3544   9.491  25.127   2.589
31219W        W 3545  25.192   2.927  11.125
31220W        W 3546  42.232  39.708   2.358
31221W        W 3547  13.858  41.453   0.829
31222W        W 3548  16.570  17.699  10.571
31223W        W 3549   2.942   9.238   1.551
31224W        W 3550  42.329   2.084  12.433
31225W        W 3551  43.034  34.025   3.698
31226W        W 3552   1.003  21.817   3.792
31227W        W 3553  17.703  25.571  12.060
31228W        W 3554  39.894   2.233   0.496
31229W        W 3555  22.528  21.539  11.634
31230W        W 3556  15.812  25.002   4.673
31231W        W 3557  21.400  35.791   0.860
31232W        W 3558   4.818  25.103   4.637
31233W        W 3559  34.498  23.076   3.821
31234W        W 3560  30.569  15.740  11.885
31235W        W 3561  18.540  29.145   2.701
31236W        W 3562   8.931   9.309  13.138
31237W        W 3563  42.418  21.060   0.673
31238W        W 3564  24.349  35.936   3.382
31239W        W 3565  32.266  29.829   4.139
31240W        W 3566  15.281  35.645   1.094
31241W        W 3567  40.956  17.962  14.555
31242W        W 3568  36.496  12.708  14.833
31243W        W 3569  20.045  10.172  10.675
31244W        W 3570  13.798  23.402   2.148
31245W        W 3571  35.501  34.586  11.623
31246W        W 3572  29.375  22.580   4.597
31247W        W 3573  33.089  34.385  13.296
31248W        W 3574  30.120   2.622   1.389
31249W        W 3575  33.567  29.631  14.850
31250W        W 3576  38.144  19.261  12.522
31251W        W 3577   4.177  31.693  13.148
31252W        W 3578   6.799  24.321  11.181
31253W        W 3579  22.564  13.691  10.603
31254W        W 3580  38.892  41.198   3.154
31255W        W 3581  19.885  44.213   1.888
31256W        W 3582  40.458  18.679  14.875
31257W        W 3583  37.046  43.217   1.277
31258W        W 3584  31.570  10.880   0.546
31259W        W 3585  25.061   6.863  11.600
31260W        W 3586  19.137  34.630   1.728
31261W        W 3587   9.384  19.142  12.964
31262W        W 3588  32.840  15.539   4.494
31263W        W 3589  15.476  42.975  11.926
31264W        W 3590  34.446  23.184   0.279
31265W        W 3591   8.139  40.594  13.917
31266W        W 3592  21.776   5.124   1.312
31267W        W 3593  16.117  16.278   2.144
31268W        W 3594  40.875  19.488   1.381
31269W        W 3595  32.035  26.504  14.702
31270W        W 3596   6.504  12.182  11.186
31271W        W 3597  16.352  19.204   0.955
31272W        W 3598  44.380  27.661  11.588
31273W        W 3599   0.166  19.848  14.850
31274W        W 3600  27.686  33.797   4.256
31275W        W 3601  32.070  32.032   3.008
31276W        W 3602   9.456  29.111   4.828
31277W        W 3603  31.126  10.138   0.360
31278W        W 3604  32.917  10.242   2.600
31279W        W 3605  29.392   0.764  12.951
31280W        W 3606  43.838  40.070  14.433
31281W        W 3607  32.089  27.737   3.710
31282W        W 3608  26.669  23.015   3.857
31283W        W 3609  10.350  21.761  13.753
31284W        W 3610   4.798  36.655  10.288
31285W        W 3611  44.969  26.660  11.941
31286W        W 3612  15.757   3.747   5.141
31287W        W 3613  30.400  36.824   1.710
31288W        W 3614  10.326  42.076  12.570
31289W        W 3615   0.555  35.158  11.948
31290W        W 3616  34.263   7.233   2.886
31291W        W 3617  14.799  40.739   0.061
31292W        W 3618  31.539  27.092  13.791
31293W        W 3619   0.289  31.391   0.112
31294W        W 3620   9.802  35.522  12.372
31295W        W 3621  12.299  41.046   2.635
31296W        W 3622   7.305  16.663   0.531
31297W        W 3623  41.200   0.567  13.892
31298W        W 3624  28.426  32.531  12.593
31299W        W 3625  29.754  36.372  13.949
31300W        W 3626  27.229  37.925  11.967
31301W        W 3627  11.630  39.012   1.633
31302W        W 3628  35.617  32.459   4.156
31303W        W 3629  42.650  28.932   3.791
31304W        W 3630  38.537  10.275  12.003
31305W        W 3631  13.384   4.788   1.323
31306W        W 3632  35.332  31.180   2.767
31307W        W 3633  15.027   3.968   0.686
31308W        W 3634  19.542  28.034   0.238
31309W        W 3635   7.654  39.952   3.237
31310W        W 3636   9.118   1.074  12.763
31311W        W 3637  28.699  37.822  13.279
31312W        W 3638  38.938  27.627   0.989
31313W        W 3639  36.923  40.619  11.121
31314W        W 3640  43.947  34.100   0.524
31315W        W 3641   2.167  41.558  13.100
31316W        W 3642   6.840   4.712  14.938
31317W        W 3643  26.836  23.493  10.758
31318W        W 3644  26.663  40.032  12.461
31319W        W 3645  13.332  16.937   3.521
31320W        W 3646  27.962   5.801   4.286
31321W        W 3647  41.997   6.091   2.320
31322W        W 3648  14.828  44.543  10.675
31323W        W 3649  35.495  36.551   1.782
31324W        W 3650   0.507  23.942   0.300
31325W        W 3651  44.522  27.210  12.482
31326W        W 3652  43.222  29.896  13.498
31327W        W 3653  44.267  39.345   4.369
31328W        W 3654   1.437   5.293   4.871
31329W        W 3655  16.764  25.922   1.212
31330W        W 3656  43.696  21.155   3.304
31331W        W 3657  27.092  25.251  12.041
31332W        W 3658  22.815  33.496  11.930
31333W        W 3659  33.665   2.827  10.668
31334W        W 3660  37.275   1.477   0.679
31335W        W 3661  29.552  12.892   2.234
31336W        W 3662  18.409   5.299  13.207
31337W        W 3663  28.536  41.110   4.336
31338W        W 3664  16.399   3.840  14.382
31339W        W 3665  40.756  36.495  11.586
31340W        W 3666  25.329   3.777  14.397
31341W        W 3667  40.237  11.291  12.566
31342W        W 3668  35.893  42.911  10.653
31343W        W 3669   2.243  25.679   2.778
31344W        W 3670  10.475  30.689  12.060
31345W        W 3671   1.011  33.134   0.975
31346W        W 3672  16.117  24.984  11.087
31347W        W 3673  25.204  37.832   4.636
31348W        W 3674  24.688  22.348   3.008
31349W        W 3675  36.609  37.531  13.818
31350W        W 3676  39.876  31.423  14.276
31351W        W 3677  39.474  17.320  12.785
31352W        W 3678  37.858   6.805  11.125
31353W        W 3679   9.875  39.858   2.303
31354W        W 3680  28.463  12.240   3.395
31355W        W 3681  17.590  38.126   4.251
31356W        W 3682   9.731  37.324  13.131
31357W        W 3683  34.029   4.019  14.258
31358W        W 3684  40.564   9.905  10.627
31359W        W 3685  10.810  28.520   1.404
31360W        W 3686  25.914  13.353  11.921
31361W        W 3687  22.660  31.960  10.164
31362W        W 3688  25.219  30.619  11.984
31363W        W 3689   8.280   5.194   1.595
31364W        W 3690  40.460  25.387   3.207
31365W        W 3691  17.807   4.443   0.892
31366W        W 3692  14.844  40.608   2.435
31367W        W 3693   8.703   6.897   0.791
31368W        W 3694   4.798  41.317   3.759
31369W        W 3695  42.844  13.189  11.875
31370W        W 3696  22.688   4.834   3.530
31371W        W 3697  35.125   6.259  12.451
31372W        W 3698  23.966  21.484   3.444
31373W        W 3699  35.393  36.314  13.020
31374W        W 3700  15.292   0.493  10.636
31375W        W 3701  19.714  25.242  14.575
31376W        W 3702  29.269  35.927  13.650
31377W        W 3703  12.851  16.299   2.864
31378W        W 3704  40.026   8.737   3.355
31379W        W 3705   5.310  12.399  14.766
31380W        W 3706  10.591  20.719  14.812
31381W        W 3707  32.020  40.111  13.325
31382W        W 3708  37.880  16.110  10.988
31383W        W 3709   4.170  15.817   4.503
31384W        W 3710  28.633  40.079   1.250
31385W        W 3711  38.997   4.430  11.649
31386W        W 3712  31.152  42.323   3.644
31387W        W 3713  39.004  22.266   3.881
31388W        W 3714  25.683  36.099  10.681
31389W        W 3715   3.277  10.526  10.236
31390W        W 3716   2.385  35.522  14.793
31391W        W 3717   7.950  25.704  11.835
31392W        W 3718  25.266  22.415  11.951
31393W        W 3719  32.945  22.381  13.405
31394W        W 3720  27.113  43.529   1.305
31395W        W 3721  31.951  18.840   4.102
31396W        W 3722  38.499   2.964   0.989
31397W        W 3723   7.859  21.951  10.718
31398W        W 3724  29.259  10.656  14.973
31399W        W 3725  41.909  20.746  14.077
31400W        W 3726  15.508  29.101   9.651
31401W        W 3727  11.271  44.000   1.348
31402W        W 3728  30.455   2.395   3.791
31403W        W 3729   0.243  38.370  11.662
31404W        W 3730  21.656  17.278  10.343
31405W        W 3731  13.693  33.304  12.351
31406W        W 3732  33.594  19.117   3.632
31407W        W 3733  35.032  43.476   3.783
31408W        W 3734  15.595  43.043   4.174
31409W        W 3735  29.271  33.092  10.390
31410W        W 3736  13.702  33.100   5.120
31411W        W 3737   3.432  22.221  14.774
31412W        W 3738  17.967  13.178  14.387
31413W        W 3739  10.123  12.693  13.512
31414W        W 3740  32.559   6.352   1.783
31415W        W 3741  23.989  12.284  11.907
31416W        W 3742  34.558  11.278  12.456
31417W        W 3743  17.124  19.580  10.604
31418W        W 3744  13.436  37.403  14.473
31419W        W 3745   9.446  31.942  14.884
31420W        W 3746   5.714  31.439  12.055
31421W        W 3747  24.530  43.487  13.506
31422W        W 3748  12.396  28.277  10.602
31423W        W 3749  31.387  26.019  12.704
31424W        W 3750   0.459   2.843  11.868
31425W        W 3751  44.463   2.191   0.810
31426W        W 3752   5.280  26.242  13.058
31427W        W 3753  18.817   1.555   3.285
31428W        W 3754   1.640  31.415  12.129
31429W        W 3755   4.651  37.043  13.438
31430W        W 3756   4.202  44.208   4.186
31431W        W 3757   1.283  37.447  11.646
31432W        W 3758   5.378   7.574   4.134
31433W        W 3759  39.938  24.157   1.821
31434W        W 3760  39.081  39.387   2.744
31435W        W 3761  32.367  29.986  11.543
31436W        W 3762  26.537  34.245  11.605
31437W        W 3763   3.273  33.538   0.175
31438W        W 3764  20.297   1.934   2.732
31439W        W 3765  28.547  26.449   1.322
31440W        W 3766   4.949   5.154   3.761
31441W        W 3767  26.260  33.683   1.647
31442W        W 3768  28.083  37.055  10.622
31443W        W 3769  10.291   6.835  12.770
31444W        W 3770  39.212  42.816  14.378
31445W        W 3771   4.870  37.976  14.655
31446W        W 3772   9.451  15.747  14.071
31447W        W 3773   7.875   5.387   4.656
31448W        W 3774  14.851  10.182  12.792
31449W        W 3775  14.713  13.758  14.989
31450W        W 3776  27.340  24.227   0.982
31451W        W 3777  40.566  17.455  10.625
31452W        W 3778   6.233  10.408  11.215
31453W        W 3779  44.905  11.564   0.375
31454W        W 3780  43.633   5.330   4.558
31455W        W 3781   8.802   3.770   0.709
31456W        W 3782  33.900  12.654   1.354
31457W        W 3783  32.981  28.971  10.495
31458W        W 3784  41.612  14.048   2.742
31459W        W 3785  21.154  16.090   2.830
31460W        W 3786  34.174  24.939   1.318
31461W        W 3787  12.916   5.200  13.083
31462W        W 3788  11.330  35.114   1.019
31463W        W 3789   3.772  11.893   0.334
31464W        W 3790  27.103  17.799  12.373
31465W        W 3791  13.672  15.515   1.657
31466W        W 3792   9.852   5.862   3.207
31467W        W 3793  22.941  10.864  10.724
31468W        W 3794   4.454  17.168  11.009
31469W        W 3795  33.160  16.155  11.417
31470W        W 3796   1.288  43.522   4.208
31471W        W 3797   7.740  34.622  12.796
31472W        W 3798   5.952  13.435   0.017
31473W        W 3799  16.140  34.377   0.935
31474W        W 3800  33.040  15.505  10.711
31475W        W 3801  43.478  31.998   3.761
31476W        W 3802  35.605  19.124   1.794
31477W        W 3803  29.828   3.840  11.573
31478W        W 3804  38.917  19.771   3.289
31479W        W 3805   5.929  32.131  11.121
31480W        W 3806  10.730  34.377  11.212
31481W        W 3807  24.496  39.575  12.891
31482W        W 3808  23.153  22.244  12.649
31483W        W 3809  17.172  37.919   4.002
31484W        W 3810  36.551  10.347   2.655
31485W        W 3811  25.698  35.994   3.738
31486W        W 3812  27.651  41.542  11.963
31487W        W 3813  15.780  19.174  11.959
31488W        W 3814  14.521  11.779   3.795
31489W        W 3815  34.603  37.250  13.310
31490W        W 3816  26.328  27.070   5.023
31491W        W 3817  35.523  33.446   2.606
31492W        W 3818  26.122  37.904   3.155
31493W        W 3819   7.375  31.991  14.812
31494W        W 3820  19.241  18.824  11.930
31495W        W 3821  37.571  21.604  14.422
31496W        W 3822  42.971  30.899   3.261
31497W        W 3823  16.713   3.436  12.978
31498W        W 3824  19.516   9.912  13.815
31499W        W 3825  39.552  33.553   1.274
31500W        W 3826   7.944  30.805  12.860
31501W        W 3827  10.624  33.405   3.775
31502W        W 3828   5.323   3.996  12.662
31503W        W 3829  37.931  25.457   1.174
31504W        W 3830   5.812  26.875  13.644
31505W        W 3831   1.561  30.570   1.502
31506W        W 3832  11.797  24.281  10.917
31507W        W 3833  12.747  22.274   1.386
31508W        W 3834  15.523  33.967   1.395
31509W        W 3835  38.554  16.030  13.542
31510W        W 3836  10.915  42.511   0.553
31511W        W 3837  29.408  20.072  11.668
31512W        W 3838  18.674  44.319   2.736
31513W        W 3839   1.595  39.374  11.914
31514W        W 3840  15.074  25.198  11.131
31515W        W 3841  14.383  25.582  10.212
31516W        W 3842  33.631  36.826   3.239
31517W        W 3843   7.450   1.909  11.653
31518W        W 3844   4.805  33.362  13.272
31519W        W 3845   4.972   6.034   1.310
31520W        W 3846  29.930  29.926  14.917
31521W        W 3847  18.082  41.538   3.819
31522W        W 3848  11.034  28.291   1.816
31523W        W 3849   2.415   5.409  13.538
31524W        W 3850  15.508  13.843  11.868
31525W        W 3851  14.644  37.078  14.786
31526W        W 3852   4.240   5.428   0.794
31527W        W 3853  26.781  14.190  10.707
31528W        W 3854  28.936  10.205   3.764
31529W        W 3855  37.910   2.756   1.815
31530W        W 3856  14.661  31.480  14.828
31531W        W 3857   9.695  32.912   3.990
31532W        W 3858  31.167   5.321  10.418
31533W        W 3859  13.195  32.772   5.856
31534W        W 3860   7.237  24.339  12.676
31535W        W 3861  32.013  18.084  13.830
31536W        W 3862  40.594  12.623  13.841
31537W        W 3863  13.596  24.255   1.281
31538W        W 3864  43.772  34.453   0.087
31539W        W 3865  24.277   2.450  14.769
31540W        W 3866  24.078  16.454   4.547
31541W        W 3867  13.702  13.787   0.061
31542W        W 3868  36.973  17.681   0.218
31543W        W 3869  21.566  39.830  10.603
31544W        W 3870   5.815   9.997  14.472
31545W        W 3871  11.203   3.697   3.667
31546W        W 3872  30.505  40.902   2.611
31547W        W 3873   4.685   8.379  13.955
31548W        W 3874   5.214  26.809  13.904
31549W        W 3875  11.091  20.206  12.906
31550W        W 3876  24.220   5.788  12.903
31551W        W 3877  32.580  34.944  12.350
31552W        W 3878  43.901  12.783   1.403
31553W        W 3879  31.564  44.314   3.243
31554W        W 3880  35.582  40.976   2.319
31555W        W 3881  20.434  23.930  14.703
31556W        W 3882  13.753  14.729   3.609
31557W        W 3883  13.175  40.168  13.235
31558W        W 3884  17.379  39.196  13.926
31559W        W 3885  15.725  29.821  10.770
31560W        W 3886  20.730  27.865   1.054
31561W        W 3887  35.363  41.518  10.904
31562W        W 3888  43.980   4.504  10.186
31563W        W 3889   6.916   8.783   3.173
31564W        W 3890  22.826  15.092  11.161
31565W        W 3891  10.724  22.841   2.890
31566W        W 3892  39.425  10.647  10.451
31567W        W 3893  24.963  33.886   3.646
31568W        W 3894  44.480  43.575  13.124
31569W        W 3895  34.033  26.702   0.233
31570W        W 3896  22.606  27.298   3.645
31571W        W 3897  16.587  30.662  10.961
31572W        W 3898  34.490  24.661  13.279
31573W        W 3899  20.293   0.357  14.319
31574W        W 3900  11.609  31.425   0.627
31575W        W 3901  29.215   1.428   3.440
31576W        W 3902  14.600  26.205  12.119
31577W        W 3903   9.645   4.383   0.255
31578W        W 3904  19.803   4.235  10.639
31579W        W 3905  13.863  22.180   2.254
31580W        W 3906   7.739  39.741  10.769
31581W        W 3907  10.885  22.665  13.533
31582W        W 3908   4.032  21.590  10.972
31583W        W 3909  24.230  27.906   5.062
31584W        W 3910  27.083  17.546  11.909
31585W        W 3911  38.554   4.664   0.318
31586W        W 3912  30.998   0.085   5.123
31587W        W 3913  21.923   8.262   4.593
31588W        W 3914  15.825   8.609   4.296
31589W        W 3915   4.347   6.688   1.306
31590W        W 3916   6.209   0.263   0.832
31591W        W 3917  31.324  44.498  14.837
31592W        W 3918  41.834  26.662   3.834
31593W        W 3919   9.066  37.967  11.653
31594W        W 3920  41.529  13.430  12.972
31595W        W 3921  21.940   0.837   1.377
31596W        W 3922  19.755   8.873  12.892
31597W        W 3923  20.196  33.488   2.880
31598W        W 3924  12.850  43.358  14.820
31599W        W 3925  44.966  26.855  14.649
31600W        W 3926   8.327  19.682  11.173
31601W        W 3927  27.079   5.152   2.205
31602W        W 3928   2.395  41.150  10.666
31603W        W 3929  17.691  11.963   0.768
31604W        W 3930   2.194  43.925   0.419
31605W        W 3931  44.964  21.498   1.230
31606W        W 3932   4.307   4.728   1.325
31607W        W 3933  28.738  44.937  11.036
31608W        W 3934  29.930  36.910  11.759
31609W        W 3935  38.444   2.755  15.000
31610W        W 3936  24.613  35.279   1.272
31611W        W 3937  21.060  32.444  12.962
31612W        W 3938  31.423  10.873  13.185
31613W        W 3939  24.151  24.498   4.379
31614W        W 3940  23.659  44.910   3.767
31615W        W 3941   7.718  30.200   3.267
31616W        W 3942  25.740  32.356  11.040
31617W        W 3943  24.104  40.740  12.127
31618W        W 3944   0.267  27.921   2.395
31619W        W 3945  38.840   3.910   0.698
31620W        W 3946   7.582   9.324   3.266
31621W        W 3947  37.108   3.674  13.026
31622W        W 3948   2.082  30.726   1.645
31623W        W 3949   4.772  19.100   1.475
31624W        W 3950  42.231  25.611  13.941
31625W        W 3951  20.539  16.618  14.030
31626W        W 3952   8.956  36.859  12.000
31627W        W 3953  37.553  12.403   1.733
31628W        W 3954  24.580  20.531   1.237
31629W        W 3955  11.531   0.702   1.713
31630W        W 3956  30.507   9.338   2.528
31631W        W 3957  36.700   8.204  14.877
31632W        W 3958  19.912  36.392   4.152
31633W        W 3959  24.626  17.280   0.947
31634W        W 3960   7.291  23.542   4.097
31635W        W 3961   1.222  13.107   0.307
31636W        W 3962  20.783  14.647   0.342
31637W        W 3963  29.180   4.208  14.246
31638W        W 3964  41.477  26.818  14.380
31639W        W 3965  44.541  41.091   3.272
31640W        W 3966  42.519  35.382  10.492
31641W        W 3967   7.250  11.797  13.137
31642W        W 3968  35.133   0.172  13.836
31643W        W 3969  37.805  33.462   0.470
31644W        W 3970  43.927  12.441   1.776
31645W        W 3971   8.552  22.235  13.421
31646W        W 3972  41.506   3.469  13.958
31647W        W 3973  37.402  35.879   0.247
31648W        W 3974  39.495  35.158  10.622
31649W        W 3975  31.465   6.906  13.509
31650W        W 3976  39.054  31.053  10.460
31651W        W 3977  17.327  36.351   2.668
31652W        W 3978  18.840  19.228   0.353
31653W        W 3979  34.011  28.701   4.782
31654W        W 3980  38.492  22.399   3.716
31655W        W 3981  14.692   1.690  13.493
31656W        W 3982  26.524  10.767   3.895
31657W        W 3983  43.221  44.364   0.382
31658W        W 3984  18.332  38.097  13.073
31659W        W 3985  19.757  40.317  10.707
31660W        W 3986  12.951   8.809  13.857
31661W        W 3987  35.832  27.433  12.961
31662W        W 3988   0.694  23.800  10.625
31663W        W 3989  11.125   6.043   1.373
31664W        W 3990  39.692   3.417   1.483
31665W        W 3991  26.939  19.326   2.415
31666W        W 3992  20.574  42.748  14.423
31667W        W 3993  29.114  19.314  14.334
31668W        W 3994   0.863  23.238   0.795
31669W        W 3995   1.179  16.646  12.502
31670W        W 3996  38.690  31.465  10.675
31671W        W 3997  41.005  34.817   2.714
31672W        W 3998  10.723  27.749  11.191
31673W        W 3999  20.542  12.024   0.283
31674W        W 4000   1.359  22.748  11.090
31675W        W 4001   8.287  26.531  14.453
31676W        W 4002  44.493  41.574  11.610
31677W        W 4003  22.558  18.062   4.433
31678W        W 4004  42.243   2.857   2.755
31679W        W 4005  40.798  26.503   3.077
31680W        W 4006  11.224  33.403   3.329
31681W        W 4007  14.323  20.287  13.332
31682W        W 4008   1.924  14.585  10.738
31683W        W 4009  20.258  31.312   4.895
31684W        W 4010  17.190  25.482   2.807
31685W        W 4011  22.768   8.745   1.147
31686W        W 4012   1.904  40.372   2.836
31687W        W 4013  17.692  21.515   2.392
31688W        W 4014  19.209  22.696  10.704
31689W        W 4015  27.771  19.041  14.849
31690W        W 4016   2.339   1.953   3.065
31691W        W 4017  13.101  43.256   4.956
31692W        W 4018  11.236   9.858  14.787
31693W        W 4019  28.214   4.237   4.161
31694W        W 4020  22.905  39.996  11.980
31695W        W 4021   3.898  12.602  14.119
31696W        W 4022  23.416   5.880  14.813
31697W        W 4023  31.290   8.993   0.087
31698W        W 4024  42.073   5.645  12.068
31699W        W 4025  18.167  43.272   2.217
31700W        W 4026  31.099  23.872   3.132
31701W        W 4027  34.970   6.329   4.235
31702W        W 4028  21.699  19.488  12.092
31703W        W 4029  35.117   5.810  12.045
31704W        W 4030  44.842  17.474  10.873
31705W        W 4031  27.671  42.773   4.118
31706W        W 4032  33.152  13.390   1.878
31707W        W 4033  44.128  24.508   4.020
31708W        W 4034  10.609  18.333   0.430
31709W        W 4035   2.923  15.759   4.174
31710W        W 4036  11.849  40.926   1.440
31711W        W 4037  20.334   5.337  13.017
31712W        W 4038  25.714  31.633   4.326
31713W        W 4039  18.080  36.408   2.298
31714W        W 4040  11.255   4.336  12.087
31715W        W 4041   6.656  31.065  13.047
31716W        W 4042  34.644   5.898  14.474
31717W        W 4043  22.030  31.868  12.948
31718W        W 4044  14.975  36.967   0.176
31719W        W 4045  27.753  31.142  14.489
31720W        W 4046  36.363  26.914   0.815
31721W        W 4047  18.658  41.006  10.654
31722W        W 4048  43.547  34.438  11.258
31723W        W 4049  31.320  15.559   3.615
31724W        W 4050  25.500  39.031   1.269
31725W        W 4051  19.132  24.116   4.643
31726W        W 4052  13.628  26.707  14.501
31727W        W 4053  18.193  29.360  12.634
31728W        W 4054  16.803  11.630   4.626
31729W        W 4055   8.657  10.322  11.089
31730W        W 4056  39.779  39.555   0.218
31731W        W 4057   5.748  18.493  12.192
31732W        W 4058   8.457  12.335  10.764
31733W        W 4059  19.117   8.738   2.786
31734W        W 4060   6.036  23.415   2.653
31735W        W 4061  21.055  20.121  14.271
31736W        W 4062  29.111   9.673  12.657
31737W        W 4063  13.309  12.999  13.361
31738W        W 4064  40.755  11.341  10.983
31739W        W 4065   6.718  31.698   1.975
31740W        W 4066   9.696   8.874   5.276
31741W        W 4067  19.579   3.406  14.360
31742W        W 4068  34.579  39.844   3.584
31743W        W 4069  27.517   7.637   4.319
31744W        W 4070   6.302  34.911   0.250
31745W        W 4071  38.274  31.641  12.071
31746W        W 4072  41.954  21.721  13.817
31747W        W 4073  35.290   4.649  13.350
31748W        W 4074   1.579   1.556   5.051
31749W        W 4075  17.247   0.077  11.587
31750W        W 4076  23.746   8.402   4.120
31751W        W 4077  39.160  20.100   0.252
31752W        W 4078  16.097   7.239   4.061
31753W        W 4079  18.540  16.689  12.010
31754W        W 4080   2.805  31.943   0.923
31755W        W 4081  15.633  33.588   4.877
31756W        W 4082  11.319  38.541  13.894
31757W        W 4083  19.105   1.381  13.865
31758W        W 4084   7.880  41.222   0.380
31759W        W 4085   8.963   7.976   2.395
31760W        W 4086  18.507  43.442   2.620
31761W        W 4087   5.224  39.192  12.992
31762W        W 4088  37.961  22.609   3.728
31763W        W 4089  44.051   5.702   2.803
31764W        W 4090   9.836  43.295   3.682
31765W        W 4091  42.350  33.355   4.538
31766W        W 4092  26.399   8.356  11.239
31767W        W 4093   6.123   2.773  14.584
31768W        W 4094  36.634  41.524  13.059
31769W        W 4095   1.498   5.731  14.113
31770W        W 4096  34.065  14.724  12.689
31771W        W 4097  43.802  10.271   3.356
31772W        W 4098  33.479   1.285  14.465
31773W        W 4099  15.141  35.347   4.746
31774W        W 4100  30.162  36.860   1.269
31775W        W 4101  21.941  43.951   1.214
31776W        W 4102  21.129  28.731  14.792
31777W        W 4103  43.603  20.693   1.648
31778W        W 4104  12.601  23.283  10.396
31779W        W 4105  36.344   4.298   2.322
31780W        W 4106  23.292  10.329   1.966
31781W        W 4107   9.353  14.328  11.657
31782W        W 4108  23.187  13.697  12.484
31783W        W 4109   7.626  12.915  11.137
31784W        W 4110   8.955  18.113   4.888
31785W        W 4111  17.929   2.937  14.374
31786W        W 4112  29.339  39.032   4.518
31787W        W 4113  28.888   4.572   2.579
31788W        W 4114  40.596   9.676  14.292
31789W        W 4115  13.151  37.978  12.559
31790W        W 4116  19.716  34.428   2.735
31791W        W 4117  27.243  28.618   3.328
31792W        W 4118  23.987  11.038  10.567
31793W        W 4119  23.498  35.072   4.370
31794W        W 4120  15.830  36.540  12.941
31795W        W 4121  19.965  30.872   2.596
31796W        W 4122   7.160  16.115   2.306
31797W        W 4123  18.699  33.398   1.700
31798W        W 4124  19.380  16.629   1.995
31799W        W 4125  32.444  20.250   1.271
31800W        W 4126   6.421  24.600  11.534
31801W        W 4127   6.903  42.038  13.491
31802W        W 4128  15.678  38.308  11.513
31803W        W 4129  15.581  43.930  12.383
31804W        W 4130  31.909  35.599   0.014
31805W        W 4131  44.314  42.545   3.655
31806W        W 4132  37.062  23.691  13.997
31807W        W 4133  24.309  41.582  10.707
31808W        W 4134  12.291  17.824  11.994
31809W        W 4135  24.706  30.094  10.509
31810W        W 4136  14.424  14.582  11.649
31811W        W 4137  18.471  31.597   4.626
31812W        W 4138  37.797  27.119  13.896
31813W        W 4139  13.079  37.731  11.417
31814W        W 4140  43.161   8.936  12.709
31815W        W 4141  26.501  37.432  14.954
31816W        W 4142   2.785  19.970   1.063
31817W        W 4143  31.969  42.740  10.320
31818W        W 4144  27.804  13.911   1.812
31819W        W 4145   0.340  10.926   4.608
31820W        W 4146  25.471  28.785   3.675
31821W        W 4147  21.629  26.731   1.755
31822W        W 4148   2.331  26.930   3.258
31823W        W 4149  23.478  35.980  12.604
31824W        W 4150   2.077   7.871   3.112
31825W        W 4151  27.076  13.275  13.898
31826W        W 4152  25.406  32.620  11.331
31827W        W 4153  28.717   9.958  12.474
31828W        W 4154  38.035  28.009   3.752
31829W        W 4155   5.764  10.108  12.391
31830W        W 4156  37.906  28.922  11.170
31831W        W 4157  14.554  34.022  13.004
31832W        W 4158  17.835  38.586   2.844
31833W        W 4159  10.751  26.792  10.002
31834W        W 4160   1.104  17.661  14.808
31835W        W 4161  36.358  17.887  11.476
31836W        W 4162  30.664  26.705   1.816
31837W        W 4163   4.266  16.576  10.377
31838W        W 4164   1.397  43.312   0.296
31839W        W 4165  12.575  28.595   2.839
31840W        W 4166   9.150  39.449  11.594
31841W        W 4167   6.713  34.122  11.633
31842W        W 4168   3.419  10.303  13.812
31843W        W 4169  41.238  11.574   0.427
31844W        W 4170  17.640   5.920  11.685
31845W        W 4171  16.752  34.461  11.540
31846W        W 4172  30.889   2.479   1.286
31847W        W 4173  14.367  13.810   1.259
31848W        W 4174  43.486   3.442  10.678
31849W        W 4175   8.748   8.405   2.221
31850W        W 4176  11.260  28.951   1.401
31851W        W 4177   8.085  30.040  12.584
31852W        W 4178  28.025  11.219   4.723
31853W        W 4179   2.708  42.334   3.640
31854W        W 4180   3.264   3.015  14.338
31855W        W 4181  21.037  42.267   0.233
31856W        W 4182  34.044  32.522   4.611
31857W        W 4183  19.572  29.961  10.724
31858W        W 4184   2.460  13.106   4.950
31859W        W 4185  25.564   9.928   4.438
31860W        W 4186  35.878   8.826  14.035
31861W        W 4187  24.606  44.112   3.683
31862W        W 4188  41.878  37.868   2.670
31863W        W 4189  41.959  38.136  10.756
31864W        W 4190  27.100  43.097   5.275
31865W        W 4191  22.975   9.635   1.842
31866W        W 4192  18.106  37.135   1.786
31867W        W 4193  21.708  37.996  11.973
31868W        W 4194  22.754   4.759  14.255
31869W        W 4195  28.551   8.207   1.085
31870W        W 4196  28.102   9.579   2.712
31871W        W 4197  30.677   3.047  11.665
31872W        W 4198  12.153  35.407   3.720
31873W        W 4199  35.567   8.080   4.527
31874W        W 4200  33.334  27.904   2.278
31875W        W 4201   1.030  13.150  11.135
31876W        W 4202  33.425  20.922  12.557
31877W        W 4203  43.400  44.013   1.927
31878W        W 4204   1.748  26.618   4.069
31879W        W 4205   5.161  17.635   1.832
31880W        W 4206  33.307  32.621   4.891
31881W        W 4207   9.625  34.810   4.006
31882W        W 4208  37.406  32.481  11.519
31883W        W 4209   9.421  13.242  12.383
31884W        W 4210   8.929  16.079  13.541
31885W        W 4211  21.983  25.313  10.963
31886W        W 4212  23.967  18.989   0.961
31887W        W 4213   3.212   5.119   2.544
31888W        W 4214  19.736  26.452  10.077
31889W        W 4215  38.053  41.054  12.858
31890W        W 4216  39.915  32.548  11.180
31891W        W 4217  34.229  32.284   4.134
31892W        W 4218  20.569  20.352   0.712
31893W        W 4219  14.140  44.511   0.278
31894W        W 4220  25.231  15.231   5.579
31895W        W 4221   8.166   2.484   4.925
31896W        W 4222  11.090  28.670   2.697
31897W        W 4223  30.128  40.988  12.069
31898W        W 4224  28.436   1.219  13.059
31899W        W 4225  17.937  11.223  14.759
31900W        W 4226   1.685  14.657   0.114
31901W        W 4227  34.975  32.715   4.666
31902W        W 4228  37.256  29.136   2.224
31903W        W 4229  22.550   2.425  14.284
31904W        W 4230  27.986  41.574   3.805
31905W        W 4231  37.057  42.379  14.519
31906W        W 4232  25.245   6.596  12.848
31907W        W 4233   0.913  35.085   3.729
31908W        W 4234  22.970  10.430   2.874
31909W        W 4235  39.391  19.602   2.218
31910W        W 4236  28.496   7.866   0.411
31911W        W 4237  23.307  11.635  11.143
31912W        W 4238  14.147  28.200   3.311
31913W        W 4239  38.955  43.348   4.394
31914W        W 4240  31.375  16.138  12.847
31915W        W 4241   1.348  17.243  14.520
31916W        W 4242  13.686  25.724   0.253
31917W        W 4243   9.299  25.228  14.158
31918W        W 4244  22.935  10.247   4.285
31919W        W 4245   7.678  25.105  10.729
31920W        W 4246  13.707  44.369   3.195
31921W        W 4247   4.444  14.542   2.270
31922W        W 4248  39.318  26.041  10.590
31923W        W 4249  30.545   4.483  12.970
31924W        W 4250  24.382   8.340  14.412
31925W        W 4251  37.966   0.189  11.028
31926W        W 4252  23.235  19.775   4.633
31927W        W 4253   8.262   2.983   4.836
31928W        W 4254   6.617  20.528  14.406
31929W        W 4255  33.559  10.572   4.203
31930W        W 4256   6.853  13.112   1.346
31931W        W 4257  38.797  40.367   0.870
31932W        W 4258  36.850  43.106  10.368
31933W        W 4259  22.132  32.408  11.492
31934W        W 4260  34.145  17.720  11.120
31935W        W 4261  25.627  10.520   2.898
31936W        W 4262   2.937  32.893  12.592
31937W        W 4263  20.350  34.579  12.901
31938W        W 4264   1.681  36.727  12.003
31939W        W 4265  33.297  12.098   2.781
31940W        W 4266  36.956  35.088   4.291
31941W        W 4267  16.848  26.053  13.968
31942W        W 4268  14.508  27.159   1.824
31943W        W 4269  21.804   7.614  12.035
31944W        W 4270   4.764   8.795   3.229
31945W        W 4271  15.213  39.037  10.971
31946W        W 4272  16.043  37.818  12.931
31947W        W 4273  39.318  26.606   4.202
31948W        W 4274  34.982  28.409  13.868
31949W        W 4275  23.145  42.425  10.710
31950W        W 4276  14.313  25.241   2.054
31951W        W 4277  42.335  24.651   0.410
31952W        W 4278  15.603  33.203  13.000
31953W        W 4279  24.546  27.648   1.250
31954W        W 4280  17.633  44.894   0.699
31955W        W 4281  31.704  10.895  14.992
31956W        W 4282  20.414  38.925  13.877
31957W        W 4283   5.348  42.945   3.814
31958W        W 4284  27.199  14.273   0.164
31959W        W 4285   8.609   5.712  11.636
31960W        W 4286  31.757  36.009  10.553
31961W        W 4287   3.378  16.408  13.830
31962W        W 4288  42.676  24.017  12.071
31963W        W 4289  10.364  41.828  13.987
31964W        W 4290   8.392  41.044   0.417
31965W        W 4291   9.786  32.909  12.757
31966W        W 4292  33.542  44.308  14.983
31967W        W 4293  13.242  16.097  13.819
31968W        W 4294   4.160  42.545   3.759
31969W        W 4295   4.300   9.073  14.179
31970W        W 4296   8.070  15.121  14.799
31971W        W 4297  27.341   0.789  11.253
31972W        W 4298  39.569  10.088  12.058
31973W        W 4299   9.298  31.402  14.971
31974W        W 4300  21.509  18.068  11.922
31975W        W 4301  25.944  13.685   1.004
31976W        W 4302  19.137  36.588  10.819
31977W        W 4303  20.020   7.420  14.440
31978W        W 4304   7.731  19.315   0.362
31979W        W 4305   6.132   9.363   1.887
31980W        W 4306  29.465  42.094   0.886
31981W        W 4307  25.589  16.554   0.712
31982W        W 4308  35.024  44.382  13.536
31983W        W 4309  15.969  25.304   1.745
31984W        W 4310  31.066  27.083  14.564
31985W        W 4311  25.802  25.713   1.378
31986W        W 4312   0.415  24.011  11.529
31987W        W 4313  16.764   0.497  14.338
31988W        W 4314   3.295  13.566  13.615
31989W        W 4315  33.600  16.553  14.927
31990W        W 4316  22.773  44.226  11.935
31991W        W 4317   4.818  25.699  12.601
31992W        W 4318  17.335  32.632  13.984
31993W        W 4319  18.461  40.157  13.802
31994W        W 4320   4.234   7.694  11.955
31995W        W 4321  27.948  36.351   0.898
31996W        W 4322  23.695  37.972   2.271
31997W        W 4323  37.998   8.794  13.453
31998W        W 4324  11.668  37.926  13.121
31999W        W 4325  21.156  17.835  14.236
32000W        W 4326  30.407  10.646   3.813
32001W        W 4327  40.594  30.870  11.567
32002W        W 4328   2.908  16.281   3.054
32003W        W 4329  22.761  10.665   4.571
32004W        W 4330  22.299   7.353  11.212
32005W        W 4331  18.046  33.412   2.281
32006W        W 4332  35.970  18.788  12.591
32007W        W 4333  14.199  22.550  14.815
32008W        W 4334  10.748   8.508   0.875
32009W        W 4335  38.868  16.346   4.624
32010W        W 4336  26.159  27.408   1.949
32011W        W 4337  10.338  39.182  11.987
32012W        W 4338   8.651  13.106   0.377
32013W        W 4339  36.074   2.734   4.075
32014W        W 4340   5.242  37.852  11.566
32015W        W 4341  32.315  15.653  14.424
32016W        W 4342   5.825   1.130  11.193
32017W        W 4343  14.702  42.890  12.908
32018W        W 4344  35.580  30.985   3.175
32019W        W 4345  25.335  24.099  14.361
32020W        W 4346  14.232   6.333   3.217
32021W        W 4347  36.807  37.495  14.322
32022W        W 4348  38.845  23.366   1.949
32023W        W 4349  27.416  20.774   4.288
32024W        W 4350   5.382  38.876   4.544
32025W        W 4351  32.405  44.279  13.353
32026W        W 4352  39.901  39.731   4.608
32027W        W 4353  44.837  23.574   1.703
32028W        W 4354  16.302  14.391  14.415
32029W        W 4355  33.893  37.678  13.769
32030W        W 4356  32.380  30.157  14.550
32031W        W 4357   5.253  11.163  10.466
32032W        W 4358  19.172  35.659   4.653
32033W        W 4359  24.972  43.489  10.673
32034W        W 4360  27.702  35.365   0.727
32035W        W 4361   0.222  14.351   4.553
32036W        W 4362   6.024  40.449  14.364
32037W        W 4363  25.137  15.669  13.528
32038W        W 4364  41.473  10.379  10.656
32039W        W 4365  22.570  23.236   1.891
32040W        W 4366  33.492  44.561   1.848
32041W        W 4367  37.066   3.469  13.875
32042W        W 4368  37.956  34.848   3.115
32043W        W 4369  12.703  25.875  14.743
32044W        W 4370  23.452   7.366  14.255
32045W        W 4371  32.258  31.290   1.912
32046W        W 4372   2.477  10.048   9.820
32047W        W 4373  18.149  20.098  10.764
32048W        W 4374  33.476  15.659   0.544
32049W        W 4375  24.717  40.982  11.493
32050W        W 4376  10.067   7.205  14.723
32051W        W 4377  22.311  16.225  13.758
32052W        W 4378   5.136   4.324   0.884
32053W        W 4379  24.122  12.690  12.334
32054W        W 4380  41.861  35.331  12.368
32055W        W 4381  31.466  18.653   2.129
32056W        W 4382  19.674  39.718  13.155
32057W        W 4383  30.656  15.336  14.994
32058W        W 4384  10.654  23.360   3.038
32059W        W 4385  32.435  32.351  12.558
32060W        W 4386  31.130  32.689   1.551
32061W        W 4387  19.023  35.105   2.548
32062W        W 4388  38.448  29.847  12.070
32063W        W 4389   1.825  11.422  14.965
32064W        W 4390   4.804  19.117   4.615
32065W        W 4391  29.833  34.104  12.499
32066W        W 4392  18.234  38.918   1.267
32067W        W 4393  38.848  10.246  13.329
32068W        W 4394  25.534  19.926   4.057
32069W        W 4395  22.089  14.900  13.898
32070W        W 4396  13.244  40.524  14.495
32071W        W 4397  32.438  13.341  13.605
32072W        W 4398  10.377  21.715   0.213
32073W        W 4399  35.425   6.765  13.316
32074W        W 4400  16.308   7.811  12.009
32075W        W 4401   9.123  23.737  12.965
32076W        W 4402  36.482  24.815   3.228
32077W        W 4403  27.496  35.474   3.647
32078W        W 4404  33.064  41.191   4.989
32079W        W 4405   0.741  27.696  12.443
32080W        W 4406   3.253   8.593   2.309
32081W        W 4407  28.698   7.322   3.239
32082W        W 4408  41.406  19.098  11.101
32083W        W 4409  25.403  11.612  13.862
32084W        W 4410  13.846   7.962   0.289
32085W        W 4411  12.575  34.229   1.780
32086W        W 4412  31.089  36.590  11.796
32087W        W 4413  10.383  43.406  12.045
32088W        W 4414  41.300  10.520  11.904
32089W        W 4415   1.790  12.602   2.343
32090W        W 4416  24.300  18.619   9.738
32091W        W 4417   6.237   7.743  14.246
32092W        W 4418  21.259  44.017  13.552
32093W        W 4419  34.132  28.485   0.880
32094W        W 4420  25.477   2.389   0.288
32095W        W 4421  17.034   9.746  12.197
32096W        W 4422  30.017  27.483   1.156
32097W        W 4423  21.541   4.113   1.224
32098W        W 4424  23.762  32.393  12.873
32099W        W 4425   2.403  15.103   0.469
32100W        W 4426  31.153  36.423   0.449
32101W        W 4427  16.477  20.551   0.146
32102W        W 4428  34.158  16.653  12.888
32103W        W 4429  24.048  36.139   1.274
32104W        W 4430  13.265  24.091   1.970
32105W        W 4431  16.176  34.478  14.230
32106W        W 4432  10.190  13.233   4.097
32107W        W 4433  28.203  41.864   2.336
32108W        W 4434  22.294  10.635  12.097
32109W        W 4435  21.156  18.473   2.650
32110W        W 4436   1.368  25.682   3.527
32111W        W 4437  34.114  35.680  10.771
32112W        W 4438  16.597  42.521  14.032
32113W        W 4439  14.267  27.931   0.030
32114W        W 4440  23.742  24.574   2.252
32115W        W 4441  22.229  17.184   2.767
32116W        W 4442  14.060  34.358  10.261
32117W        W 4443   7.473  19.738   3.312
32118W        W 4444   3.628  13.207  10.669
32119W        W 4445  14.207   5.950  14.577
32120W        W 4446  21.500   8.642  14.407
32121W        W 4447  28.726  20.656  14.224
32122W        W 4448  22.180  30.543  14.470
32123W        W 4449  19.406  39.905   1.827
32124W        W 4450  17.837  23.452   1.415
32125W        W 4451   0.993  27.039  11.138
32126W        W 4452  27.674  26.233   3.255
32127W        W 4453  10.276  41.895  12.094
32128W        W 4454  39.927  36.147   4.637
32129W        W 4455  20.122  30.945   4.552
32130W        W 4456   8.706   7.492  13.437
32131W        W 4457  41.973  31.736  12.522
32132W        W 4458   3.904   7.780  10.686
32133W        W 4459  36.355   5.372  11.544
32134W        W 4460  25.635  31.912   1.863
32135W        W 4461  40.820  33.026   2.171
32136W        W 4462  17.624  22.099  13.087
32137W        W 4463  19.467  39.929   0.024
32138W        W 4464  22.756  14.470   0.875
32139W        W 4465  17.305  17.430  13.855
32140W        W 4466  11.938  12.186   0.343
32141W        W 4467   1.423  38.021  14.549
32142W        W 4468  40.338  36.099  11.935
32143W        W 4469  43.958  30.404   4.153
32144W        W 4470  16.839  23.809  13.611
32145W        W 4471   7.426  32.483  12.491
32146W        W 4472  33.346   2.035   2.176
32147W        W 4473   3.870  15.826  14.358
32148W        W 4474  31.107  41.608   4.580
32149W        W 4475   0.956  32.212  10.946
32150W        W 4476  32.359  25.296  11.658
32151W        W 4477   6.443   9.092  14.018
32152W        W 4478  22.550  29.185  13.008
32153W        W 4479  21.494   9.941   1.771
32154W        W 4480  19.777   4.499   1.681
32155W        W 4481  12.200   0.122   2.530
32156W        W 4482  24.237  17.616   2.535
32157W        W 4483  33.893   6.408   4.098
32158W        W 4484  28.671  21.041   4.834
32159W        W 4485  28.934  27.978  13.560
32160W        W 4486  14.700  15.086   3.892
32161W        W 4487  33.444  11.586  13.892
32162W        W 4488   2.229  11.404   2.773
32163W        W 4489  21.480   5.415   3.155
32164W        W 4490  39.997  25.437  14.391
32165W        W 4491  25.786   0.297   0.477
32166W        W 4492  20.137  17.877   0.090
32167W        W 4493  15.878  15.328  13.850
32168W        W 4494   6.676  14.107   1.461
32169W        W 4495  28.996  10.121  12.884
32170W        W 4496  24.574  38.807  14.519
32171W        W 4497  40.091  39.773   1.042
32172W        W 4498  10.319   0.027  11.563
32173W        W 4499  44.932  14.623   2.285
32174W        W 4500  30.089  12.864  11.981
32175W        W 4501  33.113  25.708  14.825
32176W        W 4502   2.319  24.073   0.045
32177W        W 4503  16.173   3.319   0.828
32178W        W 4504  33.920   6.604  10.304
32179W        W 4505  43.901  36.458  14.764
32180W        W 4506  17.650  41.232   3.704
32181W        W 4507  20.185  34.763   0.181
32182W        W 4508  39.618  10.268   0.036
32183W        W 4509  34.875   3.744  12.424
32184W        W 4510  31.956   4.458  13.929
32185W        W 4511   4.869  44.932   1.880
32186W        W 4512  11.373  33.435  14.042
32187W        W 4513  25.553  25.439   0.464
32188W        W 4514  15.184   3.333   1.711
32189W        W 4515   7.800  16.716  14.299
32190W        W 4516   4.866  26.151  10.930
32191W        W 4517   9.360  41.928   2.612
32192W        W 4518  11.092  39.886   2.726
32193W        W 4519  32.690  16.442  11.574
32194W        W 4520  25.433  10.270   3.340
32195W        W 4521  43.287  24.760  12.406
32196W        W 4522  43.070  28.618   2.121
32197W        W 4523  19.278  15.134   3.693
32198W        W 4524   6.096  32.351  10.364
32199W        W 4525  37.927  21.944   2.516
32200W        W 4526  17.779  40.770  13.917
32201W        W 4527  27.546  19.273  10.688
32202W        W 4528  20.562  25.689  14.540
32203W        W 4529  38.025  33.034   0.206
32204W        W 4530  42.952  18.575   4.371
32205W        W 4531  26.115  34.349   2.654
32206W        W 4532  26.454  41.525   2.179
32207W        W 4533  20.128  13.517  14.725
32208W        W 4534  44.269   8.829   3.159
32209W        W 4535  12.186  30.678   0.371
32210W        W 4536  23.069  21.055  11.174
32211W        W 4537  23.004  10.809   4.132
32212W        W 4538   0.135  23.918   3.089
32213W        W 4539  15.592  23.313  13.902
32214W        W 4540  44.448  29.000  12.885
32215W        W 4541  29.402  20.561  14.983
32216W        W 4542  31.157   1.828  13.294
32217W        W 4543  19.504  41.455   0.395
32218W        W 4544  16.227   8.420   4.603
32219W        W 4545  26.113  40.447  11.164
32220W        W 4546  32.013  42.415   1.679
32221W        W 4547   5.313  22.291  12.163
32222W        W 4548   3.916  22.721  12.433
32223W        W 4549  40.856  44.486  10.764
32224W        W 4550  23.239  16.383  14.732
32225W        W 4551  28.731  37.370  12.437
32226W        W 4552  12.629   4.774  13.060
32227W        W 4553  29.565  17.031   4.978
32228W        W 4554   4.202  15.311  11.927
32229W        W 4555  11.687  36.382   0.824
32230W        W 4556  34.478  14.310   3.634
32231W        W 4557  35.431  18.086  12.428
32232W        W 4558  25.005   3.328  10.638
32233W        W 4559  10.362  32.058   2.865
32234W        W 4560  28.360   7.342   0.277
32235W        W 4561  38.918  18.250  10.631
32236W        W 4562  36.897  25.645  14.985
32237W        W 4563  28.405  29.472  14.645
32238W        W 4564  12.320  17.026  14.833
32239W        W 4565  14.164  19.327  10.444
32240W        W 4566  36.659   4.133  11.309
32241W        W 4567  10.271  40.485  14.404
32242W        W 4568  32.419  10.310   2.766
32243W        W 4569  32.927  17.240   3.220
32244W        W 4570   6.956  26.131   0.248
32245W        W 4571  17.524  19.124   4.598
32246W        W 4572  40.457   8.665   3.638
32247W        W 4573  11.133   5.126   4.223
32248W        W 4574  16.452  39.023  13.141
32249W        W 4575  36.405  43.910  10.731
32250W        W 4576  18.937  35.814  14.488
32251W        W 4577  15.153   0.676   4.113
32252W        W 4578  20.862  21.447   1.458
32253W        W 4579  35.583  44.871   0.797
32254W        W 4580  28.818  21.439   2.590
32255W        W 4581  17.190  18.746   4.377
32256W        W 4582   7.584  41.113  12.606
32257W        W 4583  23.232   2.523  14.950
32258W        W 4584  18.115  23.975  13.050
32259W        W 4585  28.837  22.577   3.721
32260W        W 4586  42.338  21.187   3.698
32261W        W 4587  44.582  31.508  10.642
32262W        W 4588  38.798   8.428   4.092
32263W        W 4589  24.612  41.780   1.650
32264W        W 4590  36.400   3.758   2.272
32265W        W 4591  37.490  30.984   4.144
32266W        W 4592  20.775  40.343  14.244
32267W        W 4593  22.186   1.520   1.832
32268W        W 4594  40.254   5.207  14.492
32269W        W 4595  15.788  17.890  13.260
32270W        W 4596   2.339  21.742   4.156
32271W        W 4597   6.678  21.620  12.482
32272W        W 4598  33.076  37.522   2.811
32273W        W 4599  16.071  44.467   0.426
32274W        W 4600  18.028  14.758  13.509
32275W        W 4601  19.091   9.120  10.681
32276W        W 4602   6.881  20.420   2.898
32277W        W 4603  11.746   1.268   2.358
32278W        W 4604  31.162  43.254  13.971
32279W        W 4605  10.139  15.052  12.471
32280W        W 4606  31.847  16.794  11.792
32281W        W 4607  11.293  14.285  14.254
32282W        W 4608  42.793   7.213   2.436
32283W        W 4609   8.464  11.346  13.009
32284W        W 4610  38.541  18.119   2.408
32285W        W 4611  42.554   6.479   4.898
32286W        W 4612  16.919  42.098  11.112
32287W        W 4613  33.102   0.940   0.525
32288W        W 4614  27.822   6.920  10.252
32289W        W 4615  23.422   4.463  12.051
32290W        W 4616   7.908  25.616  10.352
32291W        W 4617  37.075  44.377  11.371
32292W        W 4618  20.000  36.456  14.477
32293W        W 4619  28.855  27.002  14.799
32294W        W 4620  26.855   6.407   2.779
32295W        W 4621  15.566  42.236  11.556
32296W        W 4622  42.006  37.153   0.790
32297W        W 4623   6.420  37.104  11.664
32298W        W 4624  14.287  33.343  11.641
32299W        W 4625  31.911  39.535   1.204
32300W        W 4626   4.765   4.312   0.514
32301W        W 4627  38.045  13.628   3.713
32302W        W 4628  18.089  20.977  14.846
32303W        W 4629  30.975   4.742   1.273
32304W        W 4630  22.501   6.662  14.483
32305W        W 4631  14.226  10.154   1.780
32306W        W 4632  38.845  18.840   4.649
32307W        W 4633  19.721   7.279  11.741
32308W        W 4634   9.435  39.897  11.583
32309W        W 4635  16.546  43.968  12.018
32310W        W 4636  34.648  18.579  12.278
32311W        W 4637  38.196  17.841   0.670
32312W        W 4638  42.619  36.863  14.890
32313W        W 4639  18.207  40.037  11.859
32314W        W 4640  31.562  15.347  11.029
32315W        W 4641   4.875   4.961  11.998
32316W        W 4642   2.879  11.894   3.197
32317W        W 4643  17.038  37.017  11.830
32318W        W 4644   9.718  14.846  14.110
32319W        W 4645  31.990  25.308   0.380
32320W        W 4646  10.162   8.091  11.650
32321W        W 4647  11.995  26.958  12.782
32322W        W 4648  20.733  26.531  12.408
32323W        W 4649  18.737  41.918   1.636
32324W        W 4650  24.046   2.574   2.857
32325W        W 4651  12.831   1.530  12.472
32326W        W 4652  35.476  14.778  11.929
32327W        W 4653  17.346  23.110   0.743
32328W        W 4654  10.477  37.878   4.598
32329W        W 4655  13.141  29.007   4.115
32330W        W 4656  22.924  21.319   2.783
32331W        W 4657   7.089  18.184  14.383
32332W        W 4658  41.169  29.484   0.089
32333W        W 4659  39.105  25.240  13.478
32334W        W 4660   0.128   1.104   1.835
32335W        W 4661  37.352  27.608  11.942
32336W        W 4662  15.310  36.644   3.379
32337W        W 4663   2.336  29.508   4.014
32338W        W 4664  11.970  37.434  14.368
32339W        W 4665  24.182   1.521  10.672
32340W        W 4666  23.898  34.478  12.559
32341W        W 4667  18.198  37.908   4.515
32342W        W 4668  27.140  27.873   1.427
32343W        W 4669   8.412  22.336   0.897
32344W        W 4670  34.388   8.584  13.498
32345W        W 4671  31.865   9.383  10.958
32346W        W 4672  12.121  21.737  13.302
32347W        W 4673  26.090  24.101  10.942
32348W        W 4674  22.713  36.969  14.480
32349W        W 4675  20.680  28.477  12.951
32350W        W 4676  40.619  41.216   2.021
32351W        W 4677  28.100  41.362   4.768
32352W        W 4678  36.069  34.034   2.210
32353W        W 4679  33.543  18.838  11.544
32354W        W 4680  15.306  36.957   3.770
32355W        W 4681  25.675  23.760  13.567
32356W        W 4682  31.001  12.687   2.210
32357W        W 4683  40.895   4.082  11.061
32358W        W 4684   9.359  30.956   1.456
32359W        W 4685   5.348  34.028   2.110
32360W        W 4686  23.482  36.865   1.186
32361W        W 4687   8.761  24.148  11.617
32362W        W 4688  43.545  40.771   4.091
32363W        W 4689  35.915   7.091   0.426
32364W        W 4690  42.074  27.140   0.077
32365W        W 4691  33.690  27.303   3.117
32366W        W 4692  25.614  13.481  12.690
32367W        W 4693  35.384   2.903  12.332
32368W        W 4694  11.683  16.311  11.534
32369W        W 4695  22.790   4.808  12.363
32370W        W 4696  41.940  41.052   0.861
32371W        W 4697  17.752  26.876   4.657
32372W        W 4698  10.535  24.230   3.610
32373W        W 4699  30.184   0.901  12.844
32374W        W 4700  42.970  27.228  14.546
32375W        W 4701  11.758   4.365   5.012
32376W        W 4702  38.001  42.790  13.357
32377W        W 4703  39.334   4.305   4.643
32378W        W 4704  19.741  19.505  12.000
32379W        W 4705  14.697  43.257  11.136
32380W        W 4706  23.133  11.589  12.011
32381W        W 4707  10.815  27.450   0.527
32382W        W 4708  20.157   7.268  12.522
32383W        W 4709  27.047  13.750  10.695
32384W        W 4710   7.016  11.527  13.861
32385W        W 4711  43.947  35.658  13.739
32386W        W 4712  17.279  43.517   4.191
32387W        W 4713   6.843   8.090  12.487
32388W        W 4714  33.474  44.501   0.969
32389W        W 4715  18.545  12.120   3.215
32390W        W 4716   7.340  42.762  10.364
32391W        W 4717  20.703  13.306  14.854
32392W        W 4718   5.105  22.583  13.532
32393W        W 4719   2.995  13.616  14.981
32394W        W 4720  28.156   4.111   0.396
32395W        W 4721  14.635  40.328  10.882
32396W        W 4722  13.807  38.625   3.118
32397W        W 4723  42.066  17.641  11.904
32398W        W 4724  18.295  12.756   1.800
32399W        W 4725  24.198  10.364   2.691
32400W        W 4726  41.891  26.190   0.821
32401W        W 4727  16.745  39.062   0.290
32402W        W 4728  30.680  22.514   4.153
32403W        W 4729  16.830  11.213   1.845
32404W        W 4730  35.434   9.523  11.059
32405W        W 4731  39.925   5.617   1.746
32406W        W 4732  23.207  23.258   3.607
32407W        W 4733  41.894  28.517   4.360
32408W        W 4734   7.639   2.909  13.954
32409W        W 4735  39.303  33.354   4.351
32410W        W 4736   0.927  35.946  14.708
32411W        W 4737   9.401   6.332   0.791
32412W        W 4738  41.251   1.770  14.381
32413W        W 4739   1.479  43.430  13.858
32414W        W 4740   2.301  28.132   0.367
32415W        W 4741  29.871   1.187  10.769
32416W        W 4742  14.394  32.867   1.201
32417W        W 4743  34.011  39.821  10.655
32418W        W 4744  23.215  12.642   3.804
32419W        W 4745   2.970  17.467   5.101
32420W        W 4746  42.610  41.334   2.434
32421W        W 4747   5.331   1.858   4.967
32422W        W 4748  43.223  28.788   3.328
32423W        W 4749  26.134  36.881   3.777
32424W        W 4750  34.425  30.422   0.371
32425W        W 4751  39.488  41.755  13.569
32426W        W 4752  30.554  28.015   2.164
32427W        W 4753  35.362  39.611   0.056
32428W        W 4754   2.841  33.620  11.972
32429W        W 4755  33.884  16.896   3.152
32430W        W 4756   0.109  11.146  14.496
32431W        W 4757  20.047  12.058   0.057
32432W        W 4758  20.930   2.299  13.557
32433W        W 4759  32.494  37.454   0.746
32434W        W 4760  32.739  42.242  12.493
32435W        W 4761   4.266  12.644  14.938
32436W        W 4762  40.272  10.875  14.282
32437W        W 4763  12.608   6.384   3.249
32438W        W 4764  40.468  15.637  10.374
32439W        W 4765   4.731  33.483  11.017
32440W        W 4766  16.608  33.521  10.722
32441W        W 4767   4.605  35.821   2.150
32442W        W 4768  20.571   7.412  10.729
32443W        W 4769  30.073  11.305  10.648
32444W        W 4770  23.141  29.936  12.567
32445W        W 4771  21.478  16.133   4.513
32446W        W 4772  41.502   3.210   4.325
32447W        W 4773  17.279  37.762   4.481
32448W        W 4774  19.742  28.594   4.868
32449W        W 4775  15.094  35.853  10.742
32450W        W 4776  21.117  34.478   0.388
32451W        W 4777  44.577  25.672   2.203
32452W        W 4778  11.690   7.933   1.688
32453W        W 4779   9.852  32.067   2.923
32454W        W 4780   2.548   1.332  10.729
32455W        W 4781  39.120  31.482   2.170
32456W        W 4782  11.586  40.001   1.525
32457W        W 4783  20.316  10.658   3.160
32458W        W 4784  30.278  16.981  13.895
32459W        W 4785   8.202  12.560   1.984
32460W        W 4786   2.280   3.602  13.710
32461W        W 4787  29.059  33.433   3.030
32462W        W 4788  23.749  33.087   4.157
32463W        W 4789  44.482  26.131   0.264
32464W        W 4790  21.453  31.500  12.464
32465W        W 4791  30.226   1.418  12.897
32466W        W 4792   5.712   6.921   2.236
32467W        W 4793  39.498   5.780   4.351
32468W        W 4794  35.985  41.057   1.338
32469W        W 4795  22.197  40.485  14.036
32470W        W 4796  22.566  19.093  12.589
32471W        W 4797   5.235   3.444   4.080
32472W        W 4798  30.075  26.755   4.418
32473W        W 4799  41.808  12.194  12.017
32474W        W 4800  10.326   4.867   2.341
32475W        W 4801  32.374  26.934  12.656
32476W        W 4802  32.527  40.402   0.834
32477W        W 4803  30.676  30.022   1.732
32478W        W 4804  30.345  25.987  10.827
32479W        W 4805  27.688  16.328  14.921
32480W        W 4806  40.758   4.690  13.540
32481W        W 4807  18.319  33.469  12.504
32482W        W 4808  38.014  32.451   2.882
32483W        W 4809  40.461   8.562   4.149
32484W        W 4810  15.929  20.288  14.477
32485W        W 4811  41.767  30.184  12.617
32486W        W 4812  43.253  26.814  13.400
32487W        W 4813   4.977  39.707   4.463
32488W        W 4814  32.959  33.017  10.322
32489W        W 4815   4.522  13.550  14.808
32490W        W 4816   7.605  33.612  13.511
32491W        W 4817  39.022  19.342   0.038
32492W        W 4818  23.644  22.981  11.106
32493W        W 4819  37.101  13.110   1.325
32494W        W 4820  19.098  18.642   4.581
32495W        W 4821  24.131  32.570   1.865
32496W        W 4822  26.484  35.382  13.065
32497W        W 4823  44.845  12.590   0.491
32498W        W 4824  36.333  38.474  12.157
32499W        W 4825  22.029  12.316   0.530
32500W        W 4826  43.925  11.172   3.127
32501W        W 4827  30.378  26.539  11.012
32502W        W 4828   9.352  28.846   3.741
32503W        W 4829   3.691  30.799  10.168
32504W        W 4830   5.832  10.874   1.608
32505W        W 4831  12.338  17.301  12.030
32506W        W 4832  32.874  31.113   0.452
32507W        W 4833  11.643  26.154   4.601
32508W        W 4834  36.965  25.087   4.671
32509W        W 4835   0.017  34.417   1.371
32510W        W 4836  28.590  12.374   0.640
32511W        W 4837   2.870  28.653  14.758
32512W        W 4838   9.180  44.838   3.192
32513W        W 4839   0.451  10.344  14.838
32514W        W 4840  37.703  39.884   2.397
32515W        W 4841  29.079  15.238   4.564
32516W        W 4842   4.280  26.046   4.162
32517W        W 4843  44.849   5.573  12.218
32518W        W 4844   2.034  12.799   0.780
32519W        W 4845  29.082  27.678   5.173
32520W        W 4846   4.897  34.428  14.805
32521W        W 4847  43.964  19.412  13.786
32522W        W 4848  23.967   0.757  13.017
32523W        W 4849  21.929  23.261  11.586
32524W        W 4850  25.691  19.707  14.510
32525W        W 4851   8.214   0.419   3.857
32526W        W 4852  18.046  13.312   0.729
32527W        W 4853  12.858   1.845  12.050
32528W        W 4854  40.368  43.971  14.800
32529W        W 4855   8.237  11.755  12.181
32530W        W 4856   2.024  16.861   3.769
32531W        W 4857  19.071   2.346  12.922
32532W        W 4858  41.017  33.416   2.918
32533W        W 4859   0.914  14.324   0.400
32534W        W 4860   7.291  44.809  13.068
32535W        W 4861  10.049  33.737   0.105
32536W        W 4862  38.988  36.154   0.855
32537W        W 4863  34.848  12.586   4.557
32538W        W 4864  42.786   1.363  12.129
32539W        W 4865   1.872  37.626  11.961
32540W        W 4866  42.832  22.914  11.184
32541W        W 4867  36.531   3.644  11.404
32542W        W 4868  26.695  37.045  11.581
32543W        W 4869  36.657   7.427   4.206
32544W        W 4870   9.136  23.316  13.973
32545W        W 4871  35.552   5.979   1.827
32546W        W 4872  13.705  12.066  12.428
32547W        W 4873  15.332  34.192  11.885
32548W        W 4874  33.054  42.292   0.748
32549W        W 4875  31.247  19.799  11.566
32550W        W 4876  39.955  39.741  13.373
32551W        W 4877   0.823  30.029  10.667
32552W        W 4878   3.409  37.369  14.461
32553W        W 4879  11.209   8.656  14.521
32554W        W 4880  21.131  34.507   3.610
32555W        W 4881  23.973  42.837  12.801
32556W        W 4882   3.836  21.256   5.052
32557W        W 4883   0.772  14.260   4.502
32558W        W 4884  30.314  43.925  11.344
32559W        W 4885  38.335  12.125  12.638
32560W        W 4886  44.041  17.311   4.358
32561W        W 4887  30.961   6.025   0.662
32562W        W 4888   3.956  28.902   0.791
32563W        W 4889  24.251  38.427  14.860
32564W        W 4890   6.892  43.982   1.465
32565W        W 4891   0.787  38.991  11.139
32566W        W 4892  12.082  22.394  11.502
32567W        W 4893  41.017   6.753  13.827
32568W        W 4894   9.944  24.292   2.280
32569W        W 4895  44.240  31.905  10.716
32570W        W 4896   2.483   3.893   2.120
32571W        W 4897  16.858  30.397  14.047
32572W        W 4898  28.900   8.758   3.251
32573W        W 4899  36.010  39.171  13.129
32574W        W 4900  23.485   1.696   0.227
32575W        W 4901  34.637  10.994  11.996
32576W        W 4902   3.724  22.430   4.225
32577W        W 4903  32.335  25.705   0.328
32578W        W 4904  33.656  14.749  14.257
32579W        W 4905  10.899  26.922   0.616
32580W        W 4906  25.071  12.762   3.619
32581W        W 4907  27.757  32.021   1.864
32582W        W 4908  18.276  43.349  13.483
32583W        W 4909  28.117  42.559   2.983
32584W        W 4910  37.114   3.155   4.120
32585W        W 4911  18.150  25.951   3.461
32586W        W 4912  40.776  26.874   1.690
32587W        W 4913  44.776  17.390  11.398
32588W        W 4914  11.318   3.987   1.824
32589W        W 4915  33.893  25.621  14.446
32590W        W 4916  11.319  24.624   0.464
32591W        W 4917   7.627  13.330   0.426
32592W        W 4918   9.795  37.984   1.283
32593W        W 4919   7.865   6.538  11.113
32594W        W 4920  42.416  30.421   3.691
32595W        W 4921  18.334   9.922  11.987
32596W        W 4922  32.507  38.678   4.570
32597W        W 4923  39.248  29.361  13.914
32598W        W 4924  18.352  28.980   4.236
32599W        W 4925  43.400  25.854  11.016
32600W        W 4926   1.976   7.042  13.105
32601W        W 4927  35.531  17.991  14.342
32602W        W 4928   0.339   7.588  13.765
32603W        W 4929   0.431  13.280   3.323
32604W        W 4930  39.652  36.452   2.179
32605W        W 4931  19.735   8.773  14.553
32606W        W 4932  10.805  35.856  11.999
32607W        W 4933  23.018   3.238   3.099
32608W        W 4934  41.819  33.766  11.160
32609W        W 4935   4.443  44.915   2.842
32610W        W 4936  19.129  22.817  11.458
32611W        W 4937  41.903  28.900   3.063
32612W        W 4938   0.977  17.056   2.797
32613W        W 4939  33.546  20.715  11.355
32614W        W 4940  28.138  28.979  13.446
32615W        W 4941  25.521  17.546   1.730
32616W        W 4942  12.272  42.818  11.720
32617W        W 4943  42.786  42.448  13.023
32618W        W 4944   6.827  20.084   4.371
32619W        W 4945  33.046  11.110  11.106
32620W        W 4946  37.697  21.785   1.740
32621W        W 4947  41.279  36.605   2.630
32622W        W 4948  15.812  27.952  13.502
32623W        W 4949  20.601  41.800   3.685
32624W        W 4950  24.453  24.695  10.812
32625W        W 4951  20.527  19.337   2.234
32626W        W 4952   6.666  26.028   0.696
32627W        W 4953  18.177  15.299   1.075
32628W        W 4954  34.878  37.348  12.502
32629W        W 4955  26.226  16.249   2.404
32630W        W 4956   3.193  44.916  14.290
32631W        W 4957  39.280  38.240   0.466
32632W        W 4958  15.820  11.721  14.944
32633W        W 4959  43.429   2.927   3.420
32634W        W 4960  35.130  20.603   1.753
32635W        W 4961  41.726   2.044  12.601
32636W        W 4962  26.962   5.803   3.783
32637W        W 4963   7.468  39.939   4.240
32638W        W 4964  34.503  35.582  11.565
32639W        W 4965   7.412  24.761   2.658
32640W        W 4966  34.854  18.718  10.679
32641W        W 4967  20.543  10.002  14.044
32642W        W 4968  17.300   7.269   2.498
32643W        W 4969  19.603  39.454  11.140
32644W        W 4970   7.940  39.696  14.838
32645W        W 4971  34.082  13.385   1.875
32646W        W 4972  20.708  18.679  10.680
32647W        W 4973  27.620  43.436  12.088
32648W        W 4974  25.021   2.927  12.054
32649W        W 4975  28.204  32.112   4.228
32650W        W 4976   3.677  25.037  12.987
32651W        W 4977   5.361  10.620  12.976
32652W        W 4978   0.362  11.179   2.833
32653W        W 4979   3.607   2.018  14.149
32654W        W 4980  25.695  38.351   2.117
32655W        W 4981   3.017  18.293   0.218
32656W        W 4982  35.919  16.038   2.828
32657W        W 4983   9.526  19.364  11.655
32658W        W 4984  39.405  39.158   4.246
32659W        W 4985  27.215  16.413   3.406
32660W        W 4986  26.743  30.018  12.570
32661W        W 4987  10.206   6.701  14.401
32662W        W 4988  25.056  33.201  14.321
32663W        W 4989  22.228  19.752  10.893
32664W        W 4990  27.969  15.527  11.870
32665W        W 4991  28.976  28.967  13.551
32666W        W 4992  22.980   0.327   0.846
32667W        W 4993  20.522  21.148   2.349
32668W        W 4994   2.946  12.168   1.420
32669W        W 4995  26.868  26.036   5.006
32670W        W 4996  43.829   7.425   4.515
32671W        W 4997   2.501   6.863  10.554
32672W        W 4998  30.250  39.830   1.489
32673W        W 4999  16.097   7.681   4.291
32674W        W 5000  12.755  19.127   3.841
32675W        W 5001   1.293  30.689   2.362
32676W        W 5002  36.324  44.944  11.358
32677W        W 5003  40.493  32.993  14.851
32678W        W 5004  28.093  34.251   0.240
32679W        W 5005  43.751  35.216   3.069
32680W        W 5006  36.981  25.993   3.661
32681W        W 5007  37.144   5.311   0.741
32682W        W 5008  16.700  44.721  12.516
32683W        W 5009  28.624  16.558  10.583
32684W        W 5010   3.433  17.332   2.093
32685W        W 5011  32.846  32.587  12.313
32686W        W 5012  25.937  35.902   2.807
32687W        W 5013  11.078  36.377   3.821
32688W        W 5014  43.199   8.863   0.783
32689W        W 5015  38.546  11.857   3.266
32690W        W 5016  23.274   0.155  14.882
32691W        W 5017  12.690  34.580   2.165
32692W        W 5018  26.622   2.898  11.657
32693W        W 5019   5.984  26.264   5.084
32694W        W 5020  42.299  16.163  12.060
32695W        W 5021   9.760  16.184  13.998
32696W        W 5022  44.716  20.539   2.847
32697W        W 5023  42.695  19.241   0.366
32698W        W 5024   6.675  34.141   2.362
32699W        W 5025  25.683   3.316  11.675
32700W        W 5026  15.367  33.946  10.613
32701W        W 5027   8.468  21.277   0.931
32702W        W 5028   0.699  21.668  10.830
32703W        W 5029  23.133  39.967   9.999
32704W        W 5030  19.662   4.117  13.598
32705W        W 5031  22.167  15.323   2.723
32706W        W 5032  44.788   6.712   0.375
32707W        W 5033  22.102  13.198   4.727
32708W        W 5034  23.616  23.394   2.920
32709W        W 5035  33.355  18.045  13.136
32710W        W 5036  44.754  23.705   4.337
32711W        W 5037  24.684  39.903   1.883
32712W        W 5038   3.006  34.156  12.901
32713W        W 5039  12.147  14.050   1.750
32714W        W 5040  26.876   9.683  12.473
32715W        W 5041   5.407  40.515   1.353
32716W        W 5042  32.524   0.265   0.386
32717W        W 5043  36.614  16.162   4.062
32718W        W 5044  44.990  28.434   2.156
32719W        W 5045  12.851   7.888  13.131
32720W        W 5046   6.147  15.841   4.584
32721W        W 5047   9.576  33.848  11.516
32722W        W 5048  40.801  14.367   4.453
32723W        W 5049   3.141  17.537  14.789
32724W        W 5050  37.049  19.893   3.398
32725W        W 5051  32.814   8.751  11.553
32726W        W 5052   2.622  24.510   5.530
32727W        W 5053   6.470  10.680   4.540
32728W        W 5054   5.333   2.359   4.137
32729W        W 5055  13.601   0.780  13.094
32730W        W 5056   3.372   5.746   3.283
32731W        W 5057  34.384  37.811  13.905
32732W        W 5058  21.250  39.918   1.912
32733W        W 5059  29.042   4.957  14.822
32734W        W 5060  26.888  38.596  12.693
32735W        W 5061  14.814   3.939   1.152
32736W        W 5062  24.970  35.605   0.589
32737W        W 5063  31.416  27.237  13.156
32738W        W 5064  18.269  18.836  11.957
32739W        W 5065   1.819  16.266  11.393
32740W        W 5066  22.968  28.013   1.882
32741W        W 5067   4.889  31.136  14.106
32742W        W 5068   8.661  23.836  14.701
32743W        W 5069  41.354  24.718   4.673
32744W        W 5070  22.013  33.473   2.686
32745W        W 5071  19.177  16.894  14.665
32746W        W 5072  29.210  17.682   1.405
32747W        W 5073  12.950  11.148  14.316
32748W        W 5074  16.261  31.491  14.312
32749W        W 5075  44.269   6.942  13.796
32750W        W 5076   2.192   5.766   4.565
32751W        W 5077  42.469  29.686  11.431
32752W        W 5078  13.480  24.112   4.852
32753W        W 5079  40.876  23.038  12.163
32754W        W 5080   1.004  33.358   0.478
32755W        W 5081  28.757   5.948   1.003
32756W        W 5082  21.700  39.387  13.554
32757W        W 5083  33.018  36.628  11.666
32758W        W 5084  44.310  31.195  12.476
32759W        W 5085  29.297   1.452  12.004
32760W        W 5086  38.054   9.798   5.478
32761W        W 5087   3.697  11.382   4.634
32762W        W 5088  40.431  34.732   3.798
32763W        W 5089  16.634  34.363  10.471
32764W        W 5090  10.272  24.918  12.352
32765W        W 5091  35.480   0.258  11.682
32766W        W 5092  39.913  25.217  10.677
32767W        W 5093  29.006  24.617   1.753
32768W        W 5094  27.588  24.167   4.398
32769W        W 5095   8.683  31.200  14.487
32770W        W 5096  33.875  38.113   0.258
32771W        W 5097   2.261   8.121  14.571
32772W        W 5098  44.381   3.479  13.849
32773W        W 5099   2.525  18.659  11.152
32774W        W 5100  31.906  22.277  11.925
32775W        W 5101   8.252  38.963   3.089
32776W        W 5102  29.991  13.837   4.479
32777W        W 5103  12.828  27.716   0.238
32778W        W 5104  10.319   4.872  13.590
32779W        W 5105   4.027  44.365  12.853
32780W        W 5106   3.210  14.191  12.097
32781W        W 5107  14.282  19.694  14.144
32782W        W 5108  30.057  42.399   0.071
32783W        W 5109  14.369  23.942   0.378
32784W        W 5110  24.250  34.241   2.671
32785W        W 5111  43.369  39.848  10.292
32786W        W 5112   4.516  24.009   0.179
32787W        W 5113  43.161  44.143   1.122
32788W        W 5114  31.960  36.326  13.369
32789W        W 5115  14.901  11.776  11.022
32790W        W 5116   5.108  26.087   0.765
32791W        W 5117  21.395  38.832  12.000
32792W        W 5118  33.440   7.141  12.353
32793W        W 5119  14.272  42.808   0.877
32794W        W 5120   6.703  30.428   2.819
32795W        W 5121  42.413  35.437   0.899
32796W        W 5122   6.176  38.904   0.827
32797W        W 5123  39.994  21.027  11.444
32798W        W 5124   3.713  19.592   2.826
32799W        W 5125   7.770  17.420   3.600
32800W        W 5126   3.364  35.019   4.122
32801W        W 5127  41.701  32.436  13.077
32802W        W 5128  11.727  32.616  10.917
32803W        W 5129  41.038  28.481   1.845
32804W        W 5130  33.549  19.576  13.104
32805W        W 5131  19.619  42.028  10.658
32806W        W 5132  15.413  39.433  14.842
32807W        W 5133  26.093   7.470  13.478
32808W        W 5134  42.246  11.695  10.698
32809W        W 5135  26.623  34.039   1.648
32810W        W 5136  17.770  44.639  14.770
32811W        W 5137  37.394  30.745   2.147
32812W        W 5138  44.165  38.359   2.307
32813W        W 5139  32.888  25.680   4.246
32814W        W 5140  31.128  23.740   4.801
32815W        W 5141  29.125   8.291  13.415
32816W        W 5142  18.244  37.032   4.529
32817W        W 5143  13.726   2.393   3.650
32818W        W 5144  16.804   7.531  14.520
32819W        W 5145  31.993  21.131   1.398
32820W        W 5146  31.887  24.518   4.195
32821W        W 5147  44.245  19.604   9.959
32822W        W 5148  33.515  34.629  11.958
32823W        W 5149  14.665  44.386  13.360
32824W        W 5150  23.028  41.942  13.856
32825W        W 5151  38.547  35.990  14.503
32826W        W 5152  25.709  38.559   0.331
32827W        W 5153  41.183  23.870  12.875
32828W        W 5154  31.352  16.821  14.458
32829W        W 5155  43.102  38.476  10.443
32830W        W 5156   7.224  26.668   2.744
32831W        W 5157  37.179  24.465   1.395
32832W        W 5158  33.119  34.868  14.058
32833W        W 5159  29.463  38.053   4.144
32834W        W 5160  37.054   0.243  10.813
32835W        W 5161  19.573  31.970   4.144
32836W        W 5162  14.551  37.534   4.057
32837W        W 5163   0.683  44.195   4.176
32838W        W 5164  43.966  11.271   4.076
32839W        W 5165  41.453   1.042  12.835
32840W        W 5166  12.917  30.101   4.715
32841W        W 5167  15.384  37.871   4.067
32842W        W 5168  22.769  23.720   1.901
32843W        W 5169  41.352  21.333  11.168
32844W        W 5170  11.289   5.864  13.873
32845W        W 5171  43.002  19.600  10.641
32846W        W 5172  18.125  11.637  14.500
32847W        W 5173  28.559  12.757  12.486
32848W        W 5174  12.646  35.791   1.448
32849W        W 5175  20.583  40.575  14.757
32850W        W 5176  42.555  34.344  13.803
32851W        W 5177  32.046   1.330  12.948
32852W        W 5178  26.125  16.648   0.068
32853W        W 5179   4.514   4.571  13.637
32854W        W 5180   6.233  25.544  14.062
32855W        W 5181   5.949  24.434   1.423
32856W        W 5182  10.919   3.284  12.106
32857W        W 5183  28.220  25.576  12.560
32858W        W 5184   2.310   2.972   2.816
32859W        W 5185  15.050  12.731  12.854
32860W        W 5186  14.292  41.078   1.887
32861W        W 5187  32.481  31.762   0.940
32862W        W 5188  17.110   8.675  13.518
32863W        W 5189   9.870  22.511   4.037
32864W        W 5190  33.218  21.513  14.636
32865W        W 5191  19.269  28.967   2.158
32866W        W 5192  24.895   3.237   3.295
32867W        W 5193   4.840  33.865   2.167
32868W        W 5194   6.773  10.123   3.654
32869W        W 5195   8.284  36.573   4.625
32870W        W 5196  39.911  41.047  11.138
32871W        W 5197  16.499  44.487   2.796
32872W        W 5198  21.417  23.368  11.525
32873W        W 5199  16.123   5.732   0.659
32874W        W 5200  40.931  35.567   2.922
32875W        W 5201   9.518  26.331  11.881
32876W        W 5202  39.326  43.467  11.069
32877W        W 5203  14.251  20.200  12.326
32878W        W 5204   1.682  16.468   3.261
32879W        W 5205  38.877  20.709   4.292
32880W        W 5206  39.338  28.466   1.855
32881W        W 5207  23.708  15.192   2.761
32882W        W 5208  43.567  17.680  11.098
32883W        W 5209   1.136  30.931   0.820
32884W        W 5210  26.538  19.142  14.181
32885W        W 5211  42.187  44.739   3.324
32886W        W 5212  35.558   0.522  12.996
32887W        W 5213  32.501   3.671   3.301
32888W        W 5214   1.038  40.317   2.573
32889W        W 5215   5.761  24.204   4.436
32890W        W 5216  25.303  21.162   4.578
32891W        W 5217  15.092  31.907   1.850
32892W        W 5218  30.428  38.541   0.465
32893W        W 5219   1.166  29.979   2.043
32894W        W 5220  34.447  13.654  11.145
32895W        W 5221  25.593  20.613  11.114
32896W        W 5222   1.368  41.034  11.498
32897W        W 5223  36.939  35.032  13.502
32898W        W 5224  33.110  13.783  12.936
32899W        W 5225   3.921  37.144  10.911
32900W        W 5226  12.817  26.588   4.258
32901W        W 5227  15.525   4.793  14.503
32902W        W 5228   2.070  13.009  11.078
32903W        W 5229  32.857  23.657   2.335
32904W        W 5230   0.362  38.584   3.369
32905W        W 5231  32.606  22.536   2.260
32906W        W 5232  39.940  44.328   1.304
32907W        W 5233   1.215  23.908  14.381
32908W        W 5234  18.309  24.076   1.479
32909W        W 5235  34.586  35.042   4.983
32910W        W 5236  25.075  38.526   2.798
32911W        W 5237  12.898  13.079  13.036
32912W        W 5238  16.637  31.987  10.513
32913W        W 5239  42.828  21.050   1.874
32914W        W 5240   1.259  10.828  11.650
32915W        W 5241   2.564  17.656   0.850
32916W        W 5242   0.824  27.441   1.822
32917W        W 5243  33.548  35.396   3.513
32918W        W 5244  12.389  34.194   4.134
32919W        W 5245  23.102  39.833   1.906
32920W        W 5246  29.693  11.123  13.297
32921W        W 5247  16.690   6.032   2.542
32922W        W 5248   3.230  32.920  12.133
32923W        W 5249  33.984  27.746   3.285
32924W        W 5250  36.317   6.086  12.804
32925W        W 5251  35.822   0.795  14.360
32926W        W 5252   2.009  16.678   1.470
32927W        W 5253  35.543  37.834   1.365
32928W        W 5254  37.418  15.742   4.266
32929W        W 5255  11.319  40.162   3.104
32930W        W 5256   0.328   9.374   3.739
32931W        W 5257  25.114  29.020   0.544
32932W        W 5258   5.821  30.582   3.121
32933W        W 5259   8.766  13.909  11.988
32934W        W 5260   0.459  33.685   1.714
32935W        W 5261  14.517   6.418   4.057
32936W        W 5262  11.623   1.592  12.882
32937W        W 5263   3.886  33.209   1.800
32938W        W 5264  21.125  12.862   0.398
32939W        W 5265  23.213  38.322   1.911
32940W        W 5266   6.167   7.786   1.793
32941W        W 5267   6.183   2.510   2.715
32942W        W 5268  43.761  31.667   4.030
32943W        W 5269   1.486  10.173  12.332
32944W        W 5270   7.337   6.862  12.647
32945W        W 5271   7.572  14.680  12.649
32946W        W 5272  31.516  43.700   4.597
32947W        W 5273  44.201   6.626  12.053
32948W        W 5274   0.009  38.271   4.206
32949W        W 5275   1.905  41.445   2.592
32950W        W 5276  19.043  11.604   0.945
32951W        W 5277  40.248  42.417  12.888
32952W        W 5278  17.205  40.042   2.565
32953W        W 5279  33.940  26.168   3.671
32954W        W 5280  34.408  41.991  11.568
32955W        W 5281  19.302  11.593  12.460
32956W        W 5282   7.971  21.095  12.550
32957W        W 5283  44.051   2.828  12.323
32958W        W 5284   8.958   2.529  12.641
32959W        W 5285  10.252   8.688  14.590
32960W        W 5286  18.017  10.339  10.822
32961W        W 5287   5.653  38.362   2.236
32962W        W 5288  35.627  17.166   0.724
32963W        W 5289  12.712  30.142  14.688
32964W        W 5290   7.132   4.189   3.660
32965W        W 5291  24.304  14.071   5.223
32966W        W 5292  31.057  17.128  11.209
32967W        W 5293  42.444  24.712   2.895
32968W        W 5294  33.086  28.036   0.738
32969W        W 5295  28.594  35.425   3.201
32970W        W 5296  41.975  20.990  13.461
32971W        W 5297  22.123  38.654  13.359
32972W        W 5298   2.151   3.919  12.093
32973W        W 5299  33.081   0.328  13.876
32974W        W 5300  32.946  29.926  12.594
32975W        W 5301  42.785  11.185  12.103
32976W        W 5302  38.365  13.357   4.027
32977W        W 5303  25.805  23.928   4.590
32978W        W 5304  41.948  35.414  13.563
32979W        W 5305  44.730   1.276   3.163
32980W        W 5306  37.610  40.390   2.549
32981W        W 5307  17.760  11.230   4.650
32982W        W 5308  31.052  11.974   2.795
32983W        W 5309   8.364  19.417  11.637
32984W        W 5310   8.381  21.600   3.626
32985W        W 5311  32.153  37.762   1.835
32986W        W 5312  25.912  30.220   1.851
32987W        W 5313  38.969   2.348   1.409
32988W        W 5314  16.801  44.945   2.747
32989W        W 5315  23.306  30.709  13.163
32990W        W 5316  11.782   9.124  13.064
32991W        W 5317  12.171   2.409  13.890
32992W        W 5318  31.183  13.693   2.257
32993W        W 5319  33.300  34.704  11.060
32994W        W 5320   0.331  20.237   2.297
32995W        W 5321  23.304  10.273  14.283
32996W        W 5322  17.808  28.435   2.475
32997W        W 5323  19.790  13.412  12.491
32998W        W 5324  32.677   8.603  12.563
32999W        W 5325  15.740  30.403   3.654
33000W        W 5326  32.048   2.782   0.832
33001W        W 5327  41.297  13.705   2.973
33002W        W 5328  32.365  38.035  14.699
33003W        W 5329   2.430   8.551  14.323
33004W        W 5330  21.719  28.343  12.504
33005W        W 5331   9.924  13.549  11.512
33006W        W 5332  27.854  22.714   3.623
33007W        W 5333  34.880  27.498   2.763
33008W        W 5334   1.300  39.650  12.758
33009W        W 5335  38.045  23.478  13.818
33010W        W 5336   4.343  19.704  12.191
33011W        W 5337  31.583  13.067   3.344
33012W        W 5338  38.394   2.762  11.836
33013W        W 5339  13.874  30.970  14.766
33014W        W 5340  43.111  30.430  12.554
33015W        W 5341   3.884   2.756   0.793
33016W        W 5342   7.413  28.999   0.589
33017W        W 5343  27.365   4.446  10.633
33018W        W 5344  22.717   7.046   2.207
33019W        W 5345  31.555   9.701  13.692
33020W        W 5346  26.228  43.845   3.345
33021W        W 5347   8.624  38.338   3.821
33022W        W 5348  22.498   5.106  10.817
33023W        W 5349  18.718   0.515  12.688
33024W        W 5350  16.812  14.970   2.295
33025W        W 5351  26.280  19.691  10.492
33026W        W 5352  39.816  37.910  13.430
33027W        W 5353  33.036  19.327  12.957
33028W        W 5354   5.226  32.168   2.933
33029W        W 5355   2.953  43.461   3.094
33030W        W 5356  25.187  13.100  14.874
33031W        W 5357  14.578  42.280  11.120
33032W        W 5358  43.412  27.080  10.777
33033W        W 5359  28.451   7.756  13.376
33034W        W 5360  31.302  22.957   3.167
33035W        W 5361  27.941  39.063  11.784
33036W        W 5362  33.350  22.684  12.119
33037W        W 5363  12.685  17.352   0.005
33038W        W 5364  16.433  14.117   3.736
33039W        W 5365  28.139  13.859   3.649
33040W        W 5366  26.177  27.634  12.822
33041W        W 5367  29.365  38.519   4.366
33042W        W 5368  41.429  42.808   4.869
33043W        W 5369  21.255  24.238   3.101
33044W        W 5370  23.862  18.187  11.994
33045W        W 5371  43.010  43.353  12.175
33046W        W 5372  40.644  26.154   4.827
33047W        W 5373  36.388  29.178   9.925
33048W        W 5374  44.872  44.718  13.825
33049W        W 5375  39.556  13.397   1.153
33050W        W 5376   6.450  44.850  11.036
33051W        W 5377  29.401  20.636  14.084
33052W        W 5378  26.713  43.034  14.808
33053W        W 5379  12.879  37.502   0.323
33054W        W 5380  42.986  43.761  14.752
33055W        W 5381   4.616  18.902   4.172
33056W        W 5382  30.576  24.680   1.276
33057W        W 5383  41.361  39.951  13.123
33058W        W 5384  15.169  29.625   3.642
33059W        W 5385  31.464  19.015   4.170
33060W        W 5386   3.959  42.994  10.127
33061W        W 5387   4.189   5.821  14.187
33062W        W 5388  37.565  35.075   2.184
33063W        W 5389   0.228  40.906  14.503
33064W        W 5390  35.657  31.505  10.749
33065W        W 5391  13.654  13.612   4.094
33066W        W 5392  30.620  37.341   0.751
33067W        W 5393   3.328   7.362   1.660
33068W        W 5394   0.943  18.480  11.482
33069W        W 5395  41.053  34.074  10.705
33070W        W 5396   0.295  16.507   4.248
33071W        W 5397  20.832   7.402  14.768
33072W        W 5398  37.265  13.195   5.025
33073W        W 5399  28.116  43.820   4.301
33074W        W 5400  29.972  32.173  10.874
33075W        W 5401   5.169  43.753  14.365
33076W        W 5402  20.458  16.248   0.740
33077W        W 5403  39.981   2.865   3.377
33078W        W 5404  36.998  40.540   1.959
33079W        W 5405   9.306  13.200   4.088
33080W        W 5406   5.841  26.362  13.776
33081W        W 5407   5.009  36.807   1.864
33082W        W 5408  33.216  25.434  11.857
33083W        W 5409  37.005  30.658  14.542
33084W        W 5410  22.131  30.521   4.980
33085W        W 5411   7.790  11.940  12.417
33086W        W 5412  22.309   2.003  12.950
33087W        W 5413  25.566  31.562   2.259
33088W        W 5414  41.335  22.191   3.096
33089W        W 5415  30.978   7.920   0.847
33090W        W 5416  15.595  20.752   0.863
33091W        W 5417  38.534  40.752   2.648
33092W        W 5418  17.245   0.378  14.982
33093W        W 5419   7.909  22.823  14.388
33094W        W 5420  10.277  37.329   1.385
33095W        W 5421   9.356  43.576  13.873
33096W        W 5422  18.776   1.929  13.331
33097W        W 5423   1.500  14.919  11.000
33098W        W 5424   1.975   4.394   3.113
33099W        W 5425   5.914   5.946   3.642
33100W        W 5426  32.954  12.104  12.176
33101W        W 5427  24.026  19.824   0.376
33102W        W 5428   4.218  32.454  14.422
33103W        W 5429  29.078  26.643   5.297
33104W        W 5430  44.964  23.491  13.278
33105W        W 5431   0.416  38.080   3.308
33106W        W 5432  30.360  19.640  12.105
33107W        W 5433   0.731  31.601  12.067
33108W        W 5434  11.890  32.636   0.423
33109W        W 5435   8.743   7.144  10.601
33110W        W 5436   5.282  35.134   3.764
33111W        W 5437  21.271  12.724   0.898
33112W        W 5438   5.791  34.588   1.586
33113W        W 5439   9.861  28.133  14.784
33114W        W 5440   9.744  22.968  13.252
33115W        W 5441  33.534  41.237   3.590
33116W        W 5442   9.595  37.471   1.997
33117W        W 5443  22.534  27.427   4.792
33118W        W 5444  23.579  19.633  11.977
33119W        W 5445  18.235  40.516   3.955
33120W        W 5446  38.578  37.159  13.441
33121W        W 5447  26.761   6.622  12.076
33122W        W 5448  29.975   7.247  12.240
33123W        W 5449   4.365  39.736  12.831
33124W        W 5450  27.128  35.854  12.975
33125W        W 5451  14.742  32.985   2.152
33126W        W 5452   5.337  27.906  13.347
33127W        W 5453  44.993  14.128  12.823
33128W        W 5454  12.634  37.049  14.051
33129W        W 5455  28.726  14.158   0.378
33130W        W 5456  44.546  11.883   2.218
33131W        W 5457   1.985  37.440  14.262
33132W        W 5458  36.044  19.134  13.954
33133W        W 5459  44.813   8.815   4.251
33134W        W 5460  34.394  16.516  11.644
33135W        W 5461  40.907   3.245   3.697
33136W        W 5462   1.840  37.128  14.829
33137W        W 5463  33.012  18.629   3.144
33138W        W 5464  24.745  15.343  10.609
33139W        W 5465  38.522  12.302  12.187
33140W        W 5466   2.239  43.245   0.484
33141W        W 5467  26.379  25.647  14.211
33142W        W 5468  40.488  23.254  12.943
33143W        W 5469  28.693  26.079  11.960
33144W        W 5470   4.071  31.042   4.192
33145W        W 5471  18.629   7.013  10.129
33146W        W 5472  38.041  29.200   1.309
33147W        W 5473   9.861  12.824   4.110
33148W        W 5474   5.898  14.171  11.039
33149W        W 5475  43.340  24.705   4.561
33150W        W 5476  29.644  18.640  12.073
33151W        W 5477  44.073   2.006   0.488
33152W        W 5478  14.711  38.014   4.835
33153W        W 5479  32.471  22.154   4.359
33154W        W 5480  18.267   9.702  14.524
33155W        W 5481  14.001  15.657   3.292
33156W        W 5482  18.033   2.437   2.647
33157W        W 5483  28.952   5.857   0.031
33158W        W 5484  42.431   1.764   2.117
33159W        W 5485  26.180  40.861  14.960
33160W        W 5486  15.155  35.619   4.297
33161W        W 5487  25.902  42.995   4.943
33162W        W 5488  26.200  38.319  12.022
33163W        W 5489  19.623  42.960   3.164
33164W        W 5490  32.848  42.027   4.213
33165W        W 5491   9.612   4.435   2.152
33166W        W 5492  38.078   3.153  14.803
33167W        W 5493  16.274  36.794  12.898
33168W        W 5494  34.036  35.434   1.874
33169W        W 5495  16.402  17.190   4.728
33170W        W 5496  14.619  24.736  11.644
33171W        W 5497  10.701  29.086   3.952
33172W        W 5498  32.255  36.596   3.127
33173W        W 5499  17.941  26.689   0.418
33174W        W 5500  18.866   4.821   3.270
33175W        W 5501  19.324  32.531  12.534
33176W        W 5502  21.147  32.645   3.343
33177W        W 5503  33.773   7.285  11.558
33178W        W 5504  37.082  17.568   3.620
33179W        W 5505   1.756  23.591   1.794
33180W        W 5506   4.916   6.756  11.631
33181W        W 5507  29.178   0.346   4.255
33182W        W 5508  23.983  21.152   1.908
33183W        W 5509  28.215  44.035  11.149
33184W        W 5510  40.480   3.654   2.808
33185W        W 5511  11.746  18.240   1.172
33186W        W 5512  39.065  31.087   2.852
33187W        W 5513  40.548  14.352  14.843
33188W        W 5514  18.514  31.094  12.844
33189W        W 5515  43.311  28.570   1.154
33190W        W 5516  15.176   8.371  13.891
33191W        W 5517  19.670   8.138  12.554
33192W        W 5518  36.607  31.545   3.695
33193W        W 5519  27.403  19.677  13.705
33194W        W 5520   5.902  38.646   4.467
33195W        W 5521  42.594   9.177   2.774
33196W        W 5522  20.139  18.021   1.417
33197W        W 5523  33.963  17.495   0.347
33198W        W 5524  33.656   9.782   2.924
33199W        W 5525  42.720  22.126   1.372
33200W        W 5526   1.019  36.495   1.771
33201W        W 5527  27.403  18.819  11.644
33202W        W 5528  36.341   0.810   2.344
33203W        W 5529   3.121  40.609   3.227
33204W        W 5530   4.484  43.609   5.061
33205W        W 5531  31.977   2.253   3.771
33206W        W 5532   4.350   4.739   5.042
33207W        W 5533   4.239  40.968   4.812
33208W        W 5534  37.841  22.938   2.928
33209W        W 5535  18.497  30.900  11.976
33210W        W 5536  17.170   7.915  14.538
33211W        W 5537  22.838  28.215  12.101
33212W        W 5538  16.882  16.674   4.168
33213W        W 5539  42.986   9.233   4.440
33214W        W 5540  25.683  32.876   1.920
33215W        W 5541   8.397  17.352  11.042
33216W        W 5542  16.389   6.337  14.804
33217W        W 5543   4.847  43.100  11.962
33218W        W 5544  35.510  35.810  13.013
33219W        W 5545   4.347  19.228  14.735
33220W        W 5546  42.939  22.908  12.615
33221W        W 5547   3.855  10.190   4.133
33222W        W 5548  28.683  32.111   0.381
33223W        W 5549  29.625  15.807   0.305
33224W        W 5550  39.823   4.667  10.677
33225W        W 5551  13.776  15.448  11.077
33226W        W 5552  41.312   4.787   3.775
33227W        W 5553  37.405  40.002  10.914
33228W        W 5554  41.916   7.418   3.840
33229W        W 5555   2.029  12.344  13.912
33230W        W 5556  22.517  14.631  10.524
33231W        W 5557  43.988   8.251   2.781
33232W        W 5558  25.607  16.979  14.341
33233W        W 5559  32.052  17.519  14.930
33234W        W 5560   2.790  30.602  13.122
33235W        W 5561  11.618  17.153  12.458
33236W        W 5562  36.922  18.673  13.664
33237W        W 5563  37.991  23.627  14.907
33238W        W 5564  16.789   1.974   2.592
33239W        W 5565  31.979  39.819   3.549
33240W        W 5566  12.275  14.791  14.559
33241W        W 5567  11.483  30.481  12.088
33242W        W 5568  44.285  39.474  14.797
33243W        W 5569  10.515  25.680   2.025
33244W        W 5570  39.391   8.574  11.211
33245W        W 5571  32.366   3.867   1.959
33246W        W 5572   7.225   9.224   3.620
33247W        W 5573  13.751  30.441   1.767
33248W        W 5574  43.363   8.590   1.272
33249W        W 5575   3.159  11.381  13.439
33250W        W 5576  38.965  38.386   2.994
33251W        W 5577  11.578  15.642  12.888
33252W        W 5578   9.138  40.822  12.390
33253W        W 5579   1.815  40.948  11.266
33254W        W 5580  27.138  27.548  11.566
33255W        W 5581  25.586  44.437  13.105
33256W        W 5582   5.873  38.014   0.470
33257W        W 5583  23.625  41.244  11.139
33258W        W 5584  39.500  34.046  13.882
33259W        W 5585  14.608   9.905  13.828
33260W        W 5586  43.428  34.137  14.838
33261W        W 5587  43.694  21.275  11.447
33262W        W 5588  13.567   8.655  14.776
33263W        W 5589  18.973   1.742  12.409
33264W        W 5590   8.702  37.809  12.022
33265W        W 5591  34.719  42.893  14.761
33266W        W 5592  34.752  12.751   3.765
33267W        W 5593   6.694  21.145  12.805
33268W        W 5594  20.311  23.060   3.340
33269W        W 5595  40.982  19.914   4.147
33270W        W 5596  39.525  43.941  11.164
33271W        W 5597  40.463  19.210   0.968
33272W        W 5598   0.432  24.524   4.707
33273W        W 5599   6.559  12.998  13.825
33274W        W 5600  21.197  26.709  13.579
33275W        W 5601  11.898  44.665  10.138
33276W        W 5602   9.144  25.694   3.292
33277W        W 5603  23.512   0.567  11.216
33278W        W 5604  15.098  27.522  14.456
33279W        W 5605  33.600  37.429  11.395
33280W        W 5606   1.268   6.663   1.701
33281W        W 5607  36.437  26.512  12.580
33282W        W 5608  24.572  44.824   0.427
33283W        W 5609  25.781  24.504   3.716
33284W        W 5610  26.624   9.842   3.927
33285W        W 5611  36.908  12.792   2.640
33286W        W 5612  21.319  33.514   0.449
33287W        W 5613  24.371  18.862   4.084
33288W        W 5614  13.625  28.508  10.500
33289W        W 5615  33.059   2.621  14.691
33290W        W 5616  30.905  43.970   2.779
33291W        W 5617   0.399   6.800  12.466
33292W        W 5618  27.561  24.440  11.030
33293W        W 5619  40.469  11.489   1.292
33294W        W 5620  42.475  29.394   3.656
33295W        W 5621  29.511   4.566  10.284
33296W        W 5622  40.016   3.858   0.817
33297W        W 5623  36.801   9.654   4.192
33298W        W 5624  31.946  14.382  13.792
33299W        W 5625  43.691   1.849  12.624
33300W        W 5626   0.869  32.658   1.476
33301W        W 5627  44.319  43.571  10.357
33302W        W 5628  44.993  14.302   4.077
33303W        W 5629  15.077  30.210  12.023
33304W        W 5630  36.626   3.270  11.037
33305W        W 5631   6.255  22.559  11.180
33306W        W 5632  21.483   1.485   2.389
33307W        W 5633  32.642  16.344  12.073
33308W        W 5634  36.178  28.430   4.108
33309W        W 5635  23.414  18.313  14.863
33310W        W 5636  33.715  35.131  11.161
33311W        W 5637  34.626  33.856  10.593
33312W        W 5638  43.178  21.456   0.238
33313W        W 5639   2.501  32.639  12.509
33314W        W 5640  22.202   1.545  10.647
33315W        W 5641  25.080  40.565   1.753
33316W        W 5642  10.719  15.563  11.858
33317W        W 5643  28.222  34.945   4.755
33318W        W 5644  40.455  23.320   0.876
33319W        W 5645   0.949  20.355  12.464
33320W        W 5646  29.577  29.200   2.338
33321W        W 5647  17.815  30.358   2.232
33322W        W 5648   7.004  24.017   5.206
33323W        W 5649  36.148  43.909  12.462
33324W        W 5650  28.605  11.632  13.594
33325W        W 5651  17.324  12.513   3.051
33326W        W 5652  17.034  32.051   0.392
33327W        W 5653  29.850  36.439  10.536
33328W        W 5654  20.519  19.593  13.545
33329W        W 5655   7.655  17.070  12.379
33330W        W 5656  15.811  17.903   2.978
33331W        W 5657  31.070  25.614   0.733
33332W        W 5658  39.333  17.183   4.623
33333W        W 5659  36.339  24.521  10.523
33334W        W 5660  31.957  12.374   2.775
33335W        W 5661  44.809  42.757   4.861
33336W        W 5662   8.148  44.250  10.712
33337W        W 5663  42.845  37.300   2.613
33338W        W 5664   8.495  26.530   0.866
33339W        W 5665  31.163  31.107   3.440
33340W        W 5666  44.733  19.272  11.977
33341W        W 5667  25.210   9.297   1.473
33342W        W 5668  42.273   6.867  12.605
33343W        W 5669  17.804  40.970   2.775
33344W        W 5670  27.861  42.523   9.967
33345W        W 5671   9.680  43.568  14.307
33346W        W 5672  23.145  31.522   4.294
33347W        W 5673   2.795   3.307  11.893
33348W        W 5674  33.082  36.510  12.147
33349W        W 5675   8.854   5.212  12.459
33350W        W 5676  10.816  43.041   4.567
33351W        W 5677  11.116  20.581   0.861
33352W        W 5678  14.145  35.081   3.238
33353W        W 5679  30.354  30.557   3.500
33354W        W 5680  30.571  33.386   3.210
33355W        W 5681   4.959   5.651   3.688
33356W        W 5682  39.382  24.597  11.540
33357W        W 5683  35.371   0.488   2.168
33358W        W 5684  44.237  37.489  12.593
33359W        W 5685  11.528  19.803  13.434
33360W        W 5686  19.151   8.150  10.761
33361W        W 5687  38.595  22.556   2.231
33362W        W 5688  11.578  41.352  11.846
33363W        W 5689   3.805  27.526  12.671
33364W        W 5690   9.269  43.701  11.124
33365W        W 5691  36.951  15.116   2.710
33366W        W 5692   0.939  42.282  14.666
33367W        W 5693  17.194  22.645   0.325
33368W        W 5694  27.101  33.437  11.592
33369W        W 5695  25.029  16.527  12.416
33370W        W 5696  13.411  40.145   3.409
33371W        W 5697  29.110  38.512  14.347
33372W        W 5698  39.324  21.867  12.701
33373W        W 5699  26.735  28.577   1.573
33374W        W 5700   0.813  10.179   0.792
33375W        W 5701  25.299  43.075  13.742
33376W        W 5702  37.844   5.088   2.317
33377W        W 5703  19.111  18.085   3.243
33378W        W 5704  30.901  30.423  11.550
33379W        W 5705   5.354  13.158   2.372
33380W        W 5706  42.043  42.254   0.429
33381W        W 5707   0.126  26.616   5.080
33382W        W 5708  20.692  20.284  13.943
33383W        W 5709   9.108  14.130   2.321
33384W        W 5710   1.694  23.699   2.663
33385W        W 5711  40.997  10.207   1.815
33386W        W 5712  22.486   7.067  13.009
33387W        W 5713   9.010  18.413  13.426
33388W        W 5714  42.604   1.335   0.408
33389W        W 5715  29.792  33.459  14.605
33390W        W 5716  30.642  22.898  13.008
33391W        W 5717  13.340  19.699  14.295
33392W        W 5718  23.561   9.370   1.888
33393W        W 5719  34.590   5.189   4.163
33394W        W 5720  31.641  24.641   2.878
33395W        W 5721  41.023   5.856   1.653
33396W        W 5722  10.925  25.193  10.899
33397W        W 5723   3.215  13.780   4.896
33398W        W 5724  38.815  34.885   4.538
33399W        W 5725  39.456   1.623   3.911
33400W        W 5726   9.463   3.990   4.127
33401W        W 5727  28.419  20.165   3.220
33402W        W 5728  31.402  25.007  11.912
33403W        W 5729  36.576   2.445  12.884
33404W        W 5730  12.101  44.485   1.803
33405W        W 5731  39.594  24.025  10.681
33406W        W 5732   5.797   4.571  12.183
33407W        W 5733  24.634  29.429   2.451
33408W        W 5734  41.236  26.743   1.907
33409W        W 5735  10.112  12.243   1.220
33410W        W 5736  19.795  18.750   1.161
33411W        W 5737   1.283   5.909  12.158
33412W        W 5738  37.361  27.069  14.177
33413W        W 5739  15.648  15.369   4.920
33414W        W 5740  38.488  15.079  14.967
33415W        W 5741  41.002  22.024  11.574
33416W        W 5742  27.477  23.260  13.895
33417W        W 5743  23.995  38.420  11.855
33418W        W 5744   2.821  18.137   2.092
33419W        W 5745  27.154   7.336   2.819
33420W        W 5746   4.439  33.066  11.195
33421W        W 5747  10.586  11.936   1.775
33422W        W 5748  44.334  40.846  13.964
33423W        W 5749  17.982  38.277  12.022
33424W        W 5750  16.174  30.140   4.116
33425W        W 5751  29.403  21.714   1.912
33426W        W 5752  21.642  16.574   1.262
33427W        W 5753  30.564  11.701   4.129
33428W        W 5754  22.601   8.412   1.981
33429W        W 5755  40.636  41.608   5.127
33430W        W 5756   1.355  26.892  10.810
33431W        W 5757  20.848  30.740   4.058
33432W        W 5758  31.499  42.536   0.367
33433W        W 5759  35.278  31.556   1.380
33434W        W 5760  38.471  42.757  13.160
33435W        W 5761  36.471  42.263   2.348
33436W        W 5762  31.075  30.289   4.595
33437W        W 5763  22.041  27.723  14.798
33438W        W 5764  36.854  20.300   2.701
33439W        W 5765  24.110  20.690   4.318
33440W        W 5766  32.950  39.510  12.384
33441W        W 5767  39.319   7.759  13.835
33442W        W 5768  31.918  43.630   0.843
33443W        W 5769   1.432   2.433   2.404
33444W        W 5770  43.485   1.805   4.218
33445W        W 5771  38.447  12.242   5.395
33446W        W 5772  32.419  29.428  11.575
33447W        W 5773  19.549  13.568  13.560
33448W        W 5774  10.584  30.560  10.239
33449W        W 5775   1.651  26.378   0.516
33450W        W 5776  37.494  28.892  13.958
33451W        W 5777  15.479  23.073   4.275
33452W        W 5778  16.990  13.388  12.125
33453W        W 5779  35.507  38.104   4.943
33454W        W 5780  25.649   7.651  11.212
33455W        W 5781   8.855  14.522   3.235
33456W        W 5782  42.123  12.252  13.484
33457W        W 5783  20.292  42.409  13.369
33458W        W 5784  31.722   8.438   4.118
33459W        W 5785  43.950  20.058   1.025
33460W        W 5786  21.554  14.121   4.193
33461W        W 5787  22.388   3.250  10.824
33462W        W 5788  30.704  20.996   1.926
33463W        W 5789  34.072   1.375   1.242
33464W        W 5790  25.255  14.287   3.084
33465W        W 5791   0.064  11.826  14.928
33466W        W 5792  25.622   2.321  13.325
33467W        W 5793   9.793  28.956  13.066
33468W        W 5794  42.911  13.803   2.521
33469W        W 5795  25.507  41.463  11.945
33470W        W 5796  43.678   3.188  12.003
33471W        W 5797  28.152  26.517  10.301
33472W        W 5798   1.259  42.048  13.164
33473W        W 5799  12.256  22.835  12.454
33474W        W 5800  19.976  14.358  14.409
33475W        W 5801   8.103  16.914   4.121
33476W        W 5802  17.680  33.565   3.675
33477W        W 5803  42.030  22.526  13.564
33478W        W 5804   0.527  27.474   2.462
33479W        W 5805  20.153  33.166  11.196
33480W        W 5806  21.521  25.242   3.270
33481W        W 5807  21.867  34.119   1.223
33482W        W 5808  20.860  17.718  14.639
33483W        W 5809  16.151  12.393   4.124
33484W        W 5810   6.228   3.438   1.759
33485W        W 5811   0.516  27.484   4.744
33486W        W 5812  44.064  13.841   3.210
33487W        W 5813  26.531  33.554  13.416
33488W        W 5814  41.736  43.445  11.556
33489W        W 5815  10.248  19.422  14.999
33490W        W 5816  31.026  41.563   3.273
33491W        W 5817  25.418   6.186  11.128
33492W        W 5818  14.148  17.216  13.066
33493W        W 5819  26.195  26.707   3.425
33494W        W 5820  35.539  23.166  10.781
33495W        W 5821  39.064  35.584   3.394
33496W        W 5822   6.431  43.070   1.402
33497W        W 5823  35.900  36.020  14.422
33498W        W 5824  22.956   9.841  14.392
33499W        W 5825  35.240  32.655  12.144
33500W        W 5826   5.349  41.340   0.907
33501W        W 5827  35.611  24.199   0.500
33502W        W 5828  23.087  10.263  10.716
33503W        W 5829   0.389  10.136   3.176
33504W        W 5830  21.233   2.862   2.309
33505W        W 5831  13.705  41.464   2.250
33506W        W 5832   6.727  29.058  11.593
33507W        W 5833   9.742  41.284  11.499
33508W        W 5834  33.018  36.415  14.414
33509W        W 5835  19.223  11.391   0.316
33510W        W 5836   3.077  40.859  13.965
33511W        W 5837   0.979  42.525   0.532
33512W        W 5838  19.393  39.642   3.477
33513W        W 5839  31.570  18.561  11.793
33514W        W 5840  27.576  13.702  10.632
33515W        W 5841   9.245  38.155   3.354
33516W        W 5842  42.509  32.818  14.375
33517W        W 5843   6.227  32.655  12.592
33518W        W 5844  37.613   0.627  13.483
33519W        W 5845  14.119  24.887  12.395
33520W        W 5846  44.777  44.069  14.399
33521W        W 5847  39.471  16.758   4.906
33522W        W 5848  41.239  44.585   3.754
33523W        W 5849  38.971  15.246  13.909
33524W        W 5850  44.002  39.811   4.244
33525W        W 5851  32.151  19.976  14.205
33526W        W 5852  33.698   9.848   0.420
33527W        W 5853  44.482  11.119  12.791
33528W        W 5854  41.192  19.820  14.289
33529W        W 5855  36.452  43.842   2.369
33530W        W 5856  44.686  19.528  14.798
33531W        W 5857  37.433   3.835  13.912
33532W        W 5858  35.008  40.430   4.084
33533W        W 5859  36.284  27.537   2.699
33534W        W 5860  33.859  21.716  12.889
33535W        W 5861  22.484  11.861  10.209
33536W        W 5862  43.985   3.214  11.562
33537W        W 5863  14.296   1.898   0.008
33538W        W 5864  14.150  10.837  11.071
33539W        W 5865  12.282  26.496   4.138
33540W        W 5866   4.825  44.131  14.408
33541W        W 5867  31.345   8.233  12.154
33542W        W 5868  31.105  21.788  12.390
33543W        W 5869  37.640   4.352   0.055
33544W        W 5870  34.314   4.673   3.635
33545W        W 5871  39.561   8.811   3.568
33546W        W 5872  27.498   5.470  14.038
33547W        W 5873   9.396  16.054  10.635
33548W        W 5874   1.906   0.409  12.841
33549W        W 5875   2.538  20.075  12.076
33550W        W 5876  37.563  29.748   4.963
33551W        W 5877   7.040  37.825  11.320
33552W        W 5878  10.203  39.563  14.317
33553W        W 5879   3.980   4.823   3.709
33554W        W 5880  38.153  37.581   4.287
33555W        W 5881  24.135  16.877  11.578
33556W        W 5882  16.017  17.840   0.535
33557W        W 5883   2.273  34.175  14.417
33558W        W 5884  32.041  44.991   3.608
33559W        W 5885  25.751  30.844  14.237
33560W        W 5886  20.233  44.659   1.815
33561W        W 5887  34.765  41.490  10.036
33562W        W 5888  12.122  33.047  11.416
33563W        W 5889  13.599  39.183  10.624
33564W        W 5890   2.358  38.484  13.079
33565W        W 5891  35.306  12.401   4.142
33566W        W 5892  15.227  12.707  10.422
33567W        W 5893   8.823  23.473   2.551
33568W        W 5894  28.627  34.454  14.455
33569W        W 5895   8.955  12.130   0.420
33570W        W 5896   1.529  18.753   0.509
33571W        W 5897  30.017  18.229   0.703
33572W        W 5898  43.414  35.317   3.430
33573W        W 5899  24.638  15.763   0.851
33574W        W 5900  25.130  30.549  13.745
33575W        W 5901  24.130  34.959   3.557
33576W        W 5902   3.996  24.759  13.338
33577W        W 5903   7.114  42.489   1.636
33578W        W 5904  29.947  30.175  12.611
33579W        W 5905  35.141  20.618  10.678
33580W        W 5906   2.254  43.375   4.565
33581W        W 5907  36.667  31.612   2.759
33582W        W 5908  26.257  40.603  14.514
33583W        W 5909  42.839  41.288  14.073
33584W        W 5910  34.893  25.210  10.448
33585W        W 5911  44.162  25.713   0.363
33586W        W 5912  34.382   4.309  10.550
33587W        W 5913  43.808  34.465  14.550
33588W        W 5914   7.287  29.313  13.789
33589W        W 5915  11.638  31.015  14.776
33590W        W 5916   3.396   5.389  12.553
33591W        W 5917  24.056  17.227  10.930
33592W        W 5918  40.575  17.668   3.731
33593W        W 5919   7.948   6.909  13.475
33594W        W 5920  20.724  26.987  14.957
33595W        W 5921  14.792  36.699   4.553
33596W        W 5922  41.473  14.819   0.790
33597W        W 5923   7.945  10.642  13.570
33598W        W 5924  23.960  19.198  14.776
33599W        W 5925   9.666   9.387   0.268
33600W        W 5926  38.932  12.099   4.606
33601W        W 5927  16.638  23.216  14.917
33602W        W 5928  40.547   1.454  11.419
33603W        W 5929  15.265  10.326  12.500
33604W        W 5930  25.721  30.550  12.009
33605W        W 5931  14.835  37.351  11.518
33606W        W 5932   4.615  20.098   4.652
33607W        W 5933  28.976   0.859  13.888
33608W        W 5934   2.744  42.963   0.403
33609W        W 5935  20.322  23.284  13.863
33610W        W 5936  31.120  44.332   0.435
33611W        W 5937   2.204   9.689   3.234
33612W        W 5938  12.276  18.819   4.326
33613W        W 5939   4.074  40.775   1.809
33614W        W 5940  27.068  10.840   3.846
33615W        W 5941  19.239   9.265   1.152
33616W        W 5942   4.412  13.096   3.652
33617W        W 5943  21.297   1.435  11.125
33618W        W 5944  41.780  41.830  12.605
33619W        W 5945  44.312  38.519  14.300
33620W        W 5946  18.973  38.760  13.022
33621W        W 5947  26.417  24.135   2.846
33622W        W 5948  19.224  30.229  13.884
33623W        W 5949   6.239  44.325  11.950
33624W        W 5950  28.411   6.275   2.793
33625W        W 5951   9.615  24.662  11.933
33626W        W 5952  16.451  16.481  11.397
33627W        W 5953  22.430   9.350  13.500
33628W        W 5954  10.462   5.511  10.725
33629W        W 5955  24.634  37.799   0.738
33630W        W 5956  40.408  42.316   1.452
33631W        W 5957   6.938   3.145   4.594
33632W        W 5958  38.982  10.833   5.181
33633W        W 5959  31.093  38.200   2.044
33634W        W 5960  19.004  40.916  11.951
33635W        W 5961  25.316  27.474  13.947
33636W        W 5962  43.755   2.500   2.817
33637W        W 5963  10.086  30.978  11.549
33638W        W 5964  40.173  11.272  13.966
33639W        W 5965  21.554   6.701   2.677
33640W        W 5966  25.886  38.894  12.838
33641W        W 5967  27.887  17.211   1.386
33642W        W 5968  12.760  14.355   3.225
33643W        W 5969   9.423   0.440  13.426
33644W        W 5970  28.147  23.646  12.765
33645W        W 5971  21.672  25.736  11.592
33646W        W 5972  36.392   2.338   0.673
33647W        W 5973  11.270  33.325  14.551
33648W        W 5974   1.467  44.264  11.692
33649W        W 5975   4.407  39.970   2.148
33650W        W 5976   8.630  33.077   4.899
33651W        W 5977   5.022  20.979   0.878
33652W        W 5978  17.643   3.515   0.144
33653W        W 5979  38.671  39.962  12.096
33654W        W 5980  22.759  18.764   3.700
33655W        W 5981  24.223   1.846  11.078
33656W        W 5982  12.197  19.679  10.699
33657W        W 5983  19.353  41.597  10.644
33658W        W 5984  34.415  36.554   4.655
33659W        W 5985  36.540  36.974   0.933
33660W        W 5986  13.227  11.817   4.085
33661W        W 5987  41.818  30.987   3.862
33662W        W 5988  34.945  13.129  11.606
33663W        W 5989  43.435   8.307  13.982
33664W        W 5990  41.265   7.344  12.084
33665W        W 5991  24.310   6.266  13.059
33666W        W 5992  24.182   8.305   1.833
33667W        W 5993   2.895  11.632   0.663
33668W        W 5994  23.519  34.912   2.695
33669W        W 5995  24.643   7.350   2.966
33670W        W 5996  38.647  10.448   4.195
33671W        W 5997  41.503   3.487  13.040
33672W        W 5998  29.910  17.251   0.313
33673W        W 5999  36.895  14.337   0.453
33674W        W 6000  29.444  13.773   3.218
33675W        W 6001  16.603  14.155  12.623
33676W        W 6002  33.347  32.674   1.840
33677W        W 6003   0.170   3.093  11.464
33678W        W 6004  24.297   7.089  12.010
33679W        W 6005  30.396  31.376  10.971
33680W        W 6006  19.288  22.449  12.856
33681W        W 6007  29.862   2.338   2.821
33682W        W 6008  33.447  16.066   2.175
33683W        W 6009  12.229  18.440  11.166
33684W        W 6010  29.519  34.660  14.973
33685W        W 6011  11.704  29.433  13.960
33686W        W 6012  42.139   5.614  11.214
33687W        W 6013  30.676  32.424   4.223
33688W        W 6014  12.609  31.499   2.637
33689W        W 6015   7.330  13.073  11.531
33690W        W 6016  23.704  12.886   1.739
33691W        W 6017  20.100   8.796  13.780
33692W        W 6018  15.151   9.094  14.448
33693W        W 6019  22.558  24.435  14.867
33694W        W 6020  26.728  21.678  13.450
33695W        W 6021  34.098  43.162   0.392
33696W        W 6022  28.849  12.103  11.489
33697W        W 6023   8.371  31.640  14.786
33698W        W 6024   9.257  11.748  11.417
33699W        W 6025  40.113  10.308  14.991
33700W        W 6026  19.683  24.925  13.474
33701W        W 6027  10.152   2.885   1.909
33702W        W 6028  13.305  32.982  10.738
33703W        W 6029  10.193  26.139  12.948
33704W        W 6030  44.723  28.961  10.842
33705W        W 6031  16.206  23.718  11.557
33706W        W 6032   0.289  13.392   2.346
33707W        W 6033  23.236  38.840  12.049
33708W        W 6034  16.597  33.135   2.887
33709W        W 6035   3.225  25.065   3.121
33710W        W 6036  37.418  31.876  12.065
33711W        W 6037   2.326   3.010  13.279
33712W        W 6038  29.214  26.410   3.740
33713W        W 6039  14.216  21.050   0.485
33714W        W 6040  10.219  31.102  14.368
33715W        W 6041  15.068  15.052  14.256
33716W        W 6042   3.591  15.668  10.279
33717W        W 6043  26.003  36.419  11.601
33718W        W 6044  11.902  44.222  14.463
33719W        W 6045  29.839  23.044   0.872
33720W        W 6046  20.813  37.816   1.393
33721W        W 6047  29.989   7.342  13.998
33722W        W 6048  12.831  16.646  12.057
33723W        W 6049  33.410  41.995  13.866
33724W        W 6050   9.622  16.244   1.297
33725W        W 6051  12.360   5.932  13.954
33726W        W 6052  30.557  21.539  10.671
33727W        W 6053   2.940  17.968   3.111
33728W        W 6054  31.115  20.173  12.052
33729W        W 6055   2.673   9.396   2.499
33730W        W 6056   0.899  44.778  12.487
33731W        W 6057  37.790   9.872   3.173
33732W        W 6058  10.713   6.230  10.845
33733W        W 6059  19.116   8.632   1.885
33734W        W 6060  24.736  38.582   3.550
33735W        W 6061  25.968  38.967  13.749
33736W        W 6062  17.236  10.806  14.808
33737W        W 6063   0.979  20.035  13.347
33738W        W 6064   6.575  11.165   0.506
33739W        W 6065   1.311  39.840   4.737
33740W        W 6066  28.263   7.515   0.767
33741W        W 6067  35.999  34.345  12.324
33742W        W 6068  11.461  31.175  10.641
33743W        W 6069  40.973  38.500  11.827
33744W        W 6070  26.365  29.444   0.039
33745W        W 6071  34.067  14.201  12.105
33746W        W 6072  22.486  39.434   5.015
33747W        W 6073   4.633   4.781  12.419
33748W        W 6074  15.106   3.209   3.175
33749W        W 6075  44.956  31.765  13.293
33750W        W 6076   5.675   9.149   2.767
33751W        W 6077  19.173  12.870  13.101
33752W        W 6078  44.523   5.142  14.791
33753W        W 6079  31.532  40.069   2.408
33754W        W 6080  33.999   8.756   1.132
33755W        W 6081  26.090  16.109  14.455
33756W        W 6082  29.230  41.126  11.068
33757W        W 6083  18.045  15.391  11.421
33758W        W 6084  28.238   6.455  14.309
33759W        W 6085   4.066  18.745   3.151
33760W        W 6086  21.508  39.624   1.447
33761W        W 6087   7.164  35.870   1.956
33762W        W 6088  15.801   4.192   4.360
33763W        W 6089  21.041   4.466  10.415
33764W        W 6090  33.105   6.252  13.527
33765W        W 6091   3.240  39.011  11.884
33766W        W 6092  22.135  37.870   1.904
33767W        W 6093  40.904  30.982   1.993
33768W        W 6094  42.510  37.602   1.390
33769W        W 6095  26.401  25.836  14.687
33770W        W 6096  27.133  11.761   4.873
33771W        W 6097  16.874  43.445   4.512
33772W        W 6098   4.368  17.416  14.541
33773W        W 6099  43.512  41.515   4.908
33774W        W 6100  28.470  15.280  14.520
33775W        W 6101  27.940  35.600   3.892
33776W        W 6102  40.473  37.492   4.218
33777W        W 6103  34.706  38.919  12.633
33778W        W 6104  29.532   2.239  12.886
33779W        W 6105  27.966   1.815   0.697
33780W        W 6106  36.444  19.489   3.551
33781W        W 6107  32.340  11.573   2.823
33782W        W 6108  43.031  29.162  12.909
33783W        W 6109  31.952  39.770  11.165
33784W        W 6110   1.038   0.806   4.145
33785W        W 6111  32.577  32.825   2.721
33786W        W 6112  35.741  25.123   3.786
33787W        W 6113  18.301  38.774  14.879
33788W        W 6114   0.021  20.771  11.598
33789W        W 6115  31.988  22.931   2.795
33790W        W 6116  44.973  10.174   1.886
33791W        W 6117   7.368   2.785  14.384
33792W        W 6118  36.065  37.809   1.203
33793W        W 6119  39.387   3.876   1.446
33794W        W 6120  17.542  41.534  13.033
33795W        W 6121  41.798  44.899  12.671
33796W        W 6122  17.459  37.121  11.288
33797W        W 6123  12.070   6.876  10.418
33798W        W 6124  22.100  26.079   4.956
33799W        W 6125  13.178  34.493  10.648
33800W        W 6126  27.391  34.915   3.602
33801W        W 6127  37.530  42.588  14.618
33802W        W 6128  34.839  38.827   0.301
33803W        W 6129  43.732  37.081   0.458
33804W        W 6130  23.693  33.048  14.377
33805W        W 6131  19.613  40.017   3.791
33806W        W 6132  41.500  21.127   0.267
33807W        W 6133  25.239  35.672  13.331
33808W        W 6134  11.319  30.604  10.604
33809W        W 6135  31.570  23.223   2.812
33810W        W 6136  10.881   4.508   1.047
33811W        W 6137   2.419  22.680   1.370
33812W        W 6138  43.820  33.905  11.519
33813W        W 6139  35.826  44.510  13.873
33814W        W 6140   5.048   1.295   0.821
33815W        W 6141  11.066  11.581  13.915
33816W        W 6142  26.527  16.217  13.567
33817W        W 6143   4.931  43.852   4.540
33818W        W 6144   4.030  32.019  14.690
33819W        W 6145  10.364  35.003  13.781
33820W        W 6146  23.566   6.864  11.249
33821W        W 6147  29.182   0.114   4.728
33822W        W 6148  24.004   6.781   1.911
33823W        W 6149  22.643  36.526   3.263
33824W        W 6150  31.954  23.459   4.082
33825W        W 6151  10.727  31.663  12.914
33826W        W 6152   4.910  20.016  14.414
33827W        W 6153  24.072  11.072  14.890
33828W        W 6154   2.423  43.522   2.307
33829W        W 6155   7.348   1.209   0.198
33830W        W 6156  33.297  34.574   3.301
33831W        W 6157  33.484  19.152   2.216
33832W        W 6158   0.856   2.984  13.518
33833W        W 6159   0.943  30.530   4.494
33834W        W 6160  36.520   0.031  10.416
33835W        W 6161  33.338  15.286   1.939
33836W        W 6162   3.673  36.876   2.607
33837W        W 6163  25.413  24.092   3.667
33838W        W 6164  40.316  35.263   3.753
33839W        W 6165   4.392  20.860   1.199
33840W        W 6166  40.838  24.558   4.222
33841W        W 6167  33.340   7.952  10.572
33842W        W 6168  24.042  37.967   0.007
33843W        W 6169  41.519  30.535   0.910
33844W        W 6170  27.005  19.093   3.439
33845W        W 6171  41.249  30.453  13.498
33846W        W 6172  27.537  30.382  10.650
33847W        W 6173  38.182  15.865   1.570
33848W        W 6174  13.328   3.649  13.494
33849W        W 6175  43.772  40.559  11.104
33850W        W 6176   1.913  30.670  13.322
33851W        W 6177  30.168  33.050   1.348
33852W        W 6178  44.500  27.248   1.915
33853W        W 6179   6.821  20.192   0.700
33854W        W 6180  21.086  43.450   2.374
33855W        W 6181  31.759  40.531   0.521
33856W        W 6182  43.925  43.533   2.183
33857W        W 6183  11.628   4.420   3.925
33858W        W 6184   1.494   1.417   4.461
33859W        W 6185  42.585  30.045  12.139
33860W        W 6186  39.791   0.432   1.761
33861W        W 6187   7.211  16.174  14.743
33862W        W 6188  34.853  36.707   1.684
33863W        W 6189  22.550   0.481  12.561
33864W        W 6190  39.430   6.835  10.638
33865W        W 6191  33.846   6.130  12.862
33866W        W 6192   4.017  39.924   3.145
33867W        W 6193  22.778  29.998  10.457
33868W        W 6194   0.809  42.025   3.710
33869W        W 6195  35.503  24.250  11.920
33870W        W 6196  20.186   0.793  12.450
33871W        W 6197  12.882   0.893  11.769
33872W        W 6198  17.139  28.049   0.898
33873W        W 6199  27.690  25.647   4.883
33874W        W 6200  38.430  32.577   3.721
33875W        W 6201  13.556  28.716   2.835
33876W        W 6202  35.047   8.302   4.633
33877W        W 6203  29.994  10.884  13.831
33878W        W 6204  22.106  36.666   1.272
33879W        W 6205  19.995   5.621   1.937
33880W        W 6206   5.199   0.284   0.872
33881W        W 6207  34.383  41.477  12.513
33882W        W 6208  44.070  37.908  12.289
33883W        W 6209  28.394  25.268  13.870
33884W        W 6210  19.788  41.471   1.297
33885W        W 6211  26.671  12.234  10.585
33886W        W 6212  40.849  27.743  10.524
33887W        W 6213  17.231  38.038  10.926
33888W        W 6214  26.989  28.247   4.530
33889W        W 6215  41.762  41.037   4.410
33890W        W 6216  34.850  16.777  11.559
33891W        W 6217  26.550  16.154   4.783
33892W        W 6218  15.399  20.777   4.269
33893W        W 6219   9.836  11.064  12.884
33894W        W 6220   3.380   9.264   4.817
33895W        W 6221  20.601   7.076   4.562
33896W        W 6222  11.059   6.886  13.968
33897W        W 6223   5.420  17.809  11.653
33898W        W 6224   0.232  32.925   0.730
33899W        W 6225  37.818   7.163   5.039
33900W        W 6226  34.370  25.025   2.104
33901W        W 6227  14.527   9.003  10.420
33902W        W 6228  12.185  25.987  14.939
33903W        W 6229  20.733  23.078  13.034
33904W        W 6230  29.965  27.022   0.930
33905W        W 6231   8.833  34.592  14.330
33906W        W 6232  39.755  16.962  12.106
33907W        W 6233  31.401  27.683   1.220
33908W        W 6234   1.645  43.238   3.983
33909W        W 6235  10.917   1.574   3.197
33910W        W 6236  36.380  35.898   9.844
33911W        W 6237  17.867  11.807  12.532
33912W        W 6238  26.135   0.233  12.536
33913W        W 6239  36.962  12.220  13.869
33914W        W 6240   4.305  35.674  11.113
33915W        W 6241  25.679  24.027  13.117
33916W        W 6242  15.741  16.860   0.753
33917W        W 6243   4.773  22.672   3.253
33918W        W 6244  13.768  42.881   0.931
33919W        W 6245   3.227  11.595  11.057
33920W        W 6246   6.536  25.159   2.111
33921W        W 6247   1.880  41.539  13.526
33922W        W 6248  15.203  16.845  11.939
33923W        W 6249  33.068  38.820  14.011
33924W        W 6250  31.947  23.785  11.983
33925W        W 6251  28.716  41.293   2.421
33926W        W 6252  11.731  36.620   2.886
33927W        W 6253  39.350  39.562   1.137
33928W        W 6254  37.878  17.629  10.653
33929W        W 6255   7.573  15.129  14.948
33930W        W 6256   8.165   2.317  12.608
33931W        W 6257  30.820  40.394   4.465
33932W        W 6258  17.610   5.004   2.635
33933W        W 6259  41.428  26.153  12.133
33934W        W 6260  42.647   0.011   3.035
33935W        W 6261  29.023  33.971   1.848
33936W        W 6262  22.492   4.496  10.320
33937W        W 6263  32.081  10.618  10.364
33938W        W 6264  11.931  14.385   1.373
33939W        W 6265  38.881  12.270  10.752
33940W        W 6266  44.037  23.222  11.028
33941W        W 6267  16.141  22.017   2.700
33942W        W 6268   3.855  13.800  12.473
33943W        W 6269  31.399  22.269   1.400
33944W        W 6270  11.375  18.083  11.538
33945W        W 6271  43.198  12.165  12.977
33946W        W 6272   7.414   8.748   3.542
33947W        W 6273   1.785  43.311   0.749
33948W        W 6274   4.769  15.247   3.108
33949W        W 6275   8.554  13.784   2.103
33950W        W 6276  13.159   5.538   2.933
33951W        W 6277  30.568  20.486  14.486
33952W        W 6278   5.490  44.381  12.985
33953W        W 6279  31.515  39.996   3.722
33954W        W 6280  32.902   0.297  11.042
33955W        W 6281  13.648  39.339  14.067
33956W        W 6282  17.236  38.771  11.806
33957W        W 6283  19.012   4.115   1.944
33958W        W 6284  31.026  16.133   0.963
33959W        W 6285  15.781  35.359  12.294
33960W        W 6286   8.169  24.534  12.570
33961W        W 6287  11.207   2.912   3.244
33962W        W 6288  22.915   2.803  11.079
33963W        W 6289  27.067  26.610  10.698
33964W        W 6290  16.289  31.018  14.946
33965W        W 6291  13.443  35.897   4.586
33966W        W 6292  26.512  26.912   4.572
33967W        W 6293  35.023  36.522  10.262
33968W        W 6294  25.730   0.903  11.469
33969W        W 6295   2.793  41.608  13.503
33970W        W 6296  26.699  14.283   0.390
33971W        W 6297  33.564  26.618   1.482
33972W        W 6298   9.198  11.249   3.651
33973W        W 6299  38.031   1.461   3.733
33974W        W 6300   6.076  18.383   9.915
33975W        W 6301  43.983  34.195  14.112
33976W        W 6302  42.690  42.506   4.092
33977W        W 6303  40.831  28.455   4.728
33978W        W 6304  16.382  27.445   4.339
33979W        W 6305  31.938  32.424  12.830
33980W        W 6306  23.237  44.068  10.988
33981W        W 6307  41.809  24.160   3.070
33982W        W 6308  29.263  17.513   2.203
33983W        W 6309  18.027  18.660   1.479
33984W        W 6310   8.801  39.089   2.410
33985W        W 6311  28.952  33.981   0.845
33986W        W 6312   7.397  17.166   2.688
33987W        W 6313  33.876  40.047  11.093
33988W        W 6314  24.432  16.956  10.234
33989W        W 6315   3.951  10.383   1.894
33990W        W 6316  27.017  25.402  13.463
33991W        W 6317  33.952  42.675   2.796
33992W        W 6318  36.522  41.772   2.603
33993W        W 6319  10.201  44.730   4.156
33994W        W 6320  41.459  42.354   4.648
33995W        W 6321  25.657  33.162   0.401
33996W        W 6322  13.276   3.741   2.686
33997W        W 6323  41.910  15.253  11.455
33998W        W 6324  28.253  28.436   1.980
33999W        W 6325   6.904  11.286   3.285
34000W        W 6326  16.275  27.583   4.831
34001W        W 6327  29.219  25.610  12.413
34002W        W 6328  28.510   2.715   4.556
34003W        W 6329  37.521  44.892  13.334
34004W        W 6330  10.136  11.334   0.346
34005W        W 6331  37.541   4.150   1.125
34006W        W 6332   4.455  42.372  13.571
34007W        W 6333  40.758  34.013   2.239
34008W        W 6334   0.076   1.839  12.882
34009W        W 6335  42.715  40.013  12.323
34010W        W 6336  44.033  44.355   1.316
34011W        W 6337  36.890  19.674   0.005
34012W        W 6338   5.423  43.748   4.441
34013W        W 6339   5.800   3.909   0.353
34014W        W 6340  10.182  34.544   3.170
34015W        W 6341  27.434   5.085  12.703
34016W        W 6342  42.466  14.598   1.823
34017W        W 6343  20.533  38.449  12.492
34018W        W 6344  41.544  27.598   3.636
34019W        W 6345  13.245  16.811   4.005
34020W        W 6346  40.976  20.235   0.069
34021W        W 6347   6.865   0.396   4.660
34022W        W 6348   9.954  43.951   0.929
34023W        W 6349  28.995  21.656   0.768
34024W        W 6350   3.188  13.036  11.629
34025W        W 6351   2.335  27.048   0.482
34026W        W 6352  10.571  20.270   3.687
34027W        W 6353  12.647  12.167  11.055
34028W        W 6354  27.471  28.917   3.711
34029W        W 6355  29.663  28.067   9.792
34030W        W 6356  15.669  41.330   1.681
34031W        W 6357  40.975  31.133  11.986
34032W        W 6358  43.484  27.561  10.547
34033W        W 6359   5.086  12.563  11.169
34034W        W 6360   0.895   0.452  10.641
34035W        W 6361  31.826  28.207   3.673
34036W        W 6362  12.039  19.818  12.391
34037W        W 6363  40.781  18.728  11.212
34038W        W 6364  29.428   2.988  14.930
34039W        W 6365  12.294  44.543   0.409
34040W        W 6366  30.544  40.726   1.875
34041W        W 6367  44.278  28.509   1.382
34042W        W 6368  20.075   1.412   3.871
34043W        W 6369  20.313  19.555  14.426
34044W        W 6370  26.100  43.667   2.888
34045W        W 6371  38.437  29.287   0.955
34046W        W 6372  13.009  35.631  11.077
34047W        W 6373  18.650   5.748   0.923
34048W        W 6374  13.075  33.452   4.614
34049W        W 6375  40.295  19.158   0.450
34050W        W 6376  16.830  36.335   4.876
34051W        W 6377  14.955  16.708   3.338
34052W        W 6378  32.947  41.423  12.679
34053W        W 6379  20.532  13.296  12.066
34054W        W 6380  32.143  37.378  13.988
34055W        W 6381  17.426   0.936  13.740
34056W        W 6382  36.366  13.766   3.880
34057W        W 6383   3.487  36.992   3.093
34058W        W 6384  40.759  36.056   0.265
34059W        W 6385  30.460  10.260   0.038
34060W        W 6386  30.937  31.001  11.300
34061W        W 6387  16.526  29.276   2.438
34062W        W 6388  18.898  39.644   1.271
34063W        W 6389  33.812   7.984   5.189
34064W        W 6390   4.447  26.644   0.401
34065W        W 6391  41.440  24.020  13.294
34066W        W 6392  16.096  31.469   4.419
34067W        W 6393  20.108  19.666   2.311
34068W        W 6394  25.510   2.165  13.819
34069W        W 6395   7.843   2.782   0.725
34070W        W 6396  32.080  43.262   1.190
34071W        W 6397  10.728  44.771  14.923
34072W        W 6398  21.842  20.535   0.482
34073W        W 6399  14.560   3.217   3.096
34074W        W 6400  14.378  20.164   4.616
34075W        W 6401  18.753  11.691   2.404
34076W        W 6402  28.450  14.687  12.060
34077W        W 6403  19.635  31.579  14.991
34078W        W 6404  20.514  31.146  11.890
34079W        W 6405  43.686   4.411  12.403
34080W        W 6406   4.259  35.587   0.761
34081W        W 6407   1.639   7.570  11.690
34082W        W 6408   2.620   5.479  10.937
34083W        W 6409  30.709  20.957  14.328
34084W        W 6410  35.541  21.344   3.419
34085W        W 6411  21.046  10.111  10.647
34086W        W 6412  20.499   4.762   4.993
34087W        W 6413  20.853   0.448   3.139
34088W        W 6414  31.857  26.000   0.920
34089W        W 6415  44.194  40.310  12.802
34090W        W 6416  44.987   2.169  13.873
34091W        W 6417  12.090  40.919   0.266
34092W        W 6418   1.110   6.690   3.610
34093W        W 6419  21.286   5.261   3.969
34094W        W 6420  14.306  33.327   1.444
34095W        W 6421  39.008  25.413   1.812
34096W        W 6422  26.231  10.828  11.729
34097W        W 6423  30.563  15.225   2.656
34098W        W 6424   2.483  34.941   2.245
34099W        W 6425  16.597  27.290   3.896
34100W        W 6426  19.548  12.828  14.785
34101W        W 6427  12.143  24.362  12.558
34102W        W 6428  42.462  40.929   3.230
34103W        W 6429  11.081   0.480  11.542
34104W        W 6430  31.553  17.746   3.698
34105W        W 6431  38.019  26.126   1.214
34106W        W 6432  33.386  35.615   2.473
34107W        W 6433  31.693  43.834   0.420
34108W        W 6434  16.824  20.452   0.962
34109W        W 6435  37.215  32.543   1.296
34110W        W 6436  17.594   3.218   1.165
34111W        W 6437   4.137  22.929  10.923
34112W        W 6438  12.343  29.279  14.885
34113W        W 6439  34.682  24.974   1.214
34114W        W 6440  43.845  29.187   2.539
34115W        W 6441   8.258  31.996  12.195
34116W        W 6442  15.268  23.091   2.343
34117W        W 6443  22.560   7.847   4.622
34118W        W 6444   4.737  35.520  12.387
34119W        W 6445  33.604   6.635   3.268
34120W        W 6446  12.347  26.974   2.341
34121W        W 6447  15.198  12.359   3.561
34122W        W 6448  44.992  15.219   2.638
34123W        W 6449  18.155  44.737   3.298
34124W        W 6450  31.597  41.853  14.145
34125W        W 6451  28.471  43.381   3.386
34126W        W 6452  28.264  38.027  13.134
34127W        W 6453  12.411   0.923  11.968
34128W        W 6454   4.267  18.724   2.665
34129W        W 6455  27.725  11.247  11.691
34130W        W 6456  29.486  14.985   0.958
34131W        W 6457  24.696  23.444   3.863
34132W        W 6458  44.880  22.847   3.717
34133W        W 6459  29.026  17.128  13.413
34134W        W 6460  42.037  25.165   0.801
34135W        W 6461   3.678   5.281   0.725
34136W        W 6462  16.171  23.755   0.273
34137W        W 6463  16.193   8.595   0.476
34138W        W 6464  11.350  37.129  13.759
34139W        W 6465  24.066  39.095   5.093
34140W        W 6466  38.063  36.843   0.571
34141W        W 6467  33.328  24.815  14.685
34142W        W 6468   2.732  13.774  10.577
34143W        W 6469  13.850  43.001  10.399
34144W        W 6470  20.860  18.593  14.306
34145W        W 6471  23.780  20.026   2.216
34146W        W 6472  34.930  16.743   2.197
34147W        W 6473  21.643  12.397  10.858
34148W        W 6474  12.182  21.310  14.219
34149W        W 6475  13.241  33.499   2.749
34150W        W 6476  23.674  24.415   1.230
34151W        W 6477  18.685   8.974  10.345
34152W        W 6478  25.762  10.421   4.626
34153W        W 6479  16.388  25.913   4.331
34154W        W 6480  21.492  31.212   1.416
34155W        W 6481  18.707  37.745   5.077
34156W        W 6482  34.778   0.754  11.422
34157W        W 6483  38.995  30.898   5.051
34158W        W 6484   3.323  33.432  12.081
34159W        W 6485  29.370  22.493   3.741
34160W        W 6486  23.677  13.074  11.460
34161W        W 6487   2.280  25.130   0.940
34162W        W 6488  37.146  10.859  11.341
34163W        W 6489  27.472  37.436  11.946
34164W        W 6490  13.536  15.331   4.651
34165W        W 6491  39.563  25.187  14.208
34166W        W 6492  42.841  44.955   4.374
34167W        W 6493  28.376   1.124  13.923
34168W        W 6494  23.103   5.298   4.990
34169W        W 6495  20.169  15.609   2.323
34170W        W 6496  37.405  18.817   1.479
34171W        W 6497   2.391  17.764  14.358
34172W        W 6498  32.827  33.495  14.319
34173W        W 6499  24.326  10.126  10.684
34174W        W 6500  43.924  13.571   0.795
34175W        W 6501   9.687   2.193   2.318
34176W        W 6502  13.577   2.975  11.566
34177W        W 6503  23.305  15.664   9.876
34178W        W 6504   3.367   6.663  11.425
34179W        W 6505  30.457  34.626   0.694
34180W        W 6506   9.683  19.635   2.175
34181W        W 6507  41.495  25.569  10.605
34182W        W 6508  32.984  29.859   2.314
34183W        W 6509   2.190  38.117  10.404
34184W        W 6510  12.810  28.123   4.695
34185W        W 6511  23.535  30.516  14.030
34186W        W 6512  43.206  15.523   0.098
34187W        W 6513   1.127  27.886  14.720
34188W        W 6514  10.836  12.102   2.207
34189W        W 6515  24.060   1.232   4.969
34190W        W 6516  44.674  43.812   2.254
34191W        W 6517   6.960  25.566  12.724
34192W        W 6518  15.250  30.608   3.802
34193W        W 6519  28.712  36.500  12.014
34194W        W 6520   3.149  30.541  14.988
34195W        W 6521  41.901  27.981   4.041
34196W        W 6522  40.467  36.098  13.560
34197W        W 6523  16.341   8.241  11.124
34198W        W 6524  44.492  16.334   4.690
34199W        W 6525   3.163   9.393  11.525
34200W        W 6526  31.791  37.528   5.088
34201W        W 6527  26.109  41.833  12.531
34202W        W 6528   3.198  28.671   2.888
34203W        W 6529  14.446  21.340  10.929
34204W        W 6530  24.477   9.759  14.073
34205W        W 6531   6.860  38.134   0.996
34206W        W 6532   7.152   0.232  10.725
34207W        W 6533  10.382  24.030  13.598
34208W        W 6534  24.208  27.753  11.195
34209W        W 6535  40.972  11.908   1.916
34210W        W 6536  35.321   2.095  12.895
34211W        W 6537   9.276  35.365  11.630
34212W        W 6538  36.319  41.047  14.253
34213W        W 6539  25.403  17.154   4.132
34214W        W 6540   2.090  20.220   2.661
34215W        W 6541  13.312  21.579  10.811
34216W        W 6542   3.361  23.671   0.950
34217W        W 6543  11.904  12.158   0.855
34218W        W 6544  28.008  16.076  14.559
34219W        W 6545  32.233  14.878   3.091
34220W        W 6546   3.959  30.998  14.917
34221W        W 6547  35.063  23.414  13.386
34222W        W 6548   2.856   7.208   0.935
34223W        W 6549   6.156   9.299   0.121
34224W        W 6550  32.226  26.375   1.784
34225W        W 6551  17.091  30.341   1.859
34226W        W 6552  15.344   5.307   2.684
34227W        W 6553  18.117  30.736   1.144
34228W        W 6554  31.904   4.449   3.810
34229W        W 6555   5.189  24.203   0.788
34230W        W 6556   1.391  38.247  12.947
34231W        W 6557  26.988  26.738  11.203
34232W        W 6558  39.027   3.124  11.171
34233W        W 6559  26.232   2.418  12.256
34234W        W 6560  44.268  22.564   4.482
34235W        W 6561   6.334   1.842   0.571
34236W        W 6562   2.533  40.011  12.867
34237W        W 6563  38.295  19.614   1.386
34238W        W 6564  18.613  29.616   0.230
34239W        W 6565  44.835  10.152   0.483
34240W        W 6566  21.084  29.492  11.189
34241W        W 6567  20.776  10.255  14.713
34242W        W 6568  27.066  20.537  12.872
34243W        W 6569  36.224  20.268  14.986
34244W        W 6570  44.762   0.539   4.477
34245W        W 6571   4.863  22.311  11.859
34246W        W 6572  11.984  31.982   2.309
34247W        W 6573   6.914  38.907   4.557
34248W        W 6574  15.156  28.227   2.445
34249W        W 6575   8.020   3.320   2.486
34250W        W 6576   9.795  20.018   4.923
34251W        W 6577  39.939  40.025  11.096
34252W        W 6578  27.245  36.527  12.440
34253W        W 6579  30.745  34.764  11.396
34254W        W 6580  31.380  18.524  13.857
34255W        W 6581  17.658  10.594  13.011
34256W        W 6582   4.991  17.539  11.966
34257W        W 6583  20.598  36.846  12.523
34258W        W 6584  37.457  42.275   2.252
34259W        W 6585  15.503  44.803   2.391
34260W        W 6586  38.250  31.455  10.419
34261W        W 6587   3.401  24.719   3.479
34262W        W 6588  29.050   4.682   0.263
34263W        W 6589  37.955  33.799   4.518
34264W        W 6590   2.228  26.838  13.072
34265W        W 6591   3.727  32.311  14.352
34266W        W 6592   3.797  13.854   0.351
34267W        W 6593   5.297  16.693   0.480
34268W        W 6594  24.705   4.662  11.340
34269W        W 6595  14.794  35.246  10.658
34270W        W 6596  19.142  36.485  12.819
34271W        W 6597  31.751  29.769   2.426
34272W        W 6598  10.117  10.306   0.455
34273W        W 6599  20.366   7.748  13.289
34274W        W 6600  18.512   3.249  12.917
34275W        W 6601   7.720  18.481   0.620
34276W        W 6602  24.550  33.391   0.410
34277W        W 6603  19.550   1.753  10.804
34278W        W 6604   9.197  34.171  13.097
34279W        W 6605  41.650   1.442  11.992
34280W        W 6606  44.919  12.558   3.254
34281W        W 6607  25.077  37.357   3.416
34282W        W 6608   5.643  27.936  12.574
34283W        W 6609   6.845  16.636   3.575
34284W        W 6610  29.146   2.213  12.435
34285W        W 6611  16.446   4.848   3.475
34286W        W 6612  11.685   5.332  11.405
34287W        W 6613   5.364  30.403   3.270
34288W        W 6614  23.010  39.079  12.998
34289W        W 6615   7.849  35.317  13.341
34290W        W 6616  28.423  29.165  12.937
34291W        W 6617  29.948   9.760  14.452
34292W        W 6618   8.822  20.022   2.367
34293W        W 6619  28.063  21.662  11.047
34294W        W 6620  36.591  13.555  10.850
34295W        W 6621  32.875  42.544   4.223
34296W        W 6622   2.704  31.663   4.100
34297W        W 6623  22.224  27.695   2.976
34298W        W 6624  20.686  30.938  13.263
34299W        W 6625  26.606  15.332   1.205
34300W        W 6626  17.183  10.275  12.948
34301W        W 6627  22.273  37.773  12.559
34302W        W 6628  31.135  38.542  14.885
34303W        W 6629  37.035  31.252   1.475
34304W        W 6630  32.190  28.054   0.390
34305W        W 6631  14.248  23.884   4.570
34306W        W 6632  23.027  41.057   3.839
34307W        W 6633  26.950   5.307  14.025
34308W        W 6634  25.739  15.599  13.110
34309W        W 6635  19.550  44.361  13.914
34310W        W 6636   8.102  15.826   0.716
34311W        W 6637  32.041   5.279   1.721
34312W        W 6638  39.503  33.590  11.580
34313W        W 6639  10.449   1.821   0.728
34314W        W 6640  18.203  20.765   3.252
34315W        W 6641  40.574  12.510  10.216
34316W        W 6642   4.567  41.299   4.216
34317W        W 6643  28.151  25.831   4.551
34318W        W 6644  26.694  17.802  14.356
34319W        W 6645  18.112  13.497  13.573
34320W        W 6646  29.407  28.478  14.892
34321W        W 6647  38.005  29.764  10.813
34322W        W 6648  23.649  13.675  10.694
34323W        W 6649  43.306  22.012   0.842
34324W        W 6650   6.624  40.051  11.604
34325W        W 6651  21.273  34.891  13.238
34326W        W 6652  39.220  42.610  14.900
34327W        W 6653  42.981  34.633   3.371
34328W        W 6654   5.352  27.987   0.779
34329W        W 6655  14.823  18.849  12.531
34330W        W 6656  29.998  31.463   4.677
34331W        W 6657   1.551  40.904   0.536
34332W        W 6658  33.435  25.332  14.553
34333W        W 6659  41.843  17.117   4.521
34334W        W 6660  40.920  24.596  13.872
34335W        W 6661  14.319  34.109   0.833
34336W        W 6662   9.305  31.450   2.326
34337W        W 6663  39.407  29.664   2.451
34338W        W 6664  42.541  17.977   1.681
34339W        W 6665  17.207   0.005  10.848
34340W        W 6666  37.875  23.457  12.007
34341W        W 6667  12.232   5.233   0.292
34342W        W 6668  29.004  42.863   1.453
34343W        W 6669  31.643  44.920   0.756
34344W        W 6670  35.149  42.004   2.145
34345W        W 6671  13.781  33.962  14.619
34346W        W 6672  29.468  31.582   0.828
34347W        W 6673  26.683  14.352  14.384
34348W        W 6674   4.397  43.029  11.074
34349W        W 6675  43.884  30.966  10.344
34350W        W 6676  41.117  33.856   3.186
34351W        W 6677  39.948  23.010   3.163
34352W        W 6678  38.111  20.621   0.711
34353W        W 6679  18.149  44.033   1.211
34354W        W 6680   7.867  42.539  14.167
34355W        W 6681  22.355  29.008   4.211
34356W        W 6682  30.462  43.048  11.155
34357W        W 6683  18.552  43.797   3.294
34358W        W 6684  38.941  28.947   0.371
34359W        W 6685  44.715   5.731  11.750
34360W        W 6686  32.970   0.863   4.300
34361W        W 6687   0.922   4.711  14.234
34362W        W 6688  26.681  16.642  12.857
34363W        W 6689  37.007  23.511   4.598
34364W        W 6690  16.214  17.070   0.911
34365W        W 6691  20.624  42.462   2.862
34366W        W 6692   6.942  23.573  10.704
34367W        W 6693   9.272  35.291   3.332
34368W        W 6694   1.728  40.980   1.880
34369W        W 6695  22.897  29.668  13.048
34370W        W 6696  35.535   6.996  13.790
34371W        W 6697  35.662  36.059   3.859
34372W        W 6698   1.534  41.154  12.193
34373W        W 6699   7.514  40.552   3.467
34374W        W 6700   7.165  30.619  10.610
34375W        W 6701  39.350  26.139  12.490
34376W        W 6702  36.757  25.027   3.875
34377W        W 6703  21.494  17.318   0.348
34378W        W 6704   9.942  14.561   3.183
34379W        W 6705   2.853  27.565  13.464
34380W        W 6706  28.034  13.257  11.628
34381W        W 6707   8.946  35.837   2.555
34382W        W 6708   0.178  32.306  12.851
34383W        W 6709   1.959  17.246  14.007
34384W        W 6710  34.527  28.331   2.752
34385W        W 6711  11.895  29.464   0.728
34386W        W 6712  14.861  13.087   1.766
34387W        W 6713  19.117  32.160  11.615
34388W        W 6714  28.960  25.034  13.089
34389W        W 6715  32.471  32.235  10.655
34390W        W 6716  13.520  32.266  12.419
34391W        W 6717  38.976   7.349   3.534
34392W        W 6718  30.632  13.600   3.925
34393W        W 6719  34.264  34.387  14.917
34394W        W 6720  22.961  29.407  13.942
34395W        W 6721  43.087  10.249   0.636
34396W        W 6722  37.451  20.261   1.304
34397W        W 6723  19.482  15.835  11.150
34398W        W 6724  28.068   9.302   0.613
34399W        W 6725  39.373  35.138  12.959
34400W        W 6726  31.604   1.216  11.953
34401W        W 6727  11.804  18.071   2.189
34402W        W 6728   4.226  24.557  12.937
34403W        W 6729  41.551  30.473   3.716
34404W        W 6730  31.593  35.574   2.851
34405W        W 6731  43.825  16.831  12.886
34406W        W 6732  35.413  25.986  13.942
34407W        W 6733  15.207  21.542  13.280
34408W        W 6734  24.251   8.207  13.880
34409W        W 6735  10.350   9.308  11.116
34410W        W 6736  22.171   7.018  12.560
34411W        W 6737  40.327  32.827   1.227
34412W        W 6738  10.888  33.456   2.928
34413W        W 6739  13.262  18.998  11.100
34414W        W 6740  39.479  35.923   4.962
34415W        W 6741  30.223  13.634  12.923
34416W        W 6742  37.613  18.208  12.531
34417W        W 6743  17.671  25.723   2.107
34418W        W 6744  17.497  41.087   4.198
34419W        W 6745  20.221  36.474  13.884
34420W        W 6746  26.841   4.687   9.836
34421W        W 6747  11.271   1.482   2.139
34422W        W 6748  10.206  27.055   4.049
34423W        W 6749  39.313  36.040  13.907
34424W        W 6750  32.945  31.852   0.115
34425W        W 6751   5.976  41.954  11.461
34426W        W 6752   8.364  44.231   3.366
34427W        W 6753  36.621   9.632   4.704
34428W        W 6754  28.480  35.634  13.462
34429W        W 6755  15.011  24.221   1.213
34430W        W 6756  31.348   6.301   2.891
34431W        W 6757  36.398  20.166   0.789
34432W        W 6758  30.089   6.925   4.881
34433W        W 6759  14.659  33.092  12.010
34434W        W 6760  26.814  17.740  13.855
34435W        W 6761  18.662  44.536  10.810
34436W        W 6762  17.251  30.858   1.917
34437W        W 6763   4.886  12.816   4.330
34438W        W 6764  15.637   6.481   2.213
34439W        W 6765  14.922  18.574   4.110
34440W        W 6766  24.020  24.274   2.575
34441W        W 6767  19.613  44.253   0.279
34442W        W 6768  39.344  32.036  13.002
34443W        W 6769  40.097  24.619   2.703
34444W        W 6770   0.417   8.269   1.773
34445W        W 6771   7.604  17.089  11.433
34446W        W 6772  33.659  16.119  14.381
34447W        W 6773   1.457  10.380   2.977
34448W        W 6774  42.838  21.102   0.975
34449W        W 6775  18.104  35.863   2.260
34450W        W 6776  40.622  38.445   4.583
34451W        W 6777  23.628   4.187  11.082
34452W        W 6778  35.647  13.526  13.186
34453W        W 6779  17.580  15.357   0.475
34454W        W 6780   5.383  31.555  13.961
34455W        W 6781  27.810  23.329   0.807
34456W        W 6782  41.182   8.971   4.479
34457W        W 6783  15.686  29.865  14.770
34458W        W 6784  23.688  41.479  14.442
34459W        W 6785  44.207  11.413  10.703
34460W        W 6786  15.204  10.089  10.515
34461W        W 6787  13.834  26.611   4.292
34462W        W 6788   4.261   8.962   3.228
34463W        W 6789  18.631  31.938   3.345
34464W        W 6790   0.995  29.418  14.798
34465W        W 6791  19.682  11.328   3.291
34466W        W 6792  11.505  32.319  14.272
34467W        W 6793  34.459  28.934  11.855
34468W        W 6794  43.916  35.286  12.849
34469W        W 6795  28.691  23.185  13.393
34470W        W 6796  31.115  17.125   0.915
34471W        W 6797   6.297  37.469  12.888
34472W        W 6798  10.177  14.142   4.090
34473W        W 6799  35.753  34.709   0.815
34474W        W 6800  12.855  10.725   3.565
34475W        W 6801  14.747  13.165  12.894
34476W        W 6802   4.932  32.398  14.808
34477W        W 6803  23.669  15.309   4.162
34478W        W 6804  13.991  22.737  11.788
34479W        W 6805  18.685  16.555  13.333
34480W        W 6806   2.638   8.306   3.331
34481W        W 6807  32.822  11.054  12.047
34482W        W 6808  34.479   3.265  13.299
34483W        W 6809  17.830  21.943  10.741
34484W        W 6810  16.814  17.759   0.914
34485W        W 6811   4.811   4.618  11.111
34486W        W 6812   8.877   6.309  14.991
34487W        W 6813  34.108  22.495  13.475
34488W        W 6814  18.744   8.463  10.472
34489W        W 6815   4.927   2.695   4.479
34490W        W 6816  13.405   7.914   0.890
34491W        W 6817  28.506  23.389  10.988
34492W        W 6818  36.007  44.836   1.636
34493W        W 6819  20.495  33.467  11.456
34494W        W 6820  13.698  41.083  10.949
34495W        W 6821  38.239  19.798   2.795
34496W        W 6822  19.507  27.031   0.136
34497W        W 6823  40.023   4.273   3.548
34498W        W 6824  36.858  20.201  14.238
34499W        W 6825  10.128  37.024   2.237
34500W        W 6826  34.322  23.570  10.952
34501W        W 6827  15.170   9.637   0.321
34502W        W 6828  41.317  22.593   2.785
34503W        W 6829  37.823   3.231   0.672
34504W        W 6830  12.733  19.576  10.745
34505W        W 6831  35.583  19.077  13.489
34506W        W 6832  44.519  30.439   1.321
34507W        W 6833  18.443  23.936   0.885
34508W        W 6834  20.741  30.475   3.601
34509W        W 6835  28.486   3.798  11.018
34510W        W 6836  11.598  33.409   0.795
34511W        W 6837  12.975   6.691  10.771
34512W        W 6838  28.609  42.545   2.797
34513W        W 6839   4.418  19.969  11.135
34514W        W 6840   5.153  33.760   1.415
34515W        W 6841  20.540  34.611   1.772
34516W        W 6842  15.728   5.438  10.704
34517W        W 6843  39.922  38.384  13.801
34518W        W 6844  39.943  24.717   1.791
34519W        W 6845  33.885  21.260  10.669
34520W        W 6846  27.496  28.991  10.047
34521W        W 6847   2.199  34.934   3.946
34522W        W 6848   6.422  17.419   4.940
34523W        W 6849  12.085   5.802   2.863
34524W        W 6850  22.823  41.888   1.220
34525W        W 6851  23.936  14.243   3.397
34526W        W 6852  18.632  29.443  11.890
34527W        W 6853  34.123   5.729   0.581
34528W        W 6854  26.075   7.180   3.947
34529W        W 6855  19.632   9.588  11.138
34530W        W 6856  15.097   8.813   1.812
34531W        W 6857  36.378   8.810   1.651
34532W        W 6858  13.744  15.724   3.823
34533W        W 6859  37.812  41.125   3.828
34534W        W 6860  13.773  22.997   4.809
34535W        W 6861  21.606  44.516  10.211
34536W        W 6862  19.093   6.679  13.957
34537W        W 6863  39.880  18.523   2.472
34538W        W 6864   1.655  24.031   3.093
34539W        W 6865  28.070  21.729   1.615
34540W        W 6866   0.189  44.891   3.676
34541W        W 6867  36.862  34.844  11.568
34542W        W 6868   8.174  36.536   0.005
34543W        W 6869  18.581  10.318   4.845
34544W        W 6870  31.439  33.927   1.668
34545W        W 6871  43.488  31.052   4.646
34546W        W 6872  18.760  31.415   4.187
34547W        W 6873  13.810  24.263  11.967
34548W        W 6874  21.508  37.312  10.662
34549W        W 6875   2.454  12.144   5.288
34550W        W 6876  29.281  35.842   1.301
34551W        W 6877  16.414  33.072   3.908
34552W        W 6878  39.939  41.557  13.313
34553W        W 6879  14.575  31.491  11.187
34554W        W 6880  13.304   0.697  10.740
34555W        W 6881  25.191   8.794  14.270
34556W        W 6882  42.816  34.549   0.463
34557W        W 6883   7.995  37.674  13.177
34558W        W 6884  12.098  37.016  10.502
34559W        W 6885  44.557  29.942   0.434
34560W        W 6886  26.928  36.447   0.189
34561W        W 6887   3.225   4.834  13.581
34562W        W 6888  39.448  23.996  12.655
34563W        W 6889  26.265  37.372   4.624
34564W        W 6890   4.639  39.376  11.587
34565W        W 6891   2.191  36.100  12.008
34566W        W 6892   6.961   6.571   0.966
34567W        W 6893  16.043   0.731   2.185
34568W        W 6894   8.131  25.572  13.751
34569W        W 6895  27.026  42.453   4.561
34570W        W 6896   0.276   1.182   2.668
34571W        W 6897  42.510  20.090  14.601
34572W        W 6898  12.857   1.845   4.732
34573W        W 6899  17.318  24.063   4.317
34574W        W 6900  40.373   1.717   3.791
34575W        W 6901   6.924  32.924   2.205
34576W        W 6902  37.000  36.347   3.268
34577W        W 6903   6.824  40.908  12.123
34578W        W 6904  38.785  31.568   1.744
34579W        W 6905  15.072  19.820  12.883
34580W        W 6906  38.862  27.891  11.486
34581W        W 6907  44.860  34.687  11.274
34582W        W 6908  42.563  12.920  11.116
34583W        W 6909  12.287  41.980  12.933
34584W        W 6910  18.772  38.778   2.385
34585W        W 6911  18.222  11.672  13.323
34586W        W 6912   9.656   8.118  14.905
34587W        W 6913  26.527  18.155  14.015
34588W        W 6914   6.459  15.112   3.407
34589W        W 6915  29.201  30.143  11.966
34590W        W 6916   0.448  37.857  12.583
34591W        W 6917  14.615  23.454   3.680
34592W        W 6918  17.144  35.406   1.307
34593W        W 6919  42.398   5.524  13.403
34594W        W 6920  39.345  11.089   3.886
34595W        W 6921  42.444  29.891  10.975
34596W        W 6922  22.009  28.220  14.771
34597W        W 6923  24.760  39.435   1.656
34598W        W 6924  33.964   9.410  13.334
34599W        W 6925   3.272   1.413   0.173
34600W        W 6926  31.256  12.829  14.955
34601W        W 6927  14.199   0.231   4.150
34602W        W 6928  28.035  34.446  10.290
34603W        W 6929  41.889  32.384  11.784
34604W        W 6930  29.127   5.772   3.633
34605W        W 6931  32.159  34.098   0.996
34606W        W 6932   1.356  41.398  13.356
34607W        W 6933  28.431  28.754   1.052
34608W        W 6934  21.690  21.037   0.436
34609W        W 6935  11.808   5.297   2.117
34610W        W 6936  21.247  27.479  12.912
34611W        W 6937  37.113   2.349  12.033
34612W        W 6938   7.925  41.833  10.689
34613W        W 6939  14.081  39.976   0.800
34614W        W 6940  40.052   9.770   4.461
34615W        W 6941   2.791  43.988  11.390
34616W        W 6942   8.190  10.959   3.272
34617W        W 6943  13.282  38.409  13.266
34618W        W 6944  26.055  42.186   4.266
34619W        W 6945   4.892  15.459   3.816
34620W        W 6946  26.131  12.880  11.034
34621W        W 6947   7.974   5.904  13.019
34622W        W 6948  28.202   5.723   3.399
34623W        W 6949  34.977   7.003   2.277
34624W        W 6950  41.957  33.143   0.335
34625W        W 6951  12.876   5.895  13.862
34626W        W 6952  30.673   9.446  13.508
34627W        W 6953   6.205  22.620   3.125
34628W        W 6954  34.638  42.627  14.309
34629W        W 6955  43.061   0.196  14.768
34630W        W 6956  19.279  36.092  14.196
34631W        W 6957  26.271  13.826   2.784
34632W        W 6958  21.936  16.733   4.310
34633W        W 6959  34.643  19.455   2.861
34634W        W 6960  11.655  14.608  13.743
34635W        W 6961  21.497  35.000  13.721
34636W        W 6962  43.930  13.262  12.321
34637W        W 6963  15.146  25.619   0.927
34638W        W 6964  21.205  33.054   1.986
34639W        W 6965  32.559  37.052  12.441
34640W        W 6966  24.240  14.971  11.236
34641W        W 6967   5.207  16.703  10.871
34642W        W 6968  22.272  26.005  10.324
34643W        W 6969  21.711   1.960  12.138
34644W        W 6970  42.540   9.170   1.239
34645W        W 6971   8.230   2.031  14.954
34646W        W 6972   4.647  34.131   0.243
34647W        W 6973  41.911  33.958  12.047
34648W        W 6974   5.707  16.142   3.626
34649W        W 6975   2.213  10.540  12.887
34650W        W 6976  19.049  27.386  14.920
34651W        W 6977  14.899  36.172   3.647
34652W        W 6978   7.953  40.760   3.709
34653W        W 6979  42.496  21.074  13.427
34654W        W 6980   6.325  36.692  13.877
34655W        W 6981   2.454  33.944  13.942
34656W        W 6982  29.098  23.956   2.040
34657W        W 6983  43.042  42.068   1.246
34658W        W 6984  20.159   3.938  14.912
34659W        W 6985  34.563  11.569   4.680
34660W        W 6986  40.346   6.889  12.668
34661W        W 6987  30.304   7.513   4.242
34662W        W 6988   0.720  19.327   0.651
34663W        W 6989  36.755  31.488  11.585
34664W        W 6990  35.360  27.988   1.964
34665W        W 6991  30.583  22.154  11.055
34666W        W 6992  10.270  15.984   3.903
34667W        W 6993  25.202  23.195   1.442
34668W        W 6994  31.633  11.835  14.438
34669W        W 6995  31.940  24.035  14.882
34670W        W 6996  19.107  15.183  14.519
34671W        W 6997  34.778  28.083   3.354
34672W        W 6998  11.249  13.955  12.448
34673W        W 6999  22.509  20.989  13.362
34674W        W 7000  29.289   9.513   1.686
34675W        W 7001  14.129  31.144  14.365
34676W        W 7002  34.091  24.459   1.459
34677W        W 7003  10.883  35.486   2.353
34678W        W 7004  37.308  42.990   3.688
34679W        W 7005  14.335  40.799  12.590
34680W        W 7006  29.149  35.253   0.465
34681W        W 7007  34.052  22.835   0.395
34682W        W 7008  19.154  18.046   0.202
34683W        W 7009   2.841  32.671   1.645
34684W        W 7010  28.696  34.353   0.588
34685W        W 7011  16.539  13.339   4.021
34686W        W 7012  21.990  42.062  13.905
34687W        W 7013  17.155  27.458  12.668
34688W        W 7014   8.570   1.807  12.411
34689W        W 7015  17.783   9.551   3.864
34690W        W 7016  31.529  36.030   3.086
34691W        W 7017   7.187  10.614  12.315
34692W        W 7018  43.365  28.709  12.904
34693W        W 7019  23.638  20.014   4.142
34694W        W 7020  22.803  44.724  12.238
34695W        W 7021  38.128  25.799   3.132
34696W        W 7022   6.414   8.706   3.662
34697W        W 7023  15.327  35.330  11.567
34698W        W 7024  21.583  23.988  14.019
34699W        W 7025  36.425  20.952  10.176
34700W        W 7026  20.702  28.464  14.955
34701W        W 7027  31.860  28.002  13.360
34702W        W 7028   3.139  12.228   2.852
34703W        W 7029  26.421  17.850  13.550
34704W        W 7030  31.111  19.021   1.512
34705W        W 7031  20.808   1.419  11.020
34706W        W 7032  19.315   2.415   0.420
34707W        W 7033   0.366   7.704   1.847
34708W        W 7034  39.565   8.190  12.170
34709W        W 7035  37.709   9.865   5.093
34710W        W 7036  10.261  28.186  11.118
34711W        W 7037  14.640   2.519  14.522
34712W        W 7038  40.119   6.159  11.492
34713W        W 7039  12.233  18.224   0.882
34714W        W 7040  31.903  27.066   2.844
34715W        W 7041  39.279  28.008   1.130
34716W        W 7042  10.807   4.415   3.628
34717W        W 7043   8.158  10.526   2.414
34718W        W 7044  12.589  36.256  14.365
34719W        W 7045  19.214   2.510   3.367
34720W        W 7046  12.214   7.306  11.219
34721W        W 7047   7.319   2.910   0.796
34722W        W 7048  30.557  23.958  12.930
34723W        W 7049   0.440  39.235  13.444
34724W        W 7050  39.099  24.011   4.185
34725W        W 7051  24.080  21.789  10.684
34726W        W 7052  11.518  33.292   4.575
34727W        W 7053  40.981  37.563   4.234
34728W        W 7054  31.976  35.034   4.571
34729W        W 7055  19.076  24.114   2.659
34730W        W 7056  13.658  19.040   2.382
34731W        W 7057  36.301   9.115  14.786
34732W        W 7058   8.891  11.689   2.927
34733W        W 7059  43.919  42.865  13.013
34734W        W 7060   2.409  31.017   2.348
34735W        W 7061  39.197  19.174  11.871
34736W        W 7062  13.032  42.772   4.081
34737W        W 7063  19.112  39.688   0.797
34738W        W 7064  17.742   4.197   1.476
34739W        W 7065  10.628  27.269   3.837
34740W        W 7066  42.867  35.443  13.980
34741W        W 7067  13.704   1.404  10.723
34742W        W 7068   4.816  25.204  13.465
34743W        W 7069   7.071  36.387   4.196
34744W        W 7070  37.788   0.396   3.587
34745W        W 7071  16.146   2.963  14.830
34746W        W 7072  20.237  44.380  12.137
34747W        W 7073  31.213  12.599   3.574
34748W        W 7074  27.044   6.230   0.239
34749W        W 7075   2.792  22.788  10.549
34750W        W 7076  21.669  18.560   1.272
34751W        W 7077  10.358   9.096   3.619
34752W        W 7078   0.033  41.911   1.463
34753W        W 7079  35.487   1.840   3.231
34754W        W 7080  13.900  39.894   1.264
34755W        W 7081  39.944  13.570  13.840
34756W        W 7082  44.994  15.653  14.603
34757W        W 7083  34.873  33.802  11.550
34758W        W 7084  21.599   8.311   2.772
34759W        W 7085  32.249   3.304   2.829
34760W        W 7086  22.533  14.170  12.867
34761W        W 7087  22.137  24.427   0.742
34762W        W 7088  27.955   9.519  11.048
34763W        W 7089  38.862  34.906   3.637
34764W        W 7090  12.094   6.117  13.513
34765W        W 7091   1.872  11.873  14.176
34766W        W 7092  39.178   1.349  14.253
34767W        W 7093  39.437  29.911  12.532
34768W        W 7094  25.166  38.755   3.337
34769W        W 7095  20.900   8.227   2.114
34770W        W 7096   1.734  34.867   3.247
34771W        W 7097  41.345  10.730   4.748
34772W        W 7098   8.426   6.722  11.708
34773W        W 7099  43.587   5.964  13.547
34774W        W 7100  34.324  31.504  14.624
34775W        W 7101  16.127  37.399  14.772
34776W        W 7102  19.306  28.914   1.239
34777W        W 7103  38.734  44.811   2.438
34778W        W 7104  14.204  29.792   1.270
34779W        W 7105   3.527  11.336   1.049
34780W        W 7106  22.543  39.319  11.092
34781W        W 7107   0.098  27.510  14.421
34782W        W 7108  30.685   6.465  11.138
34783W        W 7109  33.538  28.445   0.456
34784W        W 7110  21.102  44.477   0.442
34785W        W 7111   7.146   1.387  12.524
34786W        W 7112  39.823  31.449   4.144
34787W        W 7113  19.063  26.828   3.199
34788W        W 7114  18.096  32.112   1.305
34789W        W 7115   2.931  19.947   3.259
34790W        W 7116  44.674  26.965   5.074
34791W        W 7117  43.960  30.997  13.923
34792W        W 7118  25.927  42.940   3.746
34793W        W 7119  16.758  26.082   3.411
34794W        W 7120  44.250  26.058   4.814
34795W        W 7121  42.278   5.480   4.792
34796W        W 7122  13.801  24.781  12.024
34797W        W 7123  34.813   3.691  13.324
34798W        W 7124  12.725  25.668   0.216
34799W        W 7125  19.211  23.457  12.576
34800W        W 7126   7.232   8.248   0.825
34801W        W 7127  40.385   0.770  12.891
34802W        W 7128   2.173   4.330   3.613
34803W        W 7129  30.982  36.621   0.907
34804W        W 7130   1.726  41.005   2.794
34805W        W 7131  18.343  28.439   0.746
34806W        W 7132   9.850  32.056  12.971
34807W        W 7133   6.752  39.933  12.573
34808W        W 7134  27.200  30.034   1.936
34809W        W 7135  23.680  14.852   0.783
34810W        W 7136  22.051   8.655   2.304
34811W        W 7137  23.807   2.508   5.080
34812W        W 7138  25.118  41.963   0.064
34813W        W 7139  38.859  20.292  11.845
34814W        W 7140  12.267  18.204  12.342
34815W        W 7141  25.989  44.090   0.781
34816W        W 7142  38.098  16.645   2.382
34817W        W 7143  14.044  25.192  10.914
34818W        W 7144  33.998   4.163   4.567
34819W        W 7145   3.216  37.768  12.916
34820W        W 7146   9.071  19.028   3.351
34821W        W 7147   0.061  32.139  14.521
34822W        W 7148  41.494  10.395   1.806
34823W        W 7149  21.255  39.555  11.499
34824W        W 7150  37.335  41.100   3.642
34825W        W 7151  40.460  14.819  13.933
34826W        W 7152  25.120  12.245  10.599
34827W        W 7153   9.360   9.727   3.361
34828W        W 7154  26.744  36.725  12.587
34829W        W 7155  12.285  14.931   3.334
34830W        W 7156  38.932   6.090   4.086
34831W        W 7157  22.610  41.778  12.102
34832W        W 7158  38.658  30.431   4.424
34833W        W 7159  30.700   6.781   3.336
34834W        W 7160   5.538  24.954  12.206
34835W        W 7161  12.816  14.161  13.020
34836W        W 7162  35.423   7.763  13.416
34837W        W 7163  38.054  26.314  14.806
34838W        W 7164  21.264  41.884  11.552
34839W        W 7165  43.701  19.663  11.458
34840W        W 7166  21.624  32.452  13.444
34841W        W 7167  41.327  15.683   4.134
34842W        W 7168   3.344   0.534   2.936
34843W        W 7169  20.013  11.393  14.751
34844W        W 7170  28.649  41.954  12.968
34845W        W 7171  20.260  12.382   2.608
34846W        W 7172  17.594  40.026   2.906
34847W        W 7173  37.540   9.981  11.472
34848W        W 7174  23.936  24.529   4.837
34849W        W 7175   7.242  19.108   0.321
34850W        W 7176  42.942   4.274   3.107
34851W        W 7177   3.342  19.632   3.347
34852W        W 7178  31.408  31.007  10.574
34853W        W 7179  34.430  35.796   2.674
34854W        W 7180  40.239  39.966   2.236
34855W        W 7181   2.939  40.365   0.538
34856W        W 7182   7.233  34.348   3.275
34857W        W 7183  20.191  24.757  10.764
34858W        W 7184   8.365  20.564   4.690
34859W        W 7185   0.987  15.597   2.754
34860W        W 7186  18.169  11.036   0.201
34861W        W 7187   6.288  29.549   4.321
34862W        W 7188  16.207  24.645  14.836
34863W        W 7189  37.355  17.391  13.415
34864W        W 7190   6.425   7.958  11.607
34865W        W 7191   5.943  42.108   0.790
34866W        W 7192  13.851  13.066   0.204
34867W        W 7193   6.507   8.426   1.208
34868W        W 7194  14.119  26.878   0.873
34869W        W 7195  30.643   9.715  10.511
34870W        W 7196  29.664  44.285  12.534
34871W        W 7197  15.560   8.858   3.508
34872W        W 7198  41.971  22.915  12.374
34873W        W 7199  34.499  44.223   2.867
34874W        W 7200   7.254  21.633  12.491
34875W        W 7201  33.750   4.478  13.171
34876W        W 7202  35.578  17.505  14.529
34877W        W 7203   5.755  10.942   3.325
34878W        W 7204  41.655  15.351   1.698
34879W        W 7205  29.511  42.280   0.302
34880W        W 7206   4.365  37.789  14.544
34881W        W 7207   7.179  35.809   2.463
34882W        W 7208  12.700  18.639   4.084
34883W        W 7209   8.011   0.539  10.701
34884W        W 7210  38.414   0.606   1.347
34885W        W 7211  12.434  25.101  11.955
34886W        W 7212   9.849  31.347  11.802
34887W        W 7213  30.483   1.902  14.439
34888W        W 7214  41.423  15.597   0.435
34889W        W 7215  28.483   1.544  14.222
34890W        W 7216  25.394  23.026  12.193
34891W        W 7217   0.350  17.022   4.272
34892W        W 7218  24.145  19.237   1.401
34893W        W 7219  15.721  27.949   0.090
34894W        W 7220   9.540  38.819  10.312
34895W        W 7221  39.294  22.303   1.281
34896W        W 7222  32.929  30.581   1.209
34897W        W 7223   6.891  19.223  11.535
34898W        W 7224  14.371   5.530  11.123
34899W        W 7225  37.862   5.704  10.741
34900W        W 7226  12.419  39.933  10.648
34901W        W 7227  30.400  39.457  11.127
34902W        W 7228  17.571  38.138   2.817
34903W        W 7229  18.945   3.756   2.674
34904W        W 7230  27.151  11.661  11.021
34905W        W 7231  21.717  43.274  12.107
34906W        W 7232  32.868   9.441   0.765
34907W        W 7233  16.196  13.311  11.233
34908W        W 7234   0.207  22.256   2.731
34909W        W 7235  26.684  42.016   2.261
34910W        W 7236  16.133  19.233   4.577
34911W        W 7237  19.549  25.913   2.757
34912W        W 7238  38.485  10.333   4.668
34913W        W 7239   9.800  17.065   4.530
34914W        W 7240  41.202  34.772   3.578
34915W        W 7241  38.950  25.420   4.054
34916W        W 7242  11.311  28.741  14.744
34917W        W 7243  12.459  39.357   2.920
34918W        W 7244  18.285   4.849   1.950
34919W        W 7245  21.797  18.319   0.821
34920W        W 7246  28.120  38.614   0.651
34921W        W 7247  32.943  39.565  11.534
34922W        W 7248  30.552   3.141  12.543
34923W        W 7249  24.367   3.855   4.868
34924W        W 7250   0.246  43.800  11.980
34925W        W 7251   0.742  13.330   0.255
34926W        W 7252   4.910  41.786  12.073
34927W        W 7253   6.111  16.894   3.333
34928W        W 7254   0.916   8.469   2.558
34929W        W 7255  28.421  13.591  14.488
34930W        W 7256  39.870  37.934  14.949
34931W        W 7257  12.907  44.409  12.004
34932W        W 7258  37.310  10.041  11.004
34933W        W 7259  14.091   5.423   0.480
34934W        W 7260  25.759   6.758   0.434
34935W        W 7261  19.147  15.541   9.873
34936W        W 7262  12.516  44.144  14.280
34937W        W 7263   8.849   1.804   3.819
34938W        W 7264  20.513  10.214   4.393
34939W        W 7265  43.230  35.724   0.354
34940W        W 7266  29.913   4.657   0.483
34941W        W 7267  13.169   4.169  11.491
34942W        W 7268   1.724  20.176  14.765
34943W        W 7269  44.930  31.908  14.056
34944W        W 7270  44.048   0.706  13.997
34945W        W 7271  15.597  38.063  12.841
34946W        W 7272  22.517   6.296   2.740
34947W        W 7273  32.023   6.471  12.704
34948W        W 7274  15.793   0.439  12.524
34949W        W 7275  32.773  36.544   2.945
34950W        W 7276  23.922   6.647  11.975
34951W        W 7277   6.029  25.206   4.620
34952W        W 7278  31.707  26.499   1.782
34953W        W 7279  10.016   9.865   4.124
34954W        W 7280   0.340  22.829   1.853
34955W        W 7281  35.407   8.568  11.149
34956W        W 7282  17.768  18.670  12.755
34957W        W 7283  31.906  36.570  12.373
34958W        W 7284  44.488   8.787   0.236
34959W        W 7285  26.172  32.937  12.433
34960W        W 7286  18.823  31.577   2.384
34961W        W 7287   0.842  35.440  13.337
34962W        W 7288   6.752  19.743   1.943
34963W        W 7289  21.459  43.950   4.623
34964W        W 7290  36.295  29.975   3.496
34965W        W 7291  36.807  26.527   3.732
34966W        W 7292  11.646  34.409  13.393
34967W        W 7293  34.014  16.583  12.386
34968W        W 7294  14.857  27.653  13.782
34969W        W 7295  34.042  21.097  14.814
34970W        W 7296  25.146  26.992   0.491
34971W        W 7297  29.843  33.358   2.129
34972W        W 7298  41.447   2.035  11.358
34973W        W 7299  26.453  38.347   3.169
34974W        W 7300  27.080   5.943   1.766
34975W        W 7301  13.801   4.852   0.421
34976W        W 7302  43.754  31.531  11.024
34977W        W 7303  14.196   2.038   0.489
34978W        W 7304  30.740  12.248   4.112
34979W        W 7305   9.626  14.769   0.682
34980W        W 7306   3.170  15.338   3.121
34981W        W 7307  17.638  30.464  11.932
34982W        W 7308  36.628  11.632   2.373
34983W        W 7309  14.200  39.835   0.317
34984W        W 7310  29.977  35.592  10.576
34985W        W 7311  22.009   1.982   0.001
34986W        W 7312  11.764  18.652   1.520
34987W        W 7313   0.853  35.668   3.016
34988W        W 7314   2.428  29.015   0.722
34989W        W 7315  26.356   5.309  11.727
34990W        W 7316  42.238  27.083   0.606
34991W        W 7317  26.572  23.443   4.154
34992W        W 7318  22.402   8.186  14.403
34993W        W 7319  16.342  13.996  13.759
34994W        W 7320   1.440  12.591  10.511
34995W        W 7321  41.408  16.391  10.688
34996W        W 7322  11.255  41.670   1.125
34997W        W 7323   5.762   3.970  12.962
34998W        W 7324  32.335  16.065   2.590
34999W        W 7325  24.090  37.524  11.998
35000W        W 7326   4.475  23.988  12.910
35001W        W 7327  33.390  36.572   3.651
35002W        W 7328  15.978  34.032  12.518
35003W        W 7329  30.562  22.752   2.253
35004W        W 7330  22.877  38.021  13.958
35005W        W 7331  19.573  25.724   2.264
35006W        W 7332  14.746  28.993   2.137
35007W        W 7333  31.183  32.985  12.348
35008W        W 7334  44.240   7.390   3.236
35009W        W 7335  12.098   5.993   1.044
35010W        W 7336   8.285  28.856   3.693
35011W        W 7337  23.865  36.991   5.076
35012W        W 7338  21.955   2.992  13.020
35013W        W 7339   6.855  36.992   3.476
35014W        W 7340  37.796  26.259   3.240
35015W        W 7341   8.319  42.381   4.205
35016W        W 7342  39.980  18.121   3.123
35017W        W 7343  23.506  36.425   3.013
35018W        W 7344   0.254  29.353   4.324
35019W        W 7345   7.288   1.607  12.072
35020W        W 7346  20.521   8.849  13.319
35021W        W 7347  35.949  36.585  10.283
35022W        W 7348  27.551  36.477   1.207
35023W        W 7349  29.548  16.942   2.901
35024W        W 7350  26.635  14.110  12.037
35025W        W 7351   7.435  29.078  10.468
35026W        W 7352   4.157  36.225  11.022
35027W        W 7353   0.757  26.514   2.792
35028W        W 7354  10.338  13.551   0.785
35029W        W 7355   2.880   0.894  10.924
35030W        W 7356  17.559  30.082   4.411
35031W        W 7357  10.057  33.626  10.997
35032W        W 7358  44.432   1.474  13.834
35033W        W 7359  22.950  11.334   3.685
35034W        W 7360  33.993  16.089  13.996
35035W        W 7361  43.237  21.062  11.018
35036W        W 7362  29.140  16.095  13.517
35037W        W 7363   4.636  36.293  11.158
35038W        W 7364  18.890  22.577  11.080
35039W        W 7365  17.246  32.675   0.270
35040W        W 7366  42.053  33.329   2.701
35041W        W 7367  28.944  39.828   3.974
35042W        W 7368  37.561  40.561  13.509
35043W        W 7369   5.040   6.148   3.733
35044W        W 7370  44.773  31.401  11.141
35045W        W 7371   4.441  26.829  12.931
35046W        W 7372  16.160  36.293   3.690
35047W        W 7373   3.898  39.868   3.648
35048W        W 7374  38.133  20.665   3.162
35049W        W 7375   0.866  12.172  12.102
35050W        W 7376  43.353  22.719   2.404
35051W        W 7377   5.067   2.380   2.179
35052W        W 7378  29.153  26.683   4.257
35053W        W 7379  18.315  19.200   0.224
35054W        W 7380  32.030  26.037  11.211
35055W        W 7381  14.341   7.268   2.338
35056W        W 7382  27.750  16.109  14.106
35057W        W 7383   3.456  24.548   0.840
35058W        W 7384  40.149  32.008   4.547
35059W        W 7385  35.036  44.983  10.950
35060W        W 7386   6.605  32.482  10.461
35061W        W 7387  16.010  43.847   1.972
35062W        W 7388  36.353   1.044  12.128
35063W        W 7389  12.811  25.190   2.590
35064W        W 7390   3.310   0.755  12.854
35065W        W 7391  41.433  38.067  14.400
35066W        W 7392  10.064  37.355   4.630
35067W        W 7393  21.180  10.654  14.027
35068W        W 7394  10.550  15.621   4.662
35069W        W 7395  18.104   2.288   3.128
35070W        W 7396   3.333  42.216  11.592
35071W        W 7397  14.123   7.285   3.313
35072W        W 7398   7.344   5.259  11.190
35073W        W 7399   9.769   2.700   2.230
35074W        W 7400   1.342  11.591   2.042
35075W        W 7401  39.422  12.654  14.967
35076W        W 7402  39.507  40.502  10.600
35077W        W 7403  20.182  44.437  11.618
35078W        W 7404  37.075   1.785   2.696
35079W        W 7405  42.355  38.269   0.787
35080W        W 7406  15.254   1.510  14.982
35081W        W 7407  21.063  44.996  11.067
35082W        W 7408  35.284  28.740  12.056
35083W        W 7409   8.588   6.236   2.259
35084W        W 7410   3.877  19.276  12.485
35085W        W 7411   5.293   0.318  12.644
35086W        W 7412   3.773  22.034   3.855
35087W        W 7413  21.334  11.157  11.168
35088W        W 7414  21.340  31.131  13.934
35089W        W 7415  21.998  25.363  12.182
35090W        W 7416  30.700  18.265   0.914
35091W        W 7417  18.295   4.915  13.531
35092W        W 7418  14.721  10.122   4.279
35093W        W 7419  44.351  30.158  14.988
35094W        W 7420  43.815  14.688  11.643
35095W        W 7421   8.724  42.754  14.008
35096W        W 7422  22.930  16.736   3.265
35097W        W 7423   4.790  29.588  13.461
35098W        W 7424   2.324   0.833   3.533
35099W        W 7425  20.770  36.092   0.249
35100W        W 7426  12.951  42.918  10.388
35101W        W 7427  14.369  26.085   0.326
35102W        W 7428  43.479  39.845   1.420
35103W        W 7429  33.634  19.855   1.362
35104W        W 7430  21.808  44.917  13.017
35105W        W 7431  28.020   5.617  13.978
35106W        W 7432  43.331  20.943   0.211
35107W        W 7433  42.418   9.592  14.299
35108W        W 7434  41.720  35.501   5.049
35109W        W 7435  27.732  37.862   2.643
35110W        W 7436   4.306   7.907   1.922
35111W        W 7437  10.241  41.970   0.239
35112W        W 7438   8.254  28.300  11.899
35113W        W 7439  15.257  38.787  11.608
35114W        W 7440  10.943   5.337   0.893
35115W        W 7441   8.857  25.298   3.457
35116W        W 7442  14.349   6.369  12.945
35117W        W 7443  20.554  15.047  12.630
35118W        W 7444   0.406   2.240   1.471
35119W        W 7445  36.909  40.231  12.518
35120W        W 7446  21.257  42.376   3.821
35121W        W 7447  20.680  18.847  13.907
35122W        W 7448  44.906   4.120  11.037
35123W        W 7449  41.559  32.527   2.344
35124W        W 7450  13.374  41.828  13.938
35125W        W 7451  27.627  15.146   3.852
35126W        W 7452  36.839  29.247  12.399
35127W        W 7453  13.667  21.488   4.841
35128W        W 7454   9.982  13.479   2.097
35129W        W 7455   1.994  22.285  10.484
35130W        W 7456  21.520  28.026   2.272
35131W        W 7457  38.423  35.634   1.355
35132W        W 7458  25.774   1.287   4.130
35133W        W 7459  31.550   9.791   4.137
35134W        W 7460  22.324  13.201  11.970
35135W        W 7461  32.829  21.686  12.891
35136W        W 7462  30.970   0.858   2.650
35137W        W 7463  12.314  29.139   0.867
35138W        W 7464   6.309  32.681   2.910
35139W        W 7465  12.108  24.730  13.551
35140W        W 7466  23.760  28.155   4.309
35141W        W 7467   1.766   6.216   2.616
35142W        W 7468  42.190  26.055   2.343
35143W        W 7469  42.021  37.273   3.560
35144W        W 7470   9.536  11.365  10.687
35145W        W 7471  30.971   2.220  12.519
35146W        W 7472  12.384  26.099  10.622
35147W        W 7473   5.685  22.108  14.891
35148W        W 7474  11.373  42.329  13.401
35149W        W 7475  14.667  38.993  12.871
35150W        W 7476  20.684  39.455  12.073
35151W        W 7477  22.076  25.520  12.983
35152W        W 7478  26.147  36.946  10.973
35153W        W 7479  28.948   5.432   2.786
35154W        W 7480  36.628  42.017  14.413
35155W        W 7481  27.917  32.387   2.720
35156W        W 7482  26.643  19.846  12.461
35157W        W 7483   3.635  12.424   2.788
35158W        W 7484  40.959  15.908   0.412
35159W        W 7485  29.653  29.465  14.793
35160W        W 7486  38.438  20.080   4.282
35161W        W 7487  18.772  33.088  10.458
35162W        W 7488  20.019  19.601   2.841
35163W        W 7489  31.046  35.080   3.276
35164W        W 7490   5.241  10.730   1.972
35165W        W 7491  25.821  22.738  12.185
35166W        W 7492  21.117   4.508  13.702
35167W        W 7493  10.714  23.248  12.459
35168W        W 7494  35.024  14.374  11.468
35169W        W 7495  23.916   6.936   2.750
35170W        W 7496  14.023  11.689   3.654
35171W        W 7497  32.006   1.368   4.399
35172W        W 7498  18.516   2.354   2.802
35173W        W 7499   7.432   9.294  13.117
35174W        W 7500  39.496  42.111   4.506
35175W        W 7501  15.642  34.679   2.294
35176W        W 7502  15.962  34.887   1.456
35177W        W 7503  13.303   8.693   0.213
35178W        W 7504   7.207  10.112   2.282
35179W        W 7505  10.413   2.587  12.429
35180W        W 7506  36.184  23.050   1.759
35181W        W 7507   9.426  32.675   2.893
35182W        W 7508  14.643  17.149  13.783
35183W        W 7509  17.885  19.883   3.643
35184W        W 7510  33.351  21.016   2.902
35185W        W 7511  19.554  21.552   0.519
35186W        W 7512  26.076  22.271   3.809
35187W        W 7513  16.035   0.759  12.168
35188W        W 7514  36.072  44.152   0.722
35189W        W 7515  44.071  42.463  11.069
35190W        W 7516  15.857  24.545  11.129
35191W        W 7517  39.892  18.971   4.732
35192W        W 7518  17.453  29.489   2.257
35193W        W 7519   2.756   6.472  11.596
35194W        W 7520  32.791   3.454   0.973
35195W        W 7521  24.688  11.662   4.479
35196W        W 7522  29.162  29.518  13.949
35197W        W 7523  11.622  26.198   0.793
35198W        W 7524  35.968  29.869   4.372
35199W        W 7525  34.514  27.395   1.102
35200W        W 7526  21.587  43.444  12.602
35201W        W 7527   7.019  12.397  12.039
35202W        W 7528   6.921   1.812   4.482
35203W        W 7529  40.851   2.974   2.944
35204W        W 7530  43.988  18.913   3.092
35205W        W 7531  29.776  11.804  12.946
35206W        W 7532  15.248  16.638  13.620
35207W        W 7533  17.314  14.767   4.742
35208W        W 7534  17.664  22.829  13.618
35209W        W 7535  20.173   9.547  12.480
35210W        W 7536  26.688   9.423   4.263
35211W        W 7537  29.556  20.848  11.639
35212W        W 7538  23.510  13.805   0.781
35213W        W 7539   0.377  15.950   0.949
35214W        W 7540   2.300   5.494   3.220
35215W        W 7541  31.022  35.637   4.583
35216W        W 7542  13.132  23.725  12.085
35217W        W 7543  20.606  24.655   3.705
35218W        W 7544  33.228  43.243   4.672
35219W        W 7545  25.170  13.813   3.345
35220W        W 7546  30.664   5.413   3.359
35221W        W 7547  16.891  43.925  11.106
35222W        W 7548  44.309  29.856   3.517
35223W        W 7549   5.344  44.204   1.978
35224W        W 7550   0.042   5.376  13.269
35225W        W 7551  19.566  27.906   2.813
35226W        W 7552  34.118  44.840   2.184
35227W        W 7553  39.967  21.492  14.804
35228W        W 7554  34.557  27.870   1.383
35229W        W 7555  39.034  34.174  10.938
35230W        W 7556  38.106  38.976   4.792
35231W        W 7557  21.097  30.856   2.291
35232W        W 7558  33.508  22.765  14.062
35233W        W 7559   6.121   0.251   2.945
35234W        W 7560  38.380  43.656  14.903
35235W        W 7561  20.751  18.865   4.191
35236W        W 7562  32.878  36.157   0.718
35237W        W 7563  41.051   7.166  11.146
35238W        W 7564   1.448  28.836   1.223
35239W        W 7565  16.646   4.981   3.014
35240W        W 7566  21.239  44.867  11.552
35241W        W 7567  19.894  35.826   5.093
35242W        W 7568  28.097  12.066  14.933
35243W        W 7569  13.363  33.131   9.734
35244W        W 7570  35.802  26.619  13.485
35245W        W 7571   8.247   6.311   4.872
35246W        W 7572  44.872  44.532   2.770
35247W        W 7573   0.484  10.132   1.726
35248W        W 7574   2.216  23.951  11.571
35249W        W 7575   9.003   8.360  11.176
35250W        W 7576  37.836  35.915  11.612
35251W        W 7577  31.014   5.004   0.277
35252W        W 7578  36.286  40.441  14.079
35253W        W 7579  36.956  11.757   4.330
35254W        W 7580  22.970  44.842   0.732
35255W        W 7581  14.182  40.356   4.869
35256W        W 7582  39.975  44.132   2.266
35257W        W 7583  15.777  21.852   2.349
35258W        W 7584   9.373  28.979  13.471
35259W        W 7585  32.993  21.763   4.759
35260W        W 7586  27.798  21.129  12.526
35261W        W 7587  21.253  23.663   0.905
35262W        W 7588  16.135  30.050   3.592
35263W        W 7589  21.702  29.833   3.338
35264W        W 7590  40.861  21.605   0.248
35265W        W 7591  33.497  22.077   3.668
35266W        W 7592  22.916  33.349  11.108
35267W        W 7593  31.126  10.278   1.692
35268W        W 7594  43.061  38.847   1.790
35269W        W 7595  35.888  24.961   4.665
35270W        W 7596  27.732   5.587   3.231
35271W        W 7597  44.945   2.297   5.754
35272W        W 7598  11.278  23.496  14.712
35273W        W 7599  13.592  20.631  11.117
35274W        W 7600   8.003   3.524   0.368
35275W        W 7601  13.592  41.294   1.446
35276W        W 7602  26.945   0.702   0.291
35277W        W 7603   6.254   5.815  10.942
35278W        W 7604  29.414  11.885   3.741
35279W        W 7605  22.549  23.018  10.309
35280W        W 7606   7.484  27.438  11.552
35281W        W 7607  30.147   9.758  10.702
35282W        W 7608  19.107  44.361  10.635
35283W        W 7609  42.506  33.520   2.849
35284W        W 7610  32.567  31.566  14.825
35285W        W 7611  39.416  29.381  13.408
35286W        W 7612  16.163   9.643   2.215
35287W        W 7613   0.743   9.435  14.365
35288W        W 7614  14.444  27.986   2.195
35289W        W 7615  36.063  26.431  14.846
35290W        W 7616  44.573  35.287   1.857
35291W        W 7617  26.231  37.894   4.628
35292W        W 7618  34.608  39.097   3.267
35293W        W 7619  11.450  17.988  14.313
35294W        W 7620  20.306  43.869   0.725
35295W        W 7621   2.341  44.078  11.105
35296W        W 7622  14.160  34.307   3.765
35297W        W 7623  14.461  17.690   0.418
35298W        W 7624  44.245  22.532   2.690
35299W        W 7625  22.026   3.433  13.456
35300W        W 7626  44.944  11.751   2.814
35301W        W 7627  29.767  27.151  13.804
35302W        W 7628  31.356   1.781  10.391
35303W        W 7629  25.722  26.145  13.998
35304W        W 7630  11.865  38.954  13.064
35305W        W 7631   9.772  29.543  14.773
35306W        W 7632   7.260   2.519  14.830
35307W        W 7633  16.144  34.187  14.752
35308W        W 7634  37.374  12.171  11.831
35309W        W 7635   3.351  27.322  11.847
35310W        W 7636  25.720   8.432   2.739
35311W        W 7637  19.064   4.417  12.279
35312W        W 7638  38.363  19.099   1.353
35313W        W 7639  16.777  27.404  14.133
35314W        W 7640  16.680   3.960  13.025
35315W        W 7641   6.028   1.577   2.784
35316W        W 7642  22.388  41.773   0.449
35317W        W 7643  30.055  20.319   4.694
35318W        W 7644  32.333   0.033   1.310
35319W        W 7645   0.510   1.454   3.581
35320W        W 7646   4.881   8.304  14.415
35321W        W 7647  27.056   3.814   1.414
35322W        W 7648  23.597  29.466  10.461
35323W        W 7649  11.075  42.488  12.984
35324W        W 7650  15.784  28.479   3.295
35325W        W 7651  38.392   0.528   4.611
35326W        W 7652  14.528  25.989   9.818
35327W        W 7653   8.940  13.571   1.210
35328W        W 7654  21.051  34.892  14.837
35329W        W 7655   9.824   5.396   4.028
35330W        W 7656  43.279  43.409  13.854
35331W        W 7657  14.619  10.154   3.353
35332W        W 7658  15.552  33.080   2.776
35333W        W 7659   0.327  37.080   3.185
35334W        W 7660  10.744   7.378   3.684
35335W        W 7661  37.675  12.609  11.977
35336W        W 7662  27.965   5.503   1.262
35337W        W 7663   9.676  11.429   2.323
35338W        W 7664  33.133  28.115   3.075
35339W        W 7665  19.150   9.330   3.903
35340W        W 7666  42.393   0.015  12.083
35341W        W 7667  38.352   0.769   4.154
35342W        W 7668  34.887   2.371   1.154
35343W        W 7669   7.879  27.495  11.218
35344W        W 7670  10.177  37.055  12.996
35345W        W 7671  20.766   3.627  13.221
35346W        W 7672  38.570  27.932   1.900
35347W        W 7673  18.737   0.212   2.999
35348W        W 7674   8.332   0.647   0.214
35349W        W 7675  35.009  27.947  14.681
35350W        W 7676  33.295  10.669  11.435
35351W        W 7677  22.669  21.172  13.844
35352W        W 7678  28.782  15.485  11.477
35353W        W 7679  23.642  13.385  13.298
35354W        W 7680  32.998  27.027   2.824
35355W        W 7681   4.122   0.266   2.667
35356W        W 7682  34.068  12.433   0.253
35357W        W 7683  22.246   4.076  13.948
35358W        W 7684  41.257   4.730  13.431
35359W        W 7685  31.660  16.757  13.991
35360W        W 7686  21.026  43.690  11.418
35361W        W 7687  40.712  35.087  13.443
35362W        W 7688  44.001   0.593  11.839
35363W        W 7689  14.106   1.456   3.426
35364W        W 7690  25.964  18.137  12.563
35365W        W 7691   6.345  21.700   0.220
35366W        W 7692   8.645   2.150  12.766
35367W        W 7693   0.073  13.634   3.210
35368W        W 7694   6.190  18.999   4.504
35369W        W 7695  31.979  13.673   4.515
35370W        W 7696  13.644  33.020   3.639
35371W        W 7697  19.851  38.754  10.449
35372W        W 7698  44.506  22.496   3.671
35373W        W 7699  37.099  13.086  13.482
35374W        W 7700   5.586  36.010   4.631
35375W        W 7701  39.516  21.608   0.549
35376W        W 7702  40.409  35.215  11.879
35377W        W 7703  18.648   9.211   0.394
35378W        W 7704  30.568   5.144  13.800
35379W        W 7705  38.320  27.996  10.430
35380W        W 7706  15.138  43.548   1.406
35381W        W 7707  12.480  16.664   0.184
35382W        W 7708   2.880   6.627  12.839
35383W        W 7709  42.591  33.077   3.801
35384W        W 7710   9.624  26.704  14.295
35385W        W 7711   5.719  31.952   4.627
35386W        W 7712   3.260  23.258  14.246
35387W        W 7713  13.901  20.721  10.705
35388W        W 7714  18.550  33.010  12.514
35389W        W 7715   1.773  24.246  13.173
35390W        W 7716  40.396  42.775   2.818
35391W        W 7717  39.231  42.315  11.072
35392W        W 7718  41.522  42.695   0.774
35393W        W 7719  37.061  42.800  12.864
35394W        W 7720  11.650  33.621   1.326
35395W        W 7721  15.501   9.164  11.420
35396W        W 7722  26.604   2.419  11.441
35397W        W 7723  27.009   5.315   3.927
35398W        W 7724  18.158  23.025   1.397
35399W        W 7725  31.023  35.105  14.832
35400W        W 7726  27.477  16.257   1.364
35401W        W 7727  21.167  40.009  14.098
35402W        W 7728  28.043  13.786  14.085
35403W        W 7729  11.053  42.875  14.027
35404W        W 7730  35.794  35.922  11.851
35405W        W 7731  26.434  37.348  11.912
35406W        W 7732  36.408  42.982  10.609
35407W        W 7733  41.265  41.562  13.660
35408W        W 7734   9.763  11.949  12.092
35409W        W 7735   3.418  24.632  10.899
35410W        W 7736   2.732  40.919   4.507
35411W        W 7737  24.096  34.511  14.092
35412W        W 7738   2.803  41.807   4.311
35413W        W 7739  40.925   9.480  13.382
35414W        W 7740   7.836  43.473  13.780
35415W        W 7741  30.017   0.318  10.621
35416W        W 7742  21.540  44.733   0.252
35417W        W 7743   0.205  36.472   0.880
35418W        W 7744   8.731  11.538   1.265
35419W        W 7745  36.886  10.349  14.403
35420W        W 7746  21.251   3.032   1.818
35421W        W 7747  32.675   0.752   0.296
35422W        W 7748  10.649  16.458  12.057
35423W        W 7749  25.461  24.485   4.469
35424W        W 7750   3.119  19.779   1.920
35425W        W 7751  11.774  18.804  11.943
35426W        W 7752  35.703  17.163   1.726
35427W        W 7753  28.810  35.678  13.070
35428W        W 7754  11.188  10.785  12.408
35429W        W 7755   6.271   6.355  10.193
35430W        W 7756   6.192  32.212   2.183
35431W        W 7757  15.783  13.536  12.536
35432W        W 7758  40.912  40.442   3.024
35433W        W 7759  27.734  24.266  11.505
35434W        W 7760  16.408   7.295  13.003
35435W        W 7761  26.597  29.478   1.978
35436W        W 7762  33.358  20.500   2.945
35437W        W 7763  29.747  32.932  14.496
35438W        W 7764  14.657  38.868  14.434
35439W        W 7765  39.520  19.016  13.317
35440W        W 7766  44.970  29.374  14.871
35441W        W 7767  43.243   4.788  13.322
35442W        W 7768  34.928  28.913   3.948
35443W        W 7769  40.304   4.664  10.434
35444W        W 7770  18.270  14.708   2.124
35445W        W 7771   4.436  41.435   4.693
35446W        W 7772  34.946  22.170   0.872
35447W        W 7773  27.040  30.892  12.145
35448W        W 7774  20.273   4.166  14.414
35449W        W 7775  26.047  19.047  13.990
35450W        W 7776   6.620  15.731   3.106
35451W        W 7777  24.049  39.799  13.007
35452W        W 7778  39.245  24.248   2.778
35453W        W 7779  39.073  41.310  14.960
35454W        W 7780  12.131  19.825   1.297
35455W        W 7781  38.985   4.195  13.444
35456W        W 7782  11.767   7.917  13.751
35457W        W 7783  27.111   4.747  11.816
35458W        W 7784  39.588  14.420   3.703
35459W        W 7785  19.694  35.373   0.839
35460W        W 7786  39.446  23.729   1.333
35461W        W 7787  39.397  44.374   0.953
35462W        W 7788  18.056   5.215   4.183
35463W        W 7789   3.782  42.558   1.158
35464W        W 7790  18.623  33.370   3.586
35465W        W 7791   8.312  23.038   0.118
35466W        W 7792  17.056  23.267  10.007
35467W        W 7793  44.794  27.601   4.173
35468W        W 7794  36.860  32.035  14.244
35469W        W 7795  21.337  34.473  14.938
35470W        W 7796  28.498   0.357  10.940
35471W        W 7797  35.670  41.978   1.263
35472W        W 7798   7.374  30.091   2.326
35473W        W 7799  21.902   3.325  11.022
35474W        W 7800  12.639  14.354   2.341
35475W        W 7801  25.601  13.333  11.510
35476W        W 7802  32.146  12.685  14.997
35477W        W 7803  26.468  21.135  12.347
35478W        W 7804   9.601  15.024   4.622
35479W        W 7805  37.204  39.901  11.507
35480W        W 7806  16.588  29.938   3.836
35481W        W 7807   7.813  42.755   0.828
35482W        W 7808  21.655  22.975   2.266
35483W        W 7809  21.957  38.804  13.825
35484W        W 7810   8.779  39.806   1.892
35485W        W 7811  35.985  16.146  10.684
35486W        W 7812  41.375  26.537  10.745
35487W        W 7813  42.860  38.141   2.199
35488W        W 7814  34.977  25.595   3.631
35489W        W 7815  33.752  15.764   4.404
35490W        W 7816  42.685  19.236   2.737
35491W        W 7817   7.742   4.211  14.636
35492W        W 7818   8.695  32.035  12.502
35493W        W 7819  30.209   3.437   3.604
35494W        W 7820  28.565  17.547   0.545
35495W        W 7821  11.135  43.220   3.353
35496W        W 7822  19.542  12.658  10.708
35497W        W 7823   1.824  33.635   3.210
35498W        W 7824  27.907   3.138   4.055
35499W        W 7825  30.892   4.187   3.089
35500W        W 7826  18.777  15.993  11.389
35501W        W 7827  43.963  30.870   4.613
35502W        W 7828  38.451  10.364   2.279
35503W        W 7829  40.204  44.191   4.959
35504W        W 7830  13.574  28.609  13.755
35505W        W 7831  11.269  44.199   3.089
35506W        W 7832  43.017   0.237   3.392
35507W        W 7833  38.062  13.898  11.721
35508W        W 7834  24.692  27.916  11.188
35509W        W 7835   8.360  35.919   3.344
35510W        W 7836  32.928  43.368  10.769
35511W        W 7837  14.660  19.321   1.384
35512W        W 7838  34.882  41.481  13.408
35513W        W 7839  31.033   2.499   4.627
35514W        W 7840   2.819  19.273   3.890
35515W        W 7841  10.621  27.572  12.020
35516W        W 7842  42.265  35.728  14.341
35517W        W 7843  26.207  10.224  14.031
35518W        W 7844  10.285  33.084  12.879
35519W        W 7845  25.541   5.924  13.351
35520W        W 7846   9.925  19.834  14.809
35521W        W 7847  31.330  39.729  14.436
35522W        W 7848  17.273  26.657  12.105
35523W        W 7849  37.241  17.841  12.434
35524W        W 7850   7.132  12.593  11.551
35525W        W 7851  20.949   4.905  11.129
35526W        W 7852  10.171  14.057   0.716
35527W        W 7853  38.752   1.455   4.145
35528W        W 7854  27.471  12.654   0.944
35529W        W 7855  41.038   0.908  10.652
35530W        W 7856  10.749  27.986   0.222
35531W        W 7857  18.052  16.827  11.999
35532W        W 7858  41.887  44.069   3.248
35533W        W 7859   2.853  27.938  11.629
35534W        W 7860  31.788  40.364  13.724
35535W        W 7861  26.851   3.890   4.517
35536W        W 7862  34.646  44.371  13.021
35537W        W 7863  10.164   8.913   0.577
35538W        W 7864  37.472  42.545   1.608
35539W        W 7865  26.988  39.285   0.817
35540W        W 7866  24.052  29.654   2.331
35541W        W 7867   9.222  15.375   3.209
35542W        W 7868  12.127  32.501   3.594
35543W        W 7869  37.600  13.886  11.514
35544W        W 7870  38.573  29.110   4.811
35545W        W 7871  20.040  26.033   2.588
35546W        W 7872  24.642  11.845  11.171
35547W        W 7873   5.977  40.908   3.256
35548W        W 7874  29.848  19.109   1.922
35549W        W 7875  14.562   1.691   1.342
35550W        W 7876   4.150  26.257  14.355
35551W        W 7877  22.964  18.900   4.154
35552W        W 7878  25.556  39.551  12.079
35553W        W 7879   6.404  42.013  13.943
35554W        W 7880  39.603  14.324   2.927
35555W        W 7881  22.039  19.966   4.530
35556W        W 7882  11.333  41.276   4.731
35557W        W 7883  36.815  32.249  13.288
35558W        W 7884  32.237  34.373   4.684
35559W        W 7885   5.697  30.875  12.606
35560W        W 7886   6.777  16.594  13.386
35561W        W 7887  37.121  39.034  12.624
35562W        W 7888  20.777   9.379  14.935
35563W        W 7889  25.245  30.954  11.587
35564W        W 7890  29.034  16.652   1.853
35565W        W 7891  38.583   5.412  14.984
35566W        W 7892   9.306   8.360   2.360
35567W        W 7893   2.901  20.771   0.467
35568W        W 7894  27.991   9.621   1.005
35569W        W 7895  42.313   6.942   1.228
35570W        W 7896   3.289  18.505  10.489
35571W        W 7897  39.350  32.533   3.072
35572W        W 7898  16.675   7.696  12.801
35573W        W 7899  34.317  31.366  13.327
35574W        W 7900   5.120  15.755   1.873
35575W        W 7901  18.272  21.640   4.661
35576W        W 7902   6.216  14.167  11.553
35577W        W 7903  29.919  37.642   4.375
35578W        W 7904  19.941   5.361  11.648
35579W        W 7905  25.909  35.876   1.467
35580W        W 7906  33.900   3.029  12.001
35581W        W 7907  24.888  44.326  11.687
35582W        W 7908  10.174   4.266   4.592
35583W        W 7909  40.927  39.040   2.785
35584W        W 7910  35.179   3.966  12.081
35585W        W 7911  12.859   2.965  13.776
35586W        W 7912  18.310  42.547   0.829
35587W        W 7913  42.754  43.325  14.910
35588W        W 7914  33.659  22.182   2.761
35589W        W 7915   8.683  36.355  10.638
35590W        W 7916  18.526   8.528  11.777
35591W        W 7917  17.861  32.511  14.004
35592W        W 7918  18.220  25.246   3.696
35593W        W 7919  20.266  37.824   1.489
35594W        W 7920   4.353  42.979   4.700
35595W        W 7921  42.007  11.683  11.221
35596W        W 7922  26.635  17.659   4.469
35597W        W 7923  13.090  34.830  12.937
35598W        W 7924  26.919  10.663  11.052
35599W        W 7925  42.501  34.213  12.478
35600W        W 7926  16.334  12.207  14.400
35601W        W 7927  41.403  37.852   4.204
35602W        W 7928  35.023  36.148  10.636
35603W        W 7929  40.269  41.977  11.157
35604W        W 7930  41.736  42.370  12.837
35605W        W 7931  41.412  30.469   2.053
35606W        W 7932  31.401  17.370  13.315
35607W        W 7933  26.694  24.012   0.494
35608W        W 7934   0.531   4.251  14.942
35609W        W 7935   3.070  37.497  14.916
35610W        W 7936   6.792  35.580  14.741
35611W        W 7937  20.945  15.322   5.039
35612W        W 7938  25.877  29.117  13.064
35613W        W 7939  11.605  16.052  11.075
35614W        W 7940  12.101  25.231   0.905
35615W        W 7941  23.084  17.494  11.095
35616W        W 7942  29.580  37.953  14.299
35617W        W 7943  19.620   0.453  12.956
35618W        W 7944  38.794  44.478   9.916
35619W        W 7945  20.263  35.122  14.328
35620W        W 7946   6.730   7.290   4.371
35621W        W 7947  21.110  21.757  12.100
35622W        W 7948  39.228  18.310   1.873
35623W        W 7949  27.484   2.059  14.335
35624W        W 7950  22.017  32.141   3.243
35625W        W 7951   9.783  40.771  11.595
35626W        W 7952  21.970  12.133   3.981
35627W        W 7953  26.199  14.890   2.905
35628W        W 7954  34.631  20.669  14.533
35629W        W 7955   7.783  36.658  12.821
35630W        W 7956  12.866  29.487  11.542
35631W        W 7957  18.145  27.638   0.534
35632W        W 7958  18.642  34.819  11.806
35633W        W 7959  33.584  44.834  12.514
35634W        W 7960  27.243  10.188   5.008
35635W        W 7961  37.360   5.955   2.175
35636W        W 7962  44.650  41.831   4.544
35637W        W 7963   2.008   0.890   4.387
35638W        W 7964  36.993  25.333   2.899
35639W        W 7965  24.764  32.013   1.445
35640W        W 7966   9.553  20.506  11.185
35641W        W 7967  30.669  39.309  10.733
35642W        W 7968  24.898   4.604   9.938
35643W        W 7969   5.429  36.045  12.009
35644W        W 7970  10.959  28.436  11.566
35645W        W 7971  13.832  36.055   0.901
35646W        W 7972  33.969  32.653   3.244
35647W        W 7973  25.441  37.076  12.987
35648W        W 7974  27.661  18.292   3.325
35649W        W 7975  32.034  22.664   5.031
35650W        W 7976  37.735  22.518   0.287
35651W        W 7977   3.426  42.728  13.635
35652W        W 7978  16.536  44.861   1.313
35653W        W 7979  23.103  16.817  14.984
35654W        W 7980   0.539  21.065   2.784
35655W        W 7981  24.293  13.885  11.383
35656W        W 7982  27.250  22.550  11.501
35657W        W 7983  38.862  25.805  10.681
35658W        W 7984  21.941  29.349   4.245
35659W        W 7985   9.634  12.595   0.011
35660W        W 7986  27.159   8.006  13.814
35661W        W 7987  13.804   7.766  12.246
35662W        W 7988  32.238   1.298  11.015
35663W        W 7989  22.632   4.850   0.731
35664W        W 7990  14.911   1.775  11.193
35665W        W 7991  17.220  25.420   0.481
35666W        W 7992  31.644  37.857  11.892
35667W        W 7993  12.562  43.916   0.083
35668W        W 7994   1.028   8.088   3.738
35669W        W 7995  33.654  22.650  11.710
35670W        W 7996  23.520  10.233  12.413
35671W        W 7997  24.996  25.228   2.188
35672W        W 7998  28.446  29.865  14.323
35673W        W 7999  25.993   0.524  12.976
35674W        W 8000   3.852  15.334   4.287
35675W        W 8001  11.885  28.415  10.543
35676W        W 8002  25.864  15.623   1.930
35677W        W 8003  28.037  20.069   3.715
35678W        W 8004  25.820  37.244  12.517
35679W        W 8005  15.249  22.521  10.951
35680W        W 8006  23.001  34.864   0.213
35681W        W 8007   7.649  43.380   0.427
35682W        W 8008  36.497  10.683   0.298
35683W        W 8009  15.008  33.843  11.418
35684W        W 8010   5.433  18.539   1.779
35685W        W 8011  17.553  36.525   2.242
35686W        W 8012  18.635  26.119  11.135
35687W        W 8013  37.324   1.427  11.118
35688W        W 8014  44.262   3.008  10.991
35689W        W 8015  21.777  29.462  14.354
35690W        W 8016  41.549  33.679  13.041
35691W        W 8017  30.595  39.052   3.259
35692W        W 8018  21.608   9.339   3.323
35693W        W 8019  31.555  23.966  12.992
35694W        W 8020  37.500  44.760   1.892
35695W        W 8021  20.843   6.126   0.983
35696W        W 8022  44.049  16.434   4.961
35697W        W 8023  30.504  31.462  11.978
35698W        W 8024  11.608  14.914  13.269
35699W        W 8025  12.139  26.401  11.482
35700W        W 8026  36.376  16.865   2.854
35701W        W 8027  31.148  17.726   0.930
35702W        W 8028  28.459  29.147   1.915
35703W        W 8029  38.897  38.491  10.488
35704W        W 8030  43.384   7.697   3.636
35705W        W 8031  15.808   1.801   1.814
35706W        W 8032  39.297   5.853  10.683
35707W        W 8033  43.402   6.233  11.673
35708W        W 8034  41.766  40.386   1.183
35709W        W 8035  31.529  21.065   2.623
35710W        W 8036  37.574  27.984   2.761
35711W        W 8037  36.992   0.890  13.762
35712W        W 8038  25.432  27.134   3.779
35713W        W 8039  25.012  33.514  12.469
35714W        W 8040  10.729  40.799  11.229
35715W        W 8041  20.180  39.636  13.409
35716W        W 8042  28.007  12.279  11.736
35717W        W 8043  23.513  40.829   2.930
35718W        W 8044  27.579   9.839  14.768
35719W        W 8045  24.344  31.600  13.275
35720W        W 8046  43.728   7.554  14.509
35721W        W 8047  14.874  25.251  13.603
35722W        W 8048  14.598   1.952   2.850
35723W        W 8049   8.332  13.327   1.915
35724W        W 8050  41.391  44.044   4.600
35725W        W 8051  38.999  22.309   1.927
35726W        W 8052   2.173  21.583  10.000
35727W        W 8053  30.980   1.341  14.878
35728W        W 8054  11.582  11.800  11.088
35729W        W 8055  38.662   4.695  14.350
35730W        W 8056  29.993  24.345  13.773
35731W        W 8057   5.921  16.056   4.084
35732W        W 8058  34.586  25.724   4.829
35733W        W 8059  13.730  26.219  14.003
35734W        W 8060  21.822   8.006   0.773
35735W        W 8061  18.376  26.924   3.832
35736W        W 8062  38.918  37.053   4.390
35737W        W 8063   6.547  28.108  12.905
35738W        W 8064   6.280  13.780   1.547
35739W        W 8065  32.754   2.692   1.894
35740W        W 8066  29.865  18.975  10.661
35741W        W 8067  30.463   1.691   1.865
35742W        W 8068  41.328  12.282  12.183
35743W        W 8069  22.624  15.264   2.463
35744W        W 8070  40.455  28.919   4.569
35745W        W 8071  41.533  42.795   4.371
35746W        W 8072  34.719  43.667   1.469
35747W        W 8073  21.525  12.262   2.256
35748W        W 8074  33.669   9.524   3.365
35749W        W 8075  40.927  29.952   0.220
35750W        W 8076  41.019  23.028  11.669
35751W        W 8077  41.876  11.201  12.437
35752W        W 8078  33.966  13.968   0.396
35753W        W 8079  41.670  40.322  13.426
35754W        W 8080  15.775   6.713   3.592
35755W        W 8081  28.942  32.675  14.497
35756W        W 8082   2.432   0.490   2.209
35757W        W 8083  39.136   2.894  12.980
35758W        W 8084  12.110  36.460  11.602
35759W        W 8085  21.408  36.769   5.702
35760W        W 8086  28.529  32.540   0.744
35761W        W 8087  26.260  15.688   0.197
35762W        W 8088  29.715  33.098   4.361
35763W        W 8089  10.619   5.610  11.645
35764W        W 8090  37.419   2.930   4.629
35765W        W 8091  43.045  10.366   4.093
35766W        W 8092  17.836  18.190   0.966
35767W        W 8093  20.200  31.425   0.222
35768W        W 8094  11.281  12.333   3.752
35769W        W 8095  33.768  23.854  10.016
35770W        W 8096  30.197  28.145  14.520
35771W        W 8097  15.062  22.695  14.373
35772W        W 8098  18.260  22.012   1.192
35773W        W 8099   4.355  15.259  10.470
35774W        W 8100  22.615  25.238   2.831
35775W        W 8101  37.161  44.512  13.240
35776W        W 8102   1.515   7.508  12.566
35777W        W 8103  44.585  33.168   3.259
35778W        W 8104   2.220   6.690   0.376
35779W        W 8105  11.554   8.099  13.118
35780W        W 8106  12.763  33.989  14.902
35781W        W 8107  30.536   8.784  13.334
35782W        W 8108   7.631  11.092  12.227
35783W        W 8109  29.872  37.349   0.519
35784W        W 8110  27.022   8.739   2.811
35785W        W 8111  24.947  39.026  13.974
35786W        W 8112  24.163  29.807   3.612
35787W        W 8113  10.513  11.145   9.840
35788W        W 8114   0.922  29.681  12.870
35789W        W 8115  33.790  37.383  11.871
35790W        W 8116  21.991  41.071   3.786
35791W        W 8117  16.222   5.880   2.796
35792W        W 8118   9.922  22.172   2.495
35793W        W 8119  39.319  20.577  12.376
35794W        W 8120  39.583  24.703   2.764
35795W        W 8121  28.085  20.046  11.591
35796W        W 8122  18.805  31.799   1.906
35797W        W 8123  26.183  19.595   2.371
35798W        W 8124  42.814  33.134   0.590
35799W        W 8125  20.974  17.312   0.290
35800W        W 8126   7.850  13.364   4.912
35801W        W 8127  37.075  39.085  11.197
35802W        W 8128   2.207  31.828   2.477
35803W        W 8129   3.494   0.371   1.333
35804W        W 8130  12.676  12.548   4.955
35805W        W 8131  30.492   6.821   0.728
35806W        W 8132  16.052  44.229  12.013
35807W        W 8133  40.608  33.886   3.116
35808W        W 8134   1.990  23.584   2.254
35809W        W 8135  38.260  13.093  11.955
35810W        W 8136  41.409  41.477   1.872
35811W        W 8137  39.894  43.362  14.130
35812W        W 8138  42.874   0.216   4.824
35813W        W 8139   0.840  13.448  11.625
35814W        W 8140  21.138  17.369   2.504
35815W        W 8141  29.231  36.287  14.040
35816W        W 8142   2.650  44.879  10.669
35817W        W 8143  12.443  24.004  13.087
35818W        W 8144  36.660  10.623  13.079
35819W        W 8145  34.500  20.769   2.341
35820W        W 8146  32.890  42.315  13.091
35821W        W 8147  18.449  43.563  11.578
35822W        W 8148  14.039  24.023   4.122
35823W        W 8149  41.782   3.904   4.103
35824W        W 8150  11.381  11.832   3.651
35825W        W 8151  13.127  40.860  13.330
35826W        W 8152   2.980  42.983  13.572
35827W        W 8153  10.751   9.320  14.057
35828W        W 8154   5.459  44.248  11.655
35829W        W 8155  14.440  26.654   5.075
35830W        W 8156  11.781  10.830   1.819
35831W        W 8157  16.631   5.398  10.942
35832W        W 8158  14.059  20.644  12.577
35833W        W 8159  38.722  12.188  11.235
35834W        W 8160  19.957   6.713   2.582
35835W        W 8161  13.298  19.478   0.292
35836W        W 8162   7.145  23.982   3.184
35837W        W 8163   1.478  38.417  11.490
35838W        W 8164   8.154  31.520   0.599
35839W        W 8165   7.698   6.173   2.099
35840W        W 8166  27.008  28.579  11.958
35841W        W 8167  17.152  18.199  14.801
35842W        W 8168  15.207   5.192  14.358
35843W        W 8169  30.404  21.183   2.328
35844W        W 8170  18.285  37.052  12.957
35845W        W 8171  11.833   3.912  11.502
35846W        W 8172  39.965  33.900  14.080
35847W        W 8173   2.492   7.651  14.495
35848W        W 8174   8.550   1.070   0.731
35849W        W 8175   3.606   0.044  12.455
35850W        W 8176  35.510   0.708  14.822
35851W        W 8177  17.513   2.221   1.423
35852W        W 8178  35.630   3.969   3.075
35853W        W 8179  12.442  30.798   3.202
35854W        W 8180  19.647  16.726   4.607
35855W        W 8181  31.564  30.068   3.148
35856W        W 8182   5.650  16.333   2.295
35857W        W 8183  35.865  13.215  12.831
35858W        W 8184  23.749  34.938   0.784
35859W        W 8185  26.223  24.742   4.809
35860W        W 8186  36.491   6.317  10.329
35861W        W 8187  44.467  42.572  10.174
35862W        W 8188  40.463  37.508  14.467
35863W        W 8189  23.031  23.137  10.551
35864W        W 8190  19.608  10.745   4.543
35865W        W 8191  17.709  29.102   3.151
35866W        W 8192  32.546  12.684  14.338
35867W        W 8193   0.047  36.036   4.554
35868W        W 8194  15.213  44.644   0.275
35869W        W 8195   9.153  32.505  12.979
35870W        W 8196  29.090   1.327   1.447
35871W        W 8197  30.901  12.326   1.288
35872W        W 8198  34.368  14.700   4.581
35873W        W 8199  37.792  31.573  11.847
35874W        W 8200  28.992  28.199  10.718
35875W        W 8201  19.882  14.127   0.261
35876W        W 8202  22.549  13.234   2.449
35877W        W 8203  39.484  36.506   3.206
35878W        W 8204  19.147  24.927  13.355
35879W        W 8205  44.719  44.811  14.847
35880W        W 8206  14.406   7.789  10.933
35881W        W 8207  20.495   7.224   2.363
35882W        W 8208  16.014  14.212   4.048
35883W        W 8209  16.199  29.543  10.660
35884W        W 8210  26.956  33.953   2.013
35885W        W 8211  10.221  22.538  12.261
35886W        W 8212  13.316  44.693  11.441
35887W        W 8213  43.480  38.876   0.690
35888W        W 8214  39.438  42.040  12.536
35889W        W 8215  27.575  12.093   1.481
35890W        W 8216  33.361  10.456   3.717
35891W        W 8217   6.710  20.509  11.131
35892W        W 8218   6.659   2.570  11.396
35893W        W 8219  28.877  12.032  10.981
35894W        W 8220  36.074  28.993   3.867
35895W        W 8221  23.148  30.454  11.706
35896W        W 8222  20.860   5.681   2.334
35897W        W 8223  29.508   1.525   1.656
35898W        W 8224  11.668  25.705   3.118
35899W        W 8225  33.399  35.979  10.139
35900W        W 8226  42.190   1.922  14.257
35901W        W 8227   2.868  34.389   2.845
35902W        W 8228  34.746  34.195  11.839
35903W        W 8229  42.078  32.020   2.645
35904W        W 8230   3.094   3.902  14.059
35905W        W 8231  30.821  34.372   3.720
35906W        W 8232  12.290  21.726  14.508
35907W        W 8233  42.649  24.695   1.406
35908W        W 8234  32.466   4.986   3.668
35909W        W 8235   6.888   9.617   3.649
35910W        W 8236  29.376  40.594  13.746
35911W        W 8237  39.835  18.604   3.074
35912W        W 8238  30.896  27.043   2.931
35913W        W 8239  15.223  12.225  10.688
35914W        W 8240   2.846  22.466  10.957
35915W        W 8241   1.016  39.832   3.862
35916W        W 8242  17.296  14.384   3.333
35917W        W 8243   0.766  33.962  11.557
35918W        W 8244  32.117  29.901  12.855
35919W        W 8245  41.432  38.586   0.472
35920W        W 8246  30.111  24.128  10.602
35921W        W 8247  20.946   8.400  11.378
35922W        W 8248   9.055  21.055  11.239
35923W        W 8249  16.589   3.246   4.534
35924W        W 8250   1.726   3.879  14.957
35925W        W 8251  16.006  32.802  12.976
35926W        W 8252  23.528  18.778   0.781
35927W        W 8253  34.598  23.050   3.332
35928W        W 8254  23.496  38.990  13.909
35929W        W 8255  31.457  25.074  12.901
35930W        W 8256  35.460  28.402   2.236
35931W        W 8257  35.512  10.745  11.964
35932W        W 8258  38.455   1.792  14.409
35933W        W 8259   2.387  23.016   9.928
35934W        W 8260  43.612  30.407  12.064
35935W        W 8261  28.495  20.115  13.375
35936W        W 8262  17.162   0.752  14.553
35937W        W 8263  32.444  10.844   2.205
35938W        W 8264  36.370   6.926  11.950
35939W        W 8265  23.203  16.099   1.829
35940W        W 8266   9.906  19.779  12.580
35941W        W 8267  12.662  24.468  14.846
35942W        W 8268  18.570   2.304   0.122
35943W        W 8269  43.928   4.899   1.404
35944W        W 8270  44.692  18.958  11.101
35945W        W 8271  31.600  30.132   4.635
35946W        W 8272   0.328  42.955  14.980
35947W        W 8273  29.138  36.406   4.875
35948W        W 8274  38.049  11.645   2.228
35949W        W 8275  28.975  23.088   2.968
35950W        W 8276  35.549   1.022  13.838
35951W        W 8277  31.533  37.647  12.646
35952W        W 8278   6.432  44.381   2.332
35953W        W 8279  15.478  12.360   0.017
35954W        W 8280  10.245  12.654  12.636
35955W        W 8281  38.157  10.710  12.910
35956W        W 8282  12.310  25.125  14.475
35957W        W 8283  42.355  25.524   1.725
35958W        W 8284  43.528  20.702   3.103
35959W        W 8285  31.605  39.192   4.154
35960W        W 8286   3.020  37.435  11.121
35961W        W 8287  36.897   7.780  11.041
35962W        W 8288   2.986  31.870  12.877
35963W        W 8289   0.951   7.135  12.943
35964W        W 8290   5.863   7.690   3.940
35965W        W 8291  22.565  23.725   3.723
35966W        W 8292  10.829  31.088   4.215
35967W        W 8293  13.717   4.688  13.559
35968W        W 8294  34.952  39.058  11.595
35969W        W 8295  43.933  13.599   2.233
35970W        W 8296  19.772   6.389  14.575
35971W        W 8297  42.976  12.289   0.009
35972W        W 8298  41.462  27.053   4.130
35973W        W 8299  16.761  33.070  12.044
35974W        W 8300  41.251  42.371  11.967
35975W        W 8301  11.249  29.205  13.878
35976W        W 8302   4.929  34.412   1.467
35977W        W 8303  25.637  18.334   2.141
35978W        W 8304  33.796  37.807   4.605
35979W        W 8305  17.295  38.490  14.960
35980W        W 8306  24.372  15.229  13.466
35981W        W 8307  18.717   6.699   3.709
35982W        W 8308  34.904  17.047   3.281
35983W        W 8309   8.759  13.099   1.287
35984W        W 8310  20.279   6.811   1.456
35985W        W 8311   2.007  41.628  14.807
35986W        W 8312  13.088  22.012   3.640
35987W        W 8313  25.102  25.569   0.220
35988W        W 8314  41.731  27.497  11.558
35989W        W 8315  11.198  11.336  14.340
35990W        W 8316   5.929  38.411  11.051
35991W        W 8317  36.111  16.831   0.323
35992W        W 8318  40.766  39.875  14.374
35993W        W 8319  15.897  35.896  13.910
35994W        W 8320  16.667  24.374  11.493
35995W        W 8321  31.495  13.179  14.560
35996W        W 8322  16.084   5.927  14.688
35997W        W 8323  42.051  13.296   2.761
35998W        W 8324  25.386  35.640   0.289
35999W        W 8325  12.430  19.975  11.175
36000W        W 8326  30.926   7.920   3.107
36001W        W 8327  32.313  19.765  11.160
36002W        W 8328  36.174  23.077   4.861
36003W        W 8329  19.031   9.622   2.698
36004W        W 8330  25.173   0.675  10.776
36005W        W 8331  35.539  29.519   4.346
36006W        W 8332  10.457  17.805  11.263
36007W        W 8333  20.733   5.586   4.556
36008W        W 8334  33.706  19.429  12.624
36009W        W 8335   5.768  17.184   2.844
36010W        W 8336  21.578   4.265   3.851
36011W        W 8337  42.630  11.401   4.446
36012W        W 8338  12.880  10.382  12.234
36013W        W 8339   9.578  40.940  14.885
36014W        W 8340  42.831  40.608  13.465
36015W        W 8341  32.917  38.400   2.128
36016W        W 8342   5.766   2.193  12.428
36017W        W 8343   6.152  25.513   2.000
36018W        W 8344  40.738  27.380   4.046
36019W        W 8345  42.429  11.112   4.048
36020W        W 8346  30.087  34.924   1.603
36021W        W 8347  16.537  17.867  12.615
36022W        W 8348  16.715   2.370   0.384
36023W        W 8349  29.924   6.817   1.897
36024W        W 8350   5.441  40.481   4.851
36025W        W 8351   0.783   7.950  13.843
36026W        W 8352  32.547  25.207  11.126
36027W        W 8353  14.753  18.302   3.694
36028W        W 8354  12.333  44.879  10.689
36029W        W 8355   9.900  35.424   1.523
36030W        W 8356  21.277  14.441   1.890
36031W        W 8357  14.716  15.589  13.422
36032W        W 8358  22.761  43.425  11.385
36033W        W 8359   7.423  27.495   4.644
36034W        W 8360   0.858  23.668   4.160
36035W        W 8361   2.450  26.363   4.127
36036W        W 8362   6.668  39.134   4.153
36037W        W 8363   5.185   7.247  12.774
36038W        W 8364  30.958  31.563   2.646
36039W        W 8365   5.669  23.707  10.833
36040W        W 8366  17.072  36.932  13.877
36041W        W 8367  42.147  20.181   2.724
36042W        W 8368  43.308  24.945   0.427
36043W        W 8369  18.285  35.923  14.054
36044W        W 8370   5.784   7.895  12.455
36045W        W 8371  35.452  36.459  10.533
36046W        W 8372  30.233  32.373  13.993
36047W        W 8373  34.475  40.859  11.665
36048W        W 8374  44.561  14.658  13.515
36049W        W 8375  38.961   8.498  10.888
36050W        W 8376   1.681  28.218  13.400
36051W        W 8377  24.067  22.161   2.432
36052W        W 8378  36.032  30.396   3.642
36053W        W 8379  11.384  35.539   1.351
36054W        W 8380  13.887  41.932   2.444
36055W        W 8381  31.089  19.130  14.594
36056W        W 8382  25.228  44.426   4.147
36057W        W 8383  38.369  32.332  12.152
36058W        W 8384  33.153  22.600   1.386
36059W        W 8385   6.769  24.983  13.584
36060W        W 8386  35.589   8.729   3.720
36061W        W 8387  10.875  44.856  13.986
36062W        W 8388   5.410  36.873   0.460
36063W        W 8389  31.117   7.218   1.417
36064W        W 8390  18.179  19.229   0.729
36065W        W 8391  44.568   3.440   1.277
36066W        W 8392  21.795  28.462   0.168
36067W        W 8393  17.457   0.386   3.958
36068W        W 8394  22.401   7.344   4.496
36069W        W 8395  15.114  36.736  12.860
36070W        W 8396   6.098  36.274   3.318
36071W        W 8397  36.451  13.606   2.143
36072W        W 8398   0.936  29.861   0.710
36073W        W 8399  23.120  24.220  11.633
36074W        W 8400  44.367  25.301  12.093
36075W        W 8401  18.114   8.121  12.977
36076W        W 8402  32.034  31.376   3.629
36077W        W 8403  21.776  23.118   4.871
36078W        W 8404  15.484  31.335  13.987
36079W        W 8405   6.820  37.675   0.776
36080W        W 8406  36.525  18.011  13.575
36081W        W 8407  33.451  18.805   0.381
36082W        W 8408  38.069   3.747  13.121
36083W        W 8409  33.037  35.306  12.771
36084W        W 8410  32.592  25.515   0.750
36085W        W 8411   1.243  42.407   4.884
36086W        W 8412  14.777  37.591  14.841
36087W        W 8413   0.787   5.961   1.975
36088W        W 8414  24.099   8.950  13.357
36089W        W 8415  39.085  20.796   2.732
36090W        W 8416   0.844   3.359  14.422
36091W        W 8417  32.146   0.813  13.082
36092W        W 8418  31.410   1.378  12.610
36093W        W 8419  24.004   4.342   2.582
36094W        W 8420   6.835  24.077  10.705
36095W        W 8421  28.471  22.005   3.831
36096W        W 8422  24.010  19.546  11.093
36097W        W 8423   8.960  17.725  12.913
36098W        W 8424  39.323   1.350   4.848
36099W        W 8425  40.026  39.610  13.881
36100W        W 8426  38.528  32.458  14.069
36101W        W 8427  38.779  22.610   2.720
36102W        W 8428  27.503   6.901  10.665
36103W        W 8429  43.569  12.909   3.251
36104W        W 8430  23.239   9.725   4.212
36105W        W 8431   6.896  16.835   1.778
36106W        W 8432  10.668  35.884   1.279
36107W        W 8433   0.479  16.776  13.474
36108W        W 8434  37.144  10.817  10.819
36109W        W 8435  44.842  23.206   2.359
36110W        W 8436  26.282  38.101   4.153
36111W        W 8437   0.503   3.770   1.596
36112W        W 8438  32.629  41.249  13.601
36113W        W 8439  27.498  27.260  14.693
36114W        W 8440  17.175  25.967  13.091
36115W        W 8441  22.703   2.156   1.264
36116W        W 8442  18.023   4.405  11.171
36117W        W 8443  23.960  38.926   3.812
36118W        W 8444  42.737   6.177  12.320
36119W        W 8445  41.500  43.992  11.593
36120W        W 8446  21.353   4.078  13.928
36121W        W 8447   1.204  13.056   2.134
36122W        W 8448  17.548  43.544  12.506
36123W        W 8449  12.363  38.368   3.363
36124W        W 8450  25.921  31.085  13.273
36125W        W 8451  18.075   8.144  13.908
36126W        W 8452  33.733   8.777   0.037
36127W        W 8453  23.917  36.716   3.157
36128W        W 8454   7.965   0.804   3.609
36129W        W 8455   2.920  38.416  10.363
36130W        W 8456  33.697  42.412   3.178
36131W        W 8457  12.677  37.436   5.064
36132W        W 8458   4.699  13.725  12.914
36133W        W 8459   2.443  24.461   9.847
36134W        W 8460   3.552   0.302  12.898
36135W        W 8461  12.878  43.809  13.545
36136W        W 8462  40.886  28.071  10.920
36137W        W 8463  28.016  40.467  12.781
36138W        W 8464  27.582  23.527  12.024
36139W        W 8465  34.092  20.661   4.540
36140W        W 8466  36.488  28.029  12.902
36141W        W 8467  19.296  36.345   2.959
36142W        W 8468  21.435  18.616   2.217
36143W        W 8469  37.631  10.853  11.536
36144W        W 8470  39.812  37.630   3.665
36145W        W 8471  39.509  34.563  13.823
36146W        W 8472  10.624  18.194   1.798
36147W        W 8473  44.317   2.939   0.304
36148W        W 8474  41.100   8.717  11.125
36149W        W 8475  31.555  39.049  12.353
36150W        W 8476  36.130  13.644  10.615
36151W        W 8477  15.064  40.028   4.569
36152W        W 8478  34.486  25.900  11.881
36153W        W 8479  15.114  26.549   2.880
36154W        W 8480  34.306  44.322   1.396
36155W        W 8481  28.964  12.451   1.420
36156W        W 8482  34.752  17.312  11.643
36157W        W 8483  16.562  34.078   2.699
36158W        W 8484  44.827  44.025   2.718
36159W        W 8485  15.662  15.204   3.881
36160W        W 8486  26.656  19.714   4.394
36161W        W 8487   7.735  23.202  13.906
36162W        W 8488   2.164  12.154  12.106
36163W        W 8489   1.578  13.911   3.056
36164W        W 8490  15.181   8.841   3.163
36165W        W 8491  10.174  11.567   2.270
36166W        W 8492  20.984  31.626  14.763
36167W        W 8493   2.041  13.776   2.794
36168W        W 8494  16.314  30.920   0.441
36169W        W 8495  41.984  34.097   4.971
36170W        W 8496   6.768  38.808  13.112
36171W        W 8497  28.058  27.969   3.249
36172W        W 8498  36.029  20.976  13.336
36173W        W 8499  44.391  40.867   0.108
36174W        W 8500  35.307  10.776  10.840
36175W        W 8501   3.529   6.704  14.921
36176W        W 8502  17.953   5.333  13.572
36177W        W 8503  10.689  33.422   4.686
36178W        W 8504  30.513  37.538  12.110
36179W        W 8505   3.348  22.814   3.111
36180W        W 8506  14.120  29.871   2.823
36181W        W 8507  37.527  28.507   2.385
36182W        W 8508   3.865  24.820   2.246
36183W        W 8509  21.113  43.028  10.653
36184W        W 8510   7.800  10.557   1.126
36185W        W 8511  18.246  44.727   2.382
36186W        W 8512  29.380   0.724   3.323
36187W        W 8513  22.950  41.430   3.250
36188W        W 8514  32.509  15.797   1.709
36189W        W 8515   2.211  38.456   3.202
36190W        W 8516   2.650  23.990   9.761
36191W        W 8517  14.883  14.823   3.104
36192W        W 8518  21.149  22.987   2.096
36193W        W 8519  39.122  30.135  10.987
36194W        W 8520  34.352  43.922   1.727
36195W        W 8521  41.547  31.600  11.592
36196W        W 8522  14.816   6.923  11.149
36197W        W 8523   6.160  15.293  12.883
36198W        W 8524   4.004  29.847  14.252
36199W        W 8525  27.921  24.446   1.436
36200W        W 8526  11.618  25.070  13.900
36201W        W 8527  24.167  39.613   5.117
36202W        W 8528   9.738  34.624  12.349
36203W        W 8529  29.427  21.329   1.559
36204W        W 8530  21.419   3.466  11.137
36205W        W 8531   7.871  43.868   0.413
36206W        W 8532  26.346  23.157  14.502
36207W        W 8533  27.530  41.772  12.424
36208W        W 8534  34.992  15.636   0.974
36209W        W 8535  29.489  35.649  12.244
36210W        W 8536  21.481  35.352   2.661
36211W        W 8537  26.180  13.168  12.648
36212W        W 8538  27.955  18.159   3.758
36213W        W 8539   9.478  43.635   2.796
36214W        W 8540   8.163  21.448  11.610
36215W        W 8541  14.563  24.051   4.939
36216W        W 8542  41.839   2.463  11.518
36217W        W 8543   2.001  28.745   0.965
36218W        W 8544   8.313   7.758  11.885
36219W        W 8545  14.338  28.041   0.994
36220W        W 8546  21.129  35.344  13.569
36221W        W 8547  10.424   2.822  10.717
36222W        W 8548  27.209  39.010  12.559
36223W        W 8549  23.782   9.078  14.040
36224W        W 8550  27.598  16.858   2.236
36225W        W 8551  32.075   9.308   1.511
36226W        W 8552  27.398  42.349  10.710
36227W        W 8553  30.446  37.079   3.560
36228W        W 8554  10.870  14.764  11.551
36229W        W 8555  29.623  41.450  10.899
36230W        W 8556  31.346  37.320  13.581
36231W        W 8557   6.813  36.993  10.761
36232W        W 8558  37.224  16.389  13.366
36233W        W 8559   8.426  28.084   4.581
36234W        W 8560  39.251  13.923   2.857
36235W        W 8561  43.529  30.720  12.461
36236W        W 8562   8.699   0.225   0.297
36237W        W 8563  40.628  43.880  13.864
36238W        W 8564  37.369   4.997  12.889
36239W        W 8565  27.615  17.782  12.513
36240W        W 8566  35.192  12.463   1.046
36241W        W 8567  38.449  42.076   1.897
36242W        W 8568  24.798  16.540   0.279
36243W        W 8569  26.920   4.774  13.848
36244W        W 8570   3.213  13.673   1.311
36245W        W 8571  36.860   4.924  14.841
36246W        W 8572  30.393  15.688  10.555
36247W        W 8573  27.809  18.159   2.406
36248W        W 8574  29.007  11.775  14.711
36249W        W 8575  23.344  39.888   4.245
36250W        W 8576  12.475  13.219  11.820
36251W        W 8577   7.810  43.766  11.883
36252W        W 8578  26.406  30.381   1.844
36253W        W 8579   4.960  41.117  13.433
36254W        W 8580  30.193  35.889   1.243
36255W        W 8581  34.525   6.187  14.913
36256W        W 8582   6.876  38.377   1.824
36257W        W 8583  33.036   6.184   3.858
36258W        W 8584  17.711   5.208  10.585
36259W        W 8585  31.398  25.437   3.755
36260W        W 8586  17.987  18.994  11.534
36261W        W 8587  19.142  21.999   1.310
36262W        W 8588  39.825  39.564  12.802
36263W        W 8589  13.080  34.454   1.808
36264W        W 8590  31.414  27.905   3.633
36265W        W 8591  28.249  35.507  14.860
36266W        W 8592  20.956  30.423   2.768
36267W        W 8593  18.832   5.919   4.593
36268W        W 8594  14.844  35.931   1.276
36269W        W 8595   7.983  20.596  13.830
36270W        W 8596   8.281  30.611   0.928
36271W        W 8597  24.722   8.032  14.752
36272W        W 8598  11.553  28.574   3.685
36273W        W 8599  43.486  31.921   2.731
36274W        W 8600  40.576   3.860   3.289
36275W        W 8601  39.381   5.069   0.521
36276W        W 8602  33.582   5.562  14.833
36277W        W 8603  24.123  23.456  13.884
36278W        W 8604  21.057  18.555  12.149
36279W        W 8605  34.575   8.754   3.631
36280W        W 8606  29.244  18.134  14.919
36281W        W 8607  34.465  20.527  11.413
36282W        W 8608   0.905  11.393  13.330
36283W        W 8609  42.320   3.531  14.305
36284W        W 8610  33.507  26.655   2.512
36285W        W 8611  12.925   9.128  12.492
36286W        W 8612  43.965  32.149   4.038
36287W        W 8613  15.923  23.670   2.202
36288W        W 8614  14.204   9.874   3.217
36289W        W 8615  30.726   7.253   3.137
36290W        W 8616  38.438   0.494   2.857
36291W        W 8617  19.228  25.517   2.636
36292W        W 8618  34.170  28.412  11.520
36293W        W 8619  24.617  15.996   1.337
36294W        W 8620   6.911  35.043   2.880
36295W        W 8621  17.223  13.689  12.500
36296W        W 8622  35.469   5.069  13.877
36297W        W 8623  12.666  20.514   4.631
36298W        W 8624  42.025  16.844   1.691
36299W        W 8625  30.916  34.606  13.116
36300W        W 8626  11.407   4.918  12.469
36301W        W 8627  40.013  12.343  11.970
36302W        W 8628   4.978  28.515  11.965
36303W        W 8629  44.002  23.969  12.713
36304W        W 8630   4.250   6.011  12.519
36305W        W 8631  37.321  13.165  13.015
36306W        W 8632   2.487  43.817   4.723
36307W        W 8633   8.674  21.463   4.491
36308W        W 8634   5.595  44.618   3.213
36309W        W 8635   1.951  33.915  10.579
36310W        W 8636  22.218   2.796  12.488
36311W        W 8637  43.726  31.557   1.844
36312W        W 8638  18.079  10.813  12.095
36313W        W 8639  31.893   5.782   1.704
36314W        W 8640  15.098  26.926   0.694
36315W        W 8641  42.005  39.531  13.948
36316W        W 8642  10.075   1.377  14.907
36317W        W 8643  40.356  39.518   1.413
36318W        W 8644  31.897   8.249   4.571
36319W        W 8645  36.038  26.065   1.419
36320W        W 8646   4.818  29.355   3.753
36321W        W 8647  22.497  25.984   4.615
36322W        W 8648  18.161  22.518   1.193
36323W        W 8649  44.131   3.902   2.730
36324W        W 8650  40.044  42.879  13.074
36325W        W 8651   9.257   6.716   1.828
36326W        W 8652  39.969  25.938   0.585
36327W        W 8653  29.084   3.125   3.778
36328W        W 8654  33.713  30.999  12.717
36329W        W 8655  43.225   6.238   0.855
36330W        W 8656  17.547  12.014  14.034
36331W        W 8657   8.013  15.650   1.201
36332W        W 8658  28.987  44.615   3.768
36333W        W 8659  29.151   5.789  11.594
36334W        W 8660  42.327  42.623  10.525
36335W        W 8661  14.687  41.504   2.434
36336W        W 8662  36.510   1.387   4.279
36337W        W 8663   7.493  29.717   3.742
36338W        W 8664  40.363   5.497  13.425
36339W        W 8665   7.502  24.448   4.033
36340W        W 8666   0.539   1.779   0.316
36341W        W 8667  28.140  37.454   3.208
36342W        W 8668   9.630   8.025   3.662
36343W        W 8669  33.238  29.413   2.379
36344W        W 8670  30.959   6.765  13.380
36345W        W 8671  13.169  31.818  12.519
36346W        W 8672  19.293  31.385   4.169
36347W        W 8673  41.226  40.793  12.753
36348W        W 8674  21.824   5.439  12.178
36349W        W 8675  15.074  29.060  10.970
36350W        W 8676  30.087  24.152   0.776
36351W        W 8677  20.714   2.285  10.915
36352W        W 8678  29.622  19.062  12.413
36353W        W 8679  34.674   3.331  14.719
36354W        W 8680  41.855  14.076  12.210
36355W        W 8681  30.081  44.390  11.120
36356W        W 8682  10.681  32.648   3.307
36357W        W 8683  16.260   2.391  14.215
36358W        W 8684  21.689   4.157   2.116
36359W        W 8685  17.531  29.958  10.713
36360W        W 8686  44.001  25.283  11.174
36361W        W 8687  40.877   2.025  12.336
36362W        W 8688  29.656   4.876  13.884
36363W        W 8689   2.901  43.899   4.418
36364W        W 8690  15.816  16.387  13.022
36365W        W 8691  14.717   6.141   3.181
36366W        W 8692  32.593  16.842  14.793
36367W        W 8693  37.888  15.681  14.767
36368W        W 8694  18.591  16.950  11.140
36369W        W 8695  18.092  30.423  14.927
36370W        W 8696   2.323   7.866   3.684
36371W        W 8697  22.652  16.952   2.165
36372W        W 8698  39.928  28.912  12.488
36373W        W 8699  13.033  39.239  14.471
36374W        W 8700  42.107  38.449  14.723
36375W        W 8701  32.893  44.621  14.217
36376W        W 8702   7.925  13.275   2.691
36377W        W 8703  10.239  26.904   1.150
36378W        W 8704  34.879  11.603  11.519
36379W        W 8705  21.482  28.479   4.433
36380W        W 8706   8.132  22.628  14.870
36381W        W 8707  40.340  21.120   0.655
36382W        W 8708  31.045  19.649   0.285
36383W        W 8709  39.999  42.330  12.383
36384W        W 8710  37.756   9.181   2.427
36385W        W 8711  27.091  12.336  11.858
36386W        W 8712  35.185  16.250  13.339
36387W        W 8713  24.096  24.979   1.729
36388W        W 8714  15.865  28.503   0.862
36389W        W 8715  27.599  29.288  11.953
36390W        W 8716  15.394  44.109   0.789
36391W        W 8717  14.898  34.467   4.298
36392W        W 8718  39.980  39.303   2.779
36393W        W 8719  16.626  22.439   2.063
36394W        W 8720  28.137   7.989   0.891
36395W        W 8721   8.884  19.077  12.992
36396W        W 8722  27.368  19.565   4.966
36397W        W 8723  34.942  42.770   4.296
36398W        W 8724  13.173  44.866  11.957
36399W        W 8725   8.453  25.392   0.217
36400W        W 8726   6.694  39.709  13.049
36401W        W 8727   8.404  35.837  14.265
36402W        W 8728   2.467  33.732   0.810
36403W        W 8729  39.869  24.493   4.172
36404W        W 8730   5.101  18.203   3.915
36405W        W 8731  39.763  28.144  12.190
36406W        W 8732  24.340  23.942  13.911
36407W        W 8733  43.297  21.979   3.126
36408W        W 8734  31.102  33.204   4.590
36409W        W 8735  20.782  39.460   3.611
36410W        W 8736  15.098  15.892  11.483
36411W        W 8737  24.626  16.529   4.215
36412W        W 8738  29.187  12.307  10.635
36413W        W 8739  12.678  11.325   2.731
36414W        W 8740  17.555   3.976  12.901
36415W        W 8741  34.650  30.932  11.923
36416W        W 8742  34.458  19.269   0.328
36417W        W 8743  18.266  21.774  14.356
36418W        W 8744  33.555  17.635   3.676
36419W        W 8745   5.805  40.364  11.345
36420W        W 8746   4.131  18.314   2.381
36421W        W 8747   3.902   7.291  14.340
36422W        W 8748   1.925  27.457   3.668
36423W        W 8749   7.841  33.185  14.890
36424W        W 8750  16.937  21.499   5.173
36425W        W 8751  41.406  14.680   2.108
36426W        W 8752   1.479  13.291   1.762
36427W        W 8753  28.190   2.351  14.007
36428W        W 8754   4.033  35.592  11.619
36429W        W 8755  44.744   7.335   2.377
36430W        W 8756   5.049  42.593   4.120
36431W        W 8757  43.943  32.568   1.715
36432W        W 8758  21.773  10.377   1.972
36433W        W 8759  11.638  36.009   1.399
36434W        W 8760  16.095  34.573   0.102
36435W        W 8761  16.536  34.509  14.821
36436W        W 8762   5.283  39.863  11.335
36437W        W 8763  12.371  32.332  14.220
36438W        W 8764  31.991  21.824   0.402
36439W        W 8765  18.881  37.755   3.169
36440W        W 8766  42.065  41.786   1.213
36441W        W 8767  30.556   8.750   4.629
36442W        W 8768  15.197  15.090  12.972
36443W        W 8769  33.683  40.673  12.042
36444W        W 8770  41.499  34.486   2.240
36445W        W 8771  36.912  42.302  12.674
36446W        W 8772  43.316  14.222   1.861
36447W        W 8773  34.823  26.687   9.796
36448W        W 8774  15.530  10.371   3.210
36449W        W 8775  33.175  14.341   1.832
36450W        W 8776  24.512  16.522   2.743
36451W        W 8777  16.726  32.063  12.918
36452W        W 8778  15.662  41.460   4.048
36453W        W 8779  29.412  28.378  10.934
36454W        W 8780   8.400  20.311  12.980
36455W        W 8781  22.401  24.623  12.825
36456W        W 8782  10.575  26.972   3.187
36457W        W 8783  14.585   0.273  11.034
36458W        W 8784  14.099  15.117  12.814
36459W        W 8785  12.224  33.429  10.086
36460W        W 8786  27.485   1.321   3.225
36461W        W 8787  34.936  36.346   2.038
36462W        W 8788  30.378  29.181   0.816
36463W        W 8789  36.542  42.257  11.925
36464W        W 8790  35.495  42.458   1.093
36465W        W 8791  42.124   0.554   4.823
36466W        W 8792  30.517  35.813   4.545
36467W        W 8793  34.946   3.925  12.887
36468W        W 8794  39.421  41.123   4.210
36469W        W 8795   1.858   2.695   2.852
36470W        W 8796  38.296  26.124  12.382
36471W        W 8797  32.866  30.104   1.846
36472W        W 8798  21.639  15.371   2.165
36473W        W 8799   2.013  27.242  11.181
36474W        W 8800  25.197  36.827  14.897
36475W        W 8801   0.436  14.766   3.212
36476W        W 8802  24.555  10.773   4.096
36477W        W 8803  28.170  18.975   0.149
36478W        W 8804  39.464  34.344   0.983
36479W        W 8805  10.378  34.135  14.338
36480W        W 8806  38.547  44.830  11.611
36481W        W 8807  12.679  15.629   3.664
36482W        W 8808   6.736  31.614  11.966
36483W        W 8809  21.268  27.204  13.443
36484W        W 8810  27.244  25.254   0.326
36485W        W 8811  15.782   2.326  12.281
36486W        W 8812  13.814  18.314  11.380
36487W        W 8813  35.510  22.736   3.846
36488W        W 8814  24.942  10.817  12.962
36489W        W 8815   2.398   4.391   5.143
36490W        W 8816  29.564  15.155  12.071
36491W        W 8817  26.257  25.139  14.307
36492W        W 8818  19.570   6.672   2.928
36493W        W 8819  25.605  32.821   3.486
36494W        W 8820  37.601  41.585   1.647
36495W        W 8821  20.547  22.205   3.210
36496W        W 8822  14.894  11.663   2.015
36497W        W 8823  44.800  26.001  14.326
36498W        W 8824  25.654  18.642   1.739
36499W        W 8825   0.001  34.435  12.248
36500W        W 8826   3.713  24.878   0.031
36501W        W 8827   6.371  38.491   4.831
36502W        W 8828   8.686  36.343   2.074
36503W        W 8829  15.249  34.138   0.237
36504W        W 8830  14.354   0.534   1.771
36505W        W 8831  40.898   2.029   4.961
36506W        W 8832  38.070  30.175  11.125
36507W        W 8833   9.254  15.680  13.604
36508W        W 8834  39.935  23.008  10.962
36509W        W 8835  29.464  25.958  14.507
36510W        W 8836  44.983  31.954   3.706
36511W        W 8837  30.196  27.491   1.636
36512W        W 8838  13.153  23.626   9.850
36513W        W 8839  29.661   6.474  11.135
36514W        W 8840  14.271   1.967   1.680
36515W        W 8841  13.309  15.830  13.358
36516W        W 8842   7.478  17.056  14.070
36517W        W 8843   6.738   5.966   4.111
36518W        W 8844  11.739  33.040  11.752
36519W        W 8845  19.570  19.013  12.826
36520W        W 8846  11.116  21.103  13.550
36521W        W 8847  16.162  26.983   4.182
36522W        W 8848   4.393  10.251   1.589
36523W        W 8849  16.327   7.602   2.333
36524W        W 8850  24.730  43.760   1.253
36525W        W 8851  43.518  11.227  12.633
36526W        W 8852  10.783  21.812   4.535
36527W        W 8853  26.413  12.565   3.635
36528W        W 8854  42.947  21.523   5.078
36529W        W 8855   8.902  11.591   4.145
36530W        W 8856  20.915  33.138  12.042
36531W        W 8857  28.495  21.686  11.630
36532W        W 8858  16.233  40.812   0.798
36533W        W 8859   5.357  34.512  13.867
36534W        W 8860  18.527  19.254   4.802
36535W        W 8861  19.174   5.716   0.748
36536W        W 8862   0.702   9.964  12.554
36537W        W 8863  34.963  13.007  12.112
36538W        W 8864   1.897  25.660  10.642
36539W        W 8865  37.189  12.335  12.802
36540W        W 8866  27.688  16.725  11.938
36541W        W 8867  24.059   1.287  14.549
36542W        W 8868  25.725  31.723  13.422
36543W        W 8869  15.353  21.147   3.894
36544W        W 8870  20.572  28.692   2.730
36545W        W 8871  40.969   4.944   0.016
36546W        W 8872   4.782  43.954  13.392
36547W        W 8873  20.507   9.422  12.091
36548W        W 8874  12.944  26.144   3.174
36549W        W 8875  15.289   6.463   4.449
36550W        W 8876  37.971  10.824  10.266
36551W        W 8877  34.194  31.221  14.131
36552W        W 8878  16.329  25.932   0.916
36553W        W 8879  41.268  28.366  10.751
36554W        W 8880  42.765  11.367   2.138
36555W        W 8881  36.114  38.816   4.700
36556W        W 8882  19.484   0.495  10.432
36557W        W 8883  32.384  34.454  11.088
36558W        W 8884   3.179   8.316   4.630
36559W        W 8885  18.550  10.166  14.425
36560W        W 8886  14.075  28.363  11.502
36561W        W 8887  32.402   0.415  11.510
36562W        W 8888   5.968  34.650  10.670
36563W        W 8889  18.731  20.455   3.306
36564W        W 8890  40.372  19.950   1.740
36565W        W 8891  17.383   9.993  14.078
36566W        W 8892  17.265  11.876   4.571
36567W        W 8893  32.055  42.740  12.529
36568W        W 8894  40.500  22.416  14.461
36569W        W 8895  29.691  12.288   3.539
36570W        W 8896  19.094   1.474   2.606
36571W        W 8897  27.082  32.834   2.719
36572W        W 8898  43.342   9.922   2.450
36573W        W 8899  11.902  33.945   5.011
36574W        W 8900  37.298  19.336  12.050
36575W        W 8901  27.348   1.618   2.512
36576W        W 8902  18.058  32.366   0.048
36577W        W 8903  23.628  31.740   4.399
36578W        W 8904  25.549  23.531  13.126
36579W        W 8905  44.098  21.024   1.296
36580W        W 8906  42.983  17.755   4.976
36581W        W 8907   3.090  29.487  12.271
36582W        W 8908  24.158  10.803  13.887
36583W        W 8909  36.803  38.008   3.877
36584W        W 8910  38.401   6.343   4.748
36585W        W 8911  13.254  35.358  14.737
36586W        W 8912   7.936  22.469  11.135
36587W        W 8913  17.129  16.589   2.816
36588W        W 8914  15.831  37.973  13.713
36589W        W 8915  42.263  37.506   1.825
36590W        W 8916  29.683  26.582   3.150
36591W        W 8917   3.479   5.192   1.721
36592W        W 8918  20.820   3.334  14.939
36593W        W 8919  41.330   1.786  14.902
36594W        W 8920  20.756  39.618   1.804
36595W        W 8921  38.903  27.463   1.808
36596W        W 8922  43.456  31.974  13.494
36597W        W 8923  37.520  14.149   0.850
36598W        W 8924  12.145  18.181  12.846
36599W        W 8925  30.943  34.580  13.924
36600W        W 8926  37.483  22.021   0.356
36601W        W 8927  36.788  39.673   4.914
36602W        W 8928  30.537  32.334   0.374
36603W        W 8929  37.843  27.078   0.348
36604W        W 8930  17.263  38.102  12.592
36605W        W 8931   2.309  10.678   1.901
36606W        W 8932  30.216   1.911  12.066
36607W        W 8933  34.943  29.176  10.666
36608W        W 8934  31.873  36.817  13.147
36609W        W 8935  27.504   6.429  12.477
36610W        W 8936   8.716  31.387  11.008
36611W        W 8937   3.838   0.974   1.852
36612W        W 8938  18.525  15.619   3.426
36613W        W 8939  32.397  19.149  12.489
36614W        W 8940  28.569  27.164   2.718
36615W        W 8941  10.147  19.528  14.409
36616W        W 8942   0.305  40.974   3.786
36617W        W 8943  43.263   0.216  11.667
36618W        W 8944  19.560   7.433   0.975
36619W        W 8945   0.457  11.666   1.339
36620W        W 8946   8.581  26.547  12.992
36621W        W 8947  18.578  28.880   3.770
36622W        W 8948   3.502  42.806   5.079
36623W        W 8949  10.317  21.685   4.269
36624W        W 8950  44.488  12.302   0.734
36625W        W 8951  27.291   1.493  14.919
36626W        W 8952   5.172   4.350   4.172
36627W        W 8953  26.161  16.222  13.943
36628W        W 8954  19.555  39.428  12.167
36629W        W 8955   5.219  10.928   3.330
36630W        W 8956  33.392   4.452   5.029
36631W        W 8957  18.048  25.218  14.471
36632W        W 8958   2.855  20.623  14.494
36633W        W 8959  15.086   3.129   4.953
36634W        W 8960   8.978   7.368  13.989
36635W        W 8961   7.238  10.459  13.251
36636W        W 8962  42.767   3.764   1.439
36637W        W 8963   8.799  11.997  13.534
36638W        W 8964  37.206  17.995   3.856
36639W        W 8965  24.127  36.867  12.534
36640W        W 8966   2.984  10.687   0.687
36641W        W 8967  21.800  28.444  13.352
36642W        W 8968  32.634  43.231   3.052
36643W        W 8969  32.538   5.676   3.222
36644W        W 8970  23.570  20.246  14.121
36645W        W 8971  44.132  42.552  13.376
36646W        W 8972  23.410   0.844   1.294
36647W        W 8973  31.458  33.395  14.922
36648W        W 8974  35.040   5.637  14.729
36649W        W 8975   8.352  13.962  10.700
36650W        W 8976  12.985  29.688   5.065
36651W        W 8977  36.879   5.420  11.698
36652W        W 8978  41.927   4.097   2.423
36653W        W 8979  38.207  24.615   2.203
36654W        W 8980  25.500  20.237  10.780
36655W        W 8981  25.443  20.213  14.545
36656W        W 8982  34.437  32.240  13.519
36657W        W 8983   0.426  31.828  14.743
36658W        W 8984  29.515  31.332   2.331
36659W        W 8985  38.623  42.274  13.915
36660W        W 8986  32.986  33.913  13.500
36661W        W 8987   3.783   1.427   0.921
36662W        W 8988  11.865  22.039  13.739
36663W        W 8989  42.405  41.536   3.775
36664W        W 8990  29.721  12.149  14.423
36665W        W 8991  19.039  11.693  14.306
36666W        W 8992   1.376  12.059   2.251
36667W        W 8993  44.663   4.813   5.020
36668W        W 8994   9.364   8.816  14.500
36669W        W 8995  38.368  21.741  14.970
36670W        W 8996  34.856  23.568  11.860
36671W        W 8997  34.384  18.953  11.404
36672W        W 8998  19.057  39.467   0.308
36673W        W 8999  39.355   4.380  12.215
36674W        W 9000  27.152  19.111   3.919
36675W        W 9001   4.330  24.685   1.939
36676W        W 9002   9.061  15.793   2.492
36677W        W 9003   4.689  15.973   2.114
36678W        W 9004  38.017   7.670  12.548
36679W        W 9005  18.634  11.085   4.106
36680W        W 9006  19.680  30.009  14.026
36681W        W 9007  28.074  13.249   0.419
36682W        W 9008  25.754   6.525  14.750
36683W        W 9009   2.102  35.062  11.171
36684W        W 9010  36.225  31.171  11.073
36685W        W 9011  17.142   8.166   0.906
36686W        W 9012  36.076   5.077  10.748
36687W        W 9013  23.538  15.101   1.217
36688W        W 9014  11.748  37.101   0.516
36689W        W 9015  29.943  23.120  14.125
36690W        W 9016  38.691  10.601   5.526
36691W        W 9017  15.739  38.235   0.467
36692W        W 9018  43.848  33.867  13.658
36693W        W 9019  12.155  31.919  12.528
36694W        W 9020   4.325   5.253   4.113
36695W        W 9021   4.936  21.333   1.737
36696W        W 9022  31.396  10.500  11.167
36697W        W 9023  24.047  11.360   2.783
36698W        W 9024   5.465   7.642  10.675
36699W        W 9025  22.817  40.781   4.238
36700W        W 9026   6.444  23.587   0.929
36701W        W 9027  41.673  19.712  11.501
36702W        W 9028  26.040  36.339   4.628
36703W        W 9029  41.418  15.641  13.509
36704W        W 9030  13.461  13.781  10.963
36705W        W 9031  38.471  18.274   1.885
36706W        W 9032  27.148   4.802   4.107
36707W        W 9033  10.284  25.137   1.902
36708W        W 9034  18.083   9.813  10.667
36709W        W 9035  28.974   3.777  14.004
36710W        W 9036   2.832  22.972   1.473
36711W        W 9037  41.266  17.535  14.569
36712W        W 9038   2.310   6.517   3.241
36713W        W 9039  28.830   8.756   4.838
36714W        W 9040  14.832   1.188  13.431
36715W        W 9041  20.856   0.443   2.603
36716W        W 9042  18.666  32.584  11.126
36717W        W 9043  19.180  13.252   1.875
36718W        W 9044  18.786  42.124   4.892
36719W        W 9045  32.319  34.641   0.856
36720W        W 9046  14.395  30.938  14.834
36721W        W 9047   6.641   1.535  12.570
36722W        W 9048  15.652  27.665  14.221
36723W        W 9049   9.426  10.314  10.674
36724W        W 9050  22.921  28.531   3.794
36725W        W 9051  16.747  43.381   2.314
36726W        W 9052  20.564  40.032  10.535
36727W        W 9053  29.493  10.254   3.622
36728W        W 9054  30.443  20.046   4.283
36729W        W 9055  41.388  34.002  12.056
36730W        W 9056   8.735   2.284   0.176
36731W        W 9057  26.159  30.436   2.718
36732W        W 9058  32.094  15.224  14.822
36733W        W 9059  20.053  13.710   3.877
36734W        W 9060   1.253  42.997  12.150
36735W        W 9061  44.581  16.584   1.213
36736W        W 9062  40.009  42.446  13.363
36737W        W 9063  39.050  31.611  13.315
36738W        W 9064  15.300   7.723   3.684
36739W        W 9065   9.117  39.412   4.166
36740W        W 9066   6.924  31.933   3.280
36741W        W 9067   2.669  13.119  11.641
36742W        W 9068   1.008  25.138  13.235
36743W        W 9069  34.031  18.174   1.417
36744W        W 9070  16.897  25.900   4.451
36745W        W 9071  41.562   1.230   0.355
36746W        W 9072  13.390  28.555   4.157
36747W        W 9073  15.823  25.478  13.447
36748W        W 9074  36.444  33.917   1.866
36749W        W 9075  16.802  26.400   4.559
36750W        W 9076  41.945  35.397  14.570
36751W        W 9077  27.586  29.053   5.472
36752W        W 9078  32.228  37.047  11.153
36753W        W 9079  44.275  15.652   0.729
36754W        W 9080  16.505  24.192   4.658
36755W        W 9081  25.605  11.790   2.213
36756W        W 9082  39.772  43.651   2.254
36757W        W 9083  19.742  35.673  12.402
36758W        W 9084  17.662  26.993  14.559
36759W        W 9085  14.370  37.045   3.322
36760W        W 9086   3.901  43.052  14.510
36761W        W 9087  12.823  20.188  12.500
36762W        W 9088  38.601  29.431   2.777
36763W        W 9089   1.697   8.509  10.564
36764W        W 9090  23.497  43.008   3.289
36765W        W 9091  18.759  34.714   2.341
36766W        W 9092  35.024   4.723   0.156
36767W        W 9093  12.789  15.411   2.795
36768W        W 9094  18.168  30.765   2.327
36769W        W 9095   1.091  14.592  11.791
36770W        W 9096  18.365  10.817   3.174
36771W        W 9097   2.269  14.900  14.312
36772W        W 9098  29.417   7.569   1.973
36773W        W 9099  31.009  37.314   2.901
36774W        W 9100  28.240  11.710  13.212
36775W        W 9101   7.916   4.941  12.958
36776W        W 9102  19.270  39.364  11.709
36777W        W 9103   7.922  40.343   0.705
36778W        W 9104  13.248   0.423  11.165
36779W        W 9105  20.695  40.663  12.811
36780W        W 9106  20.358  21.166  12.094
36781W        W 9107   0.230  13.141  11.411
36782W        W 9108  22.651  41.035  14.865
36783W        W 9109  42.082  13.653   1.893
36784W        W 9110   2.232  31.821  14.044
36785W        W 9111  37.685  39.597  11.077
36786W        W 9112  31.089  10.546   3.395
36787W        W 9113   3.946  21.494  14.846
36788W        W 9114  32.983  30.212   0.441
36789W        W 9115  19.411   6.133   0.892
36790W        W 9116  12.753  32.999  11.872
36791W        W 9117  41.899  32.915  13.056
36792W        W 9118  29.356  39.404  14.879
36793W        W 9119  29.448  14.756   3.537
36794W        W 9120  28.281  33.998   3.244
36795W        W 9121  31.699  14.206   0.074
36796W        W 9122  12.006  13.892   4.505
36797W        W 9123   4.964  42.262  10.920
36798W        W 9124  32.536   3.697  14.774
36799W        W 9125  30.073   7.882   3.402
36800W        W 9126  37.617  33.438  11.558
36801W        W 9127  19.419   9.461   3.463
36802W        W 9128   8.854  37.912   1.442
36803W        W 9129  26.202  24.955   4.294
36804W        W 9130   6.254   5.484   4.491
36805W        W 9131  36.989  27.061   0.543
36806W        W 9132  39.055   1.692   2.620
36807W        W 9133  34.358   6.001  11.058
36808W        W 9134  16.744   8.218  14.992
36809W        W 9135   6.289  44.499  14.785
36810W        W 9136   9.412  28.585  13.088
36811W        W 9137  22.777  44.703   3.687
36812W        W 9138   9.042   6.088  12.051
36813W        W 9139  37.947  33.982  12.537
36814W        W 9140  34.033  35.990  12.922
36815W        W 9141  22.088   8.619   4.249
36816W        W 9142  44.656   4.612   4.417
36817W        W 9143  11.139  15.341   2.092
36818W        W 9144  17.297  44.920   3.783
36819W        W 9145  18.335  21.096  12.427
36820W        W 9146  14.266   8.690   1.767
36821W        W 9147  31.440  35.593  10.514
36822W        W 9148  30.118  38.369   1.338
36823W        W 9149   4.212  25.798  13.333
36824W        W 9150  10.103  33.748  11.515
36825W        W 9151  34.499  33.626  12.969
36826W        W 9152  23.214   2.443  13.715
36827W        W 9153  44.445   0.064  12.383
36828W        W 9154   6.557   1.501  12.060
36829W        W 9155   9.882  42.662   1.243
36830W        W 9156  21.701   8.326  12.533
36831W        W 9157  11.649  21.467  10.764
36832W        W 9158   3.838  40.325   1.906
36833W        W 9159  12.088  25.297  12.328
36834W        W 9160   7.145  35.017  12.205
36835W        W 9161  33.811  36.460  12.953
36836W        W 9162  32.061  17.360   0.566
36837W        W 9163  33.179  29.522   4.112
36838W        W 9164  21.199  15.206   3.681
36839W        W 9165  26.248  35.613   3.239
36840W        W 9166  21.776  23.259  12.081
36841W        W 9167   0.249  39.043  10.386
36842W        W 9168   4.753   2.984  12.071
36843W        W 9169  31.126   0.254  13.926
36844W        W 9170  42.777  36.328  11.357
36845W        W 9171  10.324  26.978  14.321
36846W        W 9172  13.179  19.019   2.196
36847W        W 9173  16.569  41.622   0.829
36848W        W 9174  32.025  25.054  10.793
36849W        W 9175   3.328   4.393   4.224
36850W        W 9176  14.124  35.625   4.096
36851W        W 9177  20.448  43.421  11.079
36852W        W 9178  38.862  10.787   9.788
36853W        W 9179  26.225  33.928  14.005
36854W        W 9180   2.948  13.652   1.794
36855W        W 9181  20.012  40.101  12.472
36856W        W 9182  32.432  18.998   0.404
36857W        W 9183  40.893  23.011   2.145
36858W        W 9184  10.200  27.372  11.539
36859W        W 9185  34.971  16.744  14.648
36860W        W 9186  39.925  26.459   3.056
36861W        W 9187  17.464  28.115   4.528
36862W        W 9188   6.616  14.602  14.928
36863W        W 9189  14.009  22.455  13.488
36864W        W 9190   3.249   3.219   1.601
36865W        W 9191  22.550   8.364   0.881
36866W        W 9192  20.026  27.288  12.507
36867W        W 9193  23.924  21.597  12.454
36868W        W 9194  41.519  36.016   4.803
36869W        W 9195  14.627  33.530  14.430
36870W        W 9196  30.163  41.675   4.015
36871W        W 9197  32.649   8.565  13.100
36872W        W 9198  31.866  11.394  14.269
36873W        W 9199  25.265  29.662  13.788
36874W        W 9200  42.909   5.690   1.409
36875W        W 9201  37.038  35.321   3.264
36876W        W 9202   7.696  31.483  10.602
36877W        W 9203  41.556   1.307  13.286
36878W        W 9204   9.209  17.656  14.807
36879W        W 9205  42.083  27.563   3.773
36880W        W 9206   9.410   4.849   3.691
36881W        W 9207  32.328  21.555   3.380
36882W        W 9208  28.673  41.686  11.214
36883W        W 9209  14.107  21.711   2.189
36884W        W 9210   1.516  12.344  13.999
36885W        W 9211  18.324  30.393   3.266
36886W        W 9212  30.945   6.332  14.832
36887W        W 9213  25.022   4.947  14.787
36888W        W 9214  19.713  28.227  11.413
36889W        W 9215  42.972   9.279  14.839
36890W        W 9216  25.978  17.102   4.148
36891W        W 9217  32.185  23.298   0.561
36892W        W 9218  23.438  30.122  14.367
36893W        W 9219  31.995   9.200   3.654
36894W        W 9220   4.817  44.626   3.073
36895W        W 9221   3.823  39.490   0.889
36896W        W 9222  12.830  30.709   2.357
36897W        W 9223   8.759  26.263   1.950
36898W        W 9224   7.889   0.835  13.651
36899W        W 9225  40.333  42.559  11.998
36900W        W 9226  19.606  26.533   4.778
36901W        W 9227  39.832   6.083   1.531
36902W        W 9228  18.005  41.906  12.639
36903W        W 9229  43.526  30.318  13.432
36904W        W 9230   0.953  22.187  14.909
36905W        W 9231  26.916  12.557  14.412
36906W        W 9232  22.570   8.192  10.404
36907W        W 9233  43.876  44.748   3.593
36908W        W 9234  26.607  37.915  13.302
36909W        W 9235  38.774  27.666   0.507
36910W        W 9236  43.772  40.321  11.998
36911W        W 9237  27.491  15.085  13.788
36912W        W 9238  37.134  16.050  11.945
36913W        W 9239  29.588   9.389   3.348
36914W        W 9240   5.457  37.530  10.105
36915W        W 9241  33.531  20.470   2.280
36916W        W 9242  31.872  26.135  12.548
36917W        W 9243  32.172  19.206   2.305
36918W        W 9244  20.702  42.480  14.868
36919W        W 9245  37.772  43.151   0.837
36920W        W 9246  43.694  26.421  10.101
36921W        W 9247  12.865   6.814   3.283
36922W        W 9248  16.653   1.373  13.948
36923W        W 9249  35.913  14.799   1.866
36924W        W 9250  38.040  27.512  11.119
36925W        W 9251  37.782  35.903  10.591
36926W        W 9252  34.100  29.876   0.843
36927W        W 9253   3.537  44.005  10.023
36928W        W 9254   8.727  11.894   4.553
36929W        W 9255  33.993  33.019   0.948
36930W        W 9256   7.934  31.166   4.904
36931W        W 9257  31.672  21.728   0.006
36932W        W 9258  38.569  37.151  12.595
36933W        W 9259  35.107  33.932   1.007
36934W        W 9260  27.169  21.104   3.154
36935W        W 9261  10.467   9.706  13.827
36936W        W 9262  40.476  43.062  11.999
36937W        W 9263  36.376  40.303  12.422
36938W        W 9264  32.206   2.275   4.246
36939W        W 9265  26.456  17.562   4.958
36940W        W 9266  40.861  22.546   3.568
36941W        W 9267  20.109  15.827  14.055
36942W        W 9268   3.817   4.506   2.764
36943W        W 9269  41.075  23.047   2.828
36944W        W 9270  29.195   0.344   2.395
36945W        W 9271  33.497  44.570  12.990
36946W        W 9272  24.035  10.090   0.750
36947W        W 9273   0.939  37.907   3.343
36948W        W 9274  30.480  25.667  13.096
36949W        W 9275  44.805   1.051   4.524
36950W        W 9276  27.621  38.498   0.463
36951W        W 9277  43.258  37.384  14.005
36952W        W 9278  22.132  17.762   1.123
36953W        W 9279  40.064   8.142  10.442
36954W        W 9280   8.223  16.674  13.999
36955W        W 9281   2.504  33.407   2.050
36956W        W 9282  40.810   7.160   4.595
36957W        W 9283  40.013  33.017  11.011
36958W        W 9284  42.021  24.652   4.880
36959W        W 9285  39.229  29.981   5.106
36960W        W 9286  15.559  15.866   2.727
36961W        W 9287  39.273   1.739  11.106
36962W        W 9288   8.404  19.239  13.904
36963W        W 9289  14.991  33.018  12.420
36964W        W 9290  13.589  11.818  14.524
36965W        W 9291  40.846   0.608   0.781
36966W        W 9292  29.204  17.212   2.624
36967W        W 9293  19.558  19.873  13.500
36968W        W 9294   2.471  29.106   3.725
36969W        W 9295  42.796  12.796  14.883
36970W        W 9296  31.880  25.725  13.479
36971W        W 9297  27.668  29.613  13.879
36972W        W 9298   3.695  22.805  10.662
36973W        W 9299  43.406  13.143  11.197
36974W        W 9300  33.429   3.001   4.854
36975W        W 9301  34.876  31.654  14.954
36976W        W 9302   4.629   7.619   3.825
36977W        W 9303  28.157  22.148  12.312
36978W        W 9304  23.990  26.903  11.590
36979W        W 9305  44.739  40.865  14.343
36980W        W 9306  19.274  20.272   0.273
36981W        W 9307  18.304   2.288   4.042
36982W        W 9308   0.518  33.460   3.403
36983W        W 9309  31.200  37.943  12.135
36984W        W 9310  32.616  20.077  10.803
36985W        W 9311  27.984  28.247   0.270
36986W        W 9312  16.278  17.818  13.485
36987W        W 9313   5.882  43.300   0.178
36988W        W 9314   0.345   8.261  13.929
36989W        W 9315  19.846  21.226   0.233
36990W        W 9316  34.488  14.469   2.204
36991W        W 9317  16.529   7.344   2.850
36992W        W 9318  20.389  42.841   2.486
36993W        W 9319  34.620  10.707  12.846
36994W        W 9320  38.011  18.671   4.495
36995W        W 9321  39.104  11.865  11.532
36996W        W 9322  37.950   1.826   4.874
36997W        W 9323  41.994  14.658  13.516
36998W        W 9324   5.844  22.331  14.298
36999W        W 9325  43.308  15.200  12.356
37000W        W 9326  17.311  37.409   4.106
37001W        W 9327  21.971  38.382  14.495
37002W        W 9328  31.150  24.903  10.183
37003W        W 9329   2.001  26.342   4.549
37004W        W 9330  43.612  10.894  12.174
37005W        W 9331  44.335  43.401  14.924
37006W        W 9332  33.065  38.641   0.871
37007W        W 9333  24.013  10.475  12.513
37008W        W 9334   7.994  13.581   3.867
37009W        W 9335   6.179  35.463   3.969
37010W        W 9336  32.703  33.832   1.838
37011W        W 9337  42.830  36.850  11.965
37012W        W 9338  16.169  23.200   4.410
37013W        W 9339  25.689  40.950  13.741
37014W        W 9340   4.827   1.274  12.204
37015W        W 9341  35.384  33.859  14.780
37016W        W 9342  18.335  44.015   0.729
37017W        W 9343  30.785  17.853   4.114
37018W        W 9344  31.442   5.706  14.933
37019W        W 9345  11.588  37.750   0.639
37020W        W 9346  34.059   3.838   2.137
37021W        W 9347   3.171   9.680  11.951
37022W        W 9348  22.632   7.224  11.659
37023W        W 9349  34.750  34.409   0.762
37024W        W 9350  37.967  23.719  12.462
37025W        W 9351  29.159  13.706  14.655
37026W        W 9352  36.825  33.553  12.007
37027W        W 9353  13.833  14.307  12.362
37028W        W 9354  31.187   8.953   3.794
37029W        W 9355   7.264  27.299   3.386
37030W        W 9356   3.267  40.081  11.508
37031W        W 9357  11.800  19.158   0.796
37032W        W 9358   9.224   1.207   0.790
37033W        W 9359  31.437  40.991   2.243
37034W        W 9360  43.549  32.894   2.378
37035W        W 9361  15.813  18.081   4.254
37036W        W 9362  11.280   8.094  11.350
37037W        W 9363  26.140   3.112  14.328
37038W        W 9364  13.905   2.590  11.601
37039W        W 9365   7.310  14.620  13.117
37040W        W 9366  31.007  26.895  13.124
37041W        W 9367  28.984   4.184  12.518
37042W        W 9368   8.884  24.742   4.124
37043W        W 9369  44.307  35.414   0.547
37044W        W 9370  14.112  23.801  13.449
37045W        W 9371  22.708  11.653   0.779
37046W        W 9372  13.173   9.692  12.932
37047W        W 9373  40.238  31.057   0.212
37048W        W 9374   3.623   4.855  11.550
37049W        W 9375  12.280  16.004  11.911
37050W        W 9376  36.077  16.798   4.667
37051W        W 9377  33.182   5.259  10.678
37052W        W 9378   8.367  12.662   0.727
37053W        W 9379   5.268   9.143   0.859
37054W        W 9380  36.977  26.311  11.181
37055W        W 9381  15.760  35.954   0.321
37056W        W 9382  21.716  21.652  12.077
37057W        W 9383  15.613   5.208  12.452
37058W        W 9384  17.709   0.334   1.949
37059W        W 9385  26.644   7.516   5.050
37060W        W 9386   4.962  38.020  12.361
37061W        W 9387  15.071  36.307  11.630
37062W        W 9388  14.790  30.120   0.569
37063W        W 9389  32.646  41.402   3.061
37064W        W 9390  23.514  20.801  12.647
37065W        W 9391  35.918   2.964   2.274
37066W        W 9392  26.126  39.804   3.127
37067W        W 9393  43.201  42.395   0.370
37068W        W 9394  32.446  39.192   4.615
37069W        W 9395  17.610  34.623  11.324
37070W        W 9396  30.292  10.719  14.818
37071W        W 9397  20.170   7.576   2.126
37072W        W 9398  32.854  13.264  13.902
37073W        W 9399  40.394  24.948   1.235
37074W        W 9400  40.787  22.999   3.811
37075W        W 9401   2.268  29.153   1.723
37076W        W 9402   7.342   4.166  12.102
37077W        W 9403  29.359  12.760  12.972
37078W        W 9404   3.170  16.227  11.822
37079W        W 9405   6.735   2.327  13.073
37080W        W 9406   5.437  11.622  13.360
37081W        W 9407  36.745  10.599  14.858
37082W        W 9408  18.019   7.985   0.645
37083W        W 9409  41.744  38.490   0.084
37084W        W 9410   3.326   6.435  13.006
37085W        W 9411   0.642  40.605   4.600
37086W        W 9412  40.104  39.213   0.547
37087W        W 9413  22.620  14.893  14.622
37088W        W 9414  34.721   6.363   4.704
37089W        W 9415  18.151  33.912   0.690
37090W        W 9416  16.909   7.699   3.776
37091W        W 9417  13.661  30.027   2.647
37092W        W 9418  36.149  15.302   1.181
37093W        W 9419  42.256  23.705   1.281
37094W        W 9420  27.017  33.147   3.430
37095W        W 9421  14.761  41.178  14.835
37096W        W 9422  14.249   8.155  13.297
37097W        W 9423   0.014  24.577  14.358
37098W        W 9424  18.440  36.624  14.401
37099W        W 9425  18.589  19.576   1.265
37100W        W 9426  12.315   0.765   0.941
37101W        W 9427  30.885  44.470   3.344
37102W        W 9428   5.273  36.138   1.714
37103W        W 9429  19.463   9.132  12.172
37104W        W 9430  23.522   9.774  13.534
37105W        W 9431  36.507   6.706  11.526
37106W        W 9432  31.171  15.114  14.333
37107W        W 9433   6.429  13.052  11.697
37108W        W 9434  25.902  29.444   4.284
37109W        W 9435  22.216  35.336  11.486
37110W        W 9436  43.801   5.739   3.274
37111W        W 9437  16.236  22.690  12.441
37112W        W 9438   4.697  19.597   1.392
37113W        W 9439  27.634  28.112   1.416
37114W        W 9440  18.822  41.086  14.041
37115W        W 9441  19.539  32.436  11.529
37116W        W 9442   1.750  34.077  11.845
37117W        W 9443  26.961   9.253   1.313
37118W        W 9444  11.725  28.368   0.522
37119W        W 9445  25.498   6.912  13.537
37120W        W 9446   8.052  23.486   2.155
37121W        W 9447   8.249  44.290  14.413
37122W        W 9448   6.434   3.775   2.120
37123W        W 9449  13.748  19.113   2.880
37124W        W 9450  13.401  30.656  14.476
37125W        W 9451  25.827   7.379   1.945
37126W        W 9452   2.579  25.711  14.285
37127W        W 9453  28.987  38.381  13.856
37128W        W 9454  26.141  40.898   3.599
37129W        W 9455  41.095  37.019   3.053
37130W        W 9456   3.177   7.990   4.185
37131W        W 9457  16.338   7.829   2.827
37132W        W 9458  26.437  25.757  12.887
37133W        W 9459  43.705   1.731   2.282
37134W        W 9460  18.393   3.749  11.783
37135W        W 9461  31.966   7.871  13.203
37136W        W 9462  12.538  24.704   4.211
37137W        W 9463  23.049  17.874  12.055
37138W        W 9464  20.887  26.189   3.751
37139W        W 9465   2.519  30.150  14.362
37140W        W 9466  16.811  27.962  11.427
37141W        W 9467  10.209  13.253   4.641
37142W        W 9468  24.056  41.491   3.731
37143W        W 9469  37.383  15.797   2.795
37144W        W 9470  26.422  36.271   0.865
37145W        W 9471  33.600  29.084   3.406
37146W        W 9472  41.776  10.821  11.699
37147W        W 9473  25.995  14.924   1.240
37148W        W 9474  37.007  11.263   0.711
37149W        W 9475  22.269  15.696  11.951
37150W        W 9476  25.156  16.829  13.081
37151W        W 9477   8.763   0.084  11.895
37152W        W 9478   7.957  43.081  12.579
37153W        W 9479  17.551  12.424  13.082
37154W        W 9480   3.668  43.719   1.381
37155W        W 9481  14.884  14.312  11.153
37156W        W 9482  40.021  31.262  10.802
37157W        W 9483   7.967  10.650  10.676
37158W        W 9484   9.571  20.659  14.936
37159W        W 9485  11.952  26.412   3.704
37160W        W 9486   9.348  18.162  13.701
37161W        W 9487   0.868  13.301   1.172
37162W        W 9488  29.531  44.312   0.295
37163W        W 9489  32.482  33.388  10.055
37164W        W 9490  28.642  23.046   0.703
37165W        W 9491  20.090  12.283   3.091
37166W        W 9492  27.882  30.923   1.827
37167W        W 9493  27.542  29.363   2.661
37168W        W 9494  28.440  24.552   1.471
37169W        W 9495  10.670  38.076   0.321
37170W        W 9496   5.181  27.466  11.546
37171W        W 9497  25.107   6.924   0.922
37172W        W 9498   2.203   8.408  10.771
37173W        W 9499   8.858  22.834  14.404
37174W        W 9500  12.936  41.947   4.135
37175W        W 9501   0.295  15.443   2.262
37176W        W 9502  16.146  42.606  13.754
37177W        W 9503  22.615   8.735  12.526
37178W        W 9504  35.845  39.261   4.633
37179W        W 9505  12.312  22.579  14.989
37180W        W 9506  24.532  23.327   3.361
37181W        W 9507  16.309  15.339  14.536
37182W        W 9508  13.155  37.353  10.691
37183W        W 9509   7.050  36.508  11.482
37184W        W 9510  42.961  14.820   1.273
37185W        W 9511   5.765  24.138  13.530
37186W        W 9512  22.173  40.594   3.705
37187W        W 9513  28.561  15.251   0.407
37188W        W 9514  21.525   8.734   1.823
37189W        W 9515  17.036  29.271   2.649
37190W        W 9516  15.802  41.828   4.359
37191W        W 9517  15.075  20.028   4.002
37192W        W 9518  33.594  21.459  12.505
37193W        W 9519   5.385  12.360   3.264
37194W        W 9520  26.365  18.058  12.233
37195W        W 9521  13.797  33.612   5.060
37196W        W 9522  43.605  39.792   2.837
37197W        W 9523   4.731   9.319  10.598
37198W        W 9524   5.905  33.854  12.524
37199W        W 9525  16.685  26.629  13.555
37200W        W 9526  17.085  25.585  13.984
37201W        W 9527  34.057  39.411   1.923
37202W        W 9528  25.058   6.889  13.830
37203W        W 9529   4.864  18.603   4.566
37204W        W 9530  37.876  13.194  11.150
37205W        W 9531  11.439  11.482  11.470
37206W        W 9532  10.233  39.367   3.642
37207W        W 9533  12.133  40.464   3.186
37208W        W 9534  17.666  19.909  10.644
37209W        W 9535   4.422  22.619  12.412
37210W        W 9536   1.839  25.289  12.835
37211W        W 9537  14.304  15.201   2.825
37212W        W 9538   3.179  43.009   3.260
37213W        W 9539  19.051  30.678  10.686
37214W        W 9540  20.736  42.276   3.888
37215W        W 9541   0.048  36.502   0.380
37216W        W 9542   9.129  37.497   2.202
37217W        W 9543   0.639  26.420   3.302
37218W        W 9544  37.934   8.370   4.392
37219W        W 9545   3.618  34.336  12.028
37220W        W 9546  26.150  37.179  13.396
37221W        W 9547  43.627  27.208  13.427
37222W        W 9548  10.083  22.036   0.515
37223W        W 9549  44.010  27.058   0.363
37224W        W 9550   7.495  21.745  13.509
37225W        W 9551   8.671  23.610   1.251
37226W        W 9552  39.124  43.186  11.454
37227W        W 9553  32.148  37.832  12.318
37228W        W 9554  32.710   9.202  14.457
37229W        W 9555  14.117  42.324  14.495
37230W        W 9556   3.731  20.391   0.732
37231W        W 9557  30.631  19.182   2.389
37232W        W 9558  23.440  41.000  13.783
37233W        W 9559   6.299  36.814   4.163
37234W        W 9560  35.064  13.644   2.363
37235W        W 9561  32.267  10.779   4.352
37236W        W 9562  22.943  39.849  12.493
37237W        W 9563   7.441   9.243  14.924
37238W        W 9564  32.035  15.657   4.121
37239W        W 9565   3.713  10.242  10.106
37240W        W 9566  35.813  22.629   0.709
37241W        W 9567  28.406   2.225  12.082
37242W        W 9568  38.552   5.507  13.451
37243W        W 9569  22.294   6.708   2.212
37244W        W 9570  41.778  14.522   2.926
37245W        W 9571  40.320  18.108  11.122
37246W        W 9572  26.055  38.303   2.772
37247W        W 9573   6.337   6.958   4.153
37248W        W 9574  35.327  17.704   2.339
37249W        W 9575  44.381  26.916  10.695
37250W        W 9576  20.179  36.530   0.998
37251W        W 9577   0.344  26.534  13.866
37252W        W 9578  15.307   8.578   5.039
37253W        W 9579  27.204   0.070   4.847
37254W        W 9580  19.636  28.619  11.829
37255W        W 9581  19.703   7.771  11.994
37256W        W 9582  24.471  24.754   0.443
37257W        W 9583  27.108  42.004  10.440
37258W        W 9584  30.997   4.669  11.185
37259W        W 9585   3.934  43.476  13.605
37260W        W 9586  31.402  43.347   2.297
37261W        W 9587   5.862  15.519   4.846
37262W        W 9588  28.459  17.489  11.597
37263W        W 9589  39.792  12.308   3.602
37264W        W 9590  26.988  43.986   0.723
37265W        W 9591  17.195  36.721   4.740
37266W        W 9592  32.473  14.665   3.768
37267W        W 9593  37.827  19.218  14.348
37268W        W 9594  14.652  38.802   2.784
37269W        W 9595  39.225   6.497  12.105
37270W        W 9596   6.550   0.833   5.141
37271W        W 9597  42.831   1.067   1.556
37272W        W 9598  39.237  30.503   1.412
37273W        W 9599  43.328  21.591   1.608
37274W        W 9600  17.988  41.062   1.327
37275W        W 9601  20.672  15.784  10.599
37276W        W 9602  33.516  35.437  11.553
37277W        W 9603  18.785   8.310   0.281
37278W        W 9604  30.908  25.621   4.499
37279W        W 9605  11.216  28.585  13.239
37280W        W 9606  14.385  22.734  11.075
37281W        W 9607  27.196   6.985   1.764
37282W        W 9608  23.405  37.392  14.247
37283W        W 9609  29.455  21.595  13.564
37284W        W 9610   2.984  40.827   0.290
37285W        W 9611  35.863  22.697   1.556
37286W        W 9612  42.852  41.769   3.661
37287W        W 9613  24.656   1.278  10.827
37288W        W 9614  40.501   3.689   0.724
37289W        W 9615  36.097  25.516  12.979
37290W        W 9616  43.065  24.217  12.452
37291W        W 9617  32.354  17.349   4.120
37292W        W 9618  13.609  21.749  14.967
37293W        W 9619   5.157   0.808  13.086
37294W        W 9620  26.659   3.978  12.970
37295W        W 9621  42.860  19.938   5.239
37296W        W 9622  23.105  25.031   0.487
37297W        W 9623   6.523  21.128   0.120
37298W        W 9624   7.873  17.290  11.016
37299W        W 9625  37.464  39.318   1.994
37300W        W 9626  44.820  14.129   2.298
37301W        W 9627  35.090  17.071  12.888
37302W        W 9628  11.075  11.242   3.800
37303W        W 9629   5.870  29.058  14.774
37304W        W 9630  41.787  25.919   0.348
37305W        W 9631   4.471  25.050  13.058
37306W        W 9632  12.219  36.815   1.313
37307W        W 9633  37.031  39.376   1.310
37308W        W 9634   4.885  33.387   0.697
37309W        W 9635  31.751  31.155  12.496
37310W        W 9636  26.507  21.115  10.878
37311W        W 9637  27.221  13.280   1.987
37312W        W 9638  25.560  20.531  13.761
37313W        W 9639   3.967  23.326  10.625
37314W        W 9640  11.150  28.558  14.276
37315W        W 9641  30.646  23.480   2.761
37316W        W 9642  40.599   4.442   1.294
37317W        W 9643   0.350   6.463   4.140
37318W        W 9644  29.586  15.941   3.297
37319W        W 9645  34.213   9.158   4.683
37320W        W 9646  19.580  32.975  12.552
37321W        W 9647  27.081  31.574   4.513
37322W        W 9648  19.482   2.491  11.794
37323W        W 9649  31.625  42.560  13.779
37324W        W 9650  24.544   9.173  13.190
37325W        W 9651  35.612  14.126   4.591
37326W        W 9652  29.244  29.133   3.403
37327W        W 9653  32.568  33.096   2.242
37328W        W 9654  39.792  22.980   1.752
37329W        W 9655  13.161  44.358   0.804
37330W        W 9656   7.408  43.354  13.478
37331W        W 9657   0.006   9.742  12.138
37332W        W 9658  41.953  38.469   4.090
37333W        W 9659  24.727   0.957   0.807
37334W        W 9660  23.620  42.765   0.826
37335W        W 9661  23.449  21.941  11.000
37336W        W 9662   8.412  22.282  10.922
37337W        W 9663  31.953  12.377  12.080
37338W        W 9664   5.786  12.364   0.024
37339W        W 9665  39.967   7.418   0.404
37340W        W 9666  44.972   8.475   1.995
37341W        W 9667  35.415  27.566  12.254
37342W        W 9668  32.294   2.454  14.935
37343W        W 9669  27.536   7.718  13.039
37344W        W 9670  39.162  22.320   4.829
37345W        W 9671  18.647  15.083   1.207
37346W        W 9672   6.374   9.392  10.991
37347W        W 9673  11.744  31.908  12.196
37348W        W 9674  38.402  33.628  13.536
37349W        W 9675  22.084  37.436   0.500
37350W        W 9676  35.489  39.323  14.293
37351W        W 9677   9.885  31.952  13.876
37352W        W 9678  11.284  31.004  11.914
37353W        W 9679  37.508  13.333   1.662
37354W        W 9680  42.939  22.234  11.964
37355W        W 9681  19.129  13.577  11.857
37356W        W 9682  27.308  10.640   1.459
37357W        W 9683  33.396   0.089   4.238
37358W        W 9684  40.828  42.751   3.119
37359W        W 9685  19.520   0.688   4.286
37360W        W 9686   5.100  21.747  13.460
37361W        W 9687  33.737   4.979   2.687
37362W        W 9688  22.250  12.682   4.579
37363W        W 9689  37.004   3.622  10.136
37364W        W 9690  37.902  11.270   3.595
37365W        W 9691   4.441   7.466  13.765
37366W        W 9692  11.684  29.509  13.058
37367W        W 9693   5.929  37.774  13.079
37368W        W 9694  33.132  19.478   4.680
37369W        W 9695  27.338  17.264   1.407
37370W        W 9696  14.642  35.349  13.340
37371W        W 9697  31.194  17.842  14.451
37372W        W 9698  18.799  18.263  11.590
37373W        W 9699  32.509   9.831   4.707
37374W        W 9700  33.346  42.341  11.543
37375W        W 9701  22.922   3.229  12.476
37376W        W 9702  28.161  27.557   2.900
37377W        W 9703   6.211  30.947  12.794
37378W        W 9704  24.130  26.903  13.346
37379W        W 9705   4.403   7.150   0.225
37380W        W 9706  20.072  30.085   4.223
37381W        W 9707  43.986  28.433   2.302
37382W        W 9708   9.550   6.219  12.102
37383W        W 9709  36.287  40.571   1.271
37384W        W 9710  39.321   9.246   3.359
37385W        W 9711  37.900  27.779  10.649
37386W        W 9712  15.800  29.103  11.495
37387W        W 9713   2.702  40.248   2.368
37388W        W 9714  24.349  33.343  13.172
37389W        W 9715  37.694  31.118  11.598
37390W        W 9716  33.501  35.555  14.025
37391W        W 9717  15.370   2.394   2.674
37392W        W 9718   1.321  21.258   4.987
37393W        W 9719  36.187  30.218   0.018
37394W        W 9720  32.118  26.206  13.649
37395W        W 9721  25.095  19.871   4.852
37396W        W 9722  42.731  23.935   0.044
37397W        W 9723  38.355  44.998  13.850
37398W        W 9724  18.557  18.742   2.385
37399W        W 9725  36.932  38.325   1.284
37400W        W 9726   1.149   2.992  14.852
37401W        W 9727  10.693  31.122  11.110
37402W        W 9728   3.433   7.535   0.288
37403W        W 9729  18.737  19.705  10.776
37404W        W 9730  22.519   0.518   0.715
37405W        W 9731  13.279  10.372   3.391
37406W        W 9732  29.475   7.836  12.966
37407W        W 9733   0.710  41.635  11.977
37408W        W 9734  26.134   9.061  10.924
37409W        W 9735  19.903   1.570  12.284
37410W        W 9736  23.131  19.211  12.853
37411W        W 9737  31.213  30.766  13.060
37412W        W 9738  11.875   6.168   0.164
37413W        W 9739  35.076  42.632  12.007
37414W        W 9740  22.533  26.516   1.323
37415W        W 9741  27.521   6.981   0.260
37416W        W 9742  34.122  30.801   2.393
37417W        W 9743  33.496  39.908  10.573
37418W        W 9744   4.909  43.451   0.176
37419W        W 9745  11.195   3.775  14.725
37420W        W 9746  25.682  43.375   2.758
37421W        W 9747   9.821   7.648   2.808
37422W        W 9748  25.531   5.379   3.708
37423W        W 9749  33.151  38.501   4.975
37424W        W 9750   2.597  15.481   0.151
37425W        W 9751  33.782  39.781  11.972
37426W        W 9752   4.444  24.036   4.398
37427W        W 9753  30.640   0.753  10.746
37428W        W 9754  23.745  17.156  13.582
37429W        W 9755  39.038  22.750  14.833
37430W        W 9756  39.977  13.610  14.344
37431W        W 9757  32.947  24.161   1.389
37432W        W 9758  42.546  44.397   1.840
37433W        W 9759  44.458  14.048  12.112
37434W        W 9760  44.827  36.451  14.394
37435W        W 9761  38.999  35.799  12.563
37436W        W 9762  29.045  38.770   2.846
37437W        W 9763  27.544  23.770  13.971
37438W        W 9764  36.158  20.516  11.950
37439W        W 9765  28.132  13.143  14.688
37440W        W 9766  14.170  34.944  12.086
37441W        W 9767  26.656   7.184   2.282
37442W        W 9768  16.707   9.648  10.376
37443W        W 9769  19.328  15.426   3.267
37444W        W 9770  38.416  16.883  10.402
37445W        W 9771   0.714   9.172   0.295
37446W        W 9772   6.366  31.827   4.160
37447W        W 9773  31.964  23.754   2.409
37448W        W 9774  27.928  21.207  14.435
37449W        W 9775  12.079  11.737  10.959
37450W        W 9776  20.591  40.319   1.201
37451W        W 9777  16.834  37.330  10.494
37452W        W 9778  25.448  29.589   4.063
37453W        W 9779  23.358  18.135   1.228
37454W        W 9780  43.865  13.408   0.284
37455W        W 9781  25.025   3.385  13.650
37456W        W 9782  17.107  23.179   0.226
37457W        W 9783  28.921  15.817   2.778
37458W        W 9784  19.731  24.709  13.937
37459W        W 9785  26.261  21.294   1.511
37460W        W 9786   5.774   4.222   2.385
37461W        W 9787  43.333   0.861   3.215
37462W        W 9788  11.300  29.643   1.569
37463W        W 9789  41.344  14.371  14.065
37464W        W 9790   2.770   7.630   3.673
37465W        W 9791  19.575  23.188   0.541
37466W        W 9792   8.811  24.525   2.701
37467W        W 9793   0.958  41.225  11.740
37468W        W 9794  40.974   3.747   2.950
37469W        W 9795   6.655  30.399   3.369
37470W        W 9796  17.679  40.567   1.187
37471W        W 9797   6.195  41.504  11.607
37472W        W 9798  30.169  33.607   3.761
37473W        W 9799  26.967  35.362   2.334
37474W        W 9800  30.531  22.633  11.609
37475W        W 9801  41.560  34.357  11.514
37476W        W 9802  16.714  22.471   0.186
37477W        W 9803  43.078  30.274  12.048
37478W        W 9804   3.737  11.784  14.811
37479W        W 9805  31.365  26.954   4.624
37480W        W 9806  16.172   6.159   3.243
37481W        W 9807  29.059  19.197  11.585
37482W        W 9808  41.711   0.522  13.919
37483W        W 9809  11.462  35.787   1.826
37484W        W 9810   6.669   6.788   4.495
37485W        W 9811  34.883   1.857  13.054
37486W        W 9812  30.594  32.827   0.499
37487W        W 9813   6.621  30.005  11.986
37488W        W 9814  40.882  13.599   0.836
37489W        W 9815   7.656  23.809  10.366
37490W        W 9816  29.207  16.201  14.047
37491W        W 9817  23.434  28.008  13.827
37492W        W 9818  21.625  26.441  14.861
37493W        W 9819  13.301  11.625  13.674
37494W        W 9820  10.509   8.218  12.013
37495W        W 9821  27.251   2.221   4.170
37496W        W 9822  36.448  14.244  13.001
37497W        W 9823  42.902  40.785   0.792
37498W        W 9824  26.242  42.729   0.303
37499W        W 9825  30.621  27.089  13.601
37500W        W 9826  15.527   0.721   2.289
37501W        W 9827  19.928  30.868   9.896
37502W        W 9828  36.842  17.523   1.348
37503W        W 9829  40.144  42.523   0.171
37504W        W 9830   3.877  37.402   4.623
37505W        W 9831  23.658  39.042   2.824
37506W        W 9832  10.325  41.287  13.970
37507W        W 9833   7.270  41.865   3.308
37508W        W 9834  39.347  14.665  13.138
37509W        W 9835  36.015  27.698  12.512
37510W        W 9836   9.510  14.110  14.429
37511W        W 9837  36.875  15.468   3.458
37512W        W 9838  40.350  22.065  12.966
37513W        W 9839  12.075  28.702   0.766
37514W        W 9840  27.519   2.666   4.607
37515W        W 9841  42.417  24.327  13.308
37516W        W 9842   1.988  11.663  11.999
37517W        W 9843  38.593  19.627  14.595
37518W        W 9844   8.176  42.880  11.676
37519W        W 9845   4.242  42.185  11.497
37520W        W 9846  28.200  42.539   3.478
37521W        W 9847  39.404   6.361   0.688
37522W        W 9848  18.976  15.804   3.212
37523W        W 9849  28.179   5.265  11.955
37524W        W 9850  28.805  14.855  10.600
37525W        W 9851  17.198  31.620  14.377
37526W        W 9852  13.320  12.653  11.309
37527W        W 9853  28.638  22.794   1.309
37528W        W 9854  23.693  18.715  13.391
37529W        W 9855  22.475  40.039  12.318
37530W        W 9856  17.968   5.246   1.772
37531W        W 9857  23.024  25.219  13.099
37532W        W 9858  15.782  18.318   2.337
37533W        W 9859  31.050   0.691  14.222
37534W        W 9860  35.204   4.833   1.601
37535W        W 9861  42.849   9.772   3.208
37536W        W 9862  16.399  24.774  13.439
37537W        W 9863  12.355  11.402  13.830
37538W        W 9864   3.258  17.540   3.133
37539W        W 9865  29.850   3.895   2.727
37540W        W 9866  17.352   8.713  13.983
37541W        W 9867   9.239   5.388  11.469
37542W        W 9868  27.088  31.049  14.904
37543W        W 9869  41.606  40.192  10.960
37544W        W 9870  38.032   1.882  14.743
37545W        W 9871  12.972  24.677   0.203
37546W        W 9872   5.473  31.581  12.505
37547W        W 9873  26.480  28.122  12.081
37548W        W 9874  29.438  28.943  13.824
37549W        W 9875   0.901  41.082   4.640
37550W        W 9876  28.121   8.234  12.525
37551W        W 9877  28.657  28.448  11.424
37552W        W 9878   8.886  32.416  14.927
37553W        W 9879   2.892  12.053   5.576
37554W        W 9880   9.374  23.502   3.613
37555W        W 9881  13.642  12.628   1.841
37556W        W 9882  27.617  36.091  10.631
37557W        W 9883  25.733   3.619   2.020
37558W        W 9884  15.702  42.130  14.919
37559W        W 9885  13.700  17.393  12.867
37560W        W 9886   0.376   9.438   0.642
37561W        W 9887  11.108  29.606  13.126
37562W        W 9888  29.403  19.565   3.731
37563W        W 9889  12.724  23.742  13.874
37564W        W 9890  37.411  16.684   4.442
37565W        W 9891  23.264  19.661  13.618
37566W        W 9892   9.271   7.779   0.687
37567W        W 9893   2.817   1.430   4.116
37568W        W 9894  22.709  43.594   2.322
37569W        W 9895  15.560  18.965   0.534
37570W        W 9896  15.051  36.362  14.256
37571W        W 9897   2.827  43.507  12.856
37572W        W 9898  15.466  23.428   1.474
37573W        W 9899  32.146  37.906   4.567
37574W        W 9900  14.200  26.616   2.160
37575W        W 9901  19.467  22.757  14.655
37576W        W 9902  16.303  11.829  11.534
37577W        W 9903  41.859   8.769   5.008
37578W        W 9904   3.679  44.771   3.812
37579W        W 9905   9.926  31.659   3.669
37580W        W 9906  40.299  40.582  11.978
37581W        W 9907  25.516  19.056   4.428
37582W        W 9908  33.914  22.670   2.720
37583W        W 9909   9.789   2.823   0.437
37584W        W 9910   5.179  40.940  11.084
37585W        W 9911  15.113  35.786  11.666
37586W        W 9912  42.006   0.838  10.345
37587W        W 9913  15.835  32.390   0.831
37588W        W 9914   6.830  39.486  13.517
37589W        W 9915  28.477   8.702  14.524
37590W        W 9916  35.522  19.807  12.096
37591W        W 9917   6.493   7.680  13.748
37592W        W 9918  35.997   3.696  12.474
37593W        W 9919  27.134   3.726  12.098
37594W        W 9920  33.400  35.094   1.715
37595W        W 9921   0.768  11.070   5.498
37596W        W 9922  11.084   8.062   4.135
37597W        W 9923  19.665   3.296   2.926
37598W        W 9924  20.764  21.679   3.269
37599W        W 9925   6.647  31.632   1.430
37600W        W 9926   8.113  35.103   3.655
37601W        W 9927  27.935  20.178   2.678
37602W        W 9928  13.235  43.017  13.073
37603W        W 9929  29.588   1.958  12.461
37604W        W 9930  17.521   7.849  10.659
37605W        W 9931  32.417   9.361   2.869
37606W        W 9932   1.282  18.985  13.900
37607W        W 9933  38.051  15.833  13.471
37608W        W 9934  42.493   3.731  14.971
37609W        W 9935   1.452  18.652   2.611
37610W        W 9936   2.393  41.572  14.450
37611W        W 9937   4.849  34.598  12.983
37612W        W 9938  42.902   2.866   3.276
37613W        W 9939  13.328  41.962  11.190
37614W        W 9940  32.634   3.819  12.030
37615W        W 9941  39.929   6.269  12.524
37616W        W 9942   2.918  20.310  12.700
37617W        W 9943   1.887   1.287  12.963
37618W        W 9944  42.875   0.968   2.958
37619W        W 9945  20.338   8.921  12.012
37620W        W 9946  15.731  41.301  12.354
37621W        W 9947  20.070  28.023   2.694
37622W        W 9948  36.506  44.442   0.627
37623W        W 9949  19.834  28.722  13.260
37624W        W 9950  16.118   9.111   0.490
37625W        W 9951  30.017  37.892   3.086
37626W        W 9952  17.311   1.651  14.385
37627W        W 9953   5.932  41.872  14.849
37628W        W 9954   0.625   3.767  12.083
37629W        W 9955  26.910  35.435   0.349
37630W        W 9956  29.977  26.690  13.748
37631W        W 9957   2.456  13.027  13.965
37632W        W 9958  19.272  10.630   2.861
37633W        W 9959   0.792  30.557   2.175
37634W        W 9960   6.377   0.588  12.972
37635W        W 9961  19.040   5.280   0.023
37636W        W 9962  44.005   4.805  12.561
37637W        W 9963  24.184  42.420  12.412
37638W        W 9964  26.996  36.145  13.866
37639W        W 9965  16.794  14.546  14.493
37640W        W 9966  11.692   6.477  12.795
37641W        W 9967   7.976   4.879   0.302
37642W        W 9968  39.788  25.902  11.198
37643W        W 9969  16.729   0.005  13.507
37644W        W 9970  21.480  17.217   2.156
37645W        W 9971  10.224  10.084  14.123
37646W        W 9972   6.888  38.164   2.765
37647W        W 9973  26.148   5.635  14.916
37648W        W 9974   5.527  35.114   2.046
37649W        W 9975   9.344   8.077  13.382
37650W        W 9976  21.604  25.712   4.784
37651W        W 9977  11.699  16.141   3.697
37652W        W 9978  18.060  36.398  14.101
37653W        W 9979  39.619  19.749  13.969
37654W        W 9980  21.582  29.374  13.517
37655W        W 9981  14.309  11.923   3.264
37656W        W 9982  34.432  16.561  14.915
37657W        W 9983   7.448  10.823   2.574
37658W        W 9984  23.201   4.018  11.922
37659W        W 9985  12.674  29.636   2.761
37660W        W 9986  23.037  30.159   2.527
37661W        W 9987  29.689  40.821   3.821
37662W        W 9988  32.907   9.055  12.433
37663W        W 9989   0.871   2.447   1.600
37664W        W 9990  31.140  19.663   2.862
37665W        W 9991  42.978  17.229  13.760
37666W        W 9992  42.544   0.027  12.846
37667W        W 9993  31.527  12.116   2.963
37668W        W 9994  25.775  24.952   4.606
37669W        W 9995  19.932   4.781   2.131
37670W        W 9996  30.138   2.897   4.611
37671W        W 9997  44.514  40.363   2.808
37672W        W 9998   7.675  30.901   0.901
37673W        W 9999  15.779  22.127  14.862
37674W        W10000  44.488  19.977  12.145
37675W        W10001  41.449  19.501  13.888
37676W        W10002  34.987  28.977  11.676
37677W        W10003   8.865  34.319   2.701
37678W        W10004   9.294  33.110   3.208
37679W        W10005  20.673  20.307  11.891
37680W        W10006  33.465  39.261  14.714
37681W        W10007  22.016  24.491   3.751
37682W        W10008  21.365  22.914   1.394
37683W        W10009   3.417  15.227  11.191
37684W        W10010   4.754  31.410   3.762
37685W        W10011  43.479   0.146  10.760
37686W        W10012   8.882   8.908  12.069
37687W        W10013  31.980  23.609  13.944
37688W        W10014  16.595  16.293   0.833
37689W        W10015  18.658   0.706   4.694
37690W        W10016  16.091  27.646   1.373
37691W        W10017  20.956  28.935  12.980
37692W        W10018   2.319  23.537  10.239
37693W        W10019  25.562  22.636   3.227
37694W        W10020  10.117  40.824  10.146
37695W        W10021  17.798   3.460  11.025
37696W        W10022   3.087  25.911  14.304
37697W        W10023  10.660  21.234  14.423
37698W        W10024   5.288  23.353  12.500
37699W        W10025   3.670   1.677   1.433
37700W        W10026   5.117   0.235   4.022
37701W        W10027   5.150  11.676  11.184
37702W        W10028  41.297  13.371  13.978
37703W        W10029   4.275  42.314  10.521
37704W        W10030  10.302  41.512   1.835
37705W        W10031  25.875  36.998   3.073
37706W        W10032  10.317  14.590   4.309
37707W        W10033  12.026  16.683   3.209
37708W        W10034  35.056   0.436   3.456
37709W        W10035   3.403  37.608   4.537
37710W        W10036  24.967  30.334   4.758
37711W        W10037  34.373  25.350   2.490
37712W        W10038  31.775  10.734   4.187
37713W        W10039  30.492   1.366   3.652
37714W        W10040  14.376  41.382   4.579
37715W        W10041   7.252  17.646   2.726
37716W        W10042  30.912  15.621   0.877
37717W        W10043  14.682  40.532   4.658
37718W        W10044  19.338  21.155  12.475
37719W        W10045  22.457  13.023   0.701
37720W        W10046  33.770  29.202   2.499
37721W        W10047  27.174  31.495   2.336
37722W        W10048  38.654  33.041  14.570
37723W        W10049  18.097  15.657  13.108
37724W        W10050  18.215   8.933  12.453
37725W        W10051  31.925  35.050  14.925
37726W        W10052   6.774   1.066  12.331
37727W        W10053  30.637  17.229  10.471
37728W        W10054   2.314  38.117   2.721
37729W        W10055  10.411  29.242  14.357
37730W        W10056   3.382   3.333  10.619
37731W        W10057  25.383   6.683   1.955
37732W        W10058   7.448  44.384   2.192
37733W        W10059   7.349  19.287   2.418
37734W        W10060  14.683   1.823  13.991
37735W        W10061  28.233  37.563  10.751
37736W        W10062   3.298  42.808   2.306
37737W        W10063  13.723  43.701   2.904
37738W        W10064   5.309   8.978  14.958
37739W        W10065  12.678  43.104   2.729
37740W        W10066  42.047  17.373  14.843
37741W        W10067  31.106  30.113   1.424
37742W        W10068   9.366  16.121  14.436
37743W        W10069  24.582   0.343  12.822
37744W        W10070  23.607  44.088  12.760
37745W        W10071  31.466  40.325   1.111
37746W        W10072  24.559  42.545   3.842
37747W        W10073  24.824   1.774  11.651
37748W        W10074  17.841  39.574   1.361
37749W        W10075  37.961  27.243  13.390
37750W        W10076  11.823  28.071   2.903
37751W        W10077   2.816  36.605   1.739
37752W        W10078  16.836  39.538   2.789
37753W        W10079  26.919  40.987   1.530
37754W        W10080  22.780  38.011  11.681
37755W        W10081  31.734  15.545   2.154
37756W        W10082  26.589  21.208  13.936
37757W        W10083  44.470  15.204  11.071
37758W        W10084  28.018  31.027  14.015
37759W        W10085  35.297  35.652   0.917
37760W        W10086  23.924  44.376  13.467
37761W        W10087  15.480  10.699  14.926
37762W        W10088  29.365  17.298   0.432
37763W        W10089  39.205  12.835   3.737
37764W        W10090  33.529   3.703   1.371
37765W        W10091   9.640  11.744   4.844
37766W        W10092  42.757  27.593   4.096
37767W        W10093  38.444  39.654   0.263
37768W        W10094  44.313  38.302  13.792
37769W        W10095  13.659  23.235   1.659
37770W        W10096  10.090  28.042  10.660
37771W        W10097  18.665  43.122  12.509
37772W        W10098   4.098  24.467   3.785
37773W        W10099   3.734   6.325   3.912
37774W        W10100   8.687  32.843  14.665
37775W        W10101  29.675  21.010   1.898
37776W        W10102  34.961  35.663   1.917
37777W        W10103  34.107  31.112  11.162
37778W        W10104  36.770  39.999   2.312
37779W        W10105  41.969  12.931  10.899
37780W        W10106  29.984  24.945  11.529
37781W        W10107  14.622  41.875  13.303
37782W        W10108   5.379   6.291   2.928
37783W        W10109   3.301  43.509   4.367
37784W        W10110   3.477   9.801   1.421
37785W        W10111  18.542   1.022   4.286
37786W        W10112  37.362  22.767   1.800
37787W        W10113  32.014   5.350  12.859
37788W        W10114  26.577  39.235   3.209
37789W        W10115   2.284   4.259   9.760
37790W        W10116  37.323  38.088  13.619
37791W        W10117   4.459   3.882   0.339
37792W        W10118  40.969  40.819  13.985
37793W        W10119  26.236  27.218   3.315
37794W        W10120  42.886  28.233  14.421
37795W        W10121   1.396  27.538  13.591
37796W        W10122   4.692  26.910   0.009
37797W        W10123  23.653  27.539   2.172
37798W        W10124  24.125  28.460  12.496
37799W        W10125  20.437   1.614  11.968
37800W        W10126  31.401  12.211   0.980
37801W        W10127  36.819   9.886  11.056
37802W        W10128  11.873  38.202   4.079
37803W        W10129  35.090   7.479   0.976
37804W        W10130   8.280   9.024   4.894
37805W        W10131  33.617  25.092   0.007
37806W        W10132  23.719   1.840   4.287
37807W        W10133  42.475  21.585   4.471
37808W        W10134  36.410  25.691  13.497
37809W        W10135   3.158   1.430  11.583
37810W        W10136   0.514  21.874  13.880
37811W        W10137  43.849  12.349   2.711
37812W        W10138  41.742  38.066  14.798
37813W        W10139  43.755   0.680   3.904
37814W        W10140  11.977  33.591  13.934
37815W        W10141  27.188  33.517   2.167
37816W        W10142   0.825   9.117  13.059
37817W        W10143  20.599  37.426   4.659
37818W        W10144   2.462  28.913  12.484
37819W        W10145  13.074  42.338   2.195
37820W        W10146  41.328  11.630  14.565
37821W        W10147  40.421   8.911  14.969
37822W        W10148  19.816  24.466   2.645
37823W        W10149   0.415  22.701   3.749
37824W        W10150  18.095  28.656  10.712
37825W        W10151  19.254  37.330   4.256
37826W        W10152  34.079   1.952  12.492
37827W        W10153  28.547  44.477   4.352
37828W        W10154  20.449   8.684   0.259
37829W        W10155  40.400  34.197  13.343
37830W        W10156  24.037   0.300   3.841
37831W        W10157  44.716  14.343   2.805
37832W        W10158  29.170  20.965   1.809
37833W        W10159  18.202  13.288  10.730
37834W        W10160  23.662  41.096  12.858
37835W        W10161   3.814  17.316  10.605
37836W        W10162  15.427  36.488  13.249
37837W        W10163   4.392  10.194   4.169
37838W        W10164   5.322  26.715  14.942
37839W        W10165  43.896  14.059  13.892
37840W        W10166   0.469  23.279   5.577
37841W        W10167   3.455  26.588   0.081
37842W        W10168   4.818  20.034  10.615
37843W        W10169  34.346   0.739  11.123
37844W        W10170  11.076  22.693  10.418
37845W        W10171  18.233  15.633   4.306
37846W        W10172   3.038  40.202  13.808
37847W        W10173  16.845  10.582   3.291
37848W        W10174  32.127  38.961   3.265
37849W        W10175   6.863   9.187  11.071
37850W        W10176  33.784  10.133   4.333
37851W        W10177  10.278  42.380  11.873
37852W        W10178   8.835  42.002  11.090
37853W        W10179  17.066  40.934  12.438
37854W        W10180  12.844  15.794  11.031
37855W        W10181  28.184   9.899  11.919
37856W        W10182  26.507   5.502   3.780
37857W        W10183  11.773  19.547   1.672
37858W        W10184  13.314  43.352   3.973
37859W        W10185  38.070  10.885  14.928
37860W        W10186  35.547   3.246  11.097
37861W        W10187   4.937   0.166  11.515
37862W        W10188  42.769  23.085  14.779
37863W        W10189  18.349  30.614  14.303
37864W        W10190  33.443   1.007   0.926
37865W        W10191  14.646  25.771  11.544
37866W        W10192   0.344   4.648  12.929
37867W        W10193  44.939  36.530   1.340
37868W        W10194  40.500  20.122  14.928
37869W        W10195  29.028  22.993   2.007
37870W        W10196  41.928  20.085  13.341
37871W        W10197  39.625  40.449  13.290
37872W        W10198   6.223  20.057  12.502
37873W        W10199  29.402  26.654   2.268
37874W        W10200  23.509   6.589   4.264
37875W        W10201  12.747   1.487   3.301
37876W        W10202  41.447  11.122  14.530
37877W        W10203  16.778   1.167   1.404
37878W        W10204  12.121  42.517   4.115
37879W        W10205  43.446   6.690  14.359
37880W        W10206  11.737   1.341   1.397
37881W        W10207  20.481  35.576  12.996
37882W        W10208  20.845  10.383   0.735
37883W        W10209  20.437   3.288  11.160
37884W        W10210  37.257  40.210  14.714
37885W        W10211  38.825  18.952   2.454
37886W        W10212  16.667  22.451   1.530
37887W        W10213   9.394  18.505   2.891
37888W        W10214  32.487  44.717   2.822
37889W        W10215  42.139  41.727   0.326
37890W        W10216  27.620  43.301   5.061
37891W        W10217  28.457  17.707   1.918
37892W        W10218  19.237  27.914   4.303
37893W        W10219   7.361  16.592   1.847
37894W        W10220  14.324  25.982   3.244
37895W        W10221  21.780  21.332  14.941
37896W        W10222  43.400  15.090   1.401
37897W        W10223  20.624  19.671   1.263
37898W        W10224   9.619  40.552  12.095
37899W        W10225  33.995  23.169  14.003
37900W        W10226  17.564  16.967  11.144
37901W        W10227  39.552  39.673  13.720
37902W        W10228  43.001  40.411  12.498
37903W        W10229   1.731  33.444  10.625
37904W        W10230  42.619   8.853   4.425
37905W        W10231  32.097  16.428  13.991
37906W        W10232   8.357  33.990   2.264
37907W        W10233  44.840  17.026   1.144
37908W        W10234  35.147   3.545  10.942
37909W        W10235  11.592   3.303   4.186
37910W        W10236  28.887  41.977   1.716
37911W        W10237  28.881   3.527  11.603
37912W        W10238   4.227  21.194  11.549
37913W        W10239  23.412  34.677   3.145
37914W        W10240  29.229  25.030  14.420
37915W        W10241  34.891  36.058   1.599
37916W        W10242  43.801   7.040  14.441
37917W        W10243  38.614  14.004   0.766
37918W        W10244  28.067   3.466   3.705
37919W        W10245  13.351  21.508  10.305
37920W        W10246  43.973  26.638  10.808
37921W        W10247   6.256  39.729  13.352
37922W        W10248  42.400   6.983   4.587
37923W        W10249  26.449   9.611  14.800
37924W        W10250  15.731  37.343   0.162
37925W        W10251  29.561   2.917   4.559
37926W        W10252  23.753  20.693  14.325
37927W        W10253  44.150  15.382  14.072
37928W        W10254  43.878   9.166  12.892
37929W        W10255  31.343   3.833  14.449
37930W        W10256  22.442  16.688   2.683
37931W        W10257  21.676  41.340  12.455
37932W        W10258   8.169  39.240  14.688
37933W        W10259  23.185  35.764  14.314
37934W        W10260   5.320  23.842   1.144
37935W        W10261  29.093  25.627   2.041
37936W        W10262  21.194  28.471  12.825
37937W        W10263  34.873  21.300  14.790
37938W        W10264  31.751  40.884  12.076
37939W        W10265  11.086   8.226  14.239
37940W        W10266  26.689   2.072  12.387
37941W        W10267  20.821  19.583  14.476
37942W        W10268  31.678  25.967   4.585
37943W        W10269  28.968  38.804   4.215
37944W        W10270  19.415  19.355  14.842
37945W        W10271  14.968  27.282  10.647
37946W        W10272  42.255  39.476   4.310
37947W        W10273  26.944   9.269  12.165
37948W        W10274  15.503   5.711   1.275
37949W        W10275   2.469   4.332   1.180
37950W        W10276   2.387  44.736   1.465
37951W        W10277  10.440   3.681  10.748
37952W        W10278  27.197  44.419   1.670
37953W        W10279  25.238  34.003  12.405
37954W        W10280  37.903  35.082  14.888
37955W        W10281  39.491  26.185   2.824
37956W        W10282   9.571  30.018  14.857
37957W        W10283  32.254  40.828   0.702
37958W        W10284  13.262  27.249  13.513
37959W        W10285  12.059   6.845   4.639
37960W        W10286   9.274  15.219   1.783
37961W        W10287  33.793  44.877   2.587
37962W        W10288   9.235  24.939   0.435
37963W        W10289   4.148  22.646   2.586
37964W        W10290  23.546  24.180   1.906
37965W        W10291   2.831  19.047  13.843
37966W        W10292   6.833  14.600   2.306
37967W        W10293   5.352   4.512   1.314
37968W        W10294  23.473  16.552   1.843
37969W        W10295   5.770  30.393  12.374
37970W        W10296  28.920  29.077  10.391
37971W        W10297  21.011  25.675  10.353
37972W        W10298  44.810   4.446   1.789
37973W        W10299   6.744  30.755   0.965
37974W        W10300  26.999  39.418   2.369
37975W        W10301  31.995  14.698   4.570
37976W        W10302  33.018  38.549   4.482
37977W        W10303  42.862  25.270   2.248
37978W        W10304   5.324  13.091   0.324
37979W        W10305  21.340  30.601   1.908
37980W        W10306  28.653  16.629  12.881
37981W        W10307  30.042  41.837  10.748
37982W        W10308   1.696  21.031   0.741
37983W        W10309   3.711   6.220   2.185
37984W        W10310  34.168  37.495  10.126
37985W        W10311  11.215  43.721   3.276
37986W        W10312   6.767  33.440  12.550
37987W        W10313  16.541   7.558  10.759
37988W        W10314  43.887  22.849   2.399
37989W        W10315  42.866  24.179   0.489
37990W        W10316  25.264   1.397   0.365
37991W        W10317  35.994  16.628  14.501
37992W        W10318  40.825  30.550  11.217
37993W        W10319  20.742  26.601   2.800
37994W        W10320  25.907  44.381   0.358
37995W        W10321  12.137  38.887   1.681
37996W        W10322  24.747  19.653  11.515
37997W        W10323   6.515  18.721   3.369
37998W        W10324   1.436  36.480   0.932
37999W        W10325  28.468  25.057   2.106
38000W        W10326   0.478  10.141   1.204
38001W        W10327  42.024  22.486  10.604
38002W        W10328  15.141  26.004  10.341
38003W        W10329  40.852  24.829   0.933
38004W        W10330  39.027  34.085  12.544
38005W        W10331  33.931  32.545   1.167
38006W        W10332  43.781  24.112   1.842
38007W        W10333   7.243  35.369   2.020
38008W        W10334  13.785  12.825  13.441
38009W        W10335  11.306   4.506   4.809
38010W        W10336   8.236  42.732  10.703
38011W        W10337  43.918  41.950  10.419
38012W        W10338  44.557  40.868   2.793
38013W        W10339  24.951  44.450   0.459
38014W        W10340  42.978  21.112  10.116
38015W        W10341  12.597  15.021  13.020
38016W        W10342  33.783  33.057  12.912
38017W        W10343  41.496  41.962   2.908
38018W        W10344  21.714  36.414  10.745
38019W        W10345  43.587  32.952   0.239
38020W        W10346  28.940  17.261   1.290
38021W        W10347  15.145  23.194  11.045
38022W        W10348  35.847  20.769  12.281
38023W        W10349   0.174   3.320   4.606
38024W        W10350  15.326  19.412  14.360
38025W        W10351  39.842  30.235   3.071
38026W        W10352  18.654  41.387   0.395
38027W        W10353  14.497  30.242   2.606
38028W        W10354   6.361   9.691   2.216
38029W        W10355  40.506  15.633  13.428
38030W        W10356  26.626  32.914  12.940
38031W        W10357  43.050   8.732   4.145
38032W        W10358   1.650   1.834   1.391
38033W        W10359   0.241   6.242  13.362
38034W        W10360   9.871  12.657  14.433
38035W        W10361  42.814  19.585  11.614
38036W        W10362   3.667  35.196  13.946
38037W        W10363  44.828  12.690  11.230
38038W        W10364  10.375  34.100   4.315
38039W        W10365   7.179   8.316   2.192
38040W        W10366   2.709  19.023  14.768
38041W        W10367  24.023  39.559  14.331
38042W        W10368  27.982  27.033   1.424
38043W        W10369  29.027  11.656   2.800
38044W        W10370  32.383  11.247   3.561
38045W        W10371   8.990   7.841  11.943
38046W        W10372  20.307   6.769   3.653
38047W        W10373   2.931  37.387   4.578
38048W        W10374  38.590  34.354  13.071
38049W        W10375   4.441  31.046   2.474
38050W        W10376  43.918   5.296  13.748
38051W        W10377  25.390  12.665  10.746
38052W        W10378  30.545  30.968  11.912
38053W        W10379  15.543   7.216   2.670
38054W        W10380  39.281  36.495  12.320
38055W        W10381   0.014  29.985   4.939
38056W        W10382   6.257   4.704  11.954
38057W        W10383  37.885  10.277   5.341
38058W        W10384  20.191  42.415   3.732
38059W        W10385   8.980  14.222  14.428
38060W        W10386   3.055  29.984  11.213
38061W        W10387  44.038  28.668  12.449
38062W        W10388  29.364  24.263  12.095
38063W        W10389  28.121  27.663  13.988
38064W        W10390  16.410  22.719   4.257
38065W        W10391  13.585  27.406  10.495
38066W        W10392  30.708  23.892   0.678
38067W        W10393  15.111   3.417   4.382
38068W        W10394   4.870  20.709   3.524
38069W        W10395  24.708  25.408   1.433
38070W        W10396  22.967   7.715   1.831
38071W        W10397  25.681  22.211   2.366
38072W        W10398  17.685  27.422  11.633
38073W        W10399  25.963  33.841   4.899
38074W        W10400  27.151  29.720   3.306
38075W        W10401   8.896   8.174  10.704
38076W        W10402  41.060   1.512   2.809
38077W        W10403  20.157  39.109  13.448
38078W        W10404  30.547  24.730  12.644
38079W        W10405  30.613   0.509   2.392
38080W        W10406   4.828   5.795   0.488
38081W        W10407  28.131  40.356  11.880
38082W        W10408  42.936  10.033   2.749
38083W        W10409  27.184  27.987  13.438
38084W        W10410  28.731  29.885   2.308
38085W        W10411  23.605   2.846  11.538
38086W        W10412  33.107  17.511  11.075
38087W        W10413  43.846  17.389  14.808
38088W        W10414  11.660  43.385  10.872
38089W        W10415  35.061   0.775  13.069
38090W        W10416  38.909  12.444   5.250
38091W        W10417   2.819  15.482  12.122
38092W        W10418  11.794  41.944   1.943
38093W        W10419  16.033   4.218   2.084
38094W        W10420  30.576  29.598  11.669
38095W        W10421   5.320  23.116   2.312
38096W        W10422  32.532   7.773  14.092
38097W        W10423   1.266  36.473  10.765
38098W        W10424   2.773   5.035  10.581
38099W        W10425  13.193  34.435   2.329
38100W        W10426  32.442  21.142   0.583
38101W        W10427   4.796  10.108   3.679
38102W        W10428  16.277  44.418   3.290
38103W        W10429  20.438   7.820   0.068
38104W        W10430  11.717   6.336  14.689
38105W        W10431  34.963   1.051   1.633
38106W        W10432  40.811  41.540  12.538
38107W        W10433  42.892   6.928  11.607
38108W        W10434  17.303  16.626   3.319
38109W        W10435   0.411  36.889   0.471
38110W        W10436  39.236  17.288  13.883
38111W        W10437  20.244  23.444   1.779
38112W        W10438  18.713  37.562   1.035
38113W        W10439  39.938  32.710   3.824
38114W        W10440   4.933  36.195  11.987
38115W        W10441  42.021  23.715  11.089
38116W        W10442   7.296  13.191  14.421
38117W        W10443   9.781   3.276   1.272
38118W        W10444   2.204  24.387  12.893
38119W        W10445  41.070  18.536   2.334
38120W        W10446  14.847  40.468  11.349
38121W        W10447  13.578   8.632   2.542
38122W        W10448  26.215   2.864   3.266
38123W        W10449  26.162  34.046  10.682
38124W        W10450  44.652  13.241   4.610
38125W        W10451   2.499   2.435  10.997
38126W        W10452  39.582  18.557   1.208
38127W        W10453   4.707   7.546   0.504
38128W        W10454   8.737  37.515  10.687
38129W        W10455  14.131  15.728   1.532
38130W        W10456  19.740  36.695  12.142
38131W        W10457   0.325  36.370  12.167
38132W        W10458  23.179   1.372   1.187
38133W        W10459   0.003   8.746   3.770
38134W        W10460  33.511   2.397  12.436
38135W        W10461  21.987  20.487   4.524
38136W        W10462   2.802  42.518   0.692
38137W        W10463  34.291  32.175  13.997
38138W        W10464   5.732  23.233   4.304
38139W        W10465  16.083  24.633  12.055
38140W        W10466  29.831   6.417  13.440
38141W        W10467  44.288  13.715  13.959
38142W        W10468  11.311  40.234  12.548
38143W        W10469  34.029  35.255  12.413
38144W        W10470  34.390  19.573   3.293
38145W        W10471  44.036  35.544   0.110
38146W        W10472  32.323  25.091   1.907
38147W        W10473  17.594  20.216  14.937
38148W        W10474   9.930  32.349  14.840
38149W        W10475  34.361   4.407  14.475
38150W        W10476  16.847  39.123  13.891
38151W        W10477  32.745   1.742   1.486
38152W        W10478  37.806   3.109  11.565
38153W        W10479  13.948  29.002   2.588
38154W        W10480   1.463   3.704   5.141
38155W        W10481  23.220   9.421  11.556
38156W        W10482  44.020  23.065   0.282
38157W        W10483   1.976   3.385  13.358
38158W        W10484  34.583  20.059   3.227
38159W        W10485  30.594   2.862  14.701
38160W        W10486  39.954  41.818   4.532
38161W        W10487  35.640  34.297  13.578
38162W        W10488  16.710  31.418   1.444
38163W        W10489  28.000  30.085   4.291
38164W        W10490  31.569  39.475   3.714
38165W        W10491   0.878  43.631  14.799
38166W        W10492  24.521  24.667   3.229
38167W        W10493  32.148   6.461  11.539
38168W        W10494  27.746  15.107   1.582
38169W        W10495  41.035  20.578   1.429
38170W        W10496  31.409  22.486   0.539
38171W        W10497  30.059   8.635  12.057
38172W        W10498  32.873   4.989  10.981
38173W        W10499  42.286  11.358   0.013
38174W        W10500  12.267  20.081   2.661
38175W        W10501   9.408  24.516  11.460
38176W        W10502  28.985  26.968   0.902
38177W        W10503  24.490  28.103   1.581
38178W        W10504   2.193   0.903  13.208
38179W        W10505  26.008  29.355  14.638
38180W        W10506  27.235  32.544   4.686
38181W        W10507  28.174   9.990  10.451
38182W        W10508  34.069  24.895  11.204
38183W        W10509   8.905  41.337  12.556
38184W        W10510  13.350  11.660   1.849
38185W        W10511  10.929   0.484  13.392
38186W        W10512  37.428  33.433   4.161
38187W        W10513  40.887  25.956   0.375
38188W        W10514   1.825  24.527   0.908
38189W        W10515  19.964   4.533  11.914
38190W        W10516  40.668   1.181   3.123
38191W        W10517  36.018  43.900  11.536
38192W        W10518   7.417  13.357   4.323
38193W        W10519   9.913  17.688   3.421
38194W        W10520  44.786   6.207   0.327
38195W        W10521  32.564  13.514  12.422
38196W        W10522  24.501  23.533  14.233
38197W        W10523  40.007  10.252   4.664
38198W        W10524  42.509  16.714  12.097
38199W        W10525  33.496  27.463   0.355
38200W        W10526  24.014  14.643   2.310
38201W        W10527   6.212  11.918  12.917
38202W        W10528  38.274  43.296   0.866
38203W        W10529  13.596  41.961  10.743
38204W        W10530  25.433  17.904  10.079
38205W        W10531  26.534  44.863  14.467
38206W        W10532  26.829   0.674  11.237
38207W        W10533  40.161  31.737   0.752
38208W        W10534  44.823  22.202   3.323
38209W        W10535  23.620  23.565  13.983
38210W        W10536  23.876  20.467  12.473
38211W        W10537  11.713  10.653   2.758
38212W        W10538  44.229   3.515  11.068
38213W        W10539  34.552  38.918  13.124
38214W        W10540   7.161  31.182  10.653
38215W        W10541  36.535  43.263   3.596
38216W        W10542  25.785  38.987  10.703
38217W        W10543   1.780  27.466  14.533
38218W        W10544   6.248  14.434   0.870
38219W        W10545  18.531  23.771  12.823
38220W        W10546  19.423   5.182  10.700
38221W        W10547  39.754  17.277  13.863
38222W        W10548  21.658   1.629  10.748
38223W        W10549  37.278   8.985  13.021
38224W        W10550  40.555  32.444  12.381
38225W        W10551  38.856   6.720  10.111
38226W        W10552  23.945  16.814   4.936
38227W        W10553  10.400  33.319   5.110
38228W        W10554  29.390  33.367  12.246
38229W        W10555   1.099  30.071   3.617
38230W        W10556  43.493  40.812  11.748
38231W        W10557  16.996  27.201  11.622
38232W        W10558   3.862  10.871   1.590
38233W        W10559  18.063  30.003  13.181
38234W        W10560  13.098  21.936   1.214
38235W        W10561  30.652  12.388   1.932
38236W        W10562  30.956   7.922   1.792
38237W        W10563  18.070  26.471  11.294
38238W        W10564  22.915   9.806   0.321
38239W        W10565   2.924  38.601  11.875
38240W        W10566   3.274  42.314  12.463
38241W        W10567  20.205  41.479   4.110
38242W        W10568  37.195  14.686   2.449
38243W        W10569  29.909  12.563  12.346
38244W        W10570  35.873  34.466   2.437
38245W        W10571  15.998  27.635   2.302
38246W        W10572  11.368   9.921   2.143
38247W        W10573   5.763  34.604   2.167
38248W        W10574  36.984  20.161   1.606
38249W        W10575  11.281  31.045  12.409
38250W        W10576   8.069  41.553  11.951
38251W        W10577  34.830  30.051  12.004
38252W        W10578   2.697  24.015  12.462
38253W        W10579  22.603  18.755  11.276
38254W        W10580  37.293  29.305  12.119
38255W        W10581  38.121   6.818  14.467
38256W        W10582   9.137  33.896  12.651
38257W        W10583  44.822  29.746  13.343
38258W        W10584  30.102  25.431  14.907
38259W        W10585   1.953  13.091   1.455
38260W        W10586  12.254  18.373   4.068
38261W        W10587   1.287  27.677  11.410
38262W        W10588  15.281  41.815   4.087
38263W        W10589  44.606  21.034   0.188
38264W        W10590  12.589  16.700   2.685
38265W        W10591   3.416   9.768  10.697
38266W        W10592  28.896  41.484  14.425
38267W        W10593  43.218  27.998  10.666
38268W        W10594  36.766  38.648  13.321
38269W        W10595  36.974   4.180  13.034
38270W        W10596  21.813  43.818  11.190
38271W        W10597   6.617  23.541   3.696
38272W        W10598   5.946  42.526  12.537
38273W        W10599  42.513  39.384   3.276
38274W        W10600  35.383   0.938  12.722
38275W        W10601  20.606   8.927  13.921
38276W        W10602  24.883  21.382  14.462
38277W        W10603  18.533   8.428  13.041
38278W        W10604  11.593  12.769   5.051
38279W        W10605  36.954  11.285   1.615
38280W        W10606  15.155  29.104  13.292
38281W        W10607  17.189  24.213  13.696
38282W        W10608  31.650  39.342  10.644
38283W        W10609  11.837  10.708  13.293
38284W        W10610   0.170   2.795   0.750
38285W        W10611  42.873  38.870   4.144
38286W        W10612   9.959   4.198  13.466
38287W        W10613   6.798  25.099  12.544
38288W        W10614  19.832  30.089  13.538
38289W        W10615  23.518  34.855  12.532
38290W        W10616  29.465  28.237   5.512
38291W        W10617   9.756  10.208   2.910
38292W        W10618   7.601  33.675  11.999
38293W        W10619  22.444  18.677   2.223
38294W        W10620   7.277   0.348   0.209
38295W        W10621  25.149  23.693   1.302
38296W        W10622  33.499  14.483  12.453
38297W        W10623  22.537  44.908   4.460
38298W        W10624  19.136  32.257  12.945
38299W        W10625  12.626   2.379   4.688
38300W        W10626  23.774   2.843  12.501
38301W        W10627  33.146  37.424   1.849
38302W        W10628  33.922  29.192  11.159
38303W        W10629  38.647  24.049   3.914
38304W        W10630   0.172  26.708  10.536
38305W        W10631   8.230  30.884  12.110
38306W        W10632   8.223   6.867  11.276
38307W        W10633  21.314   7.786   3.814
38308W        W10634   6.135  14.762  13.151
38309W        W10635   3.385   8.402  12.592
38310W        W10636  42.223  14.507   0.360
38311W        W10637  11.218  38.692   0.009
38312W        W10638   5.622  19.534   4.499
38313W        W10639  27.613  40.449  13.116
38314W        W10640  22.334  38.103   0.982
38315W        W10641  17.187   0.087   0.458
38316W        W10642  14.314  13.669   4.623
38317W        W10643  11.623  19.776   3.614
38318W        W10644   7.566  15.196  11.608
38319W        W10645  39.033   6.225  13.251
38320W        W10646  26.147  11.603   4.535
38321W        W10647  11.303  23.217  13.139
38322W        W10648  43.056   7.322   0.001
38323W        W10649   3.224  43.374   0.791
38324W        W10650  37.809  30.135  14.895
38325W        W10651  36.947  40.328   4.270
38326W        W10652  25.992  34.508   3.140
38327W        W10653  35.554  28.321  12.086
38328W        W10654  28.906  20.458  12.898
38329W        W10655   2.673   0.998  14.074
38330W        W10656  11.372  11.678   1.462
38331W        W10657  29.446  26.954  10.576
38332W        W10658  28.693   6.829  11.264
38333W        W10659  37.124  14.795  12.424
38334W        W10660  36.440  15.172   3.641
38335W        W10661  35.567   5.563  13.834
38336W        W10662  32.764  37.738  14.855
38337W        W10663   8.822  38.036  12.937
38338W        W10664  24.659  26.623  10.534
38339W        W10665  13.853  23.927  10.525
38340W        W10666  16.735  24.521   0.362
38341W        W10667   0.179  34.375  14.854
38342W        W10668  21.547  42.761  10.562
38343W        W10669  42.965   1.379   3.734
38344W        W10670  41.798  29.491   4.767
38345W        W10671  39.654  26.698   0.313
38346W        W10672  12.326   2.414   0.912
38347W        W10673  39.608  15.197   4.102
38348W        W10674  17.354  16.668   0.455
38349W        W10675  40.542  33.033  11.954
38350W        W10676  14.429  12.872   2.374
38351W        W10677  20.707  28.916   0.689
38352W        W10678   2.694   2.890  14.105
38353W        W10679  32.241  20.289  11.095
38354W        W10680  27.714  23.430  12.556
38355W        W10681  31.649  20.039  14.872
38356W        W10682  26.192  18.082   2.042
38357W        W10683  12.433  21.709  14.013
38358W        W10684  20.643   9.444   0.870
38359W        W10685  22.977  17.549   4.166
38360W        W10686  33.901   1.552  14.807
38361W        W10687  13.705  24.985  11.539
38362W        W10688   5.820  36.586  13.844
38363W        W10689   0.231   9.193  10.643
38364W        W10690   9.449   7.620  11.975
38365W        W10691  33.739  21.163   3.239
38366W        W10692  24.557   9.463   3.783
38367W        W10693  21.642  28.158   3.639
38368W        W10694  19.621  40.705  12.998
38369W        W10695   9.905  40.147   0.448
38370W        W10696   3.888  15.003   4.711
38371W        W10697  41.295  29.205   1.157
38372W        W10698   4.702  23.041   4.761
38373W        W10699   6.894  35.579  11.420
38374W        W10700   0.047  14.846   4.774
38375W        W10701  39.992  29.961  14.336
38376W        W10702  11.953   1.645   4.205
38377W        W10703  42.264  23.210  14.932
38378W        W10704  11.302  32.947   1.631
38379W        W10705   1.621  18.430   1.344
38380W        W10706   2.784  10.231  10.240
38381W        W10707  40.026  13.364   4.500
38382W        W10708  14.105  36.866   2.887
38383W        W10709  14.791   4.374   4.133
38384W        W10710   0.892  41.246   3.274
38385W        W10711   5.293  41.346  11.421
38386W        W10712  24.110  36.489  11.685
38387W        W10713  22.185   8.927  14.213
38388W        W10714   2.994   3.344   9.666
38389W        W10715  36.769   9.652  11.593
38390W        W10716  38.644  30.570  14.276
38391W        W10717   6.420  42.446   2.283
38392W        W10718  21.241  22.135  12.899
38393W        W10719   7.807  12.260   0.307
38394W        W10720   4.891  11.622   3.741
38395W        W10721  35.358  25.473  12.485
38396W        W10722  31.490  16.520   1.249
38397W        W10723  11.072  16.628  14.822
38398W        W10724  18.247  11.494  11.025
38399W        W10725  42.198  35.059  13.266
38400W        W10726  13.761  20.077   4.644
38401W        W10727  19.641   4.873  14.029
38402W        W10728  40.417  27.931   3.150
38403W        W10729   3.886  42.433   2.193
38404W        W10730  29.498  31.561   1.847
38405W        W10731  25.003  27.953  13.374
38406W        W10732   3.456   4.260   5.451
38407W        W10733   1.518  10.467  11.384
38408W        W10734  23.913  43.301  13.031
38409W        W10735  27.058  35.616  13.950
38410W        W10736  27.436   1.856   2.046
38411W        W10737  15.475  16.851   4.901
38412W        W10738  17.395  15.405   1.417
38413W        W10739  18.966  12.572   2.625
38414W        W10740  34.314   8.299   3.642
38415W        W10741   2.241  25.628   3.674
38416W        W10742   7.907  34.828   4.465
38417W        W10743  44.365  40.895  11.217
38418W        W10744   5.904  42.505   3.189
38419W        W10745   8.317  19.141   4.013
38420W        W10746  17.762  40.158   0.246
38421W        W10747   2.079  30.045  11.070
38422W        W10748  17.361   6.478  13.368
38423W        W10749  35.895  13.743   4.817
38424W        W10750   9.825   6.821  13.517
38425W        W10751  16.747  20.961  14.949
38426W        W10752  35.481  35.249   4.098
38427W        W10753  34.129  31.476   1.936
38428W        W10754   9.060  35.822   1.413
38429W        W10755  14.620  23.212  11.153
38430W        W10756  14.391  16.858  14.407
38431W        W10757  41.033  16.570  12.704
38432W        W10758  13.569   3.507  12.731
38433W        W10759   1.450   9.250   1.956
38434W        W10760  16.686  10.525  10.576
38435W        W10761  13.363  25.759  12.617
38436W        W10762   0.101   9.695   3.244
38437W        W10763  29.191  35.943   2.155
38438W        W10764  42.583   2.923   5.105
38439W        W10765  36.062  30.952   1.220
38440W        W10766   2.330  28.783  10.606
38441W        W10767  27.198  21.649   3.378
38442W        W10768  24.697  25.603   3.781
38443W        W10769  14.064   4.794  12.571
38444W        W10770  25.668  35.483   1.230
38445W        W10771  16.981   0.878   0.014
38446W        W10772   8.678  34.061  10.961
38447W        W10773  14.664   5.758  13.382
38448W        W10774  43.305  40.323  11.063
38449W        W10775  44.834   4.135  11.555
38450W        W10776  19.769  29.200  11.164
38451W        W10777  42.501  36.798  10.758
38452W        W10778   1.057  36.385   0.007
38453W        W10779  27.442  12.836   4.259
38454W        W10780  39.469  16.074  12.104
38455W        W10781  31.221  35.763   3.745
38456W        W10782  17.391  41.585  14.391
38457W        W10783  24.871  13.140   4.272
38458W        W10784   5.127   8.742   1.323
38459W        W10785   0.540  33.993   3.028
38460W        W10786  40.877   4.425  12.037
38461W        W10787  15.441  35.607   2.487
38462W        W10788  42.445  42.364   1.797
38463W        W10789  42.102  28.769  11.426
38464W        W10790  38.626   5.602  10.286
38465W        W10791  22.784  43.275   3.470
38466W        W10792  30.055  33.476   9.955
38467W        W10793   4.140  15.779   0.889
38468W        W10794  24.247  12.168  14.852
38469W        W10795  35.927  11.547   0.224
38470W        W10796  19.725   8.110   0.248
38471W        W10797  12.402  36.075   0.566
38472W        W10798   5.837  29.623   1.685
38473W        W10799   9.677  21.203   0.005
38474W        W10800   4.621  11.949   0.713
38475W        W10801  12.749  22.799  11.128
38476W        W10802  38.581  39.451  12.133
38477W        W10803  16.591  16.290   2.366
38478W        W10804  37.854  11.582   1.701
38479W        W10805   2.250   0.660  14.766
38480W        W10806  33.154  24.334   4.645
38481W        W10807  23.473  25.755   3.208
38482W        W10808  10.905  32.191   0.299
38483W        W10809   2.669  18.702  13.051
38484W        W10810  20.743  10.969  13.544
38485W        W10811  18.989  14.942   3.307
38486W        W10812  44.996   0.189   0.510
38487W        W10813  19.877  17.571   3.223
38488W        W10814  22.029  31.428   1.297
38489W        W10815  33.245  28.601  10.741
38490W        W10816   9.811  31.390  14.979
38491W        W10817  42.248  25.555  13.039
38492W        W10818  37.751   3.477   1.129
38493W        W10819  36.048  30.206  12.425
38494W        W10820  26.571   3.754   2.290
38495W        W10821  10.364  19.715   2.843
38496W        W10822  20.350  43.305   2.843
38497W        W10823  18.652  25.443   1.796
38498W        W10824  12.780  25.222   3.099
38499W        W10825  21.531  14.849  10.603
38500W        W10826  18.227  32.065   4.582
38501W        W10827  41.526  21.452   4.232
38502W        W10828   3.426  36.031  11.456
38503W        W10829   9.604  30.467   4.714
38504W        W10830  14.453   1.566   0.369
38505W        W10831  15.827  32.360  13.994
38506W        W10832   9.922  32.380  12.231
38507W        W10833  18.747  38.924   3.185
38508W        W10834  37.366  25.019   2.004
38509W        W10835   3.364  32.592  12.523
38510W        W10836  35.015  25.226  13.972
38511W        W10837  34.447   8.368  13.997
38512W        W10838  11.190  14.761   3.946
38513W        W10839   0.852  38.428  10.831
38514W        W10840  11.435  35.816   3.233
38515W        W10841  39.897  23.781  12.467
38516W        W10842  35.495  41.238  11.887
38517W        W10843  14.241  28.162  13.074
38518W        W10844  13.850  43.259  11.155
38519W        W10845  34.054  35.548   0.293
38520W        W10846  13.393   8.915  10.986
38521W        W10847   9.349  36.975  13.416
38522W        W10848  27.791  43.297  14.007
38523W        W10849   6.274  30.865   1.868
38524W        W10850  39.332   8.201  10.728
38525W        W10851  32.626  36.911   3.330
38526W        W10852   8.782   7.141   3.673
38527W        W10853   0.998  39.471   0.386
38528W        W10854  17.320  21.717  13.219
38529W        W10855  42.726  33.461   1.401
38530W        W10856  13.151   5.731  10.710
38531W        W10857  11.233   2.174  13.500
38532W        W10858  18.517  23.143   4.002
38533W        W10859  16.563   5.672  11.692
38534W        W10860  10.162  44.240  11.018
38535W        W10861   7.721  24.268   0.850
38536W        W10862   6.695  13.440   4.466
38537W        W10863  12.818   4.774   1.359
38538W        W10864  35.571  23.994  12.423
38539W        W10865   9.476  17.214  14.798
38540W        W10866  22.546  25.118  11.274
38541W        W10867  39.840  25.912  13.482
38542W        W10868  30.368  31.402   4.298
38543W        W10869  21.061  21.692   3.724
38544W        W10870  38.985   7.511   4.552
38545W        W10871   3.768   6.375  11.676
38546W        W10872  34.412  11.330  14.391
38547W        W10873   5.364  14.213   0.904
38548W        W10874  23.548  41.890  13.516
38549W        W10875  27.498  43.215  10.707
38550W        W10876  32.990  32.540   0.681
38551W        W10877  28.703  29.468  12.618
38552W        W10878  35.814  37.445  14.263
38553W        W10879  15.217  21.814  12.372
38554W        W10880  27.873  15.516   4.792
38555W        W10881  15.138   0.467   4.602
38556W        W10882  15.084   0.792  14.255
38557W        W10883  12.331   9.151   2.377
38558W        W10884  27.459   4.458   0.720
38559W        W10885  13.172  34.181  11.623
38560W        W10886  19.722  21.933   1.013
38561W        W10887  31.940   5.629  11.106
38562W        W10888   3.429  24.532   5.015
38563W        W10889  11.574  28.377   0.006
38564W        W10890  40.010  24.929   0.395
38565W        W10891  34.637  21.608  13.551
38566W        W10892  28.006  22.596  14.488
38567W        W10893  29.436  41.631  11.752
38568W        W10894   9.663   1.379  13.835
38569W        W10895  44.601  38.222  12.926
38570W        W10896   9.408   1.363  13.395
38571W        W10897  34.859  42.342  12.852
38572W        W10898  34.685   2.811   4.131
38573W        W10899  40.530  43.184   1.869
38574W        W10900  43.616  33.641  10.705
38575W        W10901  27.625   0.246  14.756
38576W        W10902  27.137  19.574   3.263
38577W        W10903  17.315  27.545   1.813
38578W        W10904  24.451  31.873  11.156
38579W        W10905  24.165  20.230   5.233
38580W        W10906  25.580  31.124   4.386
38581W        W10907  14.732  44.741   0.435
38582W        W10908   9.177  11.106   4.791
38583W        W10909  32.431  27.383   0.918
38584W        W10910   2.068  36.087   4.557
38585W        W10911  35.595  12.277  14.920
38586W        W10912   9.596  25.788   4.132
38587W        W10913  43.289  23.672   3.282
38588W        W10914  38.841   1.883   1.201
38589W        W10915  30.432   8.904   2.775
38590W        W10916  19.160  43.980   0.367
38591W        W10917  31.944  13.354  14.366
38592W        W10918  34.438  19.061   2.600
38593W        W10919   5.129  44.015  12.984
38594W        W10920  36.609  12.954  12.635
38595W        W10921   3.345  41.034  11.670
38596W        W10922  31.622   1.654   4.215
38597W        W10923   0.927  35.553   1.636
38598W        W10924  34.304  13.497   1.036
38599W        W10925   7.620  24.434   2.223
38600W        W10926  41.858  14.280   0.756
38601W        W10927  42.797  11.453  13.376
38602W        W10928   9.122  20.611   0.863
38603W        W10929  32.654  39.673   1.843
38604W        W10930   4.727  42.529   1.957
38605W        W10931  23.030   8.677  13.779
38606W        W10932  26.432   9.138  12.187
38607W        W10933  19.224  18.808   4.096
38608W        W10934  42.502   5.935  11.035
38609W        W10935  30.225  32.048   3.802
38610W        W10936  42.281  15.437   0.631
38611W        W10937  11.193   4.165   3.851
38612W        W10938  18.494  29.197  11.108
38613W        W10939  16.673   2.347  13.053
38614W        W10940   4.674  35.874   0.846
38615W        W10941  32.737   9.962  12.664
38616W        W10942  28.747  37.656   2.724
38617W        W10943  42.159   5.935  11.628
38618W        W10944  24.004   2.947   4.849
38619W        W10945   4.690   0.753   2.223
38620W        W10946  36.909  34.041   0.377
38621W        W10947  33.421  20.663   3.921
38622W        W10948  30.730  10.337   2.448
38623W        W10949  31.448  11.081  11.953
38624W        W10950   1.954  14.629  14.666
38625W        W10951   7.794  30.032  12.135
38626W        W10952  43.492  41.067   3.224
38627W        W10953  21.484  22.712   2.673
38628W        W10954  34.190  39.048  11.136
38629W        W10955  30.021  20.051   3.558
38630W        W10956  16.064  41.140  11.907
38631W        W10957  43.760  12.828   4.594
38632W        W10958  37.644   9.845  10.616
38633W        W10959  40.836  25.110  12.474
38634W        W10960   7.358  26.473  14.351
38635W        W10961   4.589  27.396   4.288
38636W        W10962  42.502  24.911   4.606
38637W        W10963  24.473   5.909  14.739
38638W        W10964  13.873  12.335   1.444
38639W        W10965  16.623  38.274  13.507
38640W        W10966   0.335  24.484  14.763
38641W        W10967  17.013   5.512  13.378
38642W        W10968  24.596   9.678  13.062
38643W        W10969   6.895   1.295  11.039
38644W        W10970  15.732  15.869  13.029
38645W        W10971  14.103  36.167   2.387
38646W        W10972  28.006   3.464   2.330
38647W        W10973  16.119   5.521  12.627
38648W        W10974  39.275   2.017   4.213
38649W        W10975  11.629  24.644   2.234
38650W        W10976  20.231  28.425  11.483
38651W        W10977  35.047  33.494   2.796
38652W        W10978  13.879  12.286   4.603
38653W        W10979  14.159   0.338   2.214
38654W        W10980  28.871   7.347  10.648
38655W        W10981  28.138  13.978   0.856
38656W        W10982  12.072  31.644   4.833
38657W        W10983  35.176  16.420  10.301
38658W        W10984  41.367  37.049  14.426
38659W        W10985  41.478  35.902  13.377
38660W        W10986  24.800  22.659  13.292
38661W        W10987   4.939   7.730   1.436
38662W        W10988  26.484  26.101   2.019
38663W        W10989  17.405  24.637  13.479
38664W        W10990   6.921  29.950   4.487
38665W        W10991  13.197  42.973  12.132
38666W        W10992  21.971  39.754   2.331
38667W        W10993  42.025  43.439  12.029
38668W        W10994  29.098  17.534   4.724
38669W        W10995  32.670  29.492  12.494
38670W        W10996  36.075  39.734  12.388
38671W        W10997  23.639  37.423   4.107
38672W        W10998  16.143  21.791   3.666
38673W        W10999  35.560  17.021  10.690
38674W        W11000  20.775  43.720  11.866
38675W        W11001   1.403  32.779  13.966
38676W        W11002  18.964  30.168   1.131
38677W        W11003   4.315  16.096  12.586
38678W        W11004  12.745  33.064   2.599
38679W        W11005  38.076  27.983   2.801
38680W        W11006  36.286   4.355   0.959
38681W        W11007  16.096  10.761   1.014
38682W        W11008  33.291  31.142   2.617
38683W        W11009  17.860  30.683  14.561
38684W        W11010  22.256  28.012  14.381
38685W        W11011  29.568  16.528   3.987
38686W        W11012   1.715  12.796   4.634
38687W        W11013  24.106  14.194  13.711
38688W        W11014  24.331  41.851   4.295
38689W        W11015  28.734  43.220   2.178
38690W        W11016  36.050  19.110   3.250
38691W        W11017  22.833  22.086  14.798
38692W        W11018  11.562  39.764  13.317
38693W        W11019  12.742  19.058   1.933
38694W        W11020  35.104  38.440   1.921
38695W        W11021  39.120  19.136  10.451
38696W        W11022   5.752   1.669  12.466
38697W        W11023  37.989  41.382  13.736
38698W        W11024  34.365  43.844  12.094
38699W        W11025  16.057   7.641   0.220
38700W        W11026  14.205  24.549   1.468
38701W        W11027  32.092  28.418  12.992
38702W        W11028  28.624  27.417   3.215
38703W        W11029   2.735   9.892  13.508
38704W        W11030  34.075   8.770   3.748
38705W        W11031  10.763  24.074  12.032
38706W        W11032  33.566  41.815   0.301
38707W        W11033  12.309  24.850  12.470
38708W        W11034   6.929  40.987  11.623
38709W        W11035  38.858  24.168   4.612
38710W        W11036   5.640   6.215   1.410
38711W        W11037  22.060  40.812  11.416
38712W        W11038   2.593   6.382  12.484
38713W        W11039   5.304  41.601   0.455
38714W        W11040  43.456  28.974   2.904
38715W        W11041  30.934  19.651  14.309
38716W        W11042  25.081  22.452   0.775
38717W        W11043  30.704  31.845   0.395
38718W        W11044  16.204  25.542   4.898
38719W        W11045  43.199  20.238   4.552
38720W        W11046  25.481  35.849   5.076
38721W        W11047  19.996  21.277   3.098
38722W        W11048   0.438  23.944  14.741
38723W        W11049  26.542  16.502   0.460
38724W        W11050   6.319  11.883   4.037
38725W        W11051   4.228  10.694   3.275
38726W        W11052   7.408   6.361   3.666
38727W        W11053  32.915  44.932  11.881
38728W        W11054   0.627  13.366  13.565
38729W        W11055  38.651  17.911  14.710
38730W        W11056   0.271  28.254  11.991
38731W        W11057   4.918  37.455   1.287
38732W        W11058  17.088  21.135  12.069
38733W        W11059  19.620  39.423   5.124
38734W        W11060  19.704  30.210  11.170
38735W        W11061  24.296  42.964  10.151
38736W        W11062  40.397  42.351   3.758
38737W        W11063  33.729   7.265  13.580
38738W        W11064  10.627  23.752   3.405
38739W        W11065   5.899  38.483   2.754
38740W        W11066  35.982  29.515   3.570
38741W        W11067  20.644  31.668  12.911
38742W        W11068  32.001  42.396  10.730
38743W        W11069  34.478   2.148   1.503
38744W        W11070  41.875  28.982  12.675
38745W        W11071  40.231  33.968   1.714
38746W        W11072   1.759  40.187   3.304
38747W        W11073  25.752   6.761   2.316
38748W        W11074  25.106  38.404   3.886
38749W        W11075  21.226   0.760  11.740
38750W        W11076  29.893   6.174  10.763
38751W        W11077  14.170  22.653   4.882
38752W        W11078  26.814  24.235   4.670
38753W        W11079  10.098   0.853  14.929
38754W        W11080   6.818  20.019  14.407
38755W        W11081  44.817   0.161  13.551
38756W        W11082   0.921  33.364  10.086
38757W        W11083   7.436   3.598   1.509
38758W        W11084  33.944  15.566  11.227
38759W        W11085  42.654  43.607   0.365
38760W        W11086  21.805  28.945  13.391
38761W        W11087  28.338  31.304   0.912
38762W        W11088  15.555   0.931  10.489
38763W        W11089   9.249  27.288  12.947
38764W        W11090  27.519   4.261   2.061
38765W        W11091  29.398  21.176  14.362
38766W        W11092  15.070  21.841   0.426
38767W        W11093   7.219  33.827   3.311
38768W        W11094   6.715   2.494   4.051
38769W        W11095  14.055  41.671  10.771
38770W        W11096  12.598  24.745  11.538
38771W        W11097  30.029   1.288  14.783
38772W        W11098  26.240  14.184   4.622
38773W        W11099  18.467   4.233  12.954
38774W        W11100  36.024  21.729  12.905
38775W        W11101  27.077  26.709   1.712
38776W        W11102  44.769   7.728   0.502
38777W        W11103  27.442  31.520  14.295
38778W        W11104  28.398  19.533  10.523
38779W        W11105  27.340  23.513  13.415
38780W        W11106  20.596  33.983  11.278
38781W        W11107  11.158  16.850   1.762
38782W        W11108  15.127  40.158  12.292
38783W        W11109  32.639  43.007  13.009
38784W        W11110  33.562  21.228  14.893
38785W        W11111   6.838   8.967  14.401
38786W        W11112  25.498  14.560   0.461
38787W        W11113  28.523  43.035  14.449
38788W        W11114  38.469  28.458  11.987
38789W        W11115  18.746  18.250   2.463
38790W        W11116  18.795   1.070  13.443
38791W        W11117  22.694  21.256  12.062
38792W        W11118   1.034  10.056  12.020
38793W        W11119  38.165  33.517  13.977
38794W        W11120   3.469  33.258   3.234
38795W        W11121  42.248  24.968  14.431
38796W        W11122  14.256  21.750   3.627
38797W        W11123  39.559   8.244   0.419
38798W        W11124  22.534  38.441   4.258
38799W        W11125   2.189  37.473   3.322
38800W        W11126  11.354  32.160   3.719
38801W        W11127   0.491  43.743   4.342
38802W        W11128   9.778  25.848  13.034
38803W        W11129   7.884  14.811   0.412
38804W        W11130  39.433   9.612  11.057
38805W        W11131  39.835  14.298   2.115
38806W        W11132  35.366  24.434  10.962
38807W        W11133  24.141  34.019   0.233
38808W        W11134  12.800   3.408   1.650
38809W        W11135  20.434   5.456   3.859
38810W        W11136   7.515   0.359  11.504
38811W        W11137  26.579  42.675  11.424
38812W        W11138  11.141  38.546  11.967
38813W        W11139  25.771  40.874  12.892
38814W        W11140  21.367   3.324  14.855
38815W        W11141  35.396  22.287  13.861
38816W        W11142   7.603  28.361   4.306
38817W        W11143  41.982   1.048   2.929
38818W        W11144  12.928   5.731  13.122
38819W        W11145  25.601   4.569   1.920
38820W        W11146  10.083  41.403   2.732
38821W        W11147  43.510  23.810   4.241
38822W        W11148  11.842   6.358   3.653
38823W        W11149  36.284  28.125  12.386
38824W        W11150   1.617   4.771   1.884
38825W        W11151  15.768  24.663   0.678
38826W        W11152  16.911   0.507   0.353
38827W        W11153  30.414  40.423  11.441
38828W        W11154  13.925  15.914   4.993
38829W        W11155  34.766  43.555  11.908
38830W        W11156  29.531  12.237   0.269
38831W        W11157  23.020  40.016   0.579
38832W        W11158  41.551  14.095   0.368
38833W        W11159  24.944   3.135  14.569
38834W        W11160  14.700   8.501  11.133
38835W        W11161   8.304   8.755   0.975
38836W        W11162   5.465  28.722   4.047
38837W        W11163  28.214  33.051  13.885
38838W        W11164   6.444   6.610  13.488
38839W        W11165  15.990  26.682   0.509
38840W        W11166   2.241   9.103   2.393
38841W        W11167  33.389   5.938   0.721
38842W        W11168  40.011  39.857   2.700
38843W        W11169  20.254  27.569   2.352
38844W        W11170  21.669   0.279   3.077
38845W        W11171   6.694  21.215   3.196
38846W        W11172   7.125  34.185  10.647
38847W        W11173  32.087  42.805   3.663
38848W        W11174  13.635  36.091   5.362
38849W        W11175  43.967  44.831  11.193
38850W        W11176  32.440  29.975  12.452
38851W        W11177  44.966  13.755  10.610
38852W        W11178  14.084   9.631   4.587
38853W        W11179   1.569  16.614   1.202
38854W        W11180  39.484   0.034  12.678
38855W        W11181  16.150  25.103   1.283
38856W        W11182  12.564  34.461  14.680
38857W        W11183  10.374  24.521  11.343
38858W        W11184  32.271  19.729   1.387
38859W        W11185   4.400   4.748  11.883
38860W        W11186  19.470  12.593   2.582
38861W        W11187   1.405  16.890   0.785
38862W        W11188  23.036   0.822   4.553
38863W        W11189  27.713  37.454  12.429
38864W        W11190  20.788  27.520  11.514
38865W        W11191   2.027  35.914  13.983
38866W        W11192   5.864  28.374  14.520
38867W        W11193   7.711  28.238   1.193
38868W        W11194  39.586  40.254  11.416
38869W        W11195  17.016  29.790   5.237
38870W        W11196  18.216  26.182  13.014
38871W        W11197   1.249  31.108   3.306
38872W        W11198  17.318  29.949  14.810
38873W        W11199   9.200  28.929  12.485
38874W        W11200  23.887  18.506  14.827
38875W        W11201  40.010  31.522   0.274
38876W        W11202  21.548  39.254   2.874
38877W        W11203  33.056   3.805   1.244
38878W        W11204  18.338  25.514   3.262
38879W        W11205   2.460  26.613   4.583
38880W        W11206  19.146  28.946  14.879
38881W        W11207   8.391   5.227  12.226
38882W        W11208   5.639  23.325  13.604
38883W        W11209  42.088  28.085  12.972
38884W        W11210  38.431   0.782  12.390
38885W        W11211  41.455   8.712   3.061
38886W        W11212  43.394  32.705   2.840
38887W        W11213  28.656   5.387   1.645
38888W        W11214  25.461  25.102   1.955
38889W        W11215  14.415  35.618   2.380
38890W        W11216  35.860   7.167   3.207
38891W        W11217   4.651  32.081  13.924
38892W        W11218   8.200  38.393  14.409
38893W        W11219  29.550  28.103   1.495
38894W        W11220  27.740   7.909   2.274
38895W        W11221  19.336   7.753   1.855
38896W        W11222  27.664  27.903  10.707
38897W        W11223  27.009   6.297   3.638
38898W        W11224  39.617   1.688  11.519
38899W        W11225   0.347  27.614  11.225
38900W        W11226   6.822  37.668   4.074
38901W        W11227   3.494  34.922  10.691
38902W        W11228  11.416   8.715  10.558
38903W        W11229   1.288  32.176  13.278
38904W        W11230  25.374  41.604  12.429
38905W        W11231   9.625   0.284  14.268
38906W        W11232  34.895   7.571   1.429
38907W        W11233  17.106  36.402   0.481
38908W        W11234  13.570  11.389   2.782
38909W        W11235  10.379  37.032   2.691
38910W        W11236  30.850  38.042   4.260
38911W        W11237  44.996  14.122   1.399
38912W        W11238   8.091  42.938   1.817
38913W        W11239  19.556  37.479   4.642
38914W        W11240  32.907  22.627   3.697
38915W        W11241  15.590  14.023  13.422
38916W        W11242  18.582  30.665  13.359
38917W        W11243  13.521  34.389   1.375
38918W        W11244  18.714   8.880   3.099
38919W        W11245  37.867  29.182  13.735
38920W        W11246  23.618  28.208  12.482
38921W        W11247   2.982  42.945   1.449
38922W        W11248   2.964  21.084   5.013
38923W        W11249  43.894   0.951   2.934
38924W        W11250  31.470   5.896  11.106
38925W        W11251  20.032  41.248   4.547
38926W        W11252  35.126  42.363   0.493
38927W        W11253   9.178  35.125  12.840
38928W        W11254  42.066  18.597   3.333
38929W        W11255  33.337  44.773   1.382
38930W        W11256  44.789   3.946  14.636
38931W        W11257   0.966  33.317   2.841
38932W        W11258  35.899  36.516   4.009
38933W        W11259  11.099  25.516  12.446
38934W        W11260   3.641  31.171   2.834
38935W        W11261  30.102  34.656  13.544
38936W        W11262  11.722  15.564   4.617
38937W        W11263  24.298  27.239   2.407
38938W        W11264   5.618  14.867   1.332
38939W        W11265  27.117  42.011   1.467
38940W        W11266  18.107  30.857   3.410
38941W        W11267   4.310   9.741   5.583
38942W        W11268  30.576  21.069  12.160
38943W        W11269  14.830  43.403  12.602
38944W        W11270  39.531   2.245  10.252
38945W        W11271  19.802  41.871   0.178
38946W        W11272  42.515   5.205  11.187
38947W        W11273  29.142   3.755  10.755
38948W        W11274  43.106  29.165   3.677
38949W        W11275  44.855  29.083  12.068
38950W        W11276  37.918  33.075  13.822
38951W        W11277  39.586  30.460  10.933
38952W        W11278  14.286  44.684  14.254
38953W        W11279  36.726  36.601   2.892
38954W        W11280  12.903  32.101   3.720
38955W        W11281  40.395  10.236   2.347
38956W        W11282  38.027  12.110   0.371
38957W        W11283   2.446  37.504   4.712
38958W        W11284  34.922   0.520  12.296
38959W        W11285  28.724   5.883   2.855
38960W        W11286  39.565   3.857   4.692
38961W        W11287  15.149  35.085  10.259
38962W        W11288  31.154  24.285  13.049
38963W        W11289  17.212  32.436   0.721
38964W        W11290   2.892  20.465   3.267
38965W        W11291   3.989  12.761  10.316
38966W        W11292  31.613  34.811   0.687
38967W        W11293  17.541   6.700   2.412
38968W        W11294   0.771  16.289   1.061
38969W        W11295   1.714   8.814   4.202
38970W        W11296  37.995  27.953  12.490
38971W        W11297   0.946   0.672   0.561
38972W        W11298  41.824  37.039  12.927
38973W        W11299  40.860   4.708   0.950
38974W        W11300   9.123  15.833   4.449
38975W        W11301   3.820  12.766   3.142
38976W        W11302  23.751  13.846   1.685
38977W        W11303   4.336   4.271   2.182
38978W        W11304   8.171  18.247  11.138
38979W        W11305  23.636  25.208   1.789
38980W        W11306  21.538  23.574   3.103
38981W        W11307  11.938  43.003  12.101
38982W        W11308  30.467  26.657  13.391
38983W        W11309  27.154   4.964   3.583
38984W        W11310  13.545   9.936  11.177
38985W        W11311  42.519  42.086  11.938
38986W        W11312  20.643  35.122   1.121
38987W        W11313  16.136   8.940  10.649
38988W        W11314  27.708  15.820  10.730
38989W        W11315  34.608   9.663   3.352
38990W        W11316  18.024  29.377  11.214
38991W        W11317  23.147  38.985   4.565
38992W        W11318  41.965  43.030  14.015
38993W        W11319  21.558  17.870   9.853
38994W        W11320  44.319  35.525  14.096
38995W        W11321   1.377   1.562  14.944
38996W        W11322  29.915  30.997   4.938
38997W        W11323  22.560  38.454   4.814
38998W        W11324  25.001   1.396   0.822
38999W        W11325  26.497  39.537  12.353
39000W        W11326  32.623  14.182   3.893
39001W        W11327  13.198  17.950  11.174
39002W        W11328  21.107  38.529   1.926
39003W        W11329  11.012  23.342  14.103
39004W        W11330  35.815   1.999  13.048
39005W        W11331   3.351  39.403   0.709
39006W        W11332   6.694  33.165   2.741
39007W        W11333  44.458  33.137   2.240
39008W        W11334  39.491  42.282  14.082
39009W        W11335  18.363  10.638   4.089
39010W        W11336   4.588  29.722  14.329
39011W        W11337  29.215  35.845   2.694
39012W        W11338   7.715  20.631   1.955
39013W        W11339   1.336  44.825  11.134
39014W        W11340  21.501  19.304   0.637
39015W        W11341  33.822  34.615  14.849
39016W        W11342  30.396  42.914   3.569
39017W        W11343  13.179  43.946  11.986
39018W        W11344  29.886  28.921   4.714
39019W        W11345  22.193  35.108   4.852
39020W        W11346  35.161  11.274   0.170
39021W        W11347  34.928  33.787  12.073
39022W        W11348  41.336  17.291   4.525
39023W        W11349  33.187  26.300   0.444
39024W        W11350  32.543  30.753  12.804
39025W        W11351   4.328  19.344   1.712
39026W        W11352   2.300  29.398   4.523
39027W        W11353  10.224  36.452  13.553
39028W        W11354  39.393   0.475  12.430
39029W        W11355  40.456  31.590  13.298
39030W        W11356   9.854  31.151  12.307
39031W        W11357  24.555  23.908  12.344
39032W        W11358   2.248  19.545  10.671
39033W        W11359  28.511  29.703   0.104
39034W        W11360  40.198  36.974   1.137
39035W        W11361  21.081  25.474  14.087
39036W        W11362  37.871  18.150  10.645
39037W        W11363   7.631  10.640  13.976
39038W        W11364  18.211  25.109   0.477
39039W        W11365  13.710   3.208   4.699
39040W        W11366   5.150  25.282   5.032
39041W        W11367   8.219  41.974  14.872
39042W        W11368  22.080   6.872   4.681
39043W        W11369   0.429   9.288   3.049
39044W        W11370  32.008  28.766   2.265
39045W        W11371  18.241   8.332   0.285
39046W        W11372  44.428  16.560   4.184
39047W        W11373  27.178  13.888   0.867
39048W        W11374  27.203  19.754   2.280
39049W        W11375  13.192  42.026   3.619
39050W        W11376  41.656  32.580  12.577
39051W        W11377   3.999  26.189  12.593
39052W        W11378  43.746  43.120   1.869
39053W        W11379  15.202   5.383   4.491
39054W        W11380  35.836  18.981   2.250
39055W        W11381  33.012  15.948  10.969
39056W        W11382  25.297  32.099  12.307
39057W        W11383  31.152  34.840  14.377
39058W        W11384   0.247   2.518   2.795
39059W        W11385  40.339  24.717   0.768
39060W        W11386   1.055  39.001  11.618
39061W        W11387   7.364   2.771   2.374
39062W        W11388   3.127  28.871   1.967
39063W        W11389  19.315   9.688  14.294
39064W        W11390   0.734  14.655  13.955
39065W        W11391  21.276  26.958   0.937
39066W        W11392  32.923   1.418  13.876
39067W        W11393  23.187  18.331   3.411
39068W        W11394   1.238   4.485   0.974
39069W        W11395  36.783   5.822   1.327
39070W        W11396  38.483  38.289   3.249
39071W        W11397  29.934   0.156  12.611
39072W        W11398  40.988  34.349   4.426
39073W        W11399  29.071  30.888   4.619
39074W        W11400   8.663  28.185   0.356
39075W        W11401   3.389  28.982  11.014
39076W        W11402   3.510   4.197  11.986
39077W        W11403  22.145  20.338   2.219
39078W        W11404  11.131  24.789  14.611
39079W        W11405  43.201  14.629   4.033
39080W        W11406   9.015   8.813   1.977
39081W        W11407   3.154   4.642  11.434
39082W        W11408  28.829  29.544   1.158
39083W        W11409  33.462   5.708   2.235
39084W        W11410  39.045  29.196  10.598
39085W        W11411  31.221  35.950   1.283
39086W        W11412  32.016   4.930   4.736
39087W        W11413  35.316  37.044   1.848
39088W        W11414  26.805  41.065  10.776
39089W        W11415   9.162  13.858   0.342
39090W        W11416  33.787  18.601  14.809
39091W        W11417  32.395  42.378   2.715
39092W        W11418  22.022  11.546   1.412
39093W        W11419  36.543  13.545  10.344
39094W        W11420  36.639   0.560   1.996
39095W        W11421  38.463  21.767   2.717
39096W        W11422  29.043  30.951   3.330
39097W        W11423  38.917  37.221   4.876
39098W        W11424  23.487  35.467   0.799
39099W        W11425  23.224  29.456  13.483
39100W        W11426   2.493  13.284  12.924
39101W        W11427  39.360  29.606  10.925
39102W        W11428   7.971  25.454   1.127
39103W        W11429  30.141  12.344   2.869
39104W        W11430  33.043  27.275  10.623
39105W        W11431  18.566  39.477  14.861
39106W        W11432  41.258  42.254  13.044
39107W        W11433  14.045  25.966  14.913
39108W        W11434  27.134  42.510  10.291
39109W        W11435  40.448  40.769  10.706
39110W        W11436  19.894  40.057  13.505
39111W        W11437  23.511  39.731   3.744
39112W        W11438  30.888   0.864  11.190
39113W        W11439   3.257   3.370  12.992
39114W        W11440  24.932  22.599  12.332
39115W        W11441  12.432  39.874  14.316
39116W        W11442  24.646  33.901   0.329
39117W        W11443  18.648  25.187  12.591
39118W        W11444  25.041  41.713  13.545
39119W        W11445  40.007  26.478  14.326
39120W        W11446  34.842  14.063  13.781
39121W        W11447  21.376  20.764   3.867
39122W        W11448  21.807  26.177  10.655
39123W        W11449   4.621  40.312  14.425
39124W        W11450  44.435   7.974  12.335
39125W        W11451  16.963  28.051   4.506
39126W        W11452  35.586   3.942  13.850
39127W        W11453  23.240  13.832   1.804
39128W        W11454  21.738  31.132   1.889
39129W        W11455   4.925  39.926   3.298
39130W        W11456  14.500  14.629  14.530
39131W        W11457  11.634  15.643  14.310
39132W        W11458   6.678  36.050  14.498
39133W        W11459  12.848   3.156   4.334
39134W        W11460  10.200  18.248  13.845
39135W        W11461  10.157  32.396  13.896
39136W        W11462  39.161  44.734  14.302
39137W        W11463   8.779  29.159   1.789
39138W        W11464  28.222  33.993   2.301
39139W        W11465  26.170  15.622  14.302
39140W        W11466   3.447  38.722   2.412
39141W        W11467   0.276  29.112   3.223
39142W        W11468  19.338  36.557  11.814
39143W        W11469  24.643  33.070   4.212
39144W        W11470   5.953   3.475   2.841
39145W        W11471  22.970  36.040   4.126
39146W        W11472  11.138  40.719  11.875
39147W        W11473   2.391  17.054   4.455
39148W        W11474  29.701  29.347   0.693
39149W        W11475  27.937  26.433   1.942
39150W        W11476  16.192  32.623  13.422
39151W        W11477  25.928  41.023  14.514
39152W        W11478  36.499  23.930   1.594
39153W        W11479  16.631  38.141   2.697
39154W        W11480   3.960  38.444   0.985
39155W        W11481  10.579  34.545   4.118
39156W        W11482  39.915  18.329   0.424
39157W        W11483  16.252  43.763   3.750
39158W        W11484  40.029   3.308  13.098
39159W        W11485  21.410   0.331  13.436
39160W        W11486  42.336  20.986   1.177
39161W        W11487  14.438  38.527  11.207
39162W        W11488  39.043  24.524   0.435
39163W        W11489  28.619  12.123   1.102
39164W        W11490   0.649   4.473  12.502
39165W        W11491  30.548  23.272   4.008
39166W        W11492  26.248  20.945   2.689
39167W        W11493  14.602  36.400   0.980
39168W        W11494  25.789  38.649   4.983
39169W        W11495  41.488  12.809   1.718
39170W        W11496  43.899  24.473  13.980
39171W        W11497  29.994   8.777   4.258
39172W        W11498  44.825  18.131  10.738
39173W        W11499  13.816  36.164  13.880
39174W        W11500  33.342   5.685  12.071
39175W        W11501  25.688  26.519  12.858
39176W        W11502   7.270  29.634  11.209
39177W        W11503   4.749  32.504  10.631
39178W        W11504  35.552  15.238   3.293
39179W        W11505  32.875  26.801  14.786
39180W        W11506  11.701   3.304  10.065
39181W        W11507   1.358   2.944  11.117
39182W        W11508  11.537   8.630  14.952
39183W        W11509  10.389  38.065  14.862
39184W        W11510  23.390  29.778  13.059
39185W        W11511   4.343  14.375  13.528
39186W        W11512  18.950  13.114   3.299
39187W        W11513  34.406  23.055   0.809
39188W        W11514  39.037  15.760  12.192
39189W        W11515  32.650   8.814  12.045
39190W        W11516  34.197   0.245  11.060
39191W        W11517   8.286   7.913  11.387
39192W        W11518  26.280  14.120  10.691
39193W        W11519  32.895  37.456  13.582
39194W        W11520  38.452  36.060  12.491
39195W        W11521  20.035   4.235   1.316
39196W        W11522  29.024  37.331  14.973
39197W        W11523  18.606   9.449   1.802
39198W        W11524   3.516   3.718   0.778
39199W        W11525  19.772  21.213  14.330
39200W        W11526  19.328  44.816  13.774
39201W        W11527  14.717  14.796  11.208
39202W        W11528   8.284  11.697  14.231
39203W        W11529  25.279  44.585  13.952
39204W        W11530  39.297  28.550   4.607
39205W        W11531  29.526  22.284  13.066
39206W        W11532  25.625  41.065   3.634
39207W        W11533  34.543  35.384  10.681
39208W        W11534   3.718  23.321   0.361
39209W        W11535   0.229  18.268  13.376
39210W        W11536  36.661  19.735   5.061
39211W        W11537  31.672  26.439  12.932
39212W        W11538  40.363  23.969  12.541
39213W        W11539   6.789   1.975   2.211
39214W        W11540  23.622  12.925   3.114
39215W        W11541  22.513  28.059   3.185
39216W        W11542  29.100  41.443  13.925
39217W        W11543  40.039   5.118   3.647
39218W        W11544  13.618  14.521  14.343
39219W        W11545  44.042  43.779   3.750
39220W        W11546   7.270  34.236   1.237
39221W        W11547  42.497   2.560   4.365
39222W        W11548  18.201  39.445   2.402
39223W        W11549  40.196   0.833   2.533
39224W        W11550  34.578   9.268  12.992
39225W        W11551  37.567   0.782   0.970
39226W        W11552  26.058  20.358   1.302
39227W        W11553  17.295  36.055  12.118
39228W        W11554  21.287  18.159   4.279
39229W        W11555  24.403  25.135  11.078
39230W        W11556  29.437   8.133  14.959
39231W        W11557  13.459  24.569  11.740
39232W        W11558   2.459  26.043   4.580
39233W        W11559  35.620   7.533  11.343
39234W        W11560   7.775  20.301   0.103
39235W        W11561  43.482  37.089  13.188
39236W        W11562  28.005  23.394   1.461
39237W        W11563  13.306  25.183  14.435
39238W        W11564  30.813  36.721   3.693
39239W        W11565  19.615  35.747  11.882
39240W        W11566   4.637  43.414   4.605
39241W        W11567  13.910  37.507  14.277
39242W        W11568   5.669   5.777   0.023
39243W        W11569  30.187  10.681  12.275
39244W        W11570   2.535   0.087  11.989
39245W        W11571   6.911   1.288   1.720
39246W        W11572  44.574  36.529  13.502
39247W        W11573  42.046  36.763  11.607
39248W        W11574  42.519  13.044  13.000
39249W        W11575   1.992  21.919  12.292
39250W        W11576   9.189  13.759  14.211
39251W        W11577  35.962   8.262  13.891
39252W        W11578  36.015  10.347   0.771
39253W        W11579  22.217  24.713   1.186
39254W        W11580  39.754  12.818   3.693
39255W        W11581  39.597  28.888   2.046
39256W        W11582  19.980  40.912  11.286
39257W        W11583   1.172   2.960   0.748
39258W        W11584  40.570  29.711  12.603
39259W        W11585   3.260  20.952   2.061
39260W        W11586  37.528  15.656   2.311
39261W        W11587  28.597  35.885  11.158
39262W        W11588  25.427   4.571   3.271
39263W        W11589  15.643  16.592   1.646
39264W        W11590  20.132  25.708   2.153
39265W        W11591  39.755   7.678  11.081
39266W        W11592  29.302  18.652   1.516
39267W        W11593  38.436   1.018   2.867
39268W        W11594  24.032  32.190   3.243
39269W        W11595  33.980  22.268   3.686
39270W        W11596   7.141  31.949  13.817
39271W        W11597  32.039  11.731   0.461
39272W        W11598   7.702  28.724  14.288
39273W        W11599  31.954  23.328  13.468
39274W        W11600  44.013  12.566   3.286
39275W        W11601  28.186  16.561  14.452
39276W        W11602  22.878  28.697  14.475
39277W        W11603  11.396  17.276   4.192
39278W        W11604  21.482  16.766  12.165
39279W        W11605  20.576  21.975   3.663
39280W        W11606  22.771  19.496  13.518
39281W        W11607  28.183  21.337  12.212
39282W        W11608  44.025  31.952  11.202
39283W        W11609  30.594   4.431  11.947
39284W        W11610   8.505  32.746   1.283
39285W        W11611  36.578  33.731  11.280
39286W        W11612  16.820  36.336   0.915
39287W        W11613  29.622  10.013   4.588
39288W        W11614  23.166  43.780   4.262
39289W        W11615  30.127  19.363   4.662
39290W        W11616  17.756   8.196  10.997
39291W        W11617  32.700  23.218   0.642
39292W        W11618  42.573   0.451   2.195
39293W        W11619  30.936   9.203   2.277
39294W        W11620  27.514  25.177  12.813
39295W        W11621  43.385  30.701   1.856
39296W        W11622   7.458  13.570  11.597
39297W        W11623  14.901  34.872   3.656
39298W        W11624  19.703   1.982  13.047
39299W        W11625  42.949   1.469  14.313
39300W        W11626  35.833   3.448  10.220
39301W        W11627   1.485  20.478  13.962
39302W        W11628  42.481  28.918  11.095
39303W        W11629  20.113  34.549   0.959
39304W        W11630  32.837  38.673   0.408
39305W        W11631  23.559  15.017   3.757
39306W        W11632  28.755  36.589   1.305
39307W        W11633  10.903   7.915  12.170
39308W        W11634  41.987  37.782   1.477
39309W        W11635  37.058  41.066  14.840
39310W        W11636  34.800   3.644  14.195
39311W        W11637  20.542  17.266  14.502
39312W        W11638  36.508  25.717  14.408
39313W        W11639  19.523  33.326   1.878
39314W        W11640   5.674   4.342   0.589
39315W        W11641  33.975   6.670  12.005
39316W        W11642  18.247  43.508  12.096
39317W        W11643  15.997  44.277   2.881
39318W        W11644  10.016  33.666  12.079
39319W        W11645   6.814  16.192   3.289
39320W        W11646  38.293  40.449   1.725
39321W        W11647  28.715   3.353  11.133
39322W        W11648  38.032  26.711   3.226
39323W        W11649  26.540   7.427   4.144
39324W        W11650  13.862   2.325   1.882
39325W        W11651  15.753  20.088  11.689
39326W        W11652  33.366   2.963  11.531
39327W        W11653  36.329  20.564   4.033
39328W        W11654  36.546  28.466  11.182
39329W        W11655   1.818  16.732   1.973
39330W        W11656  19.340  14.461  13.331
39331W        W11657  28.372  35.408   3.687
39332W        W11658  14.681  17.112  11.373
39333W        W11659  36.933  33.644   2.202
39334W        W11660  12.716   5.467   1.620
39335W        W11661  32.392   4.743  12.357
39336W        W11662   4.627   0.984   0.826
39337W        W11663  15.796  42.633   0.071
39338W        W11664  24.277  37.070  14.197
39339W        W11665  25.243  32.702   1.062
39340W        W11666  23.475  41.949  10.707
39341W        W11667  22.263  43.843  13.393
39342W        W11668  25.733  25.910  12.242
39343W        W11669  42.514  16.820   0.431
39344W        W11670  28.328   3.884  14.556
39345W        W11671   9.316  31.119  12.391
39346W        W11672  11.265  39.873  11.317
39347W        W11673  18.598  13.691  11.216
39348W        W11674   0.320  24.704   1.421
39349W        W11675   1.714  38.891  10.657
39350W        W11676  13.171  30.424   4.159
39351W        W11677  37.091  11.525   1.163
39352W        W11678  15.552  43.526   2.345
39353W        W11679   3.539  30.135  11.226
39354W        W11680   6.833  35.647  14.222
39355W        W11681   1.466  37.042  13.418
39356W        W11682  31.136   8.541  13.869
39357W        W11683  35.524  24.154  14.980
39358W        W11684  19.732  29.093  11.660
39359W        W11685  26.460  10.189  11.424
39360W        W11686  27.043  11.314   3.641
39361W        W11687   7.966  38.551  11.857
39362W        W11688  13.205   8.728  11.417
39363W        W11689  29.029  35.886  12.407
39364W        W11690  13.771  42.436  10.581
39365W        W11691  40.886  13.867  11.122
39366W        W11692  13.016  33.604   3.662
39367W        W11693  11.372  34.455   1.500
39368W        W11694  41.396  19.217   3.898
39369W        W11695  19.095  10.768   1.933
39370W        W11696  29.462  16.622  13.757
39371W        W11697   9.845  36.382  12.319
39372W        W11698   5.389   4.879  12.054
39373W        W11699  15.486  32.620   2.510
39374W        W11700   3.462  20.019  13.432
39375W        W11701  44.890   4.043  10.512
39376W        W11702  16.236  33.109   4.638
39377W        W11703  38.279  17.583  12.428
39378W        W11704   8.723  25.264   2.202
39379W        W11705  27.867  15.264  12.430
39380W        W11706  13.392  31.699   4.189
39381W        W11707  44.163  11.131   4.533
39382W        W11708  32.859  41.090  10.689
39383W        W11709  15.620   3.228   1.944
39384W        W11710  39.690  10.041   3.227
39385W        W11711  21.651  26.655  13.978
39386W        W11712  11.244  39.354   1.743
39387W        W11713  12.835  14.890   4.080
39388W        W11714  38.205  35.159   2.754
39389W        W11715  12.765   0.589  11.167
39390W        W11716  12.932   0.447   1.918
39391W        W11717  43.554  11.190  11.753
39392W        W11718  14.122   0.257  12.016
39393W        W11719  12.852  30.974   0.622
39394W        W11720  19.248  26.679   3.656
39395W        W11721  31.616  35.020   1.166
39396W        W11722   5.183  29.090   2.942
39397W        W11723   3.847  20.537  12.976
39398W        W11724   4.081  41.265   1.641
39399W        W11725  11.518  21.510  11.643
39400W        W11726  20.238  33.608  14.562
39401W        W11727   6.084   2.280   1.334
39402W        W11728  40.307  13.127  12.384
39403W        W11729   3.462  24.983   4.363
39404W        W11730  44.052  43.777   5.001
39405W        W11731   0.353  25.561  11.508
39406W        W11732  32.406  20.466  14.896
39407W        W11733  20.054   7.808  12.354
39408W        W11734  38.084  20.602  10.930
39409W        W11735  38.517  18.608   3.699
39410W        W11736  24.237  39.818   2.379
39411W        W11737   5.921  44.377   2.161
39412W        W11738  30.575  21.011   2.798
39413W        W11739  33.711  15.613  14.002
39414W        W11740  10.244  42.925  11.976
39415W        W11741  10.135   6.366  13.993
39416W        W11742  21.054  30.928   1.378
39417W        W11743   2.082  19.679   1.795
39418W        W11744  12.852  28.291   0.841
39419W        W11745  37.082  12.662   5.369
39420W        W11746  39.475  23.713   0.398
39421W        W11747  40.993  36.027  13.534
39422W        W11748   3.229   5.068   0.870
39423W        W11749  13.686   3.916   0.239
39424W        W11750   3.482  35.040   2.323
39425W        W11751  39.204  15.303   2.828
39426W        W11752  40.536   2.872   1.609
39427W        W11753  17.156  14.883  10.488
39428W        W11754  23.522  16.155  12.548
39429W        W11755   7.701  37.423  13.947
39430W        W11756  22.191   6.474   1.355
39431W        W11757  24.938  40.822  13.293
39432W        W11758  35.961  10.104  11.602
39433W        W11759   3.310   1.906  11.466
39434W        W11760  21.401   7.909   0.468
39435W        W11761   7.666  15.783  13.959
39436W        W11762  32.608  22.249   3.864
39437W        W11763  26.330   7.214   0.827
39438W        W11764  21.995  19.576  13.334
39439W        W11765   3.696  33.808   0.356
39440W        W11766  17.031  31.375   3.245
39441W        W11767   1.778  10.340  10.121
39442W        W11768  36.512  13.105   0.633
39443W        W11769  32.664  15.373  13.256
39444W        W11770  13.153  14.302   0.628
39445W        W11771  29.411  30.109   3.737
39446W        W11772  17.953  41.827  13.503
39447W        W11773  32.627  15.167   3.710
39448W        W11774  14.724  26.186   2.481
39449W        W11775  19.279  25.046   3.983
39450W        W11776  34.854  17.697   0.023
39451W        W11777   3.523   3.786  11.678
39452W        W11778  38.277  43.671  13.605
39453W        W11779   8.911  37.484  14.273
39454W        W11780   8.614   0.691   3.182
39455W        W11781  38.880  20.441  10.787
39456W        W11782  44.945  27.708  13.000
39457W        W11783   5.293  35.766  14.814
39458W        W11784  12.792  27.932   3.466
39459W        W11785  11.018  24.069   3.650
39460W        W11786  13.386   3.372  10.764
39461W        W11787   3.835  42.433   0.168
39462W        W11788  29.067  10.628  12.940
39463W        W11789  12.326  22.143   0.283
39464W        W11790  17.869   5.356  11.899
39465W        W11791  16.499  35.943   4.816
39466W        W11792   1.866  38.813   4.290
39467W        W11793  40.623  13.296  10.483
39468W        W11794  31.616  41.960  13.652
39469W        W11795   6.353  38.828  11.568
39470W        W11796  10.964  31.841   2.323
39471W        W11797  29.573  10.677   1.142
39472W        W11798  23.335  23.263   0.297
39473W        W11799  11.886  26.902   3.571
39474W        W11800  22.265  11.900  12.189
39475W        W11801  34.855  17.428   0.488
39476W        W11802  44.532  43.336   0.431
39477W        W11803  19.206  17.654  12.899
39478W        W11804  14.368  39.028   0.395
39479W        W11805   0.502  30.926  14.995
39480W        W11806  43.745  16.233   3.007
39481W        W11807  15.673  21.018  12.145
39482W        W11808  42.894  34.479  14.432
39483W        W11809  44.395   3.509  11.562
39484W        W11810  27.912   5.203  12.395
39485W        W11811   1.013  33.126   2.375
39486W        W11812   0.358  29.656   3.398
39487W        W11813  42.408  30.981  12.838
39488W        W11814  13.889  18.282  14.405
39489W        W11815  24.325  11.764  12.514
39490W        W11816   3.226  19.174  14.794
39491W        W11817  25.095  37.744  12.357
39492W        W11818   7.774   3.458   3.655
39493W        W11819  18.712  32.195   2.882
39494W        W11820  41.922  44.493  10.449
39495W        W11821  27.368  37.853   1.373
39496W        W11822  18.177  12.404   2.977
39497W        W11823   3.701  38.929  10.986
39498W        W11824  11.850  14.603  12.890
39499W        W11825   1.846  11.574  10.591
39500W        W11826  31.819  42.269   0.691
39501W        W11827   4.886  29.514   3.128
39502W        W11828   9.297  10.541   0.661
39503W        W11829  27.995  35.927  14.556
39504W        W11830  39.244  17.606   2.413
39505W        W11831   2.963  44.120  14.316
39506W        W11832  41.360   8.189  10.623
39507W        W11833  13.370  11.373   1.427
39508W        W11834  20.661  14.067   0.959
39509W        W11835  12.304  21.878  11.465
39510W        W11836  28.240  43.007  11.049
39511W        W11837  28.164  40.820   1.319
39512W        W11838  26.228  10.248   3.730
39513W        W11839   8.140   2.986  12.372
39514W        W11840  34.137  26.211   0.375
39515W        W11841  35.912  34.880   3.734
39516W        W11842  32.021  44.551   0.710
39517W        W11843  23.165  36.890   4.610
39518W        W11844   8.655  28.411  10.961
39519W        W11845  36.180   0.576  12.018
39520W        W11846  23.129  11.696   1.868
39521W        W11847  28.831  21.137   0.426
39522W        W11848  31.729   1.000  13.890
39523W        W11849  20.591  40.991   2.293
39524W        W11850  33.218  21.179   4.644
39525W        W11851  41.264   8.312  12.343
39526W        W11852  36.887  43.020  10.873
39527W        W11853  16.169   0.449   1.714
39528W        W11854  21.095  40.460   4.618
39529W        W11855   6.919  14.877   4.072
39530W        W11856   0.614  38.062   0.879
39531W        W11857   7.431   2.261  14.398
39532W        W11858   5.994   3.191   3.338
39533W        W11859  38.386  19.193  12.972
39534W        W11860  13.790  39.381   1.349
39535W        W11861  35.814  28.038   4.263
39536W        W11862  38.488  23.314   0.915
39537W        W11863  23.066   4.948   3.161
39538W        W11864   4.741  27.556   1.777
39539W        W11865  21.759  34.689  11.995
39540W        W11866  38.512  36.624  12.521
39541W        W11867  39.892  29.538   4.120
39542W        W11868  43.473  42.273   1.836
39543W        W11869  33.489  11.145  14.304
39544W        W11870  28.580  27.454  14.790
39545W        W11871  29.064  28.388  14.482
39546W        W11872  30.127  43.241  14.019
39547W        W11873  10.148  13.370  14.408
39548W        W11874   3.927   1.908   4.257
39549W        W11875  39.879   8.114   0.007
39550W        W11876  17.853  11.981  13.044
39551W        W11877  44.383   6.644   2.633
39552W        W11878  26.468  27.129  14.453
39553W        W11879  26.172  17.873   2.915
39554W        W11880  25.490  28.484  12.020
39555W        W11881  11.331  37.866  12.528
39556W        W11882  44.686  27.222  13.393
39557W        W11883  14.219   7.754   1.776
39558W        W11884  13.124   7.964   3.763
39559W        W11885  15.644  43.541  10.517
39560W        W11886  14.144  44.442   2.888
39561W        W11887  42.086  17.372   2.254
39562W        W11888  44.946   5.758   1.919
39563W        W11889   6.378  37.561  12.388
39564W        W11890   2.761  22.986  11.051
39565W        W11891  43.131  31.392   3.290
39566W        W11892   8.725  43.674   1.742
39567W        W11893  28.673  23.216   0.209
39568W        W11894  26.638  12.486   4.580
39569W        W11895   2.041  36.543   2.761
39570W        W11896  28.982  14.315  12.922
39571W        W11897  14.330  37.555  13.164
39572W        W11898   5.239   7.930  13.972
39573W        W11899   3.775  44.050   0.573
39574W        W11900  14.328  24.277  13.384
39575W        W11901  41.955  23.259   4.541
39576W        W11902  11.358  40.842  13.900
39577W        W11903   2.940   2.863  12.120
39578W        W11904  21.535  30.874  13.530
39579W        W11905  41.909   7.095   2.286
39580W        W11906   9.767  35.876   4.420
39581W        W11907  27.814  18.789   3.308
39582W        W11908  14.435   7.773   4.898
39583W        W11909  15.139  41.585   1.658
39584W        W11910  22.675  22.586   1.016
39585W        W11911  18.138   6.830   2.842
39586W        W11912  15.689  39.485   0.930
39587W        W11913  30.607  19.675   3.043
39588W        W11914  10.413  11.803  12.674
39589W        W11915  39.498  23.800   2.934
39590W        W11916  37.354   2.954   2.872
39591W        W11917  43.471   1.589   3.698
39592W        W11918  41.550  19.611  10.671
39593W        W11919  36.556  39.479   1.714
39594W        W11920  41.412  21.707   2.932
39595W        W11921   2.359  14.595   0.636
39596W        W11922  12.256  17.826   2.168
39597W        W11923  38.274  27.972  11.961
39598W        W11924   6.877  13.343  11.585
39599W        W11925  21.378  19.364  13.416
39600W        W11926  33.826  33.768  12.080
39601W        W11927  25.059  29.947   4.027
39602W        W11928   9.142  32.001  10.334
39603W        W11929   9.231   4.114   1.910
39604W        W11930  24.042  20.606  11.982
39605W        W11931  29.418  14.516   1.197
39606W        W11932  12.942  37.361  14.327
39607W        W11933   8.805  38.431   3.332
39608W        W11934  43.826  37.161  12.460
39609W        W11935  21.997  28.092   3.233
39610W        W11936   7.332  41.924   0.072
39611W        W11937  26.965   0.032   1.639
39612W        W11938  11.720  27.683  11.570
39613W        W11939  42.117   1.380  13.590
39614W        W11940  10.845  44.077  11.660
39615W        W11941  11.167   1.414  12.071
39616W        W11942  20.015  30.912  13.083
39617W        W11943  41.927  14.593   1.999
39618W        W11944   3.213  21.434   2.244
39619W        W11945   8.048  13.892  14.401
39620W        W11946  41.116  24.901  12.909
39621W        W11947  36.615  20.262  11.246
39622W        W11948  40.758  34.489  10.368
39623W        W11949   2.473  28.032   2.693
39624W        W11950  20.357  13.677   3.448
39625W        W11951   3.808  13.890  11.068
39626W        W11952  12.103  23.096   4.140
39627W        W11953  26.824   0.969   0.730
39628W        W11954  25.464  35.299   4.200
39629W        W11955  28.840  18.190   0.828
39630W        W11956  30.098  12.364  11.922
39631W        W11957  17.190  36.630   3.573
39632W        W11958  18.425  20.511   1.939
39633W        W11959  27.678  11.463  13.008
39634W        W11960   9.897  21.431   2.018
39635W        W11961   6.135  28.538   2.292
39636W        W11962  17.742   6.645  14.222
39637W        W11963  29.902   8.774  13.487
39638W        W11964   3.124  22.758   2.665
39639W        W11965   5.295  16.386   1.384
39640W        W11966   0.853  38.469   0.008
39641W        W11967  30.963  27.229  12.753
39642W        W11968  41.381  15.112  11.176
39643W        W11969  33.162   9.937   2.932
39644W        W11970   1.005   6.301  11.993
39645W        W11971  18.514  31.153   3.795
39646W        W11972  37.805  21.332  12.911
39647W        W11973  13.116  20.015   2.152
39648W        W11974  20.213  35.437  12.536
39649W        W11975  38.287  31.820   1.713
39650W        W11976  11.378  30.104  11.485
39651W        W11977  29.204  43.088   2.403
39652W        W11978   1.997  21.307   0.307
39653W        W11979  44.375  39.939  12.476
39654W        W11980  19.172   6.877  11.633
39655W        W11981  25.193  40.772   3.075
39656W        W11982  38.440  34.970  13.290
39657W        W11983  14.655  43.387  13.112
39658W        W11984  20.568  39.195   3.210
39659W        W11985   7.211  42.520   2.632
39660W        W11986  11.223  25.235   4.779
39661W        W11987  19.513  14.925   3.262
39662W        W11988  33.293  31.379   0.346
39663W        W11989  34.348   6.265   3.857
39664W        W11990  32.879  16.129  13.007
39665W        W11991  38.951  31.130  10.958
39666W        W11992  40.885  23.385   0.397
39667W        W11993  27.715   9.145   1.771
39668W        W11994   9.152  39.618   0.218
39669W        W11995  41.337  13.290  14.878
39670W        W11996  12.354  24.206   2.386
39671W        W11997  15.975   5.416  12.136
39672W        W11998  33.549  23.598  11.679
39673W        W11999   1.193  12.788   3.878
39674W        W12000  30.118  37.853   1.224
39675W        W12001  20.082  23.225  11.563
39676W        W12002  12.374  15.087  11.464
39677W        W12003  34.172  14.292  11.143
39678W        W12004  37.714  18.884   1.905
39679W        W12005  42.547  24.263  12.520
39680W        W12006  24.700  41.098   4.154
39681W        W12007   2.571   5.832   2.912
39682W        W12008  22.215  31.386   3.695
39683W        W12009  40.956  30.971   4.080
39684W        W12010  30.030  14.684  11.577
39685W        W12011  34.062  13.368   3.654
39686W        W12012   1.652  33.357  11.224
39687W        W12013  17.677  43.925   0.287
39688W        W12014  29.458  24.151   2.412
39689W        W12015  18.455  29.180  13.070
39690W        W12016  37.130  17.563  11.105
39691W        W12017  32.548  17.810   3.739
39692W        W12018   3.413  43.687   0.413
39693W        W12019  25.571  24.576  14.523
39694W        W12020  36.555   1.791   4.610
39695W        W12021  39.738   0.702   1.321
39696W        W12022  11.044  32.526  14.438
39697W        W12023  34.793  33.192   4.724
39698W        W12024  21.225  27.508   0.477
39699W        W12025   4.066  29.769  12.015
39700W        W12026   6.774  18.151  14.817
39701W        W12027  35.315  14.898   2.327
39702W        W12028  16.751  19.754  12.082
39703W        W12029  22.032  23.238   1.990
39704W        W12030  27.507  23.562   1.435
39705W        W12031  30.117  15.835  13.151
39706W        W12032  17.312  20.363   3.635
39707W        W12033  31.813  33.594   4.041
39708W        W12034   3.231  40.850  11.183
39709W        W12035   3.715  11.837  10.264
39710W        W12036  38.901  12.020   0.254
39711W        W12037  11.738  39.892  12.655
39712W        W12038  30.036  31.385  14.131
39713W        W12039  26.234  34.543   1.134
39714W        W12040  36.683  12.453  12.742
39715W        W12041  33.692  14.524   4.658
39716W        W12042  42.505  40.970   1.167
39717W        W12043  40.859  37.546   1.926
39718W        W12044  11.909  35.277  14.875
39719W        W12045  31.576  20.588  13.408
39720W        W12046  32.372  12.207   1.916
39721W        W12047   7.668   0.167  14.933
39722W        W12048  35.518  28.663  13.133
39723W        W12049  39.856  13.053  11.489
39724W        W12050   0.751  10.876  13.285
39725W        W12051  14.889  37.339   1.331
39726W        W12052  32.554  10.743  10.559
39727W        W12053  30.028   5.159   1.414
39728W        W12054  35.041  34.325  11.439
39729W        W12055   4.896   8.709  11.084
39730W        W12056  19.012   7.766  11.470
39731W        W12057  40.810  32.936   4.531
39732W        W12058   4.686  43.086  10.641
39733W        W12059  43.086  36.159   1.195
39734W        W12060  12.350  16.124   1.770
39735W        W12061  35.910  30.828   1.711
39736W        W12062   6.927   9.363  13.962
39737W        W12063   1.921   4.708   0.026
39738W        W12064  20.052  42.297   4.251
39739W        W12065  17.617  37.356  12.374
39740W        W12066   3.330  13.688   3.789
39741W        W12067  38.291  11.632   2.861
39742W        W12068  20.579  33.506  14.954
39743W        W12069  36.533  14.021  10.517
39744W        W12070  32.092  21.213  11.971
39745W        W12071   9.884   8.914   3.642
39746W        W12072  20.660   3.208  10.700
39747W        W12073  17.735  18.110   3.846
39748W        W12074  11.468  24.136   2.273
39749W        W12075  27.208  12.235  10.584
39750W        W12076  40.504   9.157  11.662
39751W        W12077  27.469  41.286   3.161
39752W        W12078  10.881  13.680  14.762
39753W        W12079  41.019  16.121   3.197
39754W        W12080  18.035  11.242  10.628
39755W        W12081   2.597  22.953  13.040
39756W        W12082  38.626  25.089  13.500
39757W        W12083   3.216  40.014   4.427
39758W        W12084  37.605   5.548   2.366
39759W        W12085   7.733  18.061  13.549
39760W        W12086  44.238   8.650   2.602
39761W        W12087  39.597  40.965   1.932
39762W        W12088  17.782   6.207   3.600
39763W        W12089  19.140  17.834  13.450
39764W        W12090   9.074  26.709   1.724
39765W        W12091  33.082  16.661   0.651
39766W        W12092  16.955  14.723  11.950
39767W        W12093  28.651  22.697   2.320
39768W        W12094  19.964  21.737   2.884
39769W        W12095  34.374  12.128   4.225
39770W        W12096  40.227   3.432   3.211
39771W        W12097  44.429  13.136   1.429
39772W        W12098   3.969  36.081   0.027
39773W        W12099   5.449  20.489  11.700
39774W        W12100  42.035  35.625  13.106
39775W        W12101  42.847   0.222   1.357
39776W        W12102  26.812  36.009   4.685
39777W        W12103  38.449  36.326  12.954
39778W        W12104  42.928  10.145  12.614
39779W        W12105  36.529  40.604  11.519
39780W        W12106  21.663   0.922   2.404
39781W        W12107  41.432  28.450  14.860
39782W        W12108   4.227  18.145   4.325
39783W        W12109  35.046  43.686  11.475
39784W        W12110  22.755  19.795   3.207
39785W        W12111   5.213  23.448   1.461
39786W        W12112  19.450  20.674   1.912
39787W        W12113  17.153  10.252   3.586
39788W        W12114  40.893  40.854  11.205
39789W        W12115   4.881   1.723   4.803
39790W        W12116   6.761   3.251   0.016
39791W        W12117  10.122  31.399   1.325
39792W        W12118   8.808   4.646   1.276
39793W        W12119  34.429   7.817  13.099
39794W        W12120  22.789  16.200  13.947
39795W        W12121  16.847  33.531   1.312
39796W        W12122  35.486  39.386   3.243
39797W        W12123   6.803   4.411  13.783
39798W        W12124  27.091  18.523   4.695
39799W        W12125  22.464  40.948  14.358
39800W        W12126  21.608   4.700  14.473
39801W        W12127  21.225   4.872  10.687
39802W        W12128  40.482  44.261  11.548
39803W        W12129  11.873   4.793  14.858
39804W        W12130   1.596  11.672   4.958
39805W        W12131  38.051  12.302   4.990
39806W        W12132   4.001   6.763   0.910
39807W        W12133  32.032   1.953  14.271
39808W        W12134   9.382   4.046   3.336
39809W        W12135  14.945  35.557   0.463
39810W        W12136   5.754  29.452  11.651
39811W        W12137  32.029   8.796   0.824
39812W        W12138   1.348  23.987   5.049
39813W        W12139  15.186  31.599   4.051
39814W        W12140   3.280  22.565   3.941
39815W        W12141  15.564   0.839   0.175
39816W        W12142  42.297  14.252   3.811
39817W        W12143  37.979  40.778  14.976
39818W        W12144  38.098  16.505  11.271
39819W        W12145   1.425  17.543  11.947
39820W        W12146  16.612  39.515  14.526
39821W        W12147  26.213  21.513  12.102
39822W        W12148  27.816  26.673  10.689
39823W        W12149  34.044  34.316  11.957
39824W        W12150  44.460  16.525   9.864
39825W        W12151  23.897  35.717   3.202
39826W        W12152  41.806   2.314   1.142
39827W        W12153  26.420  29.992  10.770
39828W        W12154  42.403  16.980   2.097
39829W        W12155  41.448  34.642  14.720
39830W        W12156   2.777  44.449  12.404
39831W        W12157  30.651   0.988  14.094
39832W        W12158  21.636   7.776   4.725
39833W        W12159  31.985   1.001   1.333
39834W        W12160   0.350  17.034  14.463
39835W        W12161  19.785  44.015   0.691
39836W        W12162  28.003   4.747  12.154
39837W        W12163  21.823  27.843  10.049
39838W        W12164   6.053  12.698  11.588
39839W        W12165   1.981  24.723  10.087
39840W        W12166  40.909  39.363   1.793
39841W        W12167  27.666  26.131  12.846
39842W        W12168  22.847  44.001   0.823
39843W        W12169   6.007  18.199   4.152
39844W        W12170  44.856  40.071   1.304
39845W        W12171  41.095  38.411   4.791
39846W        W12172  39.386  19.961  13.537
39847W        W12173   9.412  24.825   4.787
39848W        W12174  38.064  34.591  13.918
39849W        W12175   7.403   8.334  13.286
39850W        W12176  40.114  13.491  10.566
39851W        W12177  43.414  13.727   4.464
39852W        W12178  33.897  31.861  12.485
39853W        W12179  18.517  19.835  13.443
39854W        W12180  31.668  24.990  12.432
39855W        W12181  18.226   9.278   3.854
39856W        W12182  11.727  18.151  10.269
39857W        W12183   4.797  13.307  14.318
39858W        W12184   5.480  12.649  13.437
39859W        W12185   6.869  43.294  10.284
39860W        W12186  43.973  38.745  14.944
39861W        W12187   4.886   5.307  10.534
39862W        W12188  29.872  13.799  14.537
39863W        W12189  34.917  25.816   1.974
39864W        W12190  26.160  36.042  12.836
39865W        W12191  27.573   4.729  13.113
39866W        W12192  37.778  27.887  12.029
39867W        W12193  16.550  39.392   2.323
39868W        W12194   4.371   4.642   0.414
39869W        W12195  27.107  18.839  12.495
39870W        W12196   5.663  37.486   2.767
39871W        W12197  22.003  33.861  14.446
39872W        W12198  18.823  10.340   1.934
39873W        W12199  44.032  10.613  14.015
39874W        W12200  38.291  39.296   2.311
39875W        W12201   1.280  38.771  14.941
39876W        W12202  43.809  22.566   4.279
39877W        W12203  10.704  38.852   2.127
39878W        W12204  14.337  26.510   1.218
39879W        W12205  33.398  22.620  13.580
39880W        W12206  14.834  15.875  11.934
39881W        W12207  16.812  39.323  13.400
39882W        W12208   5.264  42.867  13.301
39883W        W12209  12.667  37.963   0.669
39884W        W12210   4.017  33.728   1.700
39885W        W12211  39.752   8.088  13.703
39886W        W12212  18.077  39.195   1.662
39887W        W12213   8.366  40.342   0.978
39888W        W12214  44.550  20.124   2.425
39889W        W12215   4.015  21.620   3.087
39890W        W12216  32.524   2.856  10.703
39891W        W12217  20.360  23.370   3.758
39892W        W12218  11.439  34.024  11.105
39893W        W12219  44.136  20.301  13.877
39894W        W12220  19.596  33.695  12.064
39895W        W12221   4.922  19.503  14.448
39896W        W12222  24.731  36.032  11.077
39897W        W12223  18.859  41.502  13.350
39898W        W12224  16.572   1.153   3.610
39899W        W12225   3.924   8.755  14.753
39900W        W12226  33.316  21.961   3.148
39901W        W12227  13.331  42.825   3.241
39902W        W12228  16.041  44.287  13.817
39903W        W12229  20.681   5.392  11.135
39904W        W12230  23.490  11.097   4.502
39905W        W12231  12.217  14.018  11.200
39906W        W12232  30.084  32.049  10.387
39907W        W12233  24.073   6.327  12.608
39908W        W12234  33.391  24.915  14.182
39909W        W12235  23.502  37.100   0.264
39910W        W12236  39.761   1.416   0.986
39911W        W12237  20.023   1.962   0.348
39912W        W12238  39.731  25.733  14.728
39913W        W12239  15.654   4.238  10.270
39914W        W12240  16.296  17.613   2.591
39915W        W12241  19.398  27.252   2.347
39916W        W12242  24.126  17.819  13.032
39917W        W12243   0.957  34.056  13.042
39918W        W12244   6.903   7.772  14.993
39919W        W12245  27.568  41.845   0.627
39920W        W12246  41.859  40.251  12.131
39921W        W12247  43.486  39.846  13.222
39922W        W12248   0.331  40.098   3.269
39923W        W12249  35.895  30.956   0.280
39924W        W12250  34.032   6.805   1.806
39925W        W12251   4.678  28.059  14.383
39926W        W12252  35.606  43.535   2.319
39927W        W12253  24.704  11.891   1.815
39928W        W12254  23.034   6.444   2.668
39929W        W12255  19.263  22.944  11.954
39930W        W12256  38.379   1.797   4.085
39931W        W12257  33.560  20.389  10.464
39932W        W12258  37.597  16.590  11.936
39933W        W12259   8.909  18.525  10.816
39934W        W12260   8.305   0.843  11.959
39935W        W12261  15.667  19.843  14.396
39936W        W12262   7.745  38.293   2.329
39937W        W12263  39.050  28.163   4.987
39938W        W12264  29.066  36.476   3.847
39939W        W12265  12.670  41.549  11.123
39940W        W12266  14.277   0.975   2.697
39941W        W12267  15.110  38.532   2.696
39942W        W12268  33.089  11.317   4.257
39943W        W12269  35.323  16.198   1.672
39944W        W12270  33.912  26.085  11.035
39945W        W12271   2.773   1.460   4.980
39946W        W12272  22.633   6.690  10.807
39947W        W12273  42.084  40.507  14.888
39948W        W12274   1.821  33.011  11.553
39949W        W12275  24.270  20.606  14.302
39950W        W12276  23.548  44.163   4.235
39951W        W12277   6.521  30.980   2.721
39952W        W12278   7.510  19.771  12.847
39953W        W12279  28.287  38.582  12.216
39954W        W12280   6.912   6.340   1.822
39955W        W12281   6.434  33.447   1.339
39956W        W12282  27.114   4.115  11.187
39957W        W12283   9.353  43.800   0.777
39958W        W12284  17.104   6.025  13.392
39959W        W12285   7.881  15.074   1.738
39960W        W12286  29.373  36.787   1.746
39961W        W12287   6.999  40.634  10.891
39962W        W12288  16.145  22.143  13.925
39963W        W12289  27.055  19.662   2.767
39964W        W12290  18.845  30.450   0.291
39965W        W12291  25.681  16.143  11.172
39966W        W12292  23.609   1.488  12.884
39967W        W12293  41.895  16.156  11.727
39968W        W12294  30.353  12.377  11.489
39969W        W12295  10.396  36.149  12.074
39970W        W12296  39.814  27.633   1.385
39971W        W12297  16.030  38.240   4.053
39972W        W12298  35.857  26.159  10.713
39973W        W12299  28.414  34.670   0.302
39974W        W12300  21.415  38.523   0.788
39975W        W12301   5.386  21.599   4.110
39976W        W12302  31.892  17.976   1.989
39977W        W12303  27.584  24.129   0.549
39978W        W12304  13.720  26.680  11.086
39979W        W12305  32.070  26.916  14.393
39980W        W12306  28.678  29.217   0.308
39981W        W12307  34.070  36.981   3.911
39982W        W12308   4.002   5.427  11.242
39983W        W12309  12.110   1.150  11.107
39984W        W12310  28.676   6.846  14.971
39985W        W12311  34.478  12.198   0.785
39986W        W12312   1.634   9.110  14.197
39987W        W12313  26.026  43.509  14.412
39988W        W12314  12.362  23.024   0.262
39989W        W12315   2.029  29.260   0.989
39990W        W12316   1.553  24.478   2.789
39991W        W12317  27.004   0.445  12.979
39992W        W12318  44.851   2.703   2.403
39993W        W12319   7.685   5.665  11.599
39994W        W12320  24.587  33.588   4.375
39995W        W12321   8.244  36.345  14.073
39996W        W12322  24.671  24.390  11.526
39997W        W12323  28.287   9.224  12.388
39998W        W12324  40.545  36.961  13.498
39999W        W12325  22.173  11.746   2.728
40000W        W12326  29.079   7.823  11.514
40001W        W12327   5.840   1.822   1.176
40002W        W12328  19.167  30.486   2.576
40003W        W12329  10.774   2.618   3.122
40004W        W12330  31.898  42.004   1.958
40005W        W12331  36.619  29.033  12.837
40006W        W12332  24.256  11.247   2.282
40007W        W12333  18.670  39.060   5.067
40008W        W12334  32.643   7.287  11.618
40009W        W12335  26.117  17.635  12.014
40010W        W12336  19.016  24.235   2.147
40011W        W12337  14.330  15.144   0.810
40012W        W12338  42.373  43.286  13.861
40013W        W12339  43.220  22.894   9.846
40014W        W12340  35.526  25.758  12.091
40015W        W12341   4.622  32.144  11.468
40016W        W12342  13.064  15.251  12.052
40017W        W12343  40.115  41.056  12.041
40018W        W12344  44.867   6.943  10.757
40019W        W12345  29.549  36.723   3.630
40020W        W12346  35.805  31.961   4.113
40021W        W12347  33.911  30.212   1.221
40022W        W12348  27.861  29.274   9.826
40023W        W12349  37.744   9.462   2.857
40024W        W12350   1.736  11.994   0.765
40025W        W12351  16.695   7.898  12.332
40026W        W12352  29.072  31.652  11.050
40027W        W12353  19.994  37.909  10.898
40028W        W12354  34.564  34.512  10.568
40029W        W12355  21.649  35.884  10.689
40030W        W12356  43.471  16.586  11.212
40031W        W12357  32.233  28.333   0.850
40032W        W12358  35.985  33.051  14.991
40033W        W12359  39.977  16.246   2.422
40034W        W12360  16.056  20.281  13.553
40035W        W12361  42.700  22.804  14.293
40036W        W12362  11.177  38.710   3.299
40037W        W12363  28.960  30.179   4.000
40038W        W12364  38.040  40.300   3.208
40039W        W12365  24.955   8.909   2.775
40040W        W12366   9.491  22.820   3.189
40041W        W12367  44.674  34.921  10.798
40042W        W12368  23.756   8.924  12.034
40043W        W12369  41.494  27.576  13.291
40044W        W12370  36.599  17.838   0.969
40045W        W12371  34.627  34.004   1.176
40046W        W12372  28.377  19.667   3.787
40047W        W12373  28.168   0.834   3.644
40048W        W12374  20.419  44.766  14.863
40049W        W12375   2.198  26.452  11.624
40050W        W12376  29.972  15.156  11.362
40051W        W12377  42.103  38.087   1.928
40052W        W12378  44.493   6.358   2.186
40053W        W12379  27.052  16.102   4.636
40054W        W12380  17.380  18.551  10.276
40055W        W12381  14.145   7.386   1.373
40056W        W12382   1.412  17.133   1.252
40057W        W12383  40.927  21.088  13.320
40058W        W12384  21.540  39.835  11.909
40059W        W12385   6.641  37.504   2.733
40060W        W12386   3.327  27.588  11.001
40061W        W12387  24.389  44.278   1.311
40062W        W12388  14.242  43.441   4.605
40063W        W12389  25.902  14.737   0.202
40064W        W12390  32.978  30.520   4.235
40065W        W12391  12.176  25.507   1.353
40066W        W12392   7.806   8.602   3.241
40067W        W12393   9.458  37.986   0.824
40068W        W12394  19.046  25.085   2.973
40069W        W12395  42.971  36.067   0.025
40070W        W12396  10.798   9.865   3.608
40071W        W12397  28.661  32.088  10.583
40072W        W12398  36.546  20.645  14.263
40073W        W12399  20.727  31.672   2.590
40074W        W12400  15.831  29.037  14.290
40075W        W12401  13.285   1.240  12.482
40076W        W12402  40.053  14.246   3.798
40077W        W12403  39.268  10.767   1.245
40078W        W12404  11.351  23.587  13.803
40079W        W12405  19.470  36.531   4.468
40080W        W12406   0.641  28.788   3.647
40081W        W12407  16.368  16.717   3.847
40082W        W12408  32.633   5.684   4.133
40083W        W12409  23.632  38.424  13.082
40084W        W12410   1.039  40.894   0.453
40085W        W12411  20.259  33.383   3.774
40086W        W12412   3.970  31.506  12.663
40087W        W12413  23.863  25.954   0.061
40088W        W12414   0.885  25.712  13.962
40089W        W12415  35.025  19.065  12.934
40090W        W12416  30.980  40.384  13.095
40091W        W12417  37.241  39.087   2.396
40092W        W12418   1.464  15.827   1.545
40093W        W12419  18.466   5.339   4.551
40094W        W12420  11.361  36.084  12.866
40095W        W12421  25.980  40.871   4.092
40096W        W12422  40.898  26.478   2.555
40097W        W12423  13.787  20.503  13.960
40098W        W12424  41.045  19.294  14.862
40099W        W12425   9.296  39.407   4.711
40100W        W12426  33.190  20.663  14.360
40101W        W12427   7.896  30.173  14.574
40102W        W12428  14.337  31.415  13.420
40103W        W12429  17.687  24.969  10.758
40104W        W12430  20.541  28.666  11.044
40105W        W12431  31.669  31.546  13.329
40106W        W12432  28.158   4.765   4.191
40107W        W12433  44.540  34.835  12.036
40108W        W12434  11.296  34.273  10.587
40109W        W12435  41.724   8.739   0.844
40110W        W12436  34.116  29.655   1.882
40111W        W12437  20.106  30.714  14.714
40112W        W12438  21.230  38.878  10.003
40113W        W12439   1.422  41.247   3.860
40114W        W12440   7.448   0.942  13.424
40115W        W12441  29.178  11.681  11.222
40116W        W12442  37.923  40.758  12.452
40117W        W12443   4.997   8.367  13.543
40118W        W12444   9.896   0.777   4.224
40119W        W12445   7.410  44.941   3.713
40120W        W12446  36.689  17.091  14.518
40121W        W12447  22.968   0.330   4.717
40122W        W12448  29.052   7.203  12.012
40123W        W12449  31.931  27.176  12.392
40124W        W12450  17.485  27.560   0.886
40125W        W12451  44.281   1.972  11.904
40126W        W12452  12.658   7.208   3.883
40127W        W12453   7.530  33.660   2.913
40128W        W12454  23.179  25.571  11.680
40129W        W12455  35.144  16.212   2.415
40130W        W12456  29.482  25.399  11.114
40131W        W12457   5.471   3.075  10.703
40132W        W12458   9.780  39.219  14.358
40133W        W12459  26.720  37.805   2.643
40134W        W12460  42.248   1.420  11.143
40135W        W12461  43.297  25.458   1.827
40136W        W12462  31.809  16.959  12.307
40137W        W12463   4.317  25.338   3.620
40138W        W12464  33.495  44.817   0.550
40139W        W12465  32.535   7.251   2.182
40140W        W12466  29.764  24.188   1.514
40141W        W12467  30.324  28.684   3.427
40142W        W12468   3.503  27.653   2.247
40143W        W12469   2.087  21.307  10.529
40144W        W12470  15.307  42.486   0.821
40145W        W12471   9.369  28.201   4.558
40146W        W12472  40.849   5.707   1.189
40147W        W12473   7.369  22.300   4.672
40148W        W12474   3.942  10.908   4.596
40149W        W12475  33.543   3.327   1.743
40150W        W12476  35.030  29.049   1.834
40151W        W12477  19.550  36.481   1.789
40152W        W12478  12.221  34.901  13.599
40153W        W12479   5.148  12.231   2.806
40154W        W12480  26.718   7.711   2.313
40155W        W12481  32.987   9.597  12.387
40156W        W12482  12.299   5.689   2.394
40157W        W12483   0.747  15.241   2.408
40158W        W12484   7.593   8.848  13.384
40159W        W12485  39.397  42.917   0.281
40160W        W12486  39.897  41.838  12.656
40161W        W12487   9.626  30.470   3.660
40162W        W12488   6.151  27.898   4.115
40163W        W12489  33.896   5.881  13.621
40164W        W12490  42.375  36.088  11.875
40165W        W12491   4.313   8.776  13.297
40166W        W12492  42.381   2.378  14.382
40167W        W12493  29.144  10.368   3.261
40168W        W12494  26.855   6.613   4.396
40169W        W12495  17.726  30.680  13.581
40170W        W12496  29.510  44.209  11.660
40171W        W12497  23.575  28.824   0.409
40172W        W12498  15.649  12.996   3.693
40173W        W12499  26.175  16.116   5.638
40174W        W12500  14.088   2.305  14.799
40175W        W12501  43.937   7.356  11.638
40176W        W12502  32.667  14.511  14.383
40177W        W12503  30.508  43.121  12.501
40178W        W12504  32.901  43.976   2.607
40179W        W12505  39.292  29.536  12.906
40180W        W12506  34.134   7.879  13.509
40181W        W12507  36.840   7.299   3.732
40182W        W12508   5.812  30.474  10.337
40183W        W12509  30.601   0.760   0.049
40184W        W12510  22.563  24.556  11.987
40185W        W12511  44.756  34.925   0.675
40186W        W12512   4.556   3.238   3.360
40187W        W12513  12.680   2.974  10.465
40188W        W12514   4.278  18.324   1.796
40189W        W12515   2.431  10.193  11.943
40190W        W12516   5.665  34.736   3.790
40191W        W12517  17.087  37.376  13.624
40192W        W12518  42.202  22.589   3.142
40193W        W12519   4.324   8.767   1.063
40194W        W12520   3.382   5.194  12.060
40195W        W12521   6.873  41.776  13.962
40196W        W12522  14.361  35.319   3.679
40197W        W12523  22.160   3.684   3.197
40198W        W12524   6.159  23.975  14.231
40199W        W12525   2.803  25.546  14.996
40200W        W12526  35.099   0.027   0.816
40201W        W12527  20.022  23.617  11.180
40202W        W12528  41.414  33.720  14.536
40203W        W12529  30.343   3.932  11.628
40204W        W12530   5.837  33.061   4.381
40205W        W12531  24.497  27.944  13.842
40206W        W12532  23.051  22.919   0.816
40207W        W12533  24.195  10.356   2.153
40208W        W12534  43.220  28.468   3.913
40209W        W12535  18.527  20.977   2.159
40210W        W12536   6.600  23.055  13.388
40211W        W12537  33.847  10.324  14.493
40212W        W12538  44.572   6.528  13.974
40213W        W12539   7.738  29.545   2.641
40214W        W12540  26.595  21.284   2.537
40215W        W12541  17.731  22.455  10.746
40216W        W12542  13.874  34.429   4.176
40217W        W12543  30.056  39.546   4.916
40218W        W12544  25.480  33.973   3.666
40219W        W12545   0.063  19.598  14.424
40220W        W12546   3.482  10.128  11.937
40221W        W12547  34.452  41.330   2.716
40222W        W12548  19.088  34.616   4.470
40223W        W12549   6.103  24.959   3.323
40224W        W12550   7.891   7.623   4.204
40225W        W12551   0.758   9.308  11.342
40226W        W12552   6.007  29.187  10.838
40227W        W12553   4.428   1.944   4.103
40228W        W12554   7.443  42.876   0.462
40229W        W12555   0.997   2.800   2.373
40230W        W12556  28.341  24.034   4.956
40231W        W12557   7.121  39.541  13.960
40232W        W12558  42.070  26.796  12.008
40233W        W12559  21.028  15.050   4.149
40234W        W12560  20.103  19.787   1.420
40235W        W12561  20.588  19.869  12.187
40236W        W12562  26.275  35.442  13.547
40237W        W12563  25.945   4.013  11.680
40238W        W12564  29.992  23.980  12.888
40239W        W12565  30.529  30.706   5.132
40240W        W12566  44.011  10.746   4.181
40241W        W12567  14.294   6.930  11.168
40242W        W12568  22.181  17.503   3.190
40243W        W12569  39.137  37.435   0.326
40244W        W12570  41.922  43.321  13.002
40245W        W12571  40.802  13.313   0.375
40246W        W12572  26.249  38.805   3.365
40247W        W12573  14.703  12.839   5.143
40248W        W12574  44.915  31.076   2.572
40249W        W12575   5.909   2.241   3.667
40250W        W12576   6.181   6.021   0.786
40251W        W12577  29.122  15.759   0.459
40252W        W12578  37.117  41.878  14.424
40253W        W12579  16.612  21.008   3.803
40254W        W12580  40.287  38.572  12.979
40255W        W12581  18.177  43.367  10.834
40256W        W12582  10.921  29.935   2.227
40257W        W12583  43.547  18.805  10.647
40258W        W12584  27.185  12.259   1.183
40259W        W12585  42.682  36.356  14.400
40260W        W12586  17.730  32.670  11.197
40261W        W12587  25.189  34.041   4.083
40262W        W12588  19.719  23.024  12.855
40263W        W12589  29.000   1.052   3.131
40264W        W12590  16.228  35.384   3.664
40265W        W12591   8.304  19.527   3.663
40266W        W12592   3.397  36.339  11.865
40267W        W12593  20.810  28.114  12.017
40268W        W12594  21.559   6.489   1.766
40269W        W12595  19.362  10.370  13.516
40270W        W12596  38.544  32.025   5.018
40271W        W12597  19.071  23.747  14.734
40272W        W12598   1.927   6.652  11.189
40273W        W12599  10.654  22.632   0.637
40274W        W12600  25.065  34.721  11.175
40275W        W12601  19.050  23.193  10.601
40276W        W12602  10.323  21.737   4.793
40277W        W12603   5.312  32.474   3.370
40278W        W12604  31.562  38.154   1.126
40279W        W12605  19.619  37.589  14.384
40280W        W12606  23.631  17.537  10.436
40281W        W12607  44.505  26.724  12.663
40282W        W12608  11.794  17.868  11.845
40283W        W12609   2.860   2.762   1.631
40284W        W12610  43.067  13.202   0.068
40285W        W12611   8.619  40.915  12.493
40286W        W12612  39.477   2.877  11.195
40287W        W12613  40.491  29.454   4.632
40288W        W12614  21.688   3.754   0.838
40289W        W12615  24.725   2.718  13.380
40290W        W12616  11.277  38.847  14.515
40291W        W12617  26.691   4.442  14.292
40292W        W12618  37.453  21.205   2.690
40293W        W12619  27.914  10.043   2.779
40294W        W12620  35.004  26.034   3.352
40295W        W12621  28.987  28.478  13.375
40296W        W12622  25.561  14.284  10.404
40297W        W12623  40.840  24.913  14.493
40298W        W12624  35.159  32.062  12.357
40299W        W12625  44.765  12.718  10.699
40300W        W12626  40.312   9.763  12.482
40301W        W12627  41.812   7.792  12.150
40302W        W12628  13.509  23.226   3.876
40303W        W12629  38.494  33.060   4.592
40304W        W12630  16.034  25.501  12.096
40305W        W12631  25.088  28.264  11.132
40306W        W12632   1.833  33.064  13.857
40307W        W12633  21.573  28.047  11.627
40308W        W12634   6.509  27.072   1.241
40309W        W12635  17.296  20.063  12.864
40310W        W12636   0.330  22.705  12.882
40311W        W12637  12.722  32.814   4.154
40312W        W12638  43.961  37.018  14.978
40313W        W12639  25.697  33.538   2.767
40314W        W12640  24.414   8.102   2.259
40315W        W12641  36.584   3.423  11.860
40316W        W12642  16.763  26.252   2.926
40317W        W12643  24.694  22.750   2.646
40318W        W12644  38.973  33.487  10.313
40319W        W12645   5.447  32.935  12.914
40320W        W12646  14.893  23.713   1.429
40321W        W12647   2.487  20.988  11.738
40322W        W12648  22.017  38.428   2.904
40323W        W12649   7.454  24.631  10.734
40324W        W12650  31.388  19.688   1.185
40325W        W12651   3.775   0.477  11.070
40326W        W12652  15.855  29.654   0.336
40327W        W12653  24.541   2.263  12.472
40328W        W12654  39.353  21.818   1.440
40329W        W12655   1.378  23.238   1.704
40330W        W12656  41.947  31.581  14.776
40331W        W12657  17.028   5.996  12.514
40332W        W12658  11.470   7.748   4.309
40333W        W12659  16.206  37.117   3.267
40334W        W12660  22.687  36.542  14.197
40335W        W12661  12.160  32.447   2.146
40336W        W12662  32.183  20.909  12.408
40337W        W12663  13.099  15.919   3.690
40338W        W12664  18.186   3.893   3.843
40339W        W12665  39.571  16.814  14.003
40340W        W12666  38.273   3.083  10.075
40341W        W12667  40.934   8.889   2.224
40342W        W12668   2.017  22.994  14.006
40343W        W12669  10.629  42.018   2.383
40344W        W12670   2.394   2.676   1.835
40345W        W12671  19.537  41.221   3.037
40346W        W12672  12.099  32.529   4.817
40347W        W12673  44.798  16.486  11.817
40348W        W12674   7.799  10.197  14.904
40349W        W12675  17.274   9.809  13.152
40350W        W12676  23.170  19.146   2.211
40351W        W12677  16.332  31.526  14.815
40352W        W12678   7.755  29.564  10.974
40353W        W12679  34.019  27.907  14.810
40354W        W12680   1.160  32.402   4.789
40355W        W12681  30.106  37.340   1.472
40356W        W12682  31.090   0.472   0.329
40357W        W12683  18.796  37.977  14.776
40358W        W12684   1.940   1.732   2.777
40359W        W12685  16.746  13.597   0.366
40360W        W12686  13.169  38.443  12.760
40361W        W12687   5.799  28.685   4.471
40362W        W12688  13.081  34.986  11.127
40363W        W12689  38.827  18.022   0.190
40364W        W12690   7.212   1.142  13.841
40365W        W12691  10.392  27.712   3.705
40366W        W12692  32.878  29.070   2.601
40367W        W12693  31.297  40.228   0.625
40368W        W12694  24.128  32.606  10.690
40369W        W12695   5.962   9.391  11.363
40370W        W12696  44.748  28.723   0.155
40371W        W12697  39.657  32.587  14.946
40372W        W12698   7.587  19.009  12.051
40373W        W12699  11.659  18.134   0.147
40374W        W12700  38.881   9.895  12.105
40375W        W12701  35.200  40.054  13.390
40376W        W12702  40.418  10.578  14.671
40377W        W12703  34.935  33.040   4.257
40378W        W12704  40.735   5.753  13.171
40379W        W12705  29.191  17.079   0.866
40380W        W12706   5.897  15.091  11.071
40381W        W12707  26.551  23.447  14.934
40382W        W12708  37.434  11.882   1.793
40383W        W12709  24.664   5.866  11.161
40384W        W12710  34.891  23.683  10.680
40385W        W12711  40.296  22.050  11.160
40386W        W12712  40.302   4.595  13.298
40387W        W12713  10.543  17.686   1.723
40388W        W12714  40.301   5.996  13.315
40389W        W12715  28.679  21.909  14.928
40390W        W12716  20.220  10.135  10.191
40391W        W12717  38.388  13.701   4.911
40392W        W12718  42.328  38.605  11.535
40393W        W12719  21.739  44.051   0.749
40394W        W12720  16.523  43.845  13.306
40395W        W12721   0.891  26.721   2.319
40396W        W12722  15.755  19.006  10.682
40397W        W12723  38.011  13.600  14.396
40398W        W12724  28.496  16.709   0.010
40399W        W12725  10.192   6.976   4.853
40400W        W12726  39.867  42.776  12.093
40401W        W12727  22.645  21.208   5.084
40402W        W12728  18.122  32.828  14.806
40403W        W12729  33.870   9.749  14.672
40404W        W12730  18.304  27.666   2.711
40405W        W12731  34.171  26.613   3.698
40406W        W12732  24.431  30.060   3.183
40407W        W12733  42.064  20.406   4.086
40408W        W12734   1.710  37.610  14.660
40409W        W12735   2.228  37.568   0.410
40410W        W12736  40.263  43.972  13.418
40411W        W12737  23.664  25.798   4.620
40412W        W12738  28.646  15.562  12.003
40413W        W12739  19.818  44.825  13.954
40414W        W12740  37.783  38.516  12.679
40415W        W12741   4.071  44.420  14.419
40416W        W12742  33.423  11.233   4.769
40417W        W12743  13.424  24.738  14.902
40418W        W12744   8.611  38.729  12.547
40419W        W12745  32.554  44.914   4.401
40420W        W12746  15.726  10.911  11.343
40421W        W12747  12.630  24.727   2.351
40422W        W12748  30.503  32.860  10.596
40423W        W12749  10.641  27.989   1.630
40424W        W12750  27.650  24.581  11.936
40425W        W12751  35.815  10.605  11.589
40426W        W12752  17.726  13.300  10.424
40427W        W12753  12.696  22.083   1.868
40428W        W12754   3.010  23.563   4.137
40429W        W12755  41.311  20.937   4.019
40430W        W12756  37.389  27.679   4.456
40431W        W12757  34.751  28.288  12.432
40432W        W12758  38.198  11.390   4.875
40433W        W12759  34.543  15.228   4.568
40434W        W12760  13.005  11.172  13.390
40435W        W12761  33.682  38.810  14.776
40436W        W12762  42.263  26.987  10.692
40437W        W12763   7.280  27.926  11.457
40438W        W12764  24.039  40.016  10.970
40439W        W12765  23.133  11.678  13.377
40440W        W12766  18.512  38.959  13.005
40441W        W12767  19.752  19.173   2.860
40442W        W12768  14.814  11.869   3.172
40443W        W12769  32.728  41.028   3.474
40444W        W12770  30.067   3.301   2.163
40445W        W12771  22.656   1.692  13.257
40446W        W12772  10.883  14.901   2.129
40447W        W12773  33.557   3.346  10.709
40448W        W12774  42.500  37.895  12.042
40449W        W12775  35.613   1.714   2.760
40450W        W12776  16.211  43.462  11.090
40451W        W12777  24.582  28.203  12.518
40452W        W12778  22.911  24.590   0.242
40453W        W12779  13.340  23.977   0.444
40454W        W12780  27.545  43.033   1.800
40455W        W12781   4.097   1.436   2.356
40456W        W12782  12.162  36.076  12.364
40457W        W12783  44.487  11.254   4.143
40458W        W12784  12.353  26.906   2.863
40459W        W12785  42.444  39.702  13.351
40460W        W12786  35.578  44.349   0.692
40461W        W12787  34.497  11.060   4.824
40462W        W12788   8.670  18.303  11.194
40463W        W12789  22.443   2.156  10.647
40464W        W12790  22.537  40.167  10.711
40465W        W12791   1.303   6.247   3.806
40466W        W12792  33.591   1.422   1.438
40467W        W12793   8.349  10.780   0.039
40468W        W12794  23.666  18.560   1.234
40469W        W12795  28.506  13.867   2.407
40470W        W12796  15.634  20.586   2.777
40471W        W12797  35.970   4.572  10.665
40472W        W12798  20.584  44.532  10.690
40473W        W12799  11.886  30.574  13.032
40474W        W12800  14.563  25.856  13.970
40475W        W12801  24.987  28.869  13.623
40476W        W12802  43.986   1.597  12.143
40477W        W12803  35.493   5.204  11.430
40478W        W12804  33.824  34.667   2.368
40479W        W12805   4.520  11.355   1.884
40480W        W12806  40.212   8.413  12.344
40481W        W12807  36.856  16.725   1.931
40482W        W12808  10.726  36.458   2.869
40483W        W12809   5.912  35.535  14.249
40484W        W12810  39.028  26.606  11.027
40485W        W12811  34.770  41.411   4.077
40486W        W12812   7.121  16.629   4.405
40487W        W12813  34.254  41.550   3.194
40488W        W12814  23.944   5.354  13.103
40489W        W12815  30.111  31.529  11.598
40490W        W12816  25.467  42.433   1.359
40491W        W12817  37.856  35.019  12.507
40492W        W12818  22.888   8.238  14.489
40493W        W12819  28.534   3.940  11.505
40494W        W12820  27.518   3.275  12.832
40495W        W12821  21.720  30.008   2.840
40496W        W12822  18.954  13.109   4.779
40497W        W12823   6.159  23.482  11.022
40498W        W12824  14.019  27.035   1.879
40499W        W12825  19.364   8.615  11.986
40500W        W12826  10.818   2.858   0.308
40501W        W12827  10.561  23.536   0.325
40502W        W12828  10.308  32.074  12.035
40503W        W12829   7.403  31.539  14.019
40504W        W12830  18.630  16.780   1.293
40505W        W12831  13.206  35.202   3.262
40506W        W12832  31.457  16.235   3.794
40507W        W12833   4.750  40.905   2.700
40508W        W12834  31.454  23.251  11.068
40509W        W12835  29.014  14.682   0.372
40510W        W12836  44.800  16.649   1.938
40511W        W12837   5.915  34.487   4.224
40512W        W12838   7.065  26.413   1.891
40513W        W12839  17.041  34.874  14.473
40514W        W12840  18.849   5.061  12.859
40515W        W12841   9.223  24.771   2.876
40516W        W12842  20.714  31.927  13.355
40517W        W12843  21.590  43.801  10.718
40518W        W12844  20.819  12.791  13.777
40519W        W12845   3.857   2.395   4.987
40520W        W12846  20.109  25.592  11.803
40521W        W12847  34.140   4.195   1.780
40522W        W12848  30.417   8.245   4.650
40523W        W12849  11.774  20.311   4.895
40524W        W12850   9.215  25.126  13.273
40525W        W12851  23.430  24.641   0.358
40526W        W12852  43.445  42.107  12.674
40527W        W12853  17.189  40.574   0.893
40528W        W12854  16.356  43.804   0.935
40529W        W12855  33.908  36.304  13.939
40530W        W12856  30.179  41.383  12.451
40531W        W12857  40.172  18.035   1.633
40532W        W12858  13.764   0.863  10.923
40533W        W12859  28.565  27.263   0.863
40534W        W12860  25.522  26.590  13.834
40535W        W12861   3.307  30.277  11.666
40536W        W12862  27.362  15.527  11.167
40537W        W12863  31.006  20.778  13.401
40538W        W12864  11.300  27.287  13.410
40539W        W12865  31.068  11.829   4.183
40540W        W12866  29.882   7.478   1.309
40541W        W12867  42.972  21.485   4.136
40542W        W12868   2.199  28.880   2.863
40543W        W12869  32.545  12.107   3.391
40544W        W12870  30.901  11.194   2.250
40545W        W12871  10.143  25.013   2.758
40546W        W12872   7.796  23.652  14.973
40547W        W12873  39.064  27.577  14.467
40548W        W12874   5.892  15.425   2.191
40549W        W12875   9.304  41.815  11.138
40550W        W12876  38.970   4.413  12.555
40551W        W12877  13.981   3.108   5.142
40552W        W12878  11.109  38.042  11.272
40553W        W12879  15.774  21.244  11.233
40554W        W12880  40.671  36.964   2.644
40555W        W12881  24.053  12.642   5.385
40556W        W12882  16.749  18.266   3.216
40557W        W12883  43.542  30.417   2.634
40558W        W12884   7.868   2.789   3.220
40559W        W12885   3.682  44.781  14.339
40560W        W12886   6.339  41.030  13.821
40561W        W12887  42.723  39.608   4.550
40562W        W12888  30.965  27.944   3.900
40563W        W12889  38.084   6.643   4.397
40564W        W12890  38.907  20.239  14.812
40565W        W12891  33.241  22.695  10.737
40566W        W12892   4.984   3.504  14.843
40567W        W12893  19.974   3.757  14.325
40568W        W12894  12.654  13.106   0.109
40569W        W12895  31.432   0.521  14.896
40570W        W12896  12.592  44.193  13.755
40571W        W12897  44.303   4.662  10.568
40572W        W12898  44.022  37.856  13.804
40573W        W12899  19.476  20.164  14.248
40574W        W12900  18.276   4.466  10.706
40575W        W12901   8.427   9.385  13.330
40576W        W12902   0.607   1.916  12.847
40577W        W12903  32.553  31.723   1.798
40578W        W12904  29.584  20.539  12.708
40579W        W12905   6.219  38.575   3.334
40580W        W12906  23.237  31.077   4.590
40581W        W12907  17.605  14.140   4.101
40582W        W12908   8.585  11.203   0.281
40583W        W12909  28.150  32.561   3.133
40584W        W12910  29.410   5.158  11.550
40585W        W12911  30.918   8.870   4.248
40586W        W12912  33.685  41.587   2.279
40587W        W12913  34.355  14.532   4.090
40588W        W12914  36.289  13.205  13.098
40589W        W12915  12.114  33.434  11.037
40590W        W12916  28.970  14.077  12.472
40591W        W12917  20.840  40.783   3.248
40592W        W12918  37.035   8.100   2.257
40593W        W12919  35.291  37.902  10.354
40594W        W12920  43.883   5.603   4.170
40595W        W12921  31.121  13.870  13.967
40596W        W12922  29.533   7.149   1.140
40597W        W12923  15.015   6.529   1.009
40598W        W12924  33.884  40.209   3.337
40599W        W12925   6.184  11.744  14.292
40600W        W12926  24.867  23.047   4.152
40601W        W12927   2.392   8.186   2.264
40602W        W12928  14.264   0.763  11.239
40603W        W12929  40.235  29.746  14.939
40604W        W12930  23.085  13.764   1.299
40605W        W12931  19.386  30.090  14.784
40606W        W12932  24.585   7.276   2.455
40607W        W12933   3.033  15.860  13.464
40608W        W12934  15.177  44.755  10.340
40609W        W12935   3.697  36.914   0.104
40610W        W12936  21.136  19.281   1.521
40611W        W12937  23.444  14.018   3.235
40612W        W12938   6.683  35.001   3.422
40613W        W12939  10.336  11.791  13.188
40614W        W12940  27.721  41.544   2.798
40615W        W12941  10.429   2.450   1.709
40616W        W12942  21.036  36.857   1.360
40617W        W12943  40.528   0.473  10.717
40618W        W12944  20.032   0.319   3.776
40619W        W12945  27.008  39.411   0.293
40620W        W12946   5.809  24.919   1.438
40621W        W12947  13.742  21.658   0.467
40622W        W12948   6.471  41.934  11.516
40623W        W12949  19.693  41.347   4.134
40624W        W12950  44.006  29.193   1.901
40625W        W12951  17.059  15.205  14.083
40626W        W12952  42.298   9.606   3.705
40627W        W12953   9.244  20.744   3.300
40628W        W12954  34.910  18.240  11.653
40629W        W12955  12.381  17.581   2.603
40630W        W12956   3.176   1.775  13.978
40631W        W12957  14.780  21.048  12.164
40632W        W12958  40.533   8.713  10.466
40633W        W12959   2.925  35.655   3.202
40634W        W12960  11.615   1.760   2.429
40635W        W12961  16.497  13.088   4.827
40636W        W12962  38.920   8.404   2.635
40637W        W12963  28.074  24.683  10.838
40638W        W12964  37.444  14.033  12.831
40639W        W12965   0.006  31.836   4.215
40640W        W12966  10.211   3.784  11.215
40641W        W12967  40.005  18.318  10.628
40642W        W12968  34.908  38.377   0.535
40643W        W12969  20.698   7.312   0.263
40644W        W12970  14.716  27.608   1.945
40645W        W12971  27.712  24.839   3.210
40646W        W12972  26.068   1.820   4.782
40647W        W12973  30.892  42.782   3.583
40648W        W12974  16.715   2.897   2.846
40649W        W12975   0.567   0.990  14.830
40650W        W12976   5.146  25.664  13.404
40651W        W12977  32.093  41.807   3.829
40652W        W12978  28.211  17.997  11.994
40653W        W12979   7.356  12.672  14.540
40654W        W12980  31.117  29.399   3.692
40655W        W12981  41.363  11.646   2.221
40656W        W12982  36.446  41.055   3.771
40657W        W12983   3.145  13.666  12.171
40658W        W12984  40.850  25.439   4.325
40659W        W12985   1.954  15.694   1.380
40660W        W12986   3.884  18.096  14.090
40661W        W12987  25.252  11.095   2.384
40662W        W12988  24.393  16.512  11.833
40663W        W12989  17.210  15.622  14.908
40664W        W12990  28.490  18.202  13.816
40665W        W12991   5.700   2.217  10.606
40666W        W12992   0.454  25.072  10.760
40667W        W12993  29.662  17.194   2.423
40668W        W12994  41.219  42.338  11.117
40669W        W12995   9.574  17.369   2.402
40670W        W12996  11.806  23.437   2.348
40671W        W12997   7.749   6.817   0.302
40672W        W12998  36.941  36.843  12.199
40673W        W12999  21.955  43.562  12.944
40674W        W13000  33.957  39.896   0.716
40675W        W13001   7.395  11.329  12.958
40676W        W13002  33.507  31.463  12.707
40677W        W13003  36.220  39.555   1.308
40678W        W13004   4.904  41.031  11.701
40679W        W13005  19.216  10.924   2.422
40680W        W13006  43.276  31.345  11.071
40681W        W13007  25.498   0.295   4.104
40682W        W13008  39.026  40.093  11.231
40683W        W13009  43.818  36.538   2.814
40684W        W13010   5.726  15.250   3.987
40685W        W13011  44.490  17.750  11.623
40686W        W13012  41.516   4.381  10.670
40687W        W13013  29.634  25.096   1.266
40688W        W13014  31.764  14.405   2.362
40689W        W13015   1.058  16.613  10.216
40690W        W13016  15.324  32.122  12.980
40691W        W13017  42.524  18.090  14.036
40692W        W13018   6.822  31.975  11.520
40693W        W13019  10.800  37.073   3.559
40694W        W13020   2.283  33.381  14.839
40695W        W13021  20.766   4.779  14.751
40696W        W13022  17.108  38.283   4.356
40697W        W13023  12.572  23.543   1.766
40698W        W13024  11.004  43.905   2.608
40699W        W13025  33.024   9.187   0.329
40700W        W13026  43.254  33.431   1.476
40701W        W13027  15.645  27.960   3.289
40702W        W13028  28.326  32.388  13.900
40703W        W13029  21.138  34.234  10.292
40704W        W13030  28.329  42.384  11.529
40705W        W13031  30.602  31.414  12.498
40706W        W13032  18.686  10.882  13.023
40707W        W13033  29.256  34.036   2.396
40708W        W13034  20.623   2.656   4.416
40709W        W13035  36.759  23.991  13.716
40710W        W13036  33.516  34.286   2.164
40711W        W13037   9.258   3.570   0.456
40712W        W13038  40.133  26.680  13.850
40713W        W13039  27.133  37.065   3.727
40714W        W13040  13.737  33.506   0.969
40715W        W13041  33.131  41.811   1.030
40716W        W13042  39.258  26.564  11.598
40717W        W13043  22.049  39.666   3.394
40718W        W13044  28.524  24.374  10.676
40719W        W13045   0.396  25.201   2.234
40720W        W13046   1.775  13.072  10.663
40721W        W13047  25.660   3.213   0.663
40722W        W13048  22.595  44.201  13.599
40723W        W13049   5.393  15.842  13.847
40724W        W13050  11.175  26.510  11.444
40725W        W13051  23.701  44.321  14.384
40726W        W13052  12.630  36.372  11.543
40727W        W13053  43.983  41.368   2.786
40728W        W13054  34.816  10.318   0.471
40729W        W13055  43.478  11.713  12.916
40730W        W13056  23.582  28.287  13.355
40731W        W13057  13.619  17.229   0.192
40732W        W13058   1.337  19.517  13.907
40733W        W13059   6.371   3.210   4.520
40734W        W13060  14.158  33.999   4.207
40735W        W13061  23.687  36.801  11.006
40736W        W13062   8.945   0.967   2.239
40737W        W13063  22.173  16.700   1.286
40738W        W13064   1.019  23.410  10.685
40739W        W13065  12.337  34.731   3.162
40740W        W13066   6.940   1.417  12.997
40741W        W13067  11.596  22.234   3.940
40742W        W13068  27.881  29.749  10.043
40743W        W13069  13.861   8.705  13.934
40744W        W13070  16.068  23.000   3.513
40745W        W13071  24.033  26.232  14.610
40746W        W13072  26.470  13.369  11.676
40747W        W13073  39.028  13.261  10.357
40748W        W13074   4.961  17.581  12.885
40749W        W13075   8.663   7.123  11.506
40750W        W13076  27.932  39.790  10.145
40751W        W13077   5.012   5.357  13.203
40752W        W13078  42.872  35.545   0.014
40753W        W13079  26.054  18.334   0.419
40754W        W13080  15.694  20.411   3.281
40755W        W13081  39.288  25.777   3.861
40756W        W13082  10.305  29.615   0.697
40757W        W13083  44.974  30.582   4.332
40758W        W13084  19.739  12.655   3.029
40759W        W13085  25.486   6.265   1.216
40760W        W13086  22.712  31.112   4.666
40761W        W13087  14.613  29.893   4.136
40762W        W13088   6.622   2.746  14.482
40763W        W13089  44.771  21.049   0.701
40764W        W13090  44.768  37.919  11.115
40765W        W13091  11.772  23.268  12.042
40766W        W13092  10.165  17.272  14.242
40767W        W13093  14.771  34.127   4.686
40768W        W13094   9.428  19.251   0.259
40769W        W13095  44.987  13.614  12.057
40770W        W13096  12.125  33.829   1.257
40771W        W13097  16.676  13.017  14.271
40772W        W13098  12.875  39.133   4.156
40773W        W13099   8.936  33.680  14.433
40774W        W13100  10.388  31.506  12.563
40775W        W13101  13.750   0.365   0.434
40776W        W13102  11.114  34.631   4.197
40777W        W13103  20.220  21.351  14.105
40778W        W13104  42.018  38.473  12.847
40779W        W13105  10.886  36.371  12.014
40780W        W13106  41.124  19.852   2.765
40781W        W13107  11.318  41.987  11.160
40782W        W13108  22.063  10.357  14.283
40783W        W13109  20.202  23.743   0.669
40784W        W13110  16.806  43.822   4.918
40785W        W13111  20.790   2.026   3.630
40786W        W13112  28.381  25.438   1.339
40787W        W13113   9.204   0.066  14.070
40788W        W13114  14.769  31.064   3.620
40789W        W13115  24.951  39.999  14.442
40790W        W13116   6.422   1.370  14.393
40791W        W13117   8.646  24.543  13.266
40792W        W13118   2.170  14.118  13.807
40793W        W13119   1.012  13.949  10.128
40794W        W13120  10.115  40.024  10.173
40795W        W13121   4.368  28.802   3.222
40796W        W13122   2.326  43.212   3.545
40797W        W13123  21.773  21.574  12.989
40798W        W13124  15.283  26.434  12.044
40799W        W13125   3.396  41.127   4.059
40800W        W13126  20.139  29.720   0.714
40801W        W13127  13.670  15.780  10.111
40802W        W13128   7.345   6.653  11.695
40803W        W13129  41.084   2.023   2.681
40804W        W13130  10.649  44.827  11.066
40805W        W13131  28.119  28.729  10.682
40806W        W13132  29.907  36.978  14.586
40807W        W13133  28.502   4.447   1.707
40808W        W13134   2.431   9.800   5.396
40809W        W13135  24.215   7.288  11.254
40810W        W13136  10.167   0.912  14.061
40811W        W13137   0.415  11.335   2.309
40812W        W13138  16.524  30.865  13.495
40813W        W13139   8.324  19.427   3.016
40814W        W13140  21.644  42.503   3.259
40815W        W13141  40.511  20.148   3.259
40816W        W13142  36.812   1.251  11.145
40817W        W13143   9.616  14.376  10.934
40818W        W13144   1.490   1.237   1.766
40819W        W13145  14.518   4.544  13.994
40820W        W13146   1.360   5.381   2.563
40821W        W13147  30.360  39.535  14.948
40822W        W13148  35.400  33.558   3.619
40823W        W13149  22.532   2.663   1.271
40824W        W13150  14.413   0.387  14.833
40825W        W13151  22.111   5.674   0.792
40826W        W13152   3.025  23.615   3.213
40827W        W13153   6.325  31.199  10.629
40828W        W13154  12.601  40.021  11.491
40829W        W13155  43.427  38.170  14.328
40830W        W13156  35.335  25.053   0.519
40831W        W13157  30.604  41.732   3.654
40832W        W13158  13.726   4.615   4.600
40833W        W13159   9.727  27.449  13.009
40834W        W13160  34.189  40.710  12.061
40835W        W13161  36.983  29.984  13.824
40836W        W13162  43.940   0.390  10.527
40837W        W13163  23.682  34.246   1.433
40838W        W13164  38.818  24.481  10.660
40839W        W13165   6.912  20.627   0.385
40840W        W13166  17.146  13.277   2.692
40841W        W13167  18.321  41.238   4.169
40842W        W13168  26.667  30.769   0.110
40843W        W13169  39.639  32.077  12.175
40844W        W13170  40.234  41.024  12.860
40845W        W13171  35.248  42.467   3.004
40846W        W13172  12.228  17.562  14.899
40847W        W13173  27.164   7.362  12.986
40848W        W13174  14.129  32.515   4.146
40849W        W13175  28.568  32.417  11.861
40850W        W13176  10.265  18.509   1.326
40851W        W13177  32.039  38.230  12.997
40852W        W13178  11.647  14.829   4.899
40853W        W13179  11.374  22.300  10.577
40854W        W13180  33.665  13.909   2.403
40855W        W13181  17.337  31.462   3.787
40856W        W13182  10.161  15.245  14.353
40857W        W13183  15.191   0.951   3.685
40858W        W13184  33.546  16.798   1.437
40859W        W13185  36.382  36.422   2.220
40860W        W13186  22.677  23.435   4.177
40861W        W13187  33.839  41.275  14.603
40862W        W13188  37.063  15.352   4.130
40863W        W13189  40.234   0.090   3.352
40864W        W13190  19.620  16.621  11.013
40865W        W13191  44.385  20.410  12.396
40866W        W13192   9.763  38.976  12.986
40867W        W13193  10.736  33.978   4.707
40868W        W13194  40.620  21.120  14.721
40869W        W13195  11.316  36.148  13.905
40870W        W13196  34.353   8.169   1.900
40871W        W13197  17.198   5.153  10.732
40872W        W13198  14.057  20.672   3.599
40873W        W13199  11.798  26.582  13.448
40874W        W13200  34.199   9.526  12.733
40875W        W13201  16.224  26.638  10.637
40876W        W13202   7.709  29.513  14.801
40877W        W13203   0.491  19.249   4.122
40878W        W13204   7.399  39.469   3.988
40879W        W13205   8.354  20.489   3.681
40880W        W13206  13.670  12.350  11.101
40881W        W13207  43.847   3.769  10.865
40882W        W13208  33.846   0.548  13.320
40883W        W13209  20.708   2.219  13.087
40884W        W13210  31.084  43.224  11.259
40885W        W13211  15.290  26.907  10.801
40886W        W13212  39.898  27.599   2.809
40887W        W13213  43.065  14.336  12.575
40888W        W13214  31.729   6.893   0.176
40889W        W13215  28.130  23.697   0.996
40890W        W13216  12.594  23.155   3.820
40891W        W13217  20.061  22.781  10.853
40892W        W13218   9.693  17.840  10.578
40893W        W13219  36.890  44.908   2.705
40894W        W13220  14.066   3.288   3.244
40895W        W13221  27.393  40.919   1.743
40896W        W13222  27.193  42.849   2.773
40897W        W13223  34.395  12.301  11.973
40898W        W13224  39.323  24.891   0.676
40899W        W13225  36.914  29.495   3.660
40900W        W13226  43.979  11.762   1.400
40901W        W13227  33.014  43.049  13.529
40902W        W13228  15.880  36.289  13.480
40903W        W13229  31.208  43.888  14.468
40904W        W13230  32.335  11.122   1.785
40905W        W13231  37.023  18.963   3.590
40906W        W13232   6.285   2.782   3.141
40907W        W13233  36.337   8.233   1.792
40908W        W13234  19.757  26.766  14.751
40909W        W13235  35.453  22.976   4.298
40910W        W13236  36.096  41.300  11.052
40911W        W13237  31.091  39.363   4.434
40912W        W13238   1.051   0.571  12.894
40913W        W13239  35.959   4.281   3.960
40914W        W13240  12.765   5.264   1.136
40915W        W13241   8.807  13.680  11.474
40916W        W13242   9.294   0.514   0.458
40917W        W13243  34.845  13.972  14.930
40918W        W13244  14.241   3.164  11.994
40919W        W13245   1.501  39.362  14.320
40920W        W13246   1.940  14.812  11.222
40921W        W13247   0.482  32.987   3.607
40922W        W13248  22.053  27.040   2.930
40923W        W13249   3.245  14.250   2.250
40924W        W13250  30.010  32.682   4.096
40925W        W13251  37.820   0.719  14.393
40926W        W13252   9.381   9.627  13.883
40927W        W13253  40.327   6.071   3.112
40928W        W13254  10.205  35.040  14.805
40929W        W13255   7.256  34.853  12.668
40930W        W13256  44.932   3.662   4.934
40931W        W13257  18.689  27.893   4.637
40932W        W13258  33.619  34.145   3.198
40933W        W13259  41.620  42.464  13.344
40934W        W13260  10.974   7.614   2.358
40935W        W13261   6.887  11.934  14.849
40936W        W13262  32.602  26.185  10.708
40937W        W13263   7.409   8.789   2.128
40938W        W13264  16.209   7.644  12.515
40939W        W13265  38.930  15.307   2.380
40940W        W13266  30.144   8.209   2.705
40941W        W13267  42.485  10.789   0.858
40942W        W13268  20.328  38.999  10.271
40943W        W13269  35.622  44.997  13.913
40944W        W13270   0.491  36.859   3.646
40945W        W13271   5.374  35.753   1.377
40946W        W13272  26.432  20.269   0.419
40947W        W13273  31.597  16.496   3.059
40948W        W13274  42.608  18.520   0.929
40949W        W13275  19.385   6.315  14.948
40950W        W13276   0.893  12.226   2.421
40951W        W13277   0.210   4.772   1.748
40952W        W13278  25.476  43.575   4.431
40953W        W13279  16.493  10.379  13.471
40954W        W13280  19.329  29.072  14.408
40955W        W13281   4.397   9.515  14.451
40956W        W13282   6.337  16.805  12.612
40957W        W13283  10.390  24.960  14.614
40958W        W13284   8.696  21.023  14.786
40959W        W13285   5.873  24.562   3.593
40960W        W13286   4.826  37.372  13.968
40961W        W13287  40.771   5.352  14.426
40962W        W13288  25.179  25.463   3.578
40963W        W13289  22.537  23.435   3.282
40964W        W13290  21.490  33.975  12.487
40965W        W13291  21.988   9.153   3.026
40966W        W13292  21.216  44.367   1.459
40967W        W13293   2.669   8.455  10.579
40968W        W13294  29.707  17.411   1.966
40969W        W13295   5.154   8.029  12.203
40970W        W13296  34.023  42.585  12.143
40971W        W13297  16.486   0.511  12.001
40972W        W13298  19.242  32.067   1.962
40973W        W13299  18.076  44.341   3.653
40974W        W13300   2.736   9.544   9.734
40975W        W13301   9.173  12.388  12.655
40976W        W13302  21.145  29.470   4.769
40977W        W13303  22.610  20.198   4.565
40978W        W13304   9.804   5.209  11.607
40979W        W13305  43.118  28.727  12.165
40980W        W13306  28.179  24.212   1.831
40981W        W13307  30.606  27.090   3.651
40982W        W13308  13.921  32.663  13.868
40983W        W13309   0.804   6.878   1.811
40984W        W13310  18.313   2.686  13.869
40985W        W13311  26.313   3.948   4.738
40986W        W13312  24.134  20.110  13.975
40987W        W13313   0.091  21.053   4.127
40988W        W13314   6.723  31.821  13.549
40989W        W13315   2.251  37.519  11.573
40990W        W13316  34.046  23.106   4.590
40991W        W13317   0.383  11.651  13.957
40992W        W13318  36.004  26.506   3.194
40993W        W13319  18.740   4.749   3.800
40994W        W13320   0.293  31.335  11.184
40995W        W13321  42.979  42.864  10.398
40996W        W13322  26.697  19.150  13.195
40997W        W13323  22.797  41.760   4.251
40998W        W13324  39.534  23.203   1.343
40999W        W13325  43.451  31.137  13.813
41000W        W13326  12.847  37.035   4.761
41001W        W13327  43.450   6.162   1.338
41002W        W13328  27.706  36.917   2.439
41003W        W13329  38.645  23.135   0.254
41004W        W13330  29.382  29.715  14.398
41005W        W13331  29.854  18.050   3.680
41006W        W13332  44.159  42.019   5.025
41007W        W13333  41.957  23.577   3.379
41008W        W13334  41.536  32.085  12.376
41009W        W13335   6.508  17.998   0.266
41010W        W13336  24.537   7.096  12.486
41011W        W13337   1.044   0.889  12.491
41012W        W13338  35.933  36.400  11.691
41013W        W13339   5.444   5.839   3.868
41014W        W13340  31.673   2.804  12.200
41015W        W13341  14.370  14.218   5.222
41016W        W13342  36.389  24.964  13.786
41017W        W13343  40.758   9.267  13.865
41018W        W13344  31.522  12.145  12.849
41019W        W13345  27.152  16.768  11.564
41020W        W13346  15.169  38.381  10.758
41021W        W13347  42.405   9.830  11.226
41022W        W13348  10.168  11.244   3.259
41023W        W13349  37.329  34.344  13.904
41024W        W13350  18.065  11.201   3.394
41025W        W13351  29.950   4.936   0.051
41026W        W13352  18.526  42.863   2.086
41027W        W13353   5.316   5.836  12.460
41028W        W13354   7.839  37.889  14.223
41029W        W13355   8.151  42.997  14.025
41030W        W13356  27.438  26.003  14.713
41031W        W13357  12.673   1.927  14.955
41032W        W13358  41.817  11.870   2.692
41033W        W13359   3.403  42.498   1.912
41034W        W13360  29.368  40.819   1.803
41035W        W13361  29.694  24.095   3.247
41036W        W13362  11.921  34.555   3.946
41037W        W13363  29.129   7.258  11.076
41038W        W13364  26.518  40.035   0.067
41039W        W13365  44.439  13.588  14.560
41040W        W13366  41.852  16.421   2.033
41041W        W13367  19.716  35.995   0.002
41042W        W13368  40.530  29.001   2.128
41043W        W13369   2.803  13.153   1.714
41044W        W13370  10.860  40.488  12.509
41045W        W13371  41.884   2.369  14.307
41046W        W13372  14.559  27.620   3.440
41047W        W13373  26.494  13.879  11.551
41048W        W13374  25.522  24.530  13.514
41049W        W13375   8.710   2.967  14.899
41050W        W13376  20.217  10.722   3.713
41051W        W13377   7.804  41.723   0.524
41052W        W13378   9.733   4.707  13.456
41053W        W13379  29.060  34.178  12.024
41054W        W13380  13.864   3.465   1.768
41055W        W13381  27.167  39.958  12.491
41056W        W13382  35.403  13.185  11.911
41057W        W13383  18.677  13.570   3.288
41058W        W13384  12.754  24.161   9.829
41059W        W13385   7.904  44.823   1.321
41060W        W13386  40.136   0.430   0.365
41061W        W13387  31.313  22.245  11.670
41062W        W13388   7.239  31.080  12.564
41063W        W13389  29.046   6.200   3.366
41064W        W13390  23.762   4.778   2.410
41065W        W13391   7.798  43.402   4.505
41066W        W13392  26.114  28.539   0.478
41067W        W13393  31.079  27.073   3.392
41068W        W13394  30.578  10.811  12.578
41069W        W13395  14.169  33.194  12.131
41070W        W13396  37.394  23.601  13.365
41071W        W13397  24.351  33.304   4.728
41072W        W13398   0.806  21.592   0.790
41073W        W13399  13.198  20.540   1.225
41074W        W13400  44.319  36.426  14.488
41075W        W13401  30.436   2.626  11.857
41076W        W13402  15.590  28.165  13.965
41077W        W13403   7.876  36.872   4.526
41078W        W13404   7.413   7.308   2.670
41079W        W13405  21.140  17.468   3.688
41080W        W13406  39.118  26.129  12.016
41081W        W13407  22.779  43.764  12.153
41082W        W13408   0.840  22.178   4.102
41083W        W13409  21.736  42.342   0.825
41084W        W13410  30.848  40.426   5.095
41085W        W13411  12.388  27.970   2.620
41086W        W13412  39.967  26.708   2.123
41087W        W13413   3.585  24.524   1.348
41088W        W13414  29.929  27.138   4.826
41089W        W13415   8.315  20.983   2.258
41090W        W13416  11.169  13.216  11.272
41091W        W13417  41.276  32.108   2.385
41092W        W13418  16.303  15.564   0.890
41093W        W13419  26.244  20.749  11.528
41094W        W13420  29.254  40.829  10.635
41095W        W13421  41.773  28.479   1.314
41096W        W13422  14.091  11.177  13.038
41097W        W13423  41.951  30.877   0.380
41098W        W13424  39.376  27.608   2.847
41099W        W13425  34.103  18.217  14.630
41100W        W13426  10.756  25.735  14.894
41101W        W13427   8.676   5.965   2.714
41102W        W13428  43.437  36.606  12.061
41103W        W13429   2.438  11.955   9.801
41104W        W13430  20.515   4.486   1.291
41105W        W13431  36.413   9.292  10.674
41106W        W13432  36.753  44.843  14.778
41107W        W13433   1.973  22.666  13.595
41108W        W13434  39.912   4.788  13.602
41109W        W13435  32.022  15.133   1.888
41110W        W13436  34.026  10.062   0.763
41111W        W13437   8.129  38.324   3.873
41112W        W13438   9.871  21.039   3.149
41113W        W13439   5.516  26.065  13.487
41114W        W13440  36.517  28.154   3.772
41115W        W13441  16.594  27.120   4.673
41116W        W13442  38.414   2.758  11.341
41117W        W13443  10.045  25.133   3.669
41118W        W13444   8.686  34.069  11.462
41119W        W13445  21.012  14.836  11.982
41120W        W13446   3.412   8.090   2.238
41121W        W13447  18.155  23.783   3.742
41122W        W13448  30.893  42.459   4.083
41123W        W13449  40.007  28.253  10.848
41124W        W13450  32.453  43.511   4.071
41125W        W13451  11.007  30.253   0.741
41126W        W13452   1.387  14.345  14.823
41127W        W13453  38.457  42.882   3.074
41128W        W13454   9.858   9.352   2.022
41129W        W13455   2.298  19.771  14.749
41130W        W13456  33.397   2.334  14.379
41131W        W13457  24.740  13.373   0.943
41132W        W13458  34.585  31.395  12.881
41133W        W13459  16.843  34.868   4.583
41134W        W13460  12.381  39.054   4.305
41135W        W13461  23.432  33.506   1.898
41136W        W13462  18.485   9.599  11.575
41137W        W13463  24.223  35.939   4.802
41138W        W13464  10.384  34.064   2.325
41139W        W13465  12.712  39.313  12.934
41140W        W13466  16.709  19.262  12.005
41141W        W13467  26.430  42.582  10.921
41142W        W13468  43.394  29.035  13.298
41143W        W13469   9.771  15.032   1.789
41144W        W13470  17.769   4.806   4.017
41145W        W13471  25.526  22.768  14.378
41146W        W13472  22.802  35.166   3.654
41147W        W13473   3.379   3.125   4.034
41148W        W13474  22.489  23.907  14.947
41149W        W13475  20.116  15.077   3.232
41150W        W13476  31.543  23.118  12.428
41151W        W13477  19.735  32.175  11.145
41152W        W13478  33.875  21.215   2.762
41153W        W13479   4.006   6.269  12.139
41154W        W13480  21.104  25.685  12.374
41155W        W13481  42.679  41.870   1.612
41156W        W13482  10.318  16.403  14.182
41157W        W13483   9.085   6.030   2.315
41158W        W13484   4.414  37.859   0.516
41159W        W13485  17.090  14.830   3.644
41160W        W13486  22.515  31.396  12.446
41161W        W13487  39.872   8.583   2.410
41162W        W13488  25.270  25.043   0.248
41163W        W13489   1.800  35.153   4.254
41164W        W13490  27.587   6.097   1.711
41165W        W13491  14.719  12.607  11.002
41166W        W13492  43.556  44.827  12.120
41167W        W13493  16.019  32.948  11.245
41168W        W13494  33.417   0.597  10.292
41169W        W13495  37.605   7.667   3.407
41170W        W13496  36.981  27.182  14.533
41171W        W13497  39.601  35.789  14.277
41172W        W13498  32.994  43.289  14.023
41173W        W13499  23.823   8.779  12.514
41174W        W13500  40.569  22.682  11.311
41175W        W13501   0.016   9.237  12.411
41176W        W13502   9.373   5.697  12.015
41177W        W13503  44.884  20.196  14.422
41178W        W13504   4.936  12.302   0.983
41179W        W13505  41.547  30.197   4.171
41180W        W13506  19.113  18.660  11.466
41181W        W13507  43.388  14.879   0.873
41182W        W13508  38.524  44.354  11.400
41183W        W13509  14.931  14.534  11.637
41184W        W13510  19.348  24.518  13.603
41185W        W13511  31.730  18.595  10.427
41186W        W13512   6.492   0.309   5.022
41187W        W13513  29.485  21.538   0.587
41188W        W13514  16.204  36.443  14.824
41189W        W13515  29.881  23.593   0.870
41190W        W13516  35.391   3.251  10.008
41191W        W13517  31.445  31.644  14.797
41192W        W13518  39.426  23.284  14.039
41193W        W13519  25.710  19.641  11.756
41194W        W13520  34.051   2.722  13.798
41195W        W13521  11.552   7.047  14.098
41196W        W13522   0.637  28.009  10.968
41197W        W13523  29.490  14.198  12.884
41198W        W13524  21.054  36.606   0.827
41199W        W13525  17.315  37.085   3.728
41200W        W13526  34.408   1.396  14.571
41201W        W13527  24.599  29.506   1.475
41202W        W13528   7.922   8.315  12.419
41203W        W13529  13.358  11.827   0.487
41204W        W13530  23.148  42.807  14.816
41205W        W13531  30.770  30.511   1.469
41206W        W13532  13.134  24.175  14.477
41207W        W13533   0.802  22.717  14.841
41208W        W13534  41.040   4.469   0.511
41209W        W13535  43.569  44.399   3.288
41210W        W13536  41.320  28.063  14.518
41211W        W13537   2.815  42.320  14.160
41212W        W13538  30.318  27.317   3.272
41213W        W13539  27.487  33.644  11.876
41214W        W13540  35.010  24.212  13.828
41215W        W13541  13.164  43.852  11.187
41216W        W13542  39.411  31.672  13.848
41217W        W13543   2.728  23.955  13.370
41218W        W13544   8.647  25.163   1.027
41219W        W13545  37.728  40.304  14.931
41220W        W13546   7.952  27.038   1.253
41221W        W13547  38.993  42.372   1.460
41222W        W13548  21.597  29.216   3.641
41223W        W13549  30.059  14.393  12.060
41224W        W13550  28.428  13.107   2.782
41225W        W13551   0.599  40.304  14.935
41226W        W13552  27.569  13.916  14.892
41227W        W13553  31.909  37.818  14.766
41228W        W13554  23.200  29.542   0.283
41229W        W13555  44.771  43.508   2.739
41230W        W13556  26.574   3.147  14.644
41231W        W13557  32.638  36.543   4.836
41232W        W13558  26.097  16.201  11.987
41233W        W13559  15.427   3.235  12.682
41234W        W13560   9.148  31.173   2.755
41235W        W13561  30.563  22.996   4.425
41236W        W13562  22.629  25.028   1.450
41237W        W13563  33.465   5.437   1.786
41238W        W13564  17.819   1.099  13.466
41239W        W13565  28.618  36.644   2.854
41240W        W13566  12.262  21.555  11.880
41241W        W13567   6.796  28.073   0.660
41242W        W13568   5.850  10.169   1.862
41243W        W13569  35.467   3.426   4.993
41244W        W13570  31.569  42.816   3.181
41245W        W13571  13.343  23.016  12.616
41246W        W13572  10.643   0.901  10.681
41247W        W13573  42.304  37.864   4.678
41248W        W13574   3.270  22.816  11.075
41249W        W13575   4.249  20.569  14.961
41250W        W13576  36.011   8.181  11.314
41251W        W13577  30.316  28.752   9.733
41252W        W13578  39.180   0.026  13.085
41253W        W13579  25.223  39.318   0.321
41254W        W13580  32.397  17.068  12.470
41255W        W13581  22.234  38.339  10.975
41256W        W13582  13.130  10.155  11.394
41257W        W13583  27.112   7.619  10.395
41258W        W13584  13.075  31.022  11.387
41259W        W13585  14.881  13.823   3.075
41260W        W13586  10.806  19.555  10.710
41261W        W13587   0.596  25.479  12.334
41262W        W13588   1.097  42.178  13.860
41263W        W13589  29.105  17.510  11.132
41264W        W13590  34.113  35.949   3.782
41265W        W13591   2.011  40.922   0.311
41266W        W13592  15.064  35.517  14.946
41267W        W13593  31.127  20.702   0.320
41268W        W13594  27.055  24.136  12.562
41269W        W13595   0.925  27.246   0.465
41270W        W13596  40.579  11.263  11.447
41271W        W13597  17.005  32.104  14.530
41272W        W13598  44.818  32.544   2.325
41273W        W13599  38.922  21.148  13.339
41274W        W13600  35.219  25.135   3.757
41275W        W13601  42.857  23.496   3.574
41276W        W13602  10.242   6.210  11.155
41277W        W13603   3.687  26.022   1.935
41278W        W13604   0.952   2.464  10.674
41279W        W13605  24.567  37.520  10.523
41280W        W13606  34.904  10.375   1.426
41281W        W13607   5.790   1.953   1.686
41282W        W13608  38.629  23.552   3.176
41283W        W13609  11.117  12.322   2.841
41284W        W13610   4.257  43.708   4.133
41285W        W13611   0.703  22.769   0.726
41286W        W13612   4.399  27.641  10.985
41287W        W13613   1.981   9.208   3.256
41288W        W13614  44.767  30.453  12.939
41289W        W13615  26.636  29.422  13.841
41290W        W13616  11.154   8.022   0.972
41291W        W13617  20.644  28.147  14.055
41292W        W13618   1.320  13.398  12.620
41293W        W13619  40.242  25.498   2.749
41294W        W13620  27.164  14.864   3.741
41295W        W13621  26.714  12.194   1.415
41296W        W13622  22.668   7.846   1.195
41297W        W13623  11.177  36.343   0.359
41298W        W13624   0.991  31.650   3.706
41299W        W13625  34.204  15.601  14.076
41300W        W13626   7.914  14.257  10.672
41301W        W13627  18.484  24.381  11.978
41302W        W13628  26.456  34.942   3.702
41303W        W13629  10.065   1.719  10.893
41304W        W13630  29.899   2.920  13.811
41305W        W13631  25.181  14.755  14.012
41306W        W13632  18.779  33.957  14.409
41307W        W13633  34.338  36.887  13.543
41308W        W13634  36.487  34.987  13.241
41309W        W13635  42.220  40.983  14.742
41310W        W13636  39.056  13.924   3.707
41311W        W13637  19.780  42.904  14.865
41312W        W13638  31.877   5.817   3.748
41313W        W13639  22.453   8.400   2.493
41314W        W13640  20.223  41.695  11.469
41315W        W13641  11.823   2.152   4.249
41316W        W13642  22.176  33.183   3.256
41317W        W13643  37.555  17.977   1.915
41318W        W13644  37.551  34.622   0.898
41319W        W13645  36.860  28.121   0.661
41320W        W13646   5.186  19.000   1.773
41321W        W13647  34.233   1.513   1.763
41322W        W13648  27.718  30.676  13.729
41323W        W13649  25.630  10.938   0.145
41324W        W13650  37.771  13.235   2.256
41325W        W13651  43.296  15.061  11.055
41326W        W13652  42.256  26.076   1.393
41327W        W13653  10.141  26.646  12.957
41328W        W13654   6.862  32.926  13.861
41329W        W13655   8.652  29.713   0.440
41330W        W13656  44.362   8.663  12.100
41331W        W13657  33.058  19.986   4.588
41332W        W13658  40.507  20.579   4.438
41333W        W13659  10.635  23.049  14.372
41334W        W13660   0.744  20.332   3.584
41335W        W13661  13.552  33.500  14.786
41336W        W13662  18.605  15.553  10.237
41337W        W13663  39.577   7.469  13.320
41338W        W13664   9.456  11.006   2.610
41339W        W13665  28.037  42.925   3.793
41340W        W13666  43.411   5.359  13.512
41341W        W13667   3.628   4.358  11.504
41342W        W13668  17.262   9.965  10.955
41343W        W13669  33.500  17.517   2.672
41344W        W13670   8.093  27.415  13.828
41345W        W13671  44.975  16.041  12.494
41346W        W13672  25.243   8.432   4.132
41347W        W13673  27.880  19.510  12.905
41348W        W13674  11.438   0.189  12.574
41349W        W13675   0.676  44.687  13.835
41350W        W13676  37.165  17.668   1.742
41351W        W13677  22.631  43.101   2.436
41352W        W13678  17.208   6.859  10.641
41353W        W13679  44.532  13.603  11.825
41354W        W13680  27.459  16.305  12.154
41355W        W13681  28.162   2.225  11.245
41356W        W13682  31.847  39.522   2.254
41357W        W13683  38.256   2.268  11.644
41358W        W13684  14.869  22.585  13.363
41359W        W13685  31.072   6.500  13.867
41360W        W13686  37.726  11.309  14.991
41361W        W13687  32.875   3.840   2.097
41362W        W13688  36.866  33.063  14.011
41363W        W13689  10.453  12.363  14.439
41364W        W13690  32.036   6.377  14.500
41365W        W13691  13.716  44.834   0.341
41366W        W13692  21.819  10.240   0.942
41367W        W13693  22.713  33.970   1.034
41368W        W13694  15.119  38.743   1.376
41369W        W13695  23.082  30.502   3.354
41370W        W13696  18.251  35.183   4.181
41371W        W13697   3.476  24.767  13.383
41372W        W13698  24.962  17.292   2.406
41373W        W13699  17.535  34.713   0.820
41374W        W13700  20.974   6.900  12.960
41375W        W13701   6.290  23.289   2.221
41376W        W13702  37.255   9.684  11.789
41377W        W13703   1.101  16.152   2.332
41378W        W13704  29.743  29.372  12.002
41379W        W13705  20.751  13.355   1.466
41380W        W13706  13.705   7.657   1.245
41381W        W13707  28.332   3.732   4.667
41382W        W13708  28.913  37.936   3.135
41383W        W13709   6.172  18.200  12.083
41384W        W13710   1.953   0.882   2.862
41385W        W13711  34.783  20.509  14.055
41386W        W13712   6.891  22.590   3.812
41387W        W13713  26.235  18.656   0.983
41388W        W13714  12.639  27.039   4.015
41389W        W13715  39.341  17.066  11.801
41390W        W13716   6.873  28.571   2.958
41391W        W13717   6.179  12.822   1.698
41392W        W13718   2.374  13.394   1.467
41393W        W13719  38.485  41.453   0.733
41394W        W13720  41.455  21.470  14.886
41395W        W13721  39.398  18.840  14.709
41396W        W13722  34.253  20.698   2.793
41397W        W13723   7.132  30.580  12.440
41398W        W13724  44.311  37.036  12.322
41399W        W13725   6.997  21.203  12.408
41400W        W13726  12.693   5.450  11.625
41401W        W13727  19.823   6.236   3.832
41402W        W13728  16.899  24.755  13.487
41403W        W13729  30.781  19.110   4.715
41404W        W13730  44.660  41.912  13.846
41405W        W13731  27.696  22.960  14.269
41406W        W13732  37.450  42.609  10.190
41407W        W13733  33.649  38.447   2.562
41408W        W13734  22.109  30.915   4.621
41409W        W13735  22.933  10.179  10.129
41410W        W13736  38.818  38.611   0.745
41411W        W13737  14.143  28.380   2.418
41412W        W13738   8.768  16.034  13.048
41413W        W13739  11.627  20.706   4.192
41414W        W13740  31.662   1.202   3.426
41415W        W13741  35.004   1.463  13.440
41416W        W13742  44.531  21.248   1.128
41417W        W13743   1.072  38.274   4.166
41418W        W13744  10.859  23.588  13.622
41419W        W13745  12.792  10.907   3.062
41420W        W13746  15.332  22.762  10.503
41421W        W13747  19.634  40.747  14.023
41422W        W13748  27.652  17.325   1.847
41423W        W13749  31.045   4.765   4.350
41424W        W13750  30.993  38.848   0.292
41425W        W13751   1.457  28.139   2.891
41426W        W13752  35.952  24.105   3.176
41427W        W13753  36.642  38.906  12.520
41428W        W13754  23.685  31.125   0.793
41429W        W13755   7.449  43.727  14.468
41430W        W13756   2.265   5.790  13.867
41431W        W13757  13.367  43.218  12.551
41432W        W13758  38.955  29.382  11.564
41433W        W13759  12.697   8.910   2.681
41434W        W13760  21.296   6.660  11.635
41435W        W13761  23.637  24.673   1.734
41436W        W13762  29.083  19.586   2.169
41437W        W13763  19.212  21.945  14.361
41438W        W13764  38.992   7.127  12.638
41439W        W13765  27.703  44.358   0.820
41440W        W13766  16.125  31.936  14.056
41441W        W13767  33.061  33.032   0.520
41442W        W13768  18.009  32.593   3.816
41443W        W13769   9.241  30.612   2.764
41444W        W13770  11.755  37.082   1.458
41445W        W13771  23.694  39.428   4.999
41446W        W13772  21.108  36.105  12.598
41447W        W13773   2.292  38.329  12.570
41448W        W13774  17.529  12.637   2.304
41449W        W13775  26.826  18.751  10.636
41450W        W13776   3.765   0.796  11.939
41451W        W13777  32.401  34.871   4.792
41452W        W13778  40.860   2.265   0.475
41453W        W13779  44.907  12.345  14.988
41454W        W13780  15.126   7.710  10.641
41455W        W13781   4.769  30.928  13.123
41456W        W13782  32.138  33.500  13.558
41457W        W13783   6.052  25.000   1.933
41458W        W13784  21.086  16.659   3.235
41459W        W13785  43.384  11.555   4.033
41460W        W13786  15.147   9.562  10.520
41461W        W13787  30.462   9.093  14.785
41462W        W13788  35.498   3.271   2.790
41463W        W13789  10.693  25.616  14.079
41464W        W13790  28.053   2.887  10.751
41465W        W13791  10.115  24.065  14.949
41466W        W13792   7.598  32.968  10.381
41467W        W13793  28.976  40.478  13.400
41468W        W13794   4.596  16.107   0.805
41469W        W13795   5.772  30.558  11.873
41470W        W13796  27.889  17.564   2.718
41471W        W13797  33.915   4.777  12.338
41472W        W13798  27.272  24.023  11.513
41473W        W13799  30.796  31.800   1.210
41474W        W13800  25.973  17.116   3.236
41475W        W13801  14.528  15.742   4.862
41476W        W13802  10.467   3.980   4.244
41477W        W13803   9.560  16.625   4.367
41478W        W13804  29.130  12.176   1.014
41479W        W13805   1.066  38.300   0.845
41480W        W13806  25.074  41.832  14.061
41481W        W13807  38.820   4.664  11.210
41482W        W13808  34.580  35.387   3.699
41483W        W13809  36.599  14.785  10.626
41484W        W13810  21.322   3.746   2.166
41485W        W13811  28.476  23.237   1.620
41486W        W13812  36.903  37.097   3.954
41487W        W13813   5.830  28.979  11.828
41488W        W13814   2.975   4.177  10.253
41489W        W13815  16.179   9.734  11.651
41490W        W13816  23.031  39.721  13.647
41491W        W13817  42.804  14.067   1.738
41492W        W13818  31.574   0.918  13.392
41493W        W13819   8.335   1.013  13.425
41494W        W13820   9.357  13.625  14.865
41495W        W13821  17.759   5.207   3.692
41496W        W13822  37.242   5.917  13.928
41497W        W13823   1.552  25.973   2.354
41498W        W13824  15.334  17.813   4.621
41499W        W13825   2.408   2.763  11.398
41500W        W13826  16.306  10.868  14.791
41501W        W13827  22.554  15.692  11.490
41502W        W13828   5.111   1.846   2.297
41503W        W13829  33.448  11.654   0.324
41504W        W13830  37.867  20.681  13.479
41505W        W13831  15.333   6.958  13.582
41506W        W13832   6.775  10.608  13.016
41507W        W13833  25.492  14.175  13.364
41508W        W13834  42.740  23.097  13.077
41509W        W13835   2.441  17.381   1.292
41510W        W13836   7.857  44.010  13.789
41511W        W13837  32.558  12.766   2.140
41512W        W13838  13.345  12.520  13.512
41513W        W13839  32.977   5.471  12.893
41514W        W13840  43.205  11.312   2.411
41515W        W13841  23.671  28.763   1.451
41516W        W13842  24.053  30.001   1.745
41517W        W13843  22.735   9.233   1.363
41518W        W13844  21.161  25.150  11.127
41519W        W13845   7.010  44.827   1.883
41520W        W13846   9.163  32.646   3.343
41521W        W13847  23.943  17.802  11.231
41522W        W13848  33.844   4.919   3.733
41523W        W13849  29.676  20.799  13.156
41524W        W13850  38.280   4.462  12.947
41525W        W13851  29.415  15.473   3.498
41526W        W13852  30.764  40.990  13.583
41527W        W13853  42.785  13.236  12.372
41528W        W13854  23.054  33.926  10.623
41529W        W13855   0.152  35.648  13.161
41530W        W13856  20.733  22.618   0.528
41531W        W13857  39.369  34.520   4.058
41532W        W13858  11.118  40.774   4.084
41533W        W13859  44.319  16.011   4.300
41534W        W13860   7.192  29.077   2.641
41535W        W13861  33.273  32.540  12.585
41536W        W13862  15.142  39.082   4.556
41537W        W13863  12.185  30.992   2.320
41538W        W13864   5.374   1.973   1.381
41539W        W13865  23.893  31.057   2.629
41540W        W13866  36.256  11.357  10.667
41541W        W13867  27.692   5.503  13.566
41542W        W13868  11.265   2.908   4.150
41543W        W13869  13.707  19.146   3.384
41544W        W13870  32.391   0.423  12.777
41545W        W13871  18.185  20.548   1.248
41546W        W13872  35.446  35.505   1.783
41547W        W13873  19.992  44.719   5.214
41548W        W13874   0.411  30.492   0.321
41549W        W13875  21.797  24.099  11.161
41550W        W13876   3.435  37.209  13.906
41551W        W13877  20.837  25.698   0.391
41552W        W13878  31.613  20.268   2.351
41553W        W13879  16.731  38.989  11.186
41554W        W13880  14.615  26.319   1.981
41555W        W13881  31.171   4.375  10.786
41556W        W13882   4.000   3.178   1.092
41557W        W13883  10.921  43.873   1.858
41558W        W13884  10.392  12.211  13.508
41559W        W13885  18.619  22.269  12.022
41560W        W13886  20.580   5.377  12.558
41561W        W13887   5.966  44.604  13.130
41562W        W13888  18.028   1.680  14.548
41563W        W13889  28.117  30.165  12.861
41564W        W13890  41.369  44.031   0.292
41565W        W13891  23.278  34.043   2.355
41566W        W13892  29.454  14.805  11.621
41567W        W13893  19.110  34.815  14.397
41568W        W13894  33.819  10.544   2.149
41569W        W13895   2.010  28.974   4.655
41570W        W13896  13.269  20.640   3.949
41571W        W13897  44.958  44.294   2.295
41572W        W13898  24.678  41.931   0.347
41573W        W13899   4.880  14.836   1.767
41574W        W13900  32.548   9.854   0.298
41575W        W13901  40.024  37.858   2.737
41576W        W13902  26.931  32.559  13.518
41577W        W13903  13.703  34.356   2.259
41578W        W13904   5.455  38.648  12.988
41579W        W13905  43.775   9.837  13.582
41580W        W13906  19.566  26.728   5.294
41581W        W13907  10.639   9.133   0.065
41582W        W13908  28.122  36.027   3.584
41583W        W13909  38.409  17.902  12.848
41584W        W13910  29.137  14.779   4.347
41585W        W13911   9.716   3.295  13.315
41586W        W13912   2.291  21.725   3.315
41587W        W13913   7.920  27.018  12.868
41588W        W13914  23.081  23.446   2.198
41589W        W13915   2.864  43.957  12.599
41590W        W13916  24.885   2.290   4.215
41591W        W13917  32.513  23.470  13.208
41592W        W13918  31.907  27.663   4.350
41593W        W13919   4.188   8.657   4.115
41594W        W13920  11.932  37.350   2.312
41595W        W13921  26.293  41.749  13.008
41596W        W13922  24.259   2.403   1.031
41597W        W13923  11.846  16.272  13.550
41598W        W13924  40.566  40.261  11.645
41599W        W13925   6.829   2.329  12.076
41600W        W13926   0.899  30.692   0.315
41601W        W13927  32.474   1.200  12.212
41602W        W13928  34.747  10.218   5.089
41603W        W13929  12.560   3.895   3.265
41604W        W13930  38.017  42.491   4.681
41605W        W13931   7.809  15.606  10.278
41606W        W13932  10.729  43.562   4.550
41607W        W13933   2.312   4.732  10.603
41608W        W13934  36.599  26.661   2.898
41609W        W13935  10.906   4.961  10.297
41610W        W13936  18.709  18.159   0.920
41611W        W13937   3.800  37.544  12.143
41612W        W13938   0.147  28.402   0.029
41613W        W13939  15.574  31.520  11.998
41614W        W13940   3.460  14.293  14.483
41615W        W13941  33.247   9.419   2.887
41616W        W13942  10.758   7.266   3.167
41617W        W13943  16.296   8.790   4.981
41618W        W13944  15.082  39.194   0.196
41619W        W13945   0.930   3.364   0.926
41620W        W13946  21.196   7.358  12.439
41621W        W13947  23.623  11.730  14.492
41622W        W13948  21.612  18.256  10.909
41623W        W13949  27.201  18.680   1.195
41624W        W13950  26.663   3.649  11.898
41625W        W13951   2.272  35.272   1.861
41626W        W13952  26.021  41.389   4.870
41627W        W13953  40.801   6.392  10.483
41628W        W13954  15.700  28.478  10.767
41629W        W13955  12.855  36.533   0.292
41630W        W13956   9.142  13.046   3.570
41631W        W13957  43.720   4.808  14.971
41632W        W13958  23.599  19.669   2.636
41633W        W13959  21.093  14.850   2.841
41634W        W13960  22.535  22.986  13.421
41635W        W13961   8.551   5.236  14.326
41636W        W13962  37.490  31.603   3.807
41637W        W13963  26.503  15.616  12.465
41638W        W13964   3.346  29.179   2.317
41639W        W13965   9.347   7.784   4.021
41640W        W13966  28.974  11.796  12.225
41641W        W13967   8.825  40.822  13.542
41642W        W13968  29.206  24.136   1.545
41643W        W13969  24.413  29.996   1.374
41644W        W13970  16.091  32.583  12.499
41645W        W13971  39.797  38.790   2.525
41646W        W13972  11.190  39.861   1.833
41647W        W13973  41.851   0.097  14.871
41648W        W13974  12.798  39.974   4.622
41649W        W13975  10.984   6.767   2.904
41650W        W13976  33.085  28.590   2.847
41651W        W13977  29.070  36.881  11.974
41652W        W13978  38.468   1.569   4.554
41653W        W13979  20.170   7.592   2.651
41654W        W13980   7.914  13.108  14.039
41655W        W13981  19.580  26.707  11.570
41656W        W13982   0.055   3.561   1.438
41657W        W13983  14.547  39.035  11.047
41658W        W13984  33.331  43.424  12.434
41659W        W13985  15.127  10.577  11.803
41660W        W13986   5.437  38.521   4.162
41661W        W13987   3.718   2.338   4.482
41662W        W13988   3.546  40.784   1.799
41663W        W13989   7.159  11.128   4.629
41664W        W13990  44.237   8.168  13.030
41665W        W13991  38.331  10.086  12.437
41666W        W13992  43.321  32.834  12.213
41667W        W13993  15.845   1.366  10.403
41668W        W13994   4.594   0.364   4.651
41669W        W13995  41.560  32.406  10.642
41670W        W13996   7.531  41.393   3.267
41671W        W13997  38.908   2.130  11.140
41672W        W13998  28.234  43.793   3.594
41673W        W13999   8.230  29.330   3.498
41674W        W14000  20.728  18.324  13.890
41675W        W14001   5.123  42.857   2.186
41676W        W14002  40.897  16.147   1.762
41677W        W14003  22.127  17.249  10.157
41678W        W14004   2.014   2.966   4.693
41679W        W14005  25.002  41.477   3.397
41680W        W14006  13.227  10.996  11.871
41681W        W14007  25.155  18.739  14.299
41682W        W14008  14.576  27.536   2.464
41683W        W14009   6.503  42.886  10.305
41684W        W14010  19.602   1.742   1.398
41685W        W14011  19.960  26.674   2.406
41686W        W14012  15.117  20.751  14.418
41687W        W14013  20.582  36.470   4.927
41688W        W14014  16.524  12.615   0.558
41689W        W14015  36.869  37.320   0.342
41690W        W14016   1.025  30.134  13.083
41691W        W14017  15.531  18.282   3.874
41692W        W14018   1.874  40.829   2.343
41693W        W14019  31.158  32.626   4.210
41694W        W14020  17.124  32.112  12.599
41695W        W14021   4.415  43.899   4.588
41696W        W14022   1.485  35.987  10.746
41697W        W14023  37.009  43.434   3.755
41698W        W14024   9.357  27.418  13.438
41699W        W14025  31.668  25.149   2.168
41700W        W14026  29.014  27.892   2.258
41701W        W14027  20.519  42.846  11.272
41702W        W14028  32.409   0.383  13.304
41703W        W14029  38.640   9.913  11.181
41704W        W14030  13.030   9.710  11.135
41705W        W14031   2.950  21.616   0.012
41706W        W14032  34.997  40.937  11.155
41707W        W14033  38.083  41.792   1.260
41708W        W14034  40.947  18.044   2.388
41709W        W14035  33.879  22.801   0.884
41710W        W14036   6.401  30.121  13.729
41711W        W14037   1.494  11.116  12.161
41712W        W14038  22.483  39.351   4.270
41713W        W14039  33.565  36.070   1.355
41714W        W14040   2.740  12.746  10.713
41715W        W14041  13.677  30.909  11.287
41716W        W14042  10.959  19.807  12.592
41717W        W14043  44.732  13.690   1.263
41718W        W14044  13.688  40.561  11.003
41719W        W14045  36.918  40.061  11.109
41720W        W14046  29.058   1.514  14.912
41721W        W14047  33.851  10.872  13.354
41722W        W14048  32.203   7.727   0.050
41723W        W14049  15.858   9.328  12.353
41724W        W14050  42.322  15.299   3.416
41725W        W14051  11.804   3.510  13.281
41726W        W14052  44.370  17.725   2.789
41727W        W14053   6.199  13.891   4.042
41728W        W14054   9.157  41.861  14.411
41729W        W14055  18.785   9.025  14.883
41730W        W14056   2.181  31.083   2.834
41731W        W14057  21.769  24.122   0.484
41732W        W14058  26.644   1.829   0.957
41733W        W14059  43.501  29.913   2.563
41734W        W14060   1.817   5.255  11.824
41735W        W14061  21.578  14.332   1.477
41736W        W14062  36.468  31.862  12.063
41737W        W14063   0.781  23.317  11.604
41738W        W14064   7.188  41.713   1.454
41739W        W14065  41.327  15.962   2.706
41740W        W14066  13.029  16.161   0.859
41741W        W14067  29.012  23.572   3.280
41742W        W14068  10.942   5.724  10.862
41743W        W14069   4.812  40.570   4.124
41744W        W14070   1.397  44.678  12.823
41745W        W14071   0.328  15.485   5.061
41746W        W14072  31.326  11.476  11.068
41747W        W14073  13.768  28.000  14.398
41748W        W14074  31.695   6.685  14.712
41749W        W14075  34.512  15.070  13.397
41750W        W14076   8.908   6.817  12.428
41751W        W14077  41.005  31.000  11.053
41752W        W14078  40.407  44.918  13.404
41753W        W14079   3.195  42.529   4.728
41754W        W14080  15.065  11.311   0.213
41755W        W14081  41.999  10.260  14.606
41756W        W14082  28.552  28.167  14.454
41757W        W14083   6.676   6.384  13.993
41758W        W14084  39.485  10.113  10.827
41759W        W14085   8.693   5.819  14.980
41760W        W14086  17.065  29.055  13.060
41761W        W14087   9.494  39.210   0.327
41762W        W14088  16.054  16.209  11.150
41763W        W14089  19.726  18.173   4.650
41764W        W14090  10.815  40.297  13.366
41765W        W14091  24.727  10.178  12.926
41766W        W14092  32.087  36.090  11.627
41767W        W14093   8.951  28.149  12.101
41768W        W14094  18.640  18.012   4.249
41769W        W14095  25.284  12.390  14.070
41770W        W14096   6.774  18.551   2.680
41771W        W14097  32.407   8.145  13.321
41772W        W14098  36.812  26.044  13.752
41773W        W14099  16.883   0.836  12.073
41774W        W14100  36.452   2.939  12.926
41775W        W14101  42.446  41.802  14.899
41776W        W14102   6.644  26.463  13.138
41777W        W14103  37.160   6.004   0.284
41778W        W14104  10.972  32.420  13.430
41779W        W14105  17.802  18.596   4.072
41780W        W14106   4.918  21.807  12.005
41781W        W14107  11.112  27.234   1.843
41782W        W14108  33.447  39.758  13.598
41783W        W14109  33.954  44.257   1.830
41784W        W14110  21.417  24.480   4.595
41785W        W14111  10.428  38.239  11.440
41786W        W14112  31.892  28.719   0.990
41787W        W14113  44.380  19.520  12.387
41788W        W14114  43.394   7.103  11.594
41789W        W14115  32.245  15.965  11.594
41790W        W14116  37.816  15.968   0.672
41791W        W14117  21.616   1.125  10.845
41792W        W14118  27.763  32.369  11.432
41793W        W14119  27.602  24.276  14.010
41794W        W14120  39.351  29.770   1.962
41795W        W14121   0.655  15.289  11.195
41796W        W14122   2.767  40.150  11.606
41797W        W14123  20.789  32.166   0.658
41798W        W14124  32.862  17.477   0.594
41799W        W14125  14.720  13.532  14.528
41800W        W14126  16.349  42.444   1.906
41801W        W14127  37.370  24.775  11.400
41802W        W14128  22.026  33.037   2.347
41803W        W14129  10.816  29.052   0.411
41804W        W14130   2.221  24.188  10.720
41805W        W14131   9.028  17.732  11.387
41806W        W14132  10.813  13.566   1.033
41807W        W14133  16.245   1.363   1.300
41808W        W14134  13.550   5.821   2.729
41809W        W14135   4.835   6.864   4.199
41810W        W14136  36.432  28.602   4.588
41811W        W14137  31.168  26.036   4.707
41812W        W14138  14.304  13.784   2.289
41813W        W14139  41.938  41.392   2.792
41814W        W14140  33.663  11.710   2.615
41815W        W14141  37.113   0.469   2.204
41816W        W14142  44.781  30.067   3.852
41817W        W14143  39.464  27.224  13.189
41818W        W14144  20.225  37.953   2.397
41819W        W14145  26.997   7.463  13.484
41820W        W14146  25.770   0.341   1.382
41821W        W14147  21.006  19.681  12.472
41822W        W14148   4.395  34.733  12.797
41823W        W14149  39.961   5.712   3.218
41824W        W14150  19.434   8.310   4.571
41825W        W14151   1.369   8.691   2.426
41826W        W14152  18.997  27.695   0.752
41827W        W14153  26.228  16.184   3.274
41828W        W14154  38.554  34.790  12.829
41829W        W14155  15.407  42.964  11.077
41830W        W14156  20.086  35.130   2.867
41831W        W14157  23.287  22.629  12.339
41832W        W14158  21.532  38.774  10.694
41833W        W14159  35.089  18.133  14.901
41834W        W14160  42.975  14.672  14.885
41835W        W14161  23.946  44.969  14.418
41836W        W14162   5.336  11.396   5.482
41837W        W14163   6.963  12.367  14.427
41838W        W14164   1.350  20.884   1.702
41839W        W14165   9.190  18.616  13.896
41840W        W14166   5.801   3.690  13.966
41841W        W14167  28.214  18.511  11.958
41842W        W14168   9.154   7.528   1.440
41843W        W14169  35.959  17.052   3.116
41844W        W14170  10.263  38.586   1.064
41845W        W14171  35.471  16.614  14.545
41846W        W14172  11.918  43.889   0.766
41847W        W14173  17.669  23.226   4.159
41848W        W14174  35.960  33.584  10.169
41849W        W14175  43.899  12.826   2.867
41850W        W14176   5.706  14.356   1.351
41851W        W14177  14.403  15.069  12.410
41852W        W14178  40.519  34.160   0.597
41853W        W14179  14.295  43.158   4.179
41854W        W14180  34.011  13.153  13.342
41855W        W14181  25.636  11.751   4.406
41856W        W14182  34.881  43.856   0.952
41857W        W14183  32.559  27.922   0.810
41858W        W14184  26.837  19.332  12.451
41859W        W14185  27.194  11.733   0.034
41860W        W14186  34.107  26.948  11.341
41861W        W14187  42.042  41.294   4.738
41862W        W14188  33.342  32.530   2.367
41863W        W14189   7.505  43.561   3.536
41864W        W14190  36.477  21.498  12.062
41865W        W14191  27.416   8.450  10.695
41866W        W14192  19.455  30.117   1.393
41867W        W14193  22.184   8.316   1.679
41868W        W14194  12.241  14.013   0.763
41869W        W14195  34.624  27.144  14.809
41870W        W14196  26.671  24.029   3.289
41871W        W14197   8.820  22.803  11.622
41872W        W14198  39.673  20.804   0.337
41873W        W14199  23.372  17.667   4.618
41874W        W14200  43.240  23.038  10.893
41875W        W14201   7.399  10.183  11.414
41876W        W14202   0.812  12.805   1.284
41877W        W14203   1.327  15.874  14.834
41878W        W14204  16.195  22.287   1.333
41879W        W14205  24.453  10.092  13.374
41880W        W14206  23.131  40.105   4.701
41881W        W14207  18.077  27.980   0.907
41882W        W14208  40.404  44.328   0.745
41883W        W14209  27.822  15.069   2.099
41884W        W14210  21.264  27.456  10.465
41885W        W14211  19.212  30.406  11.171
41886W        W14212   9.113  37.035   2.429
41887W        W14213  32.642  37.887  11.376
41888W        W14214  44.063  37.438  12.097
41889W        W14215  43.558  32.895   3.286
41890W        W14216  19.570  12.244   3.316
41891W        W14217   5.299   6.410  11.623
41892W        W14218   3.743  40.884   3.714
41893W        W14219   9.391   2.226   0.805
41894W        W14220  15.051  13.212  13.604
41895W        W14221   2.315  24.901   1.409
41896W        W14222  31.566  39.509   4.586
41897W        W14223  33.653  28.082   1.447
41898W        W14224  30.461  20.110   3.261
41899W        W14225  42.378  28.038  14.450
41900W        W14226   5.882  18.881  10.798
41901W        W14227  40.427  34.534   0.945
41902W        W14228   3.297  35.980  12.734
41903W        W14229  40.982   5.342  13.919
41904W        W14230  23.320  37.508  10.191
41905W        W14231  24.043  44.387   4.377
41906W        W14232   9.178  15.585  14.471
41907W        W14233   0.090  36.883   2.682
41908W        W14234  32.018  15.236  12.468
41909W        W14235  19.491  38.488   0.246
41910W        W14236  22.763  14.714   4.085
41911W        W14237  17.335   9.335   3.151
41912W        W14238  40.486  17.681   0.026
41913W        W14239   2.309  35.573  11.176
41914W        W14240  22.390  32.998  10.674
41915W        W14241  22.888  15.949  12.936
41916W        W14242   1.943  31.125  11.860
41917W        W14243  44.366  32.198   0.781
41918W        W14244  41.988  44.604   9.911
41919W        W14245  28.956  30.967   0.401
41920W        W14246   1.689  20.898   2.113
41921W        W14247  35.907  15.625  11.581
41922W        W14248   0.927  38.172   1.689
41923W        W14249  33.919   9.719   1.131
41924W        W14250   2.946  44.451  10.619
41925W        W14251  44.011  34.190   3.817
41926W        W14252  28.376  27.082   4.488
41927W        W14253  21.319  19.611  13.893
41928W        W14254  35.184   2.732   4.120
41929W        W14255   4.481   0.530  13.542
41930W        W14256  14.893  31.656  12.512
41931W        W14257   3.030  23.207   2.901
41932W        W14258   3.230   4.684   2.856
41933W        W14259   2.340   1.523   3.891
41934W        W14260  36.806  17.656  13.893
41935W        W14261   2.966   4.802   2.200
41936W        W14262   9.959  22.555  13.991
41937W        W14263  43.035  10.863  14.998
41938W        W14264  27.132  32.062  12.853
41939W        W14265  38.002  39.820  13.022
41940W        W14266  40.933  16.573   3.818
41941W        W14267  32.490  28.020   2.327
41942W        W14268  27.541  25.270  13.315
41943W        W14269  26.750  33.357  14.407
41944W        W14270  38.383  32.351   4.592
41945W        W14271  36.642  30.795   3.218
41946W        W14272  23.399  17.774   1.831
41947W        W14273  27.377   9.295   0.006
41948W        W14274   5.375  34.147  11.902
41949W        W14275  12.298  26.138   4.514
41950W        W14276  20.314  16.836  11.551
41951W        W14277  26.075  32.507  14.219
41952W        W14278   1.548  16.718   2.444
41953W        W14279  21.197  36.982  10.956
41954W        W14280  43.443  21.200  13.533
41955W        W14281  14.626  28.009   3.133
41956W        W14282  41.913  31.648   0.816
41957W        W14283   0.104   7.745   2.292
41958W        W14284   3.732  26.659   1.527
41959W        W14285  18.717  37.991  10.732
41960W        W14286  34.459  15.692   0.981
41961W        W14287  10.238  30.545  14.101
41962W        W14288  29.498  41.100  13.813
41963W        W14289  23.499  22.921  13.466
41964W        W14290  36.353  16.857  14.835
41965W        W14291  44.238  39.323   4.891
41966W        W14292  34.653  29.218   3.040
41967W        W14293  43.796  19.862  12.947
41968W        W14294  33.595  16.095  13.341
41969W        W14295  32.855  22.106  14.252
41970W        W14296   0.008  37.415   3.402
41971W        W14297  15.934   8.868   3.850
41972W        W14298  12.363  37.372  11.905
41973W        W14299  16.689  41.880   4.512
41974W        W14300   4.962  12.641  13.425
41975W        W14301  41.029  20.325  14.030
41976W        W14302  17.394   6.878  14.516
41977W        W14303   9.329  14.978  12.523
41978W        W14304   8.565   4.407  11.047
41979W        W14305  43.572  12.204  10.631
41980W        W14306  38.353  13.836   1.184
41981W        W14307  39.167  38.279   0.967
41982W        W14308  32.893   9.213   4.074
41983W        W14309  43.367  23.292   4.233
41984W        W14310  10.400  22.599  14.295
41985W        W14311   6.293  41.882   2.208
41986W        W14312  43.458  37.413  11.200
41987W        W14313  24.734   6.482  11.551
41988W        W14314   5.852  20.696   3.355
41989W        W14315  38.574  28.950  12.948
41990W        W14316  40.906  43.449  11.261
41991W        W14317  36.472  15.964   1.728
41992W        W14318  38.566  20.185  12.743
41993W        W14319  33.913  21.728   2.746
41994W        W14320  10.080  28.689   2.874
41995W        W14321  37.510   6.875  12.927
41996W        W14322  17.096  27.971  13.012
41997W        W14323  40.870  22.678   1.725
41998W        W14324   3.092  41.707  11.075
41999W        W14325  29.449  43.109  13.388
42000W        W14326  17.635  15.063  14.424
42001W        W14327  12.804  27.104   5.479
42002W        W14328  14.491  16.538  12.550
42003W        W14329  16.035   2.205  11.539
42004W        W14330   9.674  28.493  12.184
42005W        W14331  33.703  11.330  12.121
42006W        W14332  13.137   4.365  14.335
42007W        W14333  26.098  33.715  11.991
42008W        W14334  40.576   6.140   4.942
42009W        W14335  23.190  38.556  11.293
42010W        W14336   5.424  31.165  14.822
42011W        W14337  38.061  11.618  11.995
42012W        W14338  40.047  28.376   0.767
42013W        W14339  31.923  25.850  12.081
42014W        W14340  14.143  17.226   0.359
42015W        W14341  40.278  21.761   2.377
42016W        W14342   5.960  39.394  11.879
42017W        W14343  44.553  16.632   3.644
42018W        W14344   2.228  31.939   4.487
42019W        W14345  20.609  11.790  11.278
42020W        W14346  11.344   9.183  12.389
42021W        W14347  17.541  24.146  11.933
42022W        W14348   0.442  42.286  14.850
42023W        W14349  31.364  27.550   4.595
42024W        W14350  15.202  25.133   1.138
42025W        W14351   9.136  42.552   2.772
42026W        W14352  31.950  27.440  14.458
42027W        W14353  23.404  35.342   0.217
42028W        W14354  44.333  22.458  13.232
42029W        W14355  41.327  40.292  11.984
42030W        W14356  41.007  16.381   1.304
42031W        W14357  25.918  39.502   4.106
42032W        W14358  38.636  18.449   2.813
42033W        W14359   3.931  21.408  11.928
42034W        W14360  39.298  28.696  10.929
42035W        W14361  30.993  16.980  11.698
42036W        W14362   4.877   9.242   2.321
42037W        W14363  20.989  21.141   9.941
42038W        W14364  43.331   1.090  14.791
42039W        W14365  13.138  41.469   4.232
42040W        W14366  17.374   3.991  11.533
42041W        W14367  26.216  11.776  13.429
42042W        W14368   4.707   4.914  11.505
42043W        W14369  23.023  10.231  12.157
42044W        W14370   0.493  17.625   4.229
42045W        W14371   9.712  36.197   3.615
42046W        W14372  41.516  15.365   3.788
42047W        W14373  31.647  13.244   2.872
42048W        W14374  11.621   3.411   0.427
42049W        W14375  18.153  25.216   2.866
42050W        W14376  34.336   5.646   4.187
42051W        W14377  24.181  17.649   0.978
42052W        W14378   4.598   4.227  10.877
42053W        W14379  25.619  11.211  11.138
42054W        W14380  29.002   7.935  12.082
42055W        W14381  25.123  26.374  12.996
42056W        W14382  24.638  10.128   4.630
42057W        W14383   4.735   2.479  10.572
42058W        W14384   6.711   1.389  13.486
42059W        W14385  41.543   9.684   1.946
42060W        W14386  37.904  26.732  13.496
42061W        W14387  20.676   1.200  13.975
42062W        W14388  18.829  23.409   0.073
42063W        W14389  39.780   0.944   0.114
42064W        W14390  44.619   4.581   3.136
42065W        W14391  42.256   4.458   2.276
42066W        W14392   9.592  35.407   2.918
42067W        W14393   0.485  23.505  13.319
42068W        W14394  38.376  43.788   0.766
42069W        W14395   6.909  30.867  13.457
42070W        W14396  24.503  14.782  14.307
42071W        W14397  16.281  21.225  10.487
42072W        W14398  31.333  18.622  10.829
42073W        W14399  11.819  12.772  12.496
42074W        W14400  16.303  23.660  12.538
42075W        W14401  16.318   5.165   2.312
42076W        W14402  19.317  41.959   0.009
42077W        W14403  21.649  25.673  10.673
42078W        W14404  44.342  44.772   1.363
42079W        W14405  31.464   2.316  12.375
42080W        W14406  41.396   7.668  10.531
42081W        W14407  21.287  10.330   5.043
42082W        W14408  36.648  30.561  14.982
42083W        W14409  36.538  22.791   3.604
42084W        W14410  19.257  15.707  14.373
42085W        W14411  40.447   9.730  13.401
42086W        W14412  12.814  33.909   0.839
42087W        W14413  39.859  24.798  12.687
42088W        W14414  30.245  39.004  14.818
42089W        W14415  41.937  19.811  10.178
42090W        W14416  35.392   1.851  12.424
42091W        W14417  44.287  26.447   3.495
42092W        W14418  19.037  41.191  12.931
42093W        W14419  25.515  14.737   2.412
42094W        W14420  20.280   3.959  11.071
42095W        W14421  26.894  29.453  14.955
42096W        W14422  30.899  39.306  11.228
42097W        W14423  22.102   9.277   2.538
42098W        W14424  24.353   2.529  10.402
42099W        W14425  15.784  27.770  12.974
42100W        W14426  23.699  23.053   4.783
42101W        W14427  22.254  17.746   3.632
42102W        W14428  43.911  17.711  13.077
42103W        W14429  42.539   5.353   1.311
42104W        W14430   5.751  44.931  12.795
42105W        W14431  40.376   1.629  12.681
42106W        W14432  27.457  25.207   4.705
42107W        W14433  41.946  21.571   1.672
42108W        W14434  31.533  26.999  10.604
42109W        W14435   8.825  20.823  12.623
42110W        W14436  29.996   7.369   2.619
42111W        W14437   7.923   8.393  13.355
42112W        W14438  15.155  40.264  12.920
42113W        W14439   7.927  31.459  14.254
42114W        W14440  40.812   4.956   1.448
42115W        W14441  42.383  18.517  12.538
42116W        W14442  22.265  37.586   2.808
42117W        W14443   0.191  16.096  14.336
42118W        W14444  25.992  43.317  11.424
42119W        W14445  43.262  40.891   3.663
42120W        W14446  24.042  12.110   0.982
42121W        W14447  42.942  35.154   3.342
42122W        W14448  21.070  12.472  12.033
42123W        W14449  18.759  37.308  12.877
42124W        W14450  32.164  32.034   1.973
42125W        W14451   3.902  10.841  10.703
42126W        W14452   2.355  16.275  12.967
42127W        W14453  24.008  40.097  10.472
42128W        W14454   2.200  29.456  11.821
42129W        W14455  37.861  10.193   2.327
42130W        W14456   7.097  29.419  11.636
42131W        W14457  32.451  17.540   0.287
42132W        W14458   6.870  22.479   2.357
42133W        W14459  35.487   6.801   3.179
42134W        W14460  22.151  43.845   3.646
42135W        W14461   4.313  25.771  14.422
42136W        W14462  32.553   5.838   2.740
42137W        W14463  28.979   0.473   1.163
42138W        W14464  29.956  34.199  13.042
42139W        W14465  19.461  41.994  14.246
42140W        W14466  37.428  13.070  11.684
42141W        W14467   8.699  10.144   0.967
42142W        W14468  29.613  39.650   1.184
42143W        W14469  37.945  26.448   2.022
42144W        W14470   5.320  10.806  10.846
42145W        W14471  27.472  23.639  10.694
42146W        W14472  16.811  37.367   1.955
42147W        W14473   9.496  37.868  12.513
42148W        W14474   1.136  25.603  13.473
42149W        W14475  24.990   9.692   3.623
42150W        W14476  32.542   2.030   0.851
42151W        W14477   2.961   2.268  14.864
42152W        W14478  37.550   2.316   2.334
42153W        W14479  37.343  22.701   2.650
42154W        W14480   5.375   7.623   0.920
42155W        W14481  15.217   6.352  13.801
42156W        W14482   5.928   3.541   4.302
42157W        W14483  36.967   7.148  14.908
42158W        W14484  15.251  37.294   3.379
42159W        W14485  20.027  40.600  12.372
42160W        W14486   8.370  11.002   2.367
42161W        W14487   7.428  29.925   4.604
42162W        W14488  20.962  31.484  12.528
42163W        W14489  17.343  24.519  11.045
42164W        W14490  11.564  18.283  12.020
42165W        W14491   6.150  11.746   0.746
42166W        W14492  26.918  44.384  11.009
42167W        W14493  24.629  31.684   0.752
42168W        W14494  29.611  13.579  12.063
42169W        W14495  32.953   1.928  13.985
42170W        W14496  11.085  15.391   0.389
42171W        W14497  30.192  19.751   2.671
42172W        W14498   6.130  19.144   0.665
42173W        W14499  26.788  33.100   4.205
42174W        W14500  24.676  14.842  11.465
42175W        W14501  13.062   7.491   0.022
42176W        W14502  44.030  18.011   1.651
42177W        W14503  18.618  35.858   1.653
42178W        W14504  20.771  17.725  11.095
42179W        W14505   0.145   7.424  14.220
42180W        W14506  40.036  15.422   0.220
42181W        W14507   4.035  38.947   3.813
42182W        W14508  31.413  25.522   4.622
42183W        W14509  28.136  25.271   1.785
42184W        W14510  26.653   1.872  10.719
42185W        W14511  28.755  44.330  10.598
42186W        W14512  32.832  33.690   4.288
42187W        W14513   0.998  41.287   4.165
42188W        W14514  17.579  37.399  11.861
42189W        W14515  33.082  41.501  13.506
42190W        W14516  12.466  26.140  11.119
42191W        W14517   2.273  24.633   0.685
42192W        W14518   9.302  13.145  14.037
42193W        W14519  14.204  26.651  10.892
42194W        W14520  35.433   3.768  12.485
42195W        W14521  22.596  18.026  14.360
42196W        W14522  20.982  10.559   2.381
42197W        W14523  23.186  19.979  12.787
42198W        W14524   5.661  10.339   2.340
42199W        W14525  14.829  14.074  14.569
42200W        W14526   0.263  14.179  10.631
42201W        W14527   4.239  28.112  10.577
42202W        W14528   2.878  17.238  10.324
42203W        W14529  44.930  44.556   4.480
42204W        W14530  40.450  42.974   1.368
42205W        W14531  28.529  17.649  14.600
42206W        W14532  37.262  35.120   1.774
42207W        W14533  36.569  26.119   3.938
42208W        W14534  29.602  30.897  10.955
42209W        W14535  30.177  18.116   0.186
42210W        W14536  34.653   0.466  12.998
42211W        W14537  35.625   6.352   3.423
42212W        W14538   1.432  15.705   3.118
42213W        W14539  43.847   1.963   2.843
42214W        W14540   6.738  33.853  10.731
42215W        W14541   2.045   2.328  12.291
42216W        W14542   7.624  17.521  14.870
42217W        W14543  39.407   7.063  11.436
42218W        W14544  12.224  22.205   1.341
42219W        W14545  32.384  24.234   0.311
42220W        W14546  13.560   8.761   0.645
42221W        W14547  12.178   3.153  13.251
42222W        W14548  40.451   3.182  14.823
42223W        W14549  40.532  19.239   2.846
42224W        W14550  16.263  44.856  11.239
42225W        W14551  22.005  18.189   3.581
42226W        W14552  37.634  44.026  14.529
42227W        W14553  24.372  32.407   2.299
42228W        W14554  42.100  29.094  11.981
42229W        W14555  37.343   6.740   2.196
42230W        W14556  33.044  31.931   4.540
42231W        W14557  22.224  36.387   4.023
42232W        W14558  41.912   0.336  14.357
42233W        W14559  38.137  21.758  11.573
42234W        W14560  44.849  31.855   4.703
42235W        W14561  43.236  18.621  14.344
42236W        W14562   5.645  27.016   2.252
42237W        W14563  38.181  24.895  12.094
42238W        W14564  12.117   3.086   2.310
42239W        W14565   6.314   5.705   3.886
42240W        W14566   7.881  29.172  14.437
42241W        W14567  25.045  31.416  10.695
42242W        W14568   2.951  25.633   4.450
42243W        W14569  10.796  27.119  10.386
42244W        W14570  35.474   5.509   4.006
42245W        W14571  43.506  37.078  10.801
42246W        W14572  17.520  31.045   0.389
42247W        W14573  42.148  42.157  11.120
42248W        W14574  27.658   2.451   3.627
42249W        W14575  28.090  42.475  11.078
42250W        W14576  20.061  12.896   1.859
42251W        W14577  38.472  35.150  10.653
42252W        W14578  10.710  25.009  12.060
42253W        W14579  14.152   3.907  10.774
42254W        W14580  16.385  29.614   3.358
42255W        W14581  30.593  22.706   1.258
42256W        W14582  24.910  32.533   1.437
42257W        W14583  14.864   0.157  14.985
42258W        W14584  12.600  40.886   0.151
42259W        W14585   1.971  26.681   2.840
42260W        W14586  42.989  20.506  12.052
42261W        W14587  32.111  40.159   0.624
42262W        W14588  43.218   0.825  13.049
42263W        W14589  11.122  24.674   3.155
42264W        W14590  44.838   3.266  14.494
42265W        W14591  19.765  19.957   2.548
42266W        W14592  19.025  15.334  12.364
42267W        W14593  26.482  26.050  10.705
42268W        W14594  26.294   0.811   3.634
42269W        W14595  42.483  39.337   0.137
42270W        W14596  35.809  12.592   0.302
42271W        W14597  37.868  37.663   2.025
42272W        W14598  39.784  38.457   3.334
42273W        W14599  14.187  11.719  12.964
42274W        W14600  15.599   2.337  13.833
42275W        W14601  22.771  33.979  13.079
42276W        W14602  36.388  18.467   0.254
42277W        W14603  10.011  25.259  10.642
42278W        W14604  30.448  32.590   0.938
42279W        W14605  40.362  42.901  11.199
42280W        W14606  25.935  16.320   2.822
42281W        W14607  12.031  41.895  11.655
42282W        W14608  23.537  28.209   3.331
42283W        W14609  29.604   1.979   1.882
42284W        W14610  11.362  30.804   2.221
42285W        W14611  13.688  43.698   1.028
42286W        W14612  23.678  12.668   3.541
42287W        W14613  24.275  40.357   5.126
42288W        W14614  23.208  10.671  13.593
42289W        W14615  29.562  26.742  14.055
42290W        W14616   3.010  11.942   9.826
42291W        W14617  12.201   9.692  14.529
42292W        W14618  31.319  21.280   0.028
42293W        W14619   7.709  10.688   3.260
42294W        W14620  37.971   2.559  11.118
42295W        W14621  32.487  33.722  10.462
42296W        W14622   2.702  33.060  14.254
42297W        W14623   6.859  27.610   3.287
42298W        W14624  19.526  10.156  13.080
42299W        W14625   4.822  29.867  13.910
42300W        W14626  17.765  42.856  11.391
42301W        W14627  43.397  28.164  13.112
42302W        W14628  41.921   2.331   2.104
42303W        W14629  37.906  37.245   3.979
42304W        W14630   1.225  17.372   0.805
42305W        W14631  31.633  13.280  12.559
42306W        W14632   3.951  19.752  13.446
42307W        W14633  10.030  29.869   2.957
42308W        W14634  21.645   6.679  11.214
42309W        W14635  18.275  18.753   3.898
42310W        W14636  28.763  27.734   1.241
42311W        W14637   6.930  17.065  11.215
42312W        W14638  13.746   1.058   0.676
42313W        W14639   0.618  42.702  14.577
42314W        W14640  42.045  20.258  12.348
42315W        W14641  18.500  10.178  13.248
42316W        W14642   6.426  32.090  11.217
42317W        W14643  34.467  30.106   3.585
42318W        W14644  30.032  10.894  11.460
42319W        W14645   6.709  41.356   0.625
42320W        W14646  29.945   3.680   9.910
42321W        W14647  28.556  27.225  13.285
42322W        W14648  17.062  44.794   1.419
42323W        W14649   5.858   1.414  13.840
42324W        W14650  38.613   5.250   2.329
42325W        W14651  36.142   7.702  12.520
42326W        W14652   4.370  35.185   2.697
42327W        W14653  10.331  24.491   2.710
42328W        W14654   4.370  37.044  13.882
42329W        W14655  26.650  22.206   2.867
42330W        W14656   1.803  27.254   4.765
42331W        W14657  26.516   2.844  12.987
42332W        W14658  39.506   4.345  11.728
42333W        W14659  31.832  33.673  14.598
42334W        W14660  18.225   9.964   4.676
42335W        W14661  20.334  32.421   0.483
42336W        W14662  42.681  22.590  12.932
42337W        W14663  20.882  21.348  11.928
42338W        W14664  42.689  28.459  11.996
42339W        W14665  19.725  43.600  12.135
42340W        W14666  39.218  35.319  13.426
42341W        W14667  19.262  16.274  11.265
42342W        W14668  18.023  14.229  10.759
42343W        W14669  28.441  38.518   4.861
42344W        W14670  19.736   7.640   2.378
42345W        W14671  44.491  20.616   0.460
42346W        W14672  11.319  26.973  14.976
42347W        W14673  24.817  40.207   5.650
42348W        W14674   9.902  13.884   1.163
42349W        W14675  33.310   6.783  12.744
42350W        W14676  41.295  17.695   0.452
42351W        W14677  30.482  41.390  12.011
42352W        W14678   0.155  11.435  10.327
42353W        W14679  14.991  37.119   2.534
42354W        W14680  19.454  37.192   2.725
42355W        W14681  24.624   3.047  13.827
42356W        W14682  31.942  22.608  14.852
42357W        W14683   9.787  25.650   3.685
42358W        W14684  25.176  19.091   0.533
42359W        W14685  33.069   1.213  11.585
42360W        W14686   8.778  17.563  12.417
42361W        W14687  19.637   1.008   3.145
42362W        W14688  37.002  31.234   0.034
42363W        W14689   4.846  15.403  10.550
42364W        W14690  38.016  31.186   1.183
42365W        W14691  26.010  44.972  12.966
42366W        W14692   6.697  40.637  10.484
42367W        W14693   4.462   4.409   5.466
42368W        W14694  37.249   4.143   3.279
42369W        W14695  36.859  27.789   4.259
42370W        W14696  20.406   0.251   1.760
42371W        W14697  43.388   3.172   9.849
42372W        W14698  16.498  21.067   0.384
42373W        W14699   3.943  34.459   4.567
42374W        W14700  32.408   4.771   4.131
42375W        W14701  25.210  43.823   4.851
42376W        W14702  15.596  30.489   1.687
42377W        W14703  22.441  21.739  10.135
42378W        W14704  24.724  20.510  13.319
42379W        W14705  25.268   6.362  11.590
42380W        W14706  16.277   2.190   0.637
42381W        W14707  10.764   6.855   1.901
42382W        W14708  11.139  35.551   4.075
42383W        W14709  35.879  26.458   1.729
42384W        W14710  31.948  15.047  11.249
42385W        W14711  16.727  31.107  13.064
42386W        W14712  17.670  36.669  11.174
42387W        W14713  35.551  23.866   0.909
42388W        W14714   2.551   3.506  13.289
42389W        W14715   1.929   1.841  13.353
42390W        W14716   1.076  23.123   1.264
42391W        W14717  40.382  13.259  13.246
42392W        W14718   1.282   0.746  14.422
42393W        W14719  33.409   2.341   0.892
42394W        W14720  40.376  42.420   4.888
42395W        W14721  34.908  20.457  11.106
42396W        W14722  37.583  44.776  13.826
42397W        W14723  13.067  12.247   4.343
42398W        W14724  22.157  44.593   1.928
42399W        W14725  40.559  16.298   4.096
42400W        W14726   1.264   0.165  11.514
42401W        W14727  29.529  34.578   0.842
42402W        W14728  24.541  39.399   3.952
42403W        W14729  39.762  23.712  14.748
42404W        W14730  16.437   8.833   3.682
42405W        W14731  36.427   6.294   2.741
42406W        W14732  32.138  30.431  12.832
42407W        W14733  38.745  19.861   2.817
42408W        W14734  33.600   5.322   3.520
42409W        W14735  34.687  16.227  11.074
42410W        W14736  32.441  43.625   0.923
42411W        W14737   8.214   1.504   3.153
42412W        W14738  21.781  11.359  10.263
42413W        W14739  32.000   2.399  10.614
42414W        W14740  20.263  20.652  11.932
42415W        W14741  43.069   1.319   0.195
42416W        W14742  11.341  34.585   1.006
42417W        W14743   2.025  40.621  13.114
42418W        W14744   4.279  21.713   4.480
42419W        W14745  17.580  11.738  14.476
42420W        W14746  14.683  21.721   0.926
42421W        W14747  42.084  16.536  14.381
42422W        W14748  32.329  20.801  14.026
42423W        W14749  33.009  40.490  14.449
42424W        W14750  10.677  14.809  10.642
42425W        W14751   7.002  43.893  12.962
42426W        W14752  21.794   6.450   4.856
42427W        W14753  14.375  17.712  11.999
42428W        W14754   0.663  20.741  12.046
42429W        W14755  38.370  15.950  10.838
42430W        W14756   4.243  21.231   2.295
42431W        W14757  10.347  20.562  13.327
42432W        W14758  21.122  21.023  13.747
42433W        W14759   4.207  17.590  11.210
42434W        W14760  33.889  25.875  12.671
42435W        W14761  13.935   9.190   3.804
42436W        W14762  16.413  15.487   4.416
42437W        W14763  36.590   3.929   3.267
42438W        W14764  21.195  41.846  14.320
42439W        W14765   4.893  38.441  14.382
42440W        W14766   1.744  39.241  13.144
42441W        W14767  17.388  32.448  14.462
42442W        W14768  42.886  32.642  13.824
42443W        W14769   5.231  36.402   4.542
42444W        W14770  37.065  14.405   0.980
42445W        W14771  40.853   9.154  12.042
42446W        W14772  17.725  12.727   3.793
42447W        W14773   1.091  27.341  12.295
42448W        W14774   0.798   5.961  11.664
42449W        W14775  41.426  13.663   4.355
42450W        W14776  42.850  40.003  10.340
42451W        W14777   0.125  13.945  11.065
42452W        W14778  39.679  24.461  11.117
42453W        W14779   3.844  21.958   1.696
42454W        W14780  27.135   1.263  11.215
42455W        W14781  17.545  41.905  14.948
42456W        W14782  39.781  23.199  14.631
42457W        W14783  33.088  20.567  11.581
42458W        W14784  25.602  43.471   4.928
42459W        W14785  23.779  29.092   0.794
42460W        W14786  27.704  21.611   3.363
42461W        W14787  33.818   9.213   0.989
42462W        W14788  19.022  25.547   0.196
42463W        W14789  41.434   7.730   3.359
42464W        W14790  26.912   1.465  11.632
42465W        W14791   7.326  33.672   4.270
42466W        W14792  41.120   6.404   2.820
42467W        W14793  39.091   7.589   3.062
42468W        W14794  32.946   2.897   2.353
42469W        W14795   9.755  18.261   0.194
42470W        W14796  18.171  36.121   0.878
42471W        W14797  43.021  25.420  11.177
42472W        W14798  11.369  30.456  13.030
42473W        W14799  13.583  34.457  14.982
42474W        W14800  19.967  18.763   2.577
42475W        W14801   5.450  13.265   3.418
42476W        W14802  30.444   7.501   5.120
42477W        W14803  25.502  41.195  14.762
42478W        W14804  35.964  14.717   0.556
42479W        W14805  44.249  16.992  12.467
42480W        W14806  29.118  26.061   5.505
42481W        W14807  38.008  33.861  14.355
42482W        W14808  26.161  18.086  14.969
42483W        W14809  27.947   3.839  12.378
42484W        W14810   1.833   9.454   2.296
42485W        W14811   4.005  15.621  13.911
42486W        W14812  35.472  31.558   4.165
42487W        W14813  24.098  42.441   1.982
42488W        W14814  24.432  25.522  13.080
42489W        W14815  25.234   9.780   1.677
42490W        W14816  19.549  18.998   2.129
42491W        W14817  13.667   2.286   1.296
42492W        W14818  30.956  23.081   1.275
42493W        W14819  12.389  39.030   1.235
42494W        W14820  15.564   8.737  13.360
42495W        W14821   5.114  19.553   4.556
42496W        W14822   3.339  37.208   0.343
42497W        W14823   6.394  16.927  13.519
42498W        W14824   3.922  23.633   1.773
42499W        W14825  42.879   2.392  10.603
42500W        W14826  15.760  10.249  11.346
42501W        W14827  13.597   4.451  11.452
42502W        W14828   8.805  16.643   2.177
42503W        W14829  17.822  43.039  10.542
42504W        W14830   2.734   4.079  14.882
42505W        W14831  22.274   8.708   1.339
42506W        W14832  18.114   7.755  14.261
42507W        W14833  37.585  32.527   3.131
42508W        W14834  27.699  15.790   1.387
42509W        W14835  13.347  18.769  12.498
42510W        W14836   9.662  41.784   2.195
42511W        W14837  12.083  21.478   1.670
42512W        W14838  36.347   2.630  13.341
42513W        W14839  36.068   3.503  14.896
42514W        W14840   4.973  14.191  12.942
42515W        W14841  10.245  41.652   0.966
42516W        W14842  28.089   5.516   4.719
42517W        W14843  34.327   6.511  11.105
42518W        W14844  18.820  41.889   4.421
42519W        W14845  20.556  38.092   4.136
42520W        W14846  24.743   9.877  10.577
42521W        W14847  31.397  44.459  12.533
42522W        W14848  38.326  21.147   2.444
42523W        W14849  10.101  30.650   3.750
42524W        W14850   0.289  43.076  14.437
42525W        W14851   3.266  43.068   4.677
42526W        W14852  19.707  35.700   2.291
42527W        W14853  30.313  14.792   2.787
42528W        W14854  42.029  29.797   2.183
42529W        W14855   4.470  36.592  12.450
42530W        W14856   8.216  19.663  10.663
42531W        W14857  15.871   7.227   4.942
42532W        W14858  21.568  41.466  14.125
42533W        W14859  33.749   9.235   2.916
42534W        W14860  18.140   5.946   2.797
42535W        W14861  13.882   7.761   0.772
42536W        W14862  30.216  37.878   2.554
42537W        W14863  39.361  30.688   0.387
42538W        W14864   4.394  20.622   3.163
42539W        W14865   0.076  30.405  14.338
42540W        W14866  30.117  42.617  11.161
42541W        W14867   8.375  15.127  12.495
42542W        W14868  18.127  23.904   2.211
42543W        W14869  14.273  23.315  12.580
42544W        W14870  18.363  22.071  14.798
42545W        W14871  22.302   9.733  11.123
42546W        W14872  32.869  18.590   1.928
42547W        W14873   4.657  11.286  13.477
42548W        W14874  26.956  34.146  11.100
42549W        W14875  44.048  30.611   2.645
42550W        W14876   9.472   7.361  10.281
42551W        W14877  10.204  16.827   1.864
42552W        W14878   0.841  26.566  13.638
42553W        W14879   4.901  42.847   4.578
42554W        W14880  32.248   5.151  14.448
42555W        W14881  43.853  15.135   0.687
42556W        W14882  39.402   2.067  12.391
42557W        W14883  20.487  36.632   1.933
42558W        W14884  20.956  35.327  13.076
42559W        W14885  28.978   6.040  14.031
42560W        W14886  41.655  41.917   0.404
42561W        W14887  44.010  20.476  14.542
42562W        W14888  27.698  22.812  12.963
42563W        W14889  36.625  14.628  12.357
42564W        W14890  14.908  29.257   3.887
42565W        W14891   5.163  38.882   2.855
42566W        W14892  43.031   2.422  11.097
42567W        W14893  16.059  28.588   4.241
42568W        W14894  35.119  40.970  14.876
42569W        W14895   1.937   3.874   5.229
42570W        W14896  30.653  38.903  11.888
42571W        W14897  16.100   0.108  10.821
42572W        W14898  22.087  33.961   2.463
42573W        W14899  22.476  44.545  14.848
42574W        W14900  16.388   5.372   2.789
42575W        W14901  20.932  44.674   4.951
42576W        W14902  35.261  35.161   9.795
42577W        W14903   6.110  25.245   1.180
42578W        W14904   1.130   9.585  11.158
42579W        W14905  19.423  30.367   3.365
42580W        W14906  37.158   1.824   0.328
42581W        W14907  27.087   7.444   4.588
42582W        W14908  12.024  28.034  12.317
42583W        W14909  33.776  21.499   1.150
42584W        W14910  30.059  29.976  13.916
42585W        W14911  26.447  12.747   0.874
42586W        W14912  29.503   4.922  10.659
42587W        W14913  24.235  31.434   2.786
42588W        W14914   6.106  21.004  12.003
42589W        W14915  36.029  23.513  11.160
42590W        W14916  37.635  29.079   0.846
42591W        W14917  31.445  12.128  13.998
42592W        W14918   6.335   9.879  11.214
42593W        W14919  40.443  26.694   0.291
42594W        W14920  23.826  33.972   2.822
42595W        W14921  15.497  27.271   1.665
42596W        W14922  34.314  24.227   4.108
42597W        W14923  40.031   5.530  12.803
42598W        W14924  19.693  35.755   3.793
42599W        W14925   3.961  11.406   3.795
42600W        W14926  43.277  29.988   0.890
42601W        W14927  21.458  39.522  11.039
42602W        W14928  10.069  23.697   1.616
42603W        W14929  37.419  32.274   2.299
42604W        W14930  39.554  25.362  11.925
42605W        W14931  21.118  21.506   4.640
42606W        W14932  39.927   6.604  12.935
42607W        W14933   0.985  36.040  14.202
42608W        W14934  25.054   7.191   3.241
42609W        W14935  42.443  43.835  13.329
42610W        W14936  18.321  14.343  13.928
42611W        W14937  44.776  42.356   4.112
42612W        W14938  32.456  42.942   4.913
42613W        W14939  21.221   0.045   4.721
42614W        W14940  15.304  15.889  12.420
42615W        W14941  23.027   2.852   1.297
42616W        W14942  16.651  41.271  12.077
42617W        W14943   8.459   2.574  13.566
42618W        W14944  30.462  15.225  12.602
42619W        W14945  26.618  44.090  14.901
42620W        W14946  33.966   8.872  13.398
42621W        W14947   5.239   5.839  10.690
42622W        W14948  43.704   3.806   3.633
42623W        W14949  42.439   9.198   4.053
42624W        W14950  40.009  29.225   4.518
42625W        W14951  25.751  40.141   3.340
42626W        W14952  22.419  21.558   1.286
42627W        W14953  31.400  19.914  14.413
42628W        W14954  10.696   5.414  11.181
42629W        W14955   4.354  27.177  10.641
42630W        W14956   8.089  24.045  12.487
42631W        W14957  22.556  29.487   4.159
42632W        W14958  28.984  33.646  12.056
42633W        W14959  22.626  31.653   2.817
42634W        W14960  25.630   0.051  13.816
42635W        W14961  13.249  13.506  11.976
42636W        W14962  19.739  24.962  10.631
42637W        W14963   1.084  15.468   1.324
42638W        W14964   8.241  37.888   0.218
42639W        W14965   5.289  26.802  11.921
42640W        W14966   1.298  18.732   3.790
42641W        W14967  17.807   7.285  13.630
42642W        W14968  30.942  25.577  14.709
42643W        W14969  40.998   0.129  11.123
42644W        W14970  30.253   8.246  11.116
42645W        W14971   5.147  11.340   1.253
42646W        W14972   3.417  13.848   1.770
42647W        W14973  12.818  40.493  12.347
42648W        W14974   1.579  42.045   4.119
42649W        W14975  35.620  42.355  14.564
42650W        W14976  10.704  23.144  13.347
42651W        W14977  22.353  26.584  13.487
42652W        W14978   3.380  33.414   2.294
42653W        W14979  13.811  16.131   3.143
42654W        W14980   4.596   3.467   5.444
42655W        W14981  41.879  27.164  12.991
42656W        W14982  14.743  26.494   4.684
42657W        W14983  39.475  25.934   0.811
42658W        W14984  30.013  30.935  12.993
42659W        W14985  20.727  20.870  11.888
42660W        W14986  32.622   7.410   4.583
42661W        W14987  44.500  37.226  10.588
42662W        W14988  28.060  42.110  14.959
42663W        W14989   8.265  12.766   0.237
42664W        W14990  41.029  41.806  12.933
42665W        W14991  31.177  10.118  12.992
42666W        W14992   1.957   6.911   4.006
42667W        W14993  21.931  28.471  14.303
42668W        W14994   2.635   4.657   9.661
42669W        W14995  18.187  24.750  14.635
42670W        W14996  25.208  13.987  11.556
42671W        W14997  15.223  12.682  10.934
42672W        W14998  14.853  38.957   1.787
42673W        W14999  43.252   0.548   1.554
42674W        W15000  16.131   2.926  13.390
42675W        W15001  32.470  39.548   4.235
42676W        W15002  40.952  33.619  13.794
42677W        W15003   4.984  19.497   1.848
42678W        W15004  18.472   8.438   3.181
42679W        W15005  10.642   3.216   2.195
42680W        W15006   8.886  29.782   0.927
42681W        W15007  18.153  25.909   0.783
42682W        W15008  36.152  41.503   1.796
42683W        W15009  22.550  34.400  12.896
42684W        W15010  42.449  43.869   4.353
42685W        W15011  17.169  25.097  13.790
42686W        W15012  21.032  19.072  10.774
42687W        W15013   0.187  36.084   1.276
42688W        W15014  28.806  19.261   1.863
42689W        W15015  22.816  25.540  11.149
42690W        W15016   0.373  15.706  12.423
42691W        W15017  24.707  19.232   2.166
42692W        W15018  25.547  43.685  14.355
42693W        W15019   6.942  36.489   1.260
42694W        W15020  10.362  41.297   3.668
42695W        W15021   2.716   4.162   0.758
42696W        W15022  32.551  42.413  14.508
42697W        W15023  25.033  27.052  13.878
42698W        W15024  36.242   0.487   2.769
42699W        W15025  40.560  19.573  13.857
42700W        W15026  14.181  12.264  10.908
42701W        W15027  39.471  16.435  13.445
42702W        W15028  11.525   0.708  11.733
42703W        W15029  28.718  16.850   1.514
42704W        W15030  31.331  21.693  12.837
42705W        W15031  21.783  44.228   4.897
42706W        W15032  25.303  23.764  13.936
42707W        W15033  31.957   3.345   2.409
42708W        W15034  38.003  15.760   4.507
42709W        W15035  40.213  19.470   1.898
42710W        W15036  34.368  15.109   1.749
42711W        W15037  25.911  11.757  10.661
42712W        W15038  33.989  44.558  10.213
42713W        W15039  24.276  17.036   3.642
42714W        W15040  20.498  15.743  14.985
42715W        W15041  42.940  27.907  14.037
42716W        W15042   4.385  37.169   3.198
42717W        W15043  25.107  26.772  10.265
42718W        W15044  10.273  22.563   2.784
42719W        W15045   8.812  25.032  12.058
42720W        W15046  26.019  34.028   0.970
42721W        W15047  30.623  21.582  12.518
42722W        W15048  43.324  36.262   0.348
42723W        W15049  39.832  27.617   0.473
42724W        W15050  12.061  37.847   2.317
42725W        W15051  20.315  14.383   0.473
42726W        W15052   3.417   3.023   0.308
42727W        W15053  35.554  32.943   9.809
42728W        W15054   0.191  32.529  13.591
42729W        W15055  29.476  32.484  14.659
42730W        W15056   1.540  36.810  13.870
42731W        W15057  20.740  23.706  12.474
42732W        W15058  29.587   4.379  14.520
42733W        W15059  35.034   2.891   1.273
42734W        W15060   6.603  13.242   2.702
42735W        W15061  24.181   3.632   0.241
42736W        W15062   9.798  20.187  10.438
42737W        W15063  10.470   4.148  11.520
42738W        W15064   2.272   8.700   2.054
42739W        W15065  31.077  10.687  10.629
42740W        W15066  18.174   6.547  12.127
42741W        W15067   2.006  28.130  12.069
42742W        W15068  35.146   3.291  13.960
42743W        W15069   4.295  37.987   4.706
42744W        W15070  21.044   1.449   2.859
42745W        W15071  16.747  31.334  12.384
42746W        W15072   4.755  21.221   1.272
42747W        W15073   3.430  27.581  10.503
42748W        W15074  17.071   6.381  13.791
42749W        W15075  12.190  23.121  11.171
42750W        W15076  28.495  44.182  10.101
42751W        W15077  22.328  22.012  14.732
42752W        W15078   2.696  33.104   3.357
42753W        W15079   0.324   3.843   2.937
42754W        W15080   3.098  13.334   0.409
42755W        W15081  21.890  17.554  14.050
42756W        W15082  31.888  24.637   3.323
42757W        W15083  33.889  33.568  13.048
42758W        W15084  24.746  15.685   4.820
42759W        W15085  24.521  20.051   3.185
42760W        W15086   3.466  42.930   0.959
42761W        W15087  18.062  17.823   4.915
42762W        W15088   6.457  23.120   0.690
42763W        W15089  40.914  36.545   1.445
42764W        W15090  17.272  25.520  11.060
42765W        W15091  41.373   8.250   3.282
42766W        W15092  41.919  43.978   4.622
42767W        W15093   1.188  35.514   2.626
42768W        W15094  37.081  43.725   1.371
42769W        W15095  16.819  44.286   0.973
42770W        W15096  17.050  33.438  14.459
42771W        W15097  30.614  28.459  11.569
42772W        W15098  14.760  11.334   1.626
42773W        W15099  33.453  16.817  10.638
42774W        W15100   2.334  28.587  11.077
42775W        W15101   4.541  20.051  13.491
42776W        W15102  35.617  10.763  13.097
42777W        W15103  17.717  39.254  11.935
42778W        W15104   1.571  23.028  13.731
42779W        W15105  20.378  18.282  10.656
42780W        W15106  33.086  41.333  12.052
42781W        W15107  27.175  30.594   3.060
42782W        W15108  43.664   8.822   1.686
42783W        W15109  22.094  21.301  13.301
42784W        W15110  19.785   4.651   0.887
42785W        W15111  39.441  26.686   1.956
42786W        W15112  22.551  44.830   2.314
42787W        W15113   6.434   5.382  10.671
42788W        W15114  24.492   9.914   0.526
42789W        W15115  14.049  28.003  12.104
42790W        W15116  15.194   7.367   4.061
42791W        W15117  36.905   2.861  11.215
42792W        W15118  10.290  26.102  14.367
42793W        W15119  11.326   2.755  14.305
42794W        W15120  26.128  29.931  12.545
42795W        W15121  21.190  12.493  12.509
42796W        W15122   5.830  13.338   4.262
42797W        W15123  24.756   5.895   3.196
42798W        W15124  25.691  10.214  14.922
42799W        W15125  39.540   9.213  11.890
42800W        W15126  36.093  27.972   1.643
42801W        W15127  31.548  18.605  14.865
42802W        W15128  37.997   4.302  11.194
42803W        W15129  44.965  12.395   4.218
42804W        W15130  26.240  15.662  12.943
42805W        W15131  29.530  24.150  13.656
42806W        W15132  15.722  37.506   3.225
42807W        W15133  24.615  10.627   3.250
42808W        W15134  33.990  37.424  14.665
42809W        W15135  38.825  35.607   2.669
42810W        W15136  23.443  11.643   1.433
42811W        W15137   4.232  34.631   0.933
42812W        W15138  40.409  13.867   1.548
42813W        W15139   8.723  39.493   1.432
42814W        W15140  42.872  16.428   3.126
42815W        W15141  44.340  32.837  10.753
42816W        W15142  28.228  44.458   1.743
42817W        W15143  35.407  12.844  14.003
42818W        W15144  20.615  12.622  11.482
42819W        W15145  24.729   1.891   4.513
42820W        W15146  22.183  18.213  13.566
42821W        W15147  29.943   1.173  12.477
42822W        W15148  15.030  44.050   3.736
42823W        W15149  19.248   6.597  13.057
42824W        W15150  35.799   2.816   2.782
42825W        W15151  39.898  14.067  14.095
42826W        W15152  38.781  38.601  14.733
42827W        W15153  13.323   9.639  11.554
42828W        W15154   9.296  41.329   1.864
42829W        W15155  33.651  41.948   1.323
42830W        W15156  11.779   8.651   2.644
42831W        W15157  17.338  42.404   3.781
42832W        W15158   7.715  10.687   1.638
42833W        W15159  34.529  10.634   3.145
42834W        W15160   3.972   3.356   2.378
42835W        W15161  16.286  44.978   2.777
42836W        W15162  36.850  19.469  12.251
42837W        W15163  23.574  44.215   1.825
42838W        W15164  33.550   3.998   0.897
42839W        W15165  21.263  26.172   3.333
42840W        W15166   8.369   1.781  11.552
42841W        W15167   1.333  29.132  12.500
42842W        W15168   4.610   0.820  13.969
42843W        W15169   7.856   1.042  12.721
42844W        W15170  37.923  14.631  13.753
42845W        W15171  39.974  32.932   0.790
42846W        W15172  10.355   1.207  12.421
42847W        W15173   5.763  32.344  12.567
42848W        W15174  21.007  22.959   0.256
42849W        W15175  34.904   0.832   4.173
42850W        W15176   1.971  32.487   1.858
42851W        W15177  20.244  32.819   2.377
42852W        W15178  39.336  44.803  11.040
42853W        W15179   9.986  13.844   2.671
42854W        W15180  13.917  20.084  11.724
42855W        W15181  17.002  13.537   4.115
42856W        W15182   6.828  14.404   4.252
42857W        W15183   5.106  29.810  14.331
42858W        W15184  28.249  43.453  12.777
42859W        W15185  21.608  13.327  14.922
42860W        W15186  35.749  30.493   3.210
42861W        W15187  40.563   4.427   0.297
42862W        W15188  22.635  40.795  12.317
42863W        W15189  20.057   4.764   1.317
42864W        W15190  33.572  21.244  12.968
42865W        W15191   1.708  38.056   4.705
42866W        W15192  22.866  40.136   5.165
42867W        W15193  29.169  28.665  10.576
42868W        W15194  17.833  17.720   0.706
42869W        W15195  43.445   3.893  12.706
42870W        W15196   8.371  44.023   4.625
42871W        W15197  22.443  23.589   9.732
42872W        W15198  13.333   2.713   1.306
42873W        W15199  29.975   2.400   4.538
42874W        W15200  35.972  39.843  11.344
42875W        W15201   0.459  37.937  13.102
42876W        W15202  12.771  31.442  13.491
42877W        W15203   6.673  37.319   4.525
42878W        W15204  33.375  36.455   0.770
42879W        W15205  37.750  30.378   2.276
42880W        W15206  23.777   0.685  11.659
42881W        W15207  36.368  24.758   0.740
42882W        W15208  26.665  27.655   2.783
42883W        W15209  14.680  12.590   1.819
42884W        W15210  35.306  34.666  11.129
42885W        W15211   0.230  23.734  12.905
42886W        W15212  10.371  30.902   4.718
42887W        W15213  25.916  14.404   1.328
42888W        W15214  26.055  10.071  11.109
42889W        W15215  12.758  31.573   3.124
42890W        W15216  38.445  42.599  14.975
42891W        W15217  38.553   3.988   4.305
42892W        W15218   7.788  18.040   1.923
42893W        W15219  31.598  29.570   1.972
42894W        W15220   6.268  30.415  11.905
42895W        W15221  28.958  15.195   4.077
42896W        W15222  10.864  24.151  11.513
42897W        W15223  23.510  44.278  13.803
42898W        W15224  16.321  43.931   2.691
42899W        W15225  18.915  21.914  13.909
42900W        W15226  41.407   9.326   4.819
42901W        W15227   6.258  42.922  14.438
42902W        W15228  39.493  30.300  13.865
42903W        W15229  43.715  29.548  14.669
42904W        W15230  34.682  40.016  13.393
42905W        W15231  26.189   7.723   0.785
42906W        W15232  14.234  14.247  10.557
42907W        W15233  18.242  37.435  11.107
42908W        W15234  36.847  22.788   2.789
42909W        W15235  11.974  35.425   2.412
42910W        W15236   9.913  36.808  10.798
42911W        W15237  13.245  36.039   5.015
42912W        W15238  30.150   5.663  11.607
42913W        W15239  24.623   4.215  10.713
42914W        W15240  21.102  44.914  14.333
42915W        W15241  21.252   6.406   1.234
42916W        W15242  25.378   8.339  11.657
42917W        W15243  11.844  25.903  11.846
42918W        W15244  34.709  32.484  10.386
42919W        W15245  19.316  13.280   0.951
42920W        W15246  34.107   5.480  13.936
42921W        W15247  40.906  15.857   2.195
42922W        W15248  30.906  14.636   3.581
42923W        W15249  26.155  22.251   4.303
42924W        W15250  29.080  17.580  13.902
42925W        W15251  29.999  31.699  11.064
42926W        W15252  11.773  43.354  12.862
42927W        W15253  11.883  42.002   3.326
42928W        W15254  29.510   5.540   3.869
42929W        W15255  33.886  42.933   3.229
42930W        W15256   3.891  10.037   0.593
42931W        W15257  37.068   6.306  14.270
42932W        W15258  32.502  26.542  13.599
42933W        W15259  39.316  41.985  11.927
42934W        W15260   8.764   8.822   1.224
42935W        W15261   5.811  38.356  11.987
42936W        W15262  37.966  22.073   1.027
42937W        W15263  33.458  36.498   2.237
42938W        W15264  25.125  15.360  12.084
42939W        W15265   8.283  24.659  14.634
42940W        W15266  20.200  18.954   0.365
42941W        W15267  37.622  35.468   0.508
42942W        W15268  23.693  12.563   0.472
42943W        W15269  43.920  32.994  14.835
42944W        W15270  31.658  41.412  13.888
42945W        W15271   9.205   1.523  11.041
42946W        W15272  22.122  13.007   1.082
42947W        W15273  41.464  31.941   0.821
42948W        W15274  42.816  35.343   1.520
42949W        W15275  33.080   5.536   4.423
42950W        W15276  17.378   8.627   1.268
42951W        W15277   7.393   4.840  14.084
42952W        W15278  23.195   4.741   4.168
42953W        W15279  11.094  41.520  11.715
42954W        W15280  41.390  21.182  11.644
42955W        W15281  28.926  34.320   1.460
42956W        W15282  39.327  23.566   4.337
42957W        W15283  27.255  42.555   3.617
42958W        W15284  39.546  41.884   1.054
42959W        W15285  20.198  24.433   3.916
42960W        W15286   9.243   3.305   4.466
42961W        W15287  18.657   6.265  11.118
42962W        W15288  24.795   5.957  14.340
42963W        W15289  25.969  10.567  14.436
42964W        W15290  16.695  20.489   3.861
42965W        W15291  37.954  33.960  11.609
42966W        W15292   7.314  10.362  11.889
42967W        W15293  38.435  18.077   1.368
42968W        W15294  39.881  10.531  14.351
42969W        W15295  44.439   3.701   3.103
42970W        W15296  29.125   0.331   0.273
42971W        W15297   1.620   6.257  12.878
42972W        W15298  12.875  31.166  14.875
42973W        W15299   5.258  28.067   3.202
42974W        W15300  37.648  30.166  13.021
42975W        W15301   4.529  33.121   2.828
42976W        W15302  22.026   3.851   1.310
42977W        W15303  34.590  18.327   1.331
42978W        W15304  21.602  38.167   4.990
42979W        W15305  25.531  18.802   0.046
42980W        W15306  34.570   2.730   1.486
42981W        W15307  29.384  43.553   4.386
42982W        W15308  19.459  44.410   2.157
42983W        W15309   9.156  25.660   1.807
42984W        W15310  27.713  41.767  14.728
42985W        W15311  14.693  43.523  10.691
42986W        W15312  32.012  33.046   0.808
42987W        W15313   1.416  18.262   1.817
42988W        W15314  42.504   5.454   3.973
42989W        W15315  19.317  11.174   0.798
42990W        W15316  36.924  41.373   0.316
42991W        W15317  22.193   9.149  10.688
42992W        W15318   0.548  11.767  10.251
42993W        W15319   9.327  10.316   1.572
42994W        W15320   8.770   8.757   0.725
42995W        W15321  11.754  18.552   2.993
42996W        W15322  21.106  38.014  13.144
42997W        W15323   2.837   1.734  13.347
42998W        W15324   1.703  31.574   0.938
42999W        W15325   0.392  16.235  10.701
43000W        W15326  30.001   9.873  12.446
43001W        W15327  34.005  31.963   1.832
43002W        W15328  41.371  19.633  12.410
43003W        W15329  25.939   2.783  12.939
43004W        W15330  37.874   9.666  13.974
43005W        W15331  36.024  29.014  14.423
43006W        W15332  17.807  13.463  14.823
43007W        W15333  27.467  39.902   4.482
43008W        W15334   1.564  27.522   1.333
43009W        W15335  27.936  25.010   2.229
43010W        W15336  34.277  21.782  11.395
43011W        W15337  37.022  43.425   0.390
43012W        W15338  16.858   4.026   3.823
43013W        W15339   7.264  15.657   0.458
43014W        W15340   3.366  15.172  14.223
43015W        W15341  44.493  15.181   3.891
43016W        W15342  32.499  20.737   4.904
43017W        W15343   5.252   4.622   0.478
43018W        W15344   4.742  18.201   0.930
43019W        W15345   0.071  40.346  14.865
43020W        W15346  35.677  13.352   0.878
43021W        W15347  37.672   4.776  14.297
43022W        W15348  42.487   9.380   2.263
43023W        W15349  41.339  28.947  14.843
43024W        W15350  22.712   0.779  10.781
43025W        W15351  21.274  37.300   1.471
43026W        W15352  17.629  10.235  11.605
43027W        W15353  10.325   2.438   4.390
43028W        W15354  34.789   5.980   2.318
43029W        W15355   1.388  36.611   4.135
43030W        W15356  42.343  26.127   3.428
43031W        W15357   3.829  31.752   4.842
43032W        W15358  34.504  24.545  11.505
43033W        W15359  37.042  25.821  14.518
43034W        W15360  20.891   0.603  12.134
43035W        W15361  33.094  18.606   1.471
43036W        W15362  32.683  28.690   1.724
43037W        W15363  14.366   0.012   1.865
43038W        W15364  41.500   8.301  11.100
43039W        W15365   8.291  13.721   1.130
43040W        W15366  14.809  39.569   4.707
43041W        W15367  38.182   0.563  11.975
43042W        W15368   2.847  14.707   2.577
43043W        W15369  36.583   3.339   5.028
43044W        W15370   7.661  36.409   1.754
43045W        W15371  37.073  27.039   1.406
43046W        W15372  44.683  40.373  11.265
43047W        W15373  30.257  43.769   0.278
43048W        W15374  25.059  28.203   3.225
43049W        W15375  22.060  12.563   1.346
43050W        W15376  44.353   6.195   4.537
43051W        W15377  14.445  33.372  14.907
43052W        W15378  22.446  22.754  12.959
43053W        W15379   1.853  26.386  13.982
43054W        W15380  19.388  43.991   3.389
43055W        W15381  35.493  40.321   0.374
43056W        W15382  23.225  20.804  10.754
43057W        W15383  27.931  27.024  14.553
43058W        W15384  23.819   4.701  12.327
43059W        W15385  20.948   8.845  11.621
43060W        W15386  30.059  34.100   3.612
43061W        W15387  41.359  35.554   4.680
43062W        W15388   3.767   7.711  12.139
43063W        W15389  20.844  38.071   0.016
43064W        W15390  30.931  25.175   0.486
43065W        W15391  41.447   7.644  14.445
43066W        W15392  20.171  31.440   4.356
43067W        W15393  29.618  37.800   0.441
43068W        W15394  29.426  22.383  14.963
43069W        W15395  25.921  18.130  11.965
43070W        W15396  41.719  20.213   1.814
43071W        W15397  27.738   8.209   2.724
43072W        W15398  18.159  26.958   0.882
43073W        W15399  41.274   4.932   1.165
43074W        W15400  13.812  26.704   3.776
43075W        W15401   5.368  39.004  10.718
43076W        W15402  20.761   3.184   4.218
43077W        W15403  16.592   6.493   3.270
43078W        W15404   7.406   4.553   3.047
43079W        W15405   6.262  10.605  13.120
43080W        W15406   0.292  26.041   3.160
43081W        W15407  11.461  25.215  14.798
43082W        W15408   9.246  34.408  13.998
43083W        W15409   8.058  40.779   1.603
43084W        W15410  38.023  28.682   0.048
43085W        W15411  13.231  35.739   5.425
43086W        W15412  12.308  32.428   1.280
43087W        W15413  21.722  20.848   4.784
43088W        W15414  14.594   8.994  10.949
43089W        W15415  17.312   2.372   4.084
43090W        W15416  27.579  40.720   3.127
43091W        W15417   1.632  15.212  12.600
43092W        W15418   5.365   0.156  11.231
43093W        W15419  33.652  12.128   0.382
43094W        W15420  25.180  29.665   1.775
43095W        W15421  31.703  34.267  14.842
43096W        W15422  42.265   8.689  14.084
43097W        W15423  21.017  40.404  13.149
43098W        W15424   8.307  16.237  12.944
43099W        W15425  42.558  27.417   3.629
43100W        W15426   8.116  24.629   2.131
43101W        W15427  29.676  11.248  12.449
43102W        W15428  32.062  38.707   2.291
43103W        W15429  23.591   0.290  10.727
43104W        W15430   7.407  22.164  11.649
43105W        W15431   0.754   2.814  12.374
43106W        W15432  40.643  18.984  10.791
43107W        W15433  31.130  36.845   2.206
43108W        W15434   9.750   7.385   3.244
43109W        W15435  41.323  43.025  12.410
43110W        W15436  16.102  39.560  13.814
43111W        W15437  38.996  44.888  14.760
43112W        W15438  13.784  28.949  10.698
43113W        W15439  20.437  39.814  12.569
43114W        W15440  34.855  24.342   1.916
43115W        W15441  15.023   0.486   2.641
43116W        W15442   4.956  41.872   1.265
43117W        W15443  38.316  22.934   0.605
43118W        W15444  28.731  21.578  14.522
43119W        W15445  44.454  24.823   9.645
43120W        W15446  33.871  41.300   4.441
43121W        W15447  20.635  20.120  13.454
43122W        W15448  22.802  17.932  11.134
43123W        W15449  40.947  28.503  12.623
43124W        W15450  27.456   5.911  13.323
43125W        W15451  18.727  43.027   4.584
43126W        W15452  33.030  15.979  10.422
43127W        W15453  12.868   2.822  11.101
43128W        W15454  29.336  12.123   2.262
43129W        W15455  15.580  29.557  12.917
43130W        W15456  17.700  24.318   2.723
43131W        W15457  11.537  19.033  14.328
43132W        W15458  39.545  27.172   1.280
43133W        W15459  29.105   5.734  10.725
43134W        W15460  36.357  42.957  12.412
43135W        W15461  42.112  40.082  11.538
43136W        W15462   9.308   0.078   2.369
43137W        W15463  42.397   6.927  13.545
43138W        W15464  44.046  16.599   1.237
43139W        W15465  37.986  43.432   4.736
43140W        W15466  26.255  26.696   1.445
43141W        W15467   7.907  43.871   4.763
43142W        W15468   6.789  12.159   0.326
43143W        W15469  32.517  23.713  11.637
43144W        W15470  43.515  23.644   1.935
43145W        W15471  37.114  32.597  11.927
43146W        W15472  10.617  20.075   4.155
43147W        W15473  34.618  21.688  14.474
43148W        W15474   6.483  33.864  12.753
43149W        W15475  35.319  13.657   3.750
43150W        W15476  38.954  19.250  14.524
43151W        W15477  21.571  23.470   2.293
43152W        W15478   0.351  41.596  12.508
43153W        W15479   4.915   2.677  13.391
43154W        W15480  28.710  39.271   2.201
43155W        W15481  42.108  18.540   0.784
43156W        W15482  10.731  12.510   3.623
43157W        W15483   3.424  15.083   1.164
43158W        W15484  32.385  27.451  11.049
43159W        W15485  37.583  30.647  12.860
43160W        W15486  10.389   3.293  11.164
43161W        W15487  20.569  15.006   2.911
43162W        W15488  28.372   3.464  11.511
43163W        W15489  15.606  10.728   0.842
43164W        W15490  24.315  18.777  14.978
43165W        W15491  38.622  19.399   2.641
43166W        W15492  39.345  35.061  13.861
43167W        W15493  34.061  23.001  11.670
43168W        W15494  15.255  35.004   2.329
43169W        W15495  44.665  14.466   0.734
43170W        W15496  11.642  26.550   3.278
43171W        W15497  32.448  10.705  11.908
43172W        W15498  26.490  44.093  12.882
43173W        W15499   4.576  30.704   2.868
43174W        W15500   1.020  12.631  11.801
43175W        W15501  16.843  42.470   2.851
43176W        W15502  24.094  40.303   4.287
43177W        W15503  10.739  12.186  14.876
43178W        W15504  31.941  34.956  13.975
43179W        W15505  19.499  23.155   1.415
43180W        W15506  28.554  40.306  14.183
43181W        W15507   0.174  41.269  11.146
43182W        W15508  18.930  43.748  11.614
43183W        W15509  14.868  34.847  12.388
43184W        W15510  31.987  12.688   2.370
43185W        W15511  21.035  28.180   2.074
43186W        W15512   1.594  43.264  10.930
43187W        W15513   0.732   8.824   3.190
43188W        W15514  20.731  16.534  11.538
43189W        W15515  41.481  11.943   3.162
43190W        W15516   8.268  33.844  11.216
43191W        W15517   3.185  11.789   3.690
43192W        W15518  37.952  17.337  13.825
43193W        W15519  10.208  38.140  12.940
43194W        W15520  43.391  12.288  11.111
43195W        W15521  40.401  15.969   2.300
43196W        W15522  10.342  27.349   1.391
43197W        W15523   5.752   1.258   0.991
43198W        W15524  18.809   5.844   0.420
43199W        W15525  40.561   5.685   4.445
43200W        W15526   0.155  27.064   1.126
43201W        W15527  24.012  18.791  14.414
43202W        W15528  37.484  21.312  10.784
43203W        W15529  40.228  23.619   2.239
43204W        W15530  23.053  44.871   1.240
43205W        W15531   6.313  26.037  10.786
43206W        W15532  12.622  22.005  13.308
43207W        W15533  27.176  21.748   2.430
43208W        W15534  42.989   1.216  13.840
43209W        W15535   6.675  13.737   3.872
43210W        W15536  19.737  43.442  11.656
43211W        W15537  40.784  13.703   2.882
43212W        W15538   2.773  31.961  14.378
43213W        W15539  27.492  21.791  13.079
43214W        W15540  28.655  36.667  11.543
43215W        W15541  25.141  15.186   5.080
43216W        W15542  10.820  40.917  12.212
43217W        W15543  32.453   4.162   2.362
43218W        W15544   7.214   1.705   4.074
43219W        W15545  38.651  26.139   2.471
43220W        W15546   3.952  11.232   5.053
43221W        W15547  22.017  30.506  10.416
43222W        W15548  14.274  25.027  14.569
43223W        W15549  25.578   7.107   4.089
43224W        W15550  12.374  29.688   1.891
43225W        W15551  33.067  40.496  12.433
43226W        W15552  17.106  40.461   2.887
43227W        W15553  30.046  25.447   4.281
43228W        W15554   9.504  31.387   3.676
43229W        W15555   3.654  34.568   2.170
43230W        W15556  41.272  29.597  12.092
43231W        W15557   1.818   5.874   4.193
43232W        W15558  41.275  32.965   3.096
43233W        W15559  20.224  37.297  12.859
43234W        W15560   1.547  25.524  11.973
43235W        W15561  44.440   2.984  14.249
43236W        W15562  23.345  44.930   3.348
43237W        W15563   8.885   0.423  11.023
43238W        W15564  21.126  30.610   3.195
43239W        W15565  21.052  24.845   3.853
43240W        W15566  13.207  14.586   4.266
43241W        W15567  39.887   7.405  14.282
43242W        W15568   9.970  30.138   3.427
43243W        W15569   5.912   2.006   0.269
43244W        W15570  30.430   5.300   2.767
43245W        W15571  24.814  21.261  12.801
43246W        W15572   0.972  40.675  14.985
43247W        W15573  25.094  23.508  12.909
43248W        W15574  22.068  18.178  10.677
43249W        W15575  21.169  19.141   3.167
43250W        W15576  38.994  44.351   3.007
43251W        W15577  10.391  34.023   3.213
43252W        W15578   3.763  24.652   4.646
43253W        W15579  19.872  18.113  13.005
43254W        W15580  13.226  22.964  11.218
43255W        W15581  32.029  41.399  10.105
43256W        W15582  27.093   5.839  10.671
43257W        W15583   0.934  34.434   2.033
43258W        W15584  23.168  29.007   3.727
43259W        W15585  30.632  34.794  13.511
43260W        W15586  29.534   3.400  14.268
43261W        W15587   3.111  21.251  12.438
43262W        W15588  23.057  42.910  13.770
43263W        W15589  17.595   5.740   4.542
43264W        W15590  43.529  43.303   0.338
43265W        W15591  42.579   3.655   0.953
43266W        W15592  14.214  43.773   2.173
43267W        W15593  33.786  15.649   1.363
43268W        W15594  25.179  41.998   0.558
43269W        W15595  20.099  18.785  14.857
43270W        W15596  31.207  20.225  13.979
43271W        W15597  41.981  36.165   2.490
43272W        W15598  22.502  11.307  13.885
43273W        W15599  28.984  18.283  11.495
43274W        W15600   0.757  22.454  10.488
43275W        W15601  10.975  44.075   4.071
43276W        W15602  14.227  12.343   0.557
43277W        W15603  42.965  18.613  11.222
43278W        W15604  36.818  29.035  11.932
43279W        W15605   2.697   4.660  14.444
43280W        W15606   4.678  24.000   3.641
43281W        W15607  22.262  44.914  11.679
43282W        W15608  23.190  31.112   0.153
43283W        W15609  11.624  36.284   4.542
43284W        W15610  22.595  24.814  10.670
43285W        W15611  25.503  44.930  14.315
43286W        W15612  33.355  39.737  14.946
43287W        W15613  32.044  42.043  14.321
43288W        W15614  21.957  15.371  14.061
43289W        W15615   4.975  40.497  11.903
43290W        W15616   5.616  42.381   1.867
43291W        W15617  31.383  18.200  12.099
43292W        W15618  16.818  14.519   4.577
43293W        W15619  24.509  42.283   1.684
43294W        W15620  12.302  42.659   1.726
43295W        W15621  31.960  21.751  13.320
43296W        W15622   0.923   0.464   4.638
43297W        W15623  23.089  24.020   2.217
43298W        W15624  10.336  19.714  11.920
43299W        W15625   5.259  37.079  10.952
43300W        W15626  29.701   5.317  12.746
43301W        W15627  43.525  34.080   3.980
43302W        W15628  43.975  31.068  10.888
43303W        W15629  19.089  39.016  12.095
43304W        W15630  19.575  37.071  12.496
43305W        W15631  37.126   0.752   2.732
43306W        W15632  30.498  43.712  11.819
43307W        W15633   8.680  18.671   3.539
43308W        W15634  32.428  34.260   0.548
43309W        W15635  20.199   5.825  11.639
43310W        W15636  13.835  44.868  13.060
43311W        W15637  25.164  18.819   0.972
43312W        W15638  30.095  12.383  10.627
43313W        W15639  22.512  41.423  13.476
43314W        W15640   0.669  43.325   2.852
43315W        W15641  26.687  31.447  11.910
43316W        W15642   8.277  31.599   3.236
43317W        W15643  32.554   4.177   3.300
43318W        W15644  15.578  38.890   3.681
43319W        W15645   1.962   8.565   2.519
43320W        W15646  40.891  42.745  12.006
43321W        W15647  24.060   7.155   2.283
43322W        W15648   5.111  17.855   2.822
43323W        W15649   5.701  13.419   4.752
43324W        W15650  20.856   3.173  12.435
43325W        W15651   5.733  33.467   2.615
43326W        W15652  13.109  16.628   1.411
43327W        W15653  38.059  35.539  12.461
43328W        W15654  44.483  21.102  10.025
43329W        W15655   3.915  22.051   3.359
43330W        W15656   3.463   6.136  13.410
43331W        W15657   4.899  22.983  14.996
43332W        W15658  11.341  28.154  14.000
43333W        W15659  21.602   4.206  10.931
43334W        W15660  27.170   5.728   0.240
43335W        W15661  18.035  27.833   1.411
43336W        W15662  14.300   6.322  10.715
43337W        W15663  21.136  24.664  14.467
43338W        W15664  24.547  21.094   0.372
43339W        W15665   2.240  42.554   1.429
43340W        W15666  28.516  15.362  13.547
43341W        W15667   4.254  23.997  11.161
43342W        W15668   0.317  13.673   3.691
43343W        W15669  35.177  30.918  10.966
43344W        W15670  21.958  31.231   0.032
43345W        W15671  34.109  36.889   2.374
43346W        W15672   3.692  42.410  12.884
43347W        W15673   5.440   0.801  12.617
43348W        W15674  25.447  27.883   0.502
43349W        W15675  42.375  21.736   2.438
43350W        W15676  15.033   1.250  11.897
43351W        W15677  29.379  35.296  11.329
43352W        W15678  13.600  37.910  14.413
43353W        W15679  30.365  33.907   1.463
43354W        W15680   7.765  18.637   1.127
43355W        W15681   2.235  21.293  13.421
43356W        W15682  16.164  27.234   3.631
43357W        W15683  24.921  14.181   2.135
43358W        W15684   3.688  32.054   0.668
43359W        W15685  29.086  28.694   3.093
43360W        W15686  43.345  37.368  12.482
43361W        W15687   9.905  15.198  11.837
43362W        W15688  15.036  26.512  14.370
43363W        W15689  28.586  19.067   4.308
43364W        W15690  22.965  21.814  10.745
43365W        W15691   3.872   5.070   4.219
43366W        W15692   9.748  27.931   3.826
43367W        W15693  17.041  20.751  12.913
43368W        W15694   9.423  39.946   3.144
43369W        W15695  17.483   4.173   0.065
43370W        W15696   9.223   4.081   0.325
43371W        W15697  23.974  40.505  11.461
43372W        W15698  36.372  38.350  13.167
43373W        W15699  25.656  18.679  14.019
43374W        W15700  29.996  20.292   2.560
43375W        W15701  16.132  30.475   0.231
43376W        W15702  21.543  16.366   1.852
43377W        W15703  30.476  31.872   3.400
43378W        W15704  39.056  37.881   4.042
43379W        W15705  13.272  24.097   2.487
43380W        W15706  15.175  29.155   2.439
43381W        W15707   9.190  33.973   3.730
43382W        W15708  16.394  15.813  11.088
43383W        W15709   4.662  10.322   0.562
43384W        W15710   9.618  13.218  13.074
43385W        W15711  25.171  26.898   2.426
43386W        W15712  13.849  11.291   2.319
43387W        W15713   2.406  10.256   0.001
43388W        W15714  38.479   8.252  11.066
43389W        W15715  31.078   6.873  12.865
43390W        W15716  26.264   7.378  13.978
43391W        W15717  11.142  27.009  12.500
43392W        W15718   9.346   7.315   4.669
43393W        W15719   9.746   6.256   4.408
43394W        W15720  32.763  44.831  10.833
43395W        W15721  35.018   9.695   2.563
43396W        W15722   2.014  19.137   3.507
43397W        W15723  41.082  37.690   1.114
43398W        W15724  19.562  16.524  12.422
43399W        W15725  15.736   6.791   4.471
43400W        W15726  44.841  11.884  14.042
43401W        W15727  16.824  11.380   0.832
43402W        W15728  17.061  27.601  14.529
43403W        W15729   3.743  33.834  11.186
43404W        W15730   2.320  15.370  13.461
43405W        W15731  19.530  16.154   2.111
43406W        W15732   0.742  44.583  12.039
43407W        W15733  17.253   8.082  11.038
43408W        W15734  12.247  41.047  12.053
43409W        W15735  25.125   2.072   2.895
43410W        W15736  38.366  27.539  10.699
43411W        W15737  34.895  38.900   4.544
43412W        W15738  19.244   6.614   0.811
43413W        W15739  10.435  14.277  14.268
43414W        W15740   2.246  12.790   4.547
43415W        W15741  16.568  41.886  10.760
43416W        W15742  19.063  23.818   1.849
43417W        W15743  40.083   8.858   4.419
43418W        W15744   9.165   7.211  11.237
43419W        W15745  13.341  24.034  10.114
43420W        W15746  17.520  35.975  12.577
43421W        W15747  18.088  25.695  10.619
43422W        W15748  16.676  29.384  13.827
43423W        W15749  10.959  14.299  13.456
43424W        W15750  18.020  43.603  13.856
43425W        W15751  39.423  27.554  10.695
43426W        W15752  39.146  14.930  11.354
43427W        W15753  30.445  27.167   2.720
43428W        W15754  16.233  21.265   1.198
43429W        W15755  16.164  12.833  10.496
43430W        W15756  40.656  28.665   2.841
43431W        W15757  22.036  14.639  13.403
43432W        W15758   2.276  30.499  10.108
43433W        W15759  12.826  35.479   0.002
43434W        W15760  10.584  41.262  13.402
43435W        W15761   3.264  13.107   1.380
43436W        W15762   7.150   8.236  14.999
43437W        W15763   8.462   5.050   1.069
43438W        W15764  29.948  25.194  11.088
43439W        W15765  34.660   3.254   1.398
43440W        W15766  36.791   7.205  12.011
43441W        W15767  41.488  16.768   3.227
43442W        W15768  41.805  29.873   1.469
43443W        W15769  10.129  14.978   0.063
43444W        W15770  35.969   9.477  10.923
43445W        W15771   4.312  40.014   3.913
43446W        W15772  30.118  41.312  11.633
43447W        W15773  19.292  14.869  11.679
43448W        W15774  41.735   7.603  12.668
43449W        W15775  28.255   2.584   0.471
43450W        W15776  34.376  39.373   1.471
43451W        W15777  16.675  35.294  14.282
43452W        W15778  43.373  12.651   2.244
43453W        W15779  41.411  44.845  12.360
43454W        W15780   7.797  18.103  13.015
43455W        W15781  24.731  32.035   2.228
43456W        W15782   7.725  11.104  11.733
43457W        W15783  25.529  39.771  11.372
43458W        W15784   0.787  40.720   0.882
43459W        W15785   4.501  14.331  12.067
43460W        W15786  31.761   6.646   1.100
43461W        W15787  21.690  20.142  12.865
43462W        W15788  28.866  32.586   0.358
43463W        W15789  33.011  25.397   3.661
43464W        W15790  38.186   4.902  14.363
43465W        W15791  30.210  28.887  12.606
43466W        W15792  25.006  27.875  12.489
43467W        W15793  17.132  10.405  14.297
43468W        W15794  35.898   6.704  13.578
43469W        W15795  34.402  32.413   5.043
43470W        W15796  40.940  22.480  14.746
43471W        W15797   1.242  28.245  12.619
43472W        W15798  36.188   1.256  10.515
43473W        W15799   2.649   7.755   5.066
43474W        W15800  26.312  19.919  10.952
43475W        W15801   0.663   4.207  12.951
43476W        W15802  29.558  24.772  11.772
43477W        W15803   0.813  36.438  14.539
43478W        W15804  17.655  26.156  12.938
43479W        W15805  14.583  12.168  11.239
43480W        W15806  37.135  31.627  14.135
43481W        W15807   8.877   5.513  12.020
43482W        W15808  15.769  34.428   1.327
43483W        W15809  42.881   7.452   4.255
43484W        W15810   3.560  22.289  11.932
43485W        W15811  41.101   9.914  14.312
43486W        W15812   5.301   1.406  12.411
43487W        W15813  23.228  24.176   0.316
43488W        W15814  11.135  40.366   4.912
43489W        W15815   1.800  32.497  14.594
43490W        W15816  43.223  35.696   4.810
43491W        W15817   8.208  18.508   3.394
43492W        W15818  17.307  18.329  11.126
43493W        W15819  32.968  31.843   2.567
43494W        W15820   9.291  18.196  10.646
43495W        W15821  29.626  23.338  11.079
43496W        W15822  15.273   8.829  14.901
43497W        W15823  43.037  10.057   3.604
43498W        W15824  18.227   4.793   2.446
43499W        W15825   3.163  29.189   2.799
43500W        W15826  32.922  24.700   1.316
43501W        W15827  37.316  27.550   2.666
43502W        W15828  21.070  21.666  10.719
43503W        W15829   9.850   7.329   0.396
43504W        W15830  42.571  32.327  10.786
43505W        W15831  36.824  24.126  14.199
43506W        W15832   7.802  32.932   3.303
43507W        W15833  20.441  40.482   3.377
43508W        W15834  24.226  35.452   3.499
43509W        W15835  22.316  18.029   3.183
43510W        W15836  35.553   4.735   1.232
43511W        W15837  36.348  14.236  14.012
43512W        W15838  15.697  11.640  10.697
43513W        W15839  43.816  26.956  11.621
43514W        W15840  17.576  39.262  12.842
43515W        W15841  21.079   5.911  12.922
43516W        W15842  11.553  39.941  12.189
43517W        W15843  30.232  28.953   4.323
43518W        W15844  19.638  25.357  11.979
43519W        W15845  18.538  37.351  13.341
43520W        W15846  17.123  15.593   4.911
43521W        W15847  15.824  31.416  12.450
43522W        W15848  39.523  20.045  13.041
43523W        W15849  12.825  44.789   1.238
43524W        W15850  10.207  12.827   2.883
43525W        W15851  22.081  42.463   1.232
43526W        W15852  10.873  36.008  10.212
43527W        W15853  27.450  37.374  11.375
43528W        W15854  40.044  28.287   2.296
43529W        W15855  20.556   4.122  13.269
43530W        W15856   2.501  30.445   1.287
43531W        W15857  43.331  31.017   3.654
43532W        W15858  16.508  17.092  13.911
43533W        W15859  25.618  14.948   5.030
43534W        W15860  35.460  40.296  14.440
43535W        W15861  27.889  21.290  10.721
43536W        W15862  13.067   0.911   2.919
43537W        W15863  28.863  15.665   4.352
43538W        W15864   1.734   2.237   1.715
43539W        W15865  35.922   5.849  13.560
43540W        W15866  21.089  31.415  13.024
43541W        W15867  23.396   2.028  14.822
43542W        W15868  13.384  20.174  13.863
43543W        W15869  36.758  42.568  10.639
43544W        W15870  43.896  12.879   0.208
43545W        W15871  31.165  43.312   1.719
43546W        W15872  27.681  16.072   1.820
43547W        W15873  34.065  37.357   0.916
43548W        W15874  27.133   7.521  13.981
43549W        W15875  30.686  35.410   4.220
43550W        W15876  19.102  43.399  12.371
43551W        W15877  14.259  44.521  14.744
43552W        W15878  15.532  21.271  14.475
43553W        W15879  29.238   7.872   0.822
43554W        W15880  31.472  20.693  13.921
43555W        W15881  18.285  19.227   2.738
43556W        W15882  27.550  27.635   1.674
43557W        W15883  43.743   3.793  10.373
43558W        W15884   5.694  35.818   3.122
43559W        W15885  37.465  25.986   0.033
43560W        W15886  35.619   6.388   3.988
43561W        W15887  25.321  15.031   4.617
43562W        W15888  23.080  24.567  12.085
43563W        W15889  15.191  13.084   4.711
43564W        W15890  23.930  22.016  11.182
43565W        W15891  22.082  25.219   0.324
43566W        W15892  32.767   8.608   3.282
43567W        W15893  16.322  11.766  14.970
43568W        W15894  14.555   3.073   5.065
43569W        W15895  21.111  41.977   3.527
43570W        W15896  42.319   6.841  11.172
43571W        W15897   8.211  28.756  11.440
43572W        W15898   9.687  35.111   1.164
43573W        W15899   1.597  38.463  14.335
43574W        W15900  32.533   1.761   4.296
43575W        W15901  15.125   2.683  11.210
43576W        W15902  15.622  28.052  11.031
43577W        W15903  39.606  14.201   0.871
43578W        W15904   0.802  31.993  11.729
43579W        W15905   9.284  40.938   3.664
43580W        W15906  23.945  31.416  14.932
43581W        W15907  31.382  34.356   0.783
43582W        W15908   0.287  30.609   3.252
43583W        W15909  23.418  32.656  11.934
43584W        W15910  43.124  15.649  12.618
43585W        W15911  43.126   5.741   0.593
43586W        W15912   9.172  30.495   3.276
43587W        W15913  30.116   5.799  13.589
43588W        W15914   0.411  40.548   3.523
43589W        W15915  20.592  25.612   1.791
43590W        W15916  40.517  43.806   0.801
43591W        W15917  20.740  39.517  11.511
43592W        W15918  32.451   9.386   3.889
43593W        W15919  29.605  44.098  13.726
43594W        W15920   4.271  44.001  13.505
43595W        W15921  22.008   3.783  14.348
43596W        W15922  10.828  16.072   4.602
43597W        W15923  13.792  25.655  12.343
43598W        W15924   8.634  44.830   3.062
43599W        W15925   7.153   6.201  13.860
43600W        W15926  28.163  16.948  12.004
43601W        W15927  33.559  37.028  13.098
43602W        W15928   3.276  21.712   4.210
43603W        W15929   2.703  18.174  14.253
43604W        W15930  38.502  38.552  12.454
43605W        W15931   1.478  21.107  13.001
43606W        W15932  29.461   1.428   3.898
43607W        W15933  10.864  26.637   2.895
43608W        W15934  31.669  18.161  12.975
43609W        W15935  22.274  43.306   4.614
43610W        W15936  27.928  20.784  10.728
43611W        W15937  22.947  29.144   4.180
43612W        W15938  22.631   3.063  11.624
43613W        W15939  35.437  34.902  14.847
43614W        W15940  42.252  11.286  13.854
43615W        W15941  32.393   8.133  10.485
43616W        W15942  15.115   1.973  14.764
43617W        W15943   8.229  31.407   4.161
43618W        W15944  28.718  20.791  12.504
43619W        W15945  10.252  37.478  10.105
43620W        W15946  41.973  37.664   2.206
43621W        W15947  22.998  38.613   2.668
43622W        W15948  12.814  12.304  12.527
43623W        W15949   6.836  22.572  13.466
43624W        W15950  15.610  23.233  12.082
43625W        W15951   9.830  14.830  11.186
43626W        W15952  23.600  24.500  10.940
43627W        W15953  10.415  21.725   0.777
43628W        W15954  24.101  20.549   4.810
43629W        W15955  28.456  21.755   2.266
43630W        W15956  14.183  20.110   0.820
43631W        W15957  12.391   3.865  13.940
43632W        W15958  27.694  41.989   3.650
43633W        W15959   0.726   8.937  14.553
43634W        W15960  18.849  41.857  14.235
43635W        W15961  37.396   3.433  11.505
43636W        W15962  16.067   3.363   4.542
43637W        W15963  16.111   3.703   2.200
43638W        W15964  12.678  30.511   0.426
43639W        W15965  11.829  12.155  12.123
43640W        W15966  24.698  20.066  13.621
43641W        W15967  38.965  27.033  13.299
43642W        W15968  35.590  42.276   2.010
43643W        W15969  17.639  24.274   3.943
43644W        W15970  11.171  14.452   1.992
43645W        W15971  13.084  27.672  14.452
43646W        W15972  11.690  27.927   0.241
43647W        W15973  13.111  27.057   4.205
43648W        W15974  31.543   1.231   1.342
43649W        W15975  30.084  38.852   3.183
43650W        W15976   4.446  23.115   3.861
43651W        W15977  21.841  23.655   2.703
43652W        W15978   5.416  43.372   4.087
43653W        W15979  34.590  37.034   2.385
43654W        W15980  44.431  16.618   0.260
43655W        W15981  30.125  27.244  11.166
43656W        W15982  35.146   8.266  13.064
43657W        W15983  20.437  22.098  14.979
43658W        W15984   3.316   4.874   3.327
43659W        W15985  13.770  10.555   4.116
43660W        W15986  29.091  37.942  10.590
43661W        W15987  11.596  43.788  14.426
43662W        W15988  32.013  18.276  14.307
43663W        W15989   1.828  42.451   1.119
43664W        W15990  31.048  40.988  11.910
43665W        W15991  27.096  20.029   3.639
43666W        W15992  22.229  15.067   3.435
43667W        W15993  13.631  14.720   4.612
43668W        W15994  35.169  32.907   5.106
43669W        W15995  35.906  40.830  13.999
43670W        W15996  33.440  30.388  13.074
43671W        W15997   8.944   6.906   4.116
43672W        W15998   4.160  11.324  13.400
43673W        W15999  36.111   3.058   3.190
43674W        W16000  13.273  43.715   2.111
43675W        W16001  13.745  29.964  12.085
43676W        W16002  26.986  15.303  14.560
43677W        W16003  19.708  38.172   1.204
43678W        W16004  35.767  22.501  13.568
43679W        W16005  23.508  38.234  14.468
43680W        W16006  19.814  43.100   5.093
43681W        W16007   2.919  38.493  14.852
43682W        W16008   5.993  29.985   4.243
43683W        W16009   8.341   2.901  12.878
43684W        W16010  32.422  15.479  11.562
43685W        W16011  33.339   1.633   3.167
43686W        W16012  21.646  15.846   1.742
43687W        W16013   9.680  38.670   2.792
43688W        W16014  22.251  15.758  14.587
43689W        W16015  25.064  25.963   3.650
43690W        W16016  16.355   9.169  12.362
43691W        W16017  33.898  35.829   4.617
43692W        W16018  24.265  38.157  10.987
43693W        W16019  11.142  44.410  14.010
43694W        W16020  10.173  18.276  12.952
43695W        W16021  27.868  17.167  12.881
43696W        W16022  22.224   7.221   2.257
43697W        W16023  22.737  15.203   4.902
43698W        W16024  16.895  15.729  11.397
43699W        W16025  31.352  43.683  12.062
43700W        W16026  32.020   3.339   4.646
43701W        W16027  42.440   7.586   3.738
43702W        W16028  25.494   8.732  14.709
43703W        W16029   8.085  23.300  14.311
43704W        W16030  22.119   5.947   3.521
43705W        W16031  25.456  32.284   0.319
43706W        W16032   3.401  16.086  14.330
43707W        W16033  42.467  44.752  11.604
43708W        W16034   6.628  19.261   4.599
43709W        W16035  34.508  29.442   3.763
43710W        W16036  24.122  18.818   1.839
43711W        W16037  28.864   6.279  13.471
43712W        W16038   7.894  33.934   2.621
43713W        W16039  44.690  22.692   2.405
43714W        W16040  16.261   0.983   4.555
43715W        W16041   4.781  39.060   0.751
43716W        W16042   5.878   8.091  11.628
43717W        W16043  25.753  26.581   2.225
43718W        W16044  40.924   2.258  14.004
43719W        W16045  45.000  25.094  12.926
43720W        W16046  25.066  41.260  12.672
43721W        W16047  11.724  43.931  13.903
43722W        W16048  41.367  36.443  12.593
43723W        W16049   9.086   8.079   3.102
43724W        W16050  11.017  14.715   4.435
43725W        W16051   6.027  14.798   3.995
43726W        W16052  12.530  44.024   2.679
43727W        W16053   9.781  33.421  12.821
43728W        W16054  39.598   1.285  12.054
43729W        W16055   6.862  36.982   1.858
43730W        W16056   3.170  15.404   0.845
43731W        W16057  43.236  42.679  12.050
43732W        W16058  12.269  31.548   3.800
43733W        W16059   8.394  31.073   1.806
43734W        W16060   9.030   2.096  12.367
43735W        W16061  20.690  10.668   3.944
43736W        W16062   4.261  35.404   2.238
43737W        W16063  39.538  33.179   0.907
43738W        W16064  14.732  32.909   3.189
43739W        W16065  25.448   8.705  13.810
43740W        W16066  21.809  10.452  12.085
43741W        W16067  43.388  25.157  13.019
43742W        W16068   8.660  36.553   4.971
43743W        W16069  18.195  39.529  12.003
43744W        W16070  42.244  27.527   4.247
43745W        W16071  34.569  33.453   3.022
43746W        W16072  27.664  39.398   4.459
43747W        W16073  27.647  34.699   1.424
43748W        W16074  20.035  23.065   2.866
43749W        W16075  25.580  12.288   0.579
43750W        W16076  17.288  28.564   2.227
43751W        W16077   0.237  39.162  11.933
43752W        W16078  40.474  33.493  13.939
43753W        W16079  12.328  28.151   1.736
43754W        W16080  35.841  20.350  10.802
43755W        W16081  14.175  25.587   0.277
43756W        W16082   1.870   5.337   2.947
43757W        W16083  36.759   4.474   2.567
43758W        W16084  34.413   2.989   4.522
43759W        W16085   6.365   4.302   2.297
43760W        W16086  11.801  27.726   9.981
43761W        W16087  12.129  38.031   1.339
43762W        W16088  38.868   5.358   1.911
43763W        W16089   2.024   3.814  12.745
43764W        W16090   3.788   2.926  13.546
43765W        W16091  42.598   6.660  13.925
43766W        W16092  27.555  41.244  12.412
43767W        W16093  38.938  32.476   3.598
43768W        W16094  29.212  13.378  10.907
43769W        W16095  36.822  29.931  12.891
43770W        W16096  14.761  21.012   5.089
43771W        W16097  11.170   2.801  14.799
43772W        W16098  10.543  19.476   4.479
43773W        W16099  32.501  14.580  12.149
43774W        W16100  37.508   3.777  11.855
43775W        W16101  29.079  35.031   0.929
43776W        W16102  30.131  43.886  12.140
43777W        W16103  16.637  28.074   1.042
43778W        W16104  39.084  29.127   4.892
43779W        W16105  31.556  12.343   1.953
43780W        W16106  42.356  37.472  13.462
43781W        W16107  24.682  16.277   0.904
43782W        W16108  28.579  20.759   0.163
43783W        W16109  40.696   3.712  13.457
43784W        W16110  30.435  40.277   4.834
43785W        W16111  30.487   5.861   0.468
43786W        W16112   1.219   0.414   1.343
43787W        W16113  35.528  21.432   2.675
43788W        W16114   3.021  34.687  12.778
43789W        W16115  33.693  23.493   4.476
43790W        W16116   1.735  24.112  11.670
43791W        W16117  19.027   1.277   3.703
43792W        W16118  18.574  44.510   3.609
43793W        W16119  11.287  25.521   5.230
43794W        W16120   2.044  25.221  10.902
43795W        W16121  14.268  37.941  13.503
43796W        W16122  31.822  29.449   1.265
43797W        W16123  19.058  44.310  13.016
43798W        W16124   1.938   5.178   1.877
43799W        W16125  13.130  29.576  10.688
43800W        W16126  22.850  35.349  12.929
43801W        W16127  19.329  37.790   2.862
43802W        W16128  42.337  31.922  13.876
43803W        W16129  23.695  26.529  13.851
43804W        W16130  17.559  36.190  10.926
43805W        W16131  23.444  44.676  13.452
43806W        W16132  25.114  27.694  11.989
43807W        W16133   1.925  10.431   2.110
43808W        W16134  12.237  15.526   2.653
43809W        W16135  26.631  35.205  12.591
43810W        W16136  34.847  19.698   0.876
43811W        W16137  44.621   6.947   4.031
43812W        W16138  35.932  16.209   0.888
43813W        W16139  40.379  18.289   1.243
43814W        W16140  37.642  40.035   1.336
43815W        W16141  28.731  19.507   2.831
43816W        W16142  34.568  19.130   1.698
43817W        W16143  23.138  37.086  14.892
43818W        W16144  10.465  13.687   2.868
43819W        W16145   2.069  31.554  10.611
43820W        W16146  21.938  19.160  11.639
43821W        W16147  30.528  15.749  11.047
43822W        W16148  27.954  26.366  11.642
43823W        W16149  44.022  24.909   3.479
43824W        W16150  40.407  16.780   3.365
43825W        W16151  44.516  42.374  12.437
43826W        W16152   3.615  42.677   3.818
43827W        W16153  11.439  31.338   0.128
43828W        W16154  11.583  24.565  14.065
43829W        W16155   4.735  28.591   0.388
43830W        W16156  30.445  44.244   3.177
43831W        W16157  15.582   1.248  12.948
43832W        W16158   7.884  41.003  14.500
43833W        W16159  11.655  29.170  12.556
43834W        W16160  20.154   0.697   0.008
43835W        W16161  23.156  42.352  14.502
43836W        W16162  40.077  12.842  11.086
43837W        W16163  43.811   7.306   1.384
43838W        W16164   7.676  34.560  10.242
43839W        W16165   8.078   0.758   0.661
43840W        W16166  32.296  18.197  12.536
43841W        W16167  32.855  40.310  11.093
43842W        W16168   4.600  27.205   0.447
43843W        W16169  10.139  22.117  11.093
43844W        W16170  31.630  18.778  12.237
43845W        W16171   5.178  38.449   1.933
43846W        W16172  13.345  30.947   4.631
43847W        W16173  11.799  11.576   1.741
43848W        W16174  15.692   9.926   1.400
43849W        W16175  32.915   0.607  14.292
43850W        W16176  14.086  21.579  11.843
43851W        W16177  35.689  44.623  13.021
43852W        W16178   3.898   0.322   1.013
43853W        W16179  41.831  34.080   2.302
43854W        W16180  14.689  29.874   1.044
43855W        W16181  36.642  41.366  14.864
43856W        W16182  31.451  11.696   1.193
43857W        W16183  18.215  29.236   3.832
43858W        W16184  37.828  31.121  12.120
43859W        W16185  42.305  29.626  14.328
43860W        W16186   6.908  14.841   1.846
43861W        W16187  15.175   8.259   1.745
43862W        W16188  34.414  14.814   3.634
43863W        W16189  41.510   1.238   2.712
43864W        W16190  16.819  34.406  13.372
43865W        W16191   6.253  22.433  13.918
43866W        W16192  14.082  36.402   1.207
43867W        W16193  19.246  10.187   9.954
43868W        W16194  16.224   4.057   3.142
43869W        W16195  22.246  43.531   1.215
43870W        W16196  39.375  31.007   1.302
43871W        W16197  18.001  43.985   1.868
43872W        W16198  13.796  40.473   4.540
43873W        W16199  19.132  34.601  11.922
43874W        W16200  34.313  26.830   4.144
43875W        W16201   8.272   1.281  12.943
43876W        W16202  42.068  20.143  10.589
43877W        W16203  26.592  40.374  11.912
43878W        W16204   2.964  40.429  11.206
43879W        W16205  30.027   3.216  14.332
43880W        W16206   0.622  15.961  13.078
43881W        W16207   1.840  42.159  12.905
43882W        W16208   4.085  19.668   4.608
43883W        W16209  25.623   8.972   3.455
43884W        W16210  28.675  31.232   3.776
43885W        W16211  32.999  29.117  13.746
43886W        W16212  37.756  22.807   4.184
43887W        W16213  30.400  10.151   1.001
43888W        W16214  23.566  27.758  13.386
43889W        W16215   4.337  36.549   3.370
43890W        W16216  43.662  35.995   2.290
43891W        W16217  15.824  16.215   1.322
43892W        W16218  26.025  19.797   2.838
43893W        W16219   2.657  13.078  14.745
43894W        W16220  30.832  40.036   3.200
43895W        W16221  23.668   1.004   0.851
43896W        W16222  14.515  17.347   4.586
43897W        W16223   8.867   2.971  12.938
43898W        W16224  20.447  36.072  11.373
43899W        W16225  38.123  30.586   4.479
43900W        W16226  18.269  40.495  14.591
43901W        W16227  14.591  27.969   4.118
43902W        W16228  30.363  14.548  10.568
43903W        W16229  27.219  12.261   0.663
43904W        W16230  41.672   7.437  13.568
43905W        W16231  29.371  43.935  13.324
43906W        W16232   3.460  30.954  14.968
43907W        W16233   3.674  25.606   0.164
43908W        W16234  18.187  19.290  11.174
43909W        W16235  41.734  41.031  14.892
43910W        W16236  33.384   2.246   2.669
43911W        W16237  24.408  44.977   0.927
43912W        W16238  29.910  34.716  13.072
43913W        W16239  38.019  12.013  14.179
43914W        W16240   2.408  39.455   2.830
43915W        W16241  24.675   8.682  13.353
43916W        W16242   5.127  37.966  11.045
43917W        W16243  21.663  16.351  11.882
43918W        W16244   3.165   9.568   4.060
43919W        W16245   5.263  27.567   1.562
43920W        W16246  14.913  18.145  14.609
43921W        W16247  25.108  14.389  11.873
43922W        W16248  21.752   9.861  11.098
43923W        W16249  25.434  38.626  12.907
43924W        W16250  25.623  16.078  11.679
43925W        W16251  11.413  34.809  12.515
43926W        W16252  22.248  18.332  12.567
43927W        W16253  36.532  41.626   4.648
43928W        W16254   1.865   4.249  12.392
43929W        W16255   1.383  38.107  10.651
43930W        W16256  41.799  12.279   3.467
43931W        W16257  42.353  40.904  12.023
43932W        W16258  22.526  42.231  13.898
43933W        W16259  32.979  33.437   0.819
43934W        W16260  24.764  22.666  14.834
43935W        W16261   6.220   0.703   2.624
43936W        W16262  42.550   2.748   0.876
43937W        W16263  14.077  33.170  13.155
43938W        W16264   4.733  38.304  10.957
43939W        W16265  12.123  39.966  11.620
43940W        W16266   4.266  29.159  10.618
43941W        W16267  32.434  35.680   2.132
43942W        W16268  13.673  26.501   2.331
43943W        W16269  40.921  33.005   4.046
43944W        W16270  26.586  15.998  14.541
43945W        W16271   2.849  27.444  12.899
43946W        W16272   6.412   8.741  12.027
43947W        W16273  37.460   5.298   4.366
43948W        W16274   6.182  44.745  11.452
43949W        W16275  44.503  27.854  14.924
43950W        W16276  21.987  29.386   1.787
43951W        W16277   5.647  35.886  13.445
43952W        W16278  38.969  28.069  14.326
43953W        W16279  27.956  37.507   1.798
43954W        W16280  16.561   4.753  12.571
43955W        W16281   4.160  41.457  10.468
43956W        W16282   6.364  16.860  14.580
43957W        W16283  18.534  41.316  12.996
43958W        W16284  38.593   7.157  14.519
43959W        W16285  24.814  10.726   0.816
43960W        W16286   7.160  38.574   4.885
43961W        W16287  40.521  42.416  12.457
43962W        W16288  26.090  44.442  11.934
43963W        W16289  20.176  31.582   2.366
43964W        W16290   8.326   3.036  13.388
43965W        W16291  11.381  42.526   0.793
43966W        W16292  42.350  30.966   0.742
43967W        W16293   0.523  25.804   4.143
43968W        W16294  18.206   1.404  13.335
43969W        W16295  15.512  14.118   3.710
43970W        W16296  19.463  24.737  11.067
43971W        W16297  21.187  22.973  14.392
43972W        W16298  30.414  27.944  14.941
43973W        W16299  22.753  28.521  14.990
43974W        W16300  37.954  10.474   9.870
43975W        W16301  30.457  23.833   1.513
43976W        W16302   2.743   6.694   0.235
43977W        W16303   2.041  34.503   1.359
43978W        W16304  26.707   0.344  13.427
43979W        W16305   0.841  20.926   1.848
43980W        W16306  44.430  31.892   2.738
43981W        W16307   3.144  17.828   4.738
43982W        W16308  25.638  15.914  14.364
43983W        W16309   2.340  11.229  11.184
43984W        W16310  39.065  40.563  11.530
43985W        W16311   7.780  19.059  12.535
43986W        W16312   0.408  43.428   1.144
43987W        W16313   1.322  27.367   4.952
43988W        W16314  20.264   4.004   4.179
43989W        W16315  19.732  10.346  10.259
43990W        W16316  25.981  42.905  11.717
43991W        W16317  38.870  28.882  11.704
43992W        W16318  43.901  41.500  10.729
43993W        W16319  19.290  36.011  10.658
43994W        W16320   3.805  34.014   2.892
43995W        W16321   2.317  20.498  10.620
43996W        W16322   1.265   5.348   4.376
43997W        W16323  12.769  24.073   3.625
43998W        W16324  35.873  29.899  11.438
43999W        W16325  15.925  39.863  12.376
44000W        W16326  37.326  21.035   2.195
44001W        W16327   4.567   9.895   5.169
44002W        W16328  14.853   3.918  11.537
44003W        W16329  40.849  39.865   0.384
44004W        W16330  24.178   1.241  12.986
44005W        W16331  24.209   1.298   1.261
44006W        W16332  12.669   6.871   4.291
44007W        W16333  19.891  28.615   1.996
44008W        W16334  32.633  12.940   0.153
44009W        W16335  34.555  37.125  11.636
44010W        W16336  15.229  33.185  13.894
44011W        W16337  39.506  10.819   5.096
44012W        W16338   6.002  23.345  10.376
44013W        W16339  13.188  26.963  12.311
44014W        W16340   8.950  32.437   1.270
44015W        W16341   8.709   2.896  13.926
44016W        W16342  16.717  40.760   3.919
44017W        W16343   8.881   5.423  14.676
44018W        W16344  41.859   0.112   0.788
44019W        W16345  10.288  40.789  10.640
44020W        W16346   6.703  21.313   4.063
44021W        W16347  18.085  20.034  14.968
44022W        W16348  11.323  44.896  14.282
44023W        W16349  41.007   7.986  13.553
44024W        W16350   0.232  12.238   2.809
44025W        W16351  21.619  34.424   4.694
44026W        W16352  17.264   7.341  14.312
44027W        W16353   1.737  33.413   4.828
44028W        W16354  14.261  26.704  13.697
44029W        W16355   6.770  34.591   2.611
44030W        W16356   6.429   8.558  13.938
44031W        W16357  34.429  22.612   2.678
44032W        W16358  27.895  38.401  12.522
44033W        W16359   8.506  23.616  11.425
44034W        W16360  13.842  26.220   3.914
44035W        W16361  25.950  42.415   3.249
44036W        W16362  38.855  22.203   3.412
44037W        W16363   4.116   9.665   5.037
44038W        W16364  43.194   7.094   1.434
44039W        W16365  44.005  17.465   0.764
44040W        W16366   3.155  37.483   4.099
44041W        W16367   8.891  26.093  12.910
44042W        W16368   6.153  26.103  11.658
44043W        W16369  16.061  28.649   0.379
44044W        W16370  13.885  31.614   4.399
44045W        W16371  31.103  40.789   2.749
44046W        W16372  31.670  43.318   1.859
44047W        W16373  18.328  21.297   1.604
44048W        W16374  23.069  26.692  14.953
44049W        W16375  35.929   7.216  10.369
44050W        W16376  12.178  41.751   3.691
44051W        W16377  12.206  39.371   4.714
44052W        W16378  30.622  36.306   1.693
44053W        W16379  15.565   1.826   2.788
44054W        W16380  26.944  28.578   2.917
44055W        W16381   8.483  10.292   1.868
44056W        W16382   7.615  16.368   2.244
44057W        W16383  19.636  28.493   1.516
44058W        W16384  17.139   3.305  10.262
44059W        W16385  11.377  22.696   4.832
44060W        W16386  21.988  23.798  13.739
44061W        W16387  30.631  20.053  11.908
44062W        W16388  16.762   7.873   4.233
44063W        W16389   4.491  10.253   3.295
44064W        W16390  37.478  32.145   2.787
44065W        W16391  23.204  33.860   3.308
44066W        W16392   3.510  21.616   5.542
44067W        W16393  10.996  28.804   1.811
44068W        W16394  10.143  32.606  14.380
44069W        W16395  26.023  19.156  13.106
44070W        W16396  10.179  30.861   0.411
44071W        W16397  22.127  35.363   0.462
44072W        W16398  13.085  31.188   2.421
44073W        W16399   4.819  36.783  13.852
44074W        W16400  43.809   0.925  13.574
44075W        W16401  32.595  43.759  11.687
44076W        W16402   8.267  37.612   0.879
44077W        W16403  29.976  27.094   2.933
44078W        W16404  29.666  19.425  13.496
44079W        W16405  15.600  43.267  14.350
44080W        W16406  31.865  37.528   2.231
44081W        W16407  26.962  26.140  10.568
44082W        W16408  38.380  11.147   3.758
44083W        W16409   2.862  43.887   3.888
44084W        W16410  10.669  33.937   3.839
44085W        W16411   8.859  17.152  12.038
44086W        W16412  11.460  36.355  13.404
44087W        W16413  41.749  33.489   2.325
44088W        W16414  39.527  36.859  13.577
44089W        W16415  42.725  18.984  10.936
44090W        W16416  26.267  18.974   4.733
44091W        W16417  32.145   9.797  10.714
44092W        W16418  42.833   2.894  11.157
44093W        W16419   2.138  36.407  14.225
44094W        W16420  13.130  34.607   0.307
44095W        W16421   4.831  42.888  12.946
44096W        W16422  28.178  17.405   0.859
44097W        W16423  24.791  35.976  13.448
44098W        W16424  32.457  31.441   0.308
44099W        W16425  26.692   4.180  14.756
44100W        W16426   5.856   3.473  13.147
44101W        W16427  18.389   7.307   1.353
44102W        W16428  17.340  13.740   5.051
44103W        W16429  25.888  41.893  12.050
44104W        W16430  36.185   6.654  14.492
44105W        W16431   8.394  38.622   4.335
44106W        W16432  37.957   8.754   0.905
44107W        W16433   7.107  34.426   1.702
44108W        W16434  35.055  38.920  13.872
44109W        W16435  36.757  20.326  12.893
44110W        W16436  21.234  23.037  12.887
44111W        W16437  15.145  17.998   3.624
44112W        W16438  22.595  11.811  10.727
44113W        W16439  13.123  26.759   0.854
44114W        W16440  41.874  28.160   5.041
44115W        W16441   0.732  38.907  10.618
44116W        W16442  41.630  17.272   3.204
44117W        W16443  37.451  40.958  12.573
44118W        W16444  15.352  30.631  11.929
44119W        W16445  32.392   7.686  12.961
44120W        W16446  35.964  24.444   0.859
44121W        W16447  23.059  14.235  11.173
44122W        W16448  19.453  40.264  13.968
44123W        W16449  20.004   1.709   4.375
44124W        W16450  11.665  24.985   1.348
44125W        W16451  38.890  29.299  13.506
44126W        W16452  16.527  13.077  13.433
44127W        W16453   2.700   8.325  11.987
44128W        W16454  19.637  24.831  12.026
44129W        W16455   0.954  11.622  12.027
44130W        W16456  15.222   8.206  11.725
44131W        W16457  28.941  40.247  13.849
44132W        W16458  40.501  29.425  10.437
44133W        W16459   1.923   2.318  14.268
44134W        W16460   9.834  13.648   0.725
44135W        W16461  41.488   6.058   1.814
44136W        W16462   8.418  13.179  13.918
44137W        W16463  24.798   9.915   1.979
44138W        W16464   6.165   9.350  13.401
44139W        W16465  22.240  11.151  13.253
44140W        W16466   5.230   8.294   4.824
44141W        W16467  35.005  12.339  13.352
44142W        W16468  40.023  17.610   2.886
44143W        W16469   5.182  21.267  10.700
44144W        W16470  26.064   7.489  12.484
44145W        W16471   6.151   5.020  10.969
44146W        W16472  15.784  16.584  13.514
44147W        W16473  15.185  23.033  11.819
44148W        W16474  28.654  34.648  13.849
44149W        W16475  20.762  26.579   0.514
44150W        W16476  14.750  31.664  14.262
44151W        W16477  33.056  42.944   5.305
44152W        W16478  25.129  10.529  14.047
44153W        W16479  28.199  11.504  12.619
44154W        W16480  10.163   1.484  11.579
44155W        W16481  14.876  36.773   3.986
44156W        W16482  39.673   7.788   2.208
44157W        W16483  17.813  38.393   1.376
44158W        W16484  14.123  40.917  13.606
44159W        W16485  23.826  11.596  12.491
44160W        W16486  42.524  21.459  13.088
44161W        W16487  12.550  10.321   3.670
44162W        W16488  20.403  24.202   0.774
44163W        W16489  36.652  17.753  11.058
44164W        W16490  24.934  13.335   1.949
44165W        W16491  40.280   6.266   2.443
44166W        W16492  27.991  16.064   2.327
44167W        W16493  39.735   3.723   3.267
44168W        W16494  27.610   1.946   3.477
44169W        W16495  28.209  26.498  12.811
44170W        W16496  37.435  43.620   3.524
44171W        W16497  15.643   0.270   3.838
44172W        W16498  14.151   8.309   4.106
44173W        W16499  20.826  11.656   0.078
44174W        W16500   8.196  21.136  11.151
44175W        W16501   8.765  35.415  11.475
44176W        W16502  42.262   9.293   0.787
44177W        W16503  23.542  12.349  12.296
44178W        W16504  31.026  44.545   4.572
44179W        W16505   4.968  10.737   4.550
44180W        W16506  39.546  38.535  11.966
44181W        W16507   0.870  29.558   2.098
44182W        W16508  29.113  34.537   3.158
44183W        W16509   6.955  25.258  11.093
44184W        W16510  19.317  30.453   1.808
44185W        W16511  29.655   7.502   0.771
44186W        W16512  38.404  31.873  12.961
44187W        W16513  37.948  24.736   0.768
44188W        W16514   8.422  38.823   4.879
44189W        W16515  19.734   2.179   4.239
44190W        W16516  23.735  43.970   2.250
44191W        W16517  28.849   9.419   4.384
44192W        W16518  43.311   0.956  12.203
44193W        W16519  13.644   3.440   2.263
44194W        W16520  12.137  27.423  14.344
44195W        W16521  13.059  34.402  14.840
44196W        W16522  33.599  27.562   4.053
44197W        W16523  14.247  33.678   0.298
44198W        W16524  38.355  35.285  12.843
44199W        W16525  27.171  43.451  11.866
44200W        W16526  24.242   1.339   2.064
44201W        W16527   8.090   9.296   0.548
44202W        W16528  26.683   9.586   2.308
44203W        W16529  21.231  15.845  12.548
44204W        W16530  15.850  24.933   2.946
44205W        W16531   7.269  15.583  12.478
44206W        W16532  43.587  32.731  14.535
44207W        W16533  16.164  27.938  10.897
44208W        W16534  31.848   6.975  14.307
44209W        W16535   7.154  32.162   0.264
44210W        W16536  23.633   7.986   3.180
44211W        W16537   9.503   2.813   3.209
44212W        W16538  40.429  41.386  13.816
44213W        W16539  20.901  11.809  14.066
44214W        W16540  17.194   0.957  10.090
44215W        W16541  18.368  14.187   0.266
44216W        W16542  22.235   0.893  12.526
44217W        W16543  14.774   1.892   3.360
44218W        W16544   5.794  39.687  13.107
44219W        W16545   0.004  25.291   4.994
44220W        W16546  34.014   1.094  11.214
44221W        W16547  30.944  25.487  13.833
44222W        W16548  41.818  13.094  12.660
44223W        W16549  37.177  22.154   3.593
44224W        W16550  43.582  19.238   1.477
44225W        W16551   4.888  28.205   4.496
44226W        W16552  10.868   7.577  11.100
44227W        W16553  32.780  26.765  12.348
44228W        W16554   9.834  16.696  11.635
44229W        W16555  36.499   2.978  14.329
44230W        W16556  40.424  14.661   2.696
44231W        W16557  10.003  34.794  11.460
44232W        W16558   3.498  23.847   5.554
44233W        W16559   1.789  17.337  14.903
44234W        W16560   1.330  35.552  13.443
44235W        W16561  39.498   5.322  13.970
44236W        W16562  34.601   9.400   1.409
44237W        W16563  14.566   8.280   1.448
44238W        W16564  41.034  32.555   3.278
44239W        W16565  43.077  33.088   2.736
44240W        W16566   6.553   9.873   0.777
44241W        W16567  24.524  15.368   2.151
44242W        W16568  27.467  25.451   9.716
44243W        W16569  40.983  13.672  12.022
44244W        W16570  24.256  11.818   4.762
44245W        W16571  30.789  36.822   0.443
44246W        W16572  16.331  22.503   0.572
44247W        W16573  21.687   5.946   0.929
44248W        W16574  13.893  26.769   1.352
44249W        W16575  21.731   4.877  14.976
44250W        W16576   0.425  32.160   4.086
44251W        W16577  19.096  25.484   3.788
44252W        W16578  25.596  32.061   1.340
44253W        W16579   7.446  43.646  11.446
44254W        W16580  37.000   6.849  12.548
44255W        W16581  10.845  23.937   4.548
44256W        W16582  27.728  25.605  11.597
44257W        W16583   5.207   6.380  10.236
44258W        W16584  21.677   8.345  13.997
44259W        W16585  44.438  38.495  14.885
44260W        W16586  21.407  33.165  12.236
44261W        W16587  13.905  26.702  14.060
44262W        W16588  15.580  23.977   3.884
44263W        W16589  33.012   2.562   0.610
44264W        W16590  35.019  24.272  10.607
44265W        W16591  14.298  42.540  12.909
44266W        W16592  29.484  42.261  12.449
44267W        W16593  22.562  20.236   9.921
44268W        W16594  36.522  17.311   0.991
44269W        W16595  35.387   9.882  13.896
44270W        W16596   5.327   7.224   4.519
44271W        W16597  20.280  23.689  13.411
44272W        W16598  16.657  36.425   3.748
44273W        W16599   1.440  11.124  14.479
44274W        W16600  18.481  41.398   0.922
44275W        W16601  30.965   8.597  11.560
44276W        W16602   2.877  30.013   3.111
44277W        W16603  38.927   9.784  14.967
44278W        W16604  12.503  30.614   1.346
44279W        W16605  26.524  39.076   3.710
44280W        W16606   4.948  36.409  12.463
44281W        W16607  18.091  13.096   4.540
44282W        W16608   6.259  15.680  10.794
44283W        W16609  16.080   3.125   2.827
44284W        W16610  44.892  36.890  10.638
44285W        W16611  14.578   5.828   2.763
44286W        W16612  33.191  25.621   2.590
44287W        W16613  27.183  32.531  13.064
44288W        W16614   8.880   4.844  13.940
44289W        W16615  28.069  24.729   2.762
44290W        W16616  40.106  33.819   0.303
44291W        W16617  20.203  19.192  12.140
44292W        W16618  21.538  36.936   0.426
44293W        W16619  35.114  21.745  14.931
44294W        W16620  33.517  14.849  11.545
44295W        W16621  17.135   5.709   3.184
44296W        W16622   7.933  33.432   3.161
44297W        W16623  39.103  10.338  12.020
44298W        W16624  12.425  35.676   0.969
44299W        W16625  38.443  40.680   2.149
44300W        W16626  42.430  28.427  13.318
44301W        W16627  20.586  43.988  14.369
44302W        W16628  32.548  37.049   1.546
44303W        W16629  37.312   9.833   1.851
44304W        W16630  13.527   1.795   1.178
44305W        W16631  29.320  19.104   1.837
44306W        W16632  23.965  40.780  13.980
44307W        W16633  20.049  12.331  12.127
44308W        W16634  33.094  27.185   4.245
44309W        W16635   4.699  21.070   0.474
44310W        W16636  35.957   1.739  12.585
44311W        W16637  16.429  40.651   1.706
44312W        W16638  32.950  27.221   0.947
44313W        W16639  36.620  20.695  14.826
44314W        W16640  11.703  10.553  12.306
44315W        W16641  17.094  33.086  13.887
44316W        W16642  32.914  42.796   4.679
44317W        W16643  40.265  15.176   1.819
44318W        W16644  13.737   4.706   3.274
44319W        W16645  10.093   9.796  10.669
44320W        W16646   2.469  25.817   4.112
44321W        W16647   6.802   3.619   4.758
44322W        W16648  16.410  19.347   2.771
44323W        W16649  34.530   1.227   1.431
44324W        W16650  16.778  23.349   1.987
44325W        W16651   4.861   1.761   4.302
44326W        W16652  28.165  18.127   2.018
44327W        W16653  34.926  22.285  14.091
44328W        W16654  28.442  34.133  12.572
44329W        W16655  25.411  36.960  10.771
44330W        W16656   8.934  21.352  12.652
44331W        W16657  40.553  20.025  10.740
44332W        W16658  23.718  38.799  11.188
44333W        W16659  43.851  41.334  12.838
44334W        W16660  39.644   6.189   4.653
44335W        W16661   3.979  37.895  12.471
44336W        W16662  29.345   1.261  10.779
44337W        W16663  42.807   6.657  11.147
44338W        W16664  16.119   8.697  13.420
44339W        W16665   0.038   3.401  13.046
44340W        W16666  42.649   8.978  11.054
44341W        W16667  17.531  27.029  12.462
44342W        W16668   7.291   3.854   2.418
44343W        W16669  10.623  31.953   1.913
44344W        W16670  25.947   7.864   1.231
44345W        W16671  41.971  30.694   2.927
44346W        W16672  24.520  37.081  12.815
44347W        W16673  42.317  27.957   2.692
44348W        W16674   2.254   1.881  14.059
44349W        W16675  44.362  18.576  13.963
44350W        W16676  41.236   3.032   2.162
44351W        W16677  41.837  23.810   2.124
44352W        W16678  14.659  37.868  12.408
44353W        W16679  39.050  23.134   4.277
44354W        W16680   0.374  29.884  11.852
44355W        W16681  29.095  27.623  13.983
44356W        W16682  17.614  36.299  14.843
44357W        W16683  20.682  41.888  14.268
44358W        W16684   1.581   0.356  13.354
44359W        W16685  39.764  23.953  11.159
44360W        W16686   1.942  30.661   3.065
44361W        W16687   8.832   8.861  12.926
44362W        W16688  23.619  14.015  12.433
44363W        W16689  27.665  11.089   1.456
44364W        W16690  26.602   5.288   1.312
44365W        W16691  42.276   3.140  12.008
44366W        W16692   0.294  42.340   4.096
44367W        W16693  31.877  16.177  14.925
44368W        W16694  16.315  25.512  12.524
44369W        W16695  39.481  11.163  12.136
44370W        W16696  33.464  36.053  13.874
44371W        W16697  17.219  30.954  12.933
44372W        W16698   3.647  30.442  14.898
44373W        W16699   9.632  44.156   2.703
44374W        W16700  14.328  26.732   9.910
44375W        W16701  37.393  40.083   4.357
44376W        W16702  25.437  39.978  11.832
44377W        W16703  26.287  26.434   5.524
44378W        W16704  22.249  20.514   3.636
44379W        W16705  39.885  17.622  12.792
44380W        W16706  16.834  29.325   1.473
44381W        W16707  38.517  33.589   3.355
44382W        W16708  29.409  29.474  12.415
44383W        W16709  15.996  35.450   0.357
44384W        W16710   7.631  32.392   4.061
44385W        W16711  16.756   7.753   1.132
44386W        W16712  13.366  22.724  13.594
44387W        W16713   7.337  12.460   0.388
44388W        W16714  42.543   1.413  12.953
44389W        W16715  27.949   0.250  12.692
44390W        W16716  12.174  16.701   0.637
44391W        W16717  33.832   2.783   3.424
44392W        W16718  29.912  17.197   3.139
44393W        W16719  21.647  13.859   2.326
44394W        W16720  20.480  15.137   2.399
44395W        W16721  21.767  11.844  11.910
44396W        W16722  10.142  31.737  11.693
44397W        W16723  25.122  25.633   4.068
44398W        W16724  39.063  29.452   0.379
44399W        W16725  26.714   8.108  12.464
44400W        W16726  10.326  43.955  14.968
44401W        W16727  10.375   2.105  12.214
44402W        W16728  10.313   1.418   2.123
44403W        W16729  20.721  19.283   3.373
44404W        W16730  40.519  37.111  14.003
44405W        W16731  35.582   3.846   1.190
44406W        W16732  41.379   5.829  10.740
44407W        W16733  15.758  11.641  12.651
44408W        W16734  30.549  26.556   3.683
44409W        W16735  36.315   2.118  13.201
44410W        W16736  13.718  44.181   2.708
44411W        W16737  31.058  33.846  13.478
44412W        W16738  41.757   3.448  10.266
44413W        W16739  28.585  19.987  14.734
44414W        W16740   2.854  36.183   3.159
44415W        W16741  32.872  40.445   3.681
44416W        W16742  27.077  10.831  14.993
44417W        W16743  15.162  13.164   4.200
44418W        W16744  29.889  10.353  12.598
44419W        W16745  43.660  26.885  12.103
44420W        W16746  21.742  36.983   9.402
44421W        W16747  41.654  25.360  13.667
44422W        W16748  12.193  35.892   2.363
44423W        W16749   4.810  32.502   0.640
44424W        W16750  38.875  30.100  14.207
44425W        W16751  25.792  38.877   4.133
44426W        W16752   3.255  11.176   0.063
44427W        W16753  19.597   9.890  10.719
44428W        W16754  20.597  20.480  10.617
44429W        W16755   0.086  38.657  13.956
44430W        W16756  22.921  32.577   3.312
44431W        W16757   8.567  14.974   0.918
44432W        W16758  12.275  20.196  10.734
44433W        W16759   4.439  39.818  11.442
44434W        W16760  28.178  39.952  12.522
44435W        W16761   5.156  22.268   2.732
44436W        W16762   5.700  23.217   4.832
44437W        W16763  34.389  10.418   1.325
44438W        W16764   6.799   4.396  13.270
44439W        W16765  24.001  15.554  10.155
44440W        W16766  10.947  22.665   1.495
44441W        W16767   7.362   5.716  13.876
44442W        W16768   6.354  38.016  12.633
44443W        W16769   5.269  30.468  12.032
44444W        W16770  24.972  33.374   1.778
44445W        W16771   5.973  15.287   1.341
44446W        W16772   3.290  22.600  13.501
44447W        W16773  33.886  16.192   1.862
44448W        W16774  29.769  11.565   4.608
44449W        W16775   5.719  21.253  10.748
44450W        W16776   6.290  38.404   0.974
44451W        W16777  19.782  33.287  13.903
44452W        W16778  29.530  12.826   3.323
44453W        W16779   0.061  43.905   3.564
44454W        W16780   3.164  21.832   2.861
44455W        W16781   0.507   7.155  10.869
44456W        W16782  25.986   4.278  13.539
44457W        W16783  27.190  14.347   3.660
44458W        W16784   2.671  31.464  12.882
44459W        W16785  25.699   1.814  13.408
44460W        W16786   0.855  21.444  14.518
44461W        W16787  36.616  21.728  12.484
44462W        W16788  21.248  42.049  14.790
44463W        W16789  33.693  27.049   0.036
44464W        W16790  12.807   7.269  12.013
44465W        W16791   4.352   8.607   0.559
44466W        W16792  14.228  41.491   2.209
44467W        W16793   5.822  37.190   1.230
44468W        W16794  32.690   3.466  12.472
44469W        W16795   3.628  39.072  13.051
44470W        W16796  28.506   4.863  12.145
44471W        W16797  37.642   1.841  12.396
44472W        W16798  22.966  32.636   1.529
44473W        W16799  22.256   2.418   2.836
44474W        W16800   0.916  20.124  10.471
44475W        W16801  44.178  22.043   2.330
44476W        W16802   0.093  18.238  11.513
44477W        W16803  34.333  28.934  11.356
44478W        W16804  40.853  37.492  14.835
44479W        W16805  22.622  27.759  11.092
44480W        W16806  13.742  35.680   1.805
44481W        W16807  20.665  35.838  14.802
44482W        W16808  22.767  43.258  14.038
44483W        W16809  33.926  36.312  11.569
44484W        W16810  41.759   3.059   1.465
44485W        W16811  12.711   0.455   3.322
44486W        W16812  34.964  30.419   0.724
44487W        W16813  27.684  23.059   1.215
44488W        W16814  35.926   0.265   0.016
44489W        W16815  15.018  43.398   2.353
44490W        W16816  17.511  39.328   3.520
44491W        W16817  10.092  43.922   2.223
44492W        W16818   4.718  27.641  13.528
44493W        W16819  34.901  14.072   0.893
44494W        W16820  15.667   2.706   4.652
44495W        W16821  12.253  39.907   4.570
44496W        W16822   1.781  27.434  11.602
44497W        W16823  11.195  18.122  13.886
44498W        W16824  13.092  26.797   4.658
44499W        W16825  31.272  33.585  12.986
44500W        W16826  12.285   4.735   1.293
44501W        W16827   9.979  24.788   0.906
44502W        W16828  20.809   1.931   2.734
44503W        W16829  36.496  29.460  13.602
44504W        W16830  11.354  42.063   3.239
44505W        W16831   4.634  18.403   4.111
44506W        W16832   4.664  16.221  13.810
44507W        W16833   2.911  34.000   0.838
44508W        W16834   0.309  13.670   0.563
44509W        W16835  41.436  43.229   0.747
44510W        W16836  14.126  21.492   2.665
44511W        W16837  10.448  18.191  14.537
44512W        W16838  41.935   2.463   2.601
44513W        W16839  19.944   6.249  12.523
44514W        W16840  30.865  29.132  12.876
44515W        W16841  25.664  23.953  14.824
44516W        W16842   0.262  32.149   4.583
44517W        W16843  35.143  19.760   3.785
44518W        W16844   1.132  25.604   1.610
44519W        W16845  36.568  33.657  10.765
44520W        W16846   1.521  20.841  11.502
44521W        W16847  31.693   4.534   0.975
44522W        W16848   4.305  23.502  10.268
44523W        W16849  14.981  21.962   4.297
44524W        W16850   4.791   7.957   2.800
44525W        W16851  14.881   1.822   4.675
44526W        W16852  34.926  33.657  13.376
44527W        W16853  27.625   0.018  13.427
44528W        W16854  24.616  37.422   0.354
44529W        W16855  23.054   0.313  12.747
44530W        W16856  16.287  30.406  13.342
44531W        W16857  15.311  18.058   2.278
44532W        W16858  40.237  29.620  12.128
44533W        W16859  11.711  34.936  13.369
44534W        W16860  15.990  26.130   4.846
44535W        W16861  27.143  13.577  14.473
44536W        W16862  42.394  24.729  12.379
44537W        W16863  24.564  17.280  14.902
44538W        W16864  20.350   7.712  11.131
44539W        W16865  19.970  40.389  13.888
44540W        W16866  16.798  39.101   1.985
44541W        W16867  10.087  20.892   0.823
44542W        W16868  27.600  17.380  11.371
44543W        W16869   3.102   3.797   2.773
44544W        W16870  32.033  16.221   3.253
44545W        W16871  33.755  33.955   3.688
44546W        W16872  17.677  30.921   2.221
44547W        W16873   4.331  24.279   3.366
44548W        W16874  41.479  35.063   4.220
44549W        W16875  33.557  40.547   3.170
44550W        W16876  36.679   2.918  10.627
44551W        W16877   5.245  32.629  10.776
44552W        W16878  26.962   0.979  12.998
44553W        W16879  15.650  12.854   3.150
44554W        W16880  21.079  11.806   2.715
44555W        W16881  34.821  41.486  14.977
44556W        W16882   1.642  10.142   3.815
44557W        W16883   1.841   2.244  12.754
44558W        W16884  24.045   0.005  10.721
44559W        W16885  26.120  34.798  11.000
44560W        W16886  39.878  10.537  10.699
44561W        W16887  32.749  28.422  11.641
44562W        W16888  33.858  30.669   4.544
44563W        W16889   7.432  14.156   2.002
44564W        W16890  19.521   5.951  14.613
44565W        W16891  33.945  43.778  14.474
44566W        W16892  25.966  31.532   0.943
44567W        W16893  12.790  13.203   3.782
44568W        W16894  37.571  23.162   3.827
44569W        W16895  20.437  14.017   5.096
44570W        W16896  34.669  23.690   2.703
44571W        W16897  38.107  11.745  11.441
44572W        W16898   8.648  19.627  14.605
44573W        W16899  35.813  12.442   4.165
44574W        W16900   5.159  14.365  14.764
44575W        W16901   9.696  11.794  14.571
44576W        W16902  44.261  33.064   5.187
44577W        W16903  27.064  41.229   2.820
44578W        W16904  29.544   3.515   5.137
44579W        W16905  42.289   8.183  14.264
44580W        W16906  18.578  35.221   0.323
44581W        W16907   1.157  28.994   3.010
44582W        W16908  27.207  17.845  12.871
44583W        W16909  26.270   0.339   1.320
44584W        W16910   6.543  43.580   1.305
44585W        W16911  22.589  25.509  13.051
44586W        W16912  44.284  12.718   4.807
44587W        W16913  34.599   7.902   0.228
44588W        W16914  30.057  33.154   3.962
44589W        W16915   0.825  20.722   2.339
44590W        W16916   3.467  12.306  14.082
44591W        W16917  35.833   5.314  12.833
44592W        W16918   0.800   4.943   3.714
44593W        W16919   6.369   7.719   0.913
44594W        W16920  20.298  30.066  14.828
44595W        W16921  21.826  21.291   3.558
44596W        W16922  39.077  33.144  10.751
44597W        W16923  32.847  43.523  12.118
44598W        W16924  36.752  20.188  14.822
44599W        W16925   8.261  11.347   1.386
44600W        W16926   8.610  18.339   0.254
44601W        W16927  40.809  19.039  14.471
44602W        W16928  24.895  44.315   1.344
44603W        W16929  29.669  28.549  11.896
44604W        W16930  24.271   2.968  13.459
44605W        W16931  17.374  29.369  13.369
44606W        W16932   1.272  19.621   1.533
44607W        W16933  12.117  30.412   4.274
44608W        W16934  11.906  39.112  11.684
44609W        W16935   5.736  22.574  12.352
44610W        W16936  33.472  28.423   2.218
44611W        W16937  37.129   8.597   2.139
44612W        W16938  16.078   1.316   0.794
44613W        W16939  17.297  41.854  12.026
44614W        W16940   4.627  33.616   0.292
44615W        W16941   5.442  31.168  11.545
44616W        W16942   4.764  42.446  12.650
44617W        W16943   9.539   1.329   4.035
44618W        W16944   0.490   6.138  12.885
44619W        W16945  14.946  40.944  14.039
44620W        W16946  35.523  25.247  13.312
44621W        W16947   2.770  32.599   2.628
44622W        W16948  39.549  22.040   3.623
44623W        W16949   6.521   0.938  14.742
44624W        W16950  38.823  29.485  12.084
44625W        W16951  16.373  16.943  11.632
44626W        W16952  40.080   0.464   4.571
44627W        W16953   8.814  14.741   2.759
44628W        W16954   1.227   9.450  10.667
44629W        W16955  12.137  19.621   0.757
44630W        W16956   5.845   0.755  10.829
44631W        W16957  25.508  20.720   1.902
44632W        W16958  19.206   9.209  14.026
44633W        W16959  43.787  20.809  13.631
44634W        W16960  20.099  28.945   2.746
44635W        W16961  37.848  38.190  13.716
44636W        W16962   4.375  21.094  13.590
44637W        W16963  29.063  15.954  14.517
44638W        W16964  21.457  37.969  13.827
44639W        W16965   1.023  12.181  13.936
44640W        W16966   0.000  36.390  12.576
44641W        W16967  22.022  29.956  11.143
44642W        W16968  29.635  35.656   5.070
44643W        W16969   9.297  40.474   4.741
44644W        W16970  36.340  22.672   0.676
44645W        W16971  41.531  27.197   0.059
44646W        W16972  21.084  40.519   5.119
44647W        W16973  37.466   8.781  12.064
44648W        W16974   8.657  28.551   3.106
44649W        W16975  39.846  29.752   2.166
44650W        W16976  29.928  13.601  12.476
44651W        W16977  37.593  30.534  13.392
44652W        W16978  15.191  29.222  12.380
44653W        W16979  38.437  31.059  10.881
44654W        W16980  43.729  35.542  12.446
44655W        W16981  44.786  33.533   2.309
44656W        W16982  30.107  21.992   1.996
44657W        W16983  12.836  24.748  11.076
44658W        W16984   1.790  38.663  11.151
44659W        W16985  15.056  42.109   1.639
44660W        W16986  28.467   5.244   4.102
44661W        W16987   5.795  29.874  12.570
44662W        W16988  39.616  39.700   3.624
44663W        W16989   8.889  34.059   2.151
44664W        W16990   1.885  24.359  13.710
44665W        W16991  34.833  39.920   3.099
44666W        W16992  43.750   4.583  11.155
44667W        W16993   2.013  28.576  13.622
44668W        W16994  16.278  42.435   1.019
44669W        W16995  15.247  14.623   0.148
44670W        W16996  21.018  10.299   1.303
44671W        W16997   2.674   8.178  14.984
44672W        W16998  40.307  28.956  11.624
44673W        W16999  27.162  36.119  11.475
44674W        W17000  42.445  26.010   1.897
44675W        W17001  42.836  34.714   4.240
44676W        W17002  18.980  15.820  10.533
44677W        W17003  35.957  29.353   4.581
44678W        W17004  38.584   3.649  10.742
44679W        W17005   9.887   4.344  14.785
44680W        W17006  33.101  36.227  12.573
44681W        W17007  36.013  27.748  13.924
44682W        W17008  11.664  30.207   4.142
44683W        W17009  33.579   0.479   1.411
44684W        W17010  12.428   2.948   0.336
44685W        W17011  27.227   0.336   1.982
44686W        W17012  15.563   4.319   3.358
44687W        W17013  27.211  24.861   1.905
44688W        W17014  37.867  23.315   4.321
44689W        W17015   2.304   0.293  11.525
44690W        W17016  13.776  31.361   0.536
44691W        W17017  33.820  39.023   0.300
44692W        W17018  21.095  44.507   2.842
44693W        W17019  32.845   1.501   3.658
44694W        W17020  32.432  16.309   1.295
44695W        W17021  10.299  33.674  14.634
44696W        W17022  27.013  37.832  10.584
44697W        W17023  38.511  36.935   0.812
44698W        W17024  39.956  15.869  12.052
44699W        W17025  24.113  34.525   0.965
44700W        W17026  33.868   2.591  11.111
44701W        W17027  26.502  23.314   4.793
44702W        W17028  17.508   6.724   0.988
44703W        W17029  18.672  19.030  13.008
44704W        W17030   1.587   0.502   2.257
44705W        W17031   4.396  37.056   1.887
44706W        W17032  32.875  21.102  10.754
44707W        W17033   9.647  20.512  12.050
44708W        W17034  10.627  28.881  11.683
44709W        W17035  14.828  26.096  10.777
44710W        W17036  24.275  43.954   4.562
44711W        W17037  13.967   2.760   4.635
44712W        W17038  28.505   5.818  13.877
44713W        W17039  14.823  31.979   4.748
44714W        W17040   4.869   4.376  14.481
44715W        W17041  17.819  24.646   4.754
44716W        W17042  28.044  25.520   2.305
44717W        W17043   2.853  21.725   1.972
44718W        W17044  38.529  30.511  14.760
44719W        W17045  30.533  37.564   1.201
44720W        W17046  39.231  42.556  10.617
44721W        W17047  25.502  38.388   3.567
44722W        W17048  34.808  22.508  11.731
44723W        W17049   2.525  35.798  11.596
44724W        W17050  22.393  44.031   2.782
44725W        W17051  18.240   0.485  12.917
44726W        W17052  39.835  41.365  14.322
44727W        W17053  44.505  40.145  11.678
44728W        W17054  19.544   4.036  14.341
44729W        W17055  19.611   6.472   3.403
44730W        W17056   0.272   7.326  12.035
44731W        W17057  12.208  29.025  11.232
44732W        W17058  17.653   1.345   4.459
44733W        W17059  22.114  28.608   1.148
44734W        W17060   1.436  22.573  14.474
44735W        W17061  36.229   1.476  13.801
44736W        W17062   3.534  10.542  14.273
44737W        W17063  16.156  32.968   1.955
44738W        W17064  29.090  22.317  14.577
44739W        W17065  15.627  23.166  14.799
44740W        W17066   1.751  37.602   0.678
44741W        W17067  12.768  13.422  12.200
44742W        W17068  13.033   6.880   2.156
44743W        W17069  11.666   3.988   4.588
44744W        W17070  30.486  25.116   2.376
44745W        W17071  39.789  10.227   1.427
44746W        W17072   1.618  44.747  11.550
44747W        W17073  31.914  30.224   0.796
44748W        W17074  24.497   9.195   4.974
44749W        W17075  39.842   7.962   4.551
44750W        W17076  24.206   9.167   3.573
44751W        W17077  37.881  36.847   1.482
44752W        W17078  40.121   2.799  11.478
44753W        W17079  10.135  18.691   2.339
44754W        W17080   6.438  33.238  12.006
44755W        W17081  24.220   1.286   0.377
44756W        W17082  33.600  27.795  10.326
44757W        W17083  25.643  24.583   1.961
44758W        W17084  17.708   1.298  13.979
44759W        W17085  39.798  38.849  14.046
44760W        W17086  14.181  36.380   4.598
44761W        W17087   3.360  33.934   2.570
44762W        W17088  20.684  44.798   0.803
44763W        W17089  38.591  22.609   3.208
44764W        W17090  23.945  39.704   3.480
44765W        W17091  28.248   5.957   3.871
44766W        W17092  42.224  11.531   2.865
44767W        W17093  28.158  19.714   3.330
44768W        W17094  27.418  27.541   4.023
44769W        W17095  35.340  31.541  13.416
44770W        W17096  18.306  16.951   0.616
44771W        W17097   0.070   7.666   3.251
44772W        W17098  41.782   3.938  10.526
44773W        W17099  27.488  32.574  10.608
44774W        W17100  29.876   2.787   4.142
44775W        W17101  28.303  21.404   4.984
44776W        W17102   1.277   9.981   3.239
44777W        W17103  10.971  41.891  10.794
44778W        W17104   0.828   5.884  13.568
44779W        W17105  16.653  30.828  14.335
44780W        W17106  27.656  24.681  12.492
44781W        W17107  43.018  43.287  14.458
44782W        W17108  41.253  10.148  11.090
44783W        W17109  43.983  31.367   0.358
44784W        W17110  37.858   0.339  11.617
44785W        W17111  31.578   6.674  13.977
44786W        W17112  15.777  36.063  11.149
44787W        W17113  34.490   6.663   1.638
44788W        W17114   5.429  28.224  14.845
44789W        W17115  23.476  10.128  14.860
44790W        W17116  44.218  13.308  13.660
44791W        W17117   7.957  41.186  10.745
44792W        W17118  37.356  23.419   4.221
44793W        W17119   4.452   1.999   0.756
44794W        W17120   6.248  36.100  11.654
44795W        W17121  15.412  37.562   1.847
44796W        W17122   4.668   7.246  12.526
44797W        W17123  44.869  26.442  14.949
44798W        W17124  16.627   1.960   3.875
44799W        W17125  13.907  12.664  14.367
44800W        W17126  13.080  12.148   2.858
44801W        W17127  17.674  32.014  13.899
44802W        W17128  40.987   1.861  10.599
44803W        W17129  15.833  17.313   1.169
44804W        W17130  41.055   5.710  13.549
44805W        W17131  30.444  30.659  11.529
44806W        W17132  42.511   7.819  13.556
44807W        W17133   4.631  16.191  10.908
44808W        W17134  14.079   4.424  14.492
44809W        W17135  15.335  21.008   2.873
44810W        W17136  31.544  16.600  12.666
44811W        W17137  19.305  19.805   2.363
44812W        W17138  29.469  19.320   1.375
44813W        W17139  33.973  13.886   0.932
44814W        W17140  20.980  41.572   3.195
44815W        W17141   9.128  42.373  11.367
44816W        W17142  17.146   0.280  13.622
44817W        W17143  29.455  32.080  13.364
44818W        W17144   0.775   9.930  14.228
44819W        W17145  37.858  28.421  12.661
44820W        W17146   1.315   9.580  12.048
44821W        W17147  37.128   9.511   4.569
44822W        W17148  15.220  21.337  13.796
44823W        W17149  32.686   1.916  11.686
44824W        W17150  18.491  15.601   1.425
44825W        W17151   4.163  14.098   2.373
44826W        W17152  36.890  11.273   4.174
44827W        W17153   6.009  17.746   1.512
44828W        W17154  20.571   1.692  14.113
44829W        W17155  26.379  40.915  12.053
44830W        W17156  15.927   1.695  14.922
44831W        W17157  27.891  25.618   3.276
44832W        W17158  35.423  26.092   2.662
44833W        W17159  19.583   3.474   0.528
44834W        W17160  27.550  15.879  13.437
44835W        W17161  34.095  11.514   2.304
44836W        W17162  28.075  35.697   4.368
44837W        W17163   9.738  33.533  14.767
44838W        W17164  20.749   0.587  11.627
44839W        W17165  34.808  44.228  13.976
44840W        W17166  18.514  38.949   1.736
44841W        W17167  37.489  20.100  12.420
44842W        W17168  17.613  44.815   3.158
44843W        W17169  34.663  10.816   2.677
44844W        W17170  21.943  15.276   0.424
44845W        W17171  41.527   4.999   0.695
44846W        W17172   1.658   7.375  14.594
44847W        W17173  28.799  35.875   3.016
44848W        W17174  42.681  27.035   1.391
44849W        W17175  42.086   6.417   3.815
44850W        W17176  33.526  15.986  10.129
44851W        W17177  35.502   2.736   4.566
44852W        W17178   7.430  31.548  14.531
44853W        W17179  19.078   5.651   1.931
44854W        W17180  17.290  39.876   0.242
44855W        W17181  35.140  23.117  12.605
44856W        W17182   0.398  32.080  13.865
44857W        W17183  10.374  31.971  14.096
44858W        W17184  28.434   2.014   1.436
44859W        W17185  17.912  22.639  11.211
44860W        W17186  39.032   6.736   2.386
44861W        W17187  11.809  11.309  11.089
44862W        W17188   6.695  22.382   4.251
44863W        W17189   3.486  16.606  11.599
44864W        W17190  33.818   5.457   2.873
44865W        W17191  22.167   4.180  12.555
44866W        W17192  44.988   1.120  11.791
44867W        W17193  30.715  39.102   4.145
44868W        W17194  36.518  19.113  13.320
44869W        W17195  15.713   3.391  11.287
44870W        W17196  25.983  14.539   4.228
44871W        W17197  18.425  42.030  13.327
44872W        W17198   6.261  40.434  11.585
44873W        W17199   4.240  40.767  14.821
44874W        W17200  34.409   9.115  13.463
44875W        W17201   7.316  31.293  11.941
44876W        W17202  14.773  44.825  14.083
44877W        W17203  18.020  26.219   1.305
44878W        W17204  38.876   8.558   4.904
44879W        W17205  43.504  39.810   4.151
44880W        W17206  24.406  13.294   2.863
44881W        W17207  20.936   0.743   1.307
44882W        W17208  11.722  10.227   2.454
44883W        W17209  40.065  13.573  12.423
44884W        W17210   5.486  16.826   0.977
44885W        W17211  10.817  19.568   2.644
44886W        W17212  20.013  21.529   1.869
44887W        W17213  24.231  41.448   1.794
44888W        W17214   0.505  32.327  12.022
44889W        W17215  20.091  28.434   4.488
44890W        W17216  34.380  23.293  12.467
44891W        W17217  25.359  19.799   1.171
44892W        W17218   5.231  35.098  10.183
44893W        W17219  38.765  42.513   9.681
44894W        W17220   7.829  20.211  13.532
44895W        W17221  39.361  38.262  10.140
44896W        W17222  28.374  12.723  10.434
44897W        W17223  35.382  32.068   2.684
44898W        W17224  39.584  16.599   2.397
44899W        W17225   3.225   4.460   0.323
44900W        W17226  12.095  16.358   2.178
44901W        W17227  37.989  15.198  11.194
44902W        W17228  31.172  38.828  13.098
44903W        W17229  39.497  15.915  13.449
44904W        W17230   2.367  27.181   3.717
44905W        W17231  17.288   8.780  12.143
44906W        W17232  30.768  26.955  14.118
44907W        W17233  29.011  37.260   2.429
44908W        W17234   6.883   1.800  13.767
44909W        W17235  19.027  36.969  12.522
44910W        W17236  28.413  10.796  11.788
44911W        W17237   5.959  27.459   4.459
44912W        W17238  16.833  24.094  14.036
44913W        W17239  10.810  24.551   4.317
44914W        W17240   3.880  14.254  13.335
44915W        W17241  12.921   0.967   4.888
44916W        W17242  41.983  22.260   2.317
44917W        W17243  19.687  34.913  11.270
44918W        W17244  34.491   7.233  10.639
44919W        W17245  26.846   4.710   3.237
44920W        W17246   9.373  36.499  13.607
44921W        W17247   2.897  22.236  12.756
44922W        W17248  22.532  37.401  11.196
44923W        W17249  20.090   3.927  13.372
44924W        W17250  22.887  25.171   5.004
44925W        W17251  43.560  42.410  11.133
44926W        W17252   6.771   5.315  13.855
44927W        W17253  25.114  15.711   5.193
44928W        W17254  26.547   6.669   2.431
44929W        W17255   0.504  37.436   0.818
44930W        W17256   0.492  15.137   1.910
44931W        W17257   7.807  13.929  11.077
44932W        W17258  37.160   2.720  10.798
44933W        W17259  39.449  32.216  14.606
44934W        W17260  32.021  42.990   4.583
44935W        W17261  16.831  28.088  13.487
44936W        W17262  40.919  40.406   1.993
44937W        W17263  19.506  43.458   3.328
44938W        W17264  31.932   4.775   1.761
44939W        W17265   5.149  16.180  14.566
44940W        W17266  43.276   4.618  10.940
44941W        W17267  34.166   0.711  12.958
44942W        W17268  35.620  23.038   1.888
44943W        W17269  30.116  35.592  11.616
44944W        W17270  16.882  31.462  11.651
44945W        W17271   3.218  12.117  14.526
44946W        W17272  41.252  18.705   4.622
44947W        W17273  32.846   9.301  11.023
44948W        W17274  26.929  27.302   2.330
44949W        W17275  15.794   5.991  12.844
44950W        W17276  40.270  17.693   2.423
44951W        W17277  31.505  19.316   3.723
44952W        W17278  17.259   2.729  14.052
44953W        W17279  43.175  23.093   3.785
44954W        W17280  35.344   1.265   2.860
44955W        W17281  38.532  36.613  13.472
44956W        W17282   1.789  20.529   0.811
44957W        W17283  32.518  18.787  12.837
44958W        W17284  37.838   6.684   0.767
44959W        W17285  23.375  38.633  10.294
44960W        W17286  27.834  42.943  11.958
44961W        W17287  35.156  39.136  10.344
44962W        W17288  31.580  11.683  11.502
44963W        W17289  18.496  14.734   2.732
44964W        W17290  15.802  19.104  14.419
44965W        W17291  44.639   0.486   1.272
44966W        W17292  33.699   6.428   4.603
44967W        W17293  16.266  34.992  11.599
44968W        W17294   9.675  20.577   0.867
44969W        W17295  38.961  41.259   0.906
44970W        W17296  33.442  25.643   3.820
44971W        W17297  22.156  21.935   3.778
44972W        W17298  13.803  44.147   2.001
44973W        W17299  19.866  34.941  12.127
44974W        W17300  30.380  41.980  12.520
44975W        W17301   0.513  21.168  10.767
44976W        W17302  37.373   0.255   1.799
44977W        W17303   5.011  43.890   1.076
44978W        W17304  27.610  14.384  13.540
44979W        W17305  37.725  31.718   5.170
44980W        W17306  28.868  18.639   0.564
44981W        W17307  35.507   4.560  13.816
44982W        W17308  22.769  41.898  14.306
44983W        W17309  23.937  10.786   0.299
44984W        W17310  15.811  34.641  11.054
44985W        W17311  41.878  20.152   1.330
44986W        W17312  29.563  11.337   4.173
44987W        W17313  43.331  28.230  10.211
44988W        W17314  22.168  44.250  13.915
44989W        W17315   2.963  41.083   2.318
44990W        W17316  21.064   2.806   3.194
44991W        W17317  14.530   3.017   9.832
44992W        W17318  13.392   0.937   4.647
44993W        W17319  38.614  19.555  14.066
44994W        W17320  19.340  33.645   3.086
44995W        W17321   3.333  14.473  11.604
44996W        W17322  39.779  15.086  14.405
44997W        W17323  43.623  42.885   2.780
44998W        W17324  12.423   7.447   1.632
44999W        W17325  35.099  29.691   1.298
45000W        W17326  42.395  14.254  14.933
45001W        W17327  15.201  25.731  10.814
45002W        W17328  35.845  37.539   4.605
45003W        W17329   2.223   6.400  14.952
45004W        W17330  15.229  36.824   2.193
45005W        W17331  21.763  36.010   0.545
45006W        W17332   8.413   1.371  14.227
45007W        W17333  31.782  43.693  14.872
45008W        W17334  39.450  39.090  14.378
45009W        W17335  15.985  11.276  13.548
45010W        W17336  37.962   2.074  10.934
45011W        W17337  12.841  35.993   3.383
45012W        W17338  26.959   2.777  14.372
45013W        W17339  19.550  25.191   2.263
45014W        W17340   4.203  11.607   3.317
45015W        W17341  21.521  31.173  12.876
45016W        W17342  35.100  11.879   4.148
45017W        W17343  31.036  31.673  12.038
45018W        W17344  23.038   7.481  10.750
45019W        W17345  24.098  44.002  10.690
45020W        W17346  22.751  14.754   1.806
45021W        W17347  24.426  26.176  10.419
45022W        W17348   2.091  12.046   4.114
45023W        W17349  21.772   6.166   2.239
45024W        W17350  14.315  12.774  14.039
45025W        W17351  33.785  13.335   0.956
45026W        W17352  31.392  29.071  13.875
45027W        W17353   9.656  38.952   3.236
45028W        W17354  23.919  38.331  10.526
45029W        W17355   2.781  36.181  13.597
45030W        W17356  33.503  34.268   0.119
45031W        W17357  10.752  40.034   0.932
45032W        W17358   3.916  28.502  14.015
45033W        W17359  13.309  39.680   0.756
45034W        W17360  22.696  28.451   1.987
45035W        W17361  10.181  28.000   4.067
45036W        W17362  43.981  24.503   1.449
45037W        W17363  39.868   4.852   4.814
45038W        W17364  34.001  24.465  11.526
45039W        W17365  10.148  15.813  11.195
45040W        W17366   6.932  30.973   0.336
45041W        W17367   4.447  16.285   1.799
45042W        W17368   7.814  39.626   1.935
45043W        W17369  37.486  19.331   4.384
45044W        W17370  19.549  19.036  14.357
45045W        W17371  38.925   8.905   2.681
45046W        W17372  10.435   7.019   2.798
45047W        W17373   8.813  39.075  12.889
45048W        W17374  41.904  32.697  14.064
45049W        W17375   5.778   8.159  13.037
45050W        W17376  44.176  10.701  13.502
45051W        W17377  38.531   0.507  13.790
45052W        W17378  14.124  33.775   3.769
45053W        W17379  19.432   5.329  14.054
45054W        W17380  12.893  31.066   3.086
45055W        W17381  44.181  33.381   3.555
45056W        W17382  30.562  26.001   2.306
45057W        W17383   8.492  29.102  14.779
45058W        W17384  42.870  24.487   2.710
45059W        W17385   7.896  26.592  13.494
45060W        W17386  15.733  11.157  10.894
45061W        W17387  15.662  30.411  11.562
45062W        W17388   6.801   9.851  14.147
45063W        W17389  27.572  40.350  11.880
45064W        W17390  38.625  18.525  11.417
45065W        W17391  32.293  11.116   2.611
45066W        W17392  10.850  18.992  13.901
45067W        W17393  21.480   1.738   1.373
45068W        W17394   8.720  12.061   1.327
45069W        W17395   9.205  27.099   4.334
45070W        W17396  12.728  26.421  13.481
45071W        W17397  15.143  20.203  10.521
45072W        W17398  22.050  22.033   1.404
45073W        W17399  35.624  31.629   2.835
45074W        W17400  27.028  31.371  14.011
45075W        W17401  42.488  42.330  11.457
45076W        W17402   0.376   0.866  11.999
45077W        W17403  26.629   0.057   3.222
45078W        W17404  12.223   4.133  14.373
45079W        W17405  19.092  21.668   4.753
45080W        W17406  43.232  35.942  14.025
45081W        W17407  19.370  32.578   5.036
45082W        W17408  12.332  31.511   1.296
45083W        W17409   2.214  33.700   3.527
45084W        W17410  15.632  37.302  12.348
45085W        W17411   9.989  30.767  12.006
45086W        W17412   7.715  42.822  12.201
45087W        W17413   5.223  23.467  14.014
45088W        W17414  21.555  34.958  10.706
45089W        W17415  14.530  44.077  14.753
45090W        W17416  10.974  34.588   5.620
45091W        W17417  16.813  39.631  10.889
45092W        W17418  37.491  21.674   4.667
45093W        W17419  32.915  36.515   1.760
45094W        W17420   5.032  34.938   2.147
45095W        W17421  20.046   5.916   0.927
45096W        W17422  33.319  27.637   1.414
45097W        W17423   4.900  36.025  12.850
45098W        W17424  42.769  23.281  10.807
45099W        W17425  41.393  42.407  13.856
45100W        W17426  14.772   5.460   2.436
45101W        W17427  36.868  17.019   1.335
45102W        W17428  10.306  23.110   2.273
45103W        W17429  15.293  22.529   1.218
45104W        W17430  44.236   5.247   2.629
45105W        W17431  16.074  40.255  10.567
45106W        W17432  23.645  13.950  14.362
45107W        W17433  28.570   2.910   2.760
45108W        W17434  44.816  35.549   0.539
45109W        W17435  10.348  12.875  14.417
45110W        W17436  12.563  35.557   0.444
45111W        W17437  43.807   8.183   2.291
45112W        W17438  22.294  10.740  13.573
45113W        W17439   4.247   5.796  14.702
45114W        W17440  17.646   2.140   2.901
45115W        W17441  34.370  14.563  13.399
45116W        W17442  29.528  44.957  14.868
45117W        W17443  23.712   9.648   4.723
45118W        W17444  32.278  26.482  11.473
45119W        W17445  31.438  41.297  12.918
45120W        W17446   2.351  17.543  10.356
45121W        W17447   1.122  19.975   1.880
45122W        W17448  17.642  10.339   4.234
45123W        W17449  34.139  23.670  13.994
45124W        W17450   3.337  13.177   0.844
45125W        W17451  30.975  44.052  13.553
45126W        W17452   7.873  14.714  12.222
45127W        W17453  25.759  14.083  13.803
45128W        W17454  22.646  36.822   4.634
45129W        W17455  25.774  13.118  12.349
45130W        W17456  41.978   9.477   2.162
45131W        W17457  31.341  40.729   0.756
45132W        W17458  25.184  26.111   0.394
45133W        W17459  29.925   2.171   1.512
45134W        W17460  41.001  35.499   3.424
45135W        W17461  28.369  21.052  10.964
45136W        W17462  32.181  16.090   0.350
45137W        W17463   8.469  16.497  11.605
45138W        W17464  20.505  24.179   1.866
45139W        W17465  21.302  16.865   0.059
45140W        W17466   5.829  15.344  10.621
45141W        W17467   2.309  10.715  13.761
45142W        W17468  28.490  18.528  14.678
45143W        W17469  36.877  22.538  12.905
45144W        W17470  44.150  11.636  11.161
45145W        W17471  37.869  35.955   0.469
45146W        W17472  18.624   5.182   3.563
45147W        W17473   0.056  22.687   3.249
45148W        W17474  37.358  39.306  13.506
45149W        W17475   4.429  30.661   2.110
45150W        W17476  13.419  14.415   3.831
45151W        W17477  29.698  43.414   3.306
45152W        W17478   3.892   9.927   3.701
45153W        W17479  17.566  31.524  14.031
45154W        W17480  41.049  14.695   1.714
45155W        W17481  13.381  24.283   2.956
45156W        W17482   8.686  41.231   0.831
45157W        W17483  22.439  38.062   3.479
45158W        W17484  20.620  18.013  12.431
45159W        W17485  31.971  21.512   1.789
45160W        W17486   8.395  37.645  11.093
45161W        W17487  26.455  24.732  10.489
45162W        W17488  28.591  15.817   0.415
45163W        W17489   8.646  38.962   3.410
45164W        W17490  39.300  10.474  11.156
45165W        W17491   9.847  19.767  11.697
45166W        W17492  13.749   5.613   4.570
45167W        W17493  28.620   1.468   1.226
45168W        W17494  15.067  44.346  12.056
45169W        W17495  16.227  41.222  12.392
45170W        W17496  15.780  14.079   2.269
45171W        W17497  32.671  42.902  14.371
45172W        W17498  43.611  27.930  10.997
45173W        W17499  37.008  26.736   3.288
45174W        W17500  33.554  28.715   2.648
45175W        W17501   6.172  36.035   0.764
45176W        W17502   4.254  13.506   3.365
45177W        W17503  30.323  10.205  10.462
45178W        W17504   9.112  24.197  11.141
45179W        W17505  37.794  15.175  12.848
45180W        W17506  21.561   4.178  13.366
45181W        W17507  16.737  22.527  13.146
45182W        W17508  37.889   5.276  12.344
45183W        W17509   0.036   1.581  11.586
45184W        W17510   0.472  34.545   4.109
45185W        W17511   0.005  33.504   1.853
45186W        W17512  20.226  22.073   0.976
45187W        W17513  43.247   2.723   2.875
45188W        W17514   1.109  12.625   2.819
45189W        W17515  41.734  42.542  11.889
45190W        W17516  16.715   0.028   0.209
45191W        W17517  14.186  23.264   1.742
45192W        W17518  24.960   3.067   3.787
45193W        W17519  15.743  12.150  10.730
45194W        W17520  42.591  25.178  13.082
45195W        W17521  30.383  18.210   1.935
45196W        W17522  20.732  10.348  10.969
45197W        W17523   7.717  31.899   2.852
45198W        W17524  38.831  43.927  10.480
45199W        W17525  26.954  28.824   3.707
45200W        W17526   1.308  21.350  11.657
45201W        W17527  12.113  37.026  14.731
45202W        W17528   0.844  22.101   5.009
45203W        W17529  42.799   7.362   4.748
45204W        W17530   2.945   0.451   2.169
45205W        W17531  22.585   8.941  13.112
45206W        W17532  25.253  36.459   1.763
45207W        W17533   3.654  38.881   1.428
45208W        W17534  39.094  21.785   3.642
45209W        W17535  16.492  32.188   0.272
45210W        W17536  26.078  32.889   0.057
45211W        W17537  34.841  20.188  14.612
45212W        W17538  11.241  31.043   0.510
45213W        W17539  15.084  21.309   3.204
45214W        W17540  30.721  43.944   2.292
45215W        W17541  11.816   1.246  10.606
45216W        W17542  14.279  12.768  10.775
45217W        W17543  16.729  18.340   0.525
45218W        W17544  11.183  39.801  11.856
45219W        W17545  14.922  33.498  12.232
45220W        W17546   8.392  32.533  10.735
45221W        W17547   4.889  27.827  11.119
45222W        W17548  39.265  10.654  12.418
45223W        W17549  38.681  27.094   2.560
45224W        W17550   1.233  10.904   4.675
45225W        W17551  11.928  33.050  14.567
45226W        W17552  24.112   9.110  14.694
45227W        W17553  39.230  19.704   1.721
45228W        W17554  31.510  15.721  12.299
45229W        W17555  10.200  17.179  12.400
45230W        W17556  42.180  43.828   1.197
45231W        W17557  42.108  16.563   0.266
45232W        W17558  21.759  40.800   1.788
45233W        W17559  35.629  19.514   0.218
45234W        W17560   8.391  29.689   3.185
45235W        W17561  35.428  29.135  12.904
45236W        W17562   9.566  25.187   3.509
45237W        W17563  28.367  16.084  12.036
45238W        W17564  10.336   3.136   3.806
45239W        W17565   3.375  42.001  12.909
45240W        W17566  15.667  17.612   1.949
45241W        W17567  41.857   7.966   2.627
45242W        W17568  10.198  32.759   1.753
45243W        W17569  35.435  15.408   2.358
45244W        W17570  34.804   8.845  13.244
45245W        W17571   4.991   8.244  11.287
45246W        W17572  43.528  44.093   0.702
45247W        W17573   8.722  29.508   3.537
45248W        W17574  16.180  10.398  10.544
45249W        W17575   6.294  21.590   1.706
45250W        W17576  43.013  35.760   4.166
45251W        W17577  29.508   9.607   4.269
45252W        W17578  39.494   2.373   1.432
45253W        W17579  14.599  44.247   0.264
45254W        W17580   0.160  33.507   3.794
45255W        W17581  43.157   2.214  13.622
45256W        W17582  12.610  26.221  12.453
45257W        W17583   1.184  40.446  11.012
45258W        W17584  28.395  35.885  14.221
45259W        W17585  22.910  14.128   2.774
45260W        W17586  10.865  27.872   3.593
45261W        W17587  21.633   4.241   2.623
45262W        W17588   0.808  18.999   1.059
45263W        W17589  38.448   9.166   3.846
45264W        W17590  11.925   8.213   0.381
45265W        W17591   0.497   4.659  10.680
45266W        W17592  31.375  26.224  14.566
45267W        W17593  20.606  16.605   1.319
45268W        W17594   4.395  10.900   0.322
45269W        W17595  12.071  30.926   2.852
45270W        W17596  13.460  24.722   2.657
45271W        W17597   7.455  19.520  14.004
45272W        W17598  23.564  26.178  12.495
45273W        W17599  38.725  22.527   5.034
45274W        W17600  23.993  25.788  13.115
45275W        W17601  17.148  21.288  14.878
45276W        W17602  12.388  32.118  11.432
45277W        W17603  12.875  21.458   1.263
45278W        W17604   6.226  27.738  13.032
45279W        W17605  35.951  25.033  12.060
45280W        W17606  23.994  12.086  14.397
45281W        W17607  41.504  14.825  11.564
45282W        W17608  37.421  11.596  10.156
45283W        W17609  20.241  34.341   1.418
45284W        W17610  19.067  36.547  13.970
45285W        W17611  33.223   9.121  14.328
45286W        W17612   8.595  17.565   2.047
45287W        W17613  38.940  42.797   1.150
45288W        W17614  13.133  25.062   0.858
45289W        W17615  23.304  22.462   2.385
45290W        W17616  20.639  38.455  13.827
45291W        W17617  11.911   2.903   0.478
45292W        W17618  29.911  39.978  11.956
45293W        W17619  34.868  15.244   1.858
45294W        W17620   6.596  30.509  14.052
45295W        W17621  22.777  23.724   5.021
45296W        W17622  17.673  24.292  13.863
45297W        W17623   9.431   7.896   1.157
45298W        W17624  18.755  13.307   0.079
45299W        W17625   4.708  28.407  10.539
45300W        W17626  24.265  24.998  13.366
45301W        W17627   4.244  23.701  13.362
45302W        W17628  18.324  35.554   3.761
45303W        W17629  24.464  24.908   4.284
45304W        W17630  17.676  14.222  14.850
45305W        W17631  34.007  18.926   4.985
45306W        W17632  44.359  39.449   1.851
45307W        W17633  24.534  19.857  12.572
45308W        W17634  43.893  36.658  12.313
45309W        W17635  28.865  17.682   0.965
45310W        W17636  12.187  23.530  12.971
45311W        W17637  13.241  29.689  11.174
45312W        W17638   1.820  20.698   4.645
45313W        W17639   6.654  31.398   0.328
45314W        W17640  40.507   0.989  10.705
45315W        W17641  27.956  20.447   1.898
45316W        W17642  24.753   7.708   2.144
45317W        W17643   0.446   3.536  11.398
45318W        W17644  36.740  16.209   1.332
45319W        W17645   6.671  17.830   1.883
45320W        W17646   0.092  23.149   0.151
45321W        W17647  14.284  10.358   4.133
45322W        W17648  22.704  40.532   3.013
45323W        W17649  38.850  42.446  13.344
45324W        W17650  22.910  27.949  14.581
45325W        W17651  13.573  24.404  13.999
45326W        W17652  18.908  13.011  12.672
45327W        W17653  33.630  23.003   4.291
45328W        W17654   8.636  30.638   3.195
45329W        W17655   9.948  15.706  14.117
45330W        W17656   1.805  36.411  10.721
45331W        W17657  41.245  44.732  12.839
45332W        W17658  12.642  26.817   0.411
45333W        W17659  14.927   4.567   2.326
45334W        W17660  23.143   8.358   1.385
45335W        W17661  41.118  29.964  13.394
45336W        W17662  10.859  43.576  10.719
45337W        W17663  30.147  14.688  12.551
45338W        W17664  10.737  44.451  12.671
45339W        W17665  41.425  25.668   4.551
45340W        W17666  31.832  38.281   0.534
45341W        W17667   3.661  15.706  11.104
45342W        W17668  30.182   8.300  14.353
45343W        W17669  16.180  36.081  14.329
45344W        W17670  13.200  44.668  12.438
45345W        W17671  28.992  44.925   1.923
45346W        W17672   0.571   1.069   4.133
45347W        W17673  23.606  19.069  12.999
45348W        W17674  28.948  41.268   3.848
45349W        W17675   9.912  21.766   2.902
45350W        W17676  21.689  18.520  14.413
45351W        W17677  41.511   8.364   2.527
45352W        W17678   2.758  16.304  12.590
45353W        W17679   5.497  39.824   1.868
45354W        W17680  33.704  14.350   1.744
45355W        W17681  40.121  11.776  13.535
45356W        W17682  20.915  31.415  13.853
45357W        W17683  30.419   1.234  10.692
45358W        W17684  38.631   3.654  14.031
45359W        W17685  18.037  26.543   2.316
45360W        W17686  15.602  16.785  13.965
45361W        W17687  44.405  35.795   0.894
45362W        W17688  29.403   1.209  11.566
45363W        W17689  41.433   9.387   4.277
45364W        W17690  23.655  41.348   4.480
45365W        W17691   8.235   6.970   1.001
45366W        W17692  16.506  13.157  14.869
45367W        W17693  34.091  37.979  14.787
45368W        W17694  40.297  18.958   1.956
45369W        W17695  40.527  39.777   2.641
45370W        W17696  21.549  34.914   1.672
45371W        W17697  33.013  12.939   4.921
45372W        W17698  44.298  21.613   4.677
45373W        W17699  32.990  42.319  14.850
45374W        W17700  19.681  26.422  13.767
45375W        W17701  31.461  33.525   2.157
45376W        W17702  17.792   6.710   1.419
45377W        W17703  42.357  22.241  11.683
45378W        W17704  13.809  18.871   1.372
45379W        W17705  21.064  37.656  13.992
45380W        W17706  43.932  12.124  14.031
45381W        W17707  26.165   8.924   4.674
45382W        W17708   6.187  31.034  11.090
45383W        W17709   3.517  38.140   0.714
45384W        W17710  17.570   2.027  12.652
45385W        W17711  24.681  22.073   3.498
45386W        W17712  43.360  16.133  13.911
45387W        W17713   3.725  17.673  10.965
45388W        W17714  30.358  19.429  11.223
45389W        W17715  27.587  19.191   4.665
45390W        W17716  31.822  16.607  14.458
45391W        W17717   8.670   9.764  13.080
45392W        W17718  29.194  38.398   1.476
45393W        W17719  15.643  40.557  12.870
45394W        W17720   2.740  36.456   2.262
45395W        W17721  33.026  31.193  12.052
45396W        W17722  28.685   4.181  13.847
45397W        W17723  37.941  14.633  14.325
45398W        W17724   2.445  33.897   2.213
45399W        W17725  43.484  16.778  14.335
45400W        W17726  30.913  31.339  11.672
45401W        W17727  20.132   8.331   1.873
45402W        W17728   2.884  13.113  14.262
45403W        W17729  27.393   3.458  11.321
45404W        W17730  35.542   6.864   0.118
45405W        W17731  32.595  40.166  14.419
45406W        W17732  35.927   7.440  14.942
45407W        W17733  22.143  15.642  10.679
45408W        W17734  15.784  27.028   1.292
45409W        W17735  44.888   8.873  11.580
45410W        W17736   3.161  36.180  11.052
45411W        W17737  38.940  22.772   4.626
45412W        W17738  13.342   2.952  14.514
45413W        W17739  30.659  32.498  14.262
45414W        W17740  27.108  39.389  11.239
45415W        W17741  43.692  15.117  13.358
45416W        W17742   0.983   0.958   3.337
45417W        W17743  16.793  31.660  14.675
45418W        W17744  41.390  24.661   0.333
45419W        W17745  31.584   7.733   3.285
45420W        W17746   8.358  34.897   3.224
45421W        W17747  29.400  28.928  12.941
45422W        W17748  21.639  13.840   1.329
45423W        W17749  28.371  33.193  13.391
45424W        W17750  24.854  32.180   4.118
45425W        W17751  44.464  30.036  13.069
45426W        W17752   9.759  14.397  11.982
45427W        W17753  21.093  10.587  13.469
45428W        W17754   0.510  19.213  13.856
45429W        W17755  26.686  18.166  11.271
45430W        W17756  19.682  22.967   2.471
45431W        W17757  18.770  29.994  13.913
45432W        W17758  30.573  30.902   2.152
45433W        W17759  29.101  40.062   0.512
45434W        W17760  35.074  17.978  10.266
45435W        W17761   3.092  34.463  11.949
45436W        W17762  33.816  31.543   1.537
45437W        W17763  28.279  23.054   4.876
45438W        W17764  16.093   3.957  12.521
45439W        W17765  40.907  13.002  14.932
45440W        W17766  25.414  44.999   0.744
45441W        W17767  32.702  44.884   4.917
45442W        W17768  42.312  35.928   2.199
45443W        W17769  37.160  32.978  12.246
45444W        W17770  19.156  26.606   4.152
45445W        W17771  29.877  12.772  13.772
45446W        W17772  34.430  20.343  10.947
45447W        W17773  34.119  21.561   3.178
45448W        W17774  23.450   7.330  12.936
45449W        W17775  36.464   6.959  11.081
45450W        W17776   6.946  44.980   4.364
45451W        W17777  25.046  28.574  14.758
45452W        W17778  32.960  29.847  14.161
45453W        W17779  28.468  42.755   1.302
45454W        W17780  32.959   7.669  11.540
45455W        W17781  17.112   0.734   1.391
45456W        W17782  40.613   3.369   2.255
45457W        W17783   4.883  21.258   5.189
45458W        W17784   2.294  10.132  13.290
45459W        W17785   0.684   3.884  13.350
45460W        W17786   7.168  29.075  12.382
45461W        W17787   7.261  42.385   3.132
45462W        W17788  38.864  16.676  12.184
45463W        W17789   0.880  25.570   4.806
45464W        W17790  17.029  18.036  12.393
45465W        W17791  27.478  26.972   3.784
45466W        W17792  15.550  42.296   3.258
45467W        W17793   4.943  36.056   1.306
45468W        W17794  19.824  43.501   0.701
45469W        W17795  28.139  14.253   2.663
45470W        W17796  27.916  25.652   0.399
45471W        W17797  10.149   4.129   0.186
45472W        W17798   5.467  15.431  12.977
45473W        W17799  26.131  37.063   1.690
45474W        W17800  31.186  41.203  13.822
45475W        W17801   9.466  18.175   5.022
45476W        W17802   7.197  19.255  11.124
45477W        W17803  17.055  22.737   2.385
45478W        W17804  41.885  23.274   1.491
45479W        W17805   0.738   2.653   0.452
45480W        W17806  13.683  20.840   1.877
45481W        W17807  13.290  44.700   2.399
45482W        W17808   9.193  25.176   0.905
45483W        W17809   9.327  26.464   4.103
45484W        W17810  21.315  30.697  14.444
45485W        W17811  39.754   3.324  13.534
45486W        W17812  17.674  22.479  14.487
45487W        W17813  40.096  14.514  13.402
45488W        W17814  36.586   3.699  13.838
45489W        W17815   8.534   9.806  11.549
45490W        W17816  13.658  42.364   2.631
45491W        W17817  30.642  28.351  12.080
45492W        W17818  21.595  21.344  12.541
45493W        W17819  32.391   9.649   0.753
45494W        W17820   9.095   1.518   2.266
45495W        W17821  21.690  34.587  13.430
45496W        W17822  24.995  17.480  13.894
45497W        W17823  41.485  25.576   3.282
45498W        W17824  10.408   2.782  13.395
45499W        W17825  16.942  27.569   0.032
45500W        W17826  19.598  21.945   3.216
45501W        W17827  27.878  42.637  11.537
45502W        W17828  42.307  15.502   2.130
45503W        W17829  23.770   1.426   4.582
45504W        W17830  30.923  20.981  14.796
45505W        W17831  28.575  42.211  11.106
45506W        W17832  28.208   2.211   1.856
45507W        W17833   3.930  35.253   0.287
45508W        W17834  26.986  26.867   3.678
45509W        W17835  40.483  13.230  14.758
45510W        W17836  19.133  26.281  12.073
45511W        W17837  20.977  42.074  11.164
45512W        W17838  44.908   8.437   2.891
45513W        W17839  24.989  31.877   4.886
45514W        W17840  31.769   7.958   1.440
45515W        W17841  11.408  36.575  12.020
45516W        W17842  34.951  34.952  12.826
45517W        W17843  20.973  17.811   0.167
45518W        W17844  28.792   2.428   2.648
45519W        W17845  29.281  11.748   1.843
45520W        W17846  27.467   2.748  11.184
45521W        W17847  28.567  11.165   1.981
45522W        W17848  13.390  16.555  11.204
45523W        W17849   1.642  44.439   2.865
45524W        W17850  38.974  15.754   1.631
45525W        W17851  26.886  24.778  14.554
45526W        W17852  11.350   5.405  10.656
45527W        W17853  33.180   8.158  11.524
45528W        W17854  11.084  13.122  12.086
45529W        W17855  30.072  15.804   4.338
45530W        W17856  13.809  20.181  12.610
45531W        W17857  44.407  38.437   1.763
45532W        W17858  30.032   1.796  14.725
45533W        W17859  16.585  19.454  13.914
45534W        W17860  39.272  20.810   1.172
45535W        W17861   9.660   2.279  12.980
45536W        W17862   7.269   2.856  10.770
45537W        W17863  34.429  21.429   0.027
45538W        W17864   2.952  14.283   1.267
45539W        W17865   3.826   7.704  14.995
45540W        W17866   6.437  10.105  14.902
45541W        W17867  37.566   2.022  10.398
45542W        W17868  43.555   3.891   0.848
45543W        W17869  19.541  12.281  14.825
45544W        W17870  36.622  40.167   1.283
45545W        W17871  41.117  31.740   3.592
45546W        W17872  43.811  14.578   0.925
45547W        W17873   4.357  38.960  11.555
45548W        W17874  41.733  28.020   1.583
45549W        W17875  12.903  27.534   4.165
45550W        W17876  40.281   2.909   0.223
45551W        W17877  44.414  35.518  13.584
45552W        W17878  32.416  26.815  14.025
45553W        W17879  23.604   7.851   4.645
45554W        W17880   9.548  13.210   0.637
45555W        W17881  11.369  36.476  14.893
45556W        W17882  33.919   4.280   0.480
45557W        W17883  18.858  31.077  14.853
45558W        W17884  31.350  29.986   0.039
45559W        W17885  19.673  20.726   1.426
45560W        W17886  26.591  35.960  12.127
45561W        W17887  12.435  21.293   4.644
45562W        W17888  36.549  10.308   0.776
45563W        W17889  23.954   7.479  11.646
45564W        W17890   6.011  27.228   1.259
45565W        W17891  25.728  30.959   3.921
45566W        W17892   7.186   3.423   2.987
45567W        W17893  43.903  34.207   4.821
45568W        W17894  33.911   1.680  13.934
45569W        W17895  37.861   6.668  12.630
45570W        W17896  33.476  28.396  12.931
45571W        W17897  37.071  14.285  12.527
45572W        W17898  13.721   5.185   1.315
45573W        W17899  43.461  13.092  13.066
45574W        W17900  13.256  40.300  11.111
45575W        W17901  21.796   8.329   1.997
45576W        W17902  18.652   4.857  14.431
45577W        W17903   0.742  17.060  13.816
45578W        W17904  21.480  13.779  10.508
45579W        W17905  37.396  23.686   1.804
45580W        W17906  24.972   0.410   3.772
45581W        W17907  17.848  13.132  13.881
45582W        W17908  44.897  29.494  14.019
45583W        W17909  26.031  25.917  10.935
45584W        W17910   2.462  42.089   4.046
45585W        W17911   5.305  22.436  12.651
45586W        W17912  41.478  29.713   4.431
45587W        W17913  44.025  21.187  12.389
45588W        W17914  42.919  37.079  12.395
45589W        W17915   5.332  38.291   4.622
45590W        W17916  11.152  15.801  14.275
45591W        W17917  11.136  25.623  11.116
45592W        W17918  29.098  26.927   1.941
45593W        W17919  27.249  32.907   4.332
45594W        W17920   4.198  28.563  13.570
45595W        W17921   9.913  17.267   1.126
45596W        W17922  24.627   4.928  14.458
45597W        W17923  32.705   9.198   1.648
45598W        W17924  12.248  13.573   1.928
45599W        W17925  26.117  25.257   4.861
45600W        W17926   7.914  29.907   0.919
45601W        W17927   1.407  35.465  10.700
45602W        W17928  36.496  21.077   4.642
45603W        W17929  39.353   2.388  11.112
45604W        W17930  42.308  15.852  13.022
45605W        W17931  15.613  17.716   0.883
45606W        W17932  32.059  22.780  14.324
45607W        W17933  35.575  35.538   9.969
45608W        W17934  22.031  16.252  14.216
45609W        W17935  34.312  27.247   3.746
45610W        W17936   4.955  12.737   9.949
45611W        W17937  22.130  26.183   2.088
45612W        W17938  16.623  11.897  13.209
45613W        W17939  30.450   9.140   1.143
45614W        W17940  14.291  35.576   3.190
45615W        W17941  29.584  14.631  12.076
45616W        W17942  11.497  23.116  14.037
45617W        W17943  39.480  32.065  11.696
45618W        W17944  39.252   8.136  12.582
45619W        W17945  44.763  35.601   2.857
45620W        W17946  23.229  11.311   4.116
45621W        W17947  27.618  19.120   3.658
45622W        W17948  42.942  14.012  13.018
45623W        W17949  13.565  41.255   0.448
45624W        W17950  38.394  25.623   2.322
45625W        W17951  38.530  44.387  11.917
45626W        W17952   6.720  24.383  12.391
45627W        W17953  40.341  16.778  14.476
45628W        W17954  42.590  16.932  13.013
45629W        W17955  10.253   3.929   2.201
45630W        W17956  35.877  22.146  13.984
45631W        W17957  39.840   4.759   2.271
45632W        W17958  25.316  23.590  11.565
45633W        W17959  44.518   4.226   0.851
45634W        W17960  20.183  33.829   1.336
45635W        W17961  29.187   4.655  13.920
45636W        W17962  30.873   8.909   3.355
45637W        W17963  18.091  27.113   1.449
45638W        W17964  22.692  37.857   1.267
45639W        W17965  34.883   4.632  14.632
45640W        W17966  43.824  37.635  13.360
45641W        W17967  41.555  25.079  11.311
45642W        W17968  27.063   2.755  11.898
45643W        W17969  37.412   7.809  10.512
45644W        W17970  16.583  31.758  11.964
45645W        W17971  19.655  38.538  11.673
45646W        W17972  33.409  24.654  11.187
45647W        W17973  12.079   5.609  13.447
45648W        W17974  25.047   7.171   0.447
45649W        W17975  19.665  18.787   3.820
45650W        W17976   8.810  38.361   0.650
45651W        W17977  25.981  24.731   3.215
45652W        W17978   9.671  43.278   0.429
45653W        W17979  42.204  21.001  11.121
45654W        W17980   5.841  15.853   1.397
45655W        W17981  30.004   6.187   2.220
45656W        W17982  33.523   6.407  10.598
45657W        W17983   4.364   2.706   0.236
45658W        W17984  12.754   0.507   2.805
45659W        W17985  27.570  36.547   4.554
45660W        W17986  36.906   2.251   0.517
45661W        W17987  39.397  32.341   1.093
45662W        W17988  10.921  12.774  11.223
45663W        W17989  16.566  28.884  14.059
45664W        W17990   7.918  28.928  13.416
45665W        W17991  21.272  28.964  11.612
45666W        W17992  32.150  10.721   2.881
45667W        W17993  38.011  37.322  13.621
45668W        W17994  17.303  18.621  13.031
45669W        W17995  14.132  17.833   1.248
45670W        W17996  42.994  18.245   1.701
45671W        W17997  10.133  38.880   4.930
45672W        W17998  31.720  35.520  12.567
45673W        W17999   9.919  18.171  13.409
45674W        W18000   4.418  13.264  11.923
45675W        W18001  24.013  32.958  13.936
45676W        W18002  44.852  10.706  10.785
45677W        W18003  40.011  23.694  10.776
45678W        W18004  29.770  25.042  14.449
45679W        W18005  44.593  35.891  10.732
45680W        W18006  31.379  43.978   3.764
45681W        W18007   1.262  29.548  14.374
45682W        W18008  23.117  40.020  10.521
45683W        W18009   5.858  16.632   3.691
45684W        W18010   8.351  36.654   2.876
45685W        W18011  10.046   7.821   3.346
45686W        W18012  41.903  42.523  14.066
45687W        W18013  43.240  35.444   2.929
45688W        W18014   3.004  15.573  14.251
45689W        W18015   7.881  38.519   2.795
45690W        W18016   1.924  36.953  12.409
45691W        W18017   0.138  27.497   0.144
45692W        W18018  31.977  31.656   4.320
45693W        W18019  21.510   7.439   1.577
45694W        W18020   8.839  22.965   4.560
45695W        W18021   1.237   9.923   5.533
45696W        W18022  24.917  25.027   0.653
45697W        W18023  14.120   0.714  13.130
45698W        W18024   7.309  40.931  13.061
45699W        W18025  24.459  35.847   2.447
45700W        W18026  37.774  12.332   2.721
45701W        W18027  13.066   2.932   3.929
45702W        W18028  30.793  28.959  11.554
45703W        W18029  10.183  41.173   3.190
45704W        W18030  10.681  36.465  13.793
45705W        W18031  17.990  19.522  11.646
45706W        W18032  27.581  20.281   3.593
45707W        W18033  17.615  15.196   4.556
45708W        W18034   0.438  29.466   2.367
45709W        W18035  38.866  13.727  12.522
45710W        W18036   3.104  25.123   3.658
45711W        W18037  25.981  26.750  13.349
45712W        W18038   9.660   4.335  13.051
45713W        W18039  42.000  40.428  10.745
45714W        W18040  42.388   6.734   0.742
45715W        W18041   0.946  14.987  13.104
45716W        W18042  22.956  28.717  12.002
45717W        W18043  10.017  15.637  13.160
45718W        W18044  41.370  38.956  11.744
45719W        W18045  25.886  23.705   0.225
45720W        W18046   9.671   6.820   2.481
45721W        W18047   7.814   9.916  14.426
45722W        W18048   9.873  29.327   0.647
45723W        W18049   0.470  21.371   1.281
45724W        W18050   2.693   3.241  11.386
45725W        W18051   5.929   1.497  12.914
45726W        W18052  15.862  13.780  13.824
45727W        W18053  29.013   3.722   1.387
45728W        W18054  16.564  35.492  11.863
45729W        W18055  22.672  39.426  13.394
45730W        W18056  32.392  24.388   4.268
45731W        W18057  37.659  42.018   0.352
45732W        W18058  33.926  11.572  10.490
45733W        W18059   6.756  21.085   4.535
45734W        W18060  24.232  21.782  13.443
45735W        W18061  29.436  17.241   3.335
45736W        W18062  14.302  33.503   4.194
45737W        W18063  13.859  43.606  11.980
45738W        W18064  14.384  28.429   4.294
45739W        W18065  22.934  12.590  11.219
45740W        W18066  44.753  43.467  10.652
45741W        W18067  32.497  32.932   4.654
45742W        W18068  30.627  34.805   3.462
45743W        W18069  18.263  28.267  13.369
45744W        W18070  24.540  11.678   2.263
45745W        W18071  44.294  17.241  14.576
45746W        W18072  22.450  25.727  14.009
45747W        W18073   6.800  44.776  12.910
45748W        W18074  14.852  44.805  13.575
45749W        W18075  22.234  15.544   3.231
45750W        W18076  37.975  28.436  10.284
45751W        W18077   8.164  14.770  11.794
45752W        W18078   2.310  18.156   4.677
45753W        W18079  34.037  26.627   1.255
45754W        W18080   8.453  25.430   2.592
45755W        W18081  34.513   7.408   0.019
45756W        W18082  23.100  24.049   1.673
45757W        W18083  32.310  13.893   4.172
45758W        W18084  24.915  34.104   4.531
45759W        W18085  14.382  32.997   4.084
45760W        W18086  10.585  16.640   0.259
45761W        W18087  19.572  38.975  11.911
45762W        W18088  17.752   7.418  13.142
45763W        W18089  23.214  29.500   1.304
45764W        W18090   4.447  24.117   2.858
45765W        W18091   7.774  17.230  14.457
45766W        W18092  27.251  27.437   1.137
45767W        W18093  32.171  19.578   3.666
45768W        W18094   9.690  29.800   3.714
45769W        W18095  34.963   2.708   0.753
45770W        W18096  33.393  14.185   1.356
45771W        W18097   1.322  11.362  14.951
45772W        W18098   4.780  35.939   4.053
45773W        W18099   1.741  17.315   0.846
45774W        W18100  32.995  32.383   3.939
45775W        W18101  25.586  17.717   0.146
45776W        W18102  43.259  27.176  13.782
45777W        W18103   1.512  14.138  12.937
45778W        W18104  40.145  21.974   4.326
45779W        W18105   9.873  30.590   3.153
45780W        W18106  44.530   8.584   4.638
45781W        W18107  19.842   7.083  14.010
45782W        W18108  40.140  11.987   4.146
45783W        W18109  14.471  34.327  10.594
45784W        W18110   2.133  34.767  12.216
45785W        W18111  41.802   6.484  14.937
45786W        W18112  14.750   9.674   2.349
45787W        W18113  10.759  27.088   2.689
45788W        W18114  35.584   0.517  13.945
45789W        W18115  18.754  16.614   4.367
45790W        W18116   4.683  29.370   4.241
45791W        W18117  25.058  20.086  11.396
45792W        W18118  29.732  27.972   2.737
45793W        W18119  37.129  17.968   2.480
45794W        W18120  24.727  15.551   0.360
45795W        W18121  37.057  19.710   0.499
45796W        W18122  32.653  19.722   3.749
45797W        W18123  36.108  12.302  13.946
45798W        W18124  40.850  18.033   3.309
45799W        W18125  42.924  12.842  11.502
45800W        W18126   0.918   6.947  11.621
45801W        W18127   5.991  34.344   3.728
45802W        W18128  34.362  34.458   4.230
45803W        W18129  40.983  10.861   0.930
45804W        W18130   0.051  34.853   2.676
45805W        W18131  39.583  20.354   1.217
45806W        W18132  19.600  38.946  14.321
45807W        W18133   0.797   2.399   2.114
45808W        W18134  35.681  39.974  13.600
45809W        W18135  27.185  28.291  12.618
45810W        W18136  12.670  26.788  10.142
45811W        W18137  35.352  42.024   0.831
45812W        W18138  39.101  35.830   2.281
45813W        W18139  26.604  42.860  14.332
45814W        W18140  31.889   9.831   1.641
45815W        W18141  44.767  33.521   1.382
45816W        W18142   4.614   4.480   0.981
45817W        W18143   2.327  23.829  11.087
45818W        W18144  19.116   5.423   1.455
45819W        W18145  17.779  15.916  13.816
45820W        W18146  43.348  37.510  13.508
45821W        W18147   4.422  37.994   3.680
45822W        W18148  12.630  29.411   3.804
45823W        W18149  18.250  30.963  12.424
45824W        W18150  33.331  12.077   3.783
45825W        W18151  15.024  24.558  13.980
45826W        W18152  32.444  39.397   0.983
45827W        W18153   6.848  44.681   0.866
45828W        W18154  28.003  42.328  14.205
45829W        W18155  44.800  26.788  11.450
45830W        W18156  41.969   4.986   3.228
45831W        W18157   5.225  10.081  12.316
45832W        W18158  18.976  31.048   1.180
45833W        W18159   4.793  21.639  12.981
45834W        W18160   5.728  26.432  11.493
45835W        W18161  29.279  25.714   2.497
45836W        W18162  10.050  44.395   5.078
45837W        W18163   4.344  38.615   3.508
45838W        W18164  13.972   7.265   0.901
45839W        W18165   6.029   7.444  13.788
45840W        W18166   8.097  14.209   1.285
45841W        W18167  33.517  22.249   1.317
45842W        W18168  20.831   3.786   2.327
45843W        W18169  38.545  27.659  11.162
45844W        W18170  36.358  38.772   2.380
45845W        W18171  19.756  13.333  10.668
45846W        W18172  23.575   1.559  11.091
45847W        W18173  21.782  32.086  14.708
45848W        W18174   2.887  29.850   1.642
45849W        W18175  41.846  25.515   4.229
45850W        W18176   4.705  44.895   0.517
45851W        W18177  39.001   8.872   1.753
45852W        W18178  20.747  19.857   0.797
45853W        W18179   5.616  25.162  10.776
45854W        W18180   2.340  44.553  13.709
45855W        W18181  37.260   6.756  13.450
45856W        W18182  37.761  18.697   5.006
45857W        W18183  44.131   0.109  10.098
45858W        W18184  11.854   0.586  14.799
45859W        W18185  35.962  24.505  12.006
45860W        W18186   5.752  23.894   1.930
45861W        W18187  41.915   9.117  11.539
45862W        W18188  17.831  32.556   1.242
45863W        W18189  26.145  35.873   0.667
45864W        W18190  12.337  11.721   3.975
45865W        W18191  18.842   7.322  13.871
45866W        W18192  15.431  18.716   4.154
45867W        W18193  32.401  37.884  11.870
45868W        W18194  15.306  39.946   1.449
45869W        W18195  26.488  36.389  13.074
45870W        W18196  37.303  27.098  11.601
45871W        W18197  38.395  28.820   1.218
45872W        W18198  16.725  11.247   2.842
45873W        W18199  42.941   9.651  10.600
45874W        W18200   4.236  42.292  14.884
45875W        W18201   7.316  37.074   3.704
45876W        W18202  23.551  27.236  13.392
45877W        W18203  43.426   7.164   3.632
45878W        W18204   2.301  18.232   2.298
45879W        W18205  36.011  28.128   2.877
45880W        W18206  37.330  26.577  14.381
45881W        W18207  33.340   6.222  11.047
45882W        W18208  24.469   0.713  13.907
45883W        W18209  16.071  10.057   4.051
45884W        W18210  34.314  14.217  14.438
45885W        W18211  42.427  15.271   2.902
45886W        W18212  26.555  42.075  12.482
45887W        W18213  44.842  37.402   0.001
45888W        W18214  15.353  35.913   3.771
45889W        W18215  16.349   6.760  10.943
45890W        W18216  29.152  41.833  13.124
45891W        W18217   8.577  14.792  12.819
45892W        W18218   7.312  23.607  11.544
45893W        W18219  42.623  30.524  12.404
45894W        W18220  44.489   8.867   3.753
45895W        W18221  11.849  11.399   1.237
45896W        W18222   7.283   3.309  14.340
45897W        W18223  11.675  40.871  14.382
45898W        W18224  23.129   7.218  13.862
45899W        W18225  31.492  40.793  13.793
45900W        W18226  44.956  31.771  11.452
45901W        W18227   4.839   6.485  14.836
45902W        W18228  19.089  32.162   1.015
45903W        W18229   0.958   3.299  11.060
45904W        W18230  16.552  29.463   4.156
45905W        W18231  29.390   5.332   4.720
45906W        W18232   2.431  23.061   0.240
45907W        W18233  38.624  21.167   2.021
45908W        W18234   5.851   6.865   2.799
45909W        W18235   5.240   9.617  12.513
45910W        W18236  16.278  29.480  12.458
45911W        W18237  37.419  23.664  11.866
45912W        W18238  35.857  13.686   3.787
45913W        W18239  20.216  29.714   1.226
45914W        W18240  31.035  18.864   2.292
45915W        W18241  13.478  24.455   0.326
45916W        W18242  24.734   8.249  14.039
45917W        W18243  31.142  17.799  11.869
45918W        W18244  36.596   0.245  11.042
45919W        W18245  40.907   8.610   4.742
45920W        W18246  18.814   8.666   4.451
45921W        W18247   0.290  35.074   2.252
45922W        W18248  43.549  41.335   1.467
45923W        W18249   9.778  41.044  12.056
45924W        W18250  27.579   8.357   3.216
45925W        W18251   1.797  19.328  13.020
45926W        W18252  16.089  44.556   1.306
45927W        W18253  20.134  37.334  14.798
45928W        W18254  26.711  28.999   0.232
45929W        W18255   6.953  17.592  13.504
45930W        W18256  28.023   5.716  10.326
45931W        W18257  23.651   9.384   2.956
45932W        W18258  34.336  30.961   0.363
45933W        W18259   5.947  29.107   1.712
45934W        W18260   6.585   3.450  11.596
45935W        W18261  25.945   8.219  14.390
45936W        W18262  32.672   0.048  13.584
45937W        W18263  36.513   0.428  11.514
45938W        W18264  25.073  13.451   0.565
45939W        W18265  22.339  20.504   3.123
45940W        W18266  16.527   5.208   0.420
45941W        W18267  13.054  27.039  13.958
45942W        W18268  38.511   5.150  14.054
45943W        W18269  43.505  43.766  13.485
45944W        W18270  13.105  37.990  13.512
45945W        W18271   3.874  23.056   0.845
45946W        W18272  13.840  11.125  10.724
45947W        W18273  35.344   7.385   3.906
45948W        W18274  44.359  41.158   2.407
45949W        W18275   7.874   2.731  12.726
45950W        W18276   0.225  35.503  12.672
45951W        W18277  18.349   9.260   1.012
45952W        W18278  20.286  11.929   3.390
45953W        W18279   8.396  17.115   2.783
45954W        W18280  33.050  24.070   3.346
45955W        W18281  29.439  35.884  11.180
45956W        W18282  31.537  40.959  11.130
45957W        W18283  23.433  26.183  11.131
45958W        W18284  11.675  18.317   3.792
45959W        W18285  28.123  10.616   3.291
45960W        W18286  14.290  44.155  14.290
45961W        W18287  15.646  33.897   0.466
45962W        W18288   4.275   2.770   1.626
45963W        W18289  25.699  21.179  12.922
45964W        W18290  34.077   9.296   1.439
45965W        W18291  14.825  19.030  12.062
45966W        W18292  26.660   7.680  12.139
45967W        W18293   9.882  44.554  12.531
45968W        W18294  38.811   1.936  11.611
45969W        W18295  27.578  27.400   3.556
45970W        W18296   4.198  26.883   1.722
45971W        W18297  35.066  40.000   3.578
45972W        W18298   0.719  29.626  13.769
45973W        W18299  37.096  10.226  14.892
45974W        W18300   1.401  42.437   0.837
45975W        W18301  14.300  40.038  10.467
45976W        W18302   2.613  28.542  11.959
45977W        W18303  15.647  21.500  13.568
45978W        W18304   7.721   1.718   3.223
45979W        W18305  29.904   3.886  14.860
45980W        W18306  16.950  42.665   5.064
45981W        W18307   7.935  36.463   3.172
45982W        W18308  39.088  18.517  13.938
45983W        W18309  15.660   6.774  11.480
45984W        W18310  41.347  11.284  13.221
45985W        W18311  12.622  12.047   2.128
45986W        W18312  29.689   7.137  13.505
45987W        W18313  22.653  19.075   4.660
45988W        W18314  25.073  38.966  11.514
45989W        W18315  42.569  12.216  13.770
45990W        W18316  19.688  30.166   4.595
45991W        W18317  19.646   2.854  13.074
45992W        W18318   5.353  21.830   0.702
45993W        W18319  29.641  24.482   0.032
45994W        W18320  36.556  11.027   3.423
45995W        W18321   2.784  23.074  12.574
45996W        W18322  21.246  19.001   4.060
45997W        W18323  10.144  27.116  12.029
45998W        W18324  36.602   8.522   3.303
45999W        W18325  21.309   2.750   3.650
46000W        W18326  14.971  12.179  13.063
46001W        W18327  13.445   7.881  11.896
46002W        W18328  36.018  42.497   3.231
46003W        W18329  20.504  31.102   4.191
46004W        W18330  43.221  37.563  14.926
46005W        W18331   2.977   0.348  13.506
46006W        W18332  14.879   7.213  12.931
46007W        W18333   0.020  23.458  11.086
46008W        W18334   2.246  24.154  13.400
46009W        W18335   1.967   4.055  14.232
46010W        W18336  44.444   1.701   4.186
46011W        W18337   4.284  43.411  14.520
46012W        W18338  15.249   2.490   3.777
46013W        W18339  20.553   1.715   3.134
46014W        W18340  15.552  37.769   0.444
46015W        W18341  21.733   2.789   2.365
46016W        W18342   4.499  11.124   2.361
46017W        W18343   3.786  32.274  11.151
46018W        W18344  41.030   6.416   3.679
46019W        W18345  19.652  28.249   4.032
46020W        W18346  30.923  26.233  12.507
46021W        W18347  25.184  13.912  13.023
46022W        W18348  30.056  24.588   0.361
46023W        W18349  12.335  33.874   3.741
46024W        W18350   8.220  14.534  13.141
46025W        W18351   1.569  20.276   4.026
46026W        W18352   7.154  21.575   4.197
46027W        W18353  35.146  44.503  12.138
46028W        W18354   8.566  44.463  13.870
46029W        W18355  12.817  19.873   0.867
46030W        W18356  20.773   0.563   3.688
46031W        W18357   4.579  42.628   0.936
46032W        W18358  44.501  40.264   5.046
46033W        W18359  36.446  34.823   3.657
46034W        W18360  22.701  44.359  10.503
46035W        W18361   4.278  22.716   1.690
46036W        W18362  30.055  36.120   3.138
46037W        W18363  41.907  19.317  14.878
46038W        W18364  14.822  22.651   3.285
46039W        W18365  21.569  13.195  12.187
46040W        W18366  33.505  14.083   3.786
46041W        W18367  17.865   3.501   4.085
46042W        W18368   2.220  42.771   3.282
46043W        W18369  42.037   0.311   0.304
46044W        W18370  20.776  27.657  12.783
46045W        W18371  12.742  28.410  11.499
46046W        W18372  39.340  33.066   4.774
46047W        W18373   5.416  22.464  10.320
46048W        W18374  10.832  30.144   3.190
46049W        W18375  24.909  16.746  11.958
46050W        W18376  17.827  28.600  12.677
46051W        W18377  32.925  40.202  12.980
46052W        W18378  34.441   2.352  13.120
46053W        W18379   2.517  44.741   0.121
46054W        W18380  12.205  16.434  12.570
46055W        W18381  30.962   8.277   2.169
46056W        W18382  18.139   1.275  10.873
46057W        W18383   2.234  40.885   4.655
46058W        W18384  43.389  10.173  12.392
46059W        W18385  32.401  14.255  12.791
46060W        W18386  28.536  20.082   4.657
46061W        W18387  44.469  24.445   2.682
46062W        W18388  30.862  39.959  14.415
46063W        W18389  39.283  15.116  14.523
46064W        W18390  33.728   0.459   1.913
46065W        W18391  35.775  11.430   3.275
46066W        W18392   1.295  22.217   0.389
46067W        W18393  44.105  39.889   1.973
46068W        W18394  43.040  25.747   1.317
46069W        W18395  39.139  35.739  11.985
46070W        W18396  26.892  10.223  14.249
46071W        W18397  19.215  40.852  13.274
46072W        W18398  18.733  26.208  12.364
46073W        W18399  25.858  41.468  10.973
46074W        W18400  22.357  35.503  12.861
46075W        W18401  44.604  34.987   4.096
46076W        W18402   2.349  37.229   2.475
46077W        W18403  30.502  34.123   0.598
46078W        W18404  37.711  30.119   2.784
46079W        W18405  36.892   5.660   3.140
46080W        W18406  16.633  44.770  11.645
46081W        W18407  29.998  43.459  10.622
46082W        W18408  28.085  29.934  13.933
46083W        W18409  24.257  34.457  14.947
46084W        W18410  27.426  39.907  11.104
46085W        W18411   5.727   2.619  12.026
46086W        W18412  20.617  43.833  12.800
46087W        W18413  37.796  30.082   4.625
46088W        W18414   0.381  42.509  11.453
46089W        W18415  17.636  16.037   2.723
46090W        W18416  24.730  24.892  12.454
46091W        W18417  25.963  12.363  11.816
46092W        W18418   4.428  15.290   3.639
46093W        W18419  24.681  17.397   3.604
46094W        W18420  39.083  16.689   2.363
46095W        W18421  22.080   2.500   0.042
46096W        W18422  35.484  36.633  11.652
46097W        W18423  17.659  42.837   2.870
46098W        W18424   6.507  18.122   4.046
46099W        W18425  39.856  35.727   1.135
46100W        W18426  44.443   9.719  13.460
46101W        W18427  21.675  43.176   0.547
46102W        W18428  36.605  34.034   5.447
46103W        W18429   8.466  30.870   2.293
46104W        W18430  35.380   3.740  11.673
46105W        W18431  38.426  13.709  13.484
46106W        W18432   2.499   0.783  11.616
46107W        W18433   6.231  26.731  12.997
46108W        W18434   5.154  39.745   1.495
46109W        W18435   4.821  28.035  12.083
46110W        W18436  25.376   5.401   0.928
46111W        W18437  31.410  33.054   1.819
46112W        W18438  20.056  39.686  11.319
46113W        W18439   0.006  30.203   0.480
46114W        W18440   1.318  41.882  11.198
46115W        W18441   6.342  28.991   3.678
46116W        W18442  19.003  36.165  11.069
46117W        W18443  35.014   5.977  11.573
46118W        W18444  12.271  16.837  12.897
46119W        W18445   0.736  12.130   2.893
46120W        W18446  36.935  10.009   4.524
46121W        W18447  10.115  41.049  12.599
46122W        W18448  43.348  21.286  10.564
46123W        W18449  29.326  21.289   2.205
46124W        W18450  25.617  11.514   1.770
46125W        W18451   7.179  41.531  10.677
46126W        W18452   7.764  29.427  12.491
46127W        W18453  19.294   8.119  12.186
46128W        W18454  19.596  37.318  14.826
46129W        W18455  24.597   6.943   3.292
46130W        W18456   7.426  10.666   3.720
46131W        W18457  17.797   3.488  13.796
46132W        W18458   0.417  36.867   4.702
46133W        W18459  25.460  25.468  14.423
46134W        W18460  26.689  22.541  14.013
46135W        W18461   4.877  14.983   3.587
46136W        W18462   6.938  22.602   4.659
46137W        W18463  29.891  34.682   1.194
46138W        W18464   8.622  16.322  14.837
46139W        W18465  12.502   6.820   1.300
46140W        W18466  24.216  35.403   2.473
46141W        W18467  22.182  16.654   2.226
46142W        W18468  34.648  15.551  13.365
46143W        W18469  40.762   8.430  12.344
46144W        W18470  12.113  24.588  10.240
46145W        W18471  28.541  36.797  14.628
46146W        W18472  20.513   5.350  13.895
46147W        W18473  14.294  26.515   4.095
46148W        W18474  35.112   1.264   0.260
46149W        W18475  10.150  42.814   0.044
46150W        W18476   4.906  10.369   4.101
46151W        W18477  18.549  18.639   1.492
46152W        W18478  25.865  37.090  10.541
46153W        W18479  44.249  28.496  13.064
46154W        W18480  12.598  42.896  13.937
46155W        W18481  18.286  20.155   2.713
46156W        W18482  35.105   4.134  13.357
46157W        W18483  36.106  14.712  14.060
46158W        W18484  19.560  36.999   3.561
46159W        W18485  14.202  38.879   3.327
46160W        W18486  23.989  35.003   4.462
46161W        W18487  14.626   4.978   1.647
46162W        W18488  11.290  42.007   2.702
46163W        W18489  44.990   1.422   3.603
46164W        W18490  33.597  20.107  11.281
46165W        W18491  11.896  10.261  10.347
46166W        W18492  15.882  35.490   2.696
46167W        W18493  41.804  28.009   2.556
46168W        W18494  36.497  10.245  10.912
46169W        W18495  34.408  31.754  13.654
46170W        W18496   2.524  10.844   1.472
46171W        W18497  38.109  43.020   5.016
46172W        W18498  17.507  35.587  12.119
46173W        W18499  11.757  32.640  11.438
46174W        W18500  31.246  11.307  12.884
46175W        W18501  33.438   4.740   3.440
46176W        W18502  44.809   6.785  14.506
46177W        W18503  40.428  18.216   0.732
46178W        W18504  28.638   9.196   3.107
46179W        W18505  11.187  24.743  11.680
46180W        W18506   9.598  28.167  10.772
46181W        W18507  39.092  13.550  12.970
46182W        W18508  33.823  39.414   2.396
46183W        W18509  40.575  28.015   4.545
46184W        W18510  44.829  12.658  13.648
46185W        W18511  18.536  33.984  14.884
46186W        W18512  14.140  11.409  12.189
46187W        W18513   2.005  34.724   2.285
46188W        W18514  43.916  18.408   3.238
46189W        W18515  16.301  30.494  14.220
46190W        W18516  38.449  37.300   4.614
46191W        W18517  21.401   3.925   4.213
46192W        W18518   1.654  11.182   4.774
46193W        W18519  26.603  17.007  10.633
46194W        W18520   0.424   1.816  13.804
46195W        W18521  28.967  23.157   1.526
46196W        W18522  24.952  21.475   2.695
46197W        W18523  44.808   5.190   3.790
46198W        W18524  38.013   2.914  13.254
46199W        W18525  44.503  30.385  11.819
46200W        W18526  23.281   8.233  13.554
46201W        W18527  25.629   1.850  14.226
46202W        W18528  16.375   3.952   3.644
46203W        W18529   6.746  38.636   0.951
46204W        W18530   6.841   3.874  13.228
46205W        W18531  26.560  29.627   2.894
46206W        W18532  35.475  22.157  11.907
46207W        W18533  10.773  25.431   1.226
46208W        W18534  36.990  10.204  10.620
46209W        W18535  40.833  34.013  14.114
46210W        W18536  18.780  44.896  11.512
46211W        W18537   8.647   9.542  10.771
46212W        W18538  23.526  30.005  11.030
46213W        W18539  23.823  28.693  11.164
46214W        W18540   1.438   3.769  13.532
46215W        W18541  33.269  18.067   1.833
46216W        W18542  32.953  27.704  12.181
46217W        W18543   9.226   8.477  13.009
46218W        W18544  36.791  10.506   1.216
46219W        W18545   5.486   7.664   3.219
46220W        W18546  40.268  18.469   2.809
46221W        W18547  24.978  24.605   0.308
46222W        W18548  32.554  19.506  13.483
46223W        W18549   7.889  30.924   1.367
46224W        W18550   6.848   3.824   3.873
46225W        W18551   4.373  30.165   3.877
46226W        W18552  10.127  34.064  13.877
46227W        W18553  13.605  34.794   0.395
46228W        W18554  10.114  24.277  10.956
46229W        W18555  24.992  43.952   2.839
46230W        W18556   1.565  11.714   5.490
46231W        W18557  40.749  14.110  11.545
46232W        W18558   1.962  26.212  12.438
46233W        W18559   4.682  32.627   2.780
46234W        W18560  26.755  33.164  13.920
46235W        W18561  40.606  40.236   4.211
46236W        W18562  29.571   0.779  10.621
46237W        W18563  16.302  26.970  13.390
46238W        W18564  41.146   3.771  13.251
46239W        W18565  16.853  40.305  14.119
46240W        W18566  26.103  11.168  12.339
46241W        W18567   1.714  26.481   2.367
46242W        W18568  33.286   3.458  13.843
46243W        W18569  43.477  43.470  12.341
46244W        W18570  12.926  34.029  11.176
46245W        W18571  25.487  38.878   3.727
46246W        W18572   8.961  21.163   0.798
46247W        W18573  30.145   8.613  10.756
46248W        W18574   5.948  21.366   0.971
46249W        W18575   1.414  10.403  12.798
46250W        W18576  34.985  10.583  14.555
46251W        W18577  10.374  17.710   3.202
46252W        W18578  28.161  44.909  11.043
46253W        W18579   6.457  23.205  11.463
46254W        W18580  13.094  28.704  13.594
46255W        W18581  17.120  36.072   3.086
46256W        W18582  26.176  23.720   4.920
46257W        W18583   2.682  26.927  12.815
46258W        W18584  35.278  11.317   3.249
46259W        W18585   5.724   1.245   4.675
46260W        W18586  19.887  28.097   3.192
46261W        W18587  21.765  19.339  13.786
46262W        W18588  27.022  37.469   1.335
46263W        W18589  25.191  28.170   0.166
46264W        W18590   4.114  14.079   4.564
46265W        W18591  13.351  38.820   3.274
46266W        W18592  26.295  16.684   1.030
46267W        W18593  40.398  28.572  10.766
46268W        W18594  15.033  20.838  13.904
46269W        W18595  19.831  26.755  12.385
46270W        W18596  21.696  21.422  11.298
46271W        W18597  34.861  44.549   5.037
46272W        W18598  26.013  40.683   0.401
46273W        W18599  16.304  13.996   3.245
46274W        W18600  38.093   3.975   4.078
46275W        W18601  28.517  10.334  12.164
46276W        W18602  30.936  38.518   1.041
46277W        W18603   0.040  20.720  14.414
46278W        W18604  31.623  20.974   0.341
46279W        W18605  42.794  10.424  13.743
46280W        W18606  36.239  29.169  11.257
46281W        W18607  18.486   5.409  12.714
46282W        W18608  22.225  34.080   3.459
46283W        W18609  20.489  31.674  14.854
46284W        W18610   2.425  44.397  12.791
46285W        W18611  15.795  17.988   4.781
46286W        W18612   9.485  13.607   3.135
46287W        W18613  39.831  43.294   4.505
46288W        W18614  29.888  39.453   0.756
46289W        W18615  16.706  38.607   0.811
46290W        W18616  17.016  39.404   0.970
46291W        W18617   6.451  15.221  12.412
46292W        W18618  18.594  33.665  12.113
46293W        W18619  37.612  44.977   0.929
46294W        W18620   6.675   9.177  11.977
46295W        W18621   2.308   9.577  13.557
46296W        W18622   7.905  33.386   0.377
46297W        W18623  23.692  21.149  14.058
46298W        W18624  12.861   4.597   4.568
46299W        W18625  20.267  30.747  13.916
46300W        W18626  30.317  40.497   4.374
46301W        W18627  12.907   2.524   1.955
46302W        W18628  20.215   2.427  11.615
46303W        W18629   5.494   5.246  11.702
46304W        W18630  16.492  15.238   0.009
46305W        W18631  33.099  35.387   4.773
46306W        W18632  33.161  31.340  13.645
46307W        W18633  33.950   0.358   3.362
46308W        W18634  32.959  42.406   1.250
46309W        W18635  20.014  35.249   4.258
46310W        W18636  29.952   5.459   2.727
46311W        W18637  29.642  42.310  11.188
46312W        W18638   0.735  33.943  13.501
46313W        W18639  36.867  17.615   3.159
46314W        W18640  15.600  21.406   3.108
46315W        W18641  15.598  26.675   2.624
46316W        W18642  10.049  32.326   0.778
46317W        W18643  23.628  24.982  11.706
46318W        W18644  19.959   6.352  11.736
46319W        W18645  19.003  12.291   3.850
46320W        W18646  16.217  29.273  14.030
46321W        W18647   8.744   9.263   1.982
46322W        W18648   9.199  17.068   2.219
46323W        W18649  32.443  19.872   1.845
46324W        W18650  44.108  14.858   2.483
46325W        W18651  32.195  35.650  12.422
46326W        W18652  27.182  36.961   4.600
46327W        W18653  11.257  19.662  13.014
46328W        W18654  22.517  20.387  10.451
46329W        W18655  40.867  14.842   2.188
46330W        W18656   6.970  26.613   0.977
46331W        W18657  25.869  36.581  10.633
46332W        W18658  37.495  40.537  10.761
46333W        W18659   6.241  22.550  10.635
46334W        W18660  33.486  29.912   3.300
46335W        W18661  34.543   8.418   2.326
46336W        W18662  34.872  12.925  14.817
46337W        W18663  21.973  43.359  13.430
46338W        W18664  16.854  13.370   1.211
46339W        W18665   1.775  38.580  14.804
46340W        W18666  29.449  30.178  13.416
46341W        W18667  35.575  10.500  10.033
46342W        W18668   4.748  19.592   2.876
46343W        W18669  18.857  43.301   4.156
46344W        W18670  12.926   0.116  12.425
46345W        W18671  16.528  22.580   1.060
46346W        W18672   7.413   5.063   2.919
46347W        W18673  28.560  44.283  11.450
46348W        W18674   7.840  19.910   5.041
46349W        W18675  13.229   2.176   2.193
46350W        W18676  17.319   0.414  12.618
46351W        W18677  41.983  28.634   4.867
46352W        W18678  17.849  14.226  12.052
46353W        W18679  21.058  14.285   1.326
46354W        W18680   1.742   2.821  10.826
46355W        W18681  22.147  41.921   3.517
46356W        W18682   5.984  12.347  11.218
46357W        W18683   4.937  44.480   0.711
46358W        W18684  17.110  11.395   1.273
46359W        W18685  17.620  16.896  12.855
46360W        W18686  34.760   8.189  14.498
46361W        W18687  28.009  27.537  10.236
46362W        W18688  20.203  37.740   3.371
46363W        W18689   5.169   7.216  10.562
46364W        W18690  21.986   6.888  13.025
46365W        W18691  30.647  29.944  12.060
46366W        W18692  16.749  36.581  13.055
46367W        W18693  12.463  16.403  11.065
46368W        W18694   5.451   1.233  12.898
46369W        W18695  24.176  37.621  10.142
46370W        W18696  22.567  10.755   0.972
46371W        W18697  29.029  20.966  12.020
46372W        W18698  44.358  18.611  11.273
46373W        W18699  34.121  36.384  10.204
46374W        W18700  32.472  28.599  11.229
46375W        W18701  15.812  25.121  12.850
46376W        W18702  23.532  32.592  13.619
46377W        W18703   7.531   9.698   1.165
46378W        W18704  42.365  18.515   2.923
46379W        W18705   4.501   3.471   4.568
46380W        W18706  17.966  31.149   2.598
46381W        W18707  21.732   6.520   0.008
46382W        W18708  10.917  33.911  11.063
46383W        W18709   9.607  24.533  13.897
46384W        W18710  18.546  32.470   4.724
46385W        W18711  27.229  27.582  14.017
46386W        W18712  21.550   6.460  14.000
46387W        W18713  35.452  41.780   4.316
46388W        W18714  18.270  20.303  12.906
46389W        W18715  16.413   7.812   3.788
46390W        W18716  12.278  17.191   0.825
46391W        W18717   3.632  23.481  11.440
46392W        W18718   5.702  13.562  12.039
46393W        W18719  15.112  16.980  14.007
46394W        W18720   0.025  22.354   3.771
46395W        W18721  18.311  26.658   1.315
46396W        W18722  18.185   8.457  11.109
46397W        W18723  43.257  14.666   0.385
46398W        W18724  15.253  39.518   1.181
46399W        W18725  32.440  10.372   4.078
46400W        W18726  41.309  12.560  13.261
46401W        W18727  24.088  33.533  14.147
46402W        W18728  12.122  30.406   3.052
46403W        W18729  30.215  17.281   0.734
46404W        W18730  22.688  10.235   0.511
46405W        W18731  27.725  44.370  10.448
46406W        W18732  34.025   0.957   4.200
46407W        W18733  38.086  44.237   3.016
46408W        W18734  21.148  16.018   1.884
46409W        W18735  29.611   5.670   1.366
46410W        W18736   2.268  10.870  12.462
46411W        W18737  11.838  33.109   2.795
46412W        W18738  30.838  22.448   1.931
46413W        W18739  13.325  11.333   2.296
46414W        W18740  10.893  17.570  12.093
46415W        W18741   9.926  16.858   4.061
46416W        W18742  12.352  30.561   2.092
46417W        W18743   8.970  21.572  13.905
46418W        W18744  18.393  26.480  12.616
46419W        W18745   9.791  36.926   0.370
46420W        W18746   2.913  26.417  11.985
46421W        W18747  21.510  15.841  14.922
46422W        W18748  39.396  14.853   0.000
46423W        W18749  25.033  34.324   1.852
46424W        W18750   0.284  16.153   2.752
46425W        W18751  29.096  19.561  10.995
46426W        W18752  33.661  28.248   0.967
46427W        W18753  19.720   4.444  12.592
46428W        W18754  25.762  25.767  11.755
46429W        W18755  15.745  10.467   1.305
46430W        W18756  33.340  25.010  11.570
46431W        W18757  44.075  35.401   1.023
46432W        W18758  19.149  15.288  14.022
46433W        W18759  30.677   1.340  11.139
46434W        W18760  38.800  37.388  14.379
46435W        W18761  24.329  30.463  10.170
46436W        W18762  14.180  13.334   1.380
46437W        W18763   0.492  20.562   1.931
46438W        W18764  38.411  33.802   1.813
46439W        W18765  36.454  23.273   3.427
46440W        W18766  19.159  43.051  10.974
46441W        W18767  30.506  34.936  14.848
46442W        W18768  39.895  21.535   4.806
46443W        W18769  18.009  15.063   0.604
46444W        W18770  40.783  33.996  14.642
46445W        W18771   0.463  27.012   4.522
46446W        W18772  30.438   9.229  13.924
46447W        W18773  12.635  31.307   4.068
46448W        W18774  12.794  35.382   4.583
46449W        W18775  24.239   2.454  13.411
46450W        W18776  40.896   5.263   4.116
46451W        W18777  22.553  28.172   4.120
46452W        W18778  35.509   2.321  11.204
46453W        W18779  39.586  36.979   2.790
46454W        W18780  22.191  37.494  10.454
46455W        W18781  10.446  23.179   0.818
46456W        W18782  10.117  13.689   4.366
46457W        W18783  10.700  23.545   2.164
46458W        W18784  14.456  24.884   4.676
46459W        W18785  22.636  24.278  10.765
46460W        W18786  18.092  22.781  14.434
46461W        W18787  10.418   5.378   0.788
46462W        W18788  12.804  22.265   4.035
46463W        W18789  43.860  17.170  14.304
46464W        W18790  42.799  27.713   2.369
46465W        W18791  15.066  23.248  13.935
46466W        W18792   2.931  18.530   1.716
46467W        W18793  37.968   9.736   0.101
46468W        W18794  37.577  23.822   0.776
46469W        W18795  42.442  22.224  10.683
46470W        W18796   3.020  41.125   3.186
46471W        W18797  26.123   9.302   1.503
46472W        W18798   1.211  18.469  13.939
46473W        W18799  10.869  33.319  13.821
46474W        W18800  25.091  11.167   4.360
46475W        W18801  28.971  32.381  14.063
46476W        W18802   3.468  20.541  13.348
46477W        W18803  18.362  43.063   0.796
46478W        W18804   8.820  19.606   0.812
46479W        W18805  12.371   5.522   0.909
46480W        W18806  18.625  31.941  10.466
46481W        W18807  31.992  18.036   3.694
46482W        W18808  21.736  12.393  14.755
46483W        W18809  13.287  10.897   0.415
46484W        W18810  22.627  41.255   4.183
46485W        W18811  28.684  26.586  13.123
46486W        W18812  38.768  37.541   0.790
46487W        W18813   4.792   2.671  11.046
46488W        W18814  38.541  24.605  14.724
46489W        W18815  39.156  38.450  11.368
46490W        W18816  33.103  36.931  11.247
46491W        W18817  26.494  41.234   4.912
46492W        W18818  36.881  29.576  11.998
46493W        W18819  33.831  34.641  13.174
46494W        W18820   6.118  22.316   4.705
46495W        W18821  43.782  35.588   1.406
46496W        W18822  21.737   1.303   1.493
46497W        W18823  40.015  28.079   0.295
46498W        W18824  28.588  13.262   0.722
46499W        W18825  18.529  14.577  13.515
46500W        W18826  18.415  21.610  12.558
46501W        W18827   3.684  16.514  12.075
46502W        W18828  33.478  18.538   0.823
46503W        W18829  40.710   3.292   1.080
46504W        W18830   1.296  40.952  13.075
46505W        W18831  42.283  24.602  14.048
46506W        W18832  22.679  11.780   3.677
46507W        W18833  32.206  35.230   3.297
46508W        W18834  16.738  13.205   3.046
46509W        W18835  16.106  10.595  11.187
46510W        W18836  35.678  22.695  11.295
46511W        W18837  43.523  42.965  13.868
46512W        W18838  17.343  11.600  12.916
46513W        W18839   7.181   6.874   2.494
46514W        W18840  37.087  30.592   1.743
46515W        W18841   4.361  31.512   4.163
46516W        W18842   5.781  13.799   1.376
46517W        W18843  26.501  39.063   4.614
46518W        W18844  28.573   0.443  13.478
46519W        W18845  27.020  31.050   1.872
46520W        W18846  12.336   2.780   4.548
46521W        W18847  10.775  36.037   4.566
46522W        W18848  34.900  31.682   4.080
46523W        W18849  24.707  25.260  13.418
46524W        W18850  25.562   1.863   4.895
46525W        W18851  21.552  26.010  12.445
46526W        W18852  37.978   6.935  10.551
46527W        W18853  17.117  28.511   2.715
46528W        W18854  11.612  32.386   4.995
46529W        W18855  31.961  19.279   0.382
46530W        W18856  31.520  23.599  12.216
46531W        W18857  37.623  32.648   2.624
46532W        W18858   4.321  43.998  12.614
46533W        W18859  31.936   0.652   0.869
46534W        W18860  21.174  27.084   5.027
46535W        W18861  16.563  23.596   4.094
46536W        W18862  14.244  14.605  11.182
46537W        W18863  22.097  11.168  12.754
46538W        W18864  28.190  32.960   4.117
46539W        W18865  26.416  37.636   1.314
46540W        W18866   1.472   2.432  10.653
46541W        W18867   2.904  17.101   4.345
46542W        W18868   1.271  41.909  10.684
46543W        W18869   1.492  10.516  10.869
46544W        W18870  13.430  17.523   1.505
46545W        W18871   5.436  43.378  11.366
46546W        W18872   9.640   0.068  13.768
46547W        W18873   6.029  20.830  10.614
46548W        W18874  24.122  17.659   9.740
46549W        W18875  23.934  33.495   1.943
46550W        W18876  19.645   6.765  11.854
46551W        W18877  22.398  15.810  12.850
46552W        W18878  40.870  39.863  13.874
46553W        W18879  38.235  18.660  13.659
46554W        W18880  42.939  36.267  13.189
46555W        W18881  39.456  33.624  12.080
46556W        W18882  23.751   1.485  12.001
46557W        W18883   5.126   8.526  12.308
46558W        W18884  30.760  23.509   4.487
46559W        W18885  37.391  13.635  10.027
46560W        W18886  36.788  35.429  11.215
46561W        W18887  25.041  24.070  12.480
46562W        W18888  36.297   2.374  10.655
46563W        W18889  38.331  27.898   2.374
46564W        W18890  28.433   9.708   1.696
46565W        W18891   8.379   3.716   1.634
46566W        W18892   0.234  13.685  12.991
46567W        W18893  27.601   3.460   4.398
46568W        W18894  26.007   9.905  12.159
46569W        W18895   4.807  26.285   0.253
46570W        W18896  23.042  41.216  13.488
46571W        W18897  25.604  38.400   4.063
46572W        W18898  42.353  28.205   3.159
46573W        W18899  43.948  11.624  13.899
46574W        W18900  30.196   9.848  14.898
46575W        W18901  34.617  42.406   3.616
46576W        W18902  37.036  23.804  11.573
46577W        W18903  14.756  15.100  13.303
46578W        W18904  31.578  34.915   2.219
46579W        W18905  35.100   2.838   1.807
46580W        W18906  44.925  22.465  11.937
46581W        W18907  17.805  14.856   4.906
46582W        W18908  42.308  40.510   3.895
46583W        W18909  21.628  26.233   4.745
46584W        W18910   3.673  11.435  13.445
46585W        W18911   4.747  12.256  14.357
46586W        W18912  43.867  19.694   0.184
46587W        W18913  24.467  36.081   2.896
46588W        W18914   0.282  44.818  12.022
46589W        W18915  10.891  10.720   3.212
46590W        W18916   1.212   6.600   4.613
46591W        W18917  32.168   6.453  14.011
46592W        W18918  18.769  14.591  10.438
46593W        W18919   8.666  44.934  12.924
46594W        W18920   9.169  23.463   1.328
46595W        W18921  43.164   8.887   1.666
46596W        W18922  23.436  28.053  14.735
46597W        W18923  22.773  14.334   3.697
46598W        W18924  33.086  44.817  13.778
46599W        W18925  28.530  38.973  10.908
46600W        W18926   3.676  25.266   2.094
46601W        W18927   7.099   3.492  11.592
46602W        W18928  31.028  37.945  13.125
46603W        W18929   2.380  28.897   5.078
46604W        W18930   6.643  39.406   0.529
46605W        W18931  15.620  42.520  14.048
46606W        W18932  20.046  38.399  10.768
46607W        W18933   7.853   4.500   1.316
46608W        W18934   4.166  13.377   0.463
46609W        W18935  41.365   5.354  14.274
46610W        W18936  13.159   8.805  13.365
46611W        W18937  32.060  33.984  10.419
46612W        W18938  35.781  38.054  11.116
46613W        W18939  22.204  33.171   4.150
46614W        W18940   8.634  38.755  13.904
46615W        W18941  28.089  18.682  10.235
46616W        W18942  29.554   7.577  11.556
46617W        W18943  24.842  31.466  13.418
46618W        W18944   7.851  34.883   1.612
46619W        W18945   1.898   7.164   1.103
46620W        W18946  36.362  26.187   2.947
46621W        W18947  29.371  25.162  12.119
46622W        W18948  31.886  39.506   1.717
46623W        W18949   1.853  28.082   4.617
46624W        W18950  34.489  27.681   3.485
46625W        W18951  26.256   4.192   0.041
46626W        W18952  24.060   0.396  12.620
46627W        W18953  34.539   9.750   2.821
46628W        W18954  40.830   2.268  14.977
46629W        W18955  16.618  19.794   2.904
46630W        W18956  31.546  40.085  13.132
46631W        W18957  35.285   4.323   0.399
46632W        W18958   2.208  15.585  13.005
46633W        W18959  34.537  25.540   4.350
46634W        W18960  26.408  16.594   5.050
46635W        W18961  41.849  24.937  13.460
46636W        W18962  37.518   1.076   2.925
46637W        W18963  19.209  23.395   4.569
46638W        W18964  20.703  16.811   2.350
46639W        W18965  31.578  34.138   1.214
46640W        W18966  31.413  31.434  11.718
46641W        W18967  36.071  11.680  14.323
46642W        W18968  37.771  24.450  11.236
46643W        W18969   6.776  31.279   0.817
46644W        W18970  35.725  12.083  12.482
46645W        W18971  18.095  22.976   0.515
46646W        W18972  34.649  37.924  13.424
46647W        W18973  43.956  13.737  12.579
46648W        W18974  15.839  16.729   2.111
46649W        W18975  40.375  17.581  12.982
46650W        W18976  33.466  19.817  11.717
46651W        W18977   2.236  32.936   1.309
46652W        W18978   9.972  43.744   2.723
46653W        W18979  42.888   2.739  12.442
46654W        W18980  17.592   1.811   4.207
46655W        W18981  13.562  44.303  13.168
46656W        W18982  14.266   6.260   4.541
46657W        W18983  15.921   5.207   4.056
46658W        W18984   9.327   6.115   3.322
46659W        W18985  10.759   1.712   4.578
46660W        W18986   8.929   4.249  13.420
46661W        W18987  31.664  13.181  13.069
46662W        W18988  28.551  32.607  14.841
46663W        W18989  22.222  10.651  11.158
46664W        W18990  17.412  35.313  12.547
46665W        W18991  33.677  20.256   4.129
46666W        W18992  24.095  18.090  12.594
46667W        W18993  25.610   9.254  14.355
46668W        W18994  33.155  17.103  12.884
46669W        W18995   6.651  16.616   4.613
46670W        W18996  37.309   1.283  13.710
46671W        W18997   8.417   3.907  14.865
46672W        W18998  23.104  33.761  14.279
46673W        W18999  19.017  29.184  13.988
46674W        W19000   1.278  14.309   1.709
46675W        W19001  31.659  25.133   3.162
46676W        W19002  34.819  12.294   2.605
46677W        W19003  24.514  10.163  10.179
46678W        W19004  32.898  16.297   0.970
46679W        W19005  28.994   5.856  13.117
46680W        W19006  36.335  31.232  13.311
46681W        W19007   0.756  42.802   1.797
46682W        W19008  20.154  39.516  10.844
46683W        W19009  37.896   6.642  14.910
46684W        W19010  17.162   8.789   2.237
46685W        W19011  30.899  20.355  11.616
46686W        W19012   2.036  22.671  12.323
46687W        W19013  36.609   4.648   0.206
46688W        W19014   5.804  24.716   0.511
46689W        W19015  20.330   1.786  12.467
46690W        W19016  12.489   9.126   1.461
46691W        W19017  18.999  11.338  12.094
46692W        W19018   9.309  26.906  12.600
46693W        W19019  25.423  44.807   1.735
46694W        W19020  19.460  26.026  10.904
46695W        W19021  12.196   4.504  12.978
46696W        W19022  16.579   1.009  10.623
46697W        W19023  43.806  44.974   3.152
46698W        W19024  32.061  20.361  12.860
46699W        W19025  35.984   9.953  14.883
46700W        W19026  41.383   6.320  12.061
46701W        W19027   2.886   0.270   3.560
46702W        W19028  37.351   3.392  14.358
46703W        W19029   8.405  32.599   3.798
46704W        W19030  23.115  40.350   1.730
46705W        W19031  12.195  22.270  10.546
46706W        W19032  23.668  42.308  11.581
46707W        W19033  10.734   0.031  13.524
46708W        W19034  32.108  28.661   4.487
46709W        W19035  27.662  38.534  13.270
46710W        W19036  31.003   9.989   2.700
46711W        W19037   9.799  27.688  13.485
46712W        W19038   7.989  34.456   0.849
46713W        W19039  28.622  18.628  12.258
46714W        W19040  43.124  18.548   0.831
46715W        W19041  15.305  21.708   2.198
46716W        W19042  27.658  34.932  14.503
46717W        W19043   3.712  31.443   1.277
46718W        W19044  10.130   8.318   4.191
46719W        W19045  32.888   2.901   3.244
46720W        W19046  10.600  26.469   3.309
46721W        W19047  38.600  34.601  11.504
46722W        W19048   2.206  24.400   1.410
46723W        W19049  22.597  17.094  10.955
46724W        W19050  41.474  41.865   3.907
46725W        W19051  42.423   2.950  12.658
46726W        W19052  40.741  29.691  12.103
46727W        W19053   6.950  28.845  13.400
46728W        W19054  39.139  35.512  14.361
46729W        W19055  26.745  11.139  12.890
46730W        W19056  31.612  25.230  13.760
46731W        W19057  36.799  14.363   2.365
46732W        W19058  27.464  19.091   1.340
46733W        W19059  10.416  34.546  13.044
46734W        W19060   8.881  29.278   0.865
46735W        W19061  29.663   6.422  14.255
46736W        W19062  13.299  34.850  14.815
46737W        W19063  26.103  44.188   2.924
46738W        W19064  13.699  33.105  14.459
46739W        W19065  17.092   4.890  10.266
46740W        W19066  16.685  13.587   2.704
46741W        W19067  29.508  25.789  11.422
46742W        W19068  33.627   7.185   4.705
46743W        W19069  41.542  28.713   2.714
46744W        W19070   9.867  35.920  10.574
46745W        W19071  36.193  33.302  10.574
46746W        W19072  42.501  31.072   4.553
46747W        W19073  16.692  12.051  14.031
46748W        W19074  30.577  38.164   1.229
46749W        W19075  44.499   7.166   1.966
46750W        W19076  36.684  15.487   1.627
46751W        W19077  22.405   5.793   3.952
46752W        W19078  13.314  33.438   5.056
46753W        W19079  22.041  21.982  13.869
46754W        W19080  13.871  41.438   4.542
46755W        W19081   0.258  12.580  14.389
46756W        W19082  23.791  21.691   0.248
46757W        W19083  21.819  15.760   0.915
46758W        W19084   6.224  26.554  12.494
46759W        W19085  20.059  22.114   3.326
46760W        W19086  18.084   6.306  13.877
46761W        W19087   1.017   0.919   2.801
46762W        W19088  23.092   0.409  10.963
46763W        W19089   8.151   9.766   1.838
46764W        W19090  29.833   5.891   0.022
46765W        W19091   9.041   4.321  11.284
46766W        W19092  13.325  12.375   1.465
46767W        W19093   8.003  38.743   2.294
46768W        W19094   4.324  12.552   2.997
46769W        W19095  42.495  14.995  12.668
46770W        W19096  40.191   3.745  10.659
46771W        W19097  19.815  33.491   3.232
46772W        W19098  38.335  26.686   3.749
46773W        W19099  11.424  13.673  11.232
46774W        W19100  14.105   2.186  11.043
46775W        W19101  37.455  14.777   0.086
46776W        W19102  28.143  18.089   0.301
46777W        W19103  33.464  39.972  14.060
46778W        W19104  39.426  43.859  12.051
46779W        W19105  21.691  20.049  11.995
46780W        W19106  10.848  41.852   1.414
46781W        W19107  32.641   5.189  12.623
46782W        W19108  10.502  31.514  13.380
46783W        W19109   6.260   0.631  10.175
46784W        W19110  44.451  15.740  12.883
46785W        W19111  16.867  37.523   1.443
46786W        W19112  40.364  31.561   4.775
46787W        W19113   4.186  23.150   0.427
46788W        W19114  12.728  34.450  12.938
46789W        W19115   2.937  41.570  14.832
46790W        W19116   4.212   1.515   0.654
46791W        W19117  24.750  33.551  14.929
46792W        W19118  16.974   1.232  14.337
46793W        W19119   6.183  26.544  10.702
46794W        W19120  21.626  13.591   4.081
46795W        W19121   0.932   2.555  11.516
46796W        W19122  29.369  33.502   5.055
46797W        W19123  11.042   1.348   0.308
46798W        W19124  16.067  28.160   2.401
46799W        W19125  25.089  42.827  11.696
46800W        W19126   4.342  18.552   0.552
46801W        W19127  22.206   1.374  11.117
46802W        W19128  13.388  39.827   2.945
46803W        W19129   7.713   6.780   1.766
46804W        W19130  18.267   4.408  13.425
46805W        W19131  15.221  16.820  11.419
46806W        W19132  39.522  16.742   0.909
46807W        W19133  17.061  38.785   4.560
46808W        W19134   6.913  28.399   3.799
46809W        W19135  21.082  42.586   1.137
46810W        W19136  11.857  19.830   3.128
46811W        W19137   0.841   3.513  12.964
46812W        W19138  16.585  19.559  14.909
46813W        W19139  36.586  34.552   2.652
46814W        W19140  33.958  26.961  14.091
46815W        W19141  22.186  12.085  13.512
46816W        W19142  42.466  43.502   2.679
46817W        W19143  30.944  38.301   1.566
46818W        W19144  11.515  42.007  12.561
46819W        W19145  13.853  30.703   2.213
46820W        W19146  19.793  16.186  13.820
46821W        W19147  35.088  39.880  12.453
46822W        W19148  23.980  36.216   3.033
46823W        W19149  10.647  10.362   0.642
46824W        W19150  35.140  26.173   2.250
46825W        W19151   0.031  11.796  11.701
46826W        W19152   1.271  30.959  10.735
46827W        W19153  37.064  15.863   3.206
46828W        W19154  23.613  16.086  13.525
46829W        W19155  31.020  13.428  11.535
46830W        W19156   7.702   5.910   3.776
46831W        W19157  29.981  33.297   2.619
46832W        W19158  21.212  33.551   4.982
46833W        W19159  44.233  21.281  12.871
46834W        W19160  28.879  44.462   2.130
46835W        W19161   5.273   2.831   4.891
46836W        W19162   3.966  28.508  13.056
46837W        W19163  40.023  21.128  12.381
46838W        W19164  17.047  34.402  14.734
46839W        W19165  36.550  15.103  14.454
46840W        W19166  13.791   6.268  10.712
46841W        W19167   4.090  40.892  11.347
46842W        W19168  22.484  42.885  14.467
46843W        W19169  35.004  41.468  11.257
46844W        W19170  16.740   4.983   2.115
46845W        W19171   8.138  29.623   1.287
46846W        W19172  36.617  33.221  13.176
46847W        W19173  38.766   9.343  13.831
46848W        W19174   1.677  17.585  12.655
46849W        W19175  40.895  44.816  13.202
46850W        W19176   1.937  43.800   0.843
46851W        W19177  33.537   7.411   0.409
46852W        W19178  33.676   3.353  11.577
46853W        W19179  40.361   7.195   2.423
46854W        W19180  31.559   2.259   0.537
46855W        W19181  34.527  22.273  10.722
46856W        W19182  37.188  15.678   1.762
46857W        W19183  20.496  41.627  11.944
46858W        W19184  17.276  39.398   0.500
46859W        W19185  21.740  27.430   1.393
46860W        W19186  23.980  10.458   3.165
46861W        W19187  18.529   3.543   0.803
46862W        W19188  19.461  23.127   2.916
46863W        W19189  25.272  39.414   5.045
46864W        W19190  12.278  29.923  11.041
46865W        W19191  33.952   2.057  14.832
46866W        W19192   1.610  19.844   1.839
46867W        W19193  40.728  19.446   0.460
46868W        W19194  28.139   6.028   4.727
46869W        W19195  25.032  27.186  14.386
46870W        W19196  43.771  30.512  13.020
46871W        W19197  12.340  29.624   1.012
46872W        W19198  42.183  12.777   4.767
46873W        W19199  31.339   6.400  13.447
46874W        W19200   2.790  27.671  11.183
46875W        W19201  10.039   4.718   1.917
46876W        W19202  26.647   5.712  14.974
46877W        W19203  37.254   1.471  12.471
46878W        W19204   1.235  11.815   0.827
46879W        W19205  44.705  17.054  14.814
46880W        W19206   3.730  11.455  12.513
46881W        W19207  10.833  13.822  13.279
46882W        W19208  41.055  17.208   2.162
46883W        W19209  22.054   4.986  13.524
46884W        W19210  27.615  26.964  13.753
46885W        W19211  13.337  25.044  11.878
46886W        W19212  21.182  11.789   3.841
46887W        W19213   3.528  20.826  13.777
46888W        W19214  20.088   9.745  10.969
46889W        W19215   9.628   1.193  12.970
46890W        W19216  21.586  41.830   4.933
46891W        W19217  31.353  30.426  14.350
46892W        W19218  30.645  28.035  11.237
46893W        W19219  31.919  30.893  12.919
46894W        W19220  39.951  42.151  14.313
46895W        W19221  38.763  31.977   4.559
46896W        W19222  41.006  37.332   0.335
46897W        W19223   5.176  36.660  10.651
46898W        W19224  19.309  35.214  11.133
46899W        W19225  21.945  18.671  11.074
46900W        W19226   1.593   4.329   0.175
46901W        W19227  27.886  28.998  11.667
46902W        W19228  33.781  40.289   1.452
46903W        W19229  22.097  26.187  14.762
46904W        W19230  38.804   1.241   1.868
46905W        W19231  39.720  37.139   4.433
46906W        W19232  26.653  29.919   0.001
46907W        W19233  38.312  28.645  14.318
46908W        W19234  17.831  37.443   0.450
46909W        W19235  37.430  20.228   4.878
46910W        W19236  22.260  28.507   4.378
46911W        W19237   9.165   0.672  14.947
46912W        W19238  12.652   2.873   2.248
46913W        W19239  29.560  19.307  10.937
46914W        W19240  25.211  18.673  12.099
46915W        W19241   6.565  28.190   4.232
46916W        W19242  41.961  34.521   0.963
46917W        W19243  14.635  16.343  12.045
46918W        W19244  22.487  28.049  14.869
46919W        W19245  30.881  32.606   3.772
46920W        W19246   8.677  13.086  11.152
46921W        W19247  20.628  17.553   3.844
46922W        W19248  32.469  31.392   1.406
46923W        W19249  23.167  27.527  13.900
46924W        W19250  20.066  16.074   3.231
46925W        W19251   3.768  22.593  11.125
46926W        W19252   9.240   1.969   1.258
46927W        W19253  23.113  35.485   5.021
46928W        W19254  37.420  14.210  13.319
46929W        W19255   7.438  10.282   1.833
46930W        W19256  27.079  40.784  13.899
46931W        W19257  17.815  32.098   2.956
46932W        W19258  32.829   6.861   0.914
46933W        W19259  28.959  23.741  14.533
46934W        W19260  12.453  43.775   3.151
46935W        W19261  15.958  14.393   9.981
46936W        W19262  32.890  37.874   0.464
46937W        W19263  10.859   4.799   0.477
46938W        W19264   6.847  36.364   4.675
46939W        W19265   7.299   4.035  14.501
46940W        W19266  28.828   6.232   2.305
46941W        W19267  44.458  18.616  13.074
46942W        W19268  16.316  18.684  11.111
46943W        W19269  44.924  15.776  13.110
46944W        W19270  16.607  21.028  12.059
46945W        W19271  26.072  15.281  12.156
46946W        W19272  22.245  30.948   1.906
46947W        W19273   4.866   9.588   3.680
46948W        W19274   2.408  36.590   0.710
46949W        W19275   5.404  31.366   4.155
46950W        W19276  27.818  18.743  10.670
46951W        W19277  30.115   6.924   3.822
46952W        W19278  36.850   7.927   1.780
46953W        W19279  41.973  34.936   4.320
46954W        W19280   0.895  40.908  10.812
46955W        W19281   9.340  10.545   2.825
46956W        W19282  12.215   2.454   4.091
46957W        W19283  12.318  18.544  13.989
46958W        W19284  16.827  34.159   0.724
46959W        W19285  22.143  16.220  12.108
46960W        W19286   3.722  37.445   4.076
46961W        W19287  42.906   9.991   1.049
46962W        W19288  44.949   4.200   2.976
46963W        W19289  39.932  34.172  13.607
46964W        W19290  28.466  12.176   4.719
46965W        W19291  41.932  21.246   4.992
46966W        W19292  11.672  28.140  11.326
46967W        W19293  18.155  22.110   4.845
46968W        W19294  11.642  15.336   0.276
46969W        W19295  21.596  40.882   0.724
46970W        W19296   5.303  10.813  14.521
46971W        W19297  26.161  26.588   5.060
46972W        W19298  13.592  32.004   4.598
46973W        W19299  25.319  23.542  12.304
46974W        W19300  20.923  16.820   0.432
46975W        W19301  36.396  40.361  14.805
46976W        W19302  24.200  15.121   3.489
46977W        W19303  12.528  14.152   3.641
46978W        W19304  25.686  35.135   0.847
46979W        W19305  27.893  11.231  11.190
46980W        W19306  31.951  26.554   3.153
46981W        W19307   5.461   9.739  12.021
46982W        W19308  30.639  16.977   0.740
46983W        W19309  26.722  11.322   2.194
46984W        W19310   1.318  20.417  11.215
46985W        W19311  41.993  26.112  13.957
46986W        W19312  27.075  29.039  10.340
46987W        W19313  43.071   1.890   0.249
46988W        W19314  31.613  42.651  12.863
46989W        W19315  32.335   9.300  11.174
46990W        W19316   5.930  24.687  14.546
46991W        W19317   0.643  30.959   1.885
46992W        W19318  28.915  40.166  12.986
46993W        W19319  12.642   8.793  12.999
46994W        W19320   7.655   5.184  14.378
46995W        W19321  22.253  42.783   0.070
46996W        W19322  21.579  14.655   2.733
46997W        W19323  33.712   3.217   1.282
46998W        W19324  30.210  26.114   5.034
46999W        W19325  42.952   6.859  13.525
47000W        W19326   5.297   6.711   4.394
47001W        W19327  35.928  44.381   1.881
47002W        W19328  37.600  36.182   4.307
47003W        W19329   4.638   7.383  12.017
47004W        W19330   1.865  19.281   2.648
47005W        W19331  43.799  16.868   4.680
47006W        W19332  16.166   5.149  11.748
47007W        W19333  26.018  21.957  10.541
47008W        W19334  35.350  40.211   0.883
47009W        W19335   2.753  44.711   1.118
47010W        W19336  35.150  14.769  14.334
47011W        W19337  31.361  28.670   3.245
47012W        W19338   4.990  10.829  11.587
47013W        W19339   3.989  44.961  13.445
47014W        W19340   7.391  43.665   5.046
47015W        W19341  16.116  38.378   1.817
47016W        W19342   1.417  28.975   1.729
47017W        W19343  19.511  13.930   3.280
47018W        W19344  14.841  33.507   1.659
47019W        W19345  42.315  19.624  14.776
47020W        W19346  41.055  12.206   1.196
47021W        W19347   4.716  14.039  14.894
47022W        W19348   5.427  14.985   3.674
47023W        W19349   8.453   6.894  13.448
47024W        W19350  18.300  13.675   1.360
47025W        W19351  42.511  27.699  13.368
47026W        W19352  35.867  35.640   4.118
47027W        W19353  21.965   6.652   4.226
47028W        W19354  34.974   2.842  12.653
47029W        W19355   5.087  12.943  12.551
47030W        W19356  36.881  13.856   2.349
47031W        W19357  38.789  19.460  13.589
47032W        W19358  27.117  27.265  12.508
47033W        W19359   2.245   9.379   3.657
47034W        W19360  26.955  13.218   0.283
47035W        W19361   3.632  41.541   4.382
47036W        W19362  25.335  17.077  11.924
47037W        W19363  26.523  11.023   1.827
47038W        W19364  12.466  37.290  14.480
47039W        W19365  15.966  20.860  11.508
47040W        W19366  14.641  17.516  12.844
47041W        W19367  12.120   1.799   2.653
47042W        W19368  17.141  34.677   3.874
47043W        W19369   2.995  30.622   0.509
47044W        W19370  18.157  11.176   0.719
47045W        W19371  42.302  41.022   2.732
47046W        W19372   4.723  10.642   2.432
47047W        W19373  40.954  25.385  12.888
47048W        W19374   9.268  16.938   0.429
47049W        W19375   1.532  35.238   2.905
47050W        W19376  16.963  39.981   1.699
47051W        W19377   3.482   6.386   1.348
47052W        W19378  22.133   3.243  11.469
47053W        W19379  29.971   6.032  13.129
47054W        W19380  10.123  10.385   4.156
47055W        W19381  25.747  22.425  13.957
47056W        W19382  21.779  36.028  12.027
47057W        W19383  17.852  19.188  13.445
47058W        W19384  34.089   9.829   4.052
47059W        W19385  44.871  25.735  11.536
47060W        W19386   2.214  18.608   3.896
47061W        W19387  10.152  44.210   2.669
47062W        W19388  15.304  23.397  13.480
47063W        W19389   4.991  35.374   3.380
47064W        W19390  17.841  27.927  11.613
47065W        W19391  15.528  13.921  11.160
47066W        W19392   4.340  33.909   2.349
47067W        W19393   2.699  27.095   1.667
47068W        W19394  44.412  42.038  10.195
47069W        W19395   4.422  30.167   2.676
47070W        W19396  32.336  30.608   3.384
47071W        W19397  16.616   0.682   1.492
47072W        W19398  15.515  10.657   3.690
47073W        W19399  19.466  21.806  11.491
47074W        W19400   9.880  24.533   1.807
47075W        W19401  23.543   0.418   3.659
47076W        W19402  40.348  35.779   1.378
47077W        W19403  18.117  42.169  11.498
47078W        W19404  39.081  43.044  13.937
47079W        W19405   5.091  29.052   4.231
47080W        W19406  24.307  38.420  13.852
47081W        W19407  16.433  25.732   3.591
47082W        W19408  30.919  21.161   2.428
47083W        W19409   1.174  33.016  14.380
47084W        W19410  12.673  41.903   3.708
47085W        W19411  43.819  12.879  11.968
47086W        W19412   0.973  13.896  10.703
47087W        W19413  27.443   1.225  13.060
47088W        W19414  21.977  13.149  10.490
47089W        W19415  29.960  43.642   0.711
47090W        W19416  24.568  14.430  10.169
47091W        W19417   9.885  11.791   0.446
47092W        W19418   1.006  17.791   2.147
47093W        W19419  29.600  16.114   4.786
47094W        W19420  20.247  41.179  11.623
47095W        W19421  27.747  16.242   4.106
47096W        W19422   6.214   1.502  10.772
47097W        W19423   5.726  39.761   3.703
47098W        W19424  19.781  19.494  14.485
47099W        W19425  24.794   5.434  14.409
47100W        W19426   5.812   7.891   2.180
47101W        W19427  38.270  17.087   2.674
47102W        W19428  44.491  29.071   3.857
47103W        W19429   8.652   2.890  11.105
47104W        W19430  31.915   8.753  14.486
47105W        W19431  36.700  11.270  13.457
47106W        W19432  41.116   9.627  12.028
47107W        W19433  10.356  17.080  12.878
47108W        W19434  42.280  16.466  12.506
47109W        W19435  16.734  35.921   3.893
47110W        W19436  21.370  39.005   2.136
47111W        W19437  32.893  31.739  13.980
47112W        W19438   3.610   0.128   2.737
47113W        W19439  21.442  17.720   2.270
47114W        W19440  30.973   7.888  14.523
47115W        W19441  41.540  32.453   1.486
47116W        W19442  16.505  42.562  14.538
47117W        W19443  12.389  23.653  14.299
47118W        W19444  12.542  24.768  13.915
47119W        W19445  13.190  43.540  10.783
47120W        W19446  11.687  17.265   3.742
47121W        W19447  39.919  41.561   1.285
47122W        W19448  29.535  41.959  10.811
47123W        W19449   9.107  33.927  10.727
47124W        W19450  35.512   9.471   3.269
47125W        W19451  31.398   2.262  10.584
47126W        W19452  38.921  16.850   4.681
47127W        W19453  30.606  36.573   1.268
47128W        W19454  23.171  25.060  11.908
47129W        W19455   8.279  20.454   2.226
47130W        W19456  24.104  41.024   1.529
47131W        W19457  36.554   5.383  14.771
47132W        W19458  27.975  28.484   0.937
47133W        W19459   8.576  24.654   5.001
47134W        W19460  41.648  25.644  11.083
47135W        W19461  29.929  28.001   1.845
47136W        W19462  11.684  22.376   2.169
47137W        W19463   4.540  43.201  12.375
47138W        W19464  32.407  41.557  13.122
47139W        W19465  17.338  18.345  12.064
47140W        W19466  12.185  20.649   4.926
47141W        W19467  11.357  20.610  10.760
47142W        W19468  10.316  16.925  14.911
47143W        W19469  14.090   0.384   0.903
47144W        W19470  18.396   3.484   4.107
47145W        W19471   0.404  36.099   2.267
47146W        W19472   0.003  39.940  13.099
47147W        W19473  10.907  34.832   1.189
47148W        W19474  12.158  24.429  11.542
47149W        W19475  39.750  12.528  11.545
47150W        W19476  17.364  27.168  11.974
47151W        W19477  38.815  32.798   0.434
47152W        W19478  18.753  22.663   2.318
47153W        W19479  19.585  27.395   2.800
47154W        W19480  35.665  21.968   4.273
47155W        W19481   6.632  21.775  11.691
47156W        W19482   5.220  18.940  13.185
47157W        W19483  28.090  44.798  12.419
47158W        W19484  13.420  40.038  12.817
47159W        W19485  24.057  36.208  14.641
47160W        W19486  13.826  33.392   0.467
47161W        W19487   7.239  42.167   5.079
47162W        W19488  44.721  38.580   1.314
47163W        W19489  14.295  33.476  10.358
47164W        W19490  24.771  43.549  12.185
47165W        W19491  27.431  43.979  14.510
47166W        W19492   6.720   0.743  11.873
47167W        W19493  28.333  36.963   3.152
47168W        W19494  14.094  31.392  11.072
47169W        W19495   4.045  16.894   0.194
47170W        W19496   1.095  28.027   1.501
47171W        W19497  40.802   7.856   0.839
47172W        W19498   9.815  35.422  14.787
47173W        W19499  32.130  20.556  11.517
47174W        W19500  15.709   2.792  10.561
47175W        W19501   4.683   0.457   4.154
47176W        W19502  40.454  19.247   4.699
47177W        W19503  16.528   8.318   2.303
47178W        W19504  18.718   4.070  12.452
47179W        W19505  41.947  26.686   0.836
47180W        W19506  40.270  43.133  14.410
47181W        W19507  44.347  29.485  13.425
47182W        W19508  23.627  24.759   0.833
47183W        W19509  32.364  30.657  14.387
47184W        W19510  15.900  19.233   2.738
47185W        W19511  11.958  36.544  14.954
47186W        W19512   3.801  20.710  10.631
47187W        W19513   2.623  18.199  13.433
47188W        W19514  42.574   7.039  14.752
47189W        W19515  43.253  37.877  11.128
47190W        W19516  14.774  20.501   4.777
47191W        W19517  41.533  16.401  11.983
47192W        W19518  11.715  30.968  13.858
47193W        W19519  28.624   8.320   0.148
47194W        W19520   1.403  10.408   5.441
47195W        W19521  20.987  35.547   0.366
47196W        W19522  35.955  24.784  12.503
47197W        W19523  24.381  30.973  14.196
47198W        W19524  35.284  19.211  11.621
47199W        W19525   1.113  42.859   1.430
47200W        W19526  23.516  42.269  13.902
47201W        W19527  40.099  30.614   1.542
47202W        W19528  31.852   3.301  10.071
47203W        W19529  18.873   1.917  13.854
47204W        W19530  31.464   5.851  12.024
47205W        W19531  21.157  34.033   1.820
47206W        W19532  22.011  30.417   0.363
47207W        W19533   4.880   0.226  10.158
47208W        W19534  22.064  12.698  10.734
47209W        W19535  40.000   2.783   1.178
47210W        W19536  22.874  21.732   1.033
47211W        W19537  24.605  25.656  14.494
47212W        W19538   0.594  44.329  12.575
47213W        W19539  41.798  12.747   3.738
47214W        W19540  27.905   8.076  12.977
47215W        W19541  44.387  40.334   1.377
47216W        W19542  39.945   5.888  14.684
47217W        W19543  36.542   7.215  10.628
47218W        W19544  25.193  18.022   1.832
47219W        W19545   9.345  28.511   4.142
47220W        W19546   4.831  35.663   0.376
47221W        W19547   6.511   6.716  11.072
47222W        W19548  39.264  16.698   2.848
47223W        W19549   9.340  18.394   0.485
47224W        W19550   1.960  32.915   2.909
47225W        W19551  12.235  12.389   2.234
47226W        W19552  23.100  37.582   1.403
47227W        W19553  32.061  43.249  14.839
47228W        W19554  43.784  36.901   1.897
47229W        W19555  40.461   5.789  14.837
47230W        W19556  11.895   8.960   3.676
47231W        W19557  17.990   3.904   1.872
47232W        W19558  29.417  39.084   0.303
47233W        W19559  34.546  44.530   2.408
47234W        W19560   5.484  12.288   3.787
47235W        W19561  11.971  16.694   0.126
47236W        W19562  21.704  37.569  11.102
47237W        W19563  24.167   0.514  10.760
47238W        W19564  34.958  23.546  14.602
47239W        W19565  10.326  32.884  13.980
47240W        W19566   2.680   8.836   1.746
47241W        W19567  42.972  17.740  12.985
47242W        W19568  22.632   6.252   0.488
47243W        W19569  14.403  22.798  13.428
47244W        W19570  21.788  31.602  10.730
47245W        W19571   5.677  44.150  13.523
47246W        W19572   9.487   7.895   2.206
47247W        W19573   5.350  28.957   4.670
47248W        W19574  14.864  34.466  13.064
47249W        W19575  31.069  35.121   4.691
47250W        W19576   9.851   2.648   4.387
47251W        W19577  10.319   3.865  12.763
47252W        W19578  27.651  25.255  10.205
47253W        W19579  27.171  42.977  11.240
47254W        W19580  32.930  31.087  10.847
47255W        W19581  26.139  43.919  13.592
47256W        W19582  11.114  33.898  13.892
47257W        W19583  27.531  36.723  13.374
47258W        W19584  39.988   0.673  14.159
47259W        W19585  23.643  18.686   4.538
47260W        W19586  35.316  39.220   0.918
47261W        W19587  19.802  22.304  11.295
47262W        W19588  30.013   0.032  11.565
47263W        W19589  25.272  44.319  10.789
47264W        W19590  11.808  25.200  14.389
47265W        W19591  31.913  33.451  12.871
47266W        W19592  31.614   5.832   2.172
47267W        W19593  17.610  13.280   4.707
47268W        W19594  43.542  41.021   0.243
47269W        W19595  24.412  24.304   3.648
47270W        W19596  26.926  42.990  11.727
47271W        W19597   6.457  23.738  12.429
47272W        W19598  28.463   3.243  12.831
47273W        W19599  13.074  13.330  12.610
47274W        W19600  11.225  18.560   3.768
47275W        W19601  36.383  29.784   0.628
47276W        W19602  37.103  31.425  13.668
47277W        W19603   5.275  21.684  11.490
47278W        W19604  31.929  38.827  12.602
47279W        W19605  18.222  34.626   1.814
47280W        W19606  30.946  28.778  10.262
47281W        W19607  17.783  37.300   3.848
47282W        W19608  31.443  37.546  10.631
47283W        W19609  20.858  29.484  12.147
47284W        W19610  42.266   3.189   3.615
47285W        W19611  11.291  27.144   4.593
47286W        W19612   9.251   1.738  14.392
47287W        W19613   8.803  22.305  14.362
47288W        W19614   5.209  24.964   3.335
47289W        W19615  24.052   1.357  11.152
47290W        W19616  37.451  29.452   0.325
47291W        W19617   9.238   1.324  10.565
47292W        W19618  18.225  10.944   2.295
47293W        W19619   1.351  34.519   3.386
47294W        W19620   3.014   7.709   1.146
47295W        W19621  37.091  13.821  11.614
47296W        W19622  27.955  15.238  14.283
47297W        W19623  24.311   8.808   1.875
47298W        W19624  25.049  17.199   1.307
47299W        W19625  27.605  40.430   3.583
47300W        W19626  11.375  28.653   0.778
47301W        W19627  30.207  14.076  10.732
47302W        W19628  21.723  40.593  13.757
47303W        W19629  37.313   3.935   3.860
47304W        W19630  23.611   7.433  12.466
47305W        W19631  11.248  25.968   5.517
47306W        W19632  41.852  39.459   2.132
47307W        W19633  40.872   2.472   2.852
47308W        W19634   9.166  26.626  11.303
47309W        W19635  11.372   4.342  11.565
47310W        W19636  42.471  27.927  11.144
47311W        W19637   6.641  16.109  11.699
47312W        W19638  15.140  20.639   3.850
47313W        W19639  30.943  44.944   0.243
47314W        W19640  18.981  42.771   4.073
47315W        W19641  33.178   4.352  13.897
47316W        W19642  27.146  24.883  13.456
47317W        W19643   2.445   4.186  14.442
47318W        W19644  30.961  13.690   0.904
47319W        W19645  41.027  17.735   0.011
47320W        W19646  10.820   9.619  12.084
47321W        W19647  26.030   9.560  10.995
47322W        W19648  21.919  40.329  11.309
47323W        W19649  43.950   5.977  12.017
47324W        W19650  20.561  30.545  13.547
47325W        W19651  18.960  11.364  14.774
47326W        W19652   2.728  12.276  10.083
47327W        W19653  27.474  14.743   1.893
47328W        W19654  21.059  27.912  13.854
47329W        W19655  11.984  30.451   1.214
47330W        W19656  27.697  19.440  12.044
47331W        W19657  12.427  24.411   1.918
47332W        W19658  32.566   6.922   0.477
47333W        W19659  28.849  30.045  10.730
47334W        W19660  31.557  21.464  10.659
47335W        W19661  22.256  23.697  14.508
47336W        W19662  41.253  43.851  12.044
47337W        W19663  27.989  28.755   9.798
47338W        W19664  35.547  14.495  11.521
47339W        W19665   6.531  32.272   3.392
47340W        W19666   9.359  27.591  11.394
47341W        W19667  16.533  41.060   0.439
47342W        W19668   4.210  40.454   2.257
47343W        W19669  22.410  22.776  12.060
47344W        W19670  18.261  12.238   1.764
47345W        W19671  30.398   6.934  11.117
47346W        W19672  33.640  41.558  11.272
47347W        W19673   7.450  27.605   0.956
47348W        W19674  34.925  14.962  11.068
47349W        W19675  19.275  11.785   5.012
47350W        W19676  42.892  37.514  12.680
47351W        W19677  33.366  13.091   2.295
47352W        W19678   8.490  40.590  12.072
47353W        W19679  39.390  39.787  11.462
47354W        W19680   2.013  42.364   1.923
47355W        W19681  44.842  43.235  14.684
47356W        W19682  33.524  14.749   0.808
47357W        W19683   1.449  22.330   3.123
47358W        W19684   2.890  21.754   3.673
47359W        W19685   2.015   0.301   1.979
47360W        W19686  23.308  24.043  12.106
47361W        W19687  42.292  26.108   4.268
47362W        W19688  34.451  17.360  13.911
47363W        W19689  43.822   9.627   2.121
47364W        W19690   9.231  40.233   1.311
47365W        W19691  31.060   2.072   0.417
47366W        W19692   4.807  38.340   1.607
47367W        W19693  30.176  43.375  12.061
47368W        W19694  29.072  42.291   2.742
47369W        W19695  38.809  24.138  12.056
47370W        W19696   9.630  44.039   1.864
47371W        W19697  37.384  33.013  14.004
47372W        W19698  24.693  16.269   3.151
47373W        W19699  24.207  21.321  12.107
47374W        W19700  16.348  28.008  12.648
47375W        W19701  27.635  12.435  14.055
47376W        W19702  43.852  33.677   3.801
47377W        W19703  17.707  11.275  14.290
47378W        W19704  42.918  35.031   4.661
47379W        W19705  30.430  14.086   4.104
47380W        W19706  34.591  42.083  14.322
47381W        W19707  42.564  38.916  13.966
47382W        W19708  38.967  42.051   3.613
47383W        W19709  39.473  19.510   0.796
47384W        W19710  34.857  21.235   4.402
47385W        W19711   1.836  29.384   2.387
47386W        W19712   2.264  34.212   1.781
47387W        W19713  11.730  18.100   2.722
47388W        W19714  14.545   9.250   4.604
47389W        W19715  44.214   7.071   4.665
47390W        W19716  23.942   2.303   4.217
47391W        W19717  14.188   0.856   2.174
47392W        W19718  10.910  13.620  11.075
47393W        W19719  40.927  35.290   2.477
47394W        W19720  19.232  41.512   3.391
47395W        W19721   5.153  36.698   4.117
47396W        W19722  36.968  24.237   0.280
47397W        W19723   6.772   3.198  12.993
47398W        W19724   7.330  20.137  14.364
47399W        W19725  35.615  40.382   5.096
47400W        W19726   4.960  16.240   1.735
47401W        W19727  28.494  16.733   2.895
47402W        W19728  44.419  27.594  13.132
47403W        W19729  17.684   1.269  11.148
47404W        W19730  25.716  42.298   0.916
47405W        W19731  37.892  29.121  13.223
47406W        W19732  25.089  31.869  14.816
47407W        W19733  28.032  34.944  10.446
47408W        W19734  40.392  33.858  11.871
47409W        W19735  17.190   7.759   4.974
47410W        W19736  17.826  43.992   2.771
47411W        W19737   1.216  22.004  13.520
47412W        W19738  28.143  23.195  14.425
47413W        W19739  33.155   0.336   1.163
47414W        W19740  38.391   9.151  14.130
47415W        W19741  40.248  36.914   0.292
47416W        W19742  34.351  43.032  10.644
47417W        W19743  43.006  13.185  12.836
47418W        W19744  24.897  10.149   0.890
47419W        W19745  21.252  20.625  14.520
47420W        W19746  18.512  37.416   3.335
47421W        W19747  44.856  32.680   1.382
47422W        W19748  43.432   3.375  13.529
47423W        W19749   2.818  37.358   3.716
47424W        W19750  38.733  44.859  12.085
47425W        W19751  34.479  28.898   0.390
47426W        W19752  16.355  40.974   2.638
47427W        W19753  27.503   1.125  10.898
47428W        W19754   5.223  21.798   1.743
47429W        W19755  38.738   8.157  12.535
47430W        W19756  18.683   9.547  14.863
47431W        W19757  19.976   7.632   0.249
47432W        W19758   6.896  26.909   4.577
47433W        W19759  28.370  34.351   4.182
47434W        W19760   1.879  30.366  12.355
47435W        W19761   9.598   0.345  12.921
47436W        W19762  30.978  36.159   4.547
47437W        W19763  44.915  18.011   2.740
47438W        W19764  43.342   0.099   1.310
47439W        W19765   8.165   1.291  11.611
47440W        W19766  21.084  24.358   3.617
47441W        W19767   0.831  23.795  11.731
47442W        W19768  40.713  30.597  14.959
47443W        W19769  39.099  18.800  12.472
47444W        W19770  29.967  33.899  14.329
47445W        W19771  33.348  33.774   2.269
47446W        W19772  20.832  14.167  12.597
47447W        W19773  40.821   1.848   4.072
47448W        W19774   7.859  37.573  12.657
47449W        W19775  16.545   5.898  10.779
47450W        W19776  44.399  18.649   3.239
47451W        W19777  15.761  44.469   3.327
47452W        W19778  21.807  17.897   3.160
47453W        W19779   7.125  21.113   3.811
47454W        W19780  25.016   9.263   3.918
47455W        W19781  21.095  27.702  11.901
47456W        W19782  33.348  39.941   4.935
47457W        W19783  13.823  35.654  13.722
47458W        W19784  16.661  19.067  14.700
47459W        W19785  15.681  29.995   1.722
47460W        W19786  20.105  42.962   3.903
47461W        W19787  30.470  30.156   3.805
47462W        W19788   0.425  42.117   0.910
47463W        W19789  40.279  13.799   4.212
47464W        W19790  32.892  37.488   3.680
47465W        W19791  20.829   7.443   1.093
47466W        W19792  40.818  22.513   0.314
47467W        W19793  15.642  44.687  14.513
47468W        W19794  12.780  15.128   3.616
47469W        W19795  10.754  17.840  12.513
47470W        W19796  40.408  38.943   3.715
47471W        W19797  15.121  11.068   1.915
47472W        W19798  27.518  23.998  13.490
47473W        W19799  29.460   4.673  11.209
47474W        W19800  35.903  34.902  11.459
47475W        W19801  19.004   5.599  11.775
47476W        W19802  44.573  20.818   1.436
47477W        W19803   3.121  30.998   4.116
47478W        W19804  26.701  28.579   2.088
47479W        W19805  39.011   4.888  10.790
47480W        W19806   8.337  24.415   3.960
47481W        W19807  34.633  26.136   0.187
47482W        W19808  36.596  31.532   4.210
47483W        W19809  10.461  20.186  12.053
47484W        W19810  44.735  25.120   4.571
47485W        W19811  11.140   9.684   4.566
47486W        W19812  26.959  29.596   4.305
47487W        W19813   7.360  13.890   1.264
47488W        W19814  37.538  27.523  11.433
47489W        W19815  42.810  27.551   1.462
47490W        W19816   8.631  36.803   1.864
47491W        W19817  16.826  33.162   0.698
47492W        W19818  29.251  25.273   2.768
47493W        W19819  14.766  10.549  14.428
47494W        W19820  13.215   5.910  11.164
47495W        W19821  11.953  15.042  14.868
47496W        W19822  13.064   7.726   4.578
47497W        W19823   1.669  19.097   3.880
47498W        W19824  13.733  19.618  10.552
47499W        W19825   9.540  26.949   3.100
47500W        W19826  38.961  39.117  13.275
47501W        W19827  17.558   6.886  11.567
47502W        W19828   2.161  14.260  11.084
47503W        W19829  16.493  17.171  14.868
47504W        W19830  42.332  13.896  13.078
47505W        W19831  18.648  31.868  12.418
47506W        W19832   3.988   7.403   5.051
47507W        W19833  17.679  34.941   2.288
47508W        W19834  19.540   0.710  13.875
47509W        W19835   6.332  41.758   1.703
47510W        W19836  14.154   2.439  14.310
47511W        W19837  21.552  25.404  13.006
47512W        W19838  15.824  33.598  12.759
47513W        W19839  43.884  41.889  11.995
47514W        W19840  23.145   7.441   2.691
47515W        W19841  43.749  16.563  12.403
47516W        W19842  32.714  43.973   4.072
47517W        W19843  38.120  36.969  12.409
47518W        W19844   2.040  30.493   3.562
47519W        W19845  38.959  20.208   3.586
47520W        W19846   9.995  23.645   4.422
47521W        W19847  15.055   7.865  14.909
47522W        W19848  25.281  43.526  12.173
47523W        W19849   2.558   0.321   1.717
47524W        W19850  43.713  11.422  10.997
47525W        W19851  17.065  33.884  12.984
47526W        W19852  35.462  34.942   1.718
47527W        W19853  42.773  23.651   0.454
47528W        W19854  31.670  41.965   1.475
47529W        W19855   0.684  40.478   1.322
47530W        W19856  21.446  12.395   3.603
47531W        W19857  42.706  21.756   0.304
47532W        W19858  23.130  40.500   2.747
47533W        W19859  33.128  10.604  10.938
47534W        W19860  18.329   5.860  13.595
47535W        W19861  17.794  40.398  14.787
47536W        W19862  35.227  33.828   1.907
47537W        W19863  34.440  27.945   0.413
47538W        W19864  15.757   0.803   1.737
47539W        W19865  15.098   1.005   0.023
47540W        W19866   8.699  23.525  10.433
47541W        W19867  30.869  27.567   2.217
47542W        W19868  34.919   4.141   3.060
47543W        W19869   1.954   3.880   1.951
47544W        W19870  42.746  42.857  14.353
47545W        W19871  30.984   3.064  12.859
47546W        W19872  18.492   0.398   3.820
47547W        W19873  15.157  42.745  13.151
47548W        W19874  39.895  15.596  12.503
47549W        W19875  20.972  12.848   4.470
47550W        W19876  30.098   7.903  13.548
47551W        W19877   7.771  33.840   1.383
47552W        W19878  43.149  34.612   1.697
47553W        W19879  35.473  19.804   2.329
47554W        W19880   2.234  43.815  14.883
47555W        W19881  21.302  29.835   3.822
47556W        W19882  14.739   5.186  14.792
47557W        W19883  36.045   1.456   2.576
47558W        W19884  17.795  36.859  13.075
47559W        W19885  38.388  12.096  10.229
47560W        W19886  11.639  22.188  14.530
47561W        W19887  16.629  27.997  14.998
47562W        W19888   1.271   8.214  10.662
47563W        W19889  35.109  21.065   3.456
47564W        W19890  10.919  39.814  10.895
47565W        W19891   4.940  34.518  11.955
47566W        W19892  25.330  28.239   2.795
47567W        W19893  26.154  36.555   1.793
47568W        W19894   8.373   9.827   3.157
47569W        W19895  22.822  44.385   2.412
47570W        W19896  19.746  42.229   3.408
47571W        W19897  41.866  27.123   1.440
47572W        W19898   6.167   0.741   1.624
47573W        W19899  15.829  13.671   0.772
47574W        W19900   5.397  40.904  11.681
47575W        W19901  43.248  35.027   3.820
47576W        W19902  39.584  20.635  10.901
47577W        W19903  14.316  23.316  13.477
47578W        W19904  23.055  43.979  13.722
47579W        W19905  36.971   3.694  12.056
47580W        W19906  41.447  16.176   0.438
47581W        W19907  19.569  11.849   0.179
47582W        W19908   9.248  33.638   1.970
47583W        W19909  38.866   7.745   0.017
47584W        W19910  43.999  22.303  14.786
47585W        W19911  27.483  20.776   1.785
47586W        W19912  24.082  39.429   5.584
47587W        W19913  18.029  40.595   0.495
47588W        W19914   0.970  34.824  10.295
47589W        W19915  12.856  18.588   2.180
47590W        W19916  41.820  13.850  12.970
47591W        W19917  31.115  41.383  10.600
47592W        W19918  34.889   8.809   3.235
47593W        W19919  17.926  39.051  10.698
47594W        W19920  25.643  40.030   0.086
47595W        W19921   8.870  30.525  13.487
47596W        W19922  17.874  30.174   2.968
47597W        W19923  39.100  34.055   0.746
47598W        W19924  13.843  31.639   1.464
47599W        W19925   3.967  25.406  14.243
47600W        W19926   5.288   6.699   2.474
47601W        W19927   1.095  10.303   2.589
47602W        W19928  38.090  30.616  11.587
47603W        W19929  14.802  12.892   0.188
47604W        W19930  11.148  38.003   2.277
47605W        W19931  44.989   0.100   1.826
47606W        W19932   1.900  21.997   4.205
47607W        W19933  39.429  35.526  12.620
47608W        W19934   5.277   8.003  13.051
47609W        W19935  23.445  36.934   3.260
47610W        W19936   1.304  31.941  11.924
47611W        W19937  31.960  37.318  10.396
47612W        W19938  14.567   8.977  13.396
47613W        W19939  20.212  11.060  12.505
47614W        W19940  14.660  30.000   1.539
47615W        W19941  34.564  39.359  14.427
47616W        W19942  26.478   0.876  13.932
47617W        W19943  17.321  13.821  13.014
47618W        W19944  11.092  16.747  10.802
47619W        W19945  35.447  44.258   1.704
47620W        W19946  25.745   5.825   1.160
47621W        W19947  18.898  28.578   1.967
47622W        W19948  28.963   0.886   4.261
47623W        W19949  17.989   2.364   1.226
47624W        W19950  39.753  20.153  11.616
47625W        W19951  42.524   2.464  12.692
47626W        W19952  13.227  39.583  14.822
47627W        W19953   8.256  13.958   2.567
47628W        W19954   4.372  40.369   1.756
47629W        W19955  13.723   3.362  11.933
47630W        W19956   1.491  13.324  13.959
47631W        W19957  32.709  39.448  13.620
47632W        W19958  31.198  17.064   3.727
47633W        W19959  35.829  43.816   3.160
47634W        W19960  37.543  38.648  11.958
47635W        W19961  12.371  10.841   3.383
47636W        W19962  37.928  22.522  14.788
47637W        W19963  44.923   8.451  10.352
47638W        W19964  25.947  21.205   2.338
47639W        W19965   5.914  33.676  13.937
47640W        W19966  24.714  24.303  11.017
47641W        W19967  20.567  31.147   1.206
47642W        W19968  40.762  12.134  13.789
47643W        W19969   2.419  11.731  11.453
47644W        W19970   0.691   3.036   3.741
47645W        W19971  41.315  26.180   0.222
47646W        W19972  20.733  34.414   4.869
47647W        W19973  28.142  42.447   3.985
47648W        W19974  42.905  35.773  13.085
47649W        W19975  34.291   4.513   4.901
47650W        W19976  40.070  10.284   0.977
47651W        W19977  13.512   0.404  10.344
47652W        W19978  32.553  36.820   3.831
47653W        W19979   0.474  41.350  14.358
47654W        W19980  37.066   4.418   1.169
47655W        W19981  38.549  13.134  10.530
47656W        W19982  29.376   5.060   5.160
47657W        W19983  11.674  28.400   4.198
47658W        W19984  14.285  16.471  11.664
47659W        W19985  35.620  31.680   3.693
47660W        W19986   3.396  42.265   2.397
47661W        W19987  40.320   2.431   1.885
47662W        W19988  19.813  20.325  13.397
47663W        W19989   6.975  23.235  14.669
47664W        W19990  16.299  36.050  11.163
47665W        W19991  31.842   6.181   2.940
47666W        W19992   6.852   3.949  10.918
47667W        W19993   7.146   1.733   1.884
47668W        W19994  36.059  20.040   3.127
47669W        W19995  16.690  30.566   3.089
47670W        W19996   0.441  11.137   3.364
47671W        W19997  16.207  35.017   2.329
47672W        W19998  32.364   4.096   0.602
47673W        W19999  29.717  27.613   1.536
47674W        W20000  28.971  19.531  12.936
47675W        W20001  41.927  10.278   4.231
47676W        W20002   4.501  40.825  14.372
47677W        W20003  27.502  24.036   1.964
47678W        W20004  22.612   4.749   3.022
47679W        W20005   7.415  44.769   4.208
47680W        W20006  23.513  18.725   3.252
47681W        W20007  24.919  20.320   5.074
47682W        W20008  19.187   7.709   4.608
47683W        W20009  14.219   0.538   0.324
47684W        W20010  40.772  30.402   0.430
47685W        W20011  25.895  22.590   5.327
47686W        W20012  14.087  34.625   1.006
47687W        W20013  38.771   1.634  11.187
47688W        W20014  28.737   9.729  10.971
47689W        W20015  13.349  40.227  10.204
47690W        W20016   6.332   9.357  12.458
47691W        W20017  19.657   4.434   3.223
47692W        W20018  41.535   0.025   3.770
47693W        W20019   7.915  21.613   4.843
47694W        W20020  42.894  31.990  10.543
47695W        W20021   5.983  21.796  10.670
47696W        W20022   6.374   9.031  13.017
47697W        W20023  37.888   1.423   1.254
47698W        W20024  17.592  32.164   5.011
47699W        W20025  41.916  44.039   2.366
47700W        W20026   2.907  28.883   2.478
47701W        W20027  34.889  10.674   4.868
47702W        W20028  43.339  17.330   0.486
47703W        W20029  24.463  31.914   3.192
47704W        W20030  37.515   4.924   3.548
47705W        W20031  13.618   6.200   2.374
47706W        W20032  31.102  32.358   1.950
47707W        W20033  31.964  22.249  13.457
47708W        W20034  17.553  14.472   2.456
47709W        W20035  10.782   6.234   2.388
47710W        W20036  16.279   0.985  11.053
47711W        W20037   6.655  27.725  11.156
47712W        W20038  17.210   1.414   4.199
47713W        W20039  15.573  41.908  12.840
47714W        W20040   8.937  24.038   1.168
47715W        W20041  14.261  17.406  13.540
47716W        W20042  17.737   9.743  13.373
47717W        W20043  21.267  29.844   2.220
47718W        W20044   5.336  25.195  13.562
47719W        W20045  20.296  21.102  13.101
47720W        W20046  18.297   0.890  13.462
47721W        W20047  14.064  16.478   0.795
47722W        W20048  33.343   6.350   2.905
47723W        W20049  43.084  19.058  13.762
47724W        W20050  34.617  19.757   3.749
47725W        W20051   9.846  22.588  14.538
47726W        W20052  41.550  10.696  12.403
47727W        W20053   3.514  13.835  13.996
47728W        W20054  19.159   1.339  11.841
47729W        W20055   4.267  35.716  12.489
47730W        W20056   0.994  20.597  13.948
47731W        W20057  24.671  32.056   3.655
47732W        W20058  29.453  12.779   4.246
47733W        W20059  35.849  14.275  10.976
47734W        W20060  20.531  23.311   0.423
47735W        W20061  30.507  18.369  11.444
47736W        W20062  36.938  18.217  13.302
47737W        W20063  33.870  20.680   0.316
47738W        W20064  23.531  24.992  11.212
47739W        W20065  21.637  42.484  13.883
47740W        W20066   9.000   8.391  13.622
47741W        W20067  13.659  41.434  10.565
47742W        W20068  32.504  21.893  14.917
47743W        W20069  14.334   0.683  12.222
47744W        W20070  33.315   9.130   3.307
47745W        W20071  28.261   7.872   2.303
47746W        W20072  26.580  25.341  11.297
47747W        W20073  34.278   6.730  13.332
47748W        W20074  27.413  32.419  12.600
47749W        W20075  14.820  39.735   1.394
47750W        W20076   5.501  37.935  13.868
47751W        W20077  13.584  20.637  13.439
47752W        W20078  18.772  12.125   2.722
47753W        W20079  37.628  19.192  12.444
47754W        W20080  26.369  15.149  12.613
47755W        W20081  44.756  33.170   4.093
47756W        W20082  28.748  28.952   3.397
47757W        W20083  34.899  15.387  14.647
47758W        W20084   2.820   1.392   0.513
47759W        W20085  10.673  16.100  11.689
47760W        W20086  20.055   6.934  13.086
47761W        W20087  24.712   1.780   3.095
47762W        W20088  26.699  24.624  13.650
47763W        W20089   1.793  13.563   3.522
47764W        W20090  28.210  11.101  14.513
47765W        W20091  23.677  38.482  12.551
47766W        W20092  37.117   0.907   0.737
47767W        W20093  29.989  33.228  12.911
47768W        W20094  41.319  38.357   1.883
47769W        W20095  16.387  40.554  14.029
47770W        W20096  16.624  11.878  12.449
47771W        W20097  17.865  27.194  12.055
47772W        W20098  33.281  11.647  11.263
47773W        W20099  38.087  28.594   3.278
47774W        W20100  30.574  37.650  14.449
47775W        W20101  21.928  24.510  12.982
47776W        W20102  19.554  18.399   1.889
47777W        W20103   5.815   1.862  11.545
47778W        W20104  23.575  31.391   1.351
47779W        W20105  20.130  31.604  13.476
47780W        W20106  15.170  12.824   3.325
47781W        W20107  38.439  35.935   1.797
47782W        W20108   2.105  29.702  13.534
47783W        W20109   5.480  15.380   1.335
47784W        W20110   6.353  41.509   2.576
47785W        W20111   7.010  36.448  14.489
47786W        W20112  13.160  25.072  10.839
47787W        W20113  24.553  20.116  11.301
47788W        W20114  33.130   6.716   3.703
47789W        W20115   6.482  29.210   0.089
47790W        W20116  12.534   8.857   0.754
47791W        W20117  24.249  22.730   2.926
47792W        W20118   4.001  20.032   2.846
47793W        W20119  13.743  12.291  14.731
47794W        W20120   5.787  36.484   4.639
47795W        W20121  21.672  38.115  12.473
47796W        W20122  15.138  19.760  13.991
47797W        W20123  38.962   6.681   1.841
47798W        W20124  30.603  44.649  13.073
47799W        W20125  28.320  21.015   1.297
47800W        W20126  10.371   4.936  14.108
47801W        W20127   9.635   0.919  13.550
47802W        W20128   8.473  31.882   4.175
47803W        W20129   8.916  38.436  11.489
47804W        W20130   0.011  32.408  14.071
47805W        W20131  29.722  37.106   2.190
47806W        W20132  21.603  30.593  10.740
47807W        W20133  44.191  35.013  11.695
47808W        W20134  20.232  30.898   0.290
47809W        W20135  37.109  34.922   0.884
47810W        W20136  13.936  22.548  10.814
47811W        W20137  14.057  38.838  11.086
47812W        W20138   9.229  14.166  11.196
47813W        W20139  25.181  12.107  11.485
47814W        W20140   1.436  43.898  12.604
47815W        W20141  14.856  38.017   1.877
47816W        W20142  13.616  30.429   0.421
47817W        W20143   9.688  21.890   4.720
47818W        W20144  30.547  41.334   3.309
47819W        W20145  37.967  43.792   1.299
47820W        W20146  27.916  14.881  10.709
47821W        W20147   8.895   6.417   2.617
47822W        W20148   5.676  21.394  11.570
47823W        W20149  30.457  13.063   4.572
47824W        W20150  34.308  36.152   9.661
47825W        W20151  23.244  22.556  11.211
47826W        W20152  25.707  21.401  14.075
47827W        W20153  23.525  25.353  12.130
47828W        W20154  18.860  19.741   0.850
47829W        W20155  44.302  22.151  10.149
47830W        W20156  27.549  21.902  11.002
47831W        W20157  31.256   4.872  11.600
47832W        W20158  16.064  14.275   2.907
47833W        W20159  24.414  22.363  13.503
47834W        W20160  40.626   5.164   0.867
47835W        W20161  44.666  28.352  14.805
47836W        W20162  41.222  20.004   4.608
47837W        W20163  39.624  25.912   2.343
47838W        W20164  16.263  11.480   0.412
47839W        W20165  13.564  25.567   2.574
47840W        W20166  15.750  35.614  11.491
47841W        W20167  18.674  32.864   4.398
47842W        W20168   8.446  43.519   2.290
47843W        W20169  20.644  12.314  13.938
47844W        W20170   1.373  34.592  12.897
47845W        W20171  40.928   7.171   2.327
47846W        W20172  27.896  29.008   2.848
47847W        W20173  14.557  18.948   2.753
47848W        W20174  44.283  27.951   3.241
47849W        W20175   7.290  40.938   3.188
47850W        W20176  18.137  27.757   3.655
47851W        W20177  43.462  27.146  11.290
47852W        W20178  16.123  43.732  10.641
47853W        W20179  25.997  24.367  14.884
47854W        W20180   8.008  14.066  13.313
47855W        W20181  43.002  24.315  10.765
47856W        W20182  25.046  38.247   3.312
47857W        W20183  23.558  43.530   1.242
47858W        W20184   2.536  16.043   4.887
47859W        W20185  19.574   4.498  11.037
47860W        W20186  15.783  44.421   2.165
47861W        W20187  38.365  31.947  10.339
47862W        W20188  42.446  43.005   3.905
47863W        W20189  31.938  31.934  13.587
47864W        W20190  24.333   3.133   0.260
47865W        W20191  44.018   5.264  12.325
47866W        W20192  24.479   6.527   1.978
47867W        W20193  12.284  31.843  14.010
47868W        W20194  33.017  40.864   4.009
47869W        W20195   6.480  39.519   2.901
47870W        W20196  18.746  34.383   0.146
47871W        W20197  37.098  13.165  14.279
47872W        W20198  16.072  34.020   1.362
47873W        W20199  17.123  34.541  13.772
47874W        W20200  35.106   0.747   0.264
47875W        W20201  10.707   1.348  13.825
47876W        W20202  16.269  19.813   1.185
47877W        W20203  35.370  39.962  14.024
47878W        W20204  40.733  31.434   1.794
47879W        W20205  22.767   2.770   1.739
47880W        W20206  15.257   6.812   3.600
47881W        W20207  22.723  36.278   1.463
47882W        W20208  36.996  15.759   1.245
47883W        W20209  37.211  15.289   0.164
47884W        W20210  11.385  17.806   4.192
47885W        W20211  17.298   1.830   2.643
47886W        W20212  19.775   2.194  10.999
47887W        W20213   0.808  42.313   4.159
47888W        W20214  43.324  13.163   4.592
47889W        W20215  36.406  41.405   1.350
47890W        W20216  20.993  16.777  10.777
47891W        W20217  12.897  26.116  14.274
47892W        W20218  15.761  42.373   1.024
47893W        W20219  28.475  13.830  12.454
47894W        W20220  39.252  39.491   0.619
47895W        W20221  10.832  16.047  13.547
47896W        W20222  43.697  28.608  11.400
47897W        W20223   0.205  36.946  11.077
47898W        W20224  20.997  26.536  11.042
47899W        W20225   8.567   4.261   4.546
47900W        W20226   7.697   5.660   2.233
47901W        W20227  32.504   5.001  14.889
47902W        W20228   2.774   7.396  12.408
47903W        W20229  38.184  30.603  14.094
47904W        W20230   6.496  22.056   1.819
47905W        W20231  34.591  35.788  14.452
47906W        W20232   8.334  40.635   2.463
47907W        W20233   7.719  31.447   4.300
47908W        W20234  23.122   3.979   3.237
47909W        W20235  38.398  24.093   4.358
47910W        W20236  44.327  31.241   1.749
47911W        W20237  11.128  13.775  14.217
47912W        W20238  26.936  21.135   0.277
47913W        W20239  42.207   2.758   2.218
47914W        W20240  35.364  31.136  10.539
47915W        W20241   1.403  13.356   2.941
47916W        W20242   3.114   1.825   2.341
47917W        W20243   6.975  14.290  12.144
47918W        W20244  39.264  44.504   0.453
47919W        W20245   8.864  28.632   4.019
47920W        W20246   9.482  16.878  10.893
47921W        W20247  30.637  32.096   2.027
47922W        W20248  16.684  29.142   1.956
47923W        W20249  42.333  23.559  13.933
47924W        W20250  37.578  25.488   0.758
47925W        W20251   6.124  36.055   4.632
47926W        W20252  21.790  13.618   3.210
47927W        W20253  43.211   4.700   4.781
47928W        W20254  27.574  16.093   2.687
47929W        W20255   4.237   0.831  11.710
47930W        W20256  17.793  21.074   3.209
47931W        W20257  25.249   7.536  12.035
47932W        W20258   0.517  19.655  12.978
47933W        W20259  35.006  26.587   4.667
47934W        W20260  30.241  29.932  13.016
47935W        W20261  34.677   2.781  10.839
47936W        W20262  30.694   0.883  13.598
47937W        W20263  41.852  34.626   0.477
47938W        W20264  23.955  31.724   0.362
47939W        W20265  12.572  41.522  12.964
47940W        W20266   5.153  21.926  12.494
47941W        W20267  25.569  36.101   0.487
47942W        W20268  41.304  10.279   4.084
47943W        W20269   3.279  44.396   3.842
47944W        W20270  17.105   9.792   2.773
47945W        W20271  41.319  33.899  11.194
47946W        W20272  43.781  13.520  13.914
47947W        W20273  38.332  39.441   0.759
47948W        W20274   2.460   2.218  12.591
47949W        W20275  17.759  20.036   1.337
47950W        W20276  25.697  20.232  10.285
47951W        W20277  19.919  23.434  13.090
47952W        W20278  29.594  44.459  14.765
47953W        W20279  20.869  19.626   3.726
47954W        W20280  21.498  27.065   0.449
47955W        W20281  25.715  29.208   3.822
47956W        W20282  42.980  39.848   4.134
47957W        W20283  26.713  22.667   2.128
47958W        W20284  39.030   7.433  14.646
47959W        W20285  29.919  33.731  12.831
47960W        W20286  13.690  10.630   3.179
47961W        W20287  25.708   5.738   1.697
47962W        W20288  13.273  14.599   3.347
47963W        W20289  16.156   7.235  10.844
47964W        W20290  18.012  14.363  12.945
47965W        W20291  30.431  36.931  13.998
47966W        W20292  24.471   3.420   1.336
47967W        W20293   8.100   6.448   2.297
47968W        W20294  23.102  41.744  11.847
47969W        W20295  13.793  44.085  12.108
47970W        W20296  22.396  40.513   1.779
47971W        W20297  38.827  32.042  14.070
47972W        W20298   1.253  37.964  11.595
47973W        W20299   1.386  44.857   4.255
47974W        W20300  42.810  24.603  14.072
47975W        W20301   4.680   6.718   0.264
47976W        W20302  30.201  36.329   0.012
47977W        W20303  14.257  19.678   1.417
47978W        W20304  18.803   2.273   4.648
47979W        W20305  16.543   2.480  11.630
47980W        W20306  40.715  24.265  11.115
47981W        W20307  28.931  30.673   4.143
47982W        W20308  10.655  26.786   4.088
47983W        W20309  21.061  24.828   0.338
47984W        W20310  30.928  24.363   4.088
47985W        W20311  34.386  17.139  10.446
47986W        W20312  28.123   5.333  12.845
47987W        W20313  17.020  39.968  11.525
47988W        W20314   5.473  20.509   4.286
47989W        W20315   6.761  32.772  13.365
47990W        W20316   3.857   3.776  12.667
47991W        W20317  38.429  33.943   4.676
47992W        W20318  43.356  39.503  12.061
47993W        W20319   0.737  20.219   0.997
47994W        W20320  40.837  13.690   1.345
47995W        W20321  21.317  37.858   0.112
47996W        W20322  35.334  36.632   2.727
47997W        W20323  41.425   2.229  14.417
47998W        W20324   1.000  22.649   3.938
47999W        W20325  34.013  29.151   0.227
48000W        W20326  14.776  44.378   1.212
48001W        W20327  11.590   5.619  10.203
48002W        W20328   4.354  33.886  14.008
48003W        W20329  18.291  26.001  11.489
48004W        W20330  37.400  36.160  12.536
48005W        W20331  22.689  40.099  14.847
48006W        W20332  35.837  43.347  11.064
48007W        W20333   0.402  18.593   2.624
48008W        W20334  44.905  35.302   1.462
48009W        W20335  18.286  11.437   2.506
48010W        W20336  43.203  18.513  12.535
48011W        W20337  11.214  37.711   0.983
48012W        W20338  29.625  44.335   2.706
48013W        W20339  43.045  18.197  11.941
48014W        W20340  42.861  24.615  13.547
48015W        W20341  15.712   5.849   3.253
48016W        W20342  34.640  22.674  13.306
48017W        W20343  36.918  22.976  12.002
48018W        W20344  26.168  17.830  14.465
48019W        W20345  40.563   7.463   1.111
48020W        W20346  11.455  10.108   4.618
48021W        W20347  39.303  25.604   4.373
48022W        W20348  19.232  11.425   4.593
48023W        W20349  31.818  27.688   3.255
48024W        W20350  17.015  38.455  13.823
48025W        W20351   5.191   9.968   1.221
48026W        W20352  26.192  35.828   3.839
48027W        W20353  36.759  30.024   3.736
48028W        W20354   7.206  28.379  11.206
48029W        W20355  21.638  28.552  11.737
48030W        W20356   2.413   4.630   5.583
48031W        W20357  25.940  10.855  10.944
48032W        W20358   0.009  12.396   1.432
48033W        W20359  31.060  29.397  11.643
48034W        W20360  18.518  25.979  10.637
48035W        W20361   1.012   9.936   1.274
48036W        W20362  39.151  18.831   1.265
48037W        W20363   4.950  37.500  10.876
48038W        W20364  26.840  36.959   4.139
48039W        W20365  26.430   0.892  13.007
48040W        W20366  44.472  10.394  14.814
48041W        W20367  14.531  16.758   4.321
48042W        W20368  13.790  42.792  11.392
48043W        W20369  40.349  22.808   1.703
48044W        W20370  31.129   3.338   3.618
48045W        W20371  11.244  24.290   4.517
48046W        W20372  40.469  11.736   3.157
48047W        W20373   8.467  29.644  13.528
48048W        W20374  31.875  32.302   5.023
48049W        W20375  10.392  23.552   2.592
48050W        W20376   7.370  43.060   3.424
48051W        W20377   1.693  12.318   1.912
48052W        W20378   0.598  42.774   4.169
48053W        W20379  39.317  29.855  14.035
48054W        W20380   7.895  20.101  13.013
48055W        W20381   4.743  40.286   3.664
48056W        W20382  18.566   2.342  13.074
48057W        W20383  12.877  25.014  13.599
48058W        W20384  26.214  26.411  13.001
48059W        W20385  35.310  37.455   4.619
48060W        W20386  14.015  24.745   0.549
48061W        W20387  11.618  16.159   1.250
48062W        W20388  44.617   1.680   5.061
48063W        W20389  40.660  16.914  14.872
48064W        W20390  31.663  36.373   4.444
48065W        W20391   4.957  29.251  11.672
48066W        W20392   9.586  23.079  14.894
48067W        W20393  37.360  33.007  14.578
48068W        W20394  25.956  19.052  10.633
48069W        W20395  15.637  25.082  14.417
48070W        W20396  43.268  24.127   0.867
48071W        W20397   3.163  34.554  13.752
48072W        W20398  33.698   5.469   0.871
48073W        W20399  35.348   6.424  12.893
48074W        W20400  15.398  24.274  10.550
48075W        W20401  35.782  28.958  11.038
48076W        W20402  10.663  10.730  12.335
48077W        W20403  35.940  42.467  13.361
48078W        W20404   5.868  41.758  10.791
48079W        W20405  32.447  39.815  13.370
48080W        W20406  28.148  27.479  14.481
48081W        W20407   6.423  21.478  12.044
48082W        W20408  18.692  42.734   0.539
48083W        W20409  28.861  29.853  14.724
48084W        W20410   4.897   4.620   4.588
48085W        W20411  14.578  21.239   3.298
48086W        W20412   2.807  31.117  11.895
48087W        W20413  34.925  38.906  14.418
48088W        W20414  37.170  37.086   4.931
48089W        W20415  24.887  37.992   5.638
48090W        W20416   6.901   5.468  10.424
48091W        W20417  20.550   6.673   3.180
48092W        W20418  24.781   1.759  14.832
48093W        W20419  16.035  17.849   1.153
48094W        W20420  42.387  16.045  10.887
48095W        W20421  33.465  17.760  13.871
48096W        W20422   5.775  32.884  12.514
48097W        W20423  36.383  20.709   1.354
48098W        W20424  17.013  12.099   2.872
48099W        W20425  18.283  34.117  14.307
48100W        W20426  22.927  25.422   1.695
48101W        W20427  17.096  39.095   3.690
48102W        W20428   3.855   8.301  14.351
48103W        W20429   5.412  27.581   3.297
48104W        W20430   7.442  19.233  12.897
48105W        W20431  25.555  38.257  11.194
48106W        W20432  21.517  16.829  10.628
48107W        W20433  38.948  42.943  13.122
48108W        W20434  25.091  22.461  10.667
48109W        W20435  16.612  17.944   2.837
48110W        W20436  22.982  17.342   2.324
48111W        W20437  21.019  34.868   4.129
48112W        W20438  14.616   1.472  14.390
48113W        W20439  25.591  37.125  13.997
48114W        W20440  37.419  42.495  12.601
48115W        W20441   6.663   6.404  12.071
48116W        W20442  18.286   9.745   2.219
48117W        W20443  19.593   6.244   0.441
48118W        W20444   9.745  36.620   1.001
48119W        W20445   9.202   8.862   1.487
48120W        W20446  28.632  13.859   1.896
48121W        W20447  15.044  35.827  13.400
48122W        W20448   7.106  22.564  10.771
48123W        W20449   9.257  44.708   0.927
48124W        W20450  23.233  29.035   1.515
48125W        W20451  14.220   5.791   0.092
48126W        W20452  11.356   5.064   2.352
48127W        W20453  44.843  44.734   3.271
48128W        W20454  17.241   7.193   5.172
48129W        W20455  32.783  34.504   3.208
48130W        W20456   7.436  40.691  14.431
48131W        W20457  16.864  24.402   1.313
48132W        W20458  29.193   1.774   0.383
48133W        W20459  28.379  23.492  10.501
48134W        W20460  19.212  17.612   1.536
48135W        W20461  39.249  42.631   4.487
48136W        W20462  28.873   1.365  13.937
48137W        W20463  36.472  37.004   1.446
48138W        W20464  35.873  17.531   1.428
48139W        W20465  23.200  15.188  13.107
48140W        W20466   8.407  25.481  11.735
48141W        W20467  30.342  33.607   2.795
48142W        W20468  29.095  34.848  11.206
48143W        W20469  12.277  20.229   1.641
48144W        W20470  26.426  31.053  14.733
48145W        W20471   1.349  28.073   4.730
48146W        W20472   2.692  10.361  10.711
48147W        W20473  43.298  31.006  12.808
48148W        W20474  21.084  32.449   2.860
48149W        W20475   6.018  43.181  13.539
48150W        W20476  20.151  40.229   4.979
48151W        W20477  17.089   8.260   3.162
48152W        W20478   0.115  27.987   1.395
48153W        W20479  26.500  39.314  12.882
48154W        W20480  15.647  41.646  13.971
48155W        W20481  14.818  32.909  13.737
48156W        W20482  18.430  38.847   3.605
48157W        W20483  16.257  13.338   2.570
48158W        W20484   7.002  39.073   2.424
48159W        W20485  38.064  10.630   2.511
48160W        W20486   8.438  20.025   3.928
48161W        W20487  11.216  37.836   3.406
48162W        W20488  23.172  41.079  13.002
48163W        W20489  13.729  13.695  13.827
48164W        W20490  23.604   1.367   4.087
48165W        W20491  13.693  38.307  12.986
48166W        W20492  44.609  11.394   5.164
48167W        W20493  14.606  35.384   4.144
48168W        W20494  17.792   6.143  13.382
48169W        W20495  39.148  24.605  11.100
48170W        W20496  21.163  14.370  13.902
48171W        W20497  22.096   8.423   0.624
48172W        W20498  18.754  34.470  14.629
48173W        W20499  14.070  25.511   3.361
48174W        W20500  21.685  22.805  11.868
48175W        W20501  31.114  43.073   3.200
48176W        W20502  13.247  42.623   1.795
48177W        W20503  37.616  26.132  13.992
48178W        W20504  40.543  13.657   2.421
48179W        W20505  26.120  34.925  12.839
48180W        W20506  34.013  33.112  14.521
48181W        W20507   8.922  18.527  11.757
48182W        W20508   7.786   9.963  11.131
48183W        W20509   3.944  41.314  11.071
48184W        W20510   7.923  33.086   2.167
48185W        W20511  15.461  34.848   1.341
48186W        W20512  22.794   9.878   1.423
48187W        W20513  15.648  39.104  12.973
48188W        W20514  42.500  30.933  13.797
48189W        W20515  44.246  22.520   2.173
48190W        W20516  43.560   8.736   4.525
48191W        W20517  24.471  35.099   4.623
48192W        W20518  12.237  21.490  12.838
48193W        W20519   0.761  20.694  14.858
48194W        W20520  14.400  30.594  10.838
48195W        W20521   1.831  43.115   4.797
48196W        W20522   5.419  41.883  14.925
48197W        W20523   5.488  29.001   1.954
48198W        W20524  23.447  26.376   2.952
48199W        W20525   3.400  30.180   3.938
48200W        W20526  10.625  43.519   3.297
48201W        W20527   3.460  17.600   4.430
48202W        W20528  17.889  32.347  14.554
48203W        W20529  26.131  33.398   4.620
48204W        W20530  29.894   5.290   4.623
48205W        W20531   2.149  30.587  10.622
48206W        W20532   6.259  12.843  12.416
48207W        W20533  26.047   5.761   3.795
48208W        W20534  13.604  18.774   4.202
48209W        W20535   3.349  29.741  13.920
48210W        W20536  42.277  23.959   3.152
48211W        W20537  33.804  21.636  12.019
48212W        W20538   0.984  26.086   4.209
48213W        W20539  26.876  32.172   0.540
48214W        W20540  41.237  15.142   1.924
48215W        W20541  42.278  28.694   4.040
48216W        W20542  29.549  16.603  12.841
48217W        W20543  36.012  10.384  10.782
48218W        W20544  33.197  19.497  12.513
48219W        W20545  30.909  33.716   1.323
48220W        W20546  17.826  13.593   1.133
48221W        W20547  29.477  37.218   2.642
48222W        W20548  30.481  44.766   3.371
48223W        W20549  41.410  10.144   2.722
48224W        W20550  24.293   2.908  10.762
48225W        W20551  20.338  37.595  11.130
48226W        W20552  27.040  20.804   1.470
48227W        W20553  36.949  39.566   0.682
48228W        W20554  31.052   5.720   2.903
48229W        W20555  33.918  17.324  13.473
48230W        W20556  21.600   1.121  13.763
48231W        W20557   8.178  31.512  11.038
48232W        W20558  33.498  42.726  11.896
48233W        W20559  18.339  44.530   0.694
48234W        W20560  15.793  26.467  14.668
48235W        W20561  18.756  42.425   1.854
48236W        W20562  37.054  17.612   0.771
48237W        W20563  29.315  25.077  13.489
48238W        W20564  16.576  29.131  12.173
48239W        W20565   3.742  38.456  12.424
48240W        W20566  42.430  44.087  10.675
48241W        W20567   9.806  28.871   4.015
48242W        W20568   5.038  24.048   0.278
48243W        W20569   2.268  21.716   5.068
48244W        W20570  42.386   6.421   1.305
48245W        W20571  14.132  16.215  12.095
48246W        W20572  40.003  39.165   1.604
48247W        W20573  24.163  42.863   4.026
48248W        W20574  34.259  33.959   3.727
48249W        W20575  18.212  43.102  13.936
48250W        W20576  18.311  36.613   0.942
48251W        W20577   1.520   1.946  13.067
48252W        W20578   9.377  17.986  14.211
48253W        W20579  34.523  36.303   0.340
48254W        W20580   9.805  35.336   2.427
48255W        W20581  14.578  36.292  12.516
48256W        W20582  30.926   5.893   3.373
48257W        W20583  36.482  23.249  12.034
48258W        W20584  21.068   7.792   2.382
48259W        W20585  14.301  26.827   3.648
48260W        W20586  43.874   2.325   5.048
48261W        W20587  32.941  32.432  11.027
48262W        W20588   9.800  39.256  13.474
48263W        W20589  26.695  18.674  13.925
48264W        W20590  13.879  21.191  13.374
48265W        W20591  24.149  38.587   5.078
48266W        W20592   2.401  11.627   4.068
48267W        W20593  10.767   0.255   2.473
48268W        W20594  36.515  13.398  12.191
48269W        W20595  36.613  21.044   1.748
48270W        W20596   6.760   1.712  14.722
48271W        W20597  37.859  16.216  14.825
48272W        W20598  29.660   3.788  12.949
48273W        W20599  32.126  13.267  12.399
48274W        W20600   6.028  24.935  12.048
48275W        W20601  35.059   6.736   0.257
48276W        W20602   8.847   1.661  10.603
48277W        W20603   0.065  44.322  14.749
48278W        W20604  35.154  37.803  13.513
48279W        W20605   6.842  15.702   4.041
48280W        W20606   7.353  13.916   3.249
48281W        W20607   2.209  19.642   2.823
48282W        W20608  21.353   5.457  13.108
48283W        W20609  42.526   7.709   0.906
48284W        W20610  18.616  18.296  13.538
48285W        W20611  24.116  16.843   0.374
48286W        W20612   4.695  41.965  12.504
48287W        W20613   8.702  43.407   0.356
48288W        W20614  16.077  43.542   1.509
48289W        W20615  12.424  44.943   3.929
48290W        W20616  38.102   3.283  12.882
48291W        W20617   5.906  10.940  11.555
48292W        W20618   5.424  32.461  11.668
48293W        W20619  26.155  38.177  13.393
48294W        W20620  27.643   1.779   2.957
48295W        W20621  20.441  16.794   0.749
48296W        W20622  36.032  37.106  12.449
48297W        W20623  11.730  38.142  12.659
48298W        W20624  41.500  20.671  11.620
48299W        W20625  30.994  11.720  10.276
48300W        W20626  22.968  26.004  11.958
48301W        W20627  10.088  14.615   3.817
48302W        W20628  28.450  28.460   2.470
48303W        W20629  13.369  14.723   0.437
48304W        W20630  16.068  20.855   0.246
48305W        W20631   6.507   7.868  10.824
48306W        W20632  21.955  35.854   4.062
48307W        W20633  20.648   6.347   3.552
48308W        W20634  10.454  40.238   0.469
48309W        W20635  10.072  12.579   0.834
48310W        W20636  39.136  43.960   0.363
48311W        W20637  22.617  24.586   0.673
48312W        W20638  29.933  19.550   3.710
48313W        W20639  43.227  18.273   2.176
48314W        W20640  34.068  30.216   4.407
48315W        W20641  44.904  39.086  12.609
48316W        W20642  32.183  29.009  12.239
48317W        W20643   6.621   4.374  10.721
48318W        W20644  11.291  19.258  13.938
48319W        W20645  25.697   3.133   4.325
48320W        W20646   2.284  22.397  11.165
48321W        W20647  28.658   2.537  12.442
48322W        W20648  26.999  40.054  13.467
48323W        W20649  12.570   0.356   4.851
48324W        W20650  23.683  15.172  12.964
48325W        W20651  32.853   5.172   4.086
48326W        W20652  44.300  28.532  14.467
48327W        W20653  18.021   9.433   2.529
48328W        W20654  29.980  40.542   0.238
48329W        W20655  39.887  24.653  11.564
48330W        W20656  39.957  44.400  13.353
48331W        W20657  32.857  42.029  14.397
48332W        W20658  36.482   8.928  11.996
48333W        W20659  37.660  12.165  14.998
48334W        W20660  44.220   7.638   1.362
48335W        W20661  42.505  30.573  14.854
48336W        W20662  20.115  10.198  11.652
48337W        W20663  40.575  38.813  12.580
48338W        W20664  34.881  37.992   1.842
48339W        W20665  43.062   1.250  12.594
48340W        W20666  22.857  29.852   5.006
48341W        W20667  23.464   8.952   2.185
48342W        W20668  37.078  19.303  10.598
48343W        W20669  30.093  36.931  11.246
48344W        W20670   9.141  43.116  13.003
48345W        W20671  41.423   9.349  13.294
48346W        W20672  38.060  42.886  12.837
48347W        W20673  14.892   4.766   3.640
48348W        W20674  23.242  11.745   3.580
48349W        W20675  41.770   4.961   2.764
48350W        W20676  10.873  16.301  12.502
48351W        W20677  26.881  13.758  13.500
48352W        W20678  22.654  38.983   2.586
48353W        W20679   1.638  33.583   1.678
48354W        W20680   0.224  29.555  13.632
48355W        W20681  10.473  39.918   0.044
48356W        W20682  27.921  34.457  13.372
48357W        W20683  30.627  10.688   0.273
48358W        W20684  31.162  38.089  12.640
48359W        W20685  37.379  39.079   4.170
48360W        W20686  39.077   5.852   2.150
48361W        W20687  11.711   0.378   4.603
48362W        W20688  11.744   2.128  11.059
48363W        W20689  14.762   1.546   2.427
48364W        W20690  22.318  14.102   3.686
48365W        W20691  34.524  35.263   0.149
48366W        W20692   1.551  21.448   2.171
48367W        W20693  16.633  40.535   0.451
48368W        W20694  39.011  31.936  14.542
48369W        W20695  17.258  13.008  10.932
48370W        W20696  44.844  13.947   0.796
48371W        W20697  21.198  42.481  10.832
48372W        W20698  20.013  16.822   3.648
48373W        W20699  36.450  18.989   0.237
48374W        W20700  17.012  27.706   2.376
48375W        W20701  30.692  37.875   0.815
48376W        W20702  31.293  19.048  11.130
48377W        W20703  24.154  24.181  11.582
48378W        W20704   7.845   4.242   3.168
48379W        W20705  12.667  11.815   1.208
48380W        W20706   1.374  25.213   3.205
48381W        W20707  28.490  38.347   0.926
48382W        W20708  34.295  33.023   3.827
48383W        W20709  29.059  12.090  12.657
48384W        W20710   0.983  13.209   4.074
48385W        W20711  19.228  21.865   0.782
48386W        W20712  30.664  43.326   1.757
48387W        W20713   3.123   8.333  10.783
48388W        W20714  30.594   6.661   3.817
48389W        W20715  43.547  35.377  11.229
48390W        W20716  30.153  27.157   0.054
48391W        W20717  12.258  27.630  11.534
48392W        W20718  12.455  44.891   1.613
48393W        W20719  40.943  17.667  13.706
48394W        W20720  17.325  13.665  10.556
48395W        W20721   4.122  25.618   4.628
48396W        W20722  35.613  40.488   4.582
48397W        W20723   3.713  37.928   2.402
48398W        W20724  13.625  23.708  13.307
48399W        W20725  36.395  23.132   0.327
48400W        W20726  31.493  31.888  10.540
48401W        W20727   8.663   2.743  11.968
48402W        W20728  41.579  30.900  13.377
48403W        W20729  19.210  18.868  13.505
48404W        W20730  22.331  34.525  14.933
48405W        W20731  22.244  24.696   2.141
48406W        W20732  30.970  26.752  12.584
48407W        W20733   7.958   0.058  14.532
48408W        W20734   9.931  26.931  14.803
48409W        W20735  28.503  28.961  13.814
48410W        W20736  35.506  16.044  10.464
48411W        W20737  35.073  20.094   3.076
48412W        W20738   9.023  41.531  13.066
48413W        W20739  41.508  13.681  12.086
48414W        W20740   0.275  41.447   1.302
48415W        W20741  24.258  32.716   0.252
48416W        W20742  19.783  27.581  12.944
48417W        W20743  42.838  33.555   4.727
48418W        W20744  44.508  10.147   4.641
48419W        W20745  10.824  32.072   4.625
48420W        W20746  31.777  38.290  13.433
48421W        W20747  12.451  27.910  11.034
48422W        W20748  41.907  33.461   1.746
48423W        W20749  35.425  22.156  14.911
48424W        W20750  44.763  27.641  11.945
48425W        W20751  22.263  20.287   4.138
48426W        W20752  18.842  39.819  11.107
48427W        W20753  16.086   2.623   0.421
48428W        W20754  31.984  19.957  10.790
48429W        W20755  20.216  38.936  10.785
48430W        W20756  43.173  38.631  11.414
48431W        W20757  29.649  17.601  13.908
48432W        W20758  44.002  15.074  12.940
48433W        W20759  43.773  33.400   2.319
48434W        W20760  27.783  13.519  11.061
48435W        W20761  13.833  32.084   4.152
48436W        W20762  27.622  15.542   1.852
48437W        W20763  17.307  17.559  12.389
48438W        W20764  33.366   2.341   1.416
48439W        W20765   7.387  37.634  14.291
48440W        W20766  10.387  16.207  13.342
48441W        W20767  22.043  25.453   1.708
48442W        W20768  44.890  36.430   3.901
48443W        W20769  38.269  22.656  11.629
48444W        W20770  32.374  25.415  14.883
48445W        W20771  16.131  20.604   3.110
48446W        W20772  39.358  16.121   4.613
48447W        W20773  23.022  27.425   2.787
48448W        W20774   9.152   2.716  14.920
48449W        W20775   0.010   1.420  13.198
48450W        W20776  38.766  23.255  11.102
48451W        W20777  10.400  43.984  13.543
48452W        W20778  28.899  41.824  14.903
48453W        W20779   8.929  28.052  11.588
48454W        W20780   8.837   0.364   2.349
48455W        W20781  12.264  41.391  11.609
48456W        W20782   7.052  21.429  13.425
48457W        W20783   4.323  27.900  11.952
48458W        W20784  15.800   3.800  12.074
48459W        W20785   0.628  39.863  11.546
48460W        W20786  37.020  13.621  10.566
48461W        W20787  37.822  23.668   2.396
48462W        W20788  22.110  38.950   0.187
48463W        W20789  22.492   3.153   1.499
48464W        W20790  38.884   4.174   4.886
48465W        W20791  27.063  11.282  11.913
48466W        W20792  26.018   3.814   3.391
48467W        W20793   8.699  11.898  14.463
48468W        W20794  30.340  20.792  11.152
48469W        W20795  29.180  11.934   3.206
48470W        W20796  33.650   1.837   0.191
48471W        W20797  35.915   0.326   1.454
48472W        W20798  40.316  15.178  11.511
48473W        W20799  41.503  35.409  10.785
48474W        W20800  33.928  44.544  11.537
48475W        W20801  32.007  33.193  13.964
48476W        W20802  33.860  20.263  13.171
48477W        W20803  43.959  34.412   3.351
48478W        W20804  28.988  15.160   3.562
48479W        W20805   9.336  32.979  13.086
48480W        W20806  24.970   0.398   1.811
48481W        W20807   6.124  13.575  14.226
48482W        W20808   4.110  30.962   2.918
48483W        W20809   6.457  19.733  13.861
48484W        W20810   1.178  43.195   3.798
48485W        W20811  30.087  13.685   4.003
48486W        W20812   3.255   6.158   3.686
48487W        W20813   5.669  33.530   2.103
48488W        W20814  11.894  42.029   4.189
48489W        W20815   1.133  21.939   1.808
48490W        W20816  40.811  43.416  12.706
48491W        W20817  39.330  35.144   1.415
48492W        W20818  13.627  11.056  11.551
48493W        W20819  15.193  37.791  13.022
48494W        W20820  23.368  28.825  12.854
48495W        W20821  14.915  12.397   3.127
48496W        W20822  10.095  44.269   1.819
48497W        W20823  12.739  34.907   4.425
48498W        W20824  28.560  33.941  14.469
48499W        W20825  25.993  10.052  14.530
48500W        W20826   5.673  28.462  12.529
48501W        W20827   1.903  13.269   2.748
48502W        W20828   5.507  11.280   5.014
48503W        W20829   3.091  10.783  12.413
48504W        W20830  23.963  24.978  14.723
48505W        W20831   6.686  16.958   9.989
48506W        W20832  11.294  13.482   0.724
48507W        W20833  42.271   9.341  10.996
48508W        W20834  23.474  43.502   0.264
48509W        W20835  28.855  37.022   0.971
48510W        W20836   5.756  17.388  11.619
48511W        W20837  23.069  31.591   1.750
48512W        W20838  44.517  36.514   2.153
48513W        W20839  41.488  32.967  13.870
48514W        W20840   4.278  33.715  13.119
48515W        W20841  11.273  34.895   0.557
48516W        W20842  15.530  17.211  12.511
48517W        W20843  32.681  18.334  11.104
48518W        W20844  41.496  42.407   2.175
48519W        W20845   4.833  32.583   3.254
48520W        W20846  27.480  17.678   0.117
48521W        W20847  43.967  11.816  11.997
48522W        W20848  24.176  42.834   1.204
48523W        W20849  11.798  10.685  12.791
48524W        W20850   4.011  38.603   3.079
48525W        W20851  12.021  40.108  12.102
48526W        W20852  22.112   8.739   3.334
48527W        W20853  12.739   6.798  12.563
48528W        W20854  44.238  33.029   1.619
48529W        W20855  28.216  30.556   2.411
48530W        W20856   8.304  16.181   4.445
48531W        W20857   8.835  16.646   3.215
48532W        W20858  40.845  27.529   4.535
48533W        W20859  43.344  16.107   1.676
48534W        W20860  11.854   9.798   2.162
48535W        W20861   7.164   3.097   3.993
48536W        W20862  32.877  13.143  11.469
48537W        W20863  21.518   9.312   0.683
48538W        W20864  11.349  20.886   5.031
48539W        W20865  13.314  30.514  10.120
48540W        W20866  13.255  12.309  10.792
48541W        W20867  38.046  23.551   0.804
48542W        W20868  27.521  28.731  11.912
48543W        W20869  11.400  37.564  14.017
48544W        W20870  32.345  28.195   3.735
48545W        W20871   9.375  35.558  12.666
48546W        W20872  27.171  37.888  12.817
48547W        W20873  25.916  14.919  12.534
48548W        W20874  30.925  19.781  10.833
48549W        W20875   3.849  27.894   2.585
48550W        W20876  39.154  19.327   4.118
48551W        W20877  33.326   1.904   1.669
48552W        W20878  38.892  27.159  14.229
48553W        W20879  12.757   9.684  10.701
48554W        W20880  29.396   7.915  14.486
48555W        W20881  21.506   4.652   4.686
48556W        W20882   1.776  25.557   3.245
48557W        W20883   1.689  25.540   1.592
48558W        W20884  17.261  21.268  10.690
48559W        W20885  23.077   8.589  12.348
48560W        W20886  14.844  14.996   4.378
48561W        W20887   9.840  27.923  11.140
48562W        W20888  14.318  13.855  14.608
48563W        W20889   0.983  32.168   1.337
48564W        W20890  14.635   8.745   4.493
48565W        W20891  34.421  23.550   2.262
48566W        W20892   9.697  13.933  13.961
48567W        W20893  36.154  37.987  12.062
48568W        W20894  25.036  26.718  13.467
48569W        W20895  17.053   3.458  12.495
48570W        W20896  34.041   1.600  11.142
48571W        W20897   2.485  34.383  11.554
48572W        W20898  25.057  37.398  11.960
48573W        W20899  44.234  44.565  14.316
48574W        W20900  40.640  36.466   2.433
48575W        W20901  10.217   5.176   3.697
48576W        W20902  21.480   4.627  13.106
48577W        W20903   2.419  22.221   3.209
48578W        W20904  31.982  24.741   4.682
48579W        W20905   7.720  33.960   4.075
48580W        W20906   7.905  43.836  11.375
48581W        W20907   6.835  44.452  11.050
48582W        W20908  30.873  21.295  13.419
48583W        W20909  22.310  34.174   4.348
48584W        W20910  33.361  23.747   2.258
48585W        W20911  15.338   0.005   4.589
48586W        W20912  41.937  10.875  13.312
48587W        W20913  13.714   7.159  10.560
48588W        W20914  38.014   9.486  10.704
48589W        W20915  10.213  17.761  14.058
48590W        W20916  28.832  40.100   3.342
48591W        W20917   0.014  10.480   4.090
48592W        W20918   6.927  37.018  11.602
48593W        W20919  22.482  25.207   4.090
48594W        W20920  35.358  10.319  11.650
48595W        W20921  26.415  44.232   0.389
48596W        W20922  15.528  40.884  11.139
48597W        W20923   5.040   4.465   1.761
48598W        W20924  29.910   3.624   0.342
48599W        W20925  33.195  30.405  14.894
48600W        W20926  17.657  28.675  11.043
48601W        W20927  44.419  29.978  13.583
48602W        W20928  14.717  16.253  11.476
48603W        W20929  22.461   9.710   1.819
48604W        W20930  39.341   7.351  12.315
48605W        W20931  43.568  38.808  13.824
48606W        W20932  38.376  42.776  10.447
48607W        W20933   2.938  29.067  10.734
48608W        W20934   4.200  22.633  13.378
48609W        W20935  17.794  31.708   0.895
48610W        W20936   9.312  41.292  12.225
48611W        W20937  38.327   1.064  11.959
48612W        W20938  18.427  26.041  12.001
48613W        W20939  40.889  40.828   4.996
48614W        W20940  21.895  37.150   4.032
48615W        W20941  14.200   5.507   3.394
48616W        W20942   9.836  17.795   2.932
48617W        W20943  26.481   9.099  13.062
48618W        W20944  10.422  27.554   4.200
48619W        W20945  23.600  42.286   1.742
48620W        W20946   4.923  30.519  10.905
48621W        W20947   9.477  30.367   2.295
48622W        W20948  34.799   4.903   3.673
48623W        W20949  14.224  31.201  12.013
48624W        W20950  18.682  35.895  11.985
48625W        W20951  40.805  37.950  12.597
48626W        W20952   9.297  34.095  12.186
48627W        W20953  44.703  11.805   0.878
48628W        W20954   3.395   9.331  14.676
48629W        W20955   4.497  23.270   0.812
48630W        W20956  43.869  17.649   0.279
48631W        W20957  28.706  15.066  14.925
48632W        W20958   6.093  30.455  13.968
48633W        W20959   8.753  17.320  14.479
48634W        W20960  28.241  19.847   5.022
48635W        W20961   3.013   9.339   3.432
48636W        W20962  18.121   5.177  14.533
48637W        W20963  27.908  16.327   3.609
48638W        W20964  11.303  12.311  10.749
48639W        W20965  10.214  37.123   4.154
48640W        W20966  21.896   1.146  10.402
48641W        W20967  28.656  32.831   2.413
48642W        W20968  43.799  28.679  14.464
48643W        W20969  17.837   0.326   2.478
48644W        W20970  23.420   3.242  10.775
48645W        W20971  15.327  36.422   9.904
48646W        W20972   4.374   4.864  10.011
48647W        W20973  40.420  28.001  10.705
48648W        W20974   9.629  35.333  13.817
48649W        W20975  10.809  29.215  10.864
48650W        W20976  25.943  34.046   3.395
48651W        W20977  37.077  11.901   2.379
48652W        W20978  17.103   5.750   0.833
48653W        W20979  40.884  14.107   0.766
48654W        W20980  15.118  28.876   0.680
48655W        W20981  14.321  35.936   2.792
48656W        W20982  27.023  16.069  10.953
48657W        W20983   6.210  20.472  10.992
48658W        W20984  20.509  26.441   0.977
48659W        W20985  27.121   1.808   0.729
48660W        W20986   9.541  11.803   1.738
48661W        W20987  24.692   9.261  14.090
48662W        W20988  36.005  34.887  12.360
48663W        W20989  39.290  20.665   4.605
48664W        W20990  44.803   1.018   2.726
48665W        W20991  42.335  44.937   0.090
48666W        W20992  10.756  14.325   4.203
48667W        W20993   1.252  15.258  11.318
48668W        W20994  44.263   1.890   3.729
48669W        W20995  10.867   1.547   0.846
48670W        W20996  28.548  11.264   4.559
48671W        W20997  16.750  15.312   0.885
48672W        W20998  35.664  38.869  12.264
48673W        W20999  39.593  42.760   3.673
48674W        W21000  27.223  30.729  12.957
48675W        W21001   6.937  20.160   1.189
48676W        W21002  29.166  39.890  12.451
48677W        W21003  22.049  40.687  14.493
48678W        W21004  14.089   6.838  12.945
48679W        W21005  39.873  24.054   3.221
48680W        W21006   0.893  42.859   2.764
48681W        W21007   2.679  11.769  10.218
48682W        W21008  21.085   5.451  12.652
48683W        W21009   9.062  41.267   2.815
48684W        W21010   6.794  20.782  11.557
48685W        W21011  16.669  15.622  11.973
48686W        W21012  37.322   3.238   2.381
48687W        W21013   4.110  36.223  12.386
48688W        W21014  44.179  21.233   5.039
48689W        W21015   1.804   2.779  14.536
48690W        W21016  36.016  33.567   1.858
48691W        W21017   4.430  23.202  14.983
48692W        W21018  17.846  26.465  13.326
48693W        W21019   5.486   6.324  12.572
48694W        W21020  41.420  34.053   2.763
48695W        W21021  36.172  21.629  14.893
48696W        W21022  39.996  17.847   0.280
48697W        W21023  34.917   8.822   1.665
48698W        W21024  22.641  43.731   3.793
48699W        W21025  24.860  13.863   0.831
48700W        W21026  26.479   6.307  12.378
48701W        W21027  32.462  23.101   2.950
48702W        W21028  17.068   9.781   3.335
48703W        W21029  38.937  32.660  10.834
48704W        W21030  26.917  11.787  10.597
48705W        W21031  28.137  24.529  11.323
48706W        W21032   1.828  11.481   9.868
48707W        W21033  21.148  43.554  10.637
48708W        W21034   1.179  34.925  11.543
48709W        W21035  24.041  20.066  11.112
48710W        W21036  24.036  23.083   2.093
48711W        W21037  26.806  27.738  14.247
48712W        W21038  10.499  27.366  10.001
48713W        W21039   9.316  35.990  12.994
48714W        W21040   1.787   3.839   0.932
48715W        W21041  42.367   2.670  11.248
48716W        W21042  28.185  26.042   3.351
48717W        W21043   9.888  31.618  10.694
48718W        W21044   6.592  20.211   2.140
48719W        W21045  13.748  27.096  14.838
48720W        W21046  33.028  19.975  12.455
48721W        W21047  33.123  21.051   3.794
48722W        W21048  37.608  18.038  14.846
48723W        W21049  14.096   7.886  10.538
48724W        W21050  41.704  22.355  15.000
48725W        W21051  40.780   5.270   4.649
48726W        W21052  34.125  39.442   0.402
48727W        W21053   9.565  16.765  13.552
48728W        W21054  26.679  38.321   1.748
48729W        W21055  26.476  41.449   0.734
48730W        W21056  31.688  18.113  11.094
48731W        W21057  13.979   9.099   1.944
48732W        W21058   6.658  23.910   4.832
48733W        W21059  20.592  13.825  14.758
48734W        W21060   7.194  31.087  13.854
48735W        W21061  10.141  36.517   5.021
48736W        W21062   0.761  15.212  12.683
48737W        W21063  10.347  24.176   3.138
48738W        W21064  21.718  32.470  11.224
48739W        W21065   4.346  37.354  11.123
48740W        W21066   6.801   4.187  14.718
48741W        W21067  14.372  32.414  13.974
48742W        W21068  12.910   8.309  11.391
48743W        W21069  17.317  23.176   2.277
48744W        W21070  20.143  26.646  10.832
48745W        W21071  27.676  43.265   2.241
48746W        W21072   5.610   8.313  12.140
48747W        W21073  23.392  11.482  14.079
48748W        W21074  39.915  13.587  13.317
48749W        W21075  38.375   4.846  12.017
48750W        W21076  31.067   3.346   0.724
48751W        W21077   0.981  29.453   1.058
48752W        W21078   3.739  21.269  12.406
48753W        W21079  14.314   7.281  11.709
48754W        W21080  42.951  39.567  11.100
48755W        W21081   5.332  25.517  11.519
48756W        W21082  25.201   1.796   3.326
48757W        W21083  34.868  32.533  13.553
48758W        W21084  19.238  24.199   4.148
48759W        W21085  11.456  24.961   1.845
48760W        W21086  34.709  17.096   1.865
48761W        W21087   4.188   9.626  10.203
48762W        W21088  38.834  42.265  14.909
48763W        W21089  31.037  25.445   1.208
48764W        W21090  40.131  19.167  11.650
48765W        W21091  33.007  35.401   9.589
48766W        W21092   4.545  41.405   1.965
48767W        W21093  41.844  39.613   4.042
48768W        W21094   0.919  16.353  12.917
48769W        W21095   5.929  20.028  11.624
48770W        W21096   7.714   2.254  14.838
48771W        W21097  28.856  31.608  12.806
48772W        W21098  37.886  38.953   2.210
48773W        W21099  44.090  32.871   0.309
48774W        W21100   5.644   7.151   3.210
48775W        W21101  13.330  11.784  12.682
48776W        W21102   3.002  26.470  14.389
48777W        W21103  23.014  38.894   3.528
48778W        W21104   0.342  34.420  11.528
48779W        W21105  10.853  43.368   3.732
48780W        W21106   5.813   3.669  12.058
48781W        W21107  17.833  16.761   0.593
48782W        W21108   2.782   4.165   9.777
48783W        W21109  42.907  14.686   0.774
48784W        W21110  33.433  35.930  14.988
48785W        W21111   5.335  44.707   1.927
48786W        W21112  40.833  20.103   3.686
48787W        W21113   0.314   6.091   1.771
48788W        W21114  38.402   2.817   4.268
48789W        W21115  41.743   9.748   1.460
48790W        W21116  42.883  25.152   4.848
48791W        W21117  34.832  19.559   1.776
48792W        W21118  38.413  15.400  14.546
48793W        W21119   6.934   8.744   3.705
48794W        W21120  34.833   8.348   1.899
48795W        W21121  41.661  22.302  10.267
48796W        W21122  10.245  21.582  11.959
48797W        W21123   4.705  25.183  12.599
48798W        W21124  16.641  39.798   3.811
48799W        W21125  14.675  35.429   1.498
48800W        W21126  18.143   6.315  11.211
48801W        W21127  35.168  36.459   1.370
48802W        W21128  34.062  28.947  14.745
48803W        W21129   4.798   9.229   4.511
48804W        W21130  37.760   8.178  11.019
48805W        W21131   6.931  41.677   0.288
48806W        W21132   4.729  40.404   2.252
48807W        W21133  38.394   7.969   0.822
48808W        W21134  26.743  35.770   2.096
48809W        W21135  32.863  37.078  14.445
48810W        W21136  44.089   7.743   2.224
48811W        W21137  39.872  27.409  13.497
48812W        W21138  25.545  12.229   4.653
48813W        W21139  24.990  33.064   1.325
48814W        W21140  30.118  40.921   4.689
48815W        W21141  42.774  15.503   0.400
48816W        W21142  23.592  18.023  11.559
48817W        W21143   8.416  27.187  14.764
48818W        W21144  28.183  22.045   0.669
48819W        W21145  24.230  32.099  14.440
48820W        W21146  11.268  11.932   0.038
48821W        W21147  40.233  22.750  13.592
48822W        W21148   0.950  38.977   2.325
48823W        W21149  26.594   6.759  11.605
48824W        W21150   7.884   3.803   1.780
48825W        W21151  28.183  18.510   4.129
48826W        W21152  27.033  34.825   3.174
48827W        W21153  23.567  30.224  13.381
48828W        W21154  38.059  32.714  10.988
48829W        W21155  40.079  12.673  13.841
48830W        W21156  12.759  22.492  13.846
48831W        W21157  43.814  16.149  14.935
48832W        W21158  17.515   4.365  11.162
48833W        W21159  22.758  12.716  12.536
48834W        W21160  19.722  35.501   3.128
48835W        W21161  39.931  27.354   4.083
48836W        W21162   5.031  17.089   4.406
48837W        W21163  38.857   0.488   1.043
48838W        W21164  44.152   2.292   4.635
48839W        W21165  28.975  41.844  13.586
48840W        W21166  37.276  15.609  13.965
48841W        W21167  36.468  12.677   2.401
48842W        W21168   3.377  26.417  11.438
48843W        W21169  25.648  18.741  14.535
48844W        W21170  21.902   7.104  11.990
48845W        W21171  16.945  42.769  12.035
48846W        W21172   6.833  36.650  13.932
48847W        W21173  11.200  32.029  12.465
48848W        W21174   2.721  36.459  12.795
48849W        W21175  22.471   8.958   2.294
48850W        W21176  43.975  21.631   3.257
48851W        W21177  27.643   0.974   1.003
48852W        W21178   7.538  12.373  12.008
48853W        W21179  31.116   6.186   1.175
48854W        W21180  20.739   0.778   2.198
48855W        W21181  22.755  11.768   5.227
48856W        W21182  17.173  40.768  13.317
48857W        W21183  29.121   2.730   2.914
48858W        W21184  38.420  10.670  10.066
48859W        W21185   1.445   6.178  13.844
48860W        W21186   7.847  19.641  11.035
48861W        W21187  28.500  28.351   5.031
48862W        W21188   4.329  23.112   4.395
48863W        W21189  14.853   5.030   9.975
48864W        W21190   7.168  30.559   4.010
48865W        W21191   5.781   6.044  12.240
48866W        W21192  37.013  29.765  12.448
48867W        W21193  10.768  29.401  14.005
48868W        W21194  23.996  25.166   4.111
48869W        W21195   3.687   9.783   3.259
48870W        W21196  33.480  14.576   3.645
48871W        W21197  27.295  14.230  10.663
48872W        W21198   9.329  14.580   4.194
48873W        W21199  42.229   5.094   3.651
48874W        W21200  40.807  43.340   4.184
48875W        W21201  25.955   3.494  10.372
48876W        W21202   8.273  30.449  12.997
48877W        W21203  12.562  11.323   3.269
48878W        W21204  44.268  11.872   4.587
48879W        W21205   8.365  21.897  13.912
48880W        W21206   8.083  25.150   4.239
48881W        W21207  36.647  32.088   0.897
48882W        W21208  32.830  14.667   4.326
48883W        W21209   7.317  40.366  14.859
48884W        W21210  35.679   1.938   4.387
48885W        W21211  34.121   8.208  11.717
48886W        W21212  35.811  43.443  11.907
48887W        W21213  10.060  17.770   1.942
48888W        W21214  24.252   7.654  10.191
48889W        W21215   3.675  29.189   2.742
48890W        W21216  20.749   0.174  12.959
48891W        W21217  42.859  24.529   0.942
48892W        W21218  14.967  28.731   2.676
48893W        W21219   9.632  12.338   4.183
48894W        W21220   1.324  14.145   1.214
48895W        W21221  24.113  35.980  11.541
48896W        W21222  29.455  11.149   4.646
48897W        W21223  25.810  37.167   4.057
48898W        W21224  12.616  24.092  14.494
48899W        W21225  21.576  12.734   3.229
48900W        W21226   7.782   6.930   1.274
48901W        W21227  12.814  20.872  13.993
48902W        W21228  20.058  20.854  13.921
48903W        W21229  11.685   2.951  12.408
48904W        W21230   5.502  25.005  14.515
48905W        W21231  34.492  40.488   4.002
48906W        W21232  35.505   1.952   0.735
48907W        W21233  37.895  12.579   3.601
48908W        W21234  18.011  30.983   0.178
48909W        W21235  19.990  38.730   1.014
48910W        W21236  15.356   0.507   1.250
48911W        W21237  22.106  40.959   4.988
48912W        W21238  25.688  15.078   2.793
48913W        W21239  13.654   0.347  10.847
48914W        W21240  22.425   4.716   2.530
48915W        W21241  33.442  10.813   1.149
48916W        W21242   1.277  26.609  14.837
48917W        W21243  28.971  14.598   0.901
48918W        W21244   1.490  29.399  10.672
48919W        W21245   0.252  38.197  13.566
48920W        W21246  13.880  37.974  13.942
48921W        W21247  17.641  13.177   2.886
48922W        W21248  19.056  23.787   3.330
48923W        W21249  17.115  35.398   3.258
48924W        W21250  41.979  42.343  14.533
48925W        W21251   9.520   9.448  11.492
48926W        W21252  40.731  41.421   1.275
48927W        W21253  12.751  34.599  14.216
48928W        W21254  15.586  29.902  11.624
48929W        W21255   5.893  16.790  13.905
48930W        W21256   5.468   4.286  11.428
48931W        W21257  29.829  28.486  12.395
48932W        W21258  21.751   4.842  11.544
48933W        W21259   4.506  28.703  14.873
48934W        W21260  29.213  43.931  11.346
48935W        W21261  38.003  44.183  10.991
48936W        W21262   0.198  22.204   0.656
48937W        W21263  12.962   8.424  14.511
48938W        W21264  20.919  38.446   0.830
48939W        W21265  39.365   5.792   4.873
48940W        W21266  20.509  22.505   0.977
48941W        W21267  29.933  11.255   2.373
48942W        W21268   9.184  15.063  14.493
48943W        W21269  18.173   4.361   1.230
48944W        W21270  26.619  27.562  10.710
48945W        W21271  26.613   8.582  14.866
48946W        W21272  36.861  40.810   3.594
48947W        W21273   4.501  29.035  14.465
48948W        W21274  42.938  37.707   9.798
48949W        W21275  33.527  40.274  12.393
48950W        W21276  19.774  31.727   4.540
48951W        W21277  30.277  12.895  11.501
48952W        W21278  13.115   3.217   1.300
48953W        W21279  23.178  28.511   0.314
48954W        W21280  17.678  20.055  12.016
48955W        W21281  33.457   5.821   3.620
48956W        W21282   0.165  22.085  13.457
48957W        W21283  27.087   2.748  10.387
48958W        W21284  25.049   8.636   3.237
48959W        W21285  22.057  39.292  12.550
48960W        W21286  36.094   8.925  10.810
48961W        W21287  10.896   1.793   1.296
48962W        W21288  13.875   3.795   3.748
48963W        W21289  10.851   2.463  14.387
48964W        W21290   6.390  24.809  10.377
48965W        W21291   6.006  14.600   2.622
48966W        W21292   4.696  36.059   5.037
48967W        W21293   5.693   9.880   1.394
48968W        W21294  10.263  41.557  14.413
48969W        W21295  11.747   7.210   0.319
48970W        W21296  19.353   8.986  14.909
48971W        W21297  14.628  36.879  13.425
48972W        W21298  44.359   2.309  10.634
48973W        W21299  36.225  32.382  10.620
48974W        W21300   1.737  10.772  12.970
48975W        W21301  17.824  17.258   0.446
48976W        W21302  39.674  27.150   2.821
48977W        W21303  22.691  24.695   3.698
48978W        W21304  33.952  40.412  13.501
48979W        W21305  28.593  36.011  12.133
48980W        W21306   0.218   8.781  14.556
48981W        W21307  10.441  24.812   5.028
48982W        W21308  27.105   9.748   1.988
48983W        W21309  28.172  22.447   2.404
48984W        W21310   4.779  26.560  11.219
48985W        W21311  36.589   4.792  12.504
48986W        W21312  18.828   2.363   0.607
48987W        W21313   7.979   0.574  14.847
48988W        W21314  44.236  30.053  12.566
48989W        W21315   1.835  17.018  14.479
48990W        W21316  17.086  15.076  13.535
48991W        W21317   1.111  38.443  14.558
48992W        W21318  28.068  12.563  11.310
48993W        W21319  35.871   4.262   2.620
48994W        W21320   7.889  31.976  10.704
48995W        W21321  23.680  29.917   2.088
48996W        W21322  25.966   2.406   3.371
48997W        W21323   1.759  31.205  13.280
48998W        W21324  40.319   2.222  14.847
48999W        W21325   1.349  23.279  11.040
49000W        W21326  34.992   0.960   2.149
49001W        W21327  40.331  26.014  12.700
49002W        W21328  25.615  14.272  11.947
49003W        W21329   6.302   8.465  14.832
49004W        W21330  23.780  44.045   4.698
49005W        W21331  26.653  43.888   2.315
49006W        W21332  13.598  33.028   0.809
49007W        W21333  35.623  13.674   0.444
49008W        W21334  28.117  15.017   0.871
49009W        W21335  14.851  16.613   4.960
49010W        W21336   0.960  35.592  10.475
49011W        W21337  20.269  32.145  11.203
49012W        W21338  10.174  20.071  13.227
49013W        W21339  19.892   5.282  10.517
49014W        W21340  25.273  13.149  12.495
49015W        W21341  27.969  35.465  12.569
49016W        W21342  44.125  43.311  12.880
49017W        W21343  26.537  39.304   0.522
49018W        W21344  13.498  14.804   2.736
49019W        W21345  40.922  16.697   0.833
49020W        W21346  18.306  13.375  14.833
49021W        W21347  11.523  41.653   4.242
49022W        W21348  22.624   3.427   2.836
49023W        W21349   1.817  15.950   3.361
49024W        W21350  37.764   0.320   1.344
49025W        W21351  26.541   4.909  13.053
49026W        W21352  38.856  14.627  13.295
49027W        W21353  30.198  29.239  11.752
49028W        W21354  26.410  10.074  11.902
49029W        W21355  17.595  33.323   2.074
49030W        W21356  28.433   4.838  13.498
49031W        W21357  30.423  26.124  11.309
49032W        W21358  31.043   1.551   0.368
49033W        W21359  20.029  36.873   3.254
49034W        W21360  43.060  29.465  10.786
49035W        W21361  14.403  21.044  11.373
49036W        W21362  12.076  40.158   1.395
49037W        W21363   8.856  36.586   1.141
49038W        W21364   4.775  44.503  11.998
49039W        W21365  12.667  29.194  12.892
49040W        W21366  35.307   7.804  12.921
49041W        W21367  11.382  28.336  12.055
49042W        W21368  24.981   6.111   1.350
49043W        W21369   5.362  43.238  11.844
49044W        W21370  22.671  19.115   2.364
49045W        W21371  21.641   5.210  14.590
49046W        W21372   8.467  43.424  14.884
49047W        W21373  15.725  23.243  12.993
49048W        W21374   8.675  14.026   3.175
49049W        W21375   6.181  11.225   1.398
49050W        W21376  12.751  32.690  14.860
49051W        W21377  35.940  42.832  12.124
49052W        W21378  34.009   0.965   3.213
49053W        W21379  15.775  33.561   0.843
49054W        W21380  31.145  21.013   1.064
49055W        W21381   1.731  23.516   0.833
49056W        W21382  29.195  44.393  13.971
49057W        W21383  22.478   0.957  11.222
49058W        W21384  17.228  34.805  12.597
49059W        W21385  26.457  12.225  14.984
49060W        W21386  33.488   7.455  10.647
49061W        W21387   2.650  36.439   0.249
49062W        W21388  40.286  40.575   0.514
49063W        W21389  18.295  25.974  12.545
49064W        W21390   2.015  17.762  13.981
49065W        W21391   2.179   3.447   2.141
49066W        W21392  43.422   7.199   2.801
49067W        W21393  18.173  29.178  10.729
49068W        W21394  22.844  18.338  11.907
49069W        W21395  40.851   8.422   3.296
49070W        W21396  24.667  25.384   2.901
49071W        W21397  12.767  20.802   3.300
49072W        W21398  28.041  17.230  12.419
49073W        W21399  17.541  28.688   3.909
49074W        W21400  11.802  44.018   3.748
49075W        W21401  29.421   4.428  12.058
49076W        W21402   2.643  32.564  10.719
49077W        W21403  42.645  43.941  13.790
49078W        W21404  42.519  11.214   3.144
49079W        W21405   0.829   5.284   2.851
49080W        W21406  16.207  38.817  10.004
49081W        W21407  24.228  40.942  11.658
49082W        W21408  16.557   0.953  13.583
49083W        W21409  38.784  33.393   1.712
49084W        W21410   9.299   8.162   4.862
49085W        W21411  39.513   8.841   1.647
49086W        W21412  30.937  17.849  14.012
49087W        W21413  18.179   7.132   0.901
49088W        W21414  29.050  15.645  14.931
49089W        W21415   7.361  25.204  11.582
49090W        W21416  13.201  39.570  11.641
49091W        W21417  14.016  22.161   3.316
49092W        W21418  19.154  38.537  11.840
49093W        W21419  25.983  10.247   4.205
49094W        W21420  40.208  20.056   2.833
49095W        W21421  15.293  20.152   3.071
49096W        W21422  44.166  32.617  12.518
49097W        W21423  19.274  19.558  10.698
49098W        W21424  22.124  26.411  13.976
49099W        W21425  44.104  42.385  11.985
49100W        W21426  19.219  10.183  12.675
49101W        W21427  32.695  14.666   2.270
49102W        W21428  39.944  37.382   2.496
49103W        W21429  20.501  41.529  12.763
49104W        W21430  24.291  28.223  12.063
49105W        W21431  43.923  34.486  10.932
49106W        W21432  38.310  30.349  12.016
49107W        W21433  37.533  16.774   4.980
49108W        W21434  26.777  22.142   5.081
49109W        W21435   2.972   1.751   1.667
49110W        W21436   0.224  44.077  12.884
49111W        W21437  36.845  21.399   3.234
49112W        W21438   8.570  20.781  11.229
49113W        W21439  20.053  27.594   3.875
49114W        W21440  18.123  17.166  11.122
49115W        W21441   9.165   2.067  12.898
49116W        W21442  41.638  25.417  14.873
49117W        W21443  44.808   5.261   0.224
49118W        W21444   2.540   8.795  12.195
49119W        W21445  23.483  13.238   2.706
49120W        W21446  10.414  35.314  11.533
49121W        W21447  36.553  12.700  10.717
49122W        W21448  25.919  27.115   1.302
49123W        W21449  16.190  31.512   4.923
49124W        W21450  37.953  21.793   4.200
49125W        W21451   1.138  16.965  10.613
49126W        W21452  36.098  25.421   4.552
49127W        W21453  20.981  20.982  14.240
49128W        W21454  19.265   2.879  11.536
49129W        W21455  37.298  11.058   1.940
49130W        W21456  43.868   7.880   3.560
49131W        W21457  42.395  11.426  12.381
49132W        W21458  20.948  30.955   2.761
49133W        W21459  16.845  15.572  10.084
49134W        W21460  24.072   6.390   4.100
49135W        W21461  23.592  24.104  13.271
49136W        W21462  16.954  26.372  10.933
49137W        W21463   0.834   0.133   0.468
49138W        W21464  32.496  43.600  14.066
49139W        W21465  21.478  41.520   3.162
49140W        W21466   8.192   3.622   2.877
49141W        W21467   3.321  13.513   3.311
49142W        W21468  18.824  33.040   0.035
49143W        W21469  17.294   2.999   0.755
49144W        W21470  13.741  40.966   3.767
49145W        W21471   9.173  37.526   1.685
49146W        W21472  29.700  37.502  14.086
49147W        W21473  43.541  27.189   4.825
49148W        W21474  22.040  28.948   0.204
49149W        W21475  15.615  29.451  11.151
49150W        W21476  19.528  11.610   4.106
49151W        W21477  36.925  28.525   4.704
49152W        W21478  10.853  32.030  14.309
49153W        W21479  34.070  14.744  14.565
49154W        W21480  28.376  14.126   1.317
49155W        W21481  27.975  17.698  11.570
49156W        W21482  18.807  33.080  13.070
49157W        W21483  20.829  25.575  13.603
49158W        W21484  38.992  33.427  12.002
49159W        W21485  20.195  20.807   4.519
49160W        W21486   0.479   9.938  12.067
49161W        W21487  23.672  44.932   2.947
49162W        W21488  24.619   2.004   1.648
49163W        W21489  30.424  22.725   1.753
49164W        W21490  15.656  28.488   1.336
49165W        W21491   8.142  22.372  13.937
49166W        W21492  22.138   9.224   1.472
49167W        W21493  35.927  18.240   4.542
49168W        W21494  17.190  11.410   4.349
49169W        W21495  12.850  13.591  14.413
49170W        W21496  16.156  29.945  14.978
49171W        W21497  20.510  12.113  13.025
49172W        W21498   4.605  32.928   1.407
49173W        W21499   8.827  29.118  14.363
49174W        W21500   5.260  16.600   4.500
49175W        W21501  15.556  19.351   1.404
49176W        W21502  23.584  20.811   3.281
49177W        W21503   9.254   3.704  14.972
49178W        W21504  11.360  18.327   4.230
49179W        W21505   7.126  19.263  11.984
49180W        W21506   8.207   1.035  14.837
49181W        W21507  25.909  30.552  13.339
49182W        W21508  39.618  12.586   2.360
49183W        W21509  24.032  34.017  14.740
49184W        W21510   7.438  41.137  11.603
49185W        W21511  33.164  34.603   5.106
49186W        W21512   3.297  24.259   3.247
49187W        W21513  26.158  26.755  10.164
49188W        W21514  35.533  32.147  10.283
49189W        W21515   1.524  35.327  14.789
49190W        W21516  17.135  37.172  10.884
49191W        W21517   1.296  32.003   4.484
49192W        W21518  23.477   1.271  12.422
49193W        W21519  40.884  33.477   3.852
49194W        W21520  39.370  23.476  13.550
49195W        W21521  13.594  42.402  11.069
49196W        W21522  40.258  21.967  13.697
49197W        W21523  17.691   3.711   4.559
49198W        W21524  18.222  43.040  11.240
49199W        W21525   9.428   5.792  10.585
49200W        W21526  16.393   9.438   1.632
49201W        W21527  41.053  21.833  13.748
49202W        W21528  16.595  31.899  14.268
49203W        W21529   0.812  31.323   0.939
49204W        W21530  34.064   9.962  13.406
49205W        W21531  18.829   7.861  13.846
49206W        W21532  15.713   6.718  12.694
49207W        W21533   6.910   7.393  13.968
49208W        W21534  18.849  29.098   0.334
49209W        W21535   8.402  43.031   1.371
49210W        W21536  37.436  25.647  11.025
49211W        W21537  17.027  30.253   5.015
49212W        W21538  17.553  18.128  12.486
49213W        W21539  38.259  20.693   2.663
49214W        W21540   6.655  39.736  13.947
49215W        W21541  25.216  20.984  14.576
49216W        W21542   5.709  26.987   4.469
49217W        W21543  14.114  41.323  11.197
49218W        W21544  25.002  44.896   3.498
49219W        W21545  42.706   8.690   2.649
49220W        W21546  40.795   6.471   0.875
49221W        W21547  33.856  21.042   0.913
49222W        W21548   8.173  34.451  14.555
49223W        W21549  25.850   1.681  11.651
49224W        W21550   5.422  36.867  11.717
49225W        W21551  39.585  15.669   0.333
49226W        W21552  42.223  44.964  14.066
49227W        W21553  39.125  24.119   3.679
49228W        W21554   3.338  41.246  10.380
49229W        W21555  11.516   4.625   2.158
49230W        W21556  33.509   2.351   5.233
49231W        W21557   0.334   8.231  11.626
49232W        W21558  16.609  34.593   0.960
49233W        W21559  26.936  44.302   0.294
49234W        W21560  18.345  10.300   3.093
49235W        W21561   3.926  44.238   2.563
49236W        W21562  26.608   1.533   3.180
49237W        W21563   5.307  22.850  12.335
49238W        W21564  10.131  44.355  11.543
49239W        W21565   5.863   5.929  11.295
49240W        W21566  27.740  12.052   3.910
49241W        W21567  22.846  16.449  14.398
49242W        W21568   9.613  20.935   1.835
49243W        W21569  24.208  32.463  14.812
49244W        W21570  17.266  36.866   4.224
49245W        W21571  36.305  11.178   0.264
49246W        W21572  23.741  12.075  14.868
49247W        W21573  27.854  36.130   1.446
49248W        W21574  37.993  10.734  11.181
49249W        W21575  14.690  27.953  14.216
49250W        W21576  29.510   3.500   2.734
49251W        W21577  33.619  28.982   0.535
49252W        W21578   7.352   6.441   0.064
49253W        W21579  37.303  11.297  10.614
49254W        W21580  20.618  36.317  12.531
49255W        W21581   8.725  36.944  11.538
49256W        W21582   8.963  12.420   3.715
49257W        W21583  43.947  26.250   2.747
49258W        W21584  38.598  39.914   0.686
49259W        W21585   2.246   3.681  14.461
49260W        W21586  16.769  41.960   2.733
49261W        W21587  21.636  41.736   2.699
49262W        W21588  15.369  15.091   2.702
49263W        W21589  30.396  23.037   0.908
49264W        W21590  34.446   2.879   2.374
49265W        W21591   1.759   6.719  12.721
49266W        W21592   2.252  24.179   4.751
49267W        W21593  24.483  25.628   3.319
49268W        W21594  34.514  26.631   0.983
49269W        W21595  22.211  41.911  10.578
49270W        W21596  35.058   6.847  12.953
49271W        W21597   6.918   2.297  14.484
49272W        W21598  15.555   6.822  14.800
49273W        W21599  38.090  24.427   1.177
49274W        W21600  32.641  39.051   3.345
49275W        W21601  13.301  36.915   9.923
49276W        W21602  18.294   5.960   3.743
49277W        W21603  32.377  28.561   3.353
49278W        W21604  38.888  41.821   0.812
49279W        W21605   0.470  21.553   0.364
49280W        W21606   5.334  25.463  14.323
49281W        W21607  28.477  15.877  13.486
49282W        W21608  25.404  37.916   2.329
49283W        W21609  20.810  17.748  10.581
49284W        W21610  38.133   2.771  12.771
49285W        W21611  27.323   5.811   0.786
49286W        W21612  12.686  22.900   0.689
49287W        W21613   1.710  11.531   3.424
49288W        W21614  15.100  18.208  11.620
49289W        W21615  41.339  18.494  13.991
49290W        W21616  32.861  43.309  12.598
49291W        W21617   1.207  24.031  12.942
49292W        W21618  26.127  21.853  12.538
49293W        W21619   5.687  30.472   2.615
49294W        W21620  40.038   3.870  13.861
49295W        W21621  24.892   6.910   1.821
49296W        W21622  37.636  15.292   0.972
49297W        W21623   4.814  10.934   1.249
49298W        W21624  26.230  35.027  12.340
49299W        W21625  23.460  32.685  11.398
49300W        W21626  33.971  18.201  11.134
49301W        W21627   2.293   6.825   2.248
49302W        W21628  12.669  23.406   0.859
49303W        W21629   7.946  38.797   3.694
49304W        W21630  19.779   5.704   3.851
49305W        W21631  28.267  17.520  12.911
49306W        W21632   7.148  38.513   3.717
49307W        W21633   3.474  28.763  14.082
49308W        W21634  36.469  38.981  13.924
49309W        W21635   8.769  14.326  13.936
49310W        W21636   5.687   8.747   4.105
49311W        W21637  28.585   0.308  11.459
49312W        W21638  40.014  36.127  14.202
49313W        W21639  22.953   8.817   2.174
49314W        W21640  29.599   5.802   0.843
49315W        W21641  43.636   8.762  12.626
49316W        W21642  18.442  19.241  11.631
49317W        W21643  25.108   7.707  10.577
49318W        W21644  12.359   4.345   4.311
49319W        W21645  32.711  35.539   1.219
49320W        W21646  23.667  29.711  13.480
49321W        W21647  24.166  32.447   0.963
49322W        W21648  37.356   7.771  11.952
49323W        W21649  29.066   9.287   3.385
49324W        W21650   1.078  37.464  11.152
49325W        W21651  22.569  34.946  11.643
49326W        W21652   7.908   5.792   1.767
49327W        W21653  17.756  19.141   1.018
49328W        W21654  34.060  24.605   0.935
49329W        W21655   0.955  10.890   4.255
49330W        W21656  42.740  41.835   4.582
49331W        W21657  33.007  44.547  10.464
49332W        W21658  27.616  38.459  14.472
49333W        W21659  42.785  16.277  11.779
49334W        W21660   9.057  41.964   0.497
49335W        W21661  14.862   4.771  12.068
49336W        W21662  17.685  19.699   2.329
49337W        W21663  24.148  19.886  12.962
49338W        W21664  22.219   6.786  14.943
49339W        W21665  13.771   8.674   1.086
49340W        W21666  42.542   7.994   0.117
49341W        W21667  33.009  39.034  11.532
49342W        W21668  30.377  24.257  11.983
49343W        W21669  35.072   8.890   4.666
49344W        W21670  37.975  12.669   1.730
49345W        W21671  34.239  21.055   3.153
49346W        W21672  34.460  14.838   0.725
49347W        W21673  39.759  19.579  11.144
49348W        W21674   2.669  10.820   2.242
49349W        W21675  39.473  35.947  13.381
49350W        W21676  25.891   8.591  10.015
49351W        W21677  29.194  36.392  12.221
49352W        W21678  21.724  18.163   2.196
49353W        W21679   9.249  36.468  14.849
49354W        W21680  25.725  40.221   4.182
49355W        W21681  15.630  28.631  11.641
49356W        W21682  32.340  13.734  11.173
49357W        W21683  11.406  11.294   4.204
49358W        W21684  35.923  38.681  12.876
49359W        W21685   8.765  30.425  10.715
49360W        W21686   1.151  23.547   3.715
49361W        W21687  18.944  17.203   1.351
49362W        W21688  17.929  27.328  11.198
49363W        W21689   5.544  28.836   1.452
49364W        W21690  42.410  33.973   0.208
49365W        W21691  31.491   4.078   0.906
49366W        W21692  23.773   0.283   0.411
49367W        W21693  35.074  31.064   1.409
49368W        W21694   8.993  12.230  13.102
49369W        W21695  19.508  44.599   5.051
49370W        W21696  11.969   2.079   2.209
49371W        W21697   7.392  22.237  14.376
49372W        W21698  43.455  39.079   3.096
49373W        W21699  33.403  40.366   3.628
49374W        W21700  17.704  10.719   1.477
49375W        W21701  11.937  32.611  14.294
49376W        W21702  25.229  40.983  11.522
49377W        W21703  20.354  44.376  11.124
49378W        W21704  22.728  25.611  12.574
49379W        W21705  22.605  30.431   2.135
49380W        W21706  29.881  32.289  14.958
49381W        W21707  44.948  19.964  11.868
49382W        W21708  26.094   8.026   4.828
49383W        W21709  35.334  37.830   0.895
49384W        W21710  37.416  29.490  14.796
49385W        W21711  17.664  36.414  13.319
49386W        W21712  28.458  23.430  13.824
49387W        W21713  12.504  34.307  10.108
49388W        W21714  29.581  18.481  13.479
49389W        W21715  18.137  31.873  13.113
49390W        W21716  12.014  18.953   3.245
49391W        W21717   7.439   8.779  11.869
49392W        W21718  14.478  18.492   0.049
49393W        W21719   8.566  15.758   2.645
49394W        W21720   5.345  28.041  11.246
49395W        W21721  14.805  42.744  11.148
49396W        W21722  33.956  26.461   2.731
49397W        W21723  35.467  22.708   2.905
49398W        W21724   9.364  15.356  12.880
49399W        W21725  40.554  22.966  10.413
49400W        W21726  40.480  11.747   3.734
49401W        W21727   4.558  28.364   5.398
49402W        W21728   8.166   3.848  10.579
49403W        W21729   2.086  11.845   0.216
49404W        W21730   0.802   4.368   3.298
49405W        W21731  33.200  40.821   3.476
49406W        W21732  41.196  41.647   3.167
49407W        W21733  22.148  30.186   2.107
49408W        W21734  41.003  14.598  14.888
49409W        W21735   5.317  21.603  12.959
49410W        W21736  27.615   4.806   4.470
49411W        W21737  30.539   7.736   4.674
49412W        W21738  13.750  36.493  13.467
49413W        W21739  21.089  17.682  12.446
49414W        W21740  21.179  24.434  13.829
49415W        W21741  12.856  12.643  14.321
49416W        W21742  24.759  41.422   0.479
49417W        W21743   8.914  41.686   0.954
49418W        W21744  25.624  14.683   0.957
49419W        W21745  21.637   0.367   4.737
49420W        W21746  32.799  25.731   3.329
49421W        W21747  15.852  30.977  14.026
49422W        W21748  12.382  26.066  14.401
49423W        W21749  15.007  18.834  13.032
49424W        W21750   3.829  17.146   3.836
49425W        W21751  17.689  37.814  12.665
49426W        W21752  28.446   6.503   3.875
49427W        W21753  35.868  29.151  11.614
49428W        W21754  19.062  38.040   0.873
49429W        W21755  13.384  41.914   2.242
49430W        W21756  43.321  26.321  13.510
49431W        W21757  29.060  12.444  13.970
49432W        W21758  22.243   9.922  14.095
49433W        W21759  42.359  24.418   0.897
49434W        W21760  39.574  34.471  14.930
49435W        W21761   6.391  20.583   3.300
49436W        W21762  25.600  27.019  12.027
49437W        W21763  25.107  28.163  12.900
49438W        W21764  23.982  12.168   3.601
49439W        W21765  28.190  26.576  14.550
49440W        W21766   4.179  44.385   0.605
49441W        W21767  18.745  15.509  14.311
49442W        W21768  20.441  38.479  14.321
49443W        W21769  16.281   7.579  11.227
49444W        W21770  37.974  29.594   4.559
49445W        W21771  36.469  34.916   4.493
49446W        W21772  28.077  31.916   4.684
49447W        W21773  18.844  43.814   2.881
49448W        W21774  17.476  33.533   4.548
49449W        W21775  17.608  28.514   2.937
49450W        W21776  42.255  42.466  12.944
49451W        W21777  30.792  24.001   1.171
49452W        W21778  43.964  12.634  14.011
49453W        W21779  27.942   6.610  10.652
49454W        W21780  34.600  27.061   0.695
49455W        W21781  34.866   4.578   4.512
49456W        W21782  44.219  10.153  14.427
49457W        W21783   7.638  35.939   2.746
49458W        W21784  24.002  18.477   3.176
49459W        W21785   9.002  13.777   1.664
49460W        W21786  13.629  35.314   0.395
49461W        W21787  35.594  11.466   0.964
49462W        W21788  16.359   1.403  13.414
49463W        W21789  13.208  31.533  12.016
49464W        W21790  12.614  26.983  12.164
49465W        W21791   5.919  19.116   2.720
49466W        W21792  36.079  26.702   1.236
49467W        W21793  23.466  17.186  11.249
49468W        W21794  28.100  31.400   4.625
49469W        W21795  28.828   1.208  10.916
49470W        W21796   5.801  30.125   0.418
49471W        W21797  12.451  35.781  14.222
49472W        W21798  29.194  15.275  13.062
49473W        W21799  29.974  12.283  13.614
49474W        W21800  20.108  17.087   3.186
49475W        W21801   8.176  18.971  11.401
49476W        W21802  17.578  31.963  14.412
49477W        W21803  27.902   2.201  12.104
49478W        W21804  17.087   4.328   3.037
49479W        W21805  29.018  31.420  13.262
49480W        W21806  30.645  33.469   4.719
49481W        W21807  31.921   4.561  12.202
49482W        W21808   0.434  11.515   4.847
49483W        W21809  22.291   6.192   2.280
49484W        W21810   7.849   3.303   1.596
49485W        W21811  21.742  39.660   3.807
49486W        W21812  32.676  18.795  11.324
49487W        W21813  38.250  21.248  11.633
49488W        W21814  13.422  30.525  12.962
49489W        W21815  36.627  15.572   4.735
49490W        W21816  36.387  22.599   1.576
49491W        W21817  36.315  24.455  11.605
49492W        W21818  10.345   2.676   2.836
49493W        W21819  26.975  42.459  11.662
49494W        W21820  27.988  14.744   2.855
49495W        W21821  19.482  13.213  12.041
49496W        W21822  39.047  30.201  10.485
49497W        W21823  23.908  40.542   3.858
49498W        W21824  35.848   0.995  12.066
49499W        W21825  15.320  40.393   0.172
49500W        W21826  17.530  32.552   1.681
49501W        W21827  44.133  41.363  11.191
49502W        W21828  30.388  43.727   1.929
49503W        W21829   7.363  17.203  10.951
49504W        W21830  27.985   3.503   4.975
49505W        W21831   5.872  42.344   1.418
49506W        W21832   4.379  11.183  11.095
49507W        W21833  15.866  31.406   1.686
49508W        W21834  37.785  19.611   4.061
49509W        W21835  30.989  43.625   3.651
49510W        W21836  23.680  12.284   3.193
49511W        W21837  40.018  38.761   1.251
49512W        W21838   4.444  44.244  11.580
49513W        W21839  40.967   9.836   0.917
49514W        W21840  33.775  21.926   0.471
49515W        W21841   3.347  23.790  11.150
49516W        W21842   6.610   7.160   2.439
49517W        W21843  22.797  12.630   0.701
49518W        W21844  11.882  14.438   4.644
49519W        W21845  25.617   7.519   2.788
49520W        W21846  41.089  44.046  10.608
49521W        W21847  11.904  21.114   3.947
49522W        W21848   3.652  33.297   0.437
49523W        W21849  32.375  20.381   1.796
49524W        W21850  25.664  17.613   4.095
49525W        W21851   1.444  41.953   4.626
49526W        W21852  15.523  39.339   3.421
49527W        W21853   2.379   0.020  11.091
49528W        W21854   5.438  14.040   0.410
49529W        W21855  17.745   1.975   1.014
49530W        W21856   6.792   5.874   1.592
49531W        W21857   6.435  34.473   0.884
49532W        W21858   8.804  13.031  13.545
49533W        W21859  32.580  14.165  11.008
49534W        W21860  12.866  32.474   3.369
49535W        W21861  37.302   2.460   0.835
49536W        W21862   2.835  34.959   0.809
49537W        W21863   8.814  32.752  13.308
49538W        W21864   4.780  35.512  14.278
49539W        W21865  38.378  29.767  11.158
49540W        W21866  34.469  29.060  14.445
49541W        W21867  41.115  17.589  11.617
49542W        W21868   5.412  25.475   2.061
49543W        W21869   8.853  16.032  14.456
49544W        W21870  40.744  34.615   3.366
49545W        W21871  23.468   1.794   3.820
49546W        W21872  44.527  21.112  14.267
49547W        W21873  35.226   1.032   5.092
49548W        W21874  15.755  31.930  12.360
49549W        W21875  21.972  40.433  14.916
49550W        W21876  11.232  31.762  12.951
49551W        W21877  38.510   8.459  14.929
49552W        W21878  41.551  40.273  11.495
49553W        W21879   2.302  16.418  11.350
49554W        W21880  21.742  19.514   2.585
49555W        W21881  33.925  42.376  14.815
49556W        W21882  44.403  38.836  10.566
49557W        W21883  15.884  17.512   0.162
49558W        W21884  10.269  23.688   0.758
49559W        W21885   7.556   4.525   3.547
49560W        W21886  34.215   4.027   3.584
49561W        W21887   2.416   0.567   4.212
49562W        W21888  16.590  18.470   2.768
49563W        W21889  27.189   6.445   1.789
49564W        W21890  41.234  15.741  12.930
49565W        W21891  18.275  34.530  14.795
49566W        W21892  10.608  32.209   2.400
49567W        W21893   3.690  39.532   3.312
49568W        W21894  32.627  16.801   1.447
49569W        W21895  10.767  23.005  11.992
49570W        W21896  34.364  42.812   3.080
49571W        W21897   1.833  24.453  12.476
49572W        W21898  24.030  13.468  11.555
49573W        W21899  40.021  28.400  12.549
49574W        W21900  10.262  43.462  14.765
49575W        W21901  25.648  26.912   0.582
49576W        W21902   8.158  26.191   3.689
49577W        W21903  20.351  18.029  11.097
49578W        W21904  14.150  19.218  10.934
49579W        W21905   9.316  17.420   0.265
49580W        W21906  12.273  39.338   1.894
49581W        W21907  44.976   8.224   2.431
49582W        W21908   4.688  22.125   4.700
49583W        W21909  14.101   0.679   5.072
49584W        W21910   9.596  27.023  12.139
49585W        W21911   9.185  12.249   1.411
49586W        W21912  15.868  39.311  13.426
49587W        W21913  20.527  39.413   2.250
49588W        W21914  21.541  17.071   1.297
49589W        W21915  26.461  20.722  14.014
49590W        W21916  32.221  43.489  12.165
49591W        W21917  19.685   5.645  13.417
49592W        W21918  12.213   0.288   1.352
49593W        W21919  41.451   3.478  10.984
49594W        W21920  38.655   8.866   9.902
49595W        W21921  26.963  39.970   4.710
49596W        W21922   0.957  32.541  14.229
49597W        W21923   8.158   3.876   4.318
49598W        W21924  12.799  20.102  10.727
49599W        W21925  15.247  42.964  10.576
49600W        W21926  44.438  17.141  13.580
49601W        W21927  42.315  16.445  11.629
49602W        W21928  40.490  19.218   3.359
49603W        W21929   9.627   6.807  13.021
49604W        W21930   7.820  16.792   1.296
49605W        W21931   3.127  23.630  14.847
49606W        W21932   9.439  18.096   3.674
49607W        W21933  25.561  20.623   2.789
49608W        W21934  44.452  16.130   0.478
49609W        W21935  16.589  28.600   0.347
49610W        W21936   0.517  35.573  10.734
49611W        W21937  16.379  35.474   2.723
49612W        W21938   8.149   7.811   4.610
49613W        W21939  12.653  27.005  11.070
49614W        W21940  16.562   6.668  14.353
49615W        W21941  33.325   6.677  13.259
49616W        W21942  27.320   8.799   3.229
49617W        W21943  18.191  24.157  11.144
49618W        W21944  20.148  37.888  14.208
49619W        W21945  31.002  12.229  13.686
49620W        W21946  19.185  43.447   2.241
49621W        W21947  33.930  14.838   4.324
49622W        W21948  20.790  40.946   1.672
49623W        W21949  16.772  42.089  14.268
49624W        W21950  17.027  43.581  12.537
49625W        W21951   1.007   0.331   3.643
49626W        W21952   1.791   0.237  11.503
49627W        W21953  35.728   1.910   0.264
49628W        W21954  14.237  26.099   2.242
49629W        W21955  15.831  40.490   0.883
49630W        W21956  24.910  37.096   2.125
49631W        W21957  30.464   6.273   2.430
49632W        W21958   0.166  15.813   3.635
49633W        W21959  11.545   7.091  11.074
49634W        W21960  37.597  37.006  12.522
49635W        W21961  31.642   6.586  13.071
49636W        W21962   9.897  36.135   0.888
49637W        W21963  30.912  21.212   5.074
49638W        W21964  28.031   2.758   2.716
49639W        W21965  24.970   8.298   1.399
49640W        W21966   8.404  33.514   0.845
49641W        W21967  25.774  26.582  14.842
49642W        W21968  35.413   2.461   0.808
49643W        W21969  16.041  23.052   2.114
49644W        W21970  12.289  15.432  13.055
49645W        W21971  33.060  39.407   3.593
49646W        W21972  28.650   7.271  14.292
49647W        W21973   7.976  12.518  10.673
49648W        W21974  14.298  31.906  14.796
49649W        W21975   0.760  25.064   4.694
49650W        W21976  32.903   6.320  14.411
49651W        W21977  30.642  40.372   1.460
49652W        W21978   2.761  21.956  13.546
49653W        W21979  12.197   6.092   4.167
49654W        W21980  17.669  31.440  10.664
49655W        W21981  25.654  33.370  10.948
49656W        W21982  33.955  37.831   0.696
49657W        W21983  36.772  30.244   2.648
49658W        W21984   9.923  42.572   4.977
49659W        W21985   5.038   9.330   4.077
49660W        W21986  25.119  41.035   0.836
49661W        W21987  24.098  26.912   2.047
49662W        W21988  16.636  37.375  14.622
49663W        W21989  38.157  38.467  11.278
49664W        W21990  20.629  37.934  14.023
49665W        W21991  12.704   4.478  12.601
49666W        W21992   4.965  31.604  12.481
49667W        W21993  10.772  16.412   3.160
49668W        W21994  16.660  42.023  14.776
49669W        W21995  12.407  26.029   2.455
49670W        W21996  12.995  36.690   4.262
49671W        W21997  43.805  39.761  12.098
49672W        W21998  25.043   4.650  14.321
49673W        W21999   9.123   0.763   3.273
49674W        W22000  21.677  18.976  12.225
49675W        W22001  33.572  19.942  12.643
49676W        W22002  27.021  44.223   2.121
49677W        W22003  30.302  40.225   0.509
49678W        W22004  12.765  26.241  10.224
49679W        W22005  31.025  12.359  11.956
49680W        W22006  37.460  29.929  14.035
49681W        W22007  38.869  44.695  11.240
49682W        W22008  24.253  24.872  14.298
49683W        W22009  23.953  31.274  12.062
49684W        W22010   4.357  18.884   0.131
49685W        W22011  39.442  26.691   2.809
49686W        W22012  32.009  31.645   2.629
49687W        W22013  31.403  30.358   2.743
49688W        W22014  30.176  32.832  14.236
49689W        W22015  10.920  11.441  11.295
49690W        W22016  29.689  33.075  11.597
49691W        W22017  13.658   9.887   4.761
49692W        W22018   5.703  19.207   3.241
49693W        W22019  16.766  12.096  11.987
49694W        W22020  33.969  38.826   4.555
49695W        W22021  14.875  30.751  14.582
49696W        W22022  40.271   7.161   4.608
49697W        W22023  32.484  28.911  13.909
49698W        W22024  40.002  37.001   1.805
49699W        W22025  25.972   9.280  12.928
49700W        W22026  38.922   1.829  12.106
49701W        W22027  23.716   5.844  12.981
49702W        W22028   2.938  14.633   2.081
49703W        W22029  33.609  37.794  14.621
49704W        W22030   7.581  38.455  12.573
49705W        W22031   0.978   6.709   1.265
49706W        W22032   5.944  28.592  13.976
49707W        W22033  33.040  18.108   1.317
49708W        W22034  25.503   9.976  12.362
49709W        W22035  42.962   3.444  10.663
49710W        W22036  34.342  25.038   0.820
49711W        W22037  32.581   6.093   2.266
49712W        W22038  44.946  35.891  12.418
49713W        W22039  23.801   4.193  10.600
49714W        W22040  44.637  38.083   2.179
49715W        W22041  43.370  24.412   2.695
49716W        W22042  30.422  32.342   2.793
49717W        W22043  23.124  31.493   2.784
49718W        W22044  34.459  15.346   3.595
49719W        W22045  26.882  36.332  10.657
49720W        W22046   5.355  32.038   0.295
49721W        W22047  40.065  20.678   2.241
49722W        W22048  41.763  33.043   4.015
49723W        W22049  24.004  29.637  14.969
49724W        W22050  15.277  42.275  13.320
49725W        W22051  12.324  26.393   2.800
49726W        W22052  36.775  33.680   5.809
49727W        W22053  36.072   3.255   4.118
49728W        W22054  10.493  43.755   2.777
49729W        W22055  23.520  35.921   1.491
49730W        W22056   6.822  28.105   2.685
49731W        W22057  19.541  14.681   2.789
49732W        W22058   4.523  23.000   2.697
49733W        W22059  40.773  20.705  14.340
49734W        W22060  24.428  16.710   3.246
49735W        W22061   4.296  18.745  11.860
49736W        W22062  38.315   2.267  14.933
49737W        W22063  28.984  35.024   3.804
49738W        W22064  11.387   5.806   0.388
49739W        W22065  25.856  10.981  12.907
49740W        W22066  14.017  28.709   1.303
49741W        W22067  32.938   9.686   1.710
49742W        W22068  27.693  28.526  10.166
49743W        W22069  40.806  20.751  12.389
49744W        W22070  35.914   4.550   2.184
49745W        W22071  12.441   8.144   1.158
49746W        W22072  32.930   7.503   1.175
49747W        W22073   3.644  10.463   4.539
49748W        W22074   1.842  40.760  12.264
49749W        W22075  37.966  28.691   1.486
49750W        W22076  11.697  37.307  10.670
49751W        W22077  29.521  17.923   1.926
49752W        W22078  26.171  29.958   0.815
49753W        W22079  13.830  12.787   4.521
49754W        W22080  10.802   4.050  14.456
49755W        W22081  11.229  44.248  11.141
49756W        W22082   9.799  28.941   2.537
49757W        W22083   3.335  37.423  10.635
49758W        W22084   2.272   3.379  12.898
49759W        W22085  11.896   7.982  12.322
49760W        W22086  32.424  37.284   3.655
49761W        W22087  32.467  15.735  11.113
49762W        W22088  15.044  42.458   2.404
49763W        W22089  21.982  17.271  14.540
49764W        W22090  41.753  12.378   1.933
49765W        W22091  42.528   1.858  11.218
49766W        W22092  26.025   0.800   1.282
49767W        W22093  44.212  25.014   4.480
49768W        W22094  28.975  18.415  14.059
49769W        W22095   6.314  28.250  14.796
49770W        W22096   2.906  42.971  11.660
49771W        W22097  26.699  13.709   0.694
49772W        W22098  25.547  41.720  14.827
49773W        W22099   9.806  10.597   0.766
49774W        W22100  17.627  19.497   3.856
49775W        W22101   8.006  34.096   4.522
49776W        W22102   6.317  40.779  13.374
49777W        W22103   0.577   7.368  11.508
49778W        W22104  21.668   9.154  14.307
49779W        W22105  29.052  39.752   0.919
49780W        W22106  15.812  23.929  10.516
49781W        W22107   5.706  23.441   1.316
49782W        W22108  41.875   0.967   1.388
49783W        W22109  18.637   6.427   1.797
49784W        W22110  41.710  21.045   3.417
49785W        W22111  29.184  42.403   1.756
49786W        W22112  23.594  20.828   1.840
49787W        W22113  39.443  27.544   0.936
49788W        W22114   6.250  28.564  12.441
49789W        W22115  13.343  19.093   4.547
49790W        W22116  31.390   3.928   4.116
49791W        W22117  14.728  44.913  12.490
49792W        W22118  28.055  38.980   1.705
49793W        W22119  11.223   8.556   4.001
49794W        W22120  33.872  29.531   3.302
49795W        W22121  29.073  29.691  11.067
49796W        W22122  35.013  10.863   3.206
49797W        W22123  36.333   4.423   3.374
49798W        W22124  40.933  11.926   2.956
49799W        W22125  39.428  40.438  11.868
49800W        W22126  14.849  28.414   4.075
49801W        W22127  16.204  11.900  10.741
49802W        W22128  19.733  38.000  10.466
49803W        W22129  22.794  12.760   3.554
49804W        W22130  41.370  26.408   0.665
49805W        W22131  11.787   5.744  10.687
49806W        W22132  39.569  31.764  13.367
49807W        W22133  33.256   7.436   3.232
49808W        W22134  44.476  12.303   3.312
49809W        W22135  16.026  24.821   5.095
49810W        W22136  24.103  42.543  10.418
49811W        W22137   9.671  23.479  10.731
49812W        W22138  14.244  26.168   1.639
49813W        W22139  44.508  22.507  14.787
49814W        W22140  39.845  15.010   1.497
49815W        W22141  38.676  36.373   3.677
49816W        W22142  33.104  33.548  14.774
49817W        W22143  22.599  24.183   2.823
49818W        W22144  28.374  24.157  12.186
49819W        W22145  16.790  31.769  13.353
49820W        W22146  23.144   1.888   0.985
49821W        W22147   9.597   1.002  14.900
49822W        W22148  27.914  43.894  12.082
49823W        W22149  41.038  13.546  10.762
49824W        W22150  36.042  34.018  13.280
49825W        W22151   6.385  37.321  10.950
49826W        W22152  19.142  20.466  13.983
49827W        W22153  37.491  40.747  13.992
49828W        W22154  13.655  40.378  13.983
49829W        W22155  27.903   6.871   1.258
49830W        W22156  38.897  32.254   0.285
49831W        W22157  42.894  40.850  12.977
49832W        W22158   0.254  15.331   1.064
49833W        W22159  11.364  34.125  11.904
49834W        W22160  13.296   4.890   4.660
49835W        W22161  26.087  28.405   2.636
49836W        W22162  23.221  20.253  11.570
49837W        W22163  18.945  42.848  13.259
49838W        W22164  32.921  12.350   3.641
49839W        W22165   7.846  28.812   4.321
49840W        W22166   1.528   4.395   4.639
49841W        W22167   3.992   3.720   1.017
49842W        W22168  41.559   1.304   4.136
49843W        W22169  34.798  34.189  14.989
49844W        W22170   1.941  14.901  12.257
49845W        W22171  17.586  17.530   1.712
49846W        W22172  44.217   0.542  11.326
49847W        W22173  38.980  14.326   1.667
49848W        W22174  34.092  11.759   4.795
49849W        W22175  26.711   5.351  14.493
49850W        W22176  26.023  36.467  11.102
49851W        W22177   0.114   0.499  11.117
49852W        W22178   9.938  44.896  14.200
49853W        W22179  14.571  19.675  12.883
49854W        W22180  15.697  41.604  14.938
49855W        W22181  21.256  23.638  12.443
49856W        W22182  43.688  10.409   2.435
49857W        W22183  27.510   9.143   4.138
49858W        W22184  10.311   9.763  12.078
49859W        W22185  13.806  31.276  10.667
49860W        W22186  10.515   7.194  11.118
49861W        W22187  34.048  26.570   0.734
49862W        W22188   1.186  22.239  10.149
49863W        W22189   5.991  29.073  13.719
49864W        W22190  23.002  12.310  11.625
49865W        W22191  31.084  31.821  11.509
49866W        W22192  44.240  10.949   3.745
49867W        W22193  41.560   9.680   2.903
49868W        W22194   0.418  12.155   1.186
49869W        W22195  25.442  17.475  14.505
49870W        W22196  12.100  22.566  14.495
49871W        W22197   9.380  16.264  11.522
49872W        W22198  18.738  44.804   4.032
49873W        W22199  11.284  15.208  12.965
49874W        W22200  33.180   6.384   4.653
49875W        W22201  38.928  18.160  10.098
49876W        W22202  29.579  25.883   0.266
49877W        W22203   3.873   7.398  11.457
49878W        W22204  41.361  20.181   1.297
49879W        W22205  35.348  25.155  10.708
49880W        W22206  30.337  38.471  11.081
49881W        W22207  43.349  37.538  12.962
49882W        W22208  30.924  34.514   0.967
49883W        W22209  29.320  14.281  11.529
49884W        W22210  24.028  21.164   0.422
49885W        W22211  18.752  32.970   2.009
49886W        W22212  37.743  18.584  13.873
49887W        W22213  34.272  21.624   1.168
49888W        W22214   3.909  42.498   3.276
49889W        W22215  43.866  40.953  11.414
49890W        W22216  39.019   3.342  10.703
49891W        W22217  35.952  33.019  13.768
49892W        W22218  20.351  13.281   3.988
49893W        W22219  14.248  25.100  13.117
49894W        W22220  25.142  43.247   2.763
49895W        W22221  27.550  19.484   2.804
49896W        W22222  32.809   7.650   3.000
49897W        W22223  43.642  37.508  10.525
49898W        W22224  14.294   8.254   0.133
49899W        W22225  12.808  28.029   2.967
49900W        W22226  21.866  18.617  13.496
49901W        W22227   4.707   5.923   4.945
49902W        W22228  18.699  30.598   1.268
49903W        W22229  16.109   4.979  13.427
49904W        W22230  28.065  10.300   2.328
49905W        W22231  28.478   6.791  11.727
49906W        W22232  38.428  25.526   0.889
49907W        W22233  13.262  35.785   4.130
49908W        W22234  30.594  19.540   1.666
49909W        W22235  40.178  42.343   2.535
49910W        W22236  15.085  34.544  14.958
49911W        W22237  40.277  31.560  11.963
49912W        W22238   8.909   9.417  12.122
49913W        W22239  44.318  32.181   3.358
49914W        W22240  32.735  23.894   0.442
49915W        W22241  24.305  21.201   3.697
49916W        W22242  25.877  43.025  14.994
49917W        W22243  32.677  22.978   2.509
49918W        W22244  10.356  32.349   1.435
49919W        W22245   6.751  36.116  11.719
49920W        W22246  42.552  17.258   5.049
49921W        W22247  13.739  32.505   2.875
49922W        W22248  32.926  17.948  11.300
49923W        W22249  17.948  29.442   2.349
49924W        W22250  17.640  40.044   1.161
49925W        W22251  22.674  27.812   2.741
49926W        W22252  31.116  39.784   2.830
49927W        W22253  36.592  33.418   3.687
49928W        W22254   7.288   6.367  13.377
49929W        W22255  37.126  34.494  10.722
49930W        W22256  23.140  36.076   1.163
49931W        W22257  35.660  12.345  10.758
49932W        W22258  34.811  36.894   4.571
49933W        W22259   2.252   9.260  10.409
49934W        W22260  14.143   2.384   1.427
49935W        W22261  30.949  24.422  14.809
49936W        W22262   2.119  43.484  14.493
49937W        W22263  10.806  17.614   2.622
49938W        W22264  15.239  25.980  12.945
49939W        W22265  38.957  34.478  13.439
49940W        W22266  23.039   7.933   3.882
49941W        W22267   3.188  27.091  14.832
49942W        W22268  34.470  32.893   5.657
49943W        W22269  40.239  39.456   2.362
49944W        W22270   7.027  11.794  12.652
49945W        W22271  17.234  28.248   9.983
49946W        W22272  29.573   5.826  10.976
49947W        W22273  16.853  30.869  12.605
49948W        W22274  39.245  35.553   4.683
49949W        W22275   2.493  18.957   3.635
49950W        W22276   5.607  36.766  13.376
49951W        W22277  28.137  38.876  12.605
49952W        W22278  12.714  33.873  11.665
49953W        W22279  14.801   1.441   3.132
49954W        W22280   1.484  43.395  12.919
49955W        W22281  15.183  15.264   3.175
49956W        W22282  37.337  41.956  13.432
49957W        W22283  16.264  44.394  12.489
49958W        W22284  21.625  44.982   0.933
49959W        W22285  38.629  10.215  14.849
49960W        W22286  14.636  44.473   4.257
49961W        W22287  30.000  36.276   0.919
49962W        W22288  16.092   4.474   1.604
49963W        W22289   0.325  22.342   1.684
49964W        W22290  38.109  35.960  12.058
49965W        W22291  26.169   5.994   4.665
49966W        W22292  20.073   5.827  10.435
49967W        W22293  27.180  37.775   4.205
49968W        W22294  16.623  37.145  12.091
49969W        W22295   6.272  20.205  13.013
49970W        W22296  11.366  38.443  11.496
49971W        W22297  38.097  21.574   0.760
49972W        W22298  29.513   6.364  10.113
49973W        W22299   3.213  17.525  11.462
49974W        W22300  14.130   2.968  13.687
49975W        W22301  44.237  38.669   1.248
49976W        W22302  39.676  41.748   2.097
49977W        W22303  39.303  22.580  11.964
49978W        W22304  19.720   2.326   4.721
49979W        W22305  30.574  12.102  10.617
49980W        W22306  43.328  33.634  13.405
49981W        W22307  44.216   7.269   2.390
49982W        W22308  24.104  31.434  11.394
49983W        W22309   9.134  22.011  14.662
49984W        W22310  37.941   1.365  12.972
49985W        W22311  28.586  34.870   0.753
49986W        W22312  26.070  38.107   1.837
49987W        W22313  15.140  37.097  11.085
49988W        W22314  24.876  10.440   5.010
49989W        W22315   3.010  20.033  14.516
49990W        W22316   3.421  39.343   4.741
49991W        W22317  32.146  22.159  13.983
49992W        W22318  24.842  13.282  14.516
49993W        W22319  19.059   7.230   1.823
49994W        W22320  16.713   8.051  13.168
49995W        W22321  15.331  17.215   1.307
49996W        W22322  25.552  44.231  14.977
49997W        W22323  24.127  27.135   4.536
49998W        W22324  25.944  30.763  11.594
49999W        W22325  31.482  36.288   1.674
50000W        W22326  16.760  41.562   4.110
50001W        W22327  22.216  22.982   4.636
50002W        W22328   4.893  41.623   0.804
50003W        W22329  40.013  24.025   4.376
50004W        W22330  27.947  37.654  12.013
50005W        W22331   0.849  35.482   2.155
50006W        W22332   9.411  35.587  14.481
50007W        W22333   9.668  19.991   3.316
50008W        W22334   3.192  44.858   3.664
50009W        W22335   2.268  25.859  13.890
50010W        W22336   5.213  39.121   4.109
50011W        W22337  15.071  17.280   0.378
50012W        W22338  34.944   9.051  12.348
50013W        W22339  43.049  36.509  12.368
50014W        W22340  42.896  26.640  11.948
50015W        W22341   5.681   2.011   3.202
50016W        W22342   2.379  24.536  10.346
50017W        W22343  14.183   4.343   1.196
50018W        W22344  18.349   7.456  11.207
50019W        W22345   4.647  22.902   0.456
50020W        W22346  33.960  39.978  12.445
50021W        W22347  38.344  25.746  11.936
50022W        W22348  11.634  12.799  14.028
50023W        W22349   5.730  29.514  11.146
50024W        W22350   6.802   0.238  14.999
50025W        W22351   2.478  43.443  14.093
50026W        W22352  14.549  24.116   1.396
50027W        W22353  43.397  39.852   0.919
50028W        W22354  23.826  35.038   0.274
50029W        W22355   8.639  43.433  13.259
50030W        W22356  40.246   9.391  13.844
50031W        W22357   5.358  12.701   2.150
50032W        W22358  17.829  36.575  10.695
50033W        W22359  14.860  30.951   0.058
50034W        W22360  21.559  20.392   0.045
50035W        W22361  30.485  27.716   1.187
50036W        W22362   0.484  33.008   2.052
50037W        W22363  26.611  19.368   3.264
50038W        W22364  10.686   3.796   1.310
50039W        W22365  33.585  27.738   1.846
50040W        W22366  35.371   8.982  13.956
50041W        W22367  24.651   7.111   4.303
50042W        W22368  21.070   4.876   1.421
50043W        W22369  33.856  43.408  12.582
50044W        W22370  32.171   4.369   1.965
50045W        W22371  18.040  44.488  14.091
50046W        W22372  14.076   0.368  13.966
50047W        W22373   6.934  37.905  14.751
50048W        W22374  23.408   8.252   4.964
50049W        W22375  14.345  31.864   2.677
50050W        W22376  28.232   4.259   3.273
50051W        W22377   0.843  27.942  11.421
50052W        W22378  21.635  38.382  13.511
50053W        W22379   0.718  30.432   4.941
50054W        W22380  30.682  13.106  12.910
50055W        W22381   0.961  29.263  14.083
50056W        W22382  11.201  10.795   0.725
50057W        W22383  21.767  17.597  14.905
50058W        W22384  20.602  34.123   1.991
50059W        W22385  11.611  21.717  13.409
50060W        W22386  36.156  11.326  12.064
50061W        W22387   0.461  28.444   1.941
50062W        W22388  40.740   1.661  11.007
50063W        W22389  22.508  38.912   3.505
50064W        W22390  25.054  34.900  10.683
50065W        W22391  44.369  43.080   3.625
50066W        W22392  11.892   6.933  14.509
50067W        W22393  21.026  41.856   4.018
50068W        W22394  33.407  42.737   2.932
50069W        W22395  11.313  40.383   2.617
50070W        W22396  32.896  36.671   0.782
50071W        W22397  34.791  42.690  11.589
50072W        W22398  43.008   3.225   5.009
50073W        W22399  35.425  19.796   3.339
50074W        W22400  38.440  39.558  10.855
50075W        W22401  12.467  10.632   0.250
50076W        W22402  26.424  17.620   0.763
50077W        W22403  40.720  41.199  10.838
50078W        W22404  38.537   6.201   0.702
50079W        W22405  31.906  11.634   0.941
50080W        W22406   5.392   5.752   1.377
50081W        W22407   9.372  22.330  13.799
50082W        W22408  40.666  26.456   1.357
50083W        W22409  20.169  11.121   3.374
50084W        W22410  23.817  33.028  11.245
50085W        W22411  33.022   6.484  14.888
50086W        W22412  32.442  23.864   2.103
50087W        W22413   0.407  28.591   2.468
50088W        W22414   2.277   9.076   4.568
50089W        W22415  19.625  22.989   1.922
50090W        W22416  30.549   5.164   1.664
50091W        W22417  41.474   1.937  11.991
50092W        W22418   9.949  12.411   3.784
50093W        W22419  43.113  44.275  13.481
50094W        W22420  29.753  24.482  12.752
50095W        W22421   7.262  40.415  12.887
50096W        W22422  32.875  17.269   4.102
50097W        W22423  38.140   5.886   1.746
50098W        W22424   4.430  42.010  12.067
50099W        W22425  35.585  11.341  14.862
50100W        W22426  17.114  41.074  13.751
50101W        W22427  27.593   0.743  14.698
50102W        W22428  17.353  18.927  13.447
50103W        W22429  38.069   2.001  12.156
50104W        W22430  34.776  33.275  11.503
50105W        W22431   9.542   8.549  13.484
50106W        W22432  31.892  39.048   1.945
50107W        W22433   5.370  37.367  11.672
50108W        W22434   2.331  18.523  10.696
50109W        W22435  18.615  24.589   0.802
50110W        W22436  31.094  36.685  14.991
50111W        W22437  10.624  21.835  13.318
50112W        W22438   6.775  28.017  11.572
50113W        W22439   9.230   2.172   5.080
50114W        W22440  31.498  26.930  11.509
50115W        W22441  35.593  31.628  12.975
50116W        W22442  40.956  20.757  10.978
50117W        W22443  28.109  43.988   3.097
50118W        W22444  31.838  28.160   5.154
50119W        W22445   5.308  33.536   3.891
50120W        W22446   9.476   7.467   1.878
50121W        W22447   2.077  17.761   3.566
50122W        W22448  30.998  17.557   2.805
50123W        W22449   3.504   8.815   5.054
50124W        W22450  40.878   9.397   2.431
50125W        W22451  10.827  17.479  13.443
50126W        W22452  43.140  10.708   1.435
50127W        W22453  35.976  10.674   0.314
50128W        W22454  19.200   2.650   1.546
50129W        W22455  15.189  22.302  12.523
50130W        W22456  31.267  10.196   1.204
50131W        W22457   4.359  32.167   0.436
50132W        W22458   0.402   2.885  13.258
50133W        W22459   0.918  30.570  13.809
50134W        W22460   3.939  34.596  10.698
50135W        W22461   5.261  21.596  13.948
50136W        W22462  10.773  42.912   2.294
50137W        W22463  23.636   4.005  12.180
50138W        W22464   8.854  19.185   1.774
50139W        W22465   5.211   2.201  12.891
50140W        W22466   0.313  33.626   0.367
50141W        W22467  22.890   3.033   2.168
50142W        W22468  23.653  18.199   4.066
50143W        W22469  21.184  40.102   2.951
50144W        W22470  38.858  13.814   4.176
50145W        W22471  34.669   8.395   0.385
50146W        W22472  18.139  13.070  11.196
50147W        W22473  31.436  34.426  11.193
50148W        W22474   6.483  23.650   0.428
50149W        W22475  39.774   8.841  11.614
50150W        W22476  34.362  19.522   4.179
50151W        W22477  30.578  43.693  13.404
50152W        W22478   8.725   0.878  11.213
50153W        W22479  42.279  44.792   1.603
50154W        W22480  33.596   9.317   0.473
50155W        W22481  42.404  37.941   2.346
50156W        W22482   0.365  10.376   3.735
50157W        W22483  39.042  18.183   0.717
50158W        W22484  35.568   7.664  10.832
50159W        W22485  26.592   2.847   0.880
50160W        W22486  31.399  30.641   4.896
50161W        W22487  34.903   2.372   1.679
50162W        W22488  23.799   7.151  13.324
50163W        W22489  17.598  36.922  14.910
50164W        W22490  41.506  31.007   4.607
50165W        W22491   0.551  37.181  11.879
50166W        W22492  11.041  14.317   3.748
50167W        W22493  27.333  14.942  11.627
50168W        W22494  11.257   8.606   3.330
50169W        W22495  20.183  10.551  12.520
50170W        W22496   6.594  37.790  11.070
50171W        W22497  29.613  23.170   2.680
50172W        W22498  13.164  43.200   2.934
50173W        W22499   5.692  29.551  14.819
50174W        W22500  25.746   1.384   2.245
50175W        W22501  27.886  44.448   3.196
50176W        W22502   7.634   6.698  14.423
50177W        W22503  42.324  41.039   3.733
50178W        W22504  22.602  22.234  10.889
50179W        W22505  15.708  27.607  12.496
50180W        W22506  33.968  36.816  12.569
50181W        W22507  23.979  14.290  12.709
50182W        W22508  25.685  35.878  13.514
50183W        W22509  17.521  23.051   1.357
50184W        W22510  44.814  27.638  10.389
50185W        W22511   0.455  33.481  13.525
50186W        W22512  31.054   5.966   4.161
50187W        W22513  15.135  16.150   0.137
50188W        W22514  26.465  31.429   0.883
50189W        W22515  43.231   9.749  14.796
50190W        W22516  24.768  20.698  12.428
50191W        W22517  24.688  35.129   1.757
50192W        W22518  30.709  25.034  10.470
50193W        W22519  42.801   6.636   3.271
50194W        W22520  12.568  20.273  13.095
50195W        W22521  28.629  34.612   2.682
50196W        W22522  39.063  32.949   0.889
50197W        W22523  40.013   3.249  10.788
50198W        W22524   7.612  24.419  11.994
50199W        W22525   3.774   4.356   3.836
50200W        W22526   2.810   8.680  11.040
50201W        W22527   4.754  33.541  10.486
50202W        W22528   0.878  43.864  11.221
50203W        W22529   6.100   4.775   3.271
50204W        W22530  28.258  38.713   3.259
50205W        W22531  42.843  35.419   0.538
50206W        W22532  16.538  11.738   2.856
50207W        W22533  37.622  18.341   4.629
50208W        W22534  14.686  39.583  13.961
50209W        W22535   4.437  26.238   3.229
50210W        W22536  14.749  25.629  11.039
50211W        W22537   3.908  28.912  12.500
50212W        W22538  25.127  24.608  11.550
50213W        W22539  23.581  35.019  13.468
50214W        W22540  44.589  10.588  11.936
50215W        W22541  30.823  18.760   0.357
50216W        W22542  11.777   0.793  14.241
50217W        W22543  12.202  34.895   3.637
50218W        W22544  13.290   5.340  13.394
50219W        W22545  30.640  20.165   2.121
50220W        W22546  22.961  13.326   2.756
50221W        W22547  19.702  25.190  11.092
50222W        W22548  10.450  28.398  11.549
50223W        W22549   2.190  37.554   0.934
50224W        W22550  44.822  39.804   0.852
50225W        W22551  20.214  30.840  12.163
50226W        W22552  43.529  29.522  12.192
50227W        W22553  15.314  36.855   0.549
50228W        W22554  44.018   5.761  12.470
50229W        W22555  38.966  22.164  13.515
50230W        W22556  26.963  21.594  12.387
50231W        W22557  37.067  30.504   0.887
50232W        W22558   3.524  25.478  11.564
50233W        W22559   0.440   3.639   3.385
50234W        W22560  15.338   2.829  11.680
50235W        W22561  38.112  26.991  11.063
50236W        W22562  11.737  18.808   4.708
50237W        W22563  17.026  25.175  11.329
50238W        W22564  28.601  38.508  10.614
50239W        W22565   8.863  32.240   2.474
50240W        W22566  22.014  30.722  14.941
50241W        W22567   8.860  31.544  12.789
50242W        W22568  25.934   4.264   1.662
50243W        W22569  11.462  20.025  14.343
50244W        W22570  16.151   4.926   0.144
50245W        W22571  16.533  29.161  12.893
50246W        W22572   1.721   8.611  11.935
50247W        W22573  21.221   0.053  13.835
50248W        W22574  22.259  32.167  14.474
50249W        W22575   2.217  21.807  10.469
50250W        W22576   3.638  31.019   1.927
50251W        W22577  23.682  14.802   4.243
50252W        W22578  32.298  32.002  10.211
50253W        W22579   3.445  39.399   2.877
50254W        W22580  24.089  19.630  11.971
50255W        W22581  13.824   1.701   0.743
50256W        W22582  44.889  41.834  11.076
50257W        W22583  44.204  13.232   4.919
50258W        W22584  17.796  24.306  13.319
50259W        W22585   6.831  30.859   3.110
50260W        W22586   0.293  16.595   0.469
50261W        W22587   1.969  35.208   0.554
50262W        W22588  37.450  25.372  10.598
50263W        W22589  40.518  27.747  11.152
50264W        W22590  13.856   7.866  14.406
50265W        W22591  33.042  18.909   0.666
50266W        W22592  31.058  38.986   1.307
50267W        W22593  43.781   5.929   1.692
50268W        W22594  29.728  14.582  14.038
50269W        W22595   3.181  38.808  13.052
50270W        W22596  31.969  39.456  14.905
50271W        W22597  18.717   7.944  10.561
50272W        W22598  38.756   3.254  12.501
50273W        W22599  38.996   3.944  10.678
50274W        W22600  31.111  16.031   0.467
50275W        W22601  15.102  27.990  11.952
50276W        W22602  44.283  13.405  11.358
50277W        W22603   0.266  25.193   1.231
50278W        W22604  31.130  12.502   2.698
50279W        W22605   4.675   4.862   2.889
50280W        W22606  42.818   7.146   3.321
50281W        W22607  27.147  39.700   3.773
50282W        W22608  11.728  10.236   9.464
50283W        W22609  19.477  10.293   4.306
50284W        W22610   2.412  12.120   2.273
50285W        W22611  16.944  42.794  11.008
50286W        W22612  14.603  28.447   3.386
50287W        W22613  28.956  28.118  10.215
50288W        W22614  44.493  28.408   2.307
50289W        W22615  18.552  24.166   2.404
50290W        W22616  18.068  22.566   2.100
50291W        W22617  33.062  21.586   1.680
50292W        W22618  13.190  10.975  14.926
50293W        W22619   6.430  36.346   1.114
50294W        W22620  12.745  42.744   2.269
50295W        W22621  31.825  27.081  14.829
50296W        W22622   5.530  14.508   2.805
50297W        W22623  14.135  39.964  14.274
50298W        W22624  19.017  24.007  12.995
50299W        W22625  11.815  35.565   9.696
50300W        W22626   3.534  12.860   1.769
50301W        W22627  10.123  10.757   1.906
50302W        W22628  22.037  17.722  13.540
50303W        W22629  39.200  13.340  12.383
50304W        W22630  16.071  36.103   3.168
50305W        W22631  40.080  37.266  10.971
50306W        W22632  10.608  40.427   4.303
50307W        W22633  22.358   1.213   3.334
50308W        W22634  26.736  19.241   4.207
50309W        W22635  38.410  44.183  13.554
50310W        W22636  38.825  23.918  13.850
50311W        W22637  44.248  26.606   0.378
50312W        W22638  43.983  29.674   2.622
50313W        W22639  15.670  15.212   1.493
50314W        W22640  43.062  18.659   3.360
50315W        W22641  23.850  33.792  13.761
50316W        W22642  14.235  43.981   4.687
50317W        W22643   7.241  27.234   1.764
50318W        W22644   1.273   8.192  13.949
50319W        W22645  37.950  33.479   4.117
50320W        W22646  20.808  35.156  11.191
50321W        W22647   2.883  39.663  11.541
50322W        W22648  38.336  30.610  11.130
50323W        W22649  18.228  34.407   0.822
50324W        W22650  41.326   6.233   2.276
50325W        W22651  10.528  44.967  12.636
50326W        W22652  36.412  31.784   3.266
50327W        W22653   1.570  33.653   0.353
50328W        W22654  31.509  44.651  13.011
50329W        W22655   2.247  20.711  12.090
50330W        W22656  37.358  19.278  12.886
50331W        W22657  38.882  18.359  12.598
50332W        W22658  30.863  31.153   3.951
50333W        W22659  19.660  20.507   0.767
50334W        W22660  42.856  32.666  11.049
50335W        W22661  31.667  25.839   2.206
50336W        W22662  43.755  15.681   0.768
50337W        W22663   7.190  36.170   2.867
50338W        W22664  16.245  16.909  14.363
50339W        W22665  32.614   5.914   0.272
50340W        W22666  31.402  19.128   1.936
50341W        W22667   4.137   0.434  12.061
50342W        W22668  21.230   2.542   4.880
50343W        W22669  10.296   9.239  14.702
50344W        W22670  31.711  21.849   2.237
50345W        W22671  38.763  30.534   2.371
50346W        W22672   1.338  30.825  14.542
50347W        W22673  10.332  44.276   1.355
50348W        W22674  43.775  43.356  11.114
50349W        W22675  40.403  12.377  12.965
50350W        W22676  30.458   8.522   4.179
50351W        W22677  27.440  36.433   0.250
50352W        W22678  34.113  21.533  12.445
50353W        W22679  18.161  18.524  11.512
50354W        W22680  34.384  25.409   1.246
50355W        W22681   4.256  35.310  14.761
50356W        W22682   2.877  23.870   0.279
50357W        W22683  38.310   7.316   1.377
50358W        W22684  12.686   4.128   4.727
50359W        W22685  32.463   3.304  14.252
50360W        W22686  13.848   4.799  13.061
50361W        W22687  24.290  23.473   1.848
50362W        W22688  21.009  25.118   3.414
50363W        W22689  39.543  10.841  11.439
50364W        W22690  40.807  15.902  11.058
50365W        W22691  11.342  39.081  10.312
50366W        W22692  10.598  29.571   0.255
50367W        W22693   0.971  41.407  10.675
50368W        W22694  29.840  39.877  13.425
50369W        W22695   5.972  29.962  14.071
50370W        W22696   6.389  28.073   2.230
50371W        W22697  44.866   1.281   2.263
50372W        W22698  36.660  24.426  12.939
50373W        W22699  43.961  19.221  11.605
50374W        W22700  36.820  23.060  13.748
50375W        W22701  23.535  43.497   2.163
50376W        W22702  11.282  42.963  12.839
50377W        W22703  12.080  20.342   3.057
50378W        W22704  35.026  40.449   0.506
50379W        W22705  22.967  36.387   4.731
50380W        W22706  42.043  22.399  12.344
50381W        W22707  16.993  44.282  12.009
50382W        W22708  33.597   4.733   0.393
50383W        W22709  14.007   8.241   3.617
50384W        W22710  21.635  30.742   4.774
50385W        W22711  31.495  26.952   0.876
50386W        W22712  11.367  24.451   9.752
50387W        W22713  18.040  38.537  12.785
50388W        W22714   9.986  30.960  11.057
50389W        W22715   1.166   8.289   1.623
50390W        W22716  38.226  10.025   5.016
50391W        W22717   5.982  26.128   3.222
50392W        W22718  31.060  44.401  13.090
50393W        W22719   7.805  34.830   2.134
50394W        W22720  27.646  22.071   1.346
50395W        W22721  11.806   8.286   4.503
50396W        W22722  39.583  22.550   0.852
50397W        W22723  14.577  28.478  14.335
50398W        W22724  26.694   5.430   0.403
50399W        W22725  24.617  19.999  13.136
50400W        W22726  40.009  21.963   1.788
50401W        W22727  34.485  35.019  12.328
50402W        W22728  31.333  26.085   1.005
50403W        W22729  10.380  41.935  11.479
50404W        W22730  18.724  12.161   2.200
50405W        W22731  16.769  12.632  11.950
50406W        W22732  38.653  16.895  13.155
50407W        W22733   4.545   2.716   4.127
50408W        W22734   0.738   1.209  11.093
50409W        W22735  14.820  24.101  14.093
50410W        W22736  33.052   1.365   0.821
50411W        W22737  34.650   5.693   0.834
50412W        W22738  20.820  19.755  13.965
50413W        W22739  30.680  38.515   2.089
50414W        W22740   8.441  24.680   1.151
50415W        W22741   1.575  31.405  10.704
50416W        W22742   0.020  12.970  14.612
50417W        W22743  39.395  16.666   0.392
50418W        W22744  17.751  41.949  12.215
50419W        W22745  19.059  38.291  12.827
50420W        W22746   6.391  16.762  14.057
50421W        W22747  11.690  19.526  10.215
50422W        W22748  29.503  12.335   4.523
50423W        W22749   9.157  18.820  12.533
50424W        W22750   7.176  22.114   0.225
50425W        W22751  17.374  24.122   3.089
50426W        W22752  33.844  31.460  14.445
50427W        W22753  17.123   2.698  12.026
50428W        W22754  27.577   3.816  10.979
50429W        W22755  18.247  29.274  13.542
50430W        W22756  18.502  11.139   1.385
50431W        W22757  36.824   4.797   1.488
50432W        W22758  34.175   6.996   1.356
50433W        W22759  31.026  14.374  13.941
50434W        W22760  17.613  32.497  10.708
50435W        W22761  25.989  41.839  14.054
50436W        W22762  27.118  41.470   1.478
50437W        W22763  14.134  37.674   0.427
50438W        W22764  36.832  13.743   1.827
50439W        W22765  33.987  32.904  12.446
50440W        W22766  38.871  15.312  11.157
50441W        W22767   8.178  11.236   2.820
50442W        W22768   9.820  43.070  12.240
50443W        W22769  35.037  38.635   2.383
50444W        W22770   0.759  35.199   3.229
50445W        W22771  42.878   5.015  12.034
50446W        W22772  44.776  23.998   2.734
50447W        W22773  15.345   6.854  11.082
50448W        W22774   4.477   1.172  12.611
50449W        W22775  31.931  21.240  13.376
50450W        W22776  16.332  44.723  14.123
50451W        W22777  28.129  12.585   4.519
50452W        W22778   2.671  17.688   2.733
50453W        W22779  11.835  32.678   2.503
50454W        W22780   3.486   3.400  12.529
50455W        W22781  12.690  17.252   4.569
50456W        W22782  25.604  22.291   3.620
50457W        W22783  36.319  30.136   3.993
50458W        W22784  24.272  38.917  13.506
50459W        W22785  37.905  37.297   3.463
50460W        W22786   8.101  21.220  13.029
50461W        W22787  29.669   9.521   0.827
50462W        W22788  27.770  21.131   3.185
50463W        W22789  29.717  21.036   3.697
50464W        W22790  13.452  10.097   4.062
50465W        W22791  34.431  12.777  10.641
50466W        W22792  14.073   8.204  12.275
50467W        W22793  17.581  44.440   2.785
50468W        W22794  30.434  26.610  13.908
50469W        W22795  27.456  22.057  14.972
50470W        W22796  34.595  38.573   2.130
50471W        W22797  40.280  25.958   4.418
50472W        W22798  23.588  25.473   2.736
50473W        W22799  41.925   4.462   3.264
50474W        W22800   3.658   1.548  13.906
50475W        W22801  43.325  39.748   0.424
50476W        W22802  29.604  17.252  11.112
50477W        W22803   4.670  11.818   3.322
50478W        W22804  29.680  15.232  14.531
50479W        W22805  29.066  24.183  10.610
50480W        W22806  19.713  37.314  13.926
50481W        W22807  18.658   1.463  13.118
50482W        W22808   4.263  39.258   4.355
50483W        W22809  36.386  11.096  13.078
50484W        W22810   0.605  30.563  12.490
50485W        W22811   5.758  33.506   3.643
50486W        W22812  17.302  28.187   3.180
50487W        W22813   3.164   4.492   5.085
50488W        W22814  34.587  13.129   0.745
50489W        W22815  22.492  16.428  11.784
50490W        W22816   2.170  31.546   4.813
50491W        W22817   5.180   3.213   1.690
50492W        W22818   5.433   1.994   3.681
50493W        W22819  34.072  19.073   3.914
50494W        W22820  34.456   7.469   3.835
50495W        W22821  16.228  37.630   3.330
50496W        W22822   7.040  37.985  10.825
50497W        W22823  35.727  26.973  11.158
50498W        W22824  17.711   0.545  11.632
50499W        W22825   2.086  11.605   1.443
50500W        W22826  25.132  12.298   1.342
50501W        W22827   1.454  42.980  12.624
50502W        W22828   6.186   4.512  10.936
50503W        W22829  25.190  22.564  12.909
50504W        W22830  22.009  43.926  11.655
50505W        W22831  41.539   6.760   0.329
50506W        W22832  16.233  40.747  12.195
50507W        W22833  25.256   7.573   4.663
50508W        W22834  21.494  35.936  11.538
50509W        W22835   9.500  12.284  14.557
50510W        W22836   1.086  14.107   2.786
50511W        W22837  19.213  29.399   1.395
50512W        W22838  22.988  21.081   4.138
50513W        W22839  36.857  40.935   1.661
50514W        W22840  15.694  27.563  10.733
50515W        W22841   4.851  24.118  14.787
50516W        W22842  33.554  42.551  12.384
50517W        W22843   9.929  44.267  12.116
50518W        W22844  40.822  21.873  12.923
50519W        W22845  33.445  14.218   0.840
50520W        W22846  13.178  19.240  13.947
50521W        W22847  11.398  39.054  10.842
50522W        W22848  22.513  16.310  10.272
50523W        W22849  34.748   0.023   3.656
50524W        W22850  35.023  20.605   3.230
50525W        W22851  30.250  32.629   3.201
50526W        W22852  27.469  42.976  13.015
50527W        W22853   7.193  32.671   4.061
50528W        W22854  21.676  31.105  10.833
50529W        W22855  16.078  38.389   0.117
50530W        W22856  31.477   9.383  14.741
50531W        W22857  33.093   0.252   4.873
50532W        W22858  23.516  17.522  11.623
50533W        W22859  42.318  11.543   1.389
50534W        W22860  30.375  25.858   4.231
50535W        W22861  35.409  37.325  13.951
50536W        W22862  33.048  35.421  14.253
50537W        W22863   1.246  42.043  12.180
50538W        W22864  32.991   7.086  14.037
50539W        W22865  41.016  25.441   1.642
50540W        W22866  14.142  23.101  14.813
50541W        W22867   7.335  18.289   4.320
50542W        W22868   2.428  16.044  11.005
50543W        W22869  38.098  39.560   2.701
50544W        W22870   6.768  38.741  14.159
50545W        W22871  17.405  25.663   3.829
50546W        W22872  43.059   2.478   3.568
50547W        W22873   5.790   7.781  14.530
50548W        W22874  16.119   6.687   3.191
50549W        W22875   2.722  17.292  11.600
50550W        W22876  25.740  43.923  13.264
50551W        W22877  22.591   0.392   1.875
50552W        W22878  15.639  19.993   4.723
50553W        W22879   8.995  14.678  11.574
50554W        W22880  19.721  26.874   3.624
50555W        W22881  38.162   1.250   3.261
50556W        W22882   4.755  37.064  11.095
50557W        W22883  25.178   7.431   0.917
50558W        W22884  38.520  35.369   0.932
50559W        W22885   2.467   8.911  10.764
50560W        W22886   4.150   2.811   5.013
50561W        W22887  41.411   9.848  13.107
50562W        W22888  32.365  40.060  14.887
50563W        W22889  26.625  23.700   3.710
50564W        W22890  16.064  24.702  13.031
50565W        W22891  30.037   2.783  11.185
50566W        W22892  37.547  37.570  10.823
50567W        W22893  19.157  19.954  13.868
50568W        W22894   8.394  11.391   4.195
50569W        W22895  24.524  18.686   3.208
50570W        W22896  34.389   4.831   1.961
50571W        W22897  34.831  25.449  12.510
50572W        W22898  20.712  13.874   1.440
50573W        W22899  44.469  33.543  13.558
50574W        W22900  18.625   6.314  11.998
50575W        W22901  21.069   7.751   4.332
50576W        W22902  14.181  12.629   2.793
50577W        W22903  18.078  28.266  14.437
50578W        W22904  18.069  27.029   4.251
50579W        W22905  26.528  30.051  11.658
50580W        W22906  16.618   2.344  14.591
50581W        W22907  30.347   0.890  12.351
50582W        W22908   5.371  22.529  10.858
50583W        W22909  18.339  20.125   0.445
50584W        W22910  41.463   7.718   1.270
50585W        W22911  31.144  33.987  11.281
50586W        W22912  14.259  14.355   1.360
50587W        W22913  23.206  12.087   2.243
50588W        W22914   1.423  25.482   2.568
50589W        W22915  25.940  30.663   0.021
50590W        W22916  32.775   1.389  12.798
50591W        W22917  16.826   7.023   2.350
50592W        W22918  18.518  34.536  13.664
50593W        W22919   1.775  15.769   5.073
50594W        W22920  17.862  10.771   4.101
50595W        W22921  16.663  31.455  10.670
50596W        W22922  34.911  29.059   0.131
50597W        W22923  24.179  42.376  11.453
50598W        W22924   7.381  33.603   3.765
50599W        W22925   5.235   1.013  11.431
50600W        W22926   8.209   8.290   4.404
50601W        W22927  37.366  10.069  10.230
50602W        W22928  16.931   2.699   4.171
50603W        W22929  30.948  27.953   1.336
50604W        W22930  28.891  39.046   3.756
50605W        W22931  35.806  35.765   2.799
50606W        W22932  35.411  35.608  12.542
50607W        W22933  44.065   1.827   4.871
50608W        W22934   3.832   4.276  12.430
50609W        W22935  21.991  27.067   0.311
50610W        W22936  36.556   1.721  11.144
50611W        W22937  39.658   7.175  11.008
50612W        W22938   4.747  12.391  10.795
50613W        W22939   7.285  21.389   5.115
50614W        W22940   3.818  14.303   3.321
50615W        W22941   0.255  14.959   1.422
50616W        W22942   4.488  13.798   0.367
50617W        W22943  35.032  35.867  13.306
50618W        W22944  13.497  22.591  11.599
50619W        W22945  30.227  38.817   2.263
50620W        W22946  44.334  44.199  11.142
50621W        W22947   3.788  43.935  13.781
50622W        W22948  19.997  38.672  12.087
50623W        W22949  34.635   5.772  10.654
50624W        W22950  13.666   9.466  13.483
50625W        W22951   5.330   0.251  10.697
50626W        W22952   4.296  16.667  10.899
50627W        W22953  30.276  39.559   3.921
50628W        W22954  27.991  24.936  12.110
50629W        W22955  26.151  18.472   1.706
50630W        W22956  25.947  30.298   0.384
50631W        W22957  32.192  43.059   4.102
50632W        W22958  14.677  11.168   4.110
50633W        W22959  15.877  38.476  14.657
50634W        W22960  21.702   6.783  12.614
50635W        W22961  15.761  22.225  12.982
50636W        W22962   5.848  42.519   0.422
50637W        W22963  14.530  42.362   1.334
50638W        W22964  14.340  31.591   1.664
50639W        W22965  12.374  37.094   3.033
50640W        W22966   9.718  38.946   2.366
50641W        W22967   2.285  36.074  11.167
50642W        W22968  25.460   9.622   0.750
50643W        W22969   4.691  12.608  12.445
50644W        W22970  30.051   2.215  12.476
50645W        W22971  25.957  13.698  10.706
50646W        W22972   4.146  43.013   2.263
50647W        W22973   5.234  37.360  12.525
50648W        W22974  16.049  18.793  11.576
50649W        W22975  35.401  22.049  11.253
50650W        W22976  33.519  39.397   3.321
50651W        W22977  35.203  42.342  11.527
50652W        W22978  28.992  11.936   1.458
50653W        W22979   2.936   2.942  12.636
50654W        W22980   7.389  30.167  13.657
50655W        W22981  12.209   2.635  13.313
50656W        W22982   8.108  34.375   4.093
50657W        W22983  29.584  24.505   4.444
50658W        W22984  11.282  42.099   0.396
50659W        W22985  25.639  24.185  10.672
50660W        W22986  33.794   6.747  13.504
50661W        W22987  10.773  43.702  14.807
50662W        W22988  41.547  18.980  11.578
50663W        W22989   8.348  20.178  13.842
50664W        W22990  42.805  37.413  14.251
50665W        W22991  29.726  40.881  13.386
50666W        W22992  13.791  12.046  12.931
50667W        W22993   7.918  28.677  12.955
50668W        W22994   2.439   0.110   3.308
50669W        W22995   9.059  39.746   1.134
50670W        W22996   7.139  13.342  11.138
50671W        W22997  27.543  35.200  11.440
50672W        W22998   9.786  22.279  12.452
50673W        W22999  27.307  35.244   5.185
50674W        W23000  44.927  35.186  11.171
50675W        W23001   0.794   1.106  14.306
50676W        W23002  22.415  41.841   2.947
50677W        W23003  14.610  33.388   2.443
50678W        W23004   0.324  29.948   0.964
50679W        W23005  10.755   9.916  13.406
50680W        W23006  33.512   2.225  11.083
50681W        W23007  28.201  17.050  13.768
50682W        W23008  17.561  11.388  12.494
50683W        W23009  37.397  20.792   3.556
50684W        W23010  29.361  19.534  14.781
50685W        W23011  23.456  39.537   2.643
50686W        W23012  41.933   8.272   2.230
50687W        W23013   1.352  12.367  14.888
50688W        W23014  18.646  26.861  13.360
50689W        W23015  14.540   2.364  12.914
50690W        W23016   3.379   5.120  10.673
50691W        W23017   6.594  26.243   4.266
50692W        W23018  44.515  44.322   1.587
50693W        W23019  16.599  33.129  12.907
50694W        W23020  21.478  29.377   0.821
50695W        W23021  11.104  21.947  14.228
50696W        W23022  31.191   9.238   0.534
50697W        W23023  26.765  40.446   4.180
50698W        W23024  13.602  17.345   4.578
50699W        W23025  43.288  13.285  14.039
50700W        W23026  29.467  13.871  12.480
50701W        W23027  44.881   2.945  12.856
50702W        W23028  33.915  41.031  11.688
50703W        W23029  40.093  38.836  13.444
50704W        W23030   2.387  12.037  12.999
50705W        W23031  15.693  13.965   2.758
50706W        W23032  30.286  15.340   3.715
50707W        W23033   2.403  44.819  12.421
50708W        W23034  14.677  39.632   3.283
50709W        W23035   9.364  31.552  12.677
50710W        W23036  32.926  36.068  11.889
50711W        W23037   9.272  40.466   3.440
50712W        W23038  27.484  14.280   1.632
50713W        W23039   8.180  14.203  14.781
50714W        W23040  10.286  26.387  12.500
50715W        W23041  33.983   8.538  14.360
50716W        W23042  23.576   5.144   1.420
50717W        W23043   3.660  13.020   4.972
50718W        W23044  23.681  14.165  10.538
50719W        W23045  34.309  30.927   1.914
50720W        W23046  17.115  11.204   2.276
50721W        W23047  38.917  14.852  14.807
50722W        W23048  17.095   9.895   1.749
50723W        W23049  15.255  13.276  14.459
50724W        W23050   1.741  33.744   2.380
50725W        W23051  19.542  33.818   1.024
50726W        W23052  35.361  16.776   4.093
50727W        W23053   1.362  17.319   4.203
50728W        W23054   6.778  22.195  10.613
50729W        W23055  31.119   4.672  14.302
50730W        W23056  12.949   2.322  12.181
50731W        W23057  12.371  42.329   4.527
50732W        W23058   4.379  21.674  11.387
50733W        W23059  15.400  41.954  11.955
50734W        W23060  44.204  37.442  14.144
50735W        W23061  23.908   8.327   4.613
50736W        W23062   4.998  40.863   2.212
50737W        W23063  35.405   1.640   3.700
50738W        W23064   7.843  10.677   0.212
50739W        W23065  36.528  38.001  14.953
50740W        W23066  31.443  32.480   2.946
50741W        W23067  42.595  17.276   3.208
50742W        W23068  40.667   4.513  11.211
50743W        W23069  37.050  36.126  13.918
50744W        W23070  44.306  10.626   4.607
50745W        W23071  10.284  43.824   0.491
50746W        W23072  12.646   7.906  11.597
50747W        W23073   5.050  12.564   3.612
50748W        W23074   1.834  32.689   3.659
50749W        W23075   8.637   7.657   4.546
50750W        W23076  33.261  24.001   0.401
50751W        W23077  32.185  41.970   1.474
50752W        W23078  41.019  38.870   0.344
50753W        W23079  42.407  11.095   0.460
50754W        W23080  11.213  13.052   3.307
50755W        W23081  21.965   4.230   0.960
50756W        W23082   8.373  40.978   4.618
50757W        W23083  18.978  32.216  13.969
50758W        W23084  16.258  17.005   4.254
50759W        W23085  21.019  19.837   4.173
50760W        W23086  26.384  28.229   2.271
50761W        W23087  22.525  23.865  11.106
50762W        W23088  15.902  29.304   1.212
50763W        W23089   9.779  14.742  12.707
50764W        W23090  23.252  30.581  14.497
50765W        W23091  43.716  35.507   2.647
50766W        W23092  36.196  21.964  14.498
50767W        W23093   9.090   4.946   4.102
50768W        W23094  13.104   7.151  13.419
50769W        W23095  22.194  29.694  13.425
50770W        W23096   4.965  28.915  10.068
50771W        W23097  39.592  14.623  14.572
50772W        W23098  26.525  35.583  14.000
50773W        W23099  19.165   7.937   0.256
50774W        W23100   0.915   8.596  13.034
50775W        W23101  42.639  44.837   1.076
50776W        W23102  19.115  13.782  12.310
50777W        W23103  29.937   3.836  12.470
50778W        W23104   1.968  19.042  11.594
50779W        W23105  33.552  17.243  13.965
50780W        W23106  23.121  26.651   0.825
50781W        W23107  12.614   7.243   0.997
50782W        W23108   5.735  10.832   1.104
50783W        W23109  10.014  37.294  14.006
50784W        W23110   7.156  26.694  12.813
50785W        W23111  39.215  34.230   3.168
50786W        W23112   8.052  25.166  14.962
50787W        W23113  19.446   5.453  11.528
50788W        W23114  33.011  20.663  14.863
50789W        W23115  42.958   9.185   3.921
50790W        W23116  28.603  20.121   1.312
50791W        W23117  44.025  34.145   1.384
50792W        W23118   6.898  16.560  11.478
50793W        W23119   0.929  15.710  11.312
50794W        W23120   5.771  42.266   3.635
50795W        W23121  14.202  36.039   0.503
50796W        W23122  31.737  29.032  11.913
50797W        W23123  28.006  37.579   0.013
50798W        W23124   2.949   1.135   1.474
50799W        W23125   4.314   6.739  13.517
50800W        W23126  39.846  32.659  13.095
50801W        W23127  12.157  12.685  13.865
50802W        W23128  39.797  21.784  10.473
50803W        W23129  40.599   7.961  12.522
50804W        W23130  21.677  21.149  10.470
50805W        W23131   1.227  20.187  12.883
50806W        W23132  24.143  20.195  14.968
50807W        W23133  17.270  21.708   4.527
50808W        W23134  18.285  18.294   1.183
50809W        W23135  20.904  20.574  13.570
50810W        W23136  23.087  42.555  11.214
50811W        W23137  25.458  38.116  12.987
50812W        W23138  15.480  39.682  13.541
50813W        W23139  36.407  20.084   4.746
50814W        W23140  36.911  27.595   1.737
50815W        W23141  25.401  26.789   1.883
50816W        W23142  16.557  21.295  12.544
50817W        W23143  37.898  26.758  10.662
50818W        W23144  11.429   7.424  10.200
50819W        W23145   8.484   3.372  12.438
50820W        W23146  35.654  25.773   1.649
50821W        W23147  15.631  12.426  11.158
50822W        W23148  18.913   7.277   1.320
50823W        W23149  40.247  34.455   3.086
50824W        W23150  15.276  11.701   0.539
50825W        W23151  36.876  42.008   3.836
50826W        W23152  35.228  27.132  12.493
50827W        W23153  39.014  34.560   0.806
50828W        W23154  10.314  39.214   3.122
50829W        W23155  43.929  43.613  12.514
50830W        W23156  36.355  35.910  13.506
50831W        W23157   9.123   5.865  11.578
50832W        W23158   9.874   9.907  11.422
50833W        W23159  41.324  39.075   1.345
50834W        W23160  38.502  16.301   0.270
50835W        W23161  12.533  16.280   0.999
50836W        W23162  33.507  35.981  11.650
50837W        W23163  41.574  14.822   1.630
50838W        W23164  11.246  27.126   0.950
50839W        W23165  29.760  41.354   2.569
50840W        W23166  12.891   8.768  12.102
50841W        W23167  29.128  39.651   2.174
50842W        W23168  38.559  40.829  13.931
50843W        W23169  25.059  44.363   3.596
50844W        W23170   9.386  42.023  11.647
50845W        W23171  13.152  35.490   2.809
50846W        W23172  27.863  43.956  10.771
50847W        W23173  36.668   9.824  13.084
50848W        W23174  11.708   6.886   1.366
50849W        W23175  10.226  32.255  11.556
50850W        W23176  37.356  14.552   0.546
50851W        W23177  13.721  31.141   3.668
50852W        W23178   8.600  12.690  13.898
50853W        W23179  44.101  19.831  13.389
50854W        W23180  32.037   1.985  12.140
50855W        W23181  43.930  19.157  10.672
50856W        W23182  36.555  29.090  14.325
50857W        W23183  38.355  32.911  11.370
50858W        W23184   6.232  10.669   1.295
50859W        W23185  15.061   9.170  11.692
50860W        W23186  31.415  29.316   4.145
50861W        W23187  44.439  37.859   4.278
50862W        W23188  10.768  12.042  13.027
50863W        W23189  19.758  12.164   2.714
50864W        W23190  10.443  15.619  14.132
50865W        W23191   6.424   8.837  10.675
50866W        W23192  36.604  27.742  12.486
50867W        W23193  23.135  31.906  13.901
50868W        W23194   5.440   1.124   4.235
50869W        W23195   1.951  34.398  11.490
50870W        W23196   8.503  21.148  11.995
50871W        W23197  15.248  13.592   4.502
50872W        W23198  35.929   9.424   3.602
50873W        W23199  31.233  40.494   2.288
50874W        W23200  10.016  29.560   3.378
50875W        W23201   2.656  42.484  12.900
50876W        W23202  19.250   1.997  13.505
50877W        W23203  19.672  20.713  12.523
50878W        W23204  35.860   5.448  11.697
50879W        W23205   7.146  16.971  11.661
50880W        W23206  33.448  20.021   3.130
50881W        W23207  30.143  17.466   2.269
50882W        W23208  39.309  25.976  14.894
50883W        W23209  24.092   1.232  14.011
50884W        W23210  29.084  41.797   2.631
50885W        W23211  35.452  33.943  12.800
50886W        W23212  25.929  23.623  12.768
50887W        W23213  36.648  25.138   2.582
50888W        W23214   4.437  21.559  11.888
50889W        W23215   9.066  44.558  14.007
50890W        W23216  17.371  21.669  12.319
50891W        W23217  42.131   5.039   1.256
50892W        W23218  31.151  18.198  14.836
50893W        W23219   2.099  19.171  13.444
50894W        W23220  42.279  30.171  12.555
50895W        W23221  11.291  28.672  13.768
50896W        W23222  30.412  44.898  11.251
50897W        W23223  12.851  36.356  14.800
50898W        W23224  40.043  41.540   4.108
50899W        W23225  14.662  22.329  13.765
50900W        W23226  38.842  25.606  11.202
50901W        W23227  15.707  43.357  12.208
50902W        W23228  18.886   8.420  12.119
50903W        W23229  39.531  10.786  12.874
50904W        W23230   5.668  33.320  11.476
50905W        W23231   7.170   3.874   0.511
50906W        W23232   9.782  43.898  13.070
50907W        W23233   7.335  33.859  14.439
50908W        W23234  44.072  29.013   1.412
50909W        W23235  37.066  20.037  11.208
50910W        W23236   2.446  32.618  14.338
50911W        W23237  10.941   3.053  10.791
50912W        W23238   1.175  34.044   2.319
50913W        W23239  21.450  36.408   4.664
50914W        W23240  33.305  10.167  10.713
50915W        W23241   3.984  22.290   0.368
50916W        W23242  17.768  24.490   1.408
50917W        W23243  11.286  39.418   2.689
50918W        W23244  39.737  17.340   3.717
50919W        W23245  29.603  39.594  14.391
50920W        W23246  35.493   0.856  10.957
50921W        W23247  30.525  30.027   0.679
50922W        W23248   8.864  38.803  13.431
50923W        W23249  36.890   1.681  11.543
50924W        W23250   9.446  23.289   0.766
50925W        W23251  24.540  43.534   4.710
50926W        W23252  40.276  20.711   4.874
50927W        W23253  44.731   6.807   2.251
50928W        W23254  11.898  30.138   2.396
50929W        W23255   0.890  19.727  10.825
50930W        W23256   2.995  40.354  12.879
50931W        W23257  39.894  19.089   1.662
50932W        W23258  39.052   5.330  11.678
50933W        W23259  19.330  37.607   0.444
50934W        W23260  43.902   9.313   1.366
50935W        W23261  17.713   8.005   4.219
50936W        W23262   4.853   2.774   0.960
50937W        W23263   4.448  20.848  14.052
50938W        W23264   2.371   1.689  13.573
50939W        W23265  33.764  17.756   2.239
50940W        W23266   1.963  23.482  13.860
50941W        W23267  12.963  39.387   0.207
50942W        W23268   1.437  28.243   0.627
50943W        W23269  25.192  11.895  14.310
50944W        W23270  38.862   8.310   3.587
50945W        W23271  20.196  12.722   3.309
50946W        W23272   2.399  12.787   0.399
50947W        W23273  34.169  44.725   1.698
50948W        W23274  22.420  37.600   0.900
50949W        W23275  43.684  38.123   2.695
50950W        W23276  12.608  41.001   2.151
50951W        W23277   4.423  35.690   4.795
50952W        W23278   3.873  44.252   3.091
50953W        W23279   3.770  20.896   3.149
50954W        W23280  36.461  30.823   1.783
50955W        W23281  36.591  16.112  14.396
50956W        W23282  32.753   4.646  11.326
50957W        W23283  13.798  25.304  11.939
50958W        W23284  32.481  30.420  10.041
50959W        W23285  36.619  10.771   2.974
50960W        W23286   8.248   5.361  14.750
50961W        W23287  35.379   8.212   3.696
50962W        W23288   2.196  44.951   0.472
50963W        W23289  31.467  34.212   3.177
50964W        W23290  32.470   2.418   3.818
50965W        W23291  29.353  28.886  10.121
50966W        W23292   7.204  44.913  14.923
50967W        W23293  26.116   6.763  10.554
50968W        W23294  11.347   9.793   3.123
50969W        W23295  22.248  33.867   0.333
50970W        W23296  13.576   6.637  11.578
50971W        W23297  34.914   7.335   3.616
50972W        W23298  36.172   5.342   4.024
50973W        W23299  26.499  21.524  12.660
50974W        W23300   6.128  29.053   4.197
50975W        W23301  24.034  19.978   3.270
50976W        W23302  40.806  10.365   1.366
50977W        W23303  38.378  15.169   3.216
50978W        W23304  24.720   5.934  13.021
50979W        W23305   4.380   3.972   4.584
50980W        W23306  30.411  36.085  12.043
50981W        W23307  39.160  23.534  11.994
50982W        W23308   9.216   4.114  12.102
50983W        W23309   1.777  40.778  14.513
50984W        W23310  31.935  37.428  11.944
50985W        W23311   7.934  22.580  13.483
50986W        W23312  14.407  38.970  11.545
50987W        W23313  18.788  10.207  10.215
50988W        W23314   2.498  42.628   2.826
50989W        W23315  33.555  23.070  12.380
50990W        W23316  36.532  24.321  11.172
50991W        W23317  33.787  15.794   5.199
50992W        W23318  17.569   3.713   1.344
50993W        W23319  44.957  17.755   4.032
50994W        W23320  30.593   5.480  11.979
50995W        W23321  44.789  13.692   3.666
50996W        W23322  28.620  16.820  11.027
50997W        W23323  13.435   1.861  13.115
50998W        W23324  22.090  28.011   0.233
50999W        W23325  14.270  18.879  12.515
51000W        W23326  42.014  18.745  12.819
51001W        W23327  14.575  29.455   1.417
51002W        W23328  26.877  42.891   2.342
51003W        W23329  27.537  28.402   2.376
51004W        W23330  12.604  36.559  10.173
51005W        W23331  29.639  11.174   1.188
51006W        W23332  20.266   7.404  13.985
51007W        W23333   9.652  22.217  14.238
51008W        W23334  44.247  36.060  11.696
51009W        W23335  29.401  22.236   4.195
51010W        W23336  30.394  24.588  10.618
51011W        W23337  32.988   8.468  11.138
51012W        W23338  19.795  42.068   2.906
51013W        W23339  15.353  13.582   1.177
51014W        W23340  19.939   0.316  13.323
51015W        W23341  25.371   0.213  12.016
51016W        W23342  38.071  26.182  11.516
51017W        W23343   9.270   3.748   0.941
51018W        W23344  19.194  33.088  13.917
51019W        W23345   4.164  22.191   4.653
51020W        W23346   1.647  18.961   1.363
51021W        W23347  17.034  28.140  10.529
51022W        W23348  39.897  27.792  10.671
51023W        W23349   8.800  43.538  10.989
51024W        W23350   9.582  31.720  14.429
51025W        W23351   9.949  16.953  13.225
51026W        W23352  28.259  26.015   0.166
51027W        W23353  34.607  13.537   3.285
51028W        W23354  37.105  29.214  11.112
51029W        W23355  38.412   2.293  11.139
51030W        W23356  15.713  26.095   0.537
51031W        W23357   9.921   7.920  11.066
51032W        W23358   3.948  40.315  13.629
51033W        W23359  18.636  10.479  14.815
51034W        W23360   3.359  40.838  13.505
51035W        W23361   0.500   8.782  12.806
51036W        W23362   6.333  41.284   4.228
51037W        W23363   1.999  18.015  12.648
51038W        W23364  42.724   7.650  10.955
51039W        W23365  21.469  31.524   4.089
51040W        W23366   8.371  27.079  12.457
51041W        W23367  11.293  14.275   4.213
51042W        W23368  33.549  13.737   0.680
51043W        W23369   1.975  43.508  12.995
51044W        W23370  26.376  11.751   0.900
51045W        W23371   8.953   1.430  11.841
51046W        W23372  33.936  19.948   4.977
51047W        W23373   2.163  16.760  12.821
51048W        W23374   1.209  43.885  13.933
51049W        W23375  12.183  42.110   2.652
51050W        W23376  30.537  35.038   3.008
51051W        W23377   0.760  34.447  11.220
51052W        W23378  29.286  27.689   1.274
51053W        W23379   2.859  11.190  11.201
51054W        W23380  41.562  42.554  12.370
51055W        W23381   8.237   6.307  12.835
51056W        W23382   1.513  44.437   1.489
51057W        W23383  26.892  28.597   4.169
51058W        W23384   1.833  30.604   4.520
51059W        W23385  23.633  33.547  10.604
51060W        W23386  10.854   8.568  11.189
51061W        W23387   0.998  36.794   2.214
51062W        W23388  38.735   9.944   4.262
51063W        W23389  42.297  26.647  14.767
51064W        W23390  12.338   4.353   2.915
51065W        W23391   0.527  33.102   2.575
51066W        W23392  36.607  38.291   2.266
51067W        W23393  26.999  30.106   2.970
51068W        W23394  24.390  18.223   4.764
51069W        W23395  44.230  19.675   4.242
51070W        W23396  22.031  28.673   2.537
51071W        W23397  12.080   0.053   4.330
51072W        W23398  42.544  39.885  11.141
51073W        W23399   7.850  28.417   0.724
51074W        W23400  26.489   2.427   2.147
51075W        W23401  34.794  23.573   4.477
51076W        W23402  36.112  35.362   3.737
51077W        W23403  18.158  14.388  14.799
51078W        W23404   4.229  18.214   2.887
51079W        W23405  23.590  40.012  12.111
51080W        W23406  10.991  12.614  12.124
51081W        W23407   9.979  19.020  12.204
51082W        W23408  19.660  18.368  14.965
51083W        W23409  21.717   0.325   3.710
51084W        W23410  36.369  42.788  13.468
51085W        W23411  40.115  16.677   1.547
51086W        W23412  18.261  26.870  12.064
51087W        W23413  33.226  22.677  13.077
51088W        W23414  17.678  38.486  10.558
51089W        W23415  39.915  34.534   0.805
51090W        W23416  14.139  35.384  14.805
51091W        W23417  39.747  33.554  12.933
51092W        W23418  42.267  35.503  11.444
51093W        W23419  22.537  44.057  14.981
51094W        W23420  32.401  11.187   4.646
51095W        W23421   0.738  41.135   0.070
51096W        W23422  16.757  10.756   0.029
51097W        W23423   4.665  20.732   2.378
51098W        W23424  14.562  44.147   2.797
51099W        W23425  40.577  23.322   4.165
51100W        W23426  16.125   4.488   4.057
51101W        W23427   0.412  28.419  14.052
51102W        W23428  13.041   0.351   4.242
51103W        W23429  12.931  16.617   2.302
51104W        W23430   7.315   1.405  11.591
51105W        W23431  12.847   3.332  12.116
51106W        W23432   1.004   0.862   0.060
51107W        W23433  15.581  15.072  11.686
51108W        W23434  28.394  40.055  13.043
51109W        W23435   2.802  27.576  13.984
51110W        W23436  37.837  21.478  11.880
51111W        W23437   0.308   0.762  10.677
51112W        W23438  30.500  13.632  12.125
51113W        W23439  27.201  28.780  12.499
51114W        W23440  24.539  10.929  11.251
51115W        W23441  10.426  13.285   5.123
51116W        W23442  36.453   7.412   2.415
51117W        W23443   2.983  36.405   1.268
51118W        W23444  18.633  40.766  11.232
51119W        W23445  21.207  32.912  14.875
51120W        W23446  11.850   2.157   0.882
51121W        W23447  28.453  21.640   0.897
51122W        W23448   0.230   1.916  14.290
51123W        W23449   4.246  32.532  10.759
51124W        W23450  39.893  15.005  14.928
51125W        W23451  18.052  20.861  11.181
51126W        W23452   1.770   3.287  12.037
51127W        W23453  13.222   0.441  12.961
51128W        W23454  32.433  36.434   0.818
51129W        W23455   3.041   5.727   3.879
51130W        W23456  38.842  33.636  14.827
51131W        W23457   6.370  28.351   1.782
51132W        W23458  37.931  19.666   3.192
51133W        W23459  12.108  25.614   2.304
51134W        W23460  25.951   9.891  13.099
51135W        W23461  22.448  22.108   1.102
51136W        W23462  34.955  39.751  13.753
51137W        W23463  16.556  34.362   3.181
51138W        W23464  24.069  31.571   1.262
51139W        W23465  15.764  26.272   1.696
51140W        W23466   0.252  42.797   1.898
51141W        W23467  14.459  15.138   4.730
51142W        W23468   9.630  44.746   3.967
51143W        W23469  41.740  32.027  10.966
51144W        W23470  30.557  43.360   2.899
51145W        W23471   8.370   9.190  13.798
51146W        W23472  31.454  23.116  11.929
51147W        W23473  28.134  34.155  12.980
51148W        W23474  34.543  16.328  12.942
51149W        W23475  23.263  14.638   4.021
51150W        W23476  14.148  13.626  12.004
51151W        W23477  44.069  10.233   4.362
51152W        W23478  43.338   5.905   2.226
51153W        W23479  26.284  24.994   1.240
51154W        W23480  31.467  12.662   1.267
51155W        W23481  37.495  24.252   3.134
51156W        W23482  14.056  10.201   0.045
51157W        W23483  35.304  24.067  11.490
51158W        W23484  24.491  24.395   2.743
51159W        W23485  12.965  41.691   2.764
51160W        W23486   9.096   7.866   3.565
51161W        W23487  12.118  14.954  13.166
51162W        W23488  43.629  41.917   3.592
51163W        W23489   8.125  30.682   4.999
51164W        W23490  35.617  17.600   0.970
51165W        W23491  25.603   0.366  10.770
51166W        W23492  14.630  31.185  14.421
51167W        W23493  33.614   8.803  12.640
51168W        W23494  44.978  33.562  12.329
51169W        W23495  16.873  14.775   4.105
51170W        W23496  11.400  43.344  13.218
51171W        W23497  33.104  41.882  12.507
51172W        W23498  41.029  32.991   2.649
51173W        W23499  20.305   3.910   2.346
51174W        W23500  41.075  21.760  11.006
51175W        W23501   7.611  34.131   2.222
51176W        W23502  37.323  27.525  14.731
51177W        W23503  26.925  33.401  10.551
51178W        W23504  37.476   2.989   1.945
51179W        W23505   4.934  43.346   3.686
51180W        W23506  25.471  41.761  11.182
51181W        W23507  28.387   1.203  11.187
51182W        W23508  28.088   7.317   3.591
51183W        W23509   1.223  15.015   2.370
51184W        W23510  26.560   7.912   1.855
51185W        W23511  21.702  23.167   2.779
51186W        W23512   9.340   7.826   2.711
51187W        W23513  32.174  18.121   1.203
51188W        W23514  14.251   5.875  13.653
51189W        W23515  22.313  21.583   2.270
51190W        W23516  11.332  22.404   1.767
51191W        W23517   4.919  22.814  10.984
51192W        W23518  23.929  19.231   4.022
51193W        W23519   0.455  13.810  11.885
51194W        W23520  24.651  44.932   4.317
51195W        W23521  22.176  24.716   4.760
51196W        W23522  34.602  24.059  10.905
51197W        W23523  18.092  24.747  10.532
51198W        W23524  30.529  10.198  11.473
51199W        W23525   9.359  19.515   1.358
51200W        W23526  16.172  13.641   1.627
51201W        W23527  40.881  18.474   3.920
51202W        W23528   5.535  34.419   0.308
51203W        W23529  21.037   6.683  13.428
51204W        W23530  24.580   1.202  13.828
51205W        W23531  37.186  10.702   0.123
51206W        W23532  35.000  33.650   3.295
51207W        W23533  14.306   1.164  12.429
51208W        W23534   4.108  22.243   2.903
51209W        W23535  17.259   5.242  14.978
51210W        W23536  24.044  13.586   2.075
51211W        W23537  32.123  24.599  13.337
51212W        W23538  39.016   5.602   4.275
51213W        W23539  29.100  27.866  14.487
51214W        W23540  34.020  26.384  12.908
51215W        W23541  29.149  44.526  12.543
51216W        W23542  31.951  15.740  12.618
51217W        W23543  29.122  11.739  13.545
51218W        W23544  13.246  31.439   3.277
51219W        W23545  23.187  14.207  14.977
51220W        W23546  21.270  22.244   2.709
51221W        W23547   7.922   9.577   2.256
51222W        W23548  31.605   0.922   2.178
51223W        W23549  40.173  42.951  14.886
51224W        W23550   0.858   0.799   1.567
51225W        W23551  21.919  40.313   1.791
51226W        W23552  13.319   9.327   2.613
51227W        W23553  37.601  26.249  11.704
51228W        W23554  31.911  11.577   1.448
51229W        W23555  11.599  25.089  11.512
51230W        W23556   1.942  41.253   0.722
51231W        W23557  11.076  28.140  10.717
51232W        W23558  44.418  32.656  14.930
51233W        W23559  26.715  13.341  14.328
51234W        W23560   4.142  42.293   0.897
51235W        W23561  24.957  27.959   0.827
51236W        W23562  35.526  26.677   3.349
51237W        W23563  37.853  44.953  10.565
51238W        W23564  30.629  35.830   0.183
51239W        W23565   7.479  15.076  12.328
51240W        W23566  40.719  38.899   3.305
51241W        W23567   9.694  20.515   3.220
51242W        W23568  38.591  38.639  13.461
51243W        W23569  21.664  26.460  13.086
51244W        W23570  26.241  40.433   4.185
51245W        W23571  38.138  28.854  12.092
51246W        W23572  12.258  23.137  14.354
51247W        W23573  29.317  33.409  11.731
51248W        W23574  24.974  23.804  12.038
51249W        W23575  22.493  41.236   2.355
51250W        W23576  17.124  13.473   3.395
51251W        W23577   7.999   0.333  13.547
51252W        W23578   1.530  28.133   1.951
51253W        W23579   9.129  44.394  11.545
51254W        W23580  12.362  27.977  14.979
51255W        W23581  43.000  42.379  13.505
51256W        W23582   2.428   2.638  10.490
51257W        W23583  25.561  11.452   2.602
51258W        W23584  13.420  29.947   4.912
51259W        W23585  15.294   0.298  12.534
51260W        W23586  15.198   9.895  14.846
51261W        W23587   2.122  20.520   2.197
51262W        W23588  33.432  44.905  11.956
51263W        W23589  14.382  16.041  12.532
51264W        W23590  15.798   3.414   4.105
51265W        W23591  13.434  35.413   2.132
51266W        W23592   3.119  31.259   2.816
51267W        W23593  33.006  43.806  14.005
51268W        W23594   5.653  42.005  14.415
51269W        W23595   4.498  15.675  14.095
51270W        W23596  35.426   0.903   1.862
51271W        W23597  17.352  22.077  14.503
51272W        W23598  35.915  31.960  10.665
51273W        W23599   6.435  30.570  13.107
51274W        W23600  16.880  38.224   2.250
51275W        W23601   8.822  27.579  12.889
51276W        W23602  17.686  15.614  13.390
51277W        W23603  31.036   0.807  14.753
51278W        W23604  32.758   8.177  12.276
51279W        W23605  18.099  34.816  13.799
51280W        W23606  35.286  21.747   2.353
51281W        W23607  17.067  29.930   0.951
51282W        W23608   1.896  10.167  12.634
51283W        W23609  37.061  30.197  14.295
51284W        W23610  43.261  19.382  11.490
51285W        W23611  26.995  26.196  14.407
51286W        W23612  12.665  18.151   1.971
51287W        W23613  32.815  17.680   2.015
51288W        W23614   8.174  43.926   0.972
51289W        W23615  26.852  16.593  13.373
51290W        W23616  43.630  12.155  12.678
51291W        W23617   1.746  20.970   3.285
51292W        W23618  42.435  10.211   2.653
51293W        W23619  10.552  15.980  10.899
51294W        W23620  12.792  42.872  14.974
51295W        W23621  27.527  17.184  14.440
51296W        W23622  30.554   1.963   2.343
51297W        W23623  17.826  18.189  12.936
51298W        W23624  19.859  27.676  14.335
51299W        W23625  22.600  11.222  12.870
51300W        W23626  40.345   3.805   2.183
51301W        W23627  21.808  38.047   1.326
51302W        W23628  23.992   6.718  14.860
51303W        W23629  36.605   5.797   2.724
51304W        W23630  26.900  16.749   3.106
51305W        W23631   3.691  20.985   1.774
51306W        W23632  42.581  32.042  14.357
51307W        W23633  39.428   8.066  11.237
51308W        W23634   7.693   6.421  12.060
51309W        W23635  39.832  12.215  12.464
51310W        W23636  25.233  36.095  10.933
51311W        W23637  42.887  19.580  12.118
51312W        W23638  20.533  15.122   4.777
51313W        W23639  18.812   5.064  13.420
51314W        W23640  31.413  15.252   2.435
51315W        W23641   3.628  40.654  14.437
51316W        W23642  42.843   5.337   0.412
51317W        W23643   0.314  26.423   0.324
51318W        W23644  25.216  37.851   3.619
51319W        W23645  42.855  39.053  12.973
51320W        W23646   2.519  20.046  12.978
51321W        W23647   4.150  13.183  10.586
51322W        W23648  32.900  42.053   1.949
51323W        W23649  28.509  12.172  11.877
51324W        W23650  14.308  33.522   5.083
51325W        W23651   3.661  39.914   4.669
51326W        W23652  23.375  25.663   1.752
51327W        W23653  43.229  12.846   0.869
51328W        W23654  32.514  22.965  10.460
51329W        W23655  34.123  24.197  10.680
51330W        W23656  33.629   5.932  10.729
51331W        W23657  34.707  28.612   1.830
51332W        W23658  29.621  19.749   0.403
51333W        W23659  28.569  43.560  13.571
51334W        W23660   3.349  32.911   2.241
51335W        W23661   0.831  28.765  14.048
51336W        W23662   0.404  34.409   3.287
51337W        W23663  23.592  18.776   1.834
51338W        W23664   2.262  16.216   3.378
51339W        W23665  20.581  43.034  12.757
51340W        W23666  30.653  32.343  12.346
51341W        W23667  42.021  29.912   0.342
51342W        W23668  41.796  25.389  13.187
51343W        W23669  16.981   6.584   4.118
51344W        W23670  22.091  25.709   1.197
51345W        W23671  35.952  11.013   5.503
51346W        W23672  12.257  39.772  13.468
51347W        W23673   8.459  32.863  12.034
51348W        W23674   9.270  23.754   0.901
51349W        W23675  27.630  32.024  11.797
51350W        W23676   3.919  25.944   0.896
51351W        W23677   3.463  32.444   2.367
51352W        W23678  28.195   1.370  14.960
51353W        W23679  32.858   8.709   4.974
51354W        W23680  19.238  13.925  13.301
51355W        W23681  41.312  25.160   0.201
51356W        W23682  40.531  43.296   2.805
51357W        W23683   0.808   9.121   4.420
51358W        W23684   0.761  18.749  13.966
51359W        W23685  23.659  18.040   0.271
51360W        W23686  23.131   6.402  12.902
51361W        W23687   2.800  29.060   1.577
51362W        W23688   7.319   9.227  14.357
51363W        W23689  31.574  18.574  14.338
51364W        W23690  36.915  38.204   0.289
51365W        W23691  21.815  27.149  11.011
51366W        W23692   4.025  34.601  11.504
51367W        W23693  42.260  14.190  13.514
51368W        W23694   9.767  25.149  12.058
51369W        W23695  23.775  43.212   4.174
51370W        W23696   9.794   6.195  10.537
51371W        W23697  16.127  18.278  14.845
51372W        W23698  16.778  21.278  11.623
51373W        W23699  14.915  36.627   2.629
51374W        W23700  38.859  43.991   0.818
51375W        W23701   1.441  23.765  11.098
51376W        W23702  37.573   0.385   2.411
51377W        W23703  22.643  13.060  14.421
51378W        W23704  29.813  31.810   5.008
51379W        W23705   5.164   6.758   1.960
51380W        W23706   2.215  40.784  13.965
51381W        W23707  31.299  31.953   1.226
51382W        W23708  14.771  14.210   2.653
51383W        W23709  37.830   7.870   2.571
51384W        W23710  17.287  42.046  14.119
51385W        W23711  39.966  14.109  13.099
51386W        W23712  30.569  42.042   4.077
51387W        W23713  16.688   2.956  12.073
51388W        W23714   1.662  41.708  13.068
51389W        W23715   3.293  39.817  12.501
51390W        W23716  35.496   4.266   2.238
51391W        W23717   9.812  25.244  11.119
51392W        W23718  21.798  39.056   4.961
51393W        W23719  42.295  40.465   3.392
51394W        W23720   6.013  31.905  12.846
51395W        W23721   1.105   1.501  13.979
51396W        W23722  22.924  11.240   2.005
51397W        W23723  43.213  26.214   2.418
51398W        W23724   4.135  25.148   0.803
51399W        W23725  42.869   4.250   3.596
51400W        W23726  36.138   9.924  10.599
51401W        W23727  24.227  43.953  11.193
51402W        W23728  29.636  19.808   3.337
51403W        W23729  31.691  35.474  13.451
51404W        W23730  37.531  31.117   3.636
51405W        W23731  31.616   5.306   0.777
51406W        W23732  39.993  16.501   3.252
51407W        W23733  36.686   8.735  11.508
51408W        W23734   4.792  14.982   0.906
51409W        W23735  37.801  16.418   0.941
51410W        W23736   7.731  26.608   2.719
51411W        W23737   5.480  24.591  13.740
51412W        W23738  10.337  17.152   0.879
51413W        W23739   4.205  38.830  11.078
51414W        W23740   1.928   9.785  10.374
51415W        W23741  22.496  29.478  14.736
51416W        W23742  20.951   4.981  12.444
51417W        W23743  33.978  22.474  12.663
51418W        W23744  38.173   2.202  13.481
51419W        W23745  19.474  36.937  13.429
51420W        W23746  22.681  24.011  13.308
51421W        W23747   3.255   7.697  12.046
51422W        W23748   0.769  36.403  10.672
51423W        W23749  26.967  13.799   3.117
51424W        W23750  42.737  14.156   3.548
51425W        W23751   5.916  15.651   3.697
51426W        W23752  13.773  15.629   0.281
51427W        W23753  25.135  34.189  11.188
51428W        W23754  36.901  31.851  14.996
51429W        W23755  29.516  13.118   2.706
51430W        W23756  20.796  43.800  10.972
51431W        W23757  36.517  10.097  11.423
51432W        W23758  24.987  40.355   4.647
51433W        W23759   9.597  11.393  13.544
51434W        W23760  28.522  28.650   1.605
51435W        W23761  35.379   9.533   1.329
51436W        W23762  41.398   5.831  14.500
51437W        W23763  38.918  33.478   3.674
51438W        W23764   3.225  20.133   0.818
51439W        W23765  17.521  34.164  14.805
51440W        W23766  40.507  43.298   3.740
51441W        W23767  28.087  26.511   0.057
51442W        W23768   7.955  37.435   3.327
51443W        W23769   3.689  27.163   3.151
51444W        W23770  31.950  35.073   4.072
51445W        W23771   2.845  41.006  13.524
51446W        W23772  11.807   1.410   3.757
51447W        W23773  44.751   4.329   3.962
51448W        W23774  29.515  20.808   2.352
51449W        W23775  28.235  35.981   1.119
51450W        W23776   8.723  13.608   0.159
51451W        W23777  38.574   2.260  12.032
51452W        W23778  19.529  33.574  11.567
51453W        W23779   1.926  17.737   4.070
51454W        W23780  43.855   4.904   1.914
51455W        W23781   4.841  16.842  12.589
51456W        W23782  18.511  31.991   2.287
51457W        W23783  21.579  29.683   4.501
51458W        W23784   1.211   7.208  10.324
51459W        W23785   4.776  24.915   4.141
51460W        W23786  29.001  42.515   3.200
51461W        W23787  27.860  30.456   4.641
51462W        W23788  29.171  18.165  13.197
51463W        W23789  33.352  29.068   4.374
51464W        W23790  23.778   7.411   4.273
51465W        W23791  14.611  37.407  10.080
51466W        W23792  40.861  39.936  11.920
51467W        W23793  24.377   8.798   0.414
51468W        W23794  26.818  36.046   1.199
51469W        W23795  38.872  10.724   4.681
51470W        W23796  41.354  21.610   0.384
51471W        W23797  12.854  18.252   0.920
51472W        W23798   8.613   4.126   2.400
51473W        W23799  21.728  34.137  11.119
51474W        W23800   3.427   7.824   4.625
51475W        W23801  10.568  39.102  11.540
51476W        W23802  25.379  32.251   9.752
51477W        W23803  21.096  31.780   4.971
51478W        W23804  20.794  12.357   4.606
51479W        W23805  25.809  20.512  11.573
51480W        W23806  33.179  28.127   1.235
51481W        W23807  28.610   3.061  14.340
51482W        W23808  20.588  41.098  13.061
51483W        W23809  10.366  31.804   4.524
51484W        W23810   2.563  16.688   0.094
51485W        W23811  28.999  19.344   3.494
51486W        W23812   3.734   2.456  10.618
51487W        W23813  26.844  19.683   5.032
51488W        W23814  11.767  32.822  12.757
51489W        W23815   0.877  27.730  10.594
51490W        W23816  37.514  17.115   4.146
51491W        W23817   3.198  19.724   2.860
51492W        W23818  10.887  17.662   4.155
51493W        W23819  30.568  31.853  10.232
51494W        W23820   6.165  19.707  10.354
51495W        W23821  16.498  36.009  14.774
51496W        W23822  38.462  41.880   0.381
51497W        W23823  31.898  22.315   0.529
51498W        W23824  30.057  43.365   2.710
51499W        W23825   1.478  22.809   4.075
51500W        W23826  43.890  39.981   0.985
51501W        W23827  19.022  30.898  11.995
51502W        W23828  14.078  33.783   1.250
51503W        W23829  21.094  37.661   2.415
51504W        W23830  22.521  36.438   1.015
51505W        W23831   3.191  28.735  13.581
51506W        W23832  22.233  28.244   0.696
51507W        W23833  23.393  21.018   1.270
51508W        W23834  39.481  43.508  12.424
51509W        W23835   0.250  27.662  11.750
51510W        W23836  28.365  22.071  13.065
51511W        W23837  37.297  16.745   3.420
51512W        W23838  15.721  23.110  11.140
51513W        W23839   4.220  44.562   1.542
51514W        W23840  34.663  11.412   0.046
51515W        W23841  10.642  43.823   1.351
51516W        W23842   9.410  35.451  13.175
51517W        W23843   4.438  13.266  12.913
51518W        W23844   7.553  37.918   2.042
51519W        W23845  44.526  21.752  12.817
51520W        W23846   1.309  28.293   3.462
51521W        W23847  24.067  38.806   4.628
51522W        W23848   2.140  16.732   3.296
51523W        W23849  40.004   3.736  12.782
51524W        W23850  17.798  38.541  13.449
51525W        W23851  44.202   4.849   4.789
51526W        W23852   1.120   5.578  11.516
51527W        W23853  15.827   2.776   1.843
51528W        W23854  40.289  15.150   3.672
51529W        W23855  27.605  23.940  11.098
51530W        W23856  33.306  10.111   5.054
51531W        W23857  36.956  19.185  13.845
51532W        W23858  23.825   4.374   1.729
51533W        W23859   5.237  25.984  11.250
51534W        W23860  17.167  26.707  14.894
51535W        W23861   5.220   7.246  13.444
51536W        W23862  33.512  34.451  10.589
51537W        W23863  42.443  18.599  14.959
51538W        W23864  27.966  36.814   0.693
51539W        W23865  27.819  20.073   3.172
51540W        W23866  25.076  14.134  10.576
51541W        W23867  40.752  10.175  11.053
51542W        W23868  14.173  36.093  11.596
51543W        W23869  10.339  17.857   2.711
51544W        W23870  19.214  39.512  13.511
51545W        W23871  10.718  19.596   0.817
51546W        W23872   2.351  29.518   1.333
51547W        W23873   9.199   6.258   4.342
51548W        W23874  19.661   2.398  14.450
51549W        W23875  27.976  16.609  13.956
51550W        W23876  13.695  32.536  13.402
51551W        W23877  39.398   5.305   4.050
51552W        W23878  31.745  14.578   0.427
51553W        W23879  13.495  34.134   1.809
51554W        W23880   3.429  19.200  13.019
51555W        W23881  20.111  42.726  10.541
51556W        W23882  40.606   2.954  11.577
51557W        W23883  36.039   0.719   4.404
51558W        W23884  16.647   9.858   1.374
51559W        W23885  34.343  41.108   4.517
51560W        W23886  25.317  10.593   0.778
51561W        W23887  42.361  36.933   3.766
51562W        W23888  13.078  20.635   2.565
51563W        W23889   4.652  18.126   4.617
51564W        W23890   1.005  25.721  12.588
51565W        W23891  31.377  40.571  14.693
51566W        W23892   3.945   7.471  13.580
51567W        W23893  41.523   7.577   5.180
51568W        W23894  27.509   3.738   0.245
51569W        W23895  28.917  40.115  11.133
51570W        W23896  36.684   3.401  12.887
51571W        W23897   2.503  40.998   0.346
51572W        W23898   1.228   1.827   4.218
51573W        W23899  38.844   2.503   2.811
51574W        W23900   1.005  13.797   4.452
51575W        W23901  16.091  26.020   1.383
51576W        W23902   5.552  18.938  14.409
51577W        W23903  15.119  37.408  10.669
51578W        W23904  25.007   4.442  10.985
51579W        W23905  32.536  31.926  11.620
51580W        W23906  12.173  33.892  11.931
51581W        W23907  33.256  33.434   4.465
51582W        W23908  17.142   6.769  13.012
51583W        W23909  28.376  25.194  11.832
51584W        W23910  37.471  37.083  14.778
51585W        W23911   1.695   2.928   5.130
51586W        W23912   4.106   1.525  13.637
51587W        W23913  40.707  10.371  12.601
51588W        W23914   6.710  42.526   2.813
51589W        W23915  40.099  33.407   5.100
51590W        W23916  12.444   0.850  11.463
51591W        W23917  23.522  10.735  13.152
51592W        W23918  21.069   5.514  10.784
51593W        W23919   7.836  38.965  10.280
51594W        W23920  20.536   1.832   2.286
51595W        W23921  10.160  35.983  14.872
51596W        W23922  18.436  22.678   0.772
51597W        W23923   7.721  40.698  14.890
51598W        W23924  36.545   9.030   3.415
51599W        W23925  34.556  33.149   9.827
51600W        W23926  21.116  39.399  13.732
51601W        W23927  13.400  28.218  13.472
51602W        W23928  22.166  32.939  11.529
51603W        W23929  15.841   6.195   3.634
51604W        W23930  36.559  38.524   4.681
51605W        W23931  42.724  38.437   1.785
51606W        W23932  37.899  16.639  14.534
51607W        W23933  12.175  32.953  10.886
51608W        W23934  23.308  10.817   2.702
51609W        W23935  17.728   3.232  11.915
51610W        W23936  31.341  32.027  13.451
51611W        W23937  20.637  12.325   1.275
51612W        W23938  28.051  35.598  13.180
51613W        W23939  29.404  18.517   3.690
51614W        W23940  17.056  26.499  12.542
51615W        W23941  18.806  41.101   4.753
51616W        W23942  37.990   3.272   2.083
51617W        W23943  17.086  16.802   1.337
51618W        W23944  32.121  32.706   4.269
51619W        W23945   5.860   3.055  14.980
51620W        W23946  18.899   1.784  11.887
51621W        W23947  21.169   2.622   1.023
51622W        W23948  15.349  27.203  14.878
51623W        W23949   4.411  13.049   1.691
51624W        W23950   9.964  27.480   3.916
51625W        W23951  40.538   9.352   0.236
51626W        W23952  13.303  31.292  13.459
51627W        W23953  25.699   4.620   4.346
51628W        W23954  39.845  26.976  14.444
51629W        W23955   5.677  35.869  11.147
51630W        W23956   2.839   5.962  14.642
51631W        W23957  25.431  30.001   2.137
51632W        W23958  14.714  14.371   0.335
51633W        W23959  40.498  28.493   2.160
51634W        W23960  17.742  42.809   4.658
51635W        W23961  35.339  23.537  10.478
51636W        W23962  25.100   5.849  10.910
51637W        W23963  10.331  42.409   4.100
51638W        W23964  13.859  26.585  14.951
51639W        W23965  13.103  15.089  12.971
51640W        W23966  19.014  39.818  14.422
51641W        W23967  27.888  35.111   3.695
51642W        W23968  38.802  26.723  12.519
51643W        W23969  36.105  11.354  14.772
51644W        W23970   1.714  18.423  12.819
51645W        W23971  41.359  39.196  12.400
51646W        W23972  21.211  44.048  11.981
51647W        W23973  29.669  35.367   1.755
51648W        W23974   3.636  10.345   2.306
51649W        W23975  38.506  40.662  14.965
51650W        W23976  16.844  32.709   0.965
51651W        W23977   5.328   4.237   2.105
51652W        W23978  44.726  19.132   2.778
51653W        W23979  33.915   2.331   1.381
51654W        W23980  36.486  44.221  12.086
51655W        W23981  41.513  23.553  14.445
51656W        W23982  34.302   8.344   2.766
51657W        W23983  40.068  31.875  13.437
51658W        W23984  10.791  26.033  14.453
51659W        W23985  16.828  22.126  10.688
51660W        W23986   4.786  39.841  14.228
51661W        W23987  22.495  15.449  11.006
51662W        W23988   2.956  32.164   2.887
51663W        W23989  13.666  19.564   2.641
51664W        W23990  12.115  24.056   1.145
51665W        W23991  32.466  38.346   2.876
51666W        W23992   8.422   0.172  11.467
51667W        W23993  44.482  33.426   2.721
51668W        W23994  31.704  26.485   0.902
51669W        W23995  42.804  31.918  11.541
51670W        W23996   2.650  15.637  11.290
51671W        W23997  41.826   3.193   3.905
51672W        W23998   0.384  10.521   5.528
51673W        W23999  21.191  34.815   1.252
51674W        W24000  24.707  12.192   3.309
51675W        W24001   5.831  34.174  12.124
51676W        W24002  12.787  39.184  10.520
51677W        W24003  26.284   4.385  11.578
51678W        W24004  28.711   7.247   0.770
51679W        W24005  26.533   7.944   0.457
51680W        W24006  34.373  31.417  11.967
51681W        W24007  12.885  24.221   0.416
51682W        W24008  16.978  33.499   4.423
51683W        W24009   5.171  28.466   1.364
51684W        W24010  18.916  44.262   3.221
51685W        W24011  41.463  31.603  12.534
51686W        W24012  37.915  24.551  13.542
51687W        W24013  17.732  29.733   1.908
51688W        W24014  29.451  38.986   2.595
51689W        W24015  18.694  15.627  13.440
51690W        W24016  31.488   6.234  14.931
51691W        W24017  22.522  44.188  13.068
51692W        W24018  41.667  10.212  10.193
51693W        W24019   4.436  25.269  14.509
51694W        W24020  15.385  39.500  11.105
51695W        W24021  39.531  10.339   4.868
51696W        W24022  35.952  15.885  10.236
51697W        W24023  16.635  29.959   4.878
51698W        W24024  15.141   8.602  10.822
51699W        W24025   6.466  24.067   0.699
51700W        W24026  13.168   2.208   1.209
51701W        W24027  15.542  35.473  13.214
51702W        W24028  42.882  10.382  13.245
51703W        W24029   9.772  27.111   1.088
51704W        W24030   5.410  38.443  11.111
51705W        W24031  23.689  12.388  10.809
51706W        W24032  18.026   2.790  12.560
51707W        W24033  36.947   1.185   4.118
51708W        W24034  11.581  17.774  10.626
51709W        W24035  15.918  29.091   3.730
51710W        W24036   0.812  22.516   2.500
51711W        W24037  18.048  37.548  14.266
51712W        W24038  34.297  28.170   3.236
51713W        W24039  17.268  20.298  10.706
51714W        W24040  22.258  39.666   3.881
51715W        W24041   4.402  15.566   2.227
51716W        W24042  40.527   8.105   0.314
51717W        W24043   6.814   2.726  14.979
51718W        W24044   1.513  41.408  14.783
51719W        W24045  25.622  30.595   0.994
51720W        W24046   3.824  33.482  14.981
51721W        W24047  13.291  34.851  13.943
51722W        W24048  21.222   0.883   0.759
51723W        W24049   1.928  42.089   3.425
51724W        W24050  38.031  11.671  13.773
51725W        W24051  20.233  24.533   4.825
51726W        W24052  36.486   4.800   0.683
51727W        W24053  40.516   8.221  10.681
51728W        W24054   8.707  43.031  13.575
51729W        W24055   9.324  30.587  14.453
51730W        W24056  24.642  38.352   2.162
51731W        W24057  38.310  21.290  12.971
51732W        W24058   1.961  32.118  14.933
51733W        W24059  22.806  17.063   4.121
51734W        W24060  37.511  13.783  10.497
51735W        W24061  21.780  25.745   0.781
51736W        W24062   8.403  17.881   0.369
51737W        W24063  44.719   4.956   1.746
51738W        W24064   1.347   7.880   1.340
51739W        W24065  12.769  33.355   0.827
51740W        W24066  28.116  18.603   2.304
51741W        W24067  14.695   5.148  13.401
51742W        W24068   5.688  36.882  14.291
51743W        W24069   1.270   4.569   9.828
51744W        W24070  15.002  10.921  14.857
51745W        W24071  22.637  13.242  13.093
51746W        W24072  36.435  38.527   3.110
51747W        W24073  40.588  22.108   4.688
51748W        W24074   5.317   9.442   2.124
51749W        W24075  40.577   8.687  10.989
51750W        W24076  35.101  17.820  13.480
51751W        W24077  43.307  44.862   3.171
51752W        W24078  41.773  34.978  13.904
51753W        W24079  10.439   5.378  14.366
51754W        W24080  33.644   1.106  13.941
51755W        W24081  17.571  25.597  13.841
51756W        W24082  38.542   6.792   2.128
51757W        W24083  33.569   2.741   1.174
51758W        W24084  43.912  39.032  10.764
51759W        W24085  44.895   1.784  11.136
51760W        W24086  42.016  25.695   0.805
51761W        W24087   5.740  21.513   0.521
51762W        W24088  38.572  34.480   3.625
51763W        W24089   9.592  10.957  11.989
51764W        W24090  16.089   5.746   1.181
51765W        W24091   7.421  35.889  14.693
51766W        W24092  19.856   1.352  11.011
51767W        W24093   8.452  23.991   3.691
51768W        W24094  11.716  16.470   4.162
51769W        W24095   5.978  38.405   0.137
51770W        W24096  32.546  31.287  11.907
51771W        W24097  31.448  35.579   2.367
51772W        W24098  40.148   9.617   1.959
51773W        W24099  42.077  10.522  12.531
51774W        W24100   0.823  31.231  11.129
51775W        W24101   0.867  26.045  13.565
51776W        W24102  32.815   4.531   2.353
51777W        W24103  22.051  35.043   4.311
51778W        W24104   2.016   6.669  13.578
51779W        W24105  12.088  20.491  13.036
51780W        W24106   9.843  40.275  11.489
51781W        W24107  18.137  18.316  13.341
51782W        W24108  35.371  13.606   2.839
51783W        W24109  18.357   1.027   1.724
51784W        W24110  14.710  15.224   3.393
51785W        W24111   7.017  18.103   3.947
51786W        W24112  13.901  26.871  11.528
51787W        W24113  37.365   8.392  11.356
51788W        W24114   1.453  38.850   3.411
51789W        W24115  20.711  25.978  10.644
51790W        W24116  42.250  25.121  12.089
51791W        W24117   4.916   7.390   4.207
51792W        W24118  15.288  22.111  11.501
51793W        W24119  41.793  21.491  11.892
51794W        W24120  42.466  21.476   1.011
51795W        W24121  41.006  18.546   3.244
51796W        W24122  20.957  10.158   2.699
51797W        W24123  20.215   1.486   0.314
51798W        W24124  28.946  35.907   4.101
51799W        W24125  24.995  16.338  12.905
51800W        W24126   1.846  40.454   0.440
51801W        W24127  13.591  28.563  11.449
51802W        W24128  26.758   1.919  14.841
51803W        W24129  15.627   8.957  14.301
51804W        W24130  42.249  33.131  13.405
51805W        W24131  21.998  34.082  14.926
51806W        W24132  44.370  11.431   3.604
51807W        W24133  22.438  39.277  10.566
51808W        W24134  18.171  39.555  14.415
51809W        W24135  32.400   1.704  11.276
51810W        W24136  33.616  42.101   2.337
51811W        W24137  12.146  13.367  14.572
51812W        W24138  31.221  18.104   4.129
51813W        W24139   8.353   2.044   1.809
51814W        W24140   3.419  36.475   2.391
51815W        W24141  42.279  19.635  11.470
51816W        W24142  44.728  43.810   3.184
51817W        W24143  44.072   5.354  14.959
51818W        W24144  43.539   3.407   3.168
51819W        W24145  39.907  35.321  11.731
51820W        W24146  26.549  39.600   0.947
51821W        W24147  21.915   3.355   0.055
51822W        W24148  32.463  39.343  12.620
51823W        W24149  21.717   4.215  14.293
51824W        W24150  26.954   3.898  13.385
51825W        W24151  19.149   9.391  11.112
51826W        W24152   5.491  29.884   0.749
51827W        W24153  23.720   0.021  13.101
51828W        W24154  44.012  24.813   2.897
51829W        W24155   2.591  34.641  12.015
51830W        W24156  20.058  11.844  12.927
51831W        W24157  19.575  40.495  13.519
51832W        W24158  33.669  33.502  12.486
51833W        W24159  13.714  11.163  12.049
51834W        W24160  22.318  42.363   4.958
51835W        W24161  15.323  29.747  12.038
51836W        W24162   6.242  10.870  14.426
51837W        W24163  29.109  39.489  14.427
51838W        W24164  16.212  34.480  12.428
51839W        W24165  29.618  20.168  10.413
51840W        W24166  38.849  17.339   4.790
51841W        W24167  40.399  38.858  14.816
51842W        W24168  27.145  31.513   3.048
51843W        W24169  17.128   7.446   1.957
51844W        W24170  42.738  11.646  14.397
51845W        W24171   9.983  17.842  11.550
51846W        W24172  43.909  43.317  12.013
51847W        W24173  33.963  44.887  11.977
51848W        W24174  15.358   2.735   3.239
51849W        W24175   9.876  13.045  12.596
51850W        W24176  23.453  37.027  13.890
51851W        W24177  29.521   0.200  11.494
51852W        W24178  14.327  27.587  11.989
51853W        W24179  44.397  33.653   4.528
51854W        W24180  34.352  22.954  14.830
51855W        W24181  44.979  16.074  14.871
51856W        W24182  21.092  40.910  13.077
51857W        W24183   9.743   8.407  11.609
51858W        W24184  13.569  44.341   4.164
51859W        W24185  39.505  15.726   2.897
51860W        W24186   5.899  40.792   2.704
51861W        W24187  13.293  12.821  11.807
51862W        W24188  10.221   3.975   1.154
51863W        W24189  22.304   8.143   4.262
51864W        W24190  20.168   4.838  12.892
51865W        W24191  31.531   0.399  10.685
51866W        W24192   1.973  20.637  13.992
51867W        W24193  30.940  37.813   0.365
51868W        W24194  28.216   0.302   1.714
51869W        W24195   1.382  25.925   0.521
51870W        W24196  43.665  38.755  12.011
51871W        W24197  14.937  19.395  12.558
51872W        W24198   6.628  36.881  13.497
51873W        W24199  24.966   5.438  11.164
51874W        W24200  19.660  25.465  10.601
51875W        W24201  30.073   5.271  13.571
51876W        W24202  37.181  12.653  12.006
51877W        W24203  22.204  12.829   2.617
51878W        W24204   2.416  29.009   1.232
51879W        W24205  21.229  27.088  12.554
51880W        W24206  25.944  41.126   2.698
51881W        W24207  23.498  15.181   9.742
51882W        W24208  14.313  15.547  12.625
51883W        W24209   9.886  37.308  12.622
51884W        W24210  20.746  29.929   2.268
51885W        W24211   3.743  35.059   3.772
51886W        W24212  16.245  11.780  12.861
51887W        W24213  22.957  37.126  14.044
51888W        W24214  19.647  34.479  11.023
51889W        W24215  39.072  44.426  14.964
51890W        W24216  39.576  27.331  11.127
51891W        W24217  15.321  34.811  13.285
51892W        W24218  18.113  30.896   0.662
51893W        W24219  28.563  38.295   1.877
51894W        W24220   2.141  40.400   4.996
51895W        W24221  28.059  28.436   1.466
51896W        W24222  36.588  41.387  11.179
51897W        W24223  37.952  20.056  14.070
51898W        W24224  18.025  22.039   0.264
51899W        W24225  41.294  37.611  10.580
51900W        W24226  12.426  18.085  13.286
51901W        W24227   8.415  41.729  13.391
51902W        W24228  30.800  11.451  11.142
51903W        W24229   6.332  13.133   3.638
51904W        W24230  22.205  20.617  14.357
51905W        W24231   9.396  36.059  12.069
51906W        W24232   1.084  44.531  10.802
51907W        W24233  23.809  36.127  11.945
51908W        W24234  36.938  39.611   0.149
51909W        W24235  21.518  44.835  13.428
51910W        W24236  40.426  41.251   2.810
51911W        W24237  22.936  37.865  13.441
51912W        W24238  24.886  20.136  10.409
51913W        W24239  27.987  16.254   1.433
51914W        W24240   6.869   8.842  13.871
51915W        W24241   7.859  23.478   4.037
51916W        W24242  31.696  14.888   2.203
51917W        W24243  18.015  11.543   4.329
51918W        W24244  17.696  34.752   1.797
51919W        W24245  15.188  23.555   1.011
51920W        W24246   2.083  17.609  12.986
51921W        W24247  19.739   2.981   0.348
51922W        W24248  10.004   8.809  13.829
51923W        W24249   7.185  37.980   2.392
51924W        W24250  22.491  30.571  12.573
51925W        W24251  41.280  22.222  11.085
51926W        W24252  36.899  27.492   3.829
51927W        W24253  17.768  43.199  14.408
51928W        W24254  24.477  25.932  10.881
51929W        W24255   3.826  43.392   2.140
51930W        W24256  13.226  22.200  11.806
51931W        W24257  28.208  10.361  11.220
51932W        W24258  11.344  41.822   2.207
51933W        W24259  16.283  33.128  13.586
51934W        W24260  34.998  35.287  12.442
51935W        W24261  30.625  25.479  11.594
51936W        W24262  22.464  27.008   0.103
51937W        W24263  22.149  26.692  12.332
51938W        W24264  33.197  10.691   2.686
51939W        W24265  16.108   4.953   1.832
51940W        W24266  41.294   6.978   1.849
51941W        W24267  30.905  34.606  14.789
51942W        W24268  31.833  15.518  13.666
51943W        W24269  18.457  21.978  11.601
51944W        W24270   4.403   6.420   2.713
51945W        W24271  40.613  33.777  10.761
51946W        W24272  25.900  35.792   0.216
51947W        W24273  13.284   2.970   3.462
51948W        W24274  40.943  14.679   2.714
51949W        W24275  29.170  15.029  12.573
51950W        W24276  18.294   6.352  13.414
51951W        W24277  33.562  37.339   1.044
51952W        W24278  16.765  24.310  10.852
51953W        W24279  12.256  12.829   4.637
51954W        W24280  43.443   3.577   2.369
51955W        W24281  29.907  38.899  13.379
51956W        W24282  39.508  44.944  13.507
51957W        W24283  23.016  40.718  13.628
51958W        W24284  29.641   7.674  13.480
51959W        W24285  43.460   2.902   0.566
51960W        W24286   6.039  32.575   0.339
51961W        W24287  28.460   4.786   3.299
51962W        W24288  21.644  28.062   0.525
51963W        W24289  39.500   1.666   0.621
51964W        W24290   1.483  12.240   3.265
51965W        W24291   8.304  12.036   2.436
51966W        W24292  17.428  20.807   2.949
51967W        W24293   2.748  24.775  10.628
51968W        W24294  29.102  13.191   2.168
51969W        W24295  35.086   3.794   2.677
51970W        W24296   8.265  33.562   3.673
51971W        W24297  37.792  36.481  14.207
51972W        W24298  33.786  35.946   5.099
51973W        W24299  44.801  42.188  14.868
51974W        W24300  25.405  43.269  14.886
51975W        W24301   3.017  35.435   3.696
51976W        W24302   7.876  12.151   4.248
51977W        W24303   4.609   2.552  14.786
51978W        W24304  40.510  15.368   4.142
51979W        W24305  26.989  21.578   0.819
51980W        W24306   5.173  19.042   3.329
51981W        W24307  21.649  34.169  12.011
51982W        W24308  29.880   5.786  12.653
51983W        W24309  23.976  26.944  12.460
51984W        W24310  33.521   8.922   1.395
51985W        W24311   3.323  24.149  12.107
51986W        W24312  24.898  33.490   3.968
51987W        W24313  12.457  23.943   4.994
51988W        W24314  44.309  24.011   3.505
51989W        W24315  31.097   5.119   1.633
51990W        W24316   6.918  23.022   1.461
51991W        W24317   4.737  26.393  13.912
51992W        W24318   7.181   3.427   0.788
51993W        W24319  14.987  24.991  12.448
51994W        W24320  24.554  13.696  11.825
51995W        W24321  28.343   0.697  12.077
51996W        W24322  31.646  41.737   4.639
51997W        W24323  39.113  19.047   2.881
51998W        W24324  42.031  35.102  11.159
51999W        W24325  43.260  16.611   0.828
52000W        W24326  13.161  29.390   2.224
52001W        W24327   7.463   7.696   1.423
52002W        W24328  26.933   8.858  10.647
52003W        W24329  14.637  17.205  11.872
52004W        W24330  26.918  17.774   1.644
52005W        W24331  21.917  42.236  12.110
52006W        W24332  35.187  43.155  14.805
52007W        W24333  43.514   1.833  12.136
52008W        W24334  39.449  13.135  10.983
52009W        W24335  19.858  37.055  10.711
52010W        W24336  12.688   8.362  14.012
52011W        W24337   9.367  25.989  12.766
52012W        W24338  15.708  19.907  13.568
52013W        W24339  40.106  14.195   1.225
52014W        W24340   0.212   5.684  11.860
52015W        W24341  23.948  30.212  14.331
52016W        W24342  35.032   1.489   0.711
52017W        W24343  40.821   5.460   0.478
52018W        W24344  19.855   7.186   1.357
52019W        W24345  41.877  31.488   2.246
52020W        W24346   3.248  42.905  12.101
52021W        W24347   1.872  17.330   4.449
52022W        W24348  29.046  10.813   4.599
52023W        W24349  40.005  32.947  11.964
52024W        W24350  10.278   6.321  12.560
52025W        W24351  35.159  37.277  13.483
52026W        W24352   8.158   3.480  14.704
52027W        W24353  27.559  31.498  11.827
52028W        W24354  24.517  42.273  11.088
52029W        W24355   1.992  25.143   1.771
52030W        W24356  25.741  36.469  12.029
52031W        W24357   2.688  44.822   3.825
52032W        W24358  38.280  16.598   0.837
52033W        W24359  40.399  17.624  13.971
52034W        W24360   1.214  26.604   1.744
52035W        W24361   8.800  28.605  14.753
52036W        W24362  20.518   4.427   4.583
52037W        W24363  23.532  21.457   3.758
52038W        W24364  36.535  37.496  10.547
52039W        W24365  43.423  15.975  13.420
52040W        W24366  36.442  39.440   3.100
52041W        W24367  27.478   8.749  11.490
52042W        W24368  41.903  39.466   1.632
52043W        W24369  43.169  27.093   1.286
52044W        W24370  17.985   2.484  11.441
52045W        W24371  42.947  30.403   3.243
52046W        W24372  31.683  22.070   1.778
52047W        W24373  15.129  25.664   0.421
52048W        W24374  41.991  42.088  11.726
52049W        W24375  27.129  12.835  10.982
52050W        W24376  23.965  23.178  13.468
52051W        W24377   6.249  19.350  14.126
52052W        W24378  15.711  32.857   3.418
52053W        W24379  24.518  23.146  11.701
52054W        W24380  11.050   6.314   0.320
52055W        W24381   6.823  17.122  13.296
52056W        W24382  39.416  33.041  14.952
52057W        W24383  35.959  27.208   0.930
52058W        W24384  43.082   0.531   0.145
52059W        W24385  37.590   2.664   3.265
52060W        W24386  26.705  20.296   2.279
52061W        W24387   1.050  17.394  14.093
52062W        W24388  43.951  29.588  11.883
52063W        W24389  26.205  24.128   0.334
52064W        W24390   9.823  42.689   2.320
52065W        W24391  26.968  35.574  14.459
52066W        W24392  28.945  21.752   1.279
52067W        W24393  12.186  36.249  10.239
52068W        W24394  17.593  41.455   0.966
52069W        W24395  36.220   2.696   0.308
52070W        W24396  20.793  17.302  10.271
52071W        W24397  25.931  27.505   2.418
52072W        W24398  32.109  30.879   3.747
52073W        W24399  29.427  15.128   3.893
52074W        W24400  34.481  19.752  13.469
52075W        W24401  23.582  19.268  11.092
52076W        W24402  44.992  33.053  13.440
52077W        W24403  37.280  40.808  11.754
52078W        W24404  21.618  14.296  10.687
52079W        W24405  21.762  38.355  14.021
52080W        W24406  17.118   4.369   4.631
52081W        W24407   8.413  44.726   0.528
52082W        W24408  21.591   7.183   3.323
52083W        W24409  10.239   9.454   2.708
52084W        W24410   6.241   0.162  11.729
52085W        W24411  14.298  29.397   2.684
52086W        W24412  32.796  10.669  14.007
52087W        W24413  27.071  44.344  13.399
52088W        W24414  24.086  23.558   2.766
52089W        W24415   7.704  33.621   2.184
52090W        W24416  40.378  43.525   2.327
52091W        W24417  10.290  27.917   1.124
52092W        W24418  31.158   2.958  10.544
52093W        W24419  43.656  26.825   0.763
52094W        W24420  31.345  20.300   4.612
52095W        W24421  41.011  43.677   4.543
52096W        W24422  32.871  27.652   2.355
52097W        W24423  15.712  21.030  12.658
52098W        W24424  13.629  35.661   5.035
52099W        W24425  41.314  18.178  10.587
52100W        W24426  43.323  15.080   3.187
52101W        W24427  39.910  43.276   3.562
52102W        W24428   6.645  41.339  12.408
52103W        W24429  41.089   0.798  11.492
52104W        W24430  21.774  29.054  11.633
52105W        W24431  40.597  44.423  13.438
52106W        W24432   2.260   7.132  10.135
52107W        W24433  27.032  19.172   0.996
52108W        W24434  18.528  31.889   4.160
52109W        W24435  41.828   8.211   3.924
52110W        W24436  41.528  40.398  12.932
52111W        W24437  11.716  19.272   3.645
52112W        W24438  37.561  24.112  10.700
52113W        W24439  29.024  19.700  11.483
52114W        W24440  16.229  22.349  12.038
52115W        W24441  34.774   5.839   1.342
52116W        W24442   1.036   6.641  11.125
52117W        W24443  24.465  16.321   3.728
52118W        W24444   6.805  27.558   0.781
52119W        W24445  34.961  44.040   2.681
52120W        W24446  12.652  29.770  10.720
52121W        W24447  41.109  16.662  14.988
52122W        W24448  11.771  19.570  11.963
52123W        W24449  23.576  23.546  12.095
52124W        W24450  16.506  35.137  12.970
52125W        W24451  14.530   4.491   0.291
52126W        W24452  19.268  40.263  14.460
52127W        W24453  42.531  22.263   2.271
52128W        W24454  33.928  22.609  12.157
52129W        W24455   3.650  32.783  11.208
52130W        W24456  30.187  29.492  14.768
52131W        W24457  20.746   9.810  13.620
52132W        W24458   1.932  25.981   0.316
52133W        W24459  10.739  27.049   2.156
52134W        W24460  21.338  35.149  11.146
52135W        W24461  22.178  15.683   5.470
52136W        W24462   7.762  12.797   0.398
52137W        W24463  20.500  23.223  12.460
52138W        W24464  19.522  44.061  12.154
52139W        W24465   1.241  36.206  11.206
52140W        W24466  14.761  15.622   3.894
52141W        W24467  11.303  11.347  14.877
52142W        W24468  16.821  11.115   3.333
52143W        W24469   5.000  44.831  13.367
52144W        W24470  39.508  30.541   3.321
52145W        W24471  15.099  33.118  12.923
52146W        W24472   4.756  37.683   2.375
52147W        W24473  19.657   9.414  12.570
52148W        W24474  37.040   1.875  11.070
52149W        W24475  27.228   3.978  12.933
52150W        W24476  21.889   7.685  13.412
52151W        W24477  41.188  16.991  12.977
52152W        W24478  10.156  33.499  13.173
52153W        W24479  28.525  14.226  14.905
52154W        W24480  16.285  24.098  10.754
52155W        W24481  23.740  21.639  14.300
52156W        W24482  24.690  40.423   0.880
52157W        W24483   0.778  26.415   1.918
52158W        W24484   9.489  37.380   3.427
52159W        W24485  25.020   0.316   4.320
52160W        W24486  34.314  21.259   4.479
52161W        W24487  34.126  32.203   2.283
52162W        W24488   3.493  36.695  13.860
52163W        W24489   6.593   6.936  13.058
52164W        W24490  18.745  21.999   3.622
52165W        W24491  44.470   7.378  11.599
52166W        W24492  42.313  15.276   4.425
52167W        W24493  16.292  21.744  14.902
52168W        W24494   8.313  20.842   3.198
52169W        W24495  40.075  33.924  10.641
52170W        W24496   6.728  23.970  14.808
52171W        W24497  35.331  41.411   2.451
52172W        W24498  43.407  16.836   1.276
52173W        W24499  18.513  13.715   4.102
52174W        W24500  27.910  43.374   3.597
52175W        W24501  42.514  11.769   3.227
52176W        W24502   7.005  26.445  12.224
52177W        W24503  26.076  18.085   5.179
52178W        W24504  40.879  38.771   1.255
52179W        W24505  27.375  34.151  11.970
52180W        W24506  43.902  22.908   4.672
52181W        W24507   4.324  39.385  14.536
52182W        W24508  44.418  14.346  11.682
52183W        W24509  29.342  10.811   5.019
52184W        W24510  33.557  16.127  11.028
52185W        W24511   5.715  25.361  13.925
52186W        W24512  34.142  11.748   2.794
52187W        W24513  19.654  44.580   4.536
52188W        W24514  27.870   4.333  10.658
52189W        W24515  13.287  27.941  13.045
52190W        W24516  26.937  44.723  11.596
52191W        W24517   6.146  19.670   4.356
52192W        W24518   5.460  19.790  11.498
52193W        W24519  44.459  43.883  10.742
52194W        W24520   7.893   0.597  11.755
52195W        W24521  43.365  40.989   2.209
52196W        W24522   8.397  39.392  12.924
52197W        W24523  19.570  31.857  12.910
52198W        W24524  39.959  21.679   3.362
52199W        W24525  30.964  15.749  13.144
52200W        W24526  19.809  35.666   1.420
52201W        W24527  14.524  13.621  11.103
52202W        W24528  11.306  31.943  14.562
52203W        W24529  16.522  28.192  12.208
52204W        W24530  32.987  28.483   0.375
52205W        W24531  11.174  30.970  14.507
52206W        W24532  10.988   9.724  13.819
52207W        W24533  44.674  14.324   3.671
52208W        W24534  33.427  13.013  11.427
52209W        W24535  22.254  15.790   4.148
52210W        W24536  21.392  39.242   0.672
52211W        W24537  38.503  32.460  11.061
52212W        W24538  13.302  25.245  14.947
52213W        W24539   9.529  29.048  14.841
52214W        W24540  38.075  33.053  12.347
52215W        W24541  28.785   6.772  12.164
52216W        W24542  14.111   3.797   4.707
52217W        W24543  16.541   6.798  12.702
52218W        W24544  20.885   2.842  13.369
52219W        W24545   5.698  27.903   2.806
52220W        W24546   4.859  18.358  13.798
52221W        W24547  32.066   9.177   4.163
52222W        W24548  18.787  13.368   1.424
52223W        W24549   1.918  36.423   1.144
52224W        W24550   2.698   9.471  14.328
52225W        W24551  15.615  27.234  11.605
52226W        W24552  18.695  30.071  12.534
52227W        W24553  11.028  36.096   3.078
52228W        W24554  14.214  17.612  14.949
52229W        W24555  11.897  33.173   0.428
52230W        W24556  26.523  18.752   1.956
52231W        W24557  21.080  29.581  14.433
52232W        W24558  15.358   4.669  11.647
52233W        W24559  35.477  23.584  14.308
52234W        W24560  13.066  25.641   2.572
52235W        W24561  14.263  12.200  13.119
52236W        W24562  29.559  31.701   1.336
52237W        W24563  13.732  14.345   2.864
52238W        W24564  32.108  43.264  11.228
52239W        W24565   1.763  34.155   0.312
52240W        W24566  12.846  25.976   0.626
52241W        W24567   7.350   9.749   3.440
52242W        W24568  40.385   5.023  13.608
52243W        W24569  41.923  15.993  13.887
52244W        W24570  11.946  13.807  10.222
52245W        W24571   3.902  34.946   4.274
52246W        W24572  23.602  22.295   3.377
52247W        W24573  24.952  35.910   4.200
52248W        W24574  32.376  23.920   4.565
52249W        W24575  17.509  31.856   0.451
52250W        W24576   8.112  31.993   0.380
52251W        W24577  24.103   3.897  11.996
52252W        W24578  29.083  27.401   2.131
52253W        W24579  12.641  14.069  14.438
52254W        W24580   6.870   5.235   4.552
52255W        W24581  28.009   6.587  11.695
52256W        W24582  17.310   6.374   3.759
52257W        W24583  30.588  30.696  14.633
52258W        W24584  43.842  19.841  11.951
52259W        W24585  17.069  10.692   2.846
52260W        W24586  18.599  28.601   1.547
52261W        W24587   0.059  42.521  11.008
52262W        W24588  11.155   7.907   0.142
52263W        W24589   3.727   6.134  13.890
52264W        W24590   3.843  30.973  13.886
52265W        W24591  21.757  31.118   3.798
52266W        W24592   9.755  24.711   3.557
52267W        W24593  28.198   7.273  13.409
52268W        W24594  29.948   2.409   3.737
52269W        W24595  29.927  41.819  11.624
52270W        W24596  28.078  41.327   4.248
52271W        W24597  15.058   4.314  11.877
52272W        W24598  28.431  12.175   2.311
52273W        W24599   3.798  17.634   3.183
52274W        W24600  25.255  22.456  13.405
52275W        W24601  14.109  40.715   0.437
52276W        W24602  22.475  22.208   0.181
52277W        W24603  31.388   9.215  11.098
52278W        W24604  16.164  40.514   3.929
52279W        W24605   4.692  15.134  13.421
52280W        W24606   6.828  34.627  11.403
52281W        W24607  19.031  34.841  12.863
52282W        W24608  25.510  40.131   0.726
52283W        W24609   7.344  35.782  14.185
52284W        W24610   2.024   9.780  10.874
52285W        W24611  29.769   4.166   2.259
52286W        W24612  34.859  32.809   1.810
52287W        W24613  34.680   0.001   0.467
52288W        W24614   0.293  23.990  13.361
52289W        W24615   1.276  31.169  13.474
52290W        W24616  22.017  10.330   4.270
52291W        W24617  31.124  34.448  11.588
52292W        W24618  40.803  43.880   1.264
52293W        W24619  23.778  30.963   4.644
52294W        W24620  36.093  29.435   0.367
52295W        W24621   9.181   3.598  11.958
52296W        W24622  30.054  22.112   2.531
52297W        W24623  16.484  19.727   3.392
52298W        W24624  30.397   0.902   3.190
52299W        W24625  14.445  18.919  14.606
52300W        W24626  23.275  41.781  14.302
52301W        W24627  17.959  12.060   4.340
52302W        W24628  28.777   9.701   2.265
52303W        W24629   2.175  30.007   1.370
52304W        W24630  30.396  41.268   3.799
52305W        W24631  19.333  26.746  12.927
52306W        W24632  30.796  11.894   0.028
52307W        W24633  24.061  44.813   0.306
52308W        W24634   6.199  10.348  14.458
52309W        W24635  12.251  14.420   3.219
52310W        W24636  43.233  41.349  11.950
52311W        W24637  19.629  34.261   3.608
52312W        W24638  42.985  37.428   0.777
52313W        W24639   8.586   3.391   3.139
52314W        W24640  37.771   5.438  13.692
52315W        W24641  42.032  15.182  10.441
52316W        W24642   6.309  43.524   4.536
52317W        W24643  21.475   8.271   3.701
52318W        W24644   9.320   6.671  13.413
52319W        W24645  27.440  17.782  11.620
52320W        W24646   6.283  40.959   1.854
52321W        W24647  30.330  17.408  11.618
52322W        W24648   9.992  10.837  13.310
52323W        W24649  11.982  40.324  10.932
52324W        W24650  15.894  18.409  12.972
52325W        W24651   3.453   8.889  13.947
52326W        W24652  22.048  31.400  12.103
52327W        W24653  32.367  32.468   0.025
52328W        W24654  28.040  44.715   5.045
52329W        W24655  36.569   1.320   2.356
52330W        W24656   7.829  42.293  13.683
52331W        W24657  16.116  28.054   1.724
52332W        W24658  39.867  41.889   3.098
52333W        W24659   6.281  20.055  10.714
52334W        W24660  17.895   6.412   2.663
52335W        W24661  13.013  15.570   3.245
52336W        W24662  35.722  29.277  14.056
52337W        W24663  41.018   6.835   0.280
52338W        W24664  16.256  41.250  11.447
52339W        W24665  41.224  43.538  11.650
52340W        W24666  12.492  25.453  10.095
52341W        W24667  29.080  18.912  13.914
52342W        W24668  17.834  42.944   0.050
52343W        W24669   5.786  19.999   0.474
52344W        W24670   8.581  42.003  12.971
52345W        W24671   2.524  37.556  11.138
52346W        W24672  44.252  12.463   3.744
52347W        W24673   0.224  30.205   4.091
52348W        W24674  23.089   8.204   1.892
52349W        W24675  16.665  39.595   4.273
52350W        W24676  37.973  36.015  13.397
52351W        W24677  26.737  13.613  12.040
52352W        W24678  17.095  23.038   2.802
52353W        W24679  11.863  10.134  10.849
52354W        W24680  34.411  27.156  13.372
52355W        W24681  20.261  24.729   2.494
52356W        W24682  10.227   3.500   1.434
52357W        W24683  10.863   4.953   3.632
52358W        W24684  11.061  17.121  14.599
52359W        W24685  10.185  14.368  12.930
52360W        W24686  20.093   2.853   1.560
52361W        W24687   5.327  13.872  14.833
52362W        W24688  39.022   0.516  13.053
52363W        W24689  39.723  25.716  10.707
52364W        W24690  43.100  27.917  14.926
52365W        W24691   5.407  19.107   3.801
52366W        W24692  28.525  10.167  13.488
52367W        W24693  42.351  42.763   4.392
52368W        W24694  36.171  16.939   4.158
52369W        W24695  14.687  15.605  10.742
52370W        W24696  40.539   8.921  12.869
52371W        W24697  20.884  15.763  11.063
52372W        W24698  17.683   6.427  12.956
52373W        W24699  30.357  18.167  10.610
52374W        W24700   5.190  12.692  12.125
52375W        W24701  19.181   5.706   2.867
52376W        W24702  26.208  21.109   9.956
52377W        W24703   4.774   5.307   0.705
52378W        W24704  38.962  39.227   1.341
52379W        W24705  20.568   8.270   2.531
52380W        W24706   7.218  35.926  11.632
52381W        W24707  43.443  24.055   3.615
52382W        W24708  34.554  10.091   3.702
52383W        W24709  42.610  14.920   4.157
52384W        W24710  38.927  36.148  12.197
52385W        W24711  27.560  10.153   0.435
52386W        W24712  16.582   5.737   0.388
52387W        W24713  13.387  29.008   2.458
52388W        W24714  36.082  22.467  11.104
52389W        W24715  12.324  10.897  11.131
52390W        W24716  14.234   1.482  13.418
52391W        W24717  17.860   5.261   0.845
52392W        W24718  31.086  33.386   0.893
52393W        W24719  27.165  24.152   2.393
52394W        W24720   1.287  11.104   1.812
52395W        W24721  14.733   8.649   2.418
52396W        W24722  23.527  12.433  14.543
52397W        W24723  32.541   1.915   3.792
52398W        W24724  20.514  29.989  13.075
52399W        W24725  36.903  44.595   2.168
52400W        W24726  20.244  26.498   1.432
52401W        W24727  22.575  44.596  13.968
52402W        W24728  16.041  10.680   3.722
52403W        W24729  13.116   9.311  14.504
52404W        W24730  36.992  11.269   2.565
52405W        W24731  41.272  17.245  11.235
52406W        W24732   3.974  24.284   2.625
52407W        W24733  21.551   6.331  12.442
52408W        W24734  14.874   9.873  13.356
52409W        W24735  29.035   4.245   4.589
52410W        W24736  38.712  41.187  10.725
52411W        W24737  13.552  35.290  12.399
52412W        W24738  41.292  26.546   2.956
52413W        W24739  15.094  26.492  11.003
52414W        W24740  41.553  13.341   0.760
52415W        W24741  36.320  38.769   3.895
52416W        W24742  38.865   0.993   1.188
52417W        W24743  10.814  11.552  10.785
52418W        W24744  25.533  30.703  14.689
52419W        W24745   2.272  14.382  11.966
52420W        W24746  14.085   8.401  10.415
52421W        W24747  23.089  21.305  10.700
52422W        W24748   4.222  12.211   1.731
52423W        W24749   1.820  21.991   4.863
52424W        W24750   9.500  12.696   1.771
52425W        W24751  20.647  27.930  10.638
52426W        W24752   1.280   6.200   2.806
52427W        W24753   5.171  29.672  13.065
52428W        W24754  18.745  37.042   4.629
52429W        W24755  27.704  18.285   4.263
52430W        W24756  15.802  35.191  11.799
52431W        W24757   1.313  35.093  12.680
52432W        W24758  33.624  14.977   2.245
52433W        W24759  40.961  41.399  11.228
52434W        W24760  20.199  29.984  11.127
52435W        W24761  23.111  12.667   4.738
52436W        W24762   0.040   8.234   3.822
52437W        W24763  17.853   6.693  12.550
52438W        W24764  11.245  41.775   4.670
52439W        W24765  10.508  25.761   4.276
52440W        W24766   3.835  27.931  13.969
52441W        W24767  16.729   2.227  13.601
52442W        W24768  19.292  11.073  12.443
52443W        W24769   1.990  31.935  12.308
52444W        W24770  39.262  43.977  12.553
52445W        W24771  39.699  36.378  11.539
52446W        W24772  14.086   4.212   2.266
52447W        W24773  38.381  38.533  10.595
52448W        W24774   2.092  27.626  11.995
52449W        W24775  33.439  24.634   2.630
52450W        W24776  32.547  20.975   5.363
52451W        W24777  33.971   7.752  11.566
52452W        W24778  16.681  23.550  13.200
52453W        W24779  30.998  39.251   1.737
52454W        W24780  12.027  26.627  10.587
52455W        W24781  39.595  19.221  11.534
52456W        W24782  16.404  42.079  11.206
52457W        W24783   9.419  35.961  10.910
52458W        W24784  17.835  22.957  10.788
52459W        W24785  40.900  11.676   3.427
52460W        W24786  40.066  34.016   0.791
52461W        W24787  20.284  40.460  10.617
52462W        W24788   4.208  10.076  14.832
52463W        W24789  10.658  15.305   3.931
52464W        W24790   1.802  18.573  10.643
52465W        W24791  38.483  41.489  13.499
52466W        W24792  22.012  38.753  12.524
52467W        W24793  22.659  34.964   0.790
52468W        W24794  29.569  18.525   2.791
52469W        W24795   5.750  42.872  14.340
52470W        W24796  27.034  36.054  12.489
52471W        W24797  13.733  19.190  11.246
52472W        W24798   2.544   3.881  14.039
52473W        W24799  25.680  26.401  11.984
52474W        W24800  37.654  33.493  13.966
52475W        W24801   4.159  14.365  12.442
52476W        W24802  26.644  39.001   2.337
52477W        W24803   8.683   4.729  13.483
52478W        W24804  31.157  41.284   2.587
52479W        W24805   9.356  40.938  11.389
52480W        W24806   0.299  15.223  14.705
52481W        W24807   1.485  33.802  10.921
52482W        W24808   8.993   7.105   0.419
52483W        W24809  43.765  30.026  10.683
52484W        W24810  16.194  37.965   2.925
52485W        W24811  21.385  26.196  13.485
52486W        W24812   0.813  39.375  13.976
52487W        W24813   2.531  30.477   3.751
52488W        W24814  30.460  33.097   2.693
52489W        W24815   4.657   3.963   5.299
52490W        W24816  26.068  20.570  13.726
52491W        W24817  25.865  17.131  12.091
52492W        W24818  14.019  23.329   2.635
52493W        W24819  32.406  32.555   2.306
52494W        W24820  21.304  21.259   0.738
52495W        W24821   7.386  15.115  12.835
52496W        W24822  21.231  15.825  11.985
52497W        W24823  15.797   8.177   0.060
52498W        W24824  29.175   9.787  14.017
52499W        W24825   8.579  25.409  13.410
52500W        W24826  12.315  21.827   2.858
52501W        W24827   2.290  36.543   4.639
52502W        W24828   6.512  11.732   4.919
52503W        W24829  33.530  12.608  14.669
52504W        W24830  24.039  14.112   0.016
52505W        W24831  31.636  44.462  11.647
52506W        W24832  39.389  24.500  10.659
52507W        W24833  26.753  25.261  14.338
52508W        W24834   7.212  35.616   2.929
52509W        W24835  41.838  23.794   1.605
52510W        W24836  33.945   8.302   0.872
52511W        W24837  30.903  29.633   1.424
52512W        W24838  10.271  27.914  12.431
52513W        W24839  24.473   8.751   2.928
52514W        W24840  13.321  19.507  11.166
52515W        W24841   7.748  13.269  12.036
52516W        W24842  32.554  41.765   4.568
52517W        W24843   7.670  12.581   1.845
52518W        W24844  20.038  33.892   3.768
52519W        W24845  33.870  34.831  11.668
52520W        W24846  15.810   7.766  11.222
52521W        W24847  42.315  31.202   4.072
52522W        W24848  11.557  41.813   0.046
52523W        W24849   3.910  25.218   4.152
52524W        W24850   7.733  44.592  11.590
52525W        W24851  37.345  34.006   4.598
52526W        W24852  42.975  26.620   1.358
52527W        W24853  18.367  22.243   3.361
52528W        W24854   2.206  33.589   4.022
52529W        W24855  11.470   1.758   4.267
52530W        W24856  40.162  22.662  11.657
52531W        W24857  37.439  29.405  13.951
52532W        W24858  37.622  38.950  14.773
52533W        W24859  29.356  16.095  12.010
52534W        W24860  32.168  20.474  14.384
52535W        W24861  29.288   4.386   4.165
52536W        W24862  37.991  18.659   0.506
52537W        W24863   4.718  17.994  11.974
52538W        W24864  31.680  14.401   3.811
52539W        W24865  42.280  39.112  11.497
52540W        W24866  26.547  43.389   4.738
52541W        W24867   0.903  43.888   1.839
52542W        W24868   9.744  39.724  14.449
52543W        W24869  26.407  43.787  12.051
52544W        W24870  33.002  26.545   4.558
52545W        W24871  29.071  34.827   1.411
52546W        W24872  30.766  12.994  11.585
52547W        W24873  36.681  12.170   1.092
52548W        W24874   7.929  21.813  11.894
52549W        W24875  19.671   9.326   3.920
52550W        W24876   4.878  27.167  13.635
52551W        W24877  13.704  29.929   4.134
52552W        W24878  28.645  42.496  11.979
52553W        W24879  21.924  16.795   2.664
52554W        W24880  42.929  43.264   3.729
52555W        W24881  21.603  11.273  12.612
52556W        W24882  14.710  38.589   3.255
52557W        W24883   6.345  27.749  14.886
52558W        W24884  32.382  10.360   0.295
52559W        W24885   1.603  21.738  11.479
52560W        W24886  24.577  43.278  10.931
52561W        W24887  21.180   5.361  11.265
52562W        W24888  18.270  16.224  13.753
52563W        W24889   3.824  40.933   2.223
52564W        W24890  39.384   3.971   2.324
52565W        W24891  31.604  21.149  11.848
52566W        W24892  18.709  37.528   2.392
52567W        W24893  15.919  10.409   5.064
52568W        W24894  22.024  27.428   2.082
52569W        W24895   7.237  44.267  10.757
52570W        W24896  16.629   4.636   4.314
52571W        W24897  21.812  19.082  13.304
52572W        W24898  42.524  17.657  12.144
52573W        W24899   0.558  31.503  10.762
52574W        W24900   1.717  42.115  12.391
52575W        W24901  30.579  21.735  13.362
52576W        W24902  11.153  20.086  14.771
52577W        W24903  29.531  28.038   5.045
52578W        W24904  25.807  41.913  12.953
52579W        W24905  13.643   4.256  14.240
52580W        W24906  33.854  16.161   1.309
52581W        W24907  27.109  25.016  12.497
52582W        W24908   7.809  20.535   4.267
52583W        W24909   7.082  23.888  11.117
52584W        W24910  17.766  38.881  14.862
52585W        W24911  36.931  21.272   2.727
52586W        W24912   3.431  22.706   1.333
52587W        W24913   0.044  33.470   0.782
52588W        W24914  16.744  28.823   4.908
52589W        W24915  15.824  22.858  10.128
52590W        W24916  36.379  24.693  13.318
52591W        W24917   2.434  10.081   4.592
52592W        W24918  28.113  38.826  13.469
52593W        W24919   8.584  40.755   1.765
52594W        W24920  17.200  37.364   2.733
52595W        W24921  28.647  17.800  13.110
52596W        W24922   7.318  30.279  14.165
52597W        W24923  41.992   2.461  12.456
52598W        W24924  29.588  14.117  12.054
52599W        W24925  22.163  11.598  10.542
52600W        W24926  17.865  13.724  10.692
52601W        W24927   7.978  36.182  11.869
52602W        W24928  39.796  23.971  13.036
52603W        W24929  30.503   6.364  12.451
52604W        W24930  19.099   0.336  12.999
52605W        W24931   3.471  11.356  12.987
52606W        W24932  32.538  39.247  11.596
52607W        W24933   2.436  44.053  13.517
52608W        W24934  15.046  36.439   0.719
52609W        W24935  44.449  28.687   0.927
52610W        W24936  18.703  21.988   1.871
52611W        W24937  24.057   9.738  13.755
52612W        W24938  16.740  18.064   1.492
52613W        W24939  12.688   9.796  14.985
52614W        W24940  38.060   4.141  14.774
52615W        W24941   0.641  14.762   0.305
52616W        W24942  42.742   3.817  13.431
52617W        W24943   1.717  13.278  13.499
52618W        W24944   6.723  28.802   0.268
52619W        W24945  34.900  11.651   3.208
52620W        W24946  18.513  37.093  12.483
52621W        W24947  16.156  38.123   3.426
52622W        W24948   6.468  15.601   3.649
52623W        W24949  14.883   4.152  14.843
52624W        W24950   7.721   7.816   3.748
52625W        W24951   9.907   0.547   3.047
52626W        W24952  38.610   7.114  13.862
52627W        W24953  30.104  41.574   3.421
52628W        W24954  12.897  42.265  13.474
52629W        W24955   5.771   0.776   3.810
52630W        W24956  38.664  26.474   0.781
52631W        W24957   4.963   4.026  13.023
52632W        W24958  37.578  14.284  10.627
52633W        W24959  15.682   7.008  13.952
52634W        W24960  29.536  26.526   0.403
52635W        W24961   7.567   5.214  12.604
52636W        W24962  23.463  18.505  11.484
52637W        W24963  10.953  21.347  13.999
52638W        W24964  35.289  38.388  14.564
52639W        W24965  37.718   3.584   3.961
52640W        W24966  44.278  25.219   0.340
52641W        W24967  33.413  37.441  12.296
52642W        W24968  42.320  21.915  13.062
52643W        W24969  23.763  38.814  12.080
52644W        W24970   3.589  19.578   5.015
52645W        W24971   4.371  21.234  11.057
52646W        W24972  36.311  41.824  11.072
52647W        W24973  10.891   1.590   3.704
52648W        W24974   8.771   0.825   1.735
52649W        W24975  32.146  44.016   0.267
52650W        W24976   6.709  25.087   4.021
52651W        W24977   8.850  13.730   3.557
52652W        W24978  39.592  21.008   1.819
52653W        W24979  27.528  34.905  13.581
52654W        W24980  16.614  16.695  14.705
52655W        W24981  25.905  22.804   1.687
52656W        W24982   2.415  23.706  14.011
52657W        W24983  11.803   6.389   1.197
52658W        W24984  35.176  20.725  11.505
52659W        W24985  23.663  29.208  12.603
52660W        W24986  23.526   9.246  11.126
52661W        W24987  29.103  31.422  12.371
52662W        W24988  26.658  29.387  12.906
52663W        W24989  15.577  13.737  14.245
52664W        W24990  28.148  19.559   2.405
52665W        W24991  43.929  10.615   0.916
52666W        W24992  44.253  23.611   4.512
52667W        W24993  40.410  32.983  13.933
52668W        W24994  14.308  26.525  13.233
52669W        W24995  12.781   2.182   0.871
52670W        W24996  32.847  29.546   1.500
52671W        W24997  14.347  41.466   0.674
52672W        W24998   3.328  23.159  14.749
52673W        W24999  41.595  38.948   4.152
52674W        W25000  12.202  15.380   1.251
52675W        W25001  26.232  17.306   4.568
52676W        W25002   4.185  43.577  11.141
52677W        W25003  12.278  23.623  11.154
52678W        W25004  32.016  31.661   1.663
52679W        W25005   2.929  39.562  14.458
52680W        W25006  42.543  17.254  13.436
52681W        W25007  34.393  25.680  12.651
52682W        W25008  24.004  23.682   3.269
52683W        W25009  30.891  17.052   2.851
52684W        W25010  40.340  41.282   1.581
52685W        W25011   1.378   3.673  11.593
52686W        W25012  26.133  13.139   0.712
52687W        W25013  11.122  41.007   0.200
52688W        W25014  20.556   9.229   4.172
52689W        W25015  11.394  13.339  11.724
52690W        W25016  13.134   5.222   0.503
52691W        W25017  28.505  26.970   1.341
52692W        W25018   1.183  15.759   3.729
52693W        W25019  16.055  23.063  13.858
52694W        W25020  33.110  16.797  14.856
52695W        W25021  26.737  13.605  14.797
52696W        W25022   2.067  15.638  14.426
52697W        W25023  34.666   4.177  14.790
52698W        W25024  16.964   9.686   4.215
52699W        W25025  15.154   9.838  12.391
52700W        W25026   4.934  13.833   2.735
52701W        W25027  20.766  12.509   0.282
52702W        W25028  25.945  41.608   2.907
52703W        W25029  18.220  15.329   3.750
52704W        W25030  17.494  27.236  12.970
52705W        W25031  40.276  32.869   0.305
52706W        W25032   1.859  20.680  14.908
52707W        W25033  13.867  26.527   1.791
52708W        W25034  17.832   2.425   4.213
52709W        W25035  26.218  32.497   4.557
52710W        W25036   5.012  40.694  14.390
52711W        W25037  27.146  31.025  11.207
52712W        W25038  13.354   8.433   1.543
52713W        W25039   5.379  29.233   3.848
52714W        W25040  28.935   7.713  13.025
52715W        W25041   6.990  10.776   3.448
52716W        W25042  27.162   6.194  11.049
52717W        W25043  36.582  11.418   3.758
52718W        W25044  21.618   6.281  14.534
52719W        W25045  14.881  30.563  13.363
52720W        W25046  10.468   5.937   4.045
52721W        W25047  40.711   0.691  13.349
52722W        W25048  32.725  28.544  10.744
52723W        W25049  13.525  13.835   3.638
52724W        W25050   8.053  19.672   4.645
52725W        W25051   9.864  23.703  14.263
52726W        W25052   3.413   1.396   4.636
52727W        W25053  15.569  18.677   1.822
52728W        W25054  41.872  15.492   3.239
52729W        W25055  22.769  35.852  12.822
52730W        W25056  42.263  39.421   4.843
52731W        W25057  44.979  43.690   4.441
52732W        W25058   5.271  15.742  13.334
52733W        W25059  27.968  12.592   0.809
52734W        W25060  37.059  13.598  14.522
52735W        W25061  39.739  11.092   4.261
52736W        W25062  21.079  18.500   3.963
52737W        W25063  25.378  15.052  14.367
52738W        W25064  13.489   8.944   1.920
52739W        W25065  41.198   5.386   1.405
52740W        W25066  10.391  41.250   2.270
52741W        W25067  43.806  44.868  10.460
52742W        W25068   6.436  33.926  11.124
52743W        W25069  11.661  40.440   1.855
52744W        W25070  16.162  35.811   1.149
52745W        W25071  28.250  44.411  10.499
52746W        W25072  25.286  35.213  12.491
52747W        W25073  37.590  38.287   4.848
52748W        W25074  18.957  43.206   0.899
52749W        W25075  16.831  36.032   0.183
52750W        W25076  34.184   8.791  14.786
52751W        W25077   3.519   3.153   4.563
52752W        W25078  43.419  38.979  12.868
52753W        W25079   1.691   4.475   3.545
52754W        W25080  30.299  37.388   2.300
52755W        W25081  22.202   0.728  11.593
52756W        W25082  22.999  10.251  14.714
52757W        W25083   0.436   5.150  12.974
52758W        W25084   5.885  42.275   4.508
52759W        W25085  16.851  34.513   2.765
52760W        W25086  13.581   4.959  11.284
52761W        W25087  14.397  20.830  10.859
52762W        W25088  19.528   0.389   3.859
52763W        W25089  14.194  25.830   0.740
52764W        W25090  12.350  35.751   3.332
52765W        W25091   2.297  37.893  13.764
52766W        W25092  22.274  18.235  13.074
52767W        W25093  31.001  13.380   1.317
52768W        W25094  13.212  13.638  11.415
52769W        W25095   9.345  37.748   1.271
52770W        W25096  22.180  21.183   0.245
52771W        W25097   2.292  33.519   4.547
52772W        W25098  10.597  22.757  12.537
52773W        W25099  39.423  10.384   2.453
52774W        W25100  31.394  15.996   1.292
52775W        W25101  18.576  12.321  14.935
52776W        W25102  43.046  40.522   1.231
52777W        W25103   6.228  23.704  14.989
52778W        W25104  15.579  28.955  10.983
52779W        W25105  23.957   3.019  13.039
52780W        W25106  31.416  10.424   2.711
52781W        W25107  31.889  30.489   2.921
52782W        W25108  22.352   7.470   1.456
52783W        W25109  32.120  37.973   2.300
52784W        W25110  21.564  40.830  10.511
52785W        W25111  39.549  26.217  14.493
52786W        W25112  26.039  31.071   2.923
52787W        W25113  40.430   9.744   1.151
52788W        W25114   6.625  17.060   3.365
52789W        W25115   7.792  32.396   1.870
52790W        W25116  34.864   5.518   4.862
52791W        W25117   5.503  13.289  14.825
52792W        W25118  16.250  18.429   1.277
52793W        W25119  28.474  37.855   0.144
52794W        W25120   7.808  38.448  10.423
52795W        W25121  22.307   2.672  13.331
52796W        W25122   3.332   2.493  14.374
52797W        W25123  28.661  31.448   1.284
52798W        W25124  40.939  34.894   4.556
52799W        W25125  32.147  40.230  14.076
52800W        W25126  35.283  44.572  13.974
52801W        W25127  29.625  13.628   4.785
52802W        W25128  16.748  27.388   1.404
52803W        W25129  18.307  29.978  12.199
52804W        W25130  43.080  33.100  11.163
52805W        W25131  22.171   0.833   2.714
52806W        W25132  10.078  36.878  14.382
52807W        W25133  34.153   3.802  11.119
52808W        W25134  43.794  25.015  11.637
52809W        W25135  15.273  44.746  10.850
52810W        W25136   3.236  15.700  13.013
52811W        W25137  34.114  35.564   5.039
52812W        W25138   1.525  12.811   0.708
52813W        W25139  35.034  22.529  13.608
52814W        W25140  22.105  32.393  13.625
52815W        W25141  23.225  15.077   4.263
52816W        W25142  44.182  19.135  10.210
52817W        W25143  12.812  12.480   0.696
52818W        W25144  22.146  37.134   4.486
52819W        W25145  43.600  31.379  12.982
52820W        W25146  28.779  44.770  11.883
52821W        W25147   6.355  36.327   2.179
52822W        W25148  22.618  30.423   3.113
52823W        W25149   4.943  24.046   2.676
52824W        W25150  29.073  14.889   1.314
52825W        W25151  11.143  21.227   3.637
52826W        W25152  39.946  43.978   0.872
52827W        W25153  38.912  31.619  13.807
52828W        W25154   2.084  39.841  14.757
52829W        W25155  25.391  31.430   1.799
52830W        W25156  44.895  26.223  10.657
52831W        W25157  14.800  29.872  10.683
52832W        W25158  39.685  27.526  13.993
52833W        W25159   9.730  27.135   0.589
52834W        W25160  22.710  31.189   3.738
52835W        W25161  30.155   4.529   4.159
52836W        W25162   5.893  22.150  11.069
52837W        W25163  16.440   7.382   1.474
52838W        W25164  37.613  35.200  14.480
52839W        W25165  33.939   4.700   1.782
52840W        W25166  31.398  33.462  14.400
52841W        W25167  42.843  25.757  14.724
52842W        W25168  44.731  11.378  12.430
52843W        W25169  29.885  44.782   2.687
52844W        W25170   1.321  42.521  12.439
52845W        W25171  24.590  38.339   2.681
52846W        W25172  44.221  21.362   0.113
52847W        W25173  40.368  40.711   2.857
52848W        W25174  28.146  17.748  12.457
52849W        W25175  20.990  35.657  12.191
52850W        W25176  36.270  37.875   3.800
52851W        W25177  32.587  15.120   4.666
52852W        W25178  39.987  18.329   3.613
52853W        W25179  32.242   5.176  13.603
52854W        W25180  30.971  34.847  11.879
52855W        W25181  32.647  35.957  12.496
52856W        W25182  31.626  22.697  11.616
52857W        W25183  24.492  26.436   2.905
52858W        W25184  10.901  39.513   1.342
52859W        W25185   8.973  12.342  14.485
52860W        W25186   5.327  26.665   3.220
52861W        W25187  40.976   5.443  12.281
52862W        W25188  28.018  40.895   4.563
52863W        W25189  42.661  13.029  14.438
52864W        W25190  13.826  26.910   3.277
52865W        W25191  17.295  11.137   0.813
52866W        W25192  27.109  31.078   4.702
52867W        W25193  42.048  22.689  11.905
52868W        W25194  27.338  34.593   2.329
52869W        W25195  41.045  18.922  11.605
52870W        W25196  19.102  25.708   1.120
52871W        W25197  40.526  25.209   0.741
52872W        W25198  13.836  39.020   1.773
52873W        W25199   9.265  31.591  14.036
52874W        W25200  34.524  20.986   1.665
52875W        W25201   1.142  10.119   3.861
52876W        W25202   5.044  23.179   1.869
52877W        W25203  42.897   0.006  11.965
52878W        W25204  39.773  38.129   3.754
52879W        W25205  12.122  22.098   3.254
52880W        W25206  30.119  18.524   2.267
52881W        W25207  17.729  28.612  12.174
52882W        W25208  21.428  43.488  11.116
52883W        W25209  17.680  37.392   2.487
52884W        W25210  26.414  37.382   2.850
52885W        W25211  42.374  22.255  12.687
52886W        W25212  43.091   8.963   2.918
52887W        W25213  18.860  16.681  11.554
52888W        W25214  22.681   6.955  11.238
52889W        W25215  21.114   1.766  11.463
52890W        W25216  44.616  28.436  13.457
52891W        W25217  43.299  11.765   1.160
52892W        W25218  10.323  31.217  11.949
52893W        W25219   1.261  14.578  13.070
52894W        W25220  41.810   8.885  13.960
52895W        W25221  13.798  35.639  11.083
52896W        W25222  33.150  19.210  10.732
52897W        W25223   2.255  35.372  10.708
52898W        W25224  21.491   6.752  13.140
52899W        W25225  17.312  30.647  14.106
52900W        W25226   4.724  20.553   0.936
52901W        W25227  40.218  44.060   3.208
52902W        W25228  42.801  19.482   4.373
52903W        W25229  22.549  11.548   0.283
52904W        W25230  28.646  26.986   4.081
52905W        W25231  25.622  16.955   4.985
52906W        W25232  18.686  26.479  13.047
52907W        W25233   7.285   4.157  13.291
52908W        W25234  40.803   3.266   0.571
52909W        W25235  36.347  22.748   4.206
52910W        W25236  12.780  38.050   3.335
52911W        W25237  12.793  25.097  14.306
52912W        W25238  43.898  32.071  13.815
52913W        W25239   9.758  14.497   1.847
52914W        W25240  25.534  33.544  12.433
52915W        W25241  42.943  37.318   3.112
52916W        W25242  37.889   3.639   3.110
52917W        W25243  24.133  35.069  12.886
52918W        W25244  32.924  42.542   2.775
52919W        W25245   3.795  13.521   4.815
52920W        W25246  31.149  34.491   4.112
52921W        W25247  43.182   9.945  10.215
52922W        W25248  14.006  42.174   1.204
52923W        W25249  27.382  25.683  11.149
52924W        W25250  11.928   0.002   3.840
52925W        W25251  25.042  26.679   4.288
52926W        W25252  14.617  40.766   0.552
52927W        W25253  16.610  20.122  11.717
52928W        W25254  37.548   2.091   5.062
52929W        W25255  44.891  22.942  14.687
52930W        W25256  16.700  16.229   4.544
52931W        W25257   4.410   0.185   0.209
52932W        W25258  13.847  33.501   3.338
52933W        W25259  14.821  24.209  13.583
52934W        W25260   4.709  28.547  13.623
52935W        W25261   8.986  31.383   3.654
52936W        W25262  15.800  23.418  10.310
52937W        W25263  19.523   9.226  14.437
52938W        W25264  11.901  15.237   1.651
52939W        W25265   6.875   4.404   1.430
52940W        W25266  28.455  11.746  12.232
52941W        W25267   2.013  27.659  14.973
52942W        W25268   5.379  14.835  14.935
52943W        W25269   3.626   9.088   0.485
52944W        W25270  17.320  25.473   3.334
52945W        W25271  19.292   9.856   2.315
52946W        W25272  28.753  39.039  12.345
52947W        W25273  11.323  34.787  10.647
52948W        W25274  36.153  25.826  11.622
52949W        W25275  23.169  31.935   3.592
52950W        W25276  22.971   1.111   3.534
52951W        W25277  20.335  21.694   4.298
52952W        W25278  24.479  43.945   1.700
52953W        W25279  18.758   5.811  12.161
52954W        W25280  22.751  16.373   0.495
52955W        W25281  33.348   8.077  11.058
52956W        W25282  25.935  25.924  14.902
52957W        W25283  10.682  16.850  12.381
52958W        W25284   6.702  17.614   2.743
52959W        W25285   0.433  20.442  12.439
52960W        W25286  15.680  10.630  10.917
52961W        W25287  35.431  13.665  12.163
52962W        W25288  33.647  16.740  14.111
52963W        W25289  29.991  43.514   2.202
52964W        W25290  43.492  30.114  13.925
52965W        W25291  22.160  15.166   2.219
52966W        W25292   6.822  12.394   3.270
52967W        W25293  44.431  18.148   0.473
52968W        W25294  31.632  34.393   1.808
52969W        W25295  32.573   2.710  12.065
52970W        W25296  16.865  21.561  12.217
52971W        W25297  32.599   2.458   2.719
52972W        W25298   6.142  26.201   3.728
52973W        W25299   0.717  37.916   2.873
52974W        W25300  16.080  30.550  12.879
52975W        W25301  12.384  38.855   0.253
52976W        W25302  21.647  30.070   0.490
52977W        W25303   5.142  39.383  11.518
52978W        W25304  10.286  39.044  14.342
52979W        W25305   8.663   1.418  14.705
52980W        W25306  27.934  10.818  12.008
52981W        W25307  11.594  39.233   3.124
52982W        W25308   3.513  13.667  14.936
52983W        W25309   3.260  32.075  12.464
52984W        W25310  29.966  25.146   2.236
52985W        W25311  32.967  28.477  14.330
52986W        W25312  32.188  24.931  12.478
52987W        W25313   1.650  39.678   3.336
52988W        W25314  36.686  40.012  11.566
52989W        W25315   9.550   6.929   4.950
52990W        W25316  12.733   5.066  12.607
52991W        W25317  40.363  35.867  14.478
52992W        W25318   7.874  17.909   3.688
52993W        W25319  18.271  29.999  14.009
52994W        W25320  38.982  35.599   0.803
52995W        W25321  23.840  39.363  14.796
52996W        W25322  39.433   3.860   0.079
52997W        W25323  14.261   4.421  10.818
52998W        W25324  40.250  18.283  12.063
52999W        W25325   3.783   3.956   1.939
53000W        W25326  27.488  25.287   2.131
53001W        W25327  23.467  22.780   3.556
53002W        W25328   9.664   1.420  11.411
53003W        W25329  11.211  17.525   4.599
53004W        W25330  37.560  12.889   5.344
53005W        W25331  44.702   8.200  13.279
53006W        W25332  18.180  40.275  11.407
53007W        W25333  18.290  39.382   4.901
53008W        W25334  12.995  17.674   2.648
53009W        W25335   4.320  10.133   0.907
53010W        W25336   2.213  42.262  12.565
53011W        W25337  23.828  14.524  10.195
53012W        W25338  10.433  40.425  10.989
53013W        W25339  37.856   0.465   4.623
53014W        W25340   4.738   3.181  11.152
53015W        W25341  22.090   7.203   3.133
53016W        W25342  43.735  38.482   4.593
53017W        W25343  28.181  31.488  11.141
53018W        W25344   8.588  28.638  14.290
53019W        W25345   4.326  19.856   1.631
53020W        W25346  16.497   1.767   2.224
53021W        W25347  29.934  18.554  13.021
53022W        W25348  41.552  21.193   2.261
53023W        W25349   2.270   0.546   3.088
53024W        W25350  16.174  15.061  12.904
53025W        W25351  18.783  10.305  11.901
53026W        W25352  22.795  27.621  12.872
53027W        W25353  24.919  18.264  14.423
53028W        W25354   9.125  44.038   2.752
53029W        W25355  14.604  26.506  11.150
53030W        W25356  38.828   3.443  11.579
53031W        W25357  15.694  34.389  12.260
53032W        W25358  18.531  36.086   4.131
53033W        W25359  20.500  24.191   0.247
53034W        W25360  25.350  26.694   3.495
53035W        W25361  21.466  40.007  12.503
53036W        W25362  27.013   4.781  12.318
53037W        W25363   4.239  38.776  12.007
53038W        W25364  36.853  15.299  13.848
53039W        W25365  42.851   2.619  11.573
53040W        W25366   5.949  38.276  12.920
53041W        W25367  22.721  24.464   4.145
53042W        W25368  22.581  32.983   1.405
53043W        W25369  19.856  12.673   4.598
53044W        W25370   5.905  14.301   0.454
53045W        W25371  40.264  37.082   4.476
53046W        W25372  12.091  11.209  12.513
53047W        W25373  43.908  30.970   1.449
53048W        W25374  31.525  20.997  14.371
53049W        W25375  42.181  22.725  12.829
53050W        W25376  43.807  35.646   4.201
53051W        W25377  44.026  43.737  13.435
53052W        W25378  44.806  14.312  10.842
53053W        W25379  13.446   5.125  12.954
53054W        W25380  21.870  19.013   2.697
53055W        W25381  29.727  36.347   0.447
53056W        W25382  36.777   8.474   1.759
53057W        W25383   8.840   1.282   4.555
53058W        W25384  24.042  37.981   1.544
53059W        W25385  16.867  28.479  14.926
53060W        W25386  13.847   2.965   0.467
53061W        W25387   5.409  40.091   3.179
53062W        W25388  26.893  21.179  12.687
53063W        W25389  22.440  10.701   0.468
53064W        W25390  20.807  21.131   4.901
53065W        W25391   2.951   8.895  10.594
53066W        W25392  38.432  24.277  12.902
53067W        W25393  13.639  41.012   0.960
53068W        W25394  43.323  29.790   1.861
53069W        W25395  12.209  18.948   0.285
53070W        W25396   1.237  16.751   0.303
53071W        W25397   1.309  23.614   5.475
53072W        W25398   1.354  33.629   2.715
53073W        W25399  28.098  40.351   3.827
53074W        W25400  26.438   2.207  13.594
53075W        W25401   3.284  35.500   4.281
53076W        W25402  35.301  22.766  10.984
53077W        W25403  36.697  10.633  10.635
53078W        W25404  11.635   9.766   2.677
53079W        W25405  44.733  29.859  14.813
53080W        W25406  34.093  20.143  11.262
53081W        W25407  42.294  28.425  11.077
53082W        W25408  26.724  34.950  12.114
53083W        W25409  27.107  15.588  13.331
53084W        W25410  32.033  30.182  13.284
53085W        W25411   6.655  17.313   2.321
53086W        W25412   5.480  21.672  10.560
53087W        W25413  21.176   9.212  14.092
53088W        W25414  33.782  16.271   3.490
53089W        W25415   8.688  19.490  12.738
53090W        W25416   0.787  20.724  11.148
53091W        W25417  44.323  29.270  11.005
53092W        W25418  36.230  15.215   1.674
53093W        W25419   6.826  32.667   2.669
53094W        W25420  13.758  15.020   1.746
53095W        W25421   6.929  11.352   0.892
53096W        W25422  18.805  33.102   2.522
53097W        W25423  37.933  29.092   4.401
53098W        W25424   6.947  24.733  10.928
53099W        W25425   3.425  28.444   1.882
53100W        W25426  44.088  27.644  14.666
53101W        W25427   5.934  33.111   2.242
53102W        W25428  26.204  17.128  14.892
53103W        W25429  18.648   5.948   2.004
53104W        W25430   8.045  39.870  11.206
53105W        W25431  34.042   3.500   2.839
53106W        W25432  30.014  20.831   4.660
53107W        W25433  10.239  29.714  12.962
53108W        W25434  43.421  17.546   2.680
53109W        W25435  44.056  36.012  14.309
53110W        W25436  43.526  36.054   2.787
53111W        W25437  13.854   7.489  11.831
53112W        W25438  21.055   3.701   4.549
53113W        W25439  11.138   4.671   3.967
53114W        W25440  25.659  28.342   0.343
53115W        W25441   5.171  14.786  11.082
53116W        W25442  43.553  23.916  11.168
53117W        W25443  31.158  28.895   3.786
53118W        W25444  14.172   1.714  14.541
53119W        W25445  25.163   7.805  14.897
53120W        W25446  40.443  40.118  12.143
53121W        W25447  40.331  34.942   3.337
53122W        W25448  39.658   9.689  10.601
53123W        W25449  29.935  26.032   1.018
53124W        W25450  35.985   0.146   0.543
53125W        W25451  19.566  32.861   2.599
53126W        W25452  39.967  15.583   3.116
53127W        W25453   2.232  36.563  12.855
53128W        W25454  28.096   3.515  13.123
53129W        W25455   6.729  15.338  10.593
53130W        W25456  22.373  14.261   1.118
53131W        W25457  18.544  10.920   0.518
53132W        W25458  26.008   3.740  14.973
53133W        W25459  13.995  39.501  14.474
53134W        W25460  41.358   7.827  11.011
53135W        W25461  39.907  21.785  14.401
53136W        W25462  18.862  30.014   0.583
53137W        W25463  13.081  36.548  12.323
53138W        W25464   1.523   7.161   4.265
53139W        W25465  21.658  42.845  12.915
53140W        W25466  22.196  44.403   4.604
53141W        W25467  32.655  17.369  11.986
53142W        W25468  33.331  26.945  12.995
53143W        W25469   1.999   9.770  13.073
53144W        W25470  31.098  25.153  14.969
53145W        W25471  23.095  15.566  14.304
53146W        W25472   2.663  18.455   3.726
53147W        W25473  29.388  15.327  13.563
53148W        W25474  31.816  32.041   1.340
53149W        W25475  23.948   3.275  14.444
53150W        W25476   3.376  10.842  10.638
53151W        W25477  28.989  39.127  13.095
53152W        W25478  23.751   5.322  13.596
53153W        W25479  32.048  18.569   0.907
53154W        W25480  39.634  36.471  13.928
53155W        W25481  17.128  19.694   4.051
53156W        W25482  18.931  30.160  11.536
53157W        W25483  26.167  40.099  12.371
53158W        W25484  15.739  21.315  11.742
53159W        W25485   5.707   8.384   2.152
53160W        W25486  14.249  39.458  14.919
53161W        W25487  37.541  23.247  10.640
53162W        W25488  44.895   7.209   0.889
53163W        W25489  37.559  26.652  13.896
53164W        W25490  30.019  22.456  13.362
53165W        W25491  25.010  24.991   1.704
53166W        W25492  12.316  37.586  12.359
53167W        W25493  17.949  10.793  11.021
53168W        W25494  11.702  13.111  14.631
53169W        W25495  43.316   4.483  11.444
53170W        W25496  30.528  32.337  10.427
53171W        W25497  38.537  28.656  14.807
53172W        W25498   0.595  37.649  12.122
53173W        W25499  36.902  35.273  14.869
53174W        W25500   1.698  29.261   4.315
53175W        W25501  28.258  35.502  11.190
53176W        W25502  40.473  31.300   1.358
53177W        W25503  38.516  27.052   2.079
53178W        W25504  11.856  27.968  14.217
53179W        W25505  40.419  20.917   3.586
53180W        W25506   5.371  29.176  11.992
53181W        W25507  31.953  27.067  10.910
53182W        W25508  31.131   6.649  11.518
53183W        W25509   7.135  42.840  14.803
53184W        W25510  14.047  25.952  11.504
53185W        W25511  22.646  44.990  12.658
53186W        W25512   8.396  23.639   4.386
53187W        W25513  30.012  12.560  14.592
53188W        W25514   0.197   1.833  10.716
53189W        W25515  23.034  37.321  13.260
53190W        W25516  19.686   5.890  11.695
53191W        W25517  18.011   2.206   2.188
53192W        W25518   2.176  21.446  12.503
53193W        W25519  26.869  23.218  12.750
53194W        W25520  39.304  22.961   0.713
53195W        W25521  20.548  33.045   0.673
53196W        W25522   8.159  39.079   4.151
53197W        W25523   7.073   3.863  12.443
53198W        W25524   5.169  17.525  10.932
53199W        W25525  37.484   0.877   4.684
53200W        W25526   1.764   6.823   3.127
53201W        W25527  39.489  34.670  11.530
53202W        W25528   4.330  12.345   0.372
53203W        W25529  43.129   8.973  13.484
53204W        W25530  37.180  41.595   3.773
53205W        W25531  29.330  10.614   2.840
53206W        W25532   2.779  34.521   0.509
53207W        W25533  20.684  18.226   2.007
53208W        W25534  44.643   8.679  14.524
53209W        W25535  44.040   4.826   3.759
53210W        W25536  20.827   0.961  12.586
53211W        W25537   6.566  28.523   2.544
53212W        W25538  31.040   3.171  14.254
53213W        W25539   3.515  23.645   4.651
53214W        W25540  34.874  43.182  11.127
53215W        W25541  13.772  24.907   9.751
53216W        W25542   3.118  16.017   5.056
53217W        W25543  36.065   6.295   3.730
53218W        W25544  15.767  13.363  14.524
53219W        W25545   5.398  40.375  14.873
53220W        W25546  24.000   4.730  13.611
53221W        W25547  43.687  22.277  11.230
53222W        W25548  36.937  27.055  10.638
53223W        W25549  36.041  32.071  14.552
53224W        W25550  17.560   3.022   0.304
53225W        W25551   2.281  35.927  10.292
53226W        W25552  32.442  40.616   2.427
53227W        W25553  19.502   1.918   3.156
53228W        W25554  28.364   2.858  14.764
53229W        W25555  12.778  10.347  13.040
53230W        W25556  19.745   4.761  10.612
53231W        W25557   4.848  21.740   1.408
53232W        W25558  34.113  29.746   1.359
53233W        W25559  10.129  24.715  11.879
53234W        W25560  13.642  21.727  11.622
53235W        W25561  18.074  10.197   2.317
53236W        W25562  32.012   0.438   3.899
53237W        W25563  23.102   5.797  14.382
53238W        W25564  37.771  25.520  13.406
53239W        W25565  34.493  28.040  14.342
53240W        W25566  14.680  12.724  12.002
53241W        W25567  15.794  26.998  13.346
53242W        W25568  39.110   1.900   2.120
53243W        W25569  19.595  17.838   0.730
53244W        W25570  36.051  29.877  10.445
53245W        W25571  27.416  37.492   3.755
53246W        W25572  40.778  35.071   3.646
53247W        W25573  32.923  12.784  13.127
53248W        W25574  18.784  36.029  14.042
53249W        W25575  14.799  40.147   3.209
53250W        W25576  39.538  10.893   0.802
53251W        W25577  43.277  43.325  14.897
53252W        W25578  25.531  24.276  11.568
53253W        W25579  44.297   9.901  13.965
53254W        W25580  25.086  35.524  12.849
53255W        W25581  13.924  37.914   3.597
53256W        W25582  11.154   2.667   2.775
53257W        W25583  17.599  37.463  14.837
53258W        W25584  34.253  16.306   3.694
53259W        W25585   5.169   1.451   0.337
53260W        W25586  12.619  13.362   2.261
53261W        W25587  43.883  20.553   1.215
53262W        W25588  11.731  30.919   4.843
53263W        W25589  28.396  11.210  11.117
53264W        W25590  31.502  13.762   0.750
53265W        W25591  39.310  31.168   3.694
53266W        W25592  43.837  26.462  11.851
53267W        W25593   1.027   5.324  13.405
53268W        W25594  22.725  28.958  12.491
53269W        W25595  26.880  37.486   3.876
53270W        W25596  24.747  34.128  14.100
53271W        W25597  22.870  31.651  10.767
53272W        W25598  13.530  17.194   9.807
53273W        W25599  32.965  38.852   2.429
53274W        W25600   1.720  25.037  11.873
53275W        W25601   1.235   8.403  14.931
53276W        W25602  22.738  24.427   3.251
53277W        W25603   7.411  21.501  10.337
53278W        W25604  15.337  36.100   4.250
53279W        W25605  38.292  27.948  12.910
53280W        W25606  31.027  15.002   2.659
53281W        W25607  16.024  10.743   1.927
53282W        W25608  17.909   4.836   4.516
53283W        W25609  23.985  19.265   2.744
53284W        W25610   3.283   0.822  10.594
53285W        W25611   2.476   4.317  12.008
53286W        W25612  35.043  30.924   0.865
53287W        W25613  43.415  40.472   1.615
53288W        W25614  44.544  14.329  12.689
53289W        W25615   9.309  22.496   0.498
53290W        W25616  36.995   5.855  10.697
53291W        W25617  20.534  29.071  10.749
53292W        W25618  19.495   9.364   2.074
53293W        W25619  28.470  41.312  13.161
53294W        W25620   7.894  13.547   4.431
53295W        W25621  21.116  21.471  14.909
53296W        W25622  42.768  33.541  11.062
53297W        W25623   0.514  12.385  12.448
53298W        W25624  13.624  28.858   0.967
53299W        W25625  30.101  17.123   2.641
53300W        W25626   4.283   4.161  13.882
53301W        W25627  30.322  15.181   1.250
53302W        W25628  31.912  25.965   1.769
53303W        W25629  31.716  43.249   3.396
53304W        W25630  10.809  18.741  11.014
53305W        W25631  12.734  42.375   3.923
53306W        W25632  22.048   9.828  13.088
53307W        W25633   9.291  42.328  13.396
53308W        W25634  13.593  35.518  13.292
53309W        W25635  41.025  35.126   0.504
53310W        W25636  40.073  30.595   4.447
53311W        W25637  39.822  43.484   0.976
53312W        W25638  10.041   2.493  10.517
53313W        W25639  25.599  29.184  10.505
53314W        W25640  29.343  42.465   1.249
53315W        W25641  34.047  18.599  11.947
53316W        W25642  38.718   9.427   0.251
53317W        W25643  20.552  11.464   3.400
53318W        W25644  37.318  19.279   2.170
53319W        W25645  13.297  39.020   3.879
53320W        W25646  40.487  23.987  10.704
53321W        W25647   1.899  21.524  11.076
53322W        W25648  42.954  20.068  12.332
53323W        W25649   6.112  13.154   2.769
53324W        W25650   9.316  33.210   0.344
53325W        W25651   3.342  27.040   0.312
53326W        W25652  29.077  43.785  12.946
53327W        W25653  30.339  15.032  13.613
53328W        W25654  15.136  26.151   4.948
53329W        W25655   4.485  25.474  14.014
53330W        W25656  13.868  31.631  11.477
53331W        W25657  25.729  32.610   1.164
53332W        W25658  21.292  15.625   2.628
53333W        W25659   7.886  33.056  10.814
53334W        W25660  29.375  29.347   4.050
53335W        W25661  41.235  38.510  11.020
53336W        W25662  11.176  14.604  11.160
53337W        W25663  18.259   9.424   3.350
53338W        W25664  37.497   5.710   0.812
53339W        W25665  10.862  11.963   0.383
53340W        W25666  32.650  35.473  13.872
53341W        W25667  14.550  31.960   3.198
53342W        W25668  15.781  18.418   3.152
53343W        W25669  11.413  15.306  10.697
53344W        W25670  41.834  12.928  14.621
53345W        W25671  26.994  15.692   4.328
53346W        W25672  20.096  42.953  10.999
53347W        W25673  14.146  31.147   0.241
53348W        W25674  18.502  23.372  11.386
53349W        W25675   2.106   6.311  12.629
53350W        W25676   0.485  34.404  13.349
53351W        W25677  21.252  42.330   2.165
53352W        W25678  44.473   6.138  14.922
53353W        W25679  34.562  41.814   3.839
53354W        W25680  36.645  44.438   0.142
53355W        W25681  11.590  29.099   3.717
53356W        W25682  31.177  21.165   0.570
53357W        W25683  35.071  23.134   1.469
53358W        W25684  32.719   0.947  13.941
53359W        W25685  24.631  24.719  14.924
53360W        W25686  25.064  44.655  13.035
53361W        W25687  21.691   0.747   2.894
53362W        W25688  26.722  13.161  10.710
53363W        W25689  20.588  23.297  11.506
53364W        W25690  34.302  12.855  12.653
53365W        W25691  28.975  40.325   0.958
53366W        W25692  41.797   2.288   0.623
53367W        W25693  40.313  33.126   2.207
53368W        W25694  37.370  36.366  13.027
53369W        W25695   2.843  22.426  13.763
53370W        W25696  20.668  29.702   1.819
53371W        W25697  44.983  22.736   1.429
53372W        W25698   9.964  34.294  12.915
53373W        W25699  30.945   1.342  12.419
53374W        W25700   9.516  25.239   1.990
53375W        W25701  12.757  10.158   0.375
53376W        W25702  42.415  20.146  13.096
53377W        W25703  16.728   3.246   1.701
53378W        W25704  38.657  33.840   0.867
53379W        W25705  41.909   5.836  14.344
53380W        W25706  27.541  17.142  13.388
53381W        W25707  30.178  44.515   1.472
53382W        W25708   9.236  12.209   2.430
53383W        W25709  39.396  23.104  12.145
53384W        W25710  17.821  13.884  12.883
53385W        W25711   0.680   7.133   1.384
53386W        W25712  41.876  24.400   0.374
53387W        W25713   4.056  10.781  11.710
53388W        W25714   7.627   4.252  10.626
53389W        W25715  42.243  20.135   1.744
53390W        W25716  20.550  43.413  13.628
53391W        W25717  38.197  29.552  14.349
53392W        W25718  23.768  41.299   0.299
53393W        W25719   3.229  33.490   2.820
53394W        W25720   5.871   5.067  12.008
53395W        W25721  26.939  16.365  14.478
53396W        W25722   2.135  16.260  11.809
53397W        W25723   4.953   7.893   4.184
53398W        W25724  11.149  30.492  12.519
53399W        W25725  30.146  11.377   0.962
53400W        W25726  18.324   5.834  11.120
53401W        W25727   3.618  27.451   2.727
53402W        W25728  13.435   5.676  13.030
53403W        W25729  35.139  16.447  11.196
53404W        W25730  24.019   8.817  11.593
53405W        W25731   9.289  11.734  11.923
53406W        W25732   9.282  43.152   0.085
53407W        W25733  41.771  16.278   2.852
53408W        W25734  21.444  35.748   4.102
53409W        W25735  43.263  18.675   0.182
53410W        W25736   4.433  36.337   0.015
53411W        W25737  25.466  23.838  12.687
53412W        W25738  16.536   6.302   4.147
53413W        W25739  33.525  28.028  10.781
53414W        W25740  40.280  20.875  14.410
53415W        W25741  34.768  21.753   1.192
53416W        W25742  44.414  20.733  12.934
53417W        W25743  42.362  38.459  13.410
53418W        W25744  34.803  36.902  14.423
53419W        W25745  16.293  16.553  12.868
53420W        W25746  35.033  32.910  12.538
53421W        W25747   7.253  44.522  14.305
53422W        W25748  16.625  31.981   4.699
53423W        W25749  44.705  32.591   3.861
53424W        W25750  25.581  35.590   2.371
53425W        W25751   2.451  30.120  12.589
53426W        W25752  25.726  36.867  13.352
53427W        W25753  25.145  18.461   5.033
53428W        W25754   0.350  25.664   1.846
53429W        W25755   5.303  39.418  11.040
53430W        W25756  33.830  41.520  11.835
53431W        W25757  34.620  44.282   3.624
53432W        W25758  15.654  31.940   3.659
53433W        W25759  25.453  29.452   2.172
53434W        W25760  28.908   4.555  13.473
53435W        W25761   5.467  10.691   4.348
53436W        W25762  34.912  27.103   0.269
53437W        W25763  39.014  19.255   1.531
53438W        W25764  13.882  44.420   4.567
53439W        W25765  17.620   3.331   1.697
53440W        W25766   2.824   6.935  13.752
53441W        W25767  26.119  15.081  14.884
53442W        W25768  31.067  37.113   0.828
53443W        W25769  42.410  22.773  13.338
53444W        W25770  30.858   7.464  12.405
53445W        W25771  36.767  15.372  14.831
53446W        W25772   3.473  18.797   2.982
53447W        W25773  21.464  36.055   3.294
53448W        W25774  40.062  28.807   2.330
53449W        W25775  15.405   8.822   4.052
53450W        W25776  16.130   6.411  12.751
53451W        W25777  19.744  14.191   1.247
53452W        W25778  24.943  11.875  13.823
53453W        W25779  10.469  42.029   1.879
53454W        W25780  28.563  29.579  11.585
53455W        W25781  41.800   8.446  12.935
53456W        W25782  34.478  40.505  14.205
53457W        W25783  12.395  16.910  14.329
53458W        W25784   7.159  39.007   3.238
53459W        W25785  23.181   3.064  14.426
53460W        W25786  17.490   4.698   4.822
53461W        W25787  36.969  38.615   0.617
53462W        W25788  42.857   0.359  14.324
53463W        W25789  17.573  18.653   3.145
53464W        W25790   7.209  19.623  14.494
53465W        W25791  15.378  13.829   2.032
53466W        W25792  43.335  16.690   4.675
53467W        W25793  25.627  18.755   4.819
53468W        W25794  32.242  20.190   4.368
53469W        W25795  39.523  21.698  14.075
53470W        W25796  38.338  39.415  13.905
53471W        W25797  26.697  20.141   0.896
53472W        W25798   0.574   6.819  11.250
53473W        W25799  44.074   6.310  13.974
53474W        W25800  21.051  14.083  14.856
53475W        W25801  36.507  11.509   3.232
53476W        W25802  16.834  17.485  10.957
53477W        W25803  26.627  25.389   0.410
53478W        W25804  38.830  11.334  13.330
53479W        W25805  29.589  16.332  13.321
53480W        W25806   4.802  35.491  14.852
53481W        W25807  42.634  16.737   3.975
53482W        W25808  24.192  27.979   4.074
53483W        W25809  30.198  17.719   1.362
53484W        W25810  32.798   0.224  14.934
53485W        W25811  21.624   3.365  11.603
53486W        W25812  15.656   1.241  14.807
53487W        W25813  30.238  32.449  14.581
53488W        W25814  33.771  26.576  14.799
53489W        W25815  27.518  19.658   0.907
53490W        W25816  19.266  32.001  12.496
53491W        W25817  24.378  18.395   5.632
53492W        W25818  15.709  22.491  12.537
53493W        W25819  40.070   2.145  12.056
53494W        W25820   8.187  27.895   2.838
53495W        W25821   1.905  38.292  12.935
53496W        W25822  42.859   1.673  14.813
53497W        W25823  12.608  44.474   1.890
53498W        W25824  18.706  29.144  12.622
53499W        W25825   6.293  33.524   4.412
53500W        W25826  30.473  34.046  13.079
53501W        W25827  22.149  24.067   2.619
53502W        W25828  33.550  42.508   0.763
53503W        W25829  16.595   2.689   1.382
53504W        W25830   3.745   3.442   1.918
53505W        W25831   8.442  12.363  14.497
53506W        W25832  12.817  17.636  13.530
53507W        W25833  32.214  42.402  11.233
53508W        W25834  42.825  42.959   0.951
53509W        W25835  19.810   7.252  14.901
53510W        W25836  16.967  38.342  11.893
53511W        W25837  30.543   3.492  10.944
53512W        W25838  31.931  24.595  10.516
53513W        W25839  33.324  36.817  14.415
53514W        W25840  37.686  27.689   2.303
53515W        W25841  31.581   8.566  14.943
53516W        W25842  12.840  36.133   1.866
53517W        W25843  35.669  31.696  14.483
53518W        W25844  22.049  26.207   4.444
53519W        W25845  19.628  24.134   4.558
53520W        W25846  35.456  42.317   4.332
53521W        W25847  36.303   4.022   4.278
53522W        W25848  16.892   6.168   0.606
53523W        W25849  18.600  40.512  13.442
53524W        W25850  42.061   6.930  14.812
53525W        W25851   5.245  15.501  11.773
53526W        W25852  13.378   7.311   4.554
53527W        W25853  25.170  39.569   4.558
53528W        W25854  22.757  15.105  10.651
53529W        W25855  14.200   2.879  10.712
53530W        W25856   0.663  25.140  11.920
53531W        W25857  18.856  25.594  14.284
53532W        W25858  41.408  11.346  10.436
53533W        W25859  26.990  44.705  14.280
53534W        W25860   3.877  30.975   2.398
53535W        W25861  12.705  21.587   3.756
53536W        W25862  22.573  42.325   3.112
53537W        W25863  40.364  29.580   3.225
53538W        W25864   6.645  31.410   2.412
53539W        W25865   5.830  13.619   2.919
53540W        W25866  34.964  30.510   0.219
53541W        W25867  18.804  33.877  10.912
53542W        W25868  43.366  26.424  12.124
53543W        W25869   6.914  17.683   1.421
53544W        W25870  31.260  25.122   0.893
53545W        W25871  43.994  23.828   2.682
53546W        W25872   6.477  30.042  14.226
53547W        W25873  39.344  35.596   2.714
53548W        W25874  19.188  29.986   3.707
53549W        W25875  25.121  27.644  11.139
53550W        W25876  32.846   1.267   1.297
53551W        W25877   1.793   3.191  12.917
53552W        W25878  24.874  17.844  11.631
53553W        W25879  42.529   2.000  12.908
53554W        W25880  40.460  39.010  11.254
53555W        W25881  30.045  13.560   2.429
53556W        W25882  18.543  13.218   2.955
53557W        W25883   3.885  25.687  12.597
53558W        W25884  11.181  19.205   3.273
53559W        W25885  10.432  35.517   3.297
53560W        W25886  14.582  40.580   3.350
53561W        W25887  25.829  19.706  12.273
53562W        W25888  33.445  14.372  11.702
53563W        W25889  18.969  24.917   1.022
53564W        W25890  24.885  15.921  11.102
53565W        W25891  43.956  13.916   0.408
53566W        W25892  28.582   2.891   0.759
53567W        W25893  12.155  44.556   4.087
53568W        W25894   1.586  23.237   1.227
53569W        W25895  37.009   6.223  12.049
53570W        W25896   4.412  41.853  10.725
53571W        W25897  11.106  19.056  11.736
53572W        W25898  35.652  22.007   0.360
53573W        W25899  33.624  29.806   1.116
53574W        W25900  42.499  25.656   3.155
53575W        W25901  28.993  29.932  11.526
53576W        W25902   5.556  34.300  10.890
53577W        W25903   9.372  21.155   4.061
53578W        W25904  39.004   4.896   3.116
53579W        W25905   5.151  27.287  12.012
53580W        W25906  33.529  24.444  12.529
53581W        W25907   7.172  11.132   3.797
53582W        W25908   2.733   0.703   3.808
53583W        W25909  36.145  20.635  14.632
53584W        W25910   1.458  13.225   4.842
53585W        W25911  30.512  26.832   3.212
53586W        W25912   0.395  16.245   1.439
53587W        W25913  20.682  13.349  10.509
53588W        W25914  26.344  11.136   4.212
53589W        W25915  23.679   9.396   0.424
53590W        W25916  22.690  29.970  12.249
53591W        W25917  41.658  16.476  11.147
53592W        W25918   7.828   6.093  11.376
53593W        W25919  26.667  27.293  14.013
53594W        W25920  36.532  44.914   0.876
53595W        W25921   6.225  31.055  13.316
53596W        W25922  18.850  22.984   3.605
53597W        W25923  11.314   6.020  11.811
53598W        W25924   0.022   6.359   2.215
53599W        W25925  38.431  12.332  14.238
53600W        W25926  15.590  28.693   3.733
53601W        W25927  12.643   2.024   3.248
53602W        W25928  23.162   5.294   4.471
53603W        W25929  42.367   0.963  14.740
53604W        W25930  15.547  43.750   0.419
53605W        W25931  18.265  44.881   3.806
53606W        W25932  38.057   2.423  13.944
53607W        W25933  24.188  20.518  10.710
53608W        W25934  31.087  28.726  13.600
53609W        W25935   8.139  38.103  11.166
53610W        W25936  40.895  21.263  10.962
53611W        W25937  28.416  27.459   4.103
53612W        W25938  26.555  15.903   3.626
53613W        W25939  26.412  19.222  14.679
53614W        W25940  23.779  30.104   3.851
53615W        W25941  36.599  10.533   3.454
53616W        W25942  20.288  43.936   3.572
53617W        W25943  16.651  24.698   0.854
53618W        W25944  27.656  40.933  13.297
53619W        W25945   3.294   6.871   1.432
53620W        W25946  24.890  16.674  11.052
53621W        W25947  12.847  38.126  14.676
53622W        W25948  23.108   6.787  14.461
53623W        W25949  38.201  26.993   1.227
53624W        W25950  36.111  31.592   3.844
53625W        W25951  38.303  35.657   2.672
53626W        W25952  17.647  44.859   1.205
53627W        W25953  40.953  24.477   3.249
53628W        W25954  13.914  10.629  14.456
53629W        W25955   3.704  43.293   1.650
53630W        W25956  42.229   6.416  13.525
53631W        W25957  22.203   9.181  14.999
53632W        W25958  28.753  43.104  13.433
53633W        W25959  42.107  37.302   1.288
53634W        W25960  21.075  18.551  11.212
53635W        W25961  29.970   5.911   3.793
53636W        W25962  25.351   7.628   1.982
53637W        W25963  10.644  31.444   2.094
53638W        W25964  41.981  15.226  12.830
53639W        W25965  24.743   7.226  14.919
53640W        W25966  13.307  15.107  13.866
53641W        W25967  16.130   7.883  10.828
53642W        W25968  39.010  31.672   2.758
53643W        W25969  36.893  19.240   0.346
53644W        W25970  35.727  33.536   0.548
53645W        W25971   9.844  22.476   1.883
53646W        W25972  40.967  39.262  11.158
53647W        W25973  13.275  14.365   4.729
53648W        W25974   3.333   0.883   4.584
53649W        W25975  44.913  24.812   1.078
53650W        W25976   9.832  12.300   4.666
53651W        W25977  26.834  21.560  11.490
53652W        W25978  24.466  40.464  13.056
53653W        W25979  34.373   8.033   0.701
53654W        W25980  31.920  15.777  10.772
53655W        W25981   6.631  38.478   3.672
53656W        W25982  42.744  25.642  12.919
53657W        W25983  44.138  14.399   0.242
53658W        W25984  25.306  21.184   5.121
53659W        W25985  12.583   2.949   3.716
53660W        W25986  28.566  36.164  11.627
53661W        W25987  25.563  38.741   1.727
53662W        W25988   7.275   5.713  10.915
53663W        W25989  33.941  41.734  13.959
53664W        W25990  28.341  14.112  11.437
53665W        W25991   4.223  19.176   2.360
53666W        W25992  23.698  19.589  14.393
53667W        W25993  36.444   7.768  13.411
53668W        W25994  35.451  20.278   4.375
53669W        W25995  18.201  44.588  13.211
53670W        W25996  20.148   7.214  10.955
53671W        W25997  35.024  18.742  14.549
53672W        W25998  36.261  14.550   2.204
53673W        W25999  37.411  32.560  14.345
53674W        W26000  42.199  39.435   1.198
53675W        W26001  41.154  22.159   2.562
53676W        W26002   3.230  24.573   1.718
53677W        W26003  17.228  21.685   4.004
53678W        W26004   0.617  38.731  11.620
53679W        W26005  14.794  23.537   3.197
53680W        W26006  35.473  28.581  12.572
53681W        W26007  25.455  29.428  13.024
53682W        W26008  20.764   4.196   2.623
53683W        W26009  18.082  16.303  11.941
53684W        W26010  32.890  22.615   1.822
53685W        W26011  30.108  16.082  14.096
53686W        W26012  10.467  13.453  10.845
53687W        W26013   4.367  43.009   2.722
53688W        W26014  40.151  30.028  12.894
53689W        W26015  14.187  37.901   4.155
53690W        W26016  12.701   4.459   1.777
53691W        W26017  24.197  26.489   4.542
53692W        W26018   5.193  28.454   0.654
53693W        W26019  14.265  12.620  13.546
53694W        W26020  37.764   7.270   3.105
53695W        W26021   0.842  16.182   0.534
53696W        W26022  40.353  39.071  12.119
53697W        W26023   4.628  22.770  13.644
53698W        W26024   2.019   2.398  10.749
53699W        W26025  16.415  35.783  13.910
53700W        W26026  24.208   4.788  11.992
53701W        W26027  11.506  10.391   0.943
53702W        W26028  42.090  34.817  10.317
53703W        W26029  37.782   9.047  10.823
53704W        W26030   3.377  42.475   4.249
53705W        W26031  30.812  27.988  12.492
53706W        W26032   8.394  41.986   4.663
53707W        W26033  41.815  29.230  10.671
53708W        W26034  23.154   3.618  11.015
53709W        W26035  30.820  23.205   2.281
53710W        W26036   3.185  40.546  11.655
53711W        W26037  29.464  14.563   2.546
53712W        W26038  12.131  10.397  14.029
53713W        W26039  30.731   0.014  12.095
53714W        W26040  38.108  22.060  13.576
53715W        W26041  22.121  13.133   3.820
53716W        W26042  30.416  14.556   3.799
53717W        W26043  15.874  13.115   2.310
53718W        W26044  31.914   8.250  13.556
53719W        W26045  31.178  44.928  12.391
53720W        W26046   3.376  18.558  14.915
53721W        W26047  29.267  20.784  11.113
53722W        W26048  26.133  19.729   4.329
53723W        W26049  11.732  41.998  12.077
53724W        W26050  30.187  13.152   0.725
53725W        W26051   4.648  34.782   1.234
53726W        W26052  30.225   9.185  13.444
53727W        W26053  29.926  21.197  11.493
53728W        W26054  22.324  14.586   3.836
53729W        W26055  31.280  18.314   1.396
53730W        W26056   0.427   6.672  14.848
53731W        W26057  27.033  43.471   0.768
53732W        W26058  11.416  14.801  11.574
53733W        W26059   8.174  15.588  12.588
53734W        W26060  37.967  36.489  14.727
53735W        W26061  27.699  38.300   1.420
53736W        W26062  41.450  43.424  13.373
53737W        W26063  15.466  26.924  12.042
53738W        W26064  26.979  11.114  12.395
53739W        W26065  31.849  21.026  10.648
53740W        W26066  27.496  30.032   4.606
53741W        W26067  28.065  42.321   2.537
53742W        W26068  14.704  28.846  10.676
53743W        W26069   2.478  14.228  10.676
53744W        W26070   5.031  43.485  10.622
53745W        W26071  27.426  24.924   0.691
53746W        W26072  36.494  31.355  12.013
53747W        W26073   4.884  19.345  13.939
53748W        W26074  23.207  16.398   0.267
53749W        W26075   1.357  41.241   4.894
53750W        W26076   9.845   6.738   4.577
53751W        W26077  33.846  10.707  11.408
53752W        W26078   2.425  12.289   0.250
53753W        W26079  11.304  35.033  11.124
53754W        W26080  38.386  16.170   4.686
53755W        W26081   5.926   0.528   0.481
53756W        W26082  10.167  10.697  10.632
53757W        W26083  19.706  32.999   4.163
53758W        W26084  42.397  15.124  13.593
53759W        W26085  29.473  42.391  14.344
53760W        W26086  11.355  12.954   2.258
53761W        W26087  17.473   1.541   0.921
53762W        W26088  38.405   4.437   2.088
53763W        W26089  34.644  16.241  10.519
53764W        W26090  28.713  28.592  14.127
53765W        W26091  44.347   9.627   2.277
53766W        W26092  40.200   9.307   1.277
53767W        W26093  35.904  10.688  13.542
53768W        W26094   4.400  21.814   3.373
53769W        W26095  11.886   1.814  13.620
53770W        W26096   2.445  30.148   2.871
53771W        W26097  34.424  25.683   2.882
53772W        W26098  41.934  34.488  10.696
53773W        W26099  21.216  36.872  13.026
53774W        W26100  38.083  27.622   3.157
53775W        W26101  12.209  11.716   0.968
53776W        W26102  11.288  41.464  10.700
53777W        W26103  26.856  41.575   2.488
53778W        W26104  42.590   5.210  13.770
53779W        W26105  13.364  14.641  13.050
53780W        W26106  15.309  29.781   4.146
53781W        W26107  33.978  33.981  14.037
53782W        W26108  13.067  33.630  13.935
53783W        W26109  17.320   5.775  11.184
53784W        W26110  19.163  10.330   0.484
53785W        W26111  15.500  38.342   4.846
53786W        W26112  25.702  20.667  10.597
53787W        W26113  29.593  39.834  10.998
53788W        W26114  20.575   2.381   2.696
53789W        W26115  19.183   1.995   0.729
53790W        W26116  40.501   4.233  10.748
53791W        W26117  44.596  25.927  14.805
53792W        W26118  33.649  21.599  14.326
53793W        W26119  25.625  37.333  10.109
53794W        W26120  43.201  42.476   4.183
53795W        W26121   3.245  40.217   2.396
53796W        W26122   3.045  32.664  14.341
53797W        W26123  21.104  25.087   4.586
53798W        W26124  34.760  37.513  13.706
53799W        W26125  29.208  31.419  13.745
53800W        W26126   6.907  38.972   3.692
53801W        W26127  34.011  44.510  12.432
53802W        W26128  16.191  41.296   0.954
53803W        W26129  29.991   3.931  13.793
53804W        W26130  20.683  20.648   4.653
53805W        W26131  28.708   7.343  14.807
53806W        W26132  43.005  20.672   3.155
53807W        W26133  41.455  31.511  14.969
53808W        W26134  29.838  28.655  12.869
53809W        W26135  28.834  41.075  10.340
53810W        W26136  11.391  24.769   0.963
53811W        W26137  37.522  38.152  12.054
53812W        W26138  21.246  25.016  12.123
53813W        W26139  28.115  15.891   1.069
53814W        W26140  35.550   7.263   0.840
53815W        W26141  31.906  10.499   4.624
53816W        W26142  23.662  40.780  10.898
53817W        W26143  29.091  42.761   4.171
53818W        W26144  42.615  30.498  11.889
53819W        W26145  36.693  44.690  12.079
53820W        W26146  32.000  15.595  11.244
53821W        W26147  13.290  15.721   0.097
53822W        W26148   3.293  39.823  14.923
53823W        W26149  41.916  14.317   2.442
53824W        W26150   5.831  41.313   2.614
53825W        W26151  43.961  26.203  10.494
53826W        W26152  33.931   3.318   0.388
53827W        W26153  15.149   2.848   2.789
53828W        W26154   0.820  22.937  10.687
53829W        W26155  19.645  16.166  14.317
53830W        W26156  39.929  22.724   3.599
53831W        W26157  43.051  28.868   4.794
53832W        W26158  25.140  38.573  11.202
53833W        W26159   1.343  22.247   4.964
53834W        W26160   9.473   0.278   0.037
53835W        W26161  10.664  39.757  10.444
53836W        W26162  42.068   0.407   2.327
53837W        W26163   9.371  21.642   2.826
53838W        W26164  34.140  32.853   5.121
53839W        W26165  12.376  34.722   4.113
53840W        W26166  14.678  30.085  12.457
53841W        W26167  44.752   4.638  11.740
53842W        W26168  19.994  44.801  13.447
53843W        W26169  42.973  29.111  11.240
53844W        W26170  29.967  11.088   3.411
53845W        W26171  13.250   0.015   3.907
53846W        W26172  30.990  38.350   2.871
53847W        W26173  17.534  16.377   4.377
53848W        W26174  36.983  12.377  10.085
53849W        W26175  25.532  11.232  13.510
53850W        W26176  28.941   8.182   4.127
53851W        W26177  20.551  18.759   0.767
53852W        W26178  38.365  15.238   4.657
53853W        W26179  13.467  15.723   2.425
53854W        W26180  20.418  13.287   3.106
53855W        W26181  10.706  33.173   3.332
53856W        W26182  39.966  21.649   2.777
53857W        W26183  16.455  37.506  12.876
53858W        W26184  11.428   3.293  11.988
53859W        W26185  22.150  27.512  14.336
53860W        W26186  10.179  12.308   2.884
53861W        W26187  25.414  29.439   4.572
53862W        W26188  22.694  43.481   2.840
53863W        W26189   1.198  35.906  11.978
53864W        W26190  22.997  43.412  13.605
53865W        W26191   1.302   2.228   1.394
53866W        W26192   0.880  20.633  10.650
53867W        W26193  25.456  13.880   2.402
53868W        W26194   6.616  22.620  10.305
53869W        W26195  23.269  29.061  10.618
53870W        W26196  15.169  22.579   2.188
53871W        W26197  33.009   0.109  14.350
53872W        W26198  24.752  20.020   1.735
53873W        W26199  34.044  25.731   2.299
53874W        W26200   8.955  21.162  10.537
53875W        W26201  25.775  25.023   1.163
53876W        W26202  25.047   0.614  13.969
53877W        W26203  31.621  30.789   2.552
53878W        W26204  10.842  14.279   3.275
53879W        W26205  14.639  26.435  12.573
53880W        W26206  41.332  22.267   3.621
53881W        W26207  17.305  44.372   3.210
53882W        W26208  40.979  16.803   2.476
53883W        W26209  41.266  35.251   3.788
53884W        W26210  38.101  21.062  13.911
53885W        W26211   4.910  15.731   0.228
53886W        W26212  24.615   9.370  14.595
53887W        W26213   5.833   4.801  13.026
53888W        W26214  11.115  29.558   0.276
53889W        W26215   8.722  28.797   0.749
53890W        W26216  40.093  36.801  12.527
53891W        W26217  35.046  18.782   0.815
53892W        W26218  29.434  41.306   1.970
53893W        W26219  14.410  44.830  10.788
53894W        W26220  10.866  27.465   1.439
53895W        W26221  12.574  30.244  11.954
53896W        W26222  18.065   3.315   1.436
53897W        W26223  29.688  39.928  12.444
53898W        W26224  25.588  33.544  13.366
53899W        W26225  36.981  23.807  12.471
53900W        W26226  17.743  42.659   1.539
53901W        W26227   0.314   6.659  10.827
53902W        W26228  23.457  34.497  13.442
53903W        W26229  16.228  28.599  11.615
53904W        W26230  33.858  12.422   1.875
53905W        W26231  23.180  16.850  14.487
53906W        W26232  36.946  24.279   4.266
53907W        W26233  14.935  38.380  14.412
53908W        W26234  21.456  23.163   0.933
53909W        W26235  33.624  12.168   2.368
53910W        W26236  17.185   0.213  14.488
53911W        W26237  35.948  14.191  12.856
53912W        W26238  39.250   3.168  10.268
53913W        W26239  31.863  15.767   5.014
53914W        W26240  27.193  29.016   2.802
53915W        W26241  13.267  44.705  13.370
53916W        W26242  13.833  26.473  10.612
53917W        W26243  34.823  19.341  13.357
53918W        W26244   6.758   0.893  11.359
53919W        W26245  33.021  18.249  12.812
53920W        W26246  18.030   9.566   1.324
53921W        W26247  31.665  39.510  12.077
53922W        W26248  23.792  21.029   3.694
53923W        W26249   2.418   8.101  11.614
53924W        W26250  28.971  27.270   1.325
53925W        W26251   4.862   7.632  12.886
53926W        W26252   6.998   7.898   1.356
53927W        W26253   7.328  25.199   3.631
53928W        W26254  27.453   4.813  14.507
53929W        W26255  40.656  23.509   3.670
53930W        W26256   4.678  17.092   3.394
53931W        W26257   9.712   2.735   1.311
53932W        W26258  33.520   1.939   4.114
53933W        W26259  42.903  28.312  13.094
53934W        W26260   3.932  30.894  11.482
53935W        W26261  35.880  43.933   2.122
53936W        W26262   0.726   8.098   0.326
53937W        W26263  43.843   4.748  11.623
53938W        W26264  24.162  35.405  10.598
53939W        W26265  28.060  19.349   2.945
53940W        W26266  17.480  24.239   1.763
53941W        W26267   8.616  43.560   4.152
53942W        W26268  30.579  31.205  14.684
53943W        W26269  22.318   3.930   3.633
53944W        W26270   4.667  13.727  12.044
53945W        W26271  30.733  32.083   3.845
53946W        W26272  29.368  33.597  14.909
53947W        W26273  33.112   8.056   1.245
53948W        W26274  38.080  31.490  13.212
53949W        W26275   5.312  23.880  14.827
53950W        W26276  13.228  25.668  13.552
53951W        W26277   2.309  35.464  14.256
53952W        W26278  12.203  32.979  11.982
53953W        W26279  23.213  16.294   3.131
53954W        W26280  31.111  38.759  10.192
53955W        W26281  43.911  32.446   2.226
53956W        W26282  42.807  38.647   4.600
53957W        W26283   6.509  30.689   2.304
53958W        W26284  18.571  32.453   3.347
53959W        W26285  30.514  15.539   5.046
53960W        W26286  24.876  19.766   0.847
53961W        W26287   9.270  28.919  11.080
53962W        W26288  36.206   6.338   1.700
53963W        W26289  43.885  40.096  12.463
53964W        W26290  31.719  43.790   4.125
53965W        W26291   7.794  41.892  14.002
53966W        W26292  44.039  31.871  11.919
53967W        W26293  22.660  36.017  10.791
53968W        W26294  25.626   4.263   3.623
53969W        W26295  37.413   1.265  12.912
53970W        W26296   6.247  33.676  10.715
53971W        W26297  16.784   2.973   0.965
53972W        W26298  37.630  11.965  13.832
53973W        W26299  17.978  43.011   4.236
53974W        W26300  29.040  23.260  14.757
53975W        W26301  24.338   7.504   4.951
53976W        W26302  30.127  39.112  12.331
53977W        W26303  23.565  27.860  10.692
53978W        W26304  44.276   0.618   0.362
53979W        W26305  27.935  22.080  12.766
53980W        W26306  22.915  33.722  13.490
53981W        W26307   4.252   7.648  14.196
53982W        W26308   4.318  33.313   2.393
53983W        W26309  40.698  42.780   3.610
53984W        W26310  32.674  21.644   1.368
53985W        W26311  23.704   9.792  12.585
53986W        W26312  28.220   2.294   0.024
53987W        W26313   9.919  42.392   0.283
53988W        W26314  39.442  24.900  13.273
53989W        W26315  13.284  23.602   0.817
53990W        W26316  17.640  38.807   0.424
53991W        W26317  12.380  35.244   3.257
53992W        W26318  24.838   9.197  11.637
53993W        W26319   2.672  23.717  11.604
53994W        W26320  34.447  39.423  10.879
53995W        W26321   1.864  32.577   0.931
53996W        W26322  44.806  40.594  13.914
53997W        W26323   0.025   2.222   2.378
53998W        W26324  22.254  36.895   2.205
53999W        W26325  30.623   0.781   0.569
54000W        W26326  35.105  12.635  11.595
54001W        W26327  29.077  27.670   3.154
54002W        W26328   7.335  23.604  12.363
54003W        W26329   8.731  27.717   0.151
54004W        W26330  44.329  18.331   0.954
54005W        W26331   0.545   6.290  11.124
54006W        W26332  27.644   3.310  13.321
54007W        W26333  43.577   2.649   1.898
54008W        W26334  41.024   9.810   2.868
54009W        W26335  13.798  15.550  12.772
54010W        W26336  16.327  17.570   0.841
54011W        W26337  36.586  19.469   2.614
54012W        W26338  28.501  13.091  13.419
54013W        W26339  32.895  26.219   4.178
54014W        W26340  27.183   0.365  10.995
54015W        W26341  36.380   1.688   3.342
54016W        W26342  25.735   9.826   3.423
54017W        W26343   6.805   9.691  11.098
54018W        W26344  34.931  25.367   4.094
54019W        W26345  15.056  27.669  14.956
54020W        W26346  14.896  19.333   1.885
54021W        W26347  21.287   9.250  14.937
54022W        W26348   7.844  11.942  14.320
54023W        W26349  33.603  17.695  11.089
54024W        W26350   6.398  39.119  11.983
54025W        W26351  24.603  24.740   0.951
54026W        W26352  16.305  19.134   3.220
54027W        W26353   7.092   7.620  12.047
54028W        W26354  41.255   0.071   4.204
54029W        W26355  40.683  31.096  14.858
54030W        W26356  15.344  12.702   4.356
54031W        W26357  10.875  35.141   0.767
54032W        W26358  10.155  28.191   1.559
54033W        W26359  33.178  10.829   4.495
54034W        W26360  43.248  38.526  11.887
54035W        W26361  21.824  24.486   2.409
54036W        W26362  28.132  10.623  13.020
54037W        W26363  18.981  40.822   3.853
54038W        W26364   1.951   9.509   1.417
54039W        W26365   7.635  25.475  14.022
54040W        W26366  20.956   4.033   1.839
54041W        W26367  21.127  33.311   1.329
54042W        W26368  42.288  32.003  14.794
54043W        W26369  15.392  11.485  11.902
54044W        W26370   3.190  11.433   1.908
54045W        W26371  16.368  28.229  11.290
54046W        W26372   3.442  14.262   2.920
54047W        W26373  27.910  22.164   0.245
54048W        W26374  20.331   6.311   3.942
54049W        W26375  11.634  14.681   3.715
54050W        W26376  42.177   1.379  12.006
54051W        W26377  19.462  25.113  12.418
54052W        W26378   6.320  20.541   4.194
54053W        W26379  37.973   3.444   2.586
54054W        W26380  32.619  31.392  12.390
54055W        W26381  40.276  24.539   2.179
54056W        W26382  30.406  16.252   1.233
54057W        W26383  28.949   0.243  14.366
54058W        W26384  29.966  32.530  11.791
54059W        W26385  20.598  36.557  12.086
54060W        W26386   8.851  39.125  14.239
54061W        W26387  32.675   7.363   0.730
54062W        W26388  13.263  19.726   4.112
54063W        W26389  14.791   2.744  14.989
54064W        W26390  21.165  32.322   1.459
54065W        W26391  44.316  29.555   3.934
54066W        W26392  42.561  15.334  11.527
54067W        W26393  41.407  40.328   2.777
54068W        W26394  33.203  33.914  10.616
54069W        W26395   0.910   6.419  14.912
54070W        W26396  12.534  10.323   0.846
54071W        W26397  29.899  42.231   2.776
54072W        W26398   4.819  42.371   1.461
54073W        W26399   8.881  26.202   0.064
54074W        W26400  18.220   8.973  11.065
54075W        W26401  31.449  39.397   1.947
54076W        W26402  35.083   3.046  11.043
54077W        W26403  12.668  13.923   1.907
54078W        W26404  30.865  43.095  14.838
54079W        W26405   4.265  30.121   0.061
54080W        W26406  21.255   6.902   1.410
54081W        W26407  24.408  34.441  12.533
54082W        W26408   8.872   2.328   0.704
54083W        W26409  24.559   3.690  13.483
54084W        W26410  22.595  16.208   0.959
54085W        W26411  18.353  26.128   1.712
54086W        W26412  17.204  37.481  12.672
54087W        W26413  11.283  20.405   2.659
54088W        W26414  37.939  21.638   0.264
54089W        W26415   3.282  27.428   4.519
54090W        W26416  42.500  34.908  11.234
54091W        W26417  25.948  21.688   1.305
54092W        W26418  39.592   6.756   3.681
54093W        W26419  41.580  43.810   2.022
54094W        W26420  31.938  34.259   3.340
54095W        W26421  26.482  35.171   4.676
54096W        W26422   4.314  18.037   1.370
54097W        W26423  12.184  44.268  14.989
54098W        W26424  39.955  43.709  12.555
54099W        W26425  18.583  42.537   3.796
54100W        W26426  20.152   6.850  14.963
54101W        W26427  27.430  25.672  13.000
54102W        W26428   7.936   8.751   2.267
54103W        W26429   6.938  10.730   4.369
54104W        W26430  31.201   3.417   4.140
54105W        W26431  18.831  44.883  13.893
54106W        W26432   7.418   8.209  12.482
54107W        W26433  29.006  40.352  10.680
54108W        W26434  10.873  14.568   2.518
54109W        W26435  20.172  38.996  14.341
54110W        W26436   6.545  21.363  11.156
54111W        W26437  10.539  18.523   3.288
54112W        W26438  19.462   0.051  10.099
54113W        W26439  21.190  37.027  14.495
54114W        W26440  12.169  22.940   1.876
54115W        W26441  25.512  35.936  14.888
54116W        W26442  18.513  41.505   4.604
54117W        W26443  22.070  27.203  12.382
54118W        W26444  30.622  36.054  13.821
54119W        W26445  19.694  29.452   1.740
54120W        W26446  21.877  37.390   9.674
54121W        W26447  36.968   6.055   3.429
54122W        W26448  37.120  27.691  12.396
54123W        W26449  42.020  31.640   1.348
54124W        W26450   4.494  26.083  12.513
54125W        W26451  11.535  14.175   3.749
54126W        W26452  11.252  40.562  14.331
54127W        W26453   1.873  32.110  12.788
54128W        W26454  44.770   2.757   1.096
54129W        W26455  39.085  25.685  12.461
54130W        W26456  43.067  29.688   2.766
54131W        W26457   0.229  29.713   3.912
54132W        W26458  11.319  16.491   4.732
54133W        W26459  13.022  27.089  12.788
54134W        W26460  34.470  28.117   3.781
54135W        W26461  29.903  14.757  14.499
54136W        W26462  33.234  16.315   4.184
54137W        W26463  34.435  33.307  11.112
54138W        W26464  35.839  33.573   0.027
54139W        W26465  40.263  41.045   3.260
54140W        W26466   2.363   5.674   2.276
54141W        W26467  10.269  43.232   4.532
54142W        W26468  20.983   9.208   2.734
54143W        W26469  39.936  29.249   3.254
54144W        W26470  41.483  15.573   1.264
54145W        W26471  42.843  38.348   4.099
54146W        W26472  32.050  24.653   1.524
54147W        W26473  15.233  26.095   0.722
54148W        W26474   1.301  37.451   0.423
54149W        W26475  27.150   1.277   1.481
54150W        W26476  13.060   8.786   0.737
54151W        W26477  22.485  17.980   1.462
54152W        W26478  40.909  44.409   1.002
54153W        W26479  40.365   8.519   1.436
54154W        W26480   6.728  41.227  12.906
54155W        W26481  15.572  17.997  11.540
54156W        W26482  29.140  31.892  13.963
54157W        W26483  15.019  41.530  10.684
54158W        W26484  33.922  14.400   0.785
54159W        W26485  10.385  23.504   1.235
54160W        W26486  22.112  27.656  12.089
54161W        W26487  26.590  27.657   9.883
54162W        W26488  29.312  22.909  11.084
54163W        W26489  38.819   3.954  11.624
54164W        W26490  27.028  36.048   1.748
54165W        W26491  36.020  14.365   0.916
54166W        W26492  19.890  27.200   2.420
54167W        W26493  27.720  16.716   1.320
54168W        W26494  30.364  16.626   4.705
54169W        W26495  26.776  14.126   4.606
54170W        W26496   4.972  36.663   0.588
54171W        W26497  36.621  43.045  13.849
54172W        W26498  43.390  23.693  11.587
54173W        W26499   0.519   6.801  13.418
54174W        W26500  28.300  41.438   0.297
54175W        W26501  32.558  43.390  14.537
54176W        W26502  10.419   4.374   1.916
54177W        W26503  32.064   5.928   4.947
54178W        W26504  12.282  27.050  10.691
54179W        W26505  24.725  12.296  11.593
54180W        W26506  15.780  39.734   0.492
54181W        W26507  14.840  15.211  13.807
54182W        W26508   5.284  22.711   1.866
54183W        W26509   7.393  39.036   1.309
54184W        W26510  26.950   4.468   2.750
54185W        W26511  17.658  24.128  12.832
54186W        W26512  27.691  26.043  11.939
54187W        W26513  38.369  25.715  11.057
54188W        W26514  13.699  30.516  13.533
54189W        W26515  33.538  25.699   2.929
54190W        W26516   0.284  22.037  12.355
54191W        W26517   8.090  19.981   2.330
54192W        W26518  28.220   4.243  11.068
54193W        W26519   3.408  38.882  11.412
54194W        W26520  16.780  42.360   4.673
54195W        W26521   6.634   4.888  11.135
54196W        W26522  35.722   1.375   1.803
54197W        W26523   3.424  22.433  13.030
54198W        W26524  10.929  26.038  11.503
54199W        W26525  21.141  43.349  12.373
54200W        W26526  32.149  41.487  12.452
54201W        W26527  18.170  25.723   1.286
54202W        W26528   5.736  32.470   3.073
54203W        W26529  40.371  12.248  10.612
54204W        W26530   6.280  40.122  12.003
54205W        W26531   3.212  10.059  13.344
54206W        W26532   9.945  11.610  14.970
54207W        W26533  38.155   5.011  10.222
54208W        W26534   2.428  39.027   5.042
54209W        W26535  18.229  42.809   1.267
54210W        W26536   8.230  17.875  13.843
54211W        W26537   7.988   1.242  12.088
54212W        W26538   3.825  29.354  11.618
54213W        W26539  24.462   8.190  12.102
54214W        W26540  27.175  19.141  12.975
54215W        W26541  14.300  24.263  10.565
54216W        W26542  16.923  42.044   4.093
54217W        W26543  19.501  30.949  10.517
54218W        W26544  39.356  27.631   3.724
54219W        W26545   6.287  31.189   0.662
54220W        W26546  28.157  29.469  13.684
54221W        W26547  26.367   8.024   3.620
54222W        W26548  30.876  14.401   4.055
54223W        W26549  14.729  30.600  12.487
54224W        W26550   1.399   0.539  14.906
54225W        W26551  26.114  13.637  12.893
54226W        W26552  12.308  28.833  12.971
54227W        W26553   3.452  12.065   1.351
54228W        W26554  40.478  22.772  13.130
54229W        W26555   8.363   2.057  13.450
54230W        W26556  31.627  14.333  12.496
54231W        W26557  15.833  33.505   2.761
54232W        W26558  37.938   9.620   1.702
54233W        W26559  12.781  22.317  12.024
54234W        W26560  16.942  11.335   3.897
54235W        W26561  20.543  27.077  11.594
54236W        W26562  40.202  32.910  11.493
54237W        W26563  28.595  18.513  10.279
54238W        W26564   8.914  19.114   2.271
54239W        W26565  34.397  43.875   1.122
54240W        W26566  24.663  17.889   1.743
54241W        W26567   0.720   2.136   0.632
54242W        W26568  40.307  16.358  12.323
54243W        W26569   6.781   0.997  10.336
54244W        W26570  33.377   8.815   0.426
54245W        W26571  27.425  24.089   2.843
54246W        W26572  19.096  35.616  14.013
54247W        W26573  10.047  24.772  10.435
54248W        W26574  32.109   6.906  12.370
54249W        W26575  19.749  15.645   0.465
54250W        W26576  27.412  39.477  12.442
54251W        W26577  14.725   0.731   0.729
54252W        W26578  38.849  37.622  13.492
54253W        W26579   9.361   3.531   1.416
54254W        W26580  41.484  30.710   4.170
54255W        W26581   3.857  38.957  11.698
54256W        W26582  32.561  14.062   3.405
54257W        W26583  18.122  23.143   1.904
54258W        W26584   6.520  17.386  11.141
54259W        W26585   9.793  40.905  10.563
54260W        W26586  43.798  15.552  10.527
54261W        W26587  42.405  13.031   3.009
54262W        W26588  32.509  31.258   0.794
54263W        W26589  20.185   0.994   0.412
54264W        W26590  18.297   4.380   2.736
54265W        W26591  29.191   9.157  13.336
54266W        W26592  22.055  32.951   3.696
54267W        W26593   5.333  39.616   3.397
54268W        W26594   7.192  16.516  13.008
54269W        W26595  31.133  19.352   2.404
54270W        W26596  37.505  19.760  11.136
54271W        W26597  28.227  17.705   2.364
54272W        W26598  35.143  31.883   3.661
54273W        W26599  35.984  15.182  10.691
54274W        W26600  12.219  10.074   2.558
54275W        W26601  31.859  42.832   1.383
54276W        W26602  27.416  24.646   1.474
54277W        W26603  38.809  21.182   0.306
54278W        W26604  27.557  12.642   2.393
54279W        W26605  10.575  13.648   4.731
54280W        W26606  29.181  43.802   3.951
54281W        W26607   9.896  33.930   4.151
54282W        W26608  15.729  41.002   0.826
54283W        W26609  15.722  29.318  10.657
54284W        W26610  42.946  25.934  14.236
54285W        W26611  26.484  38.929  13.619
54286W        W26612  22.739  36.890  12.069
54287W        W26613  34.043  15.625   2.662
54288W        W26614   9.241  33.196   4.198
54289W        W26615  11.663  42.388   3.908
54290W        W26616  19.755   8.285  12.073
54291W        W26617  19.334  28.790  13.987
54292W        W26618   9.820  38.563  12.041
54293W        W26619  43.435   8.861  12.144
54294W        W26620   9.075  10.626  12.648
54295W        W26621   6.859  12.588   4.655
54296W        W26622  32.415   2.322  14.408
54297W        W26623   4.428   8.053  11.478
54298W        W26624  44.254  35.583  10.504
54299W        W26625  15.346  38.141   0.772
54300W        W26626  12.780  41.325  11.646
54301W        W26627  21.931   2.359  12.435
54302W        W26628   5.077   9.881   4.045
54303W        W26629  27.491  26.931   4.815
54304W        W26630  23.387  25.076   3.604
54305W        W26631   9.516  25.469   1.502
54306W        W26632  19.474   2.408  13.282
54307W        W26633  22.578  33.520   3.261
54308W        W26634   8.812  41.553   4.119
54309W        W26635   8.689   1.961  14.699
54310W        W26636  10.965  40.332  11.098
54311W        W26637  23.035  28.557  10.702
54312W        W26638  22.764  40.307  11.148
54313W        W26639  21.165  39.626   2.758
54314W        W26640  42.087  17.720   1.803
54315W        W26641  24.041  11.848  12.951
54316W        W26642  18.470  13.048  14.451
54317W        W26643  16.189  33.367  14.060
54318W        W26644   2.950  28.660  11.039
54319W        W26645  32.282  32.942  14.834
54320W        W26646  41.206  15.130   1.401
54321W        W26647  20.329  39.319  12.487
54322W        W26648  44.311  21.716  11.065
54323W        W26649  10.822  36.825   1.859
54324W        W26650  18.697  41.806  12.952
54325W        W26651  28.429   5.332  12.423
54326W        W26652  25.653  42.046   4.564
54327W        W26653  26.075  12.650   0.055
54328W        W26654  33.702  24.038  11.423
54329W        W26655  18.151  30.993  13.431
54330W        W26656   3.305  38.952   0.988
54331W        W26657  39.595  20.167  12.544
54332W        W26658  24.456   1.780   0.346
54333W        W26659  25.062   3.763   0.759
54334W        W26660  11.585  44.330   0.853
54335W        W26661   2.325  15.640   2.236
54336W        W26662  32.662  22.121  12.225
54337W        W26663   7.196  36.989  12.637
54338W        W26664  10.240  29.606   2.554
54339W        W26665  25.321   4.676  12.430
54340W        W26666  22.294  43.250  13.819
54341W        W26667  18.568  17.520   2.881
54342W        W26668  34.903  23.039   0.499
54343W        W26669   6.737  41.746  13.042
54344W        W26670  22.069   1.227  14.509
54345W        W26671   1.410  42.819   4.576
54346W        W26672   9.108   9.289  10.708
54347W        W26673  36.373  30.037   1.498
54348W        W26674  16.587  37.067  12.590
54349W        W26675   3.346   2.681   4.285
54350W        W26676  44.029  44.620  12.230
54351W        W26677   2.765   0.981  10.409
54352W        W26678   9.444  15.800  13.150
54353W        W26679  13.693  11.416   0.578
54354W        W26680  42.526   9.244   1.747
54355W        W26681  29.159  22.337   5.003
54356W        W26682  43.653  43.230   3.180
54357W        W26683  40.682  23.126  13.447
54358W        W26684  34.796   4.804  11.203
54359W        W26685  17.820  23.388   3.684
54360W        W26686  39.797  27.021   1.763
54361W        W26687   2.429   9.913  14.521
54362W        W26688  41.956   4.389   4.117
54363W        W26689  40.440  17.718  14.482
54364W        W26690  28.509  40.013   3.731
54365W        W26691  17.022   8.159   1.401
54366W        W26692  17.816  10.201   0.740
54367W        W26693  32.534  34.901   1.641
54368W        W26694   1.820  33.464  14.197
54369W        W26695  36.631   0.039  13.792
54370W        W26696  29.469  42.795   3.778
54371W        W26697   0.945  39.293  12.460
54372W        W26698  34.479  22.713  14.197
54373W        W26699  31.459   8.896   4.281
54374W        W26700  11.681  39.075   3.649
54375W        W26701  16.643  40.440   3.160
54376W        W26702  32.232   6.775   3.696
54377W        W26703  10.927  30.462   2.330
54378W        W26704  27.207  15.705   0.483
54379W        W26705  39.969   5.482  14.144
54380W        W26706   8.316   7.493  10.465
54381W        W26707  43.725  15.620  14.781
54382W        W26708  11.746   8.376   0.871
54383W        W26709  41.395  15.843  11.889
54384W        W26710  24.576  28.455  14.271
54385W        W26711  26.434  30.009  12.148
54386W        W26712   8.073   4.389  10.317
54387W        W26713  24.473  10.259   4.161
54388W        W26714  20.546   6.190  14.030
54389W        W26715  25.666  34.080   2.792
54390W        W26716   5.063   6.556  11.180
54391W        W26717  36.781   1.032  11.860
54392W        W26718  14.185   6.757   4.703
54393W        W26719   7.291  16.481  12.502
54394W        W26720  22.445   1.825  11.036
54395W        W26721  19.423   0.862   1.438
54396W        W26722  38.358  43.475  12.460
54397W        W26723  18.235  30.583  13.772
54398W        W26724  12.614  19.538   4.813
54399W        W26725  38.625  21.093  13.922
54400W        W26726  33.923  13.690  11.988
54401W        W26727  35.942   2.909  13.039
54402W        W26728  28.783  31.986   2.871
54403W        W26729   7.780   1.295   2.944
54404W        W26730   1.738   0.501   1.409
54405W        W26731  15.249  31.825   4.507
54406W        W26732   2.038  42.287  11.094
54407W        W26733  23.125  43.305   2.412
54408W        W26734  11.698  44.912   3.385
54409W        W26735  27.357  30.613   4.654
54410W        W26736  14.146  34.543   5.048
54411W        W26737  12.658  22.139   4.589
54412W        W26738  33.354   0.303  14.787
54413W        W26739  10.977  25.895   5.053
54414W        W26740  23.283   7.180  13.383
54415W        W26741  38.996  11.746   4.212
54416W        W26742  28.727  19.217   4.845
54417W        W26743   7.915  23.493   2.658
54418W        W26744   1.320  36.804  12.869
54419W        W26745  41.791  26.734  14.950
54420W        W26746   0.362  31.488   1.139
54421W        W26747  19.276  11.382  11.208
54422W        W26748  14.638  43.746   2.490
54423W        W26749  40.098  32.397   1.987
54424W        W26750  29.156   0.973   0.738
54425W        W26751   1.480  37.957  12.498
54426W        W26752  39.851   4.631   1.742
54427W        W26753   8.268  11.630   0.941
54428W        W26754  38.958  11.611  12.405
54429W        W26755  15.714  16.654   4.488
54430W        W26756   4.626  27.075   1.978
54431W        W26757  31.278  11.909  14.817
54432W        W26758  29.219  26.037  12.084
54433W        W26759  23.102  32.969  12.968
54434W        W26760  22.171  26.421  12.873
54435W        W26761  35.283  19.494  13.484
54436W        W26762  44.394  36.295   4.018
54437W        W26763  22.681   4.313   1.695
54438W        W26764  16.347  18.166  13.968
54439W        W26765  26.158  41.804   1.408
54440W        W26766  44.319  17.679   4.628
54441W        W26767   3.567  14.108   5.110
54442W        W26768   9.863  22.810  12.031
54443W        W26769   1.255   6.893   3.151
54444W        W26770  11.226   8.391  12.846
54445W        W26771  36.294  38.775  13.474
54446W        W26772  12.330   8.702   4.240
54447W        W26773  36.827  21.980  11.244
54448W        W26774  23.981  35.449  12.115
54449W        W26775   4.715   2.809  13.902
54450W        W26776  16.394  43.433   4.697
54451W        W26777  20.749  14.594   4.161
54452W        W26778  43.980  10.246   3.864
54453W        W26779  41.702  26.094   2.204
54454W        W26780  43.963  36.557   3.431
54455W        W26781  22.244  18.589   0.830
54456W        W26782  31.424   1.822  10.938
54457W        W26783  37.689   6.396  11.617
54458W        W26784  23.103  32.065   0.489
54459W        W26785  42.451  41.511   1.950
54460W        W26786   0.020  44.560   1.858
54461W        W26787  37.798  33.387  14.457
54462W        W26788   2.860  14.517  11.844
54463W        W26789   8.294  15.384  13.448
54464W        W26790  24.413  28.160   2.116
54465W        W26791  35.536  18.962   0.845
54466W        W26792  39.088  29.955  12.136
54467W        W26793  11.209  18.052   4.666
54468W        W26794  11.252  14.307   1.484
54469W        W26795  24.756  24.707   3.688
54470W        W26796  28.376  21.477  10.671
54471W        W26797  32.303  35.362   0.256
54472W        W26798   5.611  38.367  12.512
54473W        W26799  32.939  37.184   0.781
54474W        W26800  20.807  22.584  10.733
54475W        W26801  11.761   4.997   3.096
54476W        W26802  36.676   6.277   3.787
54477W        W26803  13.078  12.674   2.737
54478W        W26804  16.637  27.588   0.483
54479W        W26805  16.690  44.863   4.914
54480W        W26806  12.405  30.654  14.537
54481W        W26807  26.071  27.697   3.206
54482W        W26808   0.451  18.028  10.492
54483W        W26809  35.033  30.066   1.673
54484W        W26810  32.984  27.567   0.489
54485W        W26811  41.391  35.462   2.288
54486W        W26812  28.804  14.259   2.157
54487W        W26813   8.079  39.602   4.137
54488W        W26814  17.947  40.359   4.343
54489W        W26815  10.628  34.064  14.818
54490W        W26816  32.391  29.965   1.708
54491W        W26817  38.467  37.034   1.990
54492W        W26818  11.839  24.778   0.721
54493W        W26819  31.373  19.663  13.779
54494W        W26820  25.213  38.294   4.393
54495W        W26821   8.788   3.464  14.834
54496W        W26822   5.271   6.743  12.036
54497W        W26823  23.206  25.384  14.396
54498W        W26824  28.442  28.385  12.340
54499W        W26825   9.021  17.765   1.132
54500W        W26826  37.664  40.681   3.590
54501W        W26827   0.848  26.383  13.164
54502W        W26828  21.833  33.584   0.081
54503W        W26829  28.063  40.887   2.704
54504W        W26830  40.469  28.203   0.538
54505W        W26831  23.674  41.048   1.256
54506W        W26832  39.563  39.619   2.859
54507W        W26833  30.524  18.090  13.400
54508W        W26834  17.173  12.073  13.099
54509W        W26835  36.631   8.994   1.224
54510W        W26836  43.988  22.127   1.865
54511W        W26837  32.881  16.295   2.990
54512W        W26838  12.922  43.712  11.600
54513W        W26839  21.123  12.095   3.331
54514W        W26840  34.170  33.026   0.098
54515W        W26841  30.491   9.718  12.370
54516W        W26842   8.000  10.188   5.020
54517W        W26843  29.970  25.556  12.948
54518W        W26844  42.426  10.316  11.445
54519W        W26845  21.504  39.469  10.196
54520W        W26846  38.000  33.263   4.600
54521W        W26847  24.268  18.129  11.011
54522W        W26848   2.062  15.086  10.786
54523W        W26849  25.595  21.129  10.389
54524W        W26850  24.738  13.698  12.888
54525W        W26851  17.633  31.161   4.577
54526W        W26852   3.820  16.690   0.759
54527W        W26853  44.455  29.755  11.007
54528W        W26854  20.472  41.584   3.193
54529W        W26855  20.734   1.074  11.880
54530W        W26856  16.587  39.667   0.826
54531W        W26857  12.547   7.117  13.421
54532W        W26858  20.176   1.956  13.838
54533W        W26859  18.280  41.291  14.632
54534W        W26860  37.023  20.681  14.475
54535W        W26861   0.777  10.681   2.443
54536W        W26862  41.510  21.861  13.553
54537W        W26863  36.392  13.193  11.166
54538W        W26864  30.894  39.509   2.158
54539W        W26865  17.823   1.280   3.021
54540W        W26866  38.070  39.818   1.079
54541W        W26867  33.564   5.825   4.114
54542W        W26868  26.478  29.933  13.914
54543W        W26869  39.479  20.058  12.054
54544W        W26870  42.962  28.644  14.729
54545W        W26871  40.363  34.170  10.988
54546W        W26872  43.038  12.934   3.256
54547W        W26873   3.242  35.589   2.378
54548W        W26874  19.218  29.139  11.810
54549W        W26875  37.395  32.009   0.087
54550W        W26876  18.540   4.739  13.101
54551W        W26877  29.466  39.489  12.593
54552W        W26878   9.381  32.575  12.127
54553W        W26879  15.158  38.218   2.276
54554W        W26880  39.731   0.876   2.727
54555W        W26881  42.005  15.004   0.258
54556W        W26882  36.094  37.951  12.583
54557W        W26883  14.364  20.663   2.311
54558W        W26884  12.671  16.428   3.436
54559W        W26885  21.428   1.504  12.110
54560W        W26886  14.097  30.634   0.326
54561W        W26887   9.624  32.441   4.699
54562W        W26888  27.000   6.745   3.887
54563W        W26889  17.236   3.725   2.368
54564W        W26890  35.606  23.928   4.292
54565W        W26891   3.618  24.150   4.678
54566W        W26892  29.712  23.526  13.872
54567W        W26893  24.109   0.257  11.632
54568W        W26894   2.997  32.072  11.998
54569W        W26895  26.191   2.506  13.265
54570W        W26896  31.640  26.176   0.021
54571W        W26897  14.112  27.235   9.707
54572W        W26898  23.359  33.086   4.827
54573W        W26899  28.432  44.543   1.239
54574W        W26900  43.545  18.128   4.515
54575W        W26901   0.859  10.856   2.959
54576W        W26902  28.710  29.117  14.816
54577W        W26903  12.382  44.049   0.594
54578W        W26904  35.135  32.569  13.996
54579W        W26905  25.412  37.396  11.170
54580W        W26906  17.160  22.755  12.933
54581W        W26907  10.046  39.777  13.846
54582W        W26908  37.059   0.751   0.235
54583W        W26909  33.565  41.969   0.799
54584W        W26910   3.886   7.269  13.054
54585W        W26911  16.780  28.547  11.285
54586W        W26912  36.416  37.981  13.976
54587W        W26913  32.058  42.298  13.871
54588W        W26914  25.204  22.132  11.496
54589W        W26915  10.614  41.324   2.744
54590W        W26916   9.394  30.871  10.637
54591W        W26917  37.106  20.980  10.658
54592W        W26918  40.153  13.769   3.702
54593W        W26919  22.749   0.945  12.495
54594W        W26920   5.799  34.154   1.894
54595W        W26921   6.205  35.150  13.959
54596W        W26922  35.998  28.557  12.350
54597W        W26923  34.399  36.772   1.942
54598W        W26924  17.538  30.244  14.442
54599W        W26925  12.175  33.721  12.415
54600W        W26926  25.209  11.926   0.372
54601W        W26927  11.139   2.882  11.837
54602W        W26928  31.584  23.771   1.828
54603W        W26929  24.780  18.275  13.466
54604W        W26930  40.565  43.436   1.161
54605W        W26931   8.212  27.398  12.079
54606W        W26932  22.046  20.610   0.951
54607W        W26933  29.458   2.268  10.711
54608W        W26934  41.933  19.612   3.405
54609W        W26935  43.486  23.979  14.035
54610W        W26936  29.240  16.095   3.954
54611W        W26937  23.934  25.044   3.599
54612W        W26938   5.399  35.929  12.875
54613W        W26939  42.487  16.348  12.983
54614W        W26940  22.110  13.540   1.731
54615W        W26941  33.742  18.188   3.635
54616W        W26942  37.363  35.475   2.441
54617W        W26943  22.834  22.807  13.951
54618W        W26944  10.752  11.450   0.375
54619W        W26945  28.840  31.517  11.941
54620W        W26946   3.214  11.645  10.260
54621W        W26947  31.008   5.355  12.846
54622W        W26948  31.158  23.512   2.754
54623W        W26949  30.547   0.047   4.276
54624W        W26950  23.372  43.687  13.388
54625W        W26951   3.439  11.076  14.315
54626W        W26952   3.685  16.640   3.112
54627W        W26953  21.646   9.199  10.726
54628W        W26954  25.170  19.031  12.486
54629W        W26955  21.036  18.551  13.009
54630W        W26956  36.931  43.410  12.169
54631W        W26957  27.386  17.322  12.754
54632W        W26958  36.844  32.881  14.499
54633W        W26959  33.337  41.842  14.369
54634W        W26960  17.056  17.971   0.294
54635W        W26961  27.338  26.896   2.873
54636W        W26962  44.452   2.931   2.190
54637W        W26963  20.729  41.242   2.866
54638W        W26964  30.649  43.500  11.378
54639W        W26965  16.022  12.291  11.638
54640W        W26966   7.369   9.332  11.226
54641W        W26967   1.246  39.340   4.875
54642W        W26968  12.144  26.606   3.242
54643W        W26969  43.781  23.400   4.523
54644W        W26970  13.779  31.825  14.196
54645W        W26971  25.371  39.743   1.048
54646W        W26972  15.187  11.757  14.361
54647W        W26973  28.263  31.028   2.203
54648W        W26974  37.008  30.643   2.885
54649W        W26975  31.341  40.549  11.953
54650W        W26976  39.816  16.840   1.973
54651W        W26977  25.237  34.335  12.845
54652W        W26978  14.624  18.040  11.427
54653W        W26979  22.152  16.402   9.890
54654W        W26980  14.089  31.141   1.600
54655W        W26981  17.710  14.547  12.509
54656W        W26982   6.456  39.117   1.732
54657W        W26983  38.491  25.918  14.486
54658W        W26984   4.766   4.390   5.033
54659W        W26985  34.591  42.268  13.456
54660W        W26986   0.913  19.203  14.177
54661W        W26987  34.164   6.366   0.820
54662W        W26988  16.555  37.943  11.170
54663W        W26989  39.169   5.419   0.829
54664W        W26990  20.848  28.265   1.427
54665W        W26991  11.702   3.742   3.162
54666W        W26992  32.643  14.571   3.258
54667W        W26993  32.127  35.487   3.786
54668W        W26994  23.341  12.627   1.437
54669W        W26995  17.713  32.885   4.871
54670W        W26996  35.507  33.615   5.632
54671W        W26997   8.780  13.810   2.589
54672W        W26998   1.924  21.757   2.402
54673W        W26999  13.028  23.259   4.614
54674W        W27000  36.316  23.943  13.960
54675W        W27001  28.559  31.687  12.375
54676W        W27002  16.569   8.560  14.439
54677W        W27003  41.051  33.650   0.472
54678W        W27004  31.911  24.802  12.010
54679W        W27005  22.609   8.707  14.463
54680W        W27006  17.768  37.154  14.440
54681W        W27007   6.839  20.571  14.870
54682W        W27008  14.826   4.964   0.288
54683W        W27009  21.090  40.630  14.940
54684W        W27010  30.172   1.405  11.121
54685W        W27011  39.361  16.567  10.837
54686W        W27012  34.016  18.503   0.657
54687W        W27013  26.518   6.935  10.231
54688W        W27014  44.042   0.472   3.159
54689W        W27015  27.599  43.744  14.942
54690W        W27016  22.277  31.424  11.594
54691W        W27017  22.709  10.875   3.722
54692W        W27018  18.690  43.836   4.134
54693W        W27019   1.358   4.925  11.017
54694W        W27020  37.280   8.839  13.930
54695W        W27021  38.675   2.238  13.557
54696W        W27022   3.467  24.623  14.349
54697W        W27023  31.596   0.672   1.283
54698W        W27024  12.118   9.854   0.876
54699W        W27025  32.377  12.107  14.786
54700W        W27026   6.704  10.214   2.218
54701W        W27027   2.831   5.828   2.463
54702W        W27028  19.659  20.112   3.544
54703W        W27029   9.522  39.528   1.888
54704W        W27030  41.993  34.929  14.354
54705W        W27031  29.469  18.140   1.449
54706W        W27032   8.291  25.281  12.856
54707W        W27033  29.488   0.246  10.614
54708W        W27034  43.010  37.129  13.392
54709W        W27035  43.411  37.550   1.057
54710W        W27036  32.496  31.847  12.551
54711W        W27037  33.509  41.574  14.848
54712W        W27038   2.367  25.169   2.756
54713W        W27039  25.493  27.983  13.184
54714W        W27040  20.995   5.388  11.754
54715W        W27041  41.294  14.755  12.030
54716W        W27042  12.368  32.430  13.383
54717W        W27043  16.381  24.536  11.107
54718W        W27044  21.926  28.522   4.774
54719W        W27045  10.708  27.235  13.317
54720W        W27046  25.494  30.506   3.912
54721W        W27047  14.247  10.943   2.357
54722W        W27048   2.398  23.230  14.242
54723W        W27049   9.746  26.546   3.386
54724W        W27050  11.640   1.596  11.977
54725W        W27051  10.901  26.060   3.366
54726W        W27052   0.954   4.804   1.290
54727W        W27053  20.436  28.582  12.446
54728W        W27054  29.385  12.836   0.775
54729W        W27055  22.190   7.748   3.943
54730W        W27056  23.205  20.069   3.308
54731W        W27057  34.068  30.025   4.913
54732W        W27058  25.163  21.281   2.193
54733W        W27059   7.439  38.924   4.584
54734W        W27060  24.318   0.291   4.517
54735W        W27061  31.762  15.865  11.657
54736W        W27062   5.602  21.117  12.000
54737W        W27063   1.922  35.599   4.484
54738W        W27064   5.951   9.668  12.152
54739W        W27065   7.085  43.774  14.818
54740W        W27066   5.604  25.659  12.514
54741W        W27067  25.085  13.268   3.409
54742W        W27068  41.519  23.228   0.681
54743W        W27069  10.842  33.130  12.839
54744W        W27070   1.287  11.261   2.851
54745W        W27071   4.820  17.599   4.621
54746W        W27072   3.923  13.126   3.499
54747W        W27073  42.981  34.794  12.918
54748W        W27074  43.922  41.039  13.252
54749W        W27075  14.782  10.402  10.735
54750W        W27076   9.685  26.719   0.263
54751W        W27077   6.750   9.863   3.201
54752W        W27078  32.495  28.709  14.460
54753W        W27079  36.020  19.634   4.302
54754W        W27080  35.828  15.313   1.979
54755W        W27081  15.035  26.029   1.205
54756W        W27082   6.701  36.118  13.971
54757W        W27083   5.395   4.273   3.097
54758W        W27084  14.750  40.009  13.118
54759W        W27085  14.093  42.486  11.080
54760W        W27086  34.505  31.510   3.713
54761W        W27087  18.630  36.363   1.756
54762W        W27088  24.964  27.964   1.368
54763W        W27089  29.574  40.817  12.338
54764W        W27090  28.536   3.832   3.299
54765W        W27091  26.608   8.178   3.191
54766W        W27092   1.317  12.312   3.747
54767W        W27093  22.663  35.484  10.716
54768W        W27094  43.516  44.042   3.739
54769W        W27095  14.088  42.769  14.131
54770W        W27096  25.923  18.130  11.105
54771W        W27097  33.536   9.667  11.670
54772W        W27098   6.185  20.227   2.532
54773W        W27099  39.273  42.940   4.086
54774W        W27100  26.144  16.148   0.472
54775W        W27101  26.419  26.342   2.770
54776W        W27102  43.012   3.709  12.433
54777W        W27103  23.139  22.000   4.680
54778W        W27104  27.940   7.901  14.439
54779W        W27105  23.544  24.995  13.935
54780W        W27106  18.616  38.830  13.994
54781W        W27107  31.380   5.911   1.719
54782W        W27108  12.788  16.517   4.016
54783W        W27109  21.245  28.903   0.789
54784W        W27110  32.025  35.648   1.854
54785W        W27111  39.203  29.779  14.531
54786W        W27112  31.560   9.650  11.857
54787W        W27113  27.035   8.340   2.122
54788W        W27114  37.972  44.438  12.007
54789W        W27115   1.221  16.801   4.159
54790W        W27116   0.077  15.362   1.704
54791W        W27117  34.513  37.783  10.746
54792W        W27118   1.286  33.556   2.185
54793W        W27119   0.307  36.980   0.994
54794W        W27120  37.787   6.745  13.350
54795W        W27121   6.774  28.544  11.558
54796W        W27122   1.926  22.259   3.741
54797W        W27123  17.768  36.906   4.761
54798W        W27124   1.767   0.561   4.717
54799W        W27125  21.653  42.013   2.260
54800W        W27126   6.496  18.275  12.538
54801W        W27127  43.851  31.726  13.294
54802W        W27128  30.462  39.496   0.874
54803W        W27129   2.234   2.199   1.842
54804W        W27130  26.925  10.855  13.455
54805W        W27131  42.370  19.358   4.696
54806W        W27132  24.701   6.782   0.640
54807W        W27133  23.063  37.623   9.770
54808W        W27134  19.694  25.538  12.677
54809W        W27135  15.371   3.537  10.910
54810W        W27136   1.534  19.362  11.446
54811W        W27137  43.452  15.874   3.728
54812W        W27138  10.843  44.298   1.292
54813W        W27139   0.402  18.173   2.888
54814W        W27140  29.487  32.230   5.003
54815W        W27141  15.534  25.969   2.147
54816W        W27142  42.926   9.631   2.363
54817W        W27143  36.741  11.142  10.664
54818W        W27144  14.577  24.720   2.418
54819W        W27145  11.428  31.128   3.949
54820W        W27146  41.831  42.174  13.709
54821W        W27147  32.407  29.395  10.319
54822W        W27148  26.719   7.687   0.019
54823W        W27149  17.593  37.522  13.491
54824W        W27150  30.742   6.517   1.356
54825W        W27151   3.929  14.368  14.286
54826W        W27152  40.240   9.376   3.801
54827W        W27153  17.850   7.241   4.567
54828W        W27154  11.848  34.029  14.373
54829W        W27155  10.328  33.983   0.445
54830W        W27156  43.840  38.716  12.550
54831W        W27157  39.956  28.965  13.368
54832W        W27158  35.786  44.315   4.851
54833W        W27159  31.611  12.624   4.258
54834W        W27160  29.387  36.980   0.777
54835W        W27161  26.239   8.426  12.600
54836W        W27162  22.096  19.191  11.118
54837W        W27163  10.811  36.978  13.793
54838W        W27164   1.854   6.933  14.852
54839W        W27165  34.977   4.723  12.525
54840W        W27166  16.569  31.093  11.386
54841W        W27167  26.177  27.872  14.836
54842W        W27168  31.597  35.132   4.901
54843W        W27169   3.611  11.354  10.083
54844W        W27170  13.241  29.882   2.375
54845W        W27171  39.815  29.083  14.253
54846W        W27172   5.470  20.350  13.430
54847W        W27173  31.800  39.346   2.768
54848W        W27174   3.776  16.253  12.548
54849W        W27175  22.065  41.383   0.639
54850W        W27176  16.135  35.563   2.262
54851W        W27177  24.175   5.749  12.397
54852W        W27178  13.352  25.600   2.105
54853W        W27179   3.254  20.465  10.645
54854W        W27180  32.640  12.264   1.364
54855W        W27181   1.319   5.724  13.611
54856W        W27182  20.900   4.236  11.996
54857W        W27183  29.546  37.692  10.729
54858W        W27184  36.315  24.023  13.017
54859W        W27185  37.908  29.983  14.365
54860W        W27186   2.890  30.371   0.936
54861W        W27187  13.066  37.068  12.522
54862W        W27188  36.274  22.312  13.567
54863W        W27189  25.032  43.903  11.932
54864W        W27190  40.276  22.609   0.387
54865W        W27191  34.806  39.825  12.024
54866W        W27192  31.467  16.686  10.470
54867W        W27193  38.793   8.592   3.137
54868W        W27194  32.890  14.952  12.044
54869W        W27195  36.344  41.778  11.937
54870W        W27196  29.542   3.711   4.076
54871W        W27197  22.799   7.443  12.093
54872W        W27198  41.974  20.057  13.882
54873W        W27199  29.718  38.911   2.162
54874W        W27200   2.396  26.656   3.697
54875W        W27201  34.782  15.063  12.612
54876W        W27202   1.846  29.941   0.370
54877W        W27203  21.833  35.911  13.364
54878W        W27204  17.258   0.007   4.299
54879W        W27205  32.843  31.166  12.824
54880W        W27206  36.299   0.876   3.100
54881W        W27207  34.613  35.091  11.374
54882W        W27208  29.340  44.107   4.558
54883W        W27209  12.289  15.296   3.721
54884W        W27210  30.488  36.536  12.954
54885W        W27211  25.182  19.265   2.362
54886W        W27212  21.082   6.222   1.748
54887W        W27213   9.207  10.143  10.239
54888W        W27214   7.270   7.637   3.581
54889W        W27215   8.798  39.254   1.899
54890W        W27216  29.991  27.646  11.446
54891W        W27217  33.619  33.626   0.194
54892W        W27218  12.806  16.361  12.529
54893W        W27219   1.266  21.263  12.563
54894W        W27220  31.639   2.891  12.691
54895W        W27221  22.552  33.540  11.474
54896W        W27222   8.930  30.097  12.851
54897W        W27223  19.501  33.239  14.353
54898W        W27224  29.070  35.571  14.097
54899W        W27225  28.600   8.316  13.412
54900W        W27226  44.534  35.665   2.341
54901W        W27227   9.301  41.013   4.638
54902W        W27228  12.699  24.263  11.238
54903W        W27229  28.140  21.250  13.858
54904W        W27230  18.081   0.349   0.075
54905W        W27231  39.475  41.317  11.201
54906W        W27232  35.343  17.592   3.243
54907W        W27233  19.280  33.069  13.395
54908W        W27234  29.695   5.419   0.186
54909W        W27235   2.483  26.560  10.693
54910W        W27236  25.725  12.498   3.376
54911W        W27237   0.998   2.866  11.912
54912W        W27238   9.846  29.514   1.870
54913W        W27239  24.514  26.155  14.378
54914W        W27240  25.983   7.797   3.872
54915W        W27241  29.719   7.698  10.710
54916W        W27242   6.241   1.804   1.491
54917W        W27243  22.218  12.637   4.043
54918W        W27244  40.093  20.574   1.227
54919W        W27245  41.213   5.876   3.607
54920W        W27246   4.794  30.508  12.809
54921W        W27247  18.701  26.697  10.988
54922W        W27248  44.991  12.105   2.379
54923W        W27249  35.054  35.576   1.394
54924W        W27250   8.359  26.713  11.518
54925W        W27251  21.847  44.303  11.996
54926W        W27252  37.872  13.710   0.904
54927W        W27253  28.792  34.567   3.957
54928W        W27254  26.910  38.015   2.210
54929W        W27255  13.006  39.735  13.024
54930W        W27256  36.172  33.966   5.033
54931W        W27257  10.760  30.959   2.819
54932W        W27258  14.687   6.880  14.301
54933W        W27259  18.448   5.397  10.541
54934W        W27260  28.943  30.695  11.050
54935W        W27261   6.946  29.638   0.856
54936W        W27262  36.223  28.518   5.090
54937W        W27263  23.299  15.674  12.051
54938W        W27264  37.423   5.215  14.448
54939W        W27265  32.972  34.405   2.189
54940W        W27266  16.797  43.385  14.434
54941W        W27267  11.287  37.413  14.501
54942W        W27268  11.182  22.337  11.497
54943W        W27269   3.846  22.717  11.811
54944W        W27270  42.951   4.321  10.667
54945W        W27271  20.259  13.124  10.717
54946W        W27272  43.389   4.825   0.717
54947W        W27273  40.544   3.364  10.751
54948W        W27274  32.440  33.635   2.242
54949W        W27275  37.790  19.052   0.243
54950W        W27276  11.696  27.034   3.110
54951W        W27277  25.105  37.882   4.120
54952W        W27278  32.320  37.421   4.632
54953W        W27279  32.330  16.579  14.443
54954W        W27280   2.750   2.262   4.608
54955W        W27281   0.829  12.293  10.865
54956W        W27282  41.889  44.135  12.826
54957W        W27283  23.477  22.255   0.359
54958W        W27284  36.845   8.368  12.628
54959W        W27285  10.025  36.527   2.373
54960W        W27286  43.444  14.584  10.874
54961W        W27287   8.372  18.516  11.537
54962W        W27288  36.993  42.311   1.704
54963W        W27289   6.420  11.343   0.958
54964W        W27290  37.600  40.519   3.035
54965W        W27291  13.796  41.278   2.761
54966W        W27292   5.400   5.649  11.166
54967W        W27293  15.388  14.813   0.605
54968W        W27294  20.004  34.476  13.318
54969W        W27295  31.180  15.647   2.197
54970W        W27296  11.712  31.855  13.219
54971W        W27297  43.927  13.264  12.831
54972W        W27298  24.495  39.810  10.669
54973W        W27299  21.027  15.350  11.890
54974W        W27300   9.364  10.880  12.967
54975W        W27301  42.017  40.895  11.617
54976W        W27302  38.171  26.288   0.719
54977W        W27303   3.425  16.655   2.650
54978W        W27304  29.140  35.438   2.302
54979W        W27305  35.426  42.955   1.235
54980W        W27306  20.042   8.652  13.274
54981W        W27307  39.796  11.753  14.975
54982W        W27308  25.269   0.830  11.636
54983W        W27309  28.352  10.491  14.375
54984W        W27310  36.413  23.523   2.464
54985W        W27311  43.793   4.340   4.306
54986W        W27312  17.370   0.771   0.338
54987W        W27313  30.871  11.734  14.539
54988W        W27314  29.118  14.340  12.007
54989W        W27315   1.112  15.032   4.877
54990W        W27316  20.004  21.145   2.256
54991W        W27317   3.935  10.904  11.225
54992W        W27318  29.915  40.035   1.832
54993W        W27319  13.117   6.329   3.238
54994W        W27320  28.814  35.962  13.893
54995W        W27321   8.373  26.671  10.304
54996W        W27322  37.396  36.582  12.114
54997W        W27323  31.008  12.370  14.906
54998W        W27324  15.148  35.594   1.590
54999W        W27325  30.520   7.847   0.651
55000W        W27326  19.000  27.149  12.628
55001W        W27327  38.077   1.480  12.120
55002W        W27328   7.115  20.617   1.928
55003W        W27329  20.545  27.589   1.875
55004W        W27330  21.795  43.300   2.936
55005W        W27331  33.452  25.179   2.857
55006W        W27332  44.299   9.253  10.180
55007W        W27333  24.495  14.760  14.819
55008W        W27334   7.424  14.777   4.158
55009W        W27335  38.884   7.983  13.591
55010W        W27336   6.331  31.019   0.190
55011W        W27337  20.778  11.062   2.523
55012W        W27338  43.390   6.674   2.749
55013W        W27339  28.693  22.697   0.269
55014W        W27340  35.051   6.123  10.695
55015W        W27341  33.181  24.164  14.064
55016W        W27342  17.543  22.772   2.696
55017W        W27343   8.619  42.499   2.866
55018W        W27344  36.573  11.264   4.655
55019W        W27345  34.398  11.659   3.334
55020W        W27346  36.739  17.990  12.358
55021W        W27347  16.823   5.606   2.790
55022W        W27348   0.846  33.067  12.968
55023W        W27349  10.803  16.818   3.519
55024W        W27350  37.542  19.941   0.415
55025W        W27351   1.329  23.627   3.019
55026W        W27352   5.315  12.855  10.820
55027W        W27353  40.412  15.874  14.807
55028W        W27354  22.022  21.557  10.487
55029W        W27355  42.555  36.413   2.356
55030W        W27356  33.718   9.208  14.461
55031W        W27357  43.227  38.023  13.408
55032W        W27358  36.292  39.475  13.920
55033W        W27359  30.511  26.850   4.126
55034W        W27360   4.342   2.739   3.348
55035W        W27361  22.561  17.859  13.484
55036W        W27362   1.480  24.672   2.286
55037W        W27363  29.916  11.638  14.963
55038W        W27364  10.543  12.817   1.712
55039W        W27365  29.554  32.537  12.488
55040W        W27366   0.394  26.627   2.413
55041W        W27367   7.358   9.145  12.636
55042W        W27368   2.148  25.964  11.902
55043W        W27369  39.335  34.553  10.688
55044W        W27370  34.589  11.603   1.950
55045W        W27371  16.275   6.361  11.758
55046W        W27372  31.083  13.626  10.716
55047W        W27373   5.273  24.967   4.258
55048W        W27374  22.042  36.351   0.831
55049W        W27375   7.626   5.285  13.886
55050W        W27376  36.374  25.460  13.963
55051W        W27377  20.593  12.590   4.189
55052W        W27378  43.179   7.857  10.728
55053W        W27379  37.365  15.423   3.171
55054W        W27380  21.058   9.282   0.419
55055W        W27381  22.439  27.161  14.088
55056W        W27382   0.012  38.150  12.569
55057W        W27383   9.200  42.913   0.875
55058W        W27384  28.627  29.470  13.976
55059W        W27385   6.202  42.028  12.443
55060W        W27386  41.408  34.629   4.477
55061W        W27387  34.437  22.203  14.401
55062W        W27388  22.206   1.262  11.628
55063W        W27389  39.213  25.980   3.365
55064W        W27390  41.447  32.098  11.374
55065W        W27391  30.650   0.205  14.389
55066W        W27392  10.303   2.907  12.833
55067W        W27393  24.982   1.844   0.316
55068W        W27394   7.456  40.905   0.306
55069W        W27395   3.706  38.938   2.830
55070W        W27396  18.348  11.882   4.632
55071W        W27397  15.125  38.466  13.935
55072W        W27398  31.424  27.925  12.502
55073W        W27399  34.009  17.847  14.983
55074W        W27400   4.353  28.928  12.214
55075W        W27401  35.774  41.281   2.707
55076W        W27402  12.425   5.928   0.591
55077W        W27403  11.169   9.625  14.307
55078W        W27404   8.207  29.508  10.702
55079W        W27405  41.371  29.098  13.310
55080W        W27406  15.387  19.067  14.746
55081W        W27407  43.821  33.494  11.164
55082W        W27408  40.011  30.876   0.659
55083W        W27409   5.281   2.863   2.911
55084W        W27410  31.560  40.301   4.158
55085W        W27411   9.956  34.802  12.998
55086W        W27412   1.434  17.543   4.665
55087W        W27413   4.280  35.367  12.081
55088W        W27414  32.925   0.997  13.476
55089W        W27415  25.237  22.180   3.272
55090W        W27416  43.810  13.366   1.739
55091W        W27417  10.401  11.215   4.127
55092W        W27418  18.075  24.851   0.904
55093W        W27419  34.381  25.324  11.077
55094W        W27420  15.180  19.753   3.412
55095W        W27421  20.059  40.542  13.372
55096W        W27422  38.850  31.434   3.725
55097W        W27423  20.626  38.140   1.744
55098W        W27424  24.554   6.902   3.814
55099W        W27425   6.197  13.801  14.707
55100W        W27426  34.042   6.257  10.694
55101W        W27427   5.452  29.526   3.100
55102W        W27428  38.858   5.196   3.953
55103W        W27429   3.961   9.725  13.790
55104W        W27430  31.887  24.114  13.417
55105W        W27431  24.135   9.295   0.175
55106W        W27432  30.014  23.976   3.629
55107W        W27433   9.888  19.793   2.617
55108W        W27434  10.827  10.658  13.807
55109W        W27435  17.079  44.348  12.991
55110W        W27436   0.547  44.404  13.424
55111W        W27437   5.896  41.331  13.063
55112W        W27438  26.587   0.419  11.669
55113W        W27439  32.165  34.510  14.711
55114W        W27440  29.498  34.174   3.687
55115W        W27441  30.302  25.255  13.353
55116W        W27442  15.799  40.374  14.964
55117W        W27443  17.801  42.236   3.733
55118W        W27444  10.111  17.123   3.260
55119W        W27445   6.898  30.337  14.435
55120W        W27446   7.622  24.609  12.465
55121W        W27447  42.484  41.569  10.570
55122W        W27448  42.160  28.546  13.785
55123W        W27449   5.805  10.316  12.911
55124W        W27450   2.842  39.483   4.596
55125W        W27451  38.343  28.428   2.853
55126W        W27452   4.336  41.510   2.472
55127W        W27453  33.309  22.473   4.993
55128W        W27454   5.359   0.051   0.411
55129W        W27455  23.148  17.417  12.310
55130W        W27456  23.566  35.808  14.962
55131W        W27457  41.612  37.499   1.191
55132W        W27458  41.922   9.321  14.226
55133W        W27459  10.843  14.316  12.516
55134W        W27460  21.173  27.916  10.695
55135W        W27461  40.918  39.327  12.622
55136W        W27462  41.970   9.755  10.982
55137W        W27463  15.234  10.733  13.247
55138W        W27464  11.195   6.499  11.608
55139W        W27465   5.804  17.223   0.857
55140W        W27466   0.625  19.046  10.858
55141W        W27467   3.418  32.461   4.911
55142W        W27468  18.279  43.992  12.462
55143W        W27469   5.726  15.023  14.362
55144W        W27470  29.405  29.954  14.862
55145W        W27471  42.428  44.330   4.096
55146W        W27472  18.697  39.998   4.802
55147W        W27473  30.589  16.141  14.305
55148W        W27474   3.015  24.603  14.059
55149W        W27475  35.842  20.672   2.842
55150W        W27476  38.809  21.782  12.038
55151W        W27477  25.038   0.435   0.891
55152W        W27478   0.001  31.030  13.824
55153W        W27479  24.682  17.778   0.816
55154W        W27480  10.861  21.689   3.603
55155W        W27481   2.925   4.763  13.140
55156W        W27482  26.578  33.007   2.682
55157W        W27483  37.529  32.446  14.845
55158W        W27484  15.383  25.268  13.630
55159W        W27485  13.809  44.636  11.637
55160W        W27486  15.316  44.907   3.701
55161W        W27487  40.816  13.909  12.902
55162W        W27488  34.646  13.503  13.807
55163W        W27489  16.353  28.418   0.773
55164W        W27490  37.469  22.499   1.301
55165W        W27491   4.681   2.416   2.771
55166W        W27492   6.266   3.780  11.410
55167W        W27493  16.139  35.855   0.649
55168W        W27494   4.695  33.615  12.819
55169W        W27495  32.618  13.496  14.419
55170W        W27496  22.097  10.137  11.356
55171W        W27497   4.527  44.562  12.668
55172W        W27498   4.218  10.895   1.972
55173W        W27499   2.234  43.087  12.176
55174W        W27500  41.159  30.608   3.331
55175W        W27501  42.229   9.996   0.534
55176W        W27502  10.077  35.531   2.005
55177W        W27503  22.097  28.372  12.915
55178W        W27504   5.509  22.735   0.455
55179W        W27505  15.757  35.036  13.400
55180W        W27506   7.427   8.371  14.579
55181W        W27507  21.293  25.670   0.612
55182W        W27508  42.715  23.524   2.667
55183W        W27509  21.042  33.077   0.838
55184W        W27510  16.103  44.329   1.773
55185W        W27511  24.292   3.021  12.470
55186W        W27512  22.866  34.098  10.156
55187W        W27513  12.487  26.104   9.808
55188W        W27514   4.867   6.401  11.989
55189W        W27515  19.855  10.077  14.270
55190W        W27516  11.044  25.587  14.474
55191W        W27517  31.170   6.909   3.172
55192W        W27518  32.045  39.441  11.548
55193W        W27519  36.633  23.032   4.598
55194W        W27520  12.065  39.523  14.464
55195W        W27521  32.461  24.470   1.240
55196W        W27522  16.193  33.388  11.525
55197W        W27523  15.781  26.752  12.881
55198W        W27524  17.948  31.593   4.528
55199W        W27525   2.700  35.939   1.375
55200W        W27526  30.496   1.054   2.695
55201W        W27527  31.787   6.256   1.897
55202W        W27528   2.280  43.396   0.982
55203W        W27529  24.274  20.155   1.904
55204W        W27530  41.460  29.222   1.698
55205W        W27531  33.619  32.338   0.018
55206W        W27532   7.486  29.776  11.771
55207W        W27533  13.087  12.785   4.659
55208W        W27534  35.307  40.951   4.623
55209W        W27535  42.419  16.730   1.332
55210W        W27536  20.316  10.218  14.471
55211W        W27537  40.853  39.318   1.269
55212W        W27538  32.468  18.701   4.140
55213W        W27539   0.165  37.590  11.024
55214W        W27540  26.944   9.785   4.747
55215W        W27541   2.695  17.830  11.557
55216W        W27542   0.449  30.819   4.718
55217W        W27543   8.674  27.069   3.679
55218W        W27544   3.833  41.371   3.930
55219W        W27545  10.685  13.887  10.649
55220W        W27546  38.188  10.031   1.949
55221W        W27547   4.521  38.566   2.992
55222W        W27548  15.818  34.118   4.019
55223W        W27549  36.642  19.716  14.323
55224W        W27550  10.263  41.510   0.466
55225W        W27551  20.282  26.862  13.596
55226W        W27552  25.253  32.814   4.599
55227W        W27553  16.694  21.612  10.513
55228W        W27554   7.566  30.441   0.608
55229W        W27555  18.702   4.160  11.940
55230W        W27556  28.415  34.518  11.500
55231W        W27557  43.499   0.640   2.784
55232W        W27558  13.586  31.649  13.742
55233W        W27559  20.650  23.902   4.200
55234W        W27560  42.899  41.886  10.615
55235W        W27561  39.541  26.956   2.364
55236W        W27562  39.080   7.436   0.386
55237W        W27563  25.093  44.409  11.235
55238W        W27564   7.585  10.687  11.498
55239W        W27565   3.769  16.104  14.844
55240W        W27566   2.657  43.025   3.154
55241W        W27567  28.996  27.593   4.668
55242W        W27568  36.969   8.883   3.128
55243W        W27569  44.017   1.225   0.843
55244W        W27570   7.394  41.754  13.438
55245W        W27571  22.223  21.066  10.700
55246W        W27572  33.518  10.643  10.593
55247W        W27573   6.454  14.785   4.325
55248W        W27574   5.567  22.535   2.297
55249W        W27575  19.779  29.911  11.585
55250W        W27576  20.170  32.098  14.412
55251W        W27577  21.237  26.667   1.414
55252W        W27578  39.292  11.624   0.316
55253W        W27579  26.400  13.334  11.145
55254W        W27580  18.844  16.315   1.272
55255W        W27581  12.665   3.799  10.922
55256W        W27582  25.916  30.088  12.095
55257W        W27583  21.628  10.748   0.854
55258W        W27584   4.860  22.677  14.535
55259W        W27585  30.837  28.860   2.705
55260W        W27586  25.727  12.415  12.826
55261W        W27587  23.539   4.103   1.406
55262W        W27588  22.617  33.595   0.692
55263W        W27589  21.979  42.873  10.841
55264W        W27590  31.902   0.979  11.587
55265W        W27591  35.965  35.291  10.223
55266W        W27592  18.650  17.126   4.569
55267W        W27593  13.212  44.615   0.345
55268W        W27594   9.461  19.076  12.153
55269W        W27595  20.243   5.785  13.891
55270W        W27596   4.452  12.664  10.100
55271W        W27597  32.406  27.058   1.402
55272W        W27598  43.111  12.725  11.043
55273W        W27599   6.615  39.124   1.037
55274W        W27600   3.362  14.028   3.366
55275W        W27601  25.491  27.892  13.689
55276W        W27602  11.906   4.896  12.185
55277W        W27603  27.723   6.272   4.509
55278W        W27604  27.140  30.870   0.829
55279W        W27605  44.846  41.967  10.570
55280W        W27606  42.504  13.543   0.432
55281W        W27607  42.293  24.682  11.391
55282W        W27608   7.225  20.920  13.938
55283W        W27609  39.810  14.898   3.741
55284W        W27610  31.688  14.184   3.269
55285W        W27611   9.677   3.465  10.647
55286W        W27612  33.028  17.232  13.876
55287W        W27613  40.111  11.105   1.403
55288W        W27614  11.133  14.683  11.990
55289W        W27615  35.160  38.479   4.784
55290W        W27616   8.398   9.109   3.791
55291W        W27617  17.612  42.493   4.231
55292W        W27618  31.103  41.340   0.694
55293W        W27619  14.810   6.455   3.591
55294W        W27620  35.342  37.995   0.403
55295W        W27621  30.826  19.755   9.883
55296W        W27622  12.595  39.763   0.254
55297W        W27623  31.907  36.414   2.761
55298W        W27624  25.968  30.066  13.946
55299W        W27625  42.912  38.533  13.088
55300W        W27626  22.648  35.195   5.132
55301W        W27627  30.450  30.862  11.033
55302W        W27628  12.882  14.798  13.911
55303W        W27629  25.567  34.875  13.481
55304W        W27630  10.400  44.585  13.567
55305W        W27631  12.450  33.414  12.092
55306W        W27632  42.804   4.471  13.851
55307W        W27633  38.557  15.559  11.920
55308W        W27634  29.705  17.196  12.554
55309W        W27635  35.097   7.304   1.843
55310W        W27636  43.435  43.163  10.566
55311W        W27637   9.968  21.343   1.515
55312W        W27638  35.060  25.252  12.083
55313W        W27639   2.014   0.422  11.069
55314W        W27640   9.844  30.724  14.387
55315W        W27641  20.702  37.640  13.016
55316W        W27642  23.111  41.511   2.765
55317W        W27643  31.017   2.501   1.792
55318W        W27644  22.298   2.909   1.935
55319W        W27645  27.331  21.361   0.504
55320W        W27646  20.641  15.569   2.151
55321W        W27647  11.799  21.674  14.709
55322W        W27648  19.315  20.185   2.700
55323W        W27649   3.694  13.744  13.042
55324W        W27650  14.301  26.719  12.190
55325W        W27651  31.473  32.489  12.075
55326W        W27652  13.114  37.495   1.794
55327W        W27653  35.206  43.824   1.406
55328W        W27654  37.136  43.262   3.264
55329W        W27655  42.419  24.120  13.801
55330W        W27656  10.901  27.983   2.657
55331W        W27657  36.987  42.578  11.119
55332W        W27658   5.371  25.747  13.876
55333W        W27659  19.686  30.494  13.845
55334W        W27660  26.193  29.490  10.891
55335W        W27661  39.642   0.077   4.758
55336W        W27662  12.424  43.521   4.048
55337W        W27663  29.629  11.760   0.376
55338W        W27664  28.938  18.352   3.855
55339W        W27665  37.980  21.262   4.237
55340W        W27666  20.137  38.962   4.097
55341W        W27667  12.391  37.887  11.833
55342W        W27668  37.721  32.493   1.340
55343W        W27669   7.157  17.773   4.316
55344W        W27670   3.768   4.249  14.841
55345W        W27671  40.744   0.822   2.718
55346W        W27672  16.611   3.762   1.696
55347W        W27673  39.852  36.909   2.281
55348W        W27674   8.012  31.122  13.294
55349W        W27675  11.286  25.682  14.925
55350W        W27676  12.709  24.753   1.283
55351W        W27677  18.480  14.239   4.208
55352W        W27678  37.875  39.768  12.483
55353W        W27679  32.569  44.049   1.267
55354W        W27680  29.936   1.905   2.540
55355W        W27681   8.887   8.473   1.594
55356W        W27682  35.604  36.375   0.318
55357W        W27683  42.444  40.599  12.825
55358W        W27684   2.871  10.625   9.926
55359W        W27685  16.826  43.814   2.653
55360W        W27686   7.106  16.614   4.914
55361W        W27687   6.586  29.341   1.092
55362W        W27688  10.129   6.166   2.847
55363W        W27689  29.984  13.241   3.686
55364W        W27690  31.571  21.574  12.388
55365W        W27691   2.902   2.417  10.518
55366W        W27692  40.647  24.593   2.534
55367W        W27693  16.278  41.925  14.403
55368W        W27694  21.992  12.670  14.367
55369W        W27695   0.144   3.034   2.634
55370W        W27696  24.194  28.645   1.964
55371W        W27697  18.166  26.208   0.327
55372W        W27698  21.706   6.190  11.016
55373W        W27699   5.349  34.659   1.842
55374W        W27700  17.018  24.170  14.794
55375W        W27701  25.454  42.947   0.308
55376W        W27702  40.981  27.312  13.925
55377W        W27703  36.868  29.693  11.072
55378W        W27704   2.326  10.367  12.415
55379W        W27705   6.959   0.470   1.428
55380W        W27706   8.028   6.136  12.402
55381W        W27707  10.693  32.146   3.259
55382W        W27708  10.481  20.296   4.976
55383W        W27709  25.657  34.838  10.703
55384W        W27710  44.963  27.542   1.166
55385W        W27711  17.648  31.075  14.829
55386W        W27712   6.177  33.391  14.516
55387W        W27713  14.885  22.766  13.874
55388W        W27714  39.479  25.078  11.481
55389W        W27715  20.009  24.214   0.439
55390W        W27716  15.895   4.719  11.625
55391W        W27717   4.756  43.687  14.722
55392W        W27718  24.489  39.115  13.081
55393W        W27719  43.531  40.465  12.467
55394W        W27720  24.051  30.085  11.125
55395W        W27721   9.231  33.452  10.627
55396W        W27722  38.605  28.333  11.088
55397W        W27723  20.153  35.975  12.619
55398W        W27724  33.876  17.035   9.978
55399W        W27725  22.286   6.300  11.799
55400W        W27726  14.859   9.450  12.619
55401W        W27727  26.088  42.913   1.605
55402W        W27728  12.348   6.388   0.329
55403W        W27729  13.145  28.490  13.121
55404W        W27730   5.554  13.692   0.779
55405W        W27731  15.601  14.648   3.606
55406W        W27732  42.068  25.140  14.881
55407W        W27733  11.148  29.157  12.470
55408W        W27734   3.474   0.051  13.342
55409W        W27735   1.247  17.285   1.736
55410W        W27736  44.442  34.507   0.652
55411W        W27737  27.475   9.476  10.806
55412W        W27738  12.244  34.153  12.821
55413W        W27739  34.468  32.806   4.716
55414W        W27740  20.719   2.691  10.597
55415W        W27741  42.180  15.969  12.532
55416W        W27742  39.349   9.083  11.156
55417W        W27743  22.085  44.201  14.784
55418W        W27744   1.758  34.324  14.793
55419W        W27745  24.727   8.969   0.833
55420W        W27746  21.110  44.392   0.949
55421W        W27747  14.260  13.695   2.822
55422W        W27748  19.334  32.262   0.547
55423W        W27749   6.365   4.276   1.343
55424W        W27750  20.158  43.932  13.018
55425W        W27751  22.400  37.005   3.173
55426W        W27752  43.815   3.512   2.725
55427W        W27753  38.774  10.993   2.892
55428W        W27754  25.195  11.777   1.862
55429W        W27755   7.372  30.069  13.138
55430W        W27756  44.193  22.046  13.491
55431W        W27757  28.733  34.904   3.263
55432W        W27758  15.077  19.717  11.611
55433W        W27759  12.531  31.035   0.232
55434W        W27760  26.639  28.495  12.912
55435W        W27761  16.070  18.275  11.605
55436W        W27762  33.640  30.705  14.961
55437W        W27763  30.135  38.902   1.264
55438W        W27764   9.483  44.397  13.452
55439W        W27765  29.684  38.831  10.141
55440W        W27766  10.792   4.351   4.139
55441W        W27767  13.105  18.241   4.137
55442W        W27768   8.294  14.346   3.346
55443W        W27769  39.257  22.522  10.743
55444W        W27770  18.746   0.861   3.817
55445W        W27771  17.567   5.264  14.529
55446W        W27772  11.297  29.168   0.594
55447W        W27773  35.461  15.307  10.505
55448W        W27774   5.023  26.762   1.999
55449W        W27775  23.632  33.989   1.946
55450W        W27776  25.136   2.418  13.152
55451W        W27777   3.493  32.923   4.555
55452W        W27778  17.825  42.294   4.684
55453W        W27779   3.063  27.447   0.478
55454W        W27780  15.201   5.490   3.224
55455W        W27781  39.887  32.421   0.920
55456W        W27782  37.067  17.343  14.256
55457W        W27783  14.764   9.457   1.461
55458W        W27784  16.526  13.826   2.276
55459W        W27785  14.902   1.683  10.345
55460W        W27786   8.715  36.072  11.069
55461W        W27787   3.698  14.207  14.985
55462W        W27788  34.592  20.483  12.746
55463W        W27789  32.081   6.107  11.183
55464W        W27790  39.018  39.887  10.281
55465W        W27791  19.758  12.397  11.395
55466W        W27792  26.094  37.545   1.900
55467W        W27793   2.281  17.341   2.649
55468W        W27794   3.758  43.598  10.635
55469W        W27795  32.424  19.661  14.522
55470W        W27796  35.285   9.365   0.831
55471W        W27797   8.771  29.611  12.811
55472W        W27798  40.471   6.168   3.613
55473W        W27799   9.773  37.931   1.826
55474W        W27800  23.501   2.751   0.383
55475W        W27801  17.556  20.542   4.103
55476W        W27802  25.424   5.619  14.310
55477W        W27803  24.135  39.426  11.613
55478W        W27804  27.078  43.899   4.132
55479W        W27805   7.568  11.662  11.580
55480W        W27806  20.633  36.151   3.665
55481W        W27807  26.431  25.504   1.440
55482W        W27808  23.273  37.871   3.260
55483W        W27809  42.347  19.229  11.182
55484W        W27810  12.812  26.512  11.052
55485W        W27811  26.499  42.489   4.492
55486W        W27812  33.466  15.237  14.304
55487W        W27813  29.999  44.199   0.536
55488W        W27814  44.410  14.272  14.789
55489W        W27815  19.878  14.873   1.814
55490W        W27816  10.487  11.498   4.572
55491W        W27817   1.430  16.327   2.777
55492W        W27818  17.987  14.237   1.020
55493W        W27819  17.380  21.312  13.529
55494W        W27820   4.749  44.766   0.020
55495W        W27821   3.257  32.597   2.818
55496W        W27822  33.256  33.638   2.770
55497W        W27823  25.602  15.148  11.939
55498W        W27824  25.584  21.610   4.482
55499W        W27825  10.606  39.056  12.454
55500W        W27826  15.863  10.776   4.188
55501W        W27827   1.605  41.879  14.561
55502W        W27828  32.893  35.620   1.831
55503W        W27829  28.329  19.927   0.477
55504W        W27830  21.451  29.124  11.158
55505W        W27831  22.638  29.070   2.515
55506W        W27832  20.169  20.860  14.413
55507W        W27833   3.407  44.171   5.137
55508W        W27834   8.901  30.210   0.626
55509W        W27835  28.782  31.938   1.947
55510W        W27836  13.832  28.447   0.733
55511W        W27837  41.205  31.054  14.889
55512W        W27838  23.148   1.627  13.109
55513W        W27839  39.863  34.051   1.264
55514W        W27840   6.911  19.248   1.211
55515W        W27841  37.555  17.625   4.158
55516W        W27842  10.783  30.088   0.297
55517W        W27843  29.980  28.912  12.125
55518W        W27844   7.173  13.823   3.747
55519W        W27845  24.675  29.387  10.720
55520W        W27846  24.968  40.843  14.222
55521W        W27847  19.825  25.761   0.141
55522W        W27848  13.303  24.569  10.938
55523W        W27849   5.204  35.080  11.687
55524W        W27850   6.335   6.326  10.706
55525W        W27851  21.413   2.929  13.114
55526W        W27852   9.631  26.237   0.891
55527W        W27853  28.699  25.909   0.453
55528W        W27854  39.061   3.434  14.888
55529W        W27855  43.840  35.860   1.834
55530W        W27856   9.164  12.988   5.049
55531W        W27857  17.400   7.350  12.765
55532W        W27858  24.700  38.376  13.514
55533W        W27859  10.345  27.020  10.684
55534W        W27860  38.022  29.935   3.273
55535W        W27861   1.850   3.413   4.969
55536W        W27862  29.467   6.116  12.471
55537W        W27863  17.299  33.061  12.079
55538W        W27864  14.595   0.152   2.427
55539W        W27865  24.195  25.585   2.830
55540W        W27866  23.749  20.685   2.795
55541W        W27867  21.659   5.695   3.570
55542W        W27868  30.202  33.403  14.322
55543W        W27869  33.068  29.805   3.680
55544W        W27870   5.244  30.099   3.701
55545W        W27871  23.762   9.717  11.114
55546W        W27872  32.395  26.126  14.539
55547W        W27873  35.331  12.740   0.053
55548W        W27874  10.663  19.800   1.312
55549W        W27875  18.572  30.982   0.879
55550W        W27876  32.611  22.158   2.607
55551W        W27877  17.126  30.982   3.722
55552W        W27878  22.073   2.021   1.902
55553W        W27879  24.473  31.934   0.335
55554W        W27880  12.325   2.485   2.311
55555W        W27881  29.390   7.312  10.601
55556W        W27882  24.916  40.459  11.168
55557W        W27883   7.394  34.120   3.704
55558W        W27884   0.369  28.914  13.876
55559W        W27885  38.436  43.915  11.145
55560W        W27886  17.726  15.732  11.619
55561W        W27887   2.869  40.105   1.894
55562W        W27888   5.190  19.815  12.393
55563W        W27889   6.667   7.237   3.843
55564W        W27890  22.607  41.364   2.867
55565W        W27891  34.885   2.338   4.293
55566W        W27892  17.856   0.360   1.455
55567W        W27893  41.346  28.604  12.073
55568W        W27894  25.115   6.416   0.909
55569W        W27895  38.265  11.120   2.801
55570W        W27896  29.078  33.659  12.971
55571W        W27897  35.417  16.653  12.609
55572W        W27898  25.152   2.173  14.945
55573W        W27899   1.836  10.391   5.127
55574W        W27900   2.810  33.636  10.518
55575W        W27901  26.197   9.099   0.608
55576W        W27902  25.701  10.211  13.868
55577W        W27903  26.546  13.292   4.193
55578W        W27904  42.956  32.257  14.825
55579W        W27905  23.583  40.399   1.523
55580W        W27906  28.066  35.029  14.812
55581W        W27907  22.259  38.591   1.153
55582W        W27908  37.283  33.453  14.339
55583W        W27909   8.411  13.468   2.721
55584W        W27910  13.203  18.977   0.237
55585W        W27911   5.656  10.165   0.362
55586W        W27912  34.045  44.310   0.375
55587W        W27913  27.580   9.181   0.486
55588W        W27914  29.999  19.498  12.932
55589W        W27915   2.005  20.490  10.191
55590W        W27916  42.749  26.212   0.485
55591W        W27917   5.995  30.939   2.771
55592W        W27918  36.443  41.752  13.514
55593W        W27919  23.761  44.998  14.919
55594W        W27920  11.750   8.297  10.578
55595W        W27921  26.626  15.096   2.678
55596W        W27922   8.116  44.360   1.786
55597W        W27923  35.955  21.285  11.429
55598W        W27924   4.156  38.778   0.341
55599W        W27925   2.612  28.910   2.041
55600W        W27926  30.226  26.616   2.840
55601W        W27927  23.067  19.128  13.807
55602W        W27928  28.385  41.452  14.281
55603W        W27929  18.518  19.687   2.628
55604W        W27930   8.880  29.069   3.747
55605W        W27931  25.265  42.808  14.206
55606W        W27932  32.076  20.975   0.916
55607W        W27933  26.220  37.525  14.473
55608W        W27934  19.635  13.759   4.299
55609W        W27935  39.092   6.476  14.348
55610W        W27936  34.193  15.286   0.808
55611W        W27937   4.428  15.694  12.177
55612W        W27938  36.137  37.019  14.867
55613W        W27939  27.934  35.673   9.950
55614W        W27940  14.760  23.772  10.358
55615W        W27941  39.302   4.847  14.807
55616W        W27942  42.521  42.861  14.839
55617W        W27943  26.323  22.034   1.227
55618W        W27944  19.809  35.407  11.496
55619W        W27945   3.815  28.985   0.037
55620W        W27946  28.417  10.715   1.734
55621W        W27947  33.179  41.763  11.152
55622W        W27948  29.579  26.192  13.194
55623W        W27949  33.086   9.321  12.830
55624W        W27950  34.232  41.778  12.980
55625W        W27951  31.379  20.038   0.303
55626W        W27952   1.723   6.084  12.383
55627W        W27953  43.883  32.376   4.497
55628W        W27954  15.326   1.379  13.404
55629W        W27955  26.673  15.574  14.242
55630W        W27956   3.927  28.092   3.524
55631W        W27957  28.218  32.584   4.496
55632W        W27958   1.727  10.735  11.869
55633W        W27959  43.293  36.520   2.824
55634W        W27960  40.974  39.337   3.211
55635W        W27961  16.327  33.579   1.225
55636W        W27962  39.995   8.823  12.591
55637W        W27963   5.757   0.314  12.432
55638W        W27964  27.114  10.358  13.443
55639W        W27965  13.422   0.497   1.760
55640W        W27966  33.952   0.441   4.205
55641W        W27967  42.519  17.633   3.800
55642W        W27968  38.105   8.313   0.200
55643W        W27969  12.701   6.244  14.782
55644W        W27970   2.158   7.353  13.977
55645W        W27971   8.381  38.576  13.416
55646W        W27972  22.472  38.317  14.426
55647W        W27973  26.733  38.197   4.981
55648W        W27974  44.001  22.649   3.811
55649W        W27975  36.423  22.072  12.172
55650W        W27976  40.774  18.942   0.343
55651W        W27977  10.338   5.969   3.292
55652W        W27978   3.771  31.464   2.192
55653W        W27979  32.691  44.366   3.206
55654W        W27980  13.818  17.487  11.028
55655W        W27981   5.925  27.951  12.157
55656W        W27982  21.793   2.692  13.401
55657W        W27983  11.107  13.688  12.852
55658W        W27984  26.663  30.093   0.717
55659W        W27985  26.072  23.058  13.542
55660W        W27986  15.093  41.446   3.198
55661W        W27987  33.596  21.137  12.088
55662W        W27988   6.894  36.844   4.933
55663W        W27989  40.960  42.460   1.453
55664W        W27990  34.860  14.672   3.436
55665W        W27991  12.024   3.878  13.581
55666W        W27992   3.181  23.708  13.292
55667W        W27993  15.294   8.616   0.411
55668W        W27994   0.477  14.274   0.101
55669W        W27995  31.169  26.421  12.933
55670W        W27996  17.758  35.783   1.860
55671W        W27997  17.664  23.914  10.519
55672W        W27998  11.960  19.549   0.113
55673W        W27999  23.158   3.847   1.160
55674W        W28000  30.864  15.244   2.183
55675W        W28001  13.892   3.858  14.453
55676W        W28002   9.119   1.191  14.839
55677W        W28003  26.016  24.870  14.758
55678W        W28004  36.446  19.289  11.970
55679W        W28005   6.253  18.084  12.960
55680W        W28006   9.435  19.404   3.214
55681W        W28007  15.319  43.831  10.805
55682W        W28008  32.343  29.557   1.320
55683W        W28009   4.256  14.016  10.776
55684W        W28010  13.404  26.935   2.193
55685W        W28011  14.675  34.957  12.962
55686W        W28012  37.116  38.279   2.207
55687W        W28013  10.406   9.588   4.256
55688W        W28014  19.160  10.796  13.289
55689W        W28015  13.008   5.250   4.905
55690W        W28016   8.638  27.724  12.021
55691W        W28017  37.508  24.068   2.144
55692W        W28018  22.402  29.557  11.845
55693W        W28019  18.576   6.300   0.365
55694W        W28020  24.602  42.762   1.508
55695W        W28021  42.369  44.358  10.203
55696W        W28022  38.287  17.162   1.310
55697W        W28023  44.656  42.561  13.460
55698W        W28024  17.293  38.691   5.059
55699W        W28025  27.255  12.809  11.979
55700W        W28026  13.572  39.599   3.371
55701W        W28027  33.997  34.567  14.330
55702W        W28028  36.818  26.000   1.177
55703W        W28029  17.610  43.412  13.004
55704W        W28030  43.889  28.440   0.975
55705W        W28031  40.533  36.167  14.085
55706W        W28032  11.122  30.433   4.662
55707W        W28033  39.303  30.823  11.206
55708W        W28034   6.298  29.510  13.932
55709W        W28035  12.969  24.876  14.726
55710W        W28036  41.461   0.879   4.456
55711W        W28037   1.469  16.975   4.590
55712W        W28038  14.333  19.512   1.923
55713W        W28039  23.388  16.077  13.059
55714W        W28040  27.689  33.491  10.866
55715W        W28041  31.830  35.098   3.590
55716W        W28042   8.814   3.881  11.368
55717W        W28043  26.518   0.441   4.390
55718W        W28044  42.299  17.151   3.640
55719W        W28045  12.004  14.505  13.375
55720W        W28046  34.178  37.034  11.983
55721W        W28047  26.873  19.529   3.712
55722W        W28048  19.766  28.711   3.821
55723W        W28049  17.186  22.601  14.449
55724W        W28050  31.383  38.072   0.297
55725W        W28051  12.829  21.289   2.375
55726W        W28052  11.831   7.280   2.710
55727W        W28053  44.426  38.366   0.834
55728W        W28054   1.232  32.758  10.871
55729W        W28055  42.400  32.856   0.406
55730W        W28056  18.321  29.217  14.473
55731W        W28057  27.311  38.743  10.264
55732W        W28058  10.253   0.110   1.619
55733W        W28059  41.009  42.091  11.591
55734W        W28060  26.512  39.812  14.600
55735W        W28061   9.417   3.987  13.954
55736W        W28062   0.977  40.527   1.737
55737W        W28063  21.756  23.555  13.287
55738W        W28064  24.611  11.598  12.067
55739W        W28065   6.978  28.386  10.707
55740W        W28066  32.002  38.333   2.644
55741W        W28067   1.001  35.421  11.949
55742W        W28068  13.432  42.718  10.266
55743W        W28069  39.599  25.226  12.876
55744W        W28070  30.011  33.849  14.860
55745W        W28071  28.456  13.163  11.935
55746W        W28072  14.894  19.544   0.344
55747W        W28073  37.024   1.428  13.301
55748W        W28074   8.088   9.954  10.649
55749W        W28075  36.049  31.962   4.583
55750W        W28076  24.372  37.072   1.367
55751W        W28077  12.584  25.301  12.482
55752W        W28078   5.164  20.333  14.782
55753W        W28079   9.807  30.111   4.129
55754W        W28080  33.921   7.327  12.516
55755W        W28081  11.163  37.100  12.875
55756W        W28082  34.270  23.417  12.951
55757W        W28083  29.037  10.265  11.892
55758W        W28084  29.244   7.192   0.099
55759W        W28085  34.712  38.773   2.883
55760W        W28086   2.346   0.921   0.785
55761W        W28087  39.397  18.635   2.238
55762W        W28088  18.070  37.660   2.691
55763W        W28089  17.638  18.283  13.982
55764W        W28090  38.849   9.456   4.125
55765W        W28091  38.137  26.057   2.402
55766W        W28092  26.897  16.855   3.600
55767W        W28093   7.462  24.053   1.823
55768W        W28094  25.984  15.673   0.624
55769W        W28095  44.903   6.847  12.599
55770W        W28096  34.275  22.674  10.905
55771W        W28097   5.323  16.703  13.891
55772W        W28098  37.434   2.776  11.986
55773W        W28099  42.549  30.577   1.505
55774W        W28100  43.544  13.761  12.254
55775W        W28101  26.213  40.972   3.098
55776W        W28102  41.139  24.535   1.297
55777W        W28103  30.480  23.567  12.563
55778W        W28104  38.396   3.688  11.742
55779W        W28105  15.706  13.826  14.777
55780W        W28106  33.682  23.545  14.184
55781W        W28107   1.162  37.733  12.898
55782W        W28108  26.247   7.385  11.997
55783W        W28109  37.344   5.915   3.064
55784W        W28110  17.104  12.696  14.420
55785W        W28111  44.880   5.295  13.772
55786W        W28112   0.093  42.766   4.335
55787W        W28113   2.958  21.539  12.019
55788W        W28114  31.784   5.423  14.386
55789W        W28115  35.823  12.109   2.725
55790W        W28116  44.818  29.247  13.519
55791W        W28117  18.110  25.698  14.755
55792W        W28118  36.556  13.315  14.390
55793W        W28119  19.984  41.506  11.884
55794W        W28120  31.575  10.197   3.778
55795W        W28121  28.666  37.446   3.214
55796W        W28122  39.123  32.361  10.448
55797W        W28123   6.522  29.679  13.467
55798W        W28124   8.770  11.782   2.428
55799W        W28125   1.752   6.114   1.876
55800W        W28126  42.648  41.806  13.922
55801W        W28127  40.487  39.065   5.100
55802W        W28128  20.875  19.557   0.388
55803W        W28129  33.824  26.519   3.220
55804W        W28130  27.703   8.661  14.278
55805W        W28131  38.266   8.738  12.001
55806W        W28132  19.098   1.924   2.228
55807W        W28133  22.215  25.596   4.789
55808W        W28134  39.036  37.337  12.558
55809W        W28135  39.257  33.629   1.685
55810W        W28136  20.733  37.296   3.123
55811W        W28137  31.501   2.193  13.762
55812W        W28138  44.889  43.236   3.669
55813W        W28139  31.375  36.970   3.085
55814W        W28140   8.786  38.480  10.622
55815W        W28141   4.591  26.104   0.738
55816W        W28142   2.200  38.894  10.952
55817W        W28143  44.310  14.761  10.854
55818W        W28144  44.665  27.012   2.417
55819W        W28145  14.642  35.844   5.044
55820W        W28146  44.392  12.100  11.914
55821W        W28147  30.320   9.568  12.812
55822W        W28148  22.761  21.754   3.081
55823W        W28149  10.311  20.950  10.615
55824W        W28150   6.295  37.210   1.538
55825W        W28151   3.178   1.991  14.463
55826W        W28152   3.241  14.680  13.030
55827W        W28153   3.383   4.205   4.691
55828W        W28154  37.991   1.265   2.762
55829W        W28155  36.499  44.051  11.605
55830W        W28156  36.789  25.099  14.106
55831W        W28157  27.695   4.846  10.727
55832W        W28158  22.157  23.202   2.513
55833W        W28159  29.581   4.294  12.903
55834W        W28160   0.816   4.755   0.788
55835W        W28161   5.198   4.980   3.311
55836W        W28162   8.945   5.629  10.722
55837W        W28163   1.203  22.102   2.705
55838W        W28164  39.353  23.671  13.058
55839W        W28165   6.169   4.071   2.705
55840W        W28166  34.824   9.699   2.089
55841W        W28167  42.331  15.049   2.422
55842W        W28168  38.365  23.247  14.821
55843W        W28169  30.401  20.301  11.505
55844W        W28170   2.917  44.864  14.738
55845W        W28171  21.222  41.555   1.192
55846W        W28172  32.087  25.011  14.979
55847W        W28173  24.203  27.685  12.951
55848W        W28174  24.511  22.737  14.386
55849W        W28175  38.615  32.353  10.563
55850W        W28176  33.891  41.479   1.425
55851W        W28177   9.310  13.646   0.812
55852W        W28178   9.647  10.203   3.977
55853W        W28179  37.978   3.445   0.244
55854W        W28180  44.373  28.934  13.419
55855W        W28181  18.904  39.896   1.720
55856W        W28182  16.980   9.333  13.427
55857W        W28183  24.718  44.383   2.663
55858W        W28184  35.387  17.090  14.806
55859W        W28185   4.677  42.421   3.800
55860W        W28186  34.059  37.776  11.588
55861W        W28187  29.630   0.391   2.079
55862W        W28188  42.060   8.743  12.618
55863W        W28189  12.560  19.579   3.593
55864W        W28190  21.700  25.167   2.796
55865W        W28191   9.758   7.936  12.499
55866W        W28192  42.557  16.084  11.364
55867W        W28193  16.235   8.194  13.384
55868W        W28194  32.003  23.543   0.004
55869W        W28195  21.835  29.659  12.001
55870W        W28196   2.703  13.785   1.315
55871W        W28197  16.654  19.582   3.840
55872W        W28198   9.971  42.599  11.060
55873W        W28199  19.542  14.216   2.376
55874W        W28200   2.816   9.877   3.451
55875W        W28201  27.215  27.196  11.141
55876W        W28202  33.888  43.247  13.951
55877W        W28203   3.704   1.557  14.866
55878W        W28204  11.525   2.272   2.430
55879W        W28205   4.139  36.558   3.865
55880W        W28206   2.199  39.441  12.814
55881W        W28207  34.680  11.379   1.443
55882W        W28208  14.226  22.474   2.938
55883W        W28209  32.413  31.308   2.722
55884W        W28210  28.403   2.300  13.524
55885W        W28211  29.897  13.131  13.397
55886W        W28212  15.677  40.820   1.775
55887W        W28213  34.522  42.013   4.333
55888W        W28214  41.382   1.324   1.783
55889W        W28215  38.275  37.500  11.562
55890W        W28216  30.477  39.027   0.289
55891W        W28217  24.771  44.567   3.976
55892W        W28218  41.421  24.375  13.869
55893W        W28219  10.228   1.838  10.418
55894W        W28220  25.919   6.362   2.615
55895W        W28221  32.593  13.714  12.896
55896W        W28222  25.300   6.105  14.336
55897W        W28223  31.124   6.924   1.840
55898W        W28224  26.850   8.648   3.338
55899W        W28225   6.969  10.533   3.901
55900W        W28226   9.198  19.733  10.644
55901W        W28227  28.142  12.367  14.144
55902W        W28228  15.398  13.324  13.962
55903W        W28229   6.218  21.072   3.339
55904W        W28230  40.291   6.164   0.855
55905W        W28231   5.515  14.945  11.676
55906W        W28232  42.925  44.341  13.961
55907W        W28233  35.973  34.032   0.320
55908W        W28234  36.153   9.870  13.000
55909W        W28235   7.957  37.662   1.504
55910W        W28236   9.335   6.430  12.553
55911W        W28237  20.784  21.278  12.945
55912W        W28238  27.524  41.285  14.631
55913W        W28239  41.401  20.447  14.873
55914W        W28240  23.060  16.642   5.314
55915W        W28241  43.230   6.354  13.574
55916W        W28242  18.583  33.012   1.007
55917W        W28243  21.984  35.783  11.585
55918W        W28244  26.754  16.901  12.386
55919W        W28245  39.582   0.329  13.089
55920W        W28246  44.009  24.262  11.223
55921W        W28247   4.674   3.424   1.627
55922W        W28248  31.069   7.251   3.559
55923W        W28249  17.141  19.542  11.809
55924W        W28250  15.082  28.149  11.054
55925W        W28251  41.909  23.692  10.238
55926W        W28252  31.972  19.645  10.342
55927W        W28253   2.681  12.196  12.014
55928W        W28254  14.611  31.537  12.964
55929W        W28255  41.560  40.378  14.253
55930W        W28256  19.269  17.374   2.476
55931W        W28257  37.975  15.980  10.481
55932W        W28258  40.021   1.696   2.212
55933W        W28259  12.735   2.251   0.367
55934W        W28260   3.897  17.591  12.886
55935W        W28261  35.910  18.228   0.282
55936W        W28262  33.499  36.926  14.923
55937W        W28263  44.871  28.957  13.941
55938W        W28264  29.129  21.680   3.800
55939W        W28265  26.040  42.845  10.702
55940W        W28266  26.671   4.463  12.789
55941W        W28267  25.722   8.877  13.411
55942W        W28268  14.088  18.045   1.741
55943W        W28269  28.119  35.776  10.802
55944W        W28270   5.643   3.283  11.635
55945W        W28271  30.704  37.065  14.980
55946W        W28272  12.278  35.416   1.410
55947W        W28273  42.281  30.126   4.603
55948W        W28274  15.679  12.975  10.269
55949W        W28275  32.387  40.055  11.134
55950W        W28276  31.053  25.439   1.712
55951W        W28277   5.540  14.766   4.177
55952W        W28278  27.115  24.663   4.568
55953W        W28279  28.952   6.819  10.796
55954W        W28280  21.188  31.628   3.250
55955W        W28281  21.981   0.328  11.856
55956W        W28282  20.747   0.065   3.535
55957W        W28283   4.746  11.737  14.359
55958W        W28284   5.817  25.606   4.357
55959W        W28285  44.903  44.052   1.810
55960W        W28286  43.302  33.787  11.936
55961W        W28287  43.926   3.868   4.114
55962W        W28288   1.696  32.509  10.689
55963W        W28289  29.185   3.335   4.549
55964W        W28290  17.264  16.228  12.994
55965W        W28291  39.226  22.800   1.190
55966W        W28292  20.738  23.470  10.739
55967W        W28293  43.762  26.600   1.742
55968W        W28294   1.573  41.824   3.165
55969W        W28295  25.112  14.232   4.804
55970W        W28296  17.282  25.506   1.855
55971W        W28297   7.850  31.543   2.350
55972W        W28298  10.374  21.249   2.248
55973W        W28299  21.735   6.756   1.328
55974W        W28300  31.859  14.798   4.072
55975W        W28301  32.872  27.055  12.797
55976W        W28302  30.634  25.218   1.454
55977W        W28303  29.513  15.059   2.669
55978W        W28304   9.666  24.098  12.446
55979W        W28305  24.703   3.392   2.789
55980W        W28306  12.458  24.499   0.333
55981W        W28307  27.954  42.194  12.380
55982W        W28308  19.534  17.676   4.690
55983W        W28309  31.948   2.897   3.179
55984W        W28310  44.487  11.107  11.035
55985W        W28311  29.540   4.827  12.972
55986W        W28312  37.842   3.214   4.637
55987W        W28313  39.236  25.545  14.010
55988W        W28314  33.091  19.731  10.736
55989W        W28315  11.265  10.694  13.541
55990W        W28316  25.045  24.478  13.304
55991W        W28317  20.084  17.849   2.568
55992W        W28318  15.708  18.188   0.264
55993W        W28319  23.956   1.053   4.278
55994W        W28320  38.116  20.095  12.484
55995W        W28321  30.541  11.672   1.191
55996W        W28322  14.687  37.707  13.687
55997W        W28323   3.661  20.669   2.197
55998W        W28324  26.916   0.425   0.905
55999W        W28325   7.924  18.101  12.497
56000W        W28326   5.339   9.731  13.495
56001W        W28327  14.660  15.058   1.869
56002W        W28328   9.749  20.785  14.459
56003W        W28329  36.437  40.367   0.815
56004W        W28330  22.746  38.166   1.723
56005W        W28331   0.382  18.049  11.911
56006W        W28332  21.611  34.560   3.391
56007W        W28333   8.281  23.596  12.335
56008W        W28334  29.801  10.631   4.857
56009W        W28335   7.839   9.241  13.652
56010W        W28336  14.656  30.913  12.093
56011W        W28337  19.774  34.617   1.366
56012W        W28338  27.908  14.776  12.057
56013W        W28339  41.316  40.316   4.700
56014W        W28340  38.228   5.680  11.470
56015W        W28341  43.984  20.896   4.607
56016W        W28342   9.364  27.397  12.457
56017W        W28343   4.285  42.511   0.448
56018W        W28344  20.630  24.736  14.333
56019W        W28345  10.708   0.447   4.356
56020W        W28346   2.282   1.683  14.990
56021W        W28347   3.218   3.744   3.284
56022W        W28348  32.508   0.766   9.823
56023W        W28349   7.652  38.474   4.752
56024W        W28350  23.126  17.872   5.042
56025W        W28351   5.416   2.831  11.607
56026W        W28352  20.643   4.426  11.599
56027W        W28353  27.466   7.465  12.545
56028W        W28354  23.195  23.976  12.939
56029W        W28355  12.886  23.733   0.528
56030W        W28356  21.665  37.406   2.723
56031W        W28357  30.282  24.243   1.259
56032W        W28358  36.281  12.666  11.135
56033W        W28359   7.389  27.317  14.042
56034W        W28360  10.760  26.184  12.390
56035W        W28361  15.347  31.849   2.742
56036W        W28362  29.173  25.659  10.470
56037W        W28363  43.417   9.397  10.702
56038W        W28364  17.725  35.366  13.472
56039W        W28365  33.329   5.153  11.939
56040W        W28366  44.677  37.360  12.875
56041W        W28367  30.982  20.266  13.504
56042W        W28368  37.431  11.881   3.595
56043W        W28369   6.748  15.558   0.247
56044W        W28370  42.981  23.572  14.775
56045W        W28371  13.008  33.767   3.164
56046W        W28372   5.899  27.735   3.249
56047W        W28373   5.785   6.276  10.484
56048W        W28374  40.490  16.121   0.263
56049W        W28375  35.398  31.993   3.201
56050W        W28376   9.418  20.795  13.899
56051W        W28377  37.978  15.113  14.514
56052W        W28378  28.944  21.946  11.766
56053W        W28379  44.766  29.429   5.141
56054W        W28380  32.513   6.637  12.538
56055W        W28381  15.129   4.835   2.753
56056W        W28382  29.461  33.864  12.142
56057W        W28383  36.976  38.095   0.801
56058W        W28384   8.455   0.923   4.528
56059W        W28385   3.044  32.838  10.923
56060W        W28386  11.375  34.084   2.340
56061W        W28387  22.159   7.234   0.784
56062W        W28388  28.388  25.498   3.296
56063W        W28389  10.268  40.934   2.677
56064W        W28390  38.692  22.593  13.324
56065W        W28391   3.261   4.376  12.405
56066W        W28392   8.434  40.523   0.472
56067W        W28393  43.901   6.200   0.393
56068W        W28394  25.553  10.117   2.002
56069W        W28395  10.600  37.971   2.252
56070W        W28396  10.894  36.970   2.757
56071W        W28397  21.126  12.237   0.965
56072W        W28398  31.018  16.540   3.621
56073W        W28399  10.288  40.589  11.453
56074W        W28400  38.386  35.112   1.429
56075W        W28401  15.531  22.535  11.733
56076W        W28402  38.597  34.042   4.165
56077W        W28403  28.010  43.394  10.727
56078W        W28404  15.565  20.428  13.531
56079W        W28405   6.691  27.342   1.647
56080W        W28406  43.003  39.814   1.717
56081W        W28407  19.768  29.136   2.142
56082W        W28408   6.950  29.309  14.313
56083W        W28409  31.169  13.068   1.816
56084W        W28410  43.066  25.993   3.804
56085W        W28411  14.113  15.195   0.341
56086W        W28412  44.888  23.079   1.863
56087W        W28413  43.052  32.046   4.045
56088W        W28414   9.378  30.905   2.357
56089W        W28415  29.044  29.093  10.891
56090W        W28416  29.209   7.244   0.635
56091W        W28417  14.230  19.741   3.806
56092W        W28418   8.214  30.188   1.216
56093W        W28419   9.249   5.101   3.274
56094W        W28420  11.374  23.789   1.331
56095W        W28421  44.427  31.067   4.715
56096W        W28422   9.350  43.296   2.100
56097W        W28423  15.746  38.975   0.906
56098W        W28424   3.959  32.092  10.695
56099W        W28425   0.284  36.481  14.182
56100W        W28426  23.017  29.511  10.464
56101W        W28427   7.938  32.429  12.351
56102W        W28428  39.814  33.763   2.769
56103W        W28429  39.303  20.999   4.176
56104W        W28430  14.017  20.737  14.444
56105W        W28431  33.936  14.368   3.409
56106W        W28432   4.796  32.111  12.583
56107W        W28433  25.251  33.419  11.585
56108W        W28434   0.470  25.165   1.702
56109W        W28435  33.481  31.095   3.783
56110W        W28436   2.446  35.036   0.020
56111W        W28437  13.792  27.544  11.913
56112W        W28438  29.523  20.160   3.692
56113W        W28439  26.071  32.103  13.341
56114W        W28440  23.710  15.853   2.347
56115W        W28441   8.331  42.930   2.299
56116W        W28442   0.933  24.554   1.044
56117W        W28443   3.673  13.210  13.547
56118W        W28444  37.506   4.951   2.732
56119W        W28445  27.505  22.953  12.490
56120W        W28446  37.469  41.196   2.278
56121W        W28447  10.268  10.420   1.007
56122W        W28448  25.617  32.041  14.868
56123W        W28449  41.892  30.981   2.079
56124W        W28450  15.375   4.808   2.294
56125W        W28451  34.439  37.426  14.294
56126W        W28452   2.821  19.960   4.435
56127W        W28453   3.271  20.988   3.067
56128W        W28454  16.720   3.571   1.212
56129W        W28455   9.256  32.676   4.177
56130W        W28456  26.942  19.125   2.911
56131W        W28457  25.608   5.919  11.577
56132W        W28458  42.460  37.178  12.597
56133W        W28459  25.244  15.533   4.718
56134W        W28460  20.054  10.583   2.249
56135W        W28461  11.787  16.134  12.706
56136W        W28462   7.648   1.428  12.420
56137W        W28463  23.607  44.892  12.078
56138W        W28464  23.072  20.178  14.868
56139W        W28465  40.504  28.439   3.280
56140W        W28466  30.117   7.558  14.969
56141W        W28467  41.362  33.075   4.375
56142W        W28468  32.151  33.217   4.333
56143W        W28469   3.981  24.016   3.064
56144W        W28470  42.978  41.534  10.988
56145W        W28471  18.138   1.395   4.030
56146W        W28472  22.438  10.345  13.880
56147W        W28473  21.294  43.270   2.810
56148W        W28474   4.825  35.167  13.843
56149W        W28475   4.451  22.367   5.097
56150W        W28476  18.627  35.908  13.384
56151W        W28477   2.420  10.094  11.430
56152W        W28478   3.899  21.007  11.047
56153W        W28479  39.082   4.309   1.323
56154W        W28480  35.589  17.208  12.864
56155W        W28481  41.392  31.535   4.548
56156W        W28482   8.179  26.611  12.448
56157W        W28483  11.798   4.506   1.309
56158W        W28484   3.994  34.498   3.161
56159W        W28485  43.287   5.745   1.079
56160W        W28486  33.643  33.946  12.780
56161W        W28487  41.443  17.991  14.802
56162W        W28488  34.290  21.788   2.031
56163W        W28489  37.872  20.123   2.908
56164W        W28490   4.197  39.925   4.649
56165W        W28491  23.898  29.677  13.007
56166W        W28492  39.482  24.699   0.180
56167W        W28493   9.086  23.462   0.443
56168W        W28494  43.673   3.001   4.420
56169W        W28495  17.997  33.059   2.668
56170W        W28496  34.067  25.204   3.583
56171W        W28497  36.256   9.688  11.598
56172W        W28498  24.081  26.968   0.992
56173W        W28499  33.114  14.149  10.921
56174W        W28500  27.452  40.265   0.053
56175W        W28501  43.051   2.374   1.177
56176W        W28502   1.807  21.490   3.320
56177W        W28503  37.977  33.652   3.634
56178W        W28504  12.911  35.360   0.783
56179W        W28505  39.969  26.238  11.563
56180W        W28506   4.896  26.174  10.420
56181W        W28507   8.880  22.181  10.708
56182W        W28508  40.238  24.684  13.035
56183W        W28509  29.575  38.538   0.025
56184W        W28510   4.635   1.567   0.943
56185W        W28511  14.050  19.653   4.576
56186W        W28512  42.071  32.018  12.940
56187W        W28513  15.281  32.225  11.969
56188W        W28514   7.118  34.887   5.068
56189W        W28515  35.091  42.149  13.325
56190W        W28516  44.048   2.024   1.368
56191W        W28517  32.428  37.010   0.479
56192W        W28518  27.256  11.279   0.270
56193W        W28519  15.209  43.178  12.319
56194W        W28520  11.426  25.691  12.090
56195W        W28521  32.850  39.794  11.083
56196W        W28522   6.812   8.458  14.306
56197W        W28523  15.334  24.930   3.135
56198W        W28524  13.366  34.479   4.128
56199W        W28525  11.804  27.547   2.920
56200W        W28526  44.844   1.808   0.828
56201W        W28527  27.169   6.939  11.866
56202W        W28528  19.282  37.949   4.630
56203W        W28529   2.307  22.549  13.123
56204W        W28530   4.321  35.131   0.986
56205W        W28531   0.375   6.948  11.710
56206W        W28532  20.543  12.621  12.886
56207W        W28533  27.467  44.010   2.440
56208W        W28534  24.083  38.435  13.386
56209W        W28535   5.691   5.127   4.137
56210W        W28536   3.414  12.336   2.239
56211W        W28537  36.559  35.481   5.021
56212W        W28538  37.019  38.370  14.263
56213W        W28539  42.850  14.642   3.638
56214W        W28540  31.537   4.732  12.513
56215W        W28541  20.227  19.627   0.809
56216W        W28542   1.646  39.102  14.808
56217W        W28543  28.337   3.351   3.294
56218W        W28544  39.216  43.999   3.416
56219W        W28545   9.819  27.194  14.367
56220W        W28546  35.088   8.752   3.731
56221W        W28547  10.745   8.450   4.308
56222W        W28548  33.691   6.875  10.699
56223W        W28549  23.495  24.254   4.698
56224W        W28550  29.028  22.574   4.202
56225W        W28551  30.130  16.913  11.653
56226W        W28552   7.188  43.580   0.269
56227W        W28553  39.550  40.126   2.795
56228W        W28554  38.860  27.367  11.430
56229W        W28555  29.111  37.229   9.957
56230W        W28556  15.728  32.526  11.665
56231W        W28557  32.090  25.173  10.301
56232W        W28558  19.869  26.683  14.195
56233W        W28559  27.524   2.610   2.746
56234W        W28560  26.567  37.177   0.413
56235W        W28561  44.435  10.258  10.679
56236W        W28562  21.422  20.750  10.726
56237W        W28563  39.018  40.785   0.664
56238W        W28564  37.893  15.326  13.420
56239W        W28565   5.387  39.410   4.512
56240W        W28566  15.327  22.229   4.536
56241W        W28567  30.537  14.844  12.279
56242W        W28568  42.422  40.382  11.038
56243W        W28569  20.819  21.527  13.467
56244W        W28570  43.706  14.758  12.142
56245W        W28571  36.443  29.740   0.113
56246W        W28572   7.811  19.235  11.636
56247W        W28573  31.569  40.476  10.530
56248W        W28574  38.364   8.646   0.503
56249W        W28575  38.585  18.605  14.060
56250W        W28576   5.995  29.493  14.397
56251W        W28577  38.058  13.364   0.272
56252W        W28578   9.704   1.757   1.406
56253W        W28579  26.146  20.628  14.421
56254W        W28580  13.823  13.646   2.144
56255W        W28581  16.603  31.410   4.627
56256W        W28582  19.248  44.681  11.538
56257W        W28583  35.812   9.541  11.418
56258W        W28584  31.426  43.114   2.772
56259W        W28585  44.945  40.363  14.365
56260W        W28586  11.307  19.185   0.999
56261W        W28587  42.573  42.108   0.317
56262W        W28588  22.286  29.953  11.560
56263W        W28589  37.043  41.190  11.015
56264W        W28590  43.517  23.656  12.107
56265W        W28591  30.342  27.394  11.915
56266W        W28592   6.231  30.181  11.454
56267W        W28593  14.296  34.768   2.820
56268W        W28594   5.720  20.592   1.309
56269W        W28595  30.730  13.942  14.705
56270W        W28596   6.894  19.717   0.926
56271W        W28597  15.464  35.499   0.304
56272W        W28598  22.497  33.219   3.703
56273W        W28599  16.109  43.484  13.131
56274W        W28600  17.828  24.054  11.496
56275W        W28601  36.589   5.162  10.536
56276W        W28602   3.596  42.152   0.530
56277W        W28603  26.217  24.288   3.316
56278W        W28604  15.705   8.888   4.755
56279W        W28605  32.890  33.475  12.801
56280W        W28606  29.869   0.515   0.794
56281W        W28607  18.861  35.590   2.425
56282W        W28608   3.870  23.575   0.785
56283W        W28609  35.650  11.091   0.313
56284W        W28610   3.179  43.942   2.283
56285W        W28611  12.235  23.780   2.116
56286W        W28612  42.223   7.400  12.671
56287W        W28613  16.853   7.761   2.923
56288W        W28614  25.451  42.325  12.983
56289W        W28615   8.139  26.984   1.730
56290W        W28616  27.479  10.345  10.513
56291W        W28617   1.220  12.877  14.862
56292W        W28618   6.062   4.430   3.713
56293W        W28619  36.941   7.981   0.310
56294W        W28620  35.353  12.410  14.285
56295W        W28621  44.940  16.544   2.866
56296W        W28622  22.388  17.578  13.900
56297W        W28623  29.720  41.947  14.362
56298W        W28624  27.535  43.994  12.544
56299W        W28625  22.468  28.591  12.097
56300W        W28626  44.805  31.449   1.701
56301W        W28627  40.417  33.926   1.210
56302W        W28628   4.492   3.007  10.720
56303W        W28629  14.329   1.223   1.224
56304W        W28630  10.395   0.834  13.084
56305W        W28631  26.065  31.668   2.281
56306W        W28632  41.049  16.258   4.236
56307W        W28633  27.123  14.362   2.636
56308W        W28634   2.934  35.114  10.564
56309W        W28635  24.554  44.239  13.934
56310W        W28636   3.935  19.438   4.160
56311W        W28637  41.763  44.499   4.566
56312W        W28638  11.415  10.657   3.185
56313W        W28639  12.248  24.138  11.114
56314W        W28640   0.293  12.897   2.492
56315W        W28641  26.223  38.484   0.208
56316W        W28642   0.541  38.140   4.185
56317W        W28643  36.395   3.165   1.384
56318W        W28644  39.305  34.490  11.960
56319W        W28645  11.331  42.568  12.501
56320W        W28646  14.781  28.044   3.653
56321W        W28647  31.192  21.906  15.000
56322W        W28648  31.106  42.571   3.165
56323W        W28649   1.966  37.961  13.334
56324W        W28650  22.454  36.999  13.982
56325W        W28651  13.169  41.447  10.319
56326W        W28652  20.085  30.388   2.796
56327W        W28653  17.199  35.982   1.698
56328W        W28654   9.955  37.863   4.645
56329W        W28655  23.380  24.045  14.008
56330W        W28656  19.723  40.218  13.037
56331W        W28657  38.792  10.376   5.061
56332W        W28658  20.903  28.700  10.667
56333W        W28659   4.408   4.443   3.711
56334W        W28660   8.600   8.263  13.963
56335W        W28661  28.600  39.505  11.076
56336W        W28662  15.798  35.442  14.721
56337W        W28663  25.250  17.018  14.731
56338W        W28664  30.550  36.570   2.702
56339W        W28665  23.543  23.111  12.385
56340W        W28666  37.270  38.074  11.114
56341W        W28667  32.120  12.064   3.697
56342W        W28668   8.179  26.948   4.438
56343W        W28669  15.218  32.082  11.037
56344W        W28670  43.777   0.500   0.337
56345W        W28671  26.639   3.458  12.901
56346W        W28672   8.373  38.066   3.343
56347W        W28673  43.746   6.462  13.540
56348W        W28674  17.116  14.239  12.518
56349W        W28675   5.982  13.731   0.482
56350W        W28676   7.745  38.949  12.624
56351W        W28677  22.867  20.008  13.420
56352W        W28678  29.918  16.360   1.400
56353W        W28679   3.212  21.522  14.523
56354W        W28680   8.686  19.566   2.158
56355W        W28681  11.760  21.628   0.743
56356W        W28682  41.044  23.689  13.379
56357W        W28683  27.384   4.710  13.600
56358W        W28684   8.362  38.858  14.992
56359W        W28685  26.295  26.028   0.703
56360W        W28686  17.821  42.190  11.033
56361W        W28687  25.071  26.326  13.910
56362W        W28688  21.527  19.253  14.261
56363W        W28689  12.214  42.792  12.492
56364W        W28690  26.666  16.602  11.464
56365W        W28691  41.125  16.686  14.028
56366W        W28692   9.676  16.579   4.889
56367W        W28693  36.829  40.399   0.466
56368W        W28694  39.570  11.189   2.962
56369W        W28695   8.105  28.209  13.100
56370W        W28696  16.346  16.866  12.439
56371W        W28697   6.423  27.613  13.929
56372W        W28698  35.815  18.239   2.744
56373W        W28699  44.922   8.314  14.254
56374W        W28700  20.214  42.059  14.946
56375W        W28701  29.679  41.100  10.466
56376W        W28702  31.095   9.255  12.909
56377W        W28703   2.313  21.476  11.779
56378W        W28704  26.707  30.886  13.015
56379W        W28705  20.089  41.986  11.958
56380W        W28706   6.074   0.986   0.681
56381W        W28707  43.163  22.762  13.070
56382W        W28708  15.563   5.097   1.818
56383W        W28709  11.158  34.193   3.813
56384W        W28710  15.989  43.980   0.204
56385W        W28711  21.211  26.956  14.070
56386W        W28712   2.718  37.121   4.164
56387W        W28713  21.994  20.849  13.504
56388W        W28714   3.197  14.680   0.283
56389W        W28715  17.083   3.055   4.542
56390W        W28716   0.832  21.686   4.272
56391W        W28717  28.363   5.744   1.912
56392W        W28718  27.705  26.285   5.397
56393W        W28719  35.507   5.871   2.763
56394W        W28720  11.592  37.049   4.103
56395W        W28721   6.535  27.825  13.453
56396W        W28722  30.615  24.235  12.458
56397W        W28723  16.125   5.984  12.410
56398W        W28724  40.623  16.390  11.020
56399W        W28725  38.397  20.711   1.154
56400W        W28726  39.337  17.158   0.673
56401W        W28727  14.214  36.664   0.778
56402W        W28728  31.806   8.419   3.216
56403W        W28729  31.896  35.911  13.743
56404W        W28730   9.882  16.706   1.206
56405W        W28731  31.157  23.473   1.935
56406W        W28732  38.567   0.263  14.260
56407W        W28733  17.325  43.010  12.818
56408W        W28734  29.600  38.950  12.156
56409W        W28735  19.183   1.704   4.164
56410W        W28736   9.891  12.251  13.385
56411W        W28737  18.837  32.062  14.762
56412W        W28738   7.304   3.567   3.847
56413W        W28739  37.763  14.241   0.403
56414W        W28740  41.567  31.971   2.796
56415W        W28741  40.826  38.040  14.834
56416W        W28742  21.620  29.661  13.070
56417W        W28743  19.130  21.229   3.432
56418W        W28744  26.192  42.888   3.281
56419W        W28745   3.268  21.229   1.627
56420W        W28746   6.382   4.965  13.974
56421W        W28747   6.369   7.210   0.970
56422W        W28748   8.814  33.443   1.671
56423W        W28749  29.126  30.208  11.122
56424W        W28750  13.827  30.985  12.265
56425W        W28751  30.647   7.888  14.139
56426W        W28752   0.546  25.107   0.807
56427W        W28753  33.783   8.389   3.592
56428W        W28754  17.083   1.267   3.709
56429W        W28755  30.593  37.439  13.970
56430W        W28756  17.204  44.783  13.382
56431W        W28757  28.474   9.626   0.632
56432W        W28758   9.504  26.920  13.752
56433W        W28759  15.260  20.822  11.919
56434W        W28760  10.667  21.281   4.535
56435W        W28761  41.369  32.595  13.440
56436W        W28762   4.311  31.408  11.935
56437W        W28763   4.917  25.408  13.011
56438W        W28764  26.158   4.588  11.132
56439W        W28765  27.179   0.349  14.993
56440W        W28766   5.127  43.328   4.510
56441W        W28767  27.978  20.381   0.507
56442W        W28768  30.530  44.214  13.349
56443W        W28769  38.632   8.718   2.272
56444W        W28770   6.981  32.989  11.189
56445W        W28771  33.568  14.834  12.829
56446W        W28772  29.890  41.257  13.028
56447W        W28773  25.519  25.297  11.061
56448W        W28774  33.057  29.062   1.552
56449W        W28775  30.566   7.852  12.288
56450W        W28776   0.139  44.361  10.763
56451W        W28777  42.387  27.764  10.448
56452W        W28778  43.443   0.042   3.642
56453W        W28779   3.367   3.812  10.310
56454W        W28780  25.543  33.113  14.907
56455W        W28781  32.451  40.942   2.923
56456W        W28782  43.908  35.537  11.599
56457W        W28783  21.472  19.824   2.287
56458W        W28784  19.740   0.922   4.680
56459W        W28785  33.477  18.165   3.183
56460W        W28786   0.843  25.203  10.424
56461W        W28787  20.125  29.837   4.696
56462W        W28788  40.036   3.913   4.900
56463W        W28789  10.897  19.047   2.600
56464W        W28790  40.652   2.962  12.809
56465W        W28791  34.874  38.084   3.194
56466W        W28792  14.733   5.247  10.687
56467W        W28793  38.908  15.833   4.693
56468W        W28794  31.855  28.930   2.720
56469W        W28795  37.484  36.585  14.615
56470W        W28796   8.602  16.647   4.618
56471W        W28797  29.964  41.526   1.509
56472W        W28798  32.003  37.752  12.824
56473W        W28799  25.999  18.605  10.888
56474W        W28800   5.373  27.934   4.540
56475W        W28801  12.796   8.783   0.270
56476W        W28802  37.343  40.790   1.668
56477W        W28803  39.112  41.995  11.449
56478W        W28804  21.766  43.994  12.560
56479W        W28805  15.489  35.436   3.956
56480W        W28806  16.664  26.287   2.411
56481W        W28807  24.551  25.153  10.568
56482W        W28808  23.210  36.353  13.529
56483W        W28809   2.457  19.512  12.827
56484W        W28810   5.538   4.606   1.793
56485W        W28811  39.122  44.807   2.783
56486W        W28812  11.559  15.077  11.985
56487W        W28813  15.752  36.542   4.517
56488W        W28814  10.407  41.704   4.835
56489W        W28815  37.825  40.920  14.492
56490W        W28816  16.178  29.508   0.761
56491W        W28817  14.961  19.242   2.659
56492W        W28818  18.628  30.658   4.996
56493W        W28819  15.616  32.930  12.066
56494W        W28820  36.560  10.117  14.900
56495W        W28821  40.513  39.761   1.841
56496W        W28822  40.294   3.479   5.043
56497W        W28823  38.331  28.794   1.868
56498W        W28824  19.483  11.816  12.034
56499W        W28825  32.444  30.655  14.893
56500W        W28826  19.182   2.485   0.996
56501W        W28827   8.180   5.913  13.518
56502W        W28828   7.355  17.652   0.297
56503W        W28829   7.291  34.880  14.480
56504W        W28830  28.984  32.590   1.857
56505W        W28831  43.528  30.601   4.396
56506W        W28832   1.201  31.327   1.721
56507W        W28833  22.738  44.338   5.046
56508W        W28834  19.165  11.606  13.374
56509W        W28835  17.103  42.369   3.303
56510W        W28836  34.579  32.664   4.183
56511W        W28837  28.091  42.033   1.038
56512W        W28838  21.563  28.457  14.684
56513W        W28839  19.181  19.706   0.440
56514W        W28840  23.595  36.564   2.192
56515W        W28841  14.253  36.201  10.223
56516W        W28842  40.348   7.156  14.248
56517W        W28843  10.385  23.549  13.391
56518W        W28844  34.809  42.807  10.726
56519W        W28845   8.105  25.171  13.387
56520W        W28846  27.166  21.458  13.308
56521W        W28847  11.759  16.800  13.078
56522W        W28848   3.834   5.785   0.733
56523W        W28849  34.091  40.430   0.034
56524W        W28850  43.287  13.817   2.895
56525W        W28851  11.892  29.711   2.110
56526W        W28852  41.801  21.900   4.145
56527W        W28853  29.231  23.473   1.863
56528W        W28854  21.280   1.265  12.605
56529W        W28855   3.973  15.374   3.402
56530W        W28856   6.583  12.031  14.421
56531W        W28857  20.362  10.329  12.089
56532W        W28858  10.845  25.548  11.637
56533W        W28859  29.547  20.220   4.948
56534W        W28860   5.904   2.709   2.313
56535W        W28861  43.696  35.068  11.604
56536W        W28862  13.836  31.160   4.684
56537W        W28863  25.388   6.601  14.372
56538W        W28864  28.019   9.324   9.982
56539W        W28865  17.253  27.203  14.821
56540W        W28866  11.567  33.589  12.994
56541W        W28867  42.358  23.935  14.291
56542W        W28868  38.535  10.954   0.549
56543W        W28869  39.763   9.852  12.480
56544W        W28870  20.766  16.051  13.764
56545W        W28871  24.250  15.677   3.160
56546W        W28872  15.251   9.412  14.009
56547W        W28873  25.018  35.227  11.967
56548W        W28874  10.948  12.245  14.352
56549W        W28875  29.064  35.924   4.619
56550W        W28876  43.273   5.022   2.705
56551W        W28877  18.044  17.265   2.301
56552W        W28878   8.716  39.132  12.208
56553W        W28879  11.578   3.390   2.809
56554W        W28880   8.852  22.445   1.852
56555W        W28881  41.353   2.750   3.119
56556W        W28882  17.678  40.895  14.836
56557W        W28883  24.672   5.030  12.827
56558W        W28884  33.952  22.162  11.162
56559W        W28885  13.321   3.453   1.748
56560W        W28886   8.367  42.793   3.388
56561W        W28887  20.474  25.029   0.829
56562W        W28888  26.452  30.816   4.676
56563W        W28889  25.666  25.262  12.486
56564W        W28890   3.374   9.849   0.904
56565W        W28891  17.770   7.501   4.133
56566W        W28892  31.131  44.836   0.731
56567W        W28893  12.334  41.874   3.112
56568W        W28894   5.221  42.746  11.983
56569W        W28895  28.022  31.079   1.315
56570W        W28896  12.028  40.887  12.528
56571W        W28897  22.480  11.079  11.919
56572W        W28898  27.890  33.042   3.137
56573W        W28899   6.386   8.912   1.765
56574W        W28900   5.670  42.248   2.739
56575W        W28901  14.316   3.275   1.593
56576W        W28902  17.867  35.529   2.748
56577W        W28903  20.282  40.029   3.231
56578W        W28904  32.641   2.929   0.532
56579W        W28905   4.188  20.669  14.465
56580W        W28906   7.278  24.610   4.471
56581W        W28907  24.213  41.435   5.148
56582W        W28908  40.621   6.361  11.494
56583W        W28909  20.618  42.045  12.858
56584W        W28910  16.297  33.328  14.572
56585W        W28911  27.738   7.645   0.838
56586W        W28912  18.622  36.910   3.631
56587W        W28913  30.755   2.129   4.117
56588W        W28914  33.913  17.266   3.980
56589W        W28915  26.909   3.970  12.525
56590W        W28916  33.523  35.401  12.447
56591W        W28917  39.235  11.334  10.949
56592W        W28918   5.358  26.919  14.456
56593W        W28919  38.934  27.588  11.898
56594W        W28920  28.952  20.238  14.425
56595W        W28921  25.164   1.925  14.468
56596W        W28922  20.113  40.951   0.476
56597W        W28923  38.303  28.389  13.829
56598W        W28924  43.313  25.538   3.703
56599W        W28925  11.171  44.997   1.216
56600W        W28926  35.846   8.154  10.833
56601W        W28927   9.071  21.000  13.058
56602W        W28928  27.973  20.202  13.349
56603W        W28929  38.642  43.802  14.464
56604W        W28930   0.124  38.334  13.069
56605W        W28931  25.851   9.693  12.624
56606W        W28932   6.483  41.406   2.077
56607W        W28933  25.985  14.523  10.623
56608W        W28934  17.647  19.542   1.479
56609W        W28935  16.176  31.003   2.602
56610W        W28936  37.139  35.931   2.371
56611W        W28937  22.282  29.569   1.393
56612W        W28938  17.686  37.311  10.362
56613W        W28939  23.018  22.861  11.540
56614W        W28940  40.362   3.684  11.973
56615W        W28941  10.114  33.589  13.679
56616W        W28942  26.117   3.427   4.221
56617W        W28943  41.162  44.062  13.793
56618W        W28944  19.539   7.719  11.521
56619W        W28945  23.809  27.764   3.310
56620W        W28946   3.652  15.854   4.574
56621W        W28947  34.729  16.751  11.033
56622W        W28948  39.739  34.362   3.108
56623W        W28949  10.125  28.575  11.931
56624W        W28950  40.382  27.172  11.189
56625W        W28951  33.620  29.140  12.450
56626W        W28952   4.114  20.063   4.923
56627W        W28953   9.649  39.691   0.409
56628W        W28954   4.192  12.323  10.601
56629W        W28955   1.335  29.095  11.484
56630W        W28956  44.336  33.484   4.044
56631W        W28957  41.462  36.427   0.710
56632W        W28958  13.975   0.103  13.520
56633W        W28959  17.235  18.557   4.889
56634W        W28960  32.794   5.185  14.465
56635W        W28961  43.704   6.839   2.120
56636W        W28962  38.955   2.737   1.780
56637W        W28963  13.227  43.798   0.806
56638W        W28964   4.397   1.989  12.468
56639W        W28965   7.187  37.238  13.984
56640W        W28966  41.216  35.270  11.778
56641W        W28967   5.440  12.179  11.211
56642W        W28968   8.787   8.814  13.864
56643W        W28969  31.547  41.415  10.888
56644W        W28970   2.318   4.219  10.642
56645W        W28971   4.406  40.441  10.686
56646W        W28972  36.994  39.736   3.828
56647W        W28973  14.389  36.046  12.952
56648W        W28974  43.107  41.891   0.352
56649W        W28975  33.866   4.358  14.607
56650W        W28976  37.514  21.521   4.175
56651W        W28977  15.777   0.362   0.228
56652W        W28978   5.210  24.182  14.412
56653W        W28979  17.359   9.313   0.848
56654W        W28980  33.005  35.393  13.283
56655W        W28981   5.977  42.012   4.042
56656W        W28982  43.897  38.248   0.006
56657W        W28983   3.310  27.104  14.308
56658W        W28984   6.349  28.843   1.927
56659W        W28985  35.490  24.970  13.779
56660W        W28986  44.819  10.652   0.753
56661W        W28987   6.483  25.553  12.871
56662W        W28988  23.495  18.845  13.844
56663W        W28989  36.929  25.121  13.067
56664W        W28990  43.208  38.431   0.575
56665W        W28991   9.730  23.657  11.985
56666W        W28992  40.089  15.051   4.166
56667W        W28993   6.610  21.557   3.584
56668W        W28994   3.510  27.119   2.298
56669W        W28995   7.261   8.431  10.719
56670W        W28996  36.077  28.542   3.239
56671W        W28997  42.415  26.986  14.244
56672W        W28998  43.845  11.943   1.865
56673W        W28999  30.862  27.415   4.708
56674W        W29000  43.418  40.180  14.153
56675W        W29001  17.884  17.272  10.578
56676W        W29002   3.624   7.216  12.081
56677W        W29003  17.062  24.390   0.855
56678W        W29004  24.145  15.143   2.470
56679W        W29005  37.990  22.968   0.020
56680W        W29006  19.368  19.412  13.579
56681W        W29007  12.314   9.592   1.302
56682W        W29008  41.494  21.484  12.643
56683W        W29009  32.536  44.319   3.701
56684W        W29010  38.054  44.229  10.094
56685W        W29011  10.714  24.485   0.428
56686W        W29012  43.484  10.230  14.876
56687W        W29013  42.806  22.074  12.879
56688W        W29014  25.232  16.298   0.435
56689W        W29015  44.916  29.478   3.162
56690W        W29016  27.233  25.938  10.149
56691W        W29017   2.367  25.580  13.029
56692W        W29018  43.273  13.838   1.050
56693W        W29019  34.398  30.836   3.129
56694W        W29020  32.182   6.160   0.443
56695W        W29021   7.191   1.717   2.405
56696W        W29022  16.700  30.153  10.956
56697W        W29023  31.877  42.848   1.905
56698W        W29024   8.159   8.215   1.017
56699W        W29025  36.383  13.019  13.974
56700W        W29026  23.945   1.191  11.621
56701W        W29027   5.452  23.237   2.816
56702W        W29028  13.069  21.455  13.245
56703W        W29029  15.114  21.318   0.298
56704W        W29030  41.483  43.642   3.619
56705W        W29031  29.448  16.493   2.694
56706W        W29032  11.798  37.198  13.319
56707W        W29033  24.555  24.919   1.431
56708W        W29034  29.746  29.107  12.578
56709W        W29035  44.859  14.064  11.814
56710W        W29036  22.600  13.111   3.997
56711W        W29037  24.208  34.077  11.003
56712W        W29038   6.500   3.323   1.322
56713W        W29039  25.142  16.757   4.954
56714W        W29040  33.806   8.168  10.843
56715W        W29041   4.731   6.650   2.347
56716W        W29042  15.084   5.740   2.783
56717W        W29043  32.859   7.870   0.808
56718W        W29044  12.093  43.027  14.825
56719W        W29045  42.007   9.461  10.565
56720W        W29046  30.027  13.090   2.240
56721W        W29047  36.275  23.644   0.331
56722W        W29048   6.465  19.703   3.313
56723W        W29049   6.109  18.342  11.568
56724W        W29050  18.211  36.551   3.778
56725W        W29051   9.486  28.607   1.790
56726W        W29052  33.978  27.430  13.348
56727W        W29053  14.085  20.572  11.175
56728W        W29054  38.984  25.099   1.295
56729W        W29055  28.517  29.403   5.121
56730W        W29056  35.972  11.905   3.183
56731W        W29057  21.843  35.490  14.975
56732W        W29058  26.300  42.464   1.771
56733W        W29059  40.392  10.435   2.845
56734W        W29060  39.902   9.763  11.187
56735W        W29061  30.625  10.291   1.957
56736W        W29062  41.958  40.393  12.633
56737W        W29063  16.880  24.697  11.153
56738W        W29064  43.592   5.097  12.567
56739W        W29065  38.451  41.462  11.438
56740W        W29066  44.712  33.589   0.394
56741W        W29067   2.267   7.792  13.065
56742W        W29068  35.076  17.707  14.533
56743W        W29069   5.359   0.412  12.123
56744W        W29070  35.111  24.499   1.503
56745W        W29071  16.468  38.332   3.782
56746W        W29072  32.673  28.936   0.260
56747W        W29073  37.376   9.099   2.787
56748W        W29074  24.686   3.726  10.849
56749W        W29075   4.288  13.044  11.057
56750W        W29076  44.118  10.749  12.089
56751W        W29077  26.382  22.601   0.359
56752W        W29078  11.833  21.103  12.629
56753W        W29079  11.723  23.792   1.941
56754W        W29080  37.542  23.119  12.547
56755W        W29081   5.773  41.753   3.631
56756W        W29082  16.565  27.855   1.495
56757W        W29083  35.429  20.995  12.678
56758W        W29084  39.605  23.969   4.078
56759W        W29085  32.525  15.855  12.040
56760W        W29086  14.906   4.385   2.805
56761W        W29087  18.221  42.372  10.688
56762W        W29088  40.530   9.932   2.820
56763W        W29089  17.295  14.151  13.429
56764W        W29090   3.333  21.222  14.057
56765W        W29091  33.609  15.168   1.279
56766W        W29092  30.091  26.198   2.514
56767W        W29093  12.654  37.302  10.569
56768W        W29094  43.311  30.430  11.107
56769W        W29095  18.740   3.485  10.542
56770W        W29096  11.101  37.640  12.916
56771W        W29097  31.520   2.526   2.297
56772W        W29098  37.829   7.904  12.107
56773W        W29099   0.950   0.304   0.924
56774W        W29100  36.291  35.503   0.672
56775W        W29101  36.334  10.256   3.116
56776W        W29102  41.416  12.878  13.911
56777W        W29103   3.037  37.928   3.186
56778W        W29104  37.788  16.690   0.050
56779W        W29105   8.550   2.861   3.837
56780W        W29106  36.009   2.800  11.562
56781W        W29107  25.454  16.561  10.924
56782W        W29108  27.446  19.231   1.842
56783W        W29109  17.284   7.123   0.727
56784W        W29110  25.978   2.612  14.188
56785W        W29111  14.227   5.146   3.767
56786W        W29112  17.257  35.080  13.576
56787W        W29113  44.576  38.300  10.585
56788W        W29114  25.134  44.827   4.534
56789W        W29115   0.810  15.129  12.174
56790W        W29116  29.537  43.576  14.543
56791W        W29117  29.966  20.806  12.465
56792W        W29118  24.741   9.766   4.150
56793W        W29119  39.370  41.257  13.696
56794W        W29120  10.593  39.028  13.899
56795W        W29121  23.982   7.806   1.820
56796W        W29122  19.151  13.855  12.802
56797W        W29123  20.318  36.529   3.852
56798W        W29124  14.843  39.467  11.025
56799W        W29125   6.737  22.884   4.201
56800W        W29126  16.217  24.228  11.693
56801W        W29127  25.448  22.092  13.041
56802W        W29128  18.138  10.783   3.666
56803W        W29129  32.521   9.330   4.409
56804W        W29130  13.692   2.020   2.346
56805W        W29131   4.719  35.003   3.633
56806W        W29132  40.589  42.798  13.894
56807W        W29133  21.792  29.475  12.552
56808W        W29134  26.502  37.844   1.783
56809W        W29135  33.913  13.889   1.952
56810W        W29136  25.605   1.884   4.006
56811W        W29137  43.983  28.931   4.740
56812W        W29138  18.001  33.540   4.634
56813W        W29139  16.576   5.728  12.489
56814W        W29140  40.038  23.899  14.351
56815W        W29141  29.044  13.806   2.254
56816W        W29142  20.990  16.586   1.941
56817W        W29143   2.758  31.286  11.019
56818W        W29144  22.616  27.231  10.990
56819W        W29145   7.389   3.643  12.020
56820W        W29146   9.738   1.396   2.734
56821W        W29147  29.867  21.340   4.177
56822W        W29148  14.730   3.283   3.589
56823W        W29149  44.030  39.051   3.740
56824W        W29150  31.795  16.482   0.379
56825W        W29151  40.849  24.152  12.503
56826W        W29152  39.937  14.362  10.967
56827W        W29153  10.205  37.513  14.875
56828W        W29154   6.944   1.212  11.873
56829W        W29155   9.535   1.526   3.182
56830W        W29156  43.019  44.787   2.738
56831W        W29157  11.262   4.920  13.821
56832W        W29158  23.731   0.878  14.437
56833W        W29159  38.293   3.981  12.709
56834W        W29160  41.058  18.636  10.772
56835W        W29161  37.492  38.401  14.044
56836W        W29162   6.337  33.638  12.318
56837W        W29163  13.038  36.030  13.393
56838W        W29164   3.792  38.535  11.340
56839W        W29165   2.210   1.033  11.966
56840W        W29166  20.105   1.994  10.647
56841W        W29167   3.402  14.988  11.644
56842W        W29168  32.310  24.621  13.872
56843W        W29169  27.227  37.502  14.219
56844W        W29170  25.684  29.238  12.055
56845W        W29171  42.970  43.789   2.866
56846W        W29172  43.445  26.041  10.543
56847W        W29173  40.906  44.221  12.010
56848W        W29174  14.615  27.128  13.804
56849W        W29175  19.678   2.700  14.024
56850W        W29176  16.492  27.979   2.682
56851W        W29177  32.894  11.839  13.065
56852W        W29178   7.015   6.925   4.127
56853W        W29179  13.924  30.572  13.070
56854W        W29180  43.310  36.087   3.896
56855W        W29181  37.612  42.007   1.286
56856W        W29182  21.581  20.344   1.872
56857W        W29183  28.610  38.847  11.838
56858W        W29184   3.446  12.745  13.799
56859W        W29185  40.970  37.579   2.429
56860W        W29186  17.006  21.555   3.010
56861W        W29187  16.725  32.735   3.195
56862W        W29188  34.067  39.435  13.122
56863W        W29189   0.946   8.169   0.779
56864W        W29190  36.339  32.619   1.482
56865W        W29191   7.172  44.504   0.218
56866W        W29192  28.674  43.252  11.336
56867W        W29193  31.997  38.758   0.410
56868W        W29194   4.986  44.238   3.776
56869W        W29195  18.743  43.335   3.065
56870W        W29196  14.169  41.002   0.867
56871W        W29197  44.373  38.961  14.661
56872W        W29198  13.763  41.026   1.911
56873W        W29199  22.397  34.290   1.317
56874W        W29200  40.840  24.126  13.149
56875W        W29201  10.582   1.733  13.069
56876W        W29202   3.013  20.605  11.082
56877W        W29203  28.879  40.446   2.835
56878W        W29204  20.242  37.407   2.445
56879W        W29205  41.744  27.006  10.629
56880W        W29206  44.865  20.231   4.563
56881W        W29207  29.183  19.066  12.938
56882W        W29208  26.894  25.640  10.434
56883W        W29209  16.894  22.888   0.857
56884W        W29210  12.680  42.164   2.820
56885W        W29211  43.914  38.248  14.491
56886W        W29212   0.944  40.233   0.895
56887W        W29213  38.992  40.811  14.826
56888W        W29214  11.814  22.512  10.775
56889W        W29215  31.333  37.509   4.687
56890W        W29216  21.228   4.581   0.876
56891W        W29217  25.557   1.972  10.713
56892W        W29218  27.353  29.510  14.659
56893W        W29219  19.816  20.005  12.097
56894W        W29220   4.708  34.981  11.495
56895W        W29221  18.963  12.189   4.339
56896W        W29222   5.670  11.929   4.125
56897W        W29223  31.067  36.568  11.286
56898W        W29224  12.378   4.479   3.400
56899W        W29225  27.425   2.749   0.099
56900W        W29226   3.136  38.468   2.006
56901W        W29227  21.533  21.992   1.366
56902W        W29228  41.208  24.058  11.131
56903W        W29229  37.505  29.593  13.477
56904W        W29230  15.316   4.567  10.519
56905W        W29231  28.671  19.142  13.082
56906W        W29232  25.599  39.843  10.636
56907W        W29233   6.942  30.603  12.978
56908W        W29234  27.113  10.967   2.818
56909W        W29235  28.399  22.530   0.698
56910W        W29236  13.491   7.398   0.814
56911W        W29237  13.043  13.579   1.744
56912W        W29238  38.519   7.298  13.377
56913W        W29239  36.392  44.105  12.940
56914W        W29240   1.315  21.399  13.466
56915W        W29241  39.756   9.243  10.850
56916W        W29242  20.534  36.902   1.499
56917W        W29243  27.070  12.602  14.925
56918W        W29244  27.765  42.185  13.767
56919W        W29245  35.762   9.387  13.919
56920W        W29246  20.548  42.497   4.334
56921W        W29247   7.446  25.705   0.376
56922W        W29248   3.706  14.816  14.409
56923W        W29249  27.265  44.365  11.380
56924W        W29250   4.219   3.424  10.501
56925W        W29251  32.449  38.547  14.808
56926W        W29252  13.680  31.385   0.036
56927W        W29253   0.089  36.987  14.250
56928W        W29254  32.463  28.978  10.648
56929W        W29255   9.780  37.004   1.821
56930W        W29256  28.118  22.546   3.200
56931W        W29257  11.252   7.510   1.083
56932W        W29258  40.810  12.823   2.840
56933W        W29259  28.332   0.956   0.433
56934W        W29260  40.864  12.048  10.549
56935W        W29261  30.224  35.477  11.108
56936W        W29262  17.396  27.138   2.198
56937W        W29263   7.669  38.476   0.517
56938W        W29264  29.914  22.476  14.835
56939W        W29265  18.478  41.905   1.156
56940W        W29266   5.224  31.672   3.733
56941W        W29267  15.410  20.316  14.446
56942W        W29268   9.099  38.908  12.459
56943W        W29269  39.408  30.345  12.267
56944W        W29270   0.928  11.130  12.842
56945W        W29271  25.531   6.396  12.466
56946W        W29272  25.659  15.289  14.723
56947W        W29273   2.531  12.733   0.908
56948W        W29274   6.503  30.035   4.208
56949W        W29275   3.004  34.356  14.596
56950W        W29276  23.932  44.742   1.774
56951W        W29277   6.733   4.109  14.187
56952W        W29278  42.438  12.202  11.493
56953W        W29279   5.633  29.144   4.287
56954W        W29280   4.929  15.226  11.020
56955W        W29281   9.538  34.241  12.619
56956W        W29282  17.550  25.024   9.631
56957W        W29283  18.035  44.094  11.348
56958W        W29284   9.203  37.577  12.011
56959W        W29285  17.793  34.527   2.633
56960W        W29286  23.508   7.766   0.910
56961W        W29287  30.165  12.292   4.204
56962W        W29288  33.570  27.926  11.996
56963W        W29289  24.107  12.638   3.820
56964W        W29290  16.027  10.209   0.314
56965W        W29291  21.204   4.489  14.227
56966W        W29292   7.775   2.048  12.998
56967W        W29293  30.757   4.497   2.385
56968W        W29294  31.436  19.077  12.615
56969W        W29295  21.032  12.082   2.290
56970W        W29296  19.073  16.602   2.824
56971W        W29297  32.431  35.421   1.622
56972W        W29298   9.158  13.240  11.145
56973W        W29299  23.148  39.618  13.162
56974W        W29300   1.819  42.462   2.409
56975W        W29301  15.730  32.121  11.348
56976W        W29302  15.252  21.213   5.039
56977W        W29303  16.723   3.915  14.820
56978W        W29304  36.153   2.350  12.376
56979W        W29305  25.214   2.085   3.735
56980W        W29306   2.848  17.193  13.020
56981W        W29307  15.623   4.210  12.551
56982W        W29308  38.724   8.395   1.867
56983W        W29309  31.687  12.890   4.700
56984W        W29310  14.787  20.222  13.110
56985W        W29311   9.492  22.148   2.767
56986W        W29312  32.281   9.127  14.780
56987W        W29313  26.636  37.359  10.114
56988W        W29314  43.717  33.386   0.542
56989W        W29315   6.858   1.273   0.031
56990W        W29316   3.422  34.139  14.975
56991W        W29317  35.389  19.779   4.248
56992W        W29318  38.921  44.234  13.426
56993W        W29319  33.592  32.584   2.827
56994W        W29320  20.428  41.908  13.828
56995W        W29321   2.816  16.495  12.114
56996W        W29322   7.283  44.360   3.771
56997W        W29323   2.923  27.520  10.703
56998W        W29324  16.461   0.847   0.067
56999W        W29325  15.985  35.666  13.447
57000W        W29326  33.183  15.669  11.599
57001W        W29327  15.059  39.967  11.065
57002W        W29328  42.717  10.383  11.023
57003W        W29329  23.103  13.843  10.592
57004W        W29330  44.001  26.730   1.296
57005W        W29331   9.740  20.726  12.550
57006W        W29332  22.216   0.441   3.737
57007W        W29333  38.021  17.817   1.743
57008W        W29334  11.077  44.907   3.387
57009W        W29335  40.390  19.341  13.414
57010W        W29336  24.110   4.489   4.990
57011W        W29337  14.845   3.873  12.944
57012W        W29338  35.449  38.246  11.648
57013W        W29339   4.879  17.807   2.234
57014W        W29340   0.814   2.121   1.184
57015W        W29341   2.927  24.662  11.557
57016W        W29342  34.865  36.850   2.789
57017W        W29343  23.248  23.070  11.972
57018W        W29344  26.326   0.739   1.705
57019W        W29345  26.801  13.054   1.763
57020W        W29346  37.083  26.750   0.973
57021W        W29347  24.670  32.850   2.254
57022W        W29348  40.463  11.781  11.260
57023W        W29349  20.414  29.707   4.189
57024W        W29350   5.338  33.142   4.803
57025W        W29351  39.545  40.940  14.056
57026W        W29352  15.024   8.418   0.807
57027W        W29353  41.572  20.530   0.474
57028W        W29354  23.037  29.603   4.390
57029W        W29355  21.797  28.996   0.929
57030W        W29356  33.259  21.990  12.454
57031W        W29357  38.810  28.326   4.556
57032W        W29358  14.648   1.127  14.807
57033W        W29359  14.921  17.049   1.003
57034W        W29360   1.036  39.418  11.310
57035W        W29361  12.851  22.036  14.020
57036W        W29362  10.204   5.111  14.814
57037W        W29363   1.217  14.724   0.312
57038W        W29364  33.359  34.960   4.608
57039W        W29365  37.360  22.090   3.122
57040W        W29366  20.084  36.548   0.500
57041W        W29367   4.506   5.293   4.952
57042W        W29368  39.787  25.728   2.822
57043W        W29369  36.400  17.125  12.403
57044W        W29370   8.159  19.498   2.525
57045W        W29371  13.266  32.329  11.506
57046W        W29372   9.739  19.678   0.295
57047W        W29373  18.767  36.024   2.124
57048W        W29374  41.316  41.069  11.017
57049W        W29375  31.563   0.255   3.704
57050W        W29376  42.731   0.579   1.718
57051W        W29377   3.338  27.588  13.317
57052W        W29378   2.534  43.244  13.605
57053W        W29379  34.833  36.100   9.664
57054W        W29380   1.924   7.186  12.578
57055W        W29381  25.135  31.955  11.502
57056W        W29382   4.195   5.307   1.300
57057W        W29383  14.682  18.552   1.867
57058W        W29384  14.198  44.210  13.462
57059W        W29385  38.878  35.335  12.784
57060W        W29386  14.256  24.500  11.947
57061W        W29387  31.696   7.448   1.775
57062W        W29388   9.206  31.133   4.042
57063W        W29389  43.777  10.207  11.613
57064W        W29390   4.656  12.247  11.672
57065W        W29391  43.333   2.211   2.750
57066W        W29392  27.482  34.461   0.263
57067W        W29393  33.848   3.653  13.733
57068W        W29394  23.632  11.866   1.876
57069W        W29395   3.475  16.677  12.569
57070W        W29396   4.395  33.306  14.891
57071W        W29397  28.392  18.828  10.643
57072W        W29398  33.703  28.588  14.598
57073W        W29399  40.309   2.723   3.719
57074W        W29400   8.934  24.765   4.641
57075W        W29401  11.107  38.037  12.107
57076W        W29402  42.991  27.805  13.183
57077W        W29403   6.861  20.191   1.687
57078W        W29404  42.841   3.207   0.831
57079W        W29405  40.367  42.217   1.986
57080W        W29406   6.886   3.062  11.460
57081W        W29407  29.187  26.492   0.881
57082W        W29408   2.445  44.033  12.340
57083W        W29409  41.860  27.976  12.482
57084W        W29410  35.364  30.525   1.030
57085W        W29411  35.489  26.119  13.034
57086W        W29412  19.658   5.141  13.577
57087W        W29413  17.809   2.964   0.771
57088W        W29414  41.098  20.709  11.947
57089W        W29415  37.468  23.667  11.361
57090W        W29416  38.436  43.465  11.953
57091W        W29417   8.734  23.760   0.202
57092W        W29418  30.159  35.449   1.573
57093W        W29419  44.333  31.000  13.345
57094W        W29420   8.701  31.583  13.312
57095W        W29421   8.858  34.418   3.657
57096W        W29422  23.228  14.348  13.610
57097W        W29423  37.810  32.923   3.360
57098W        W29424   8.837  32.250  10.770
57099W        W29425  34.477  26.076   1.926
57100W        W29426  43.019   4.650  14.330
57101W        W29427  19.242  38.438   1.201
57102W        W29428   3.969  16.731  12.427
57103W        W29429  19.663  39.840   2.331
57104W        W29430  16.199   0.323  14.868
57105W        W29431  10.305  29.234  11.967
57106W        W29432  23.675  37.976  12.365
57107W        W29433   8.715  16.539  12.905
57108W        W29434  11.085  40.253  12.084
57109W        W29435  19.114  20.898  13.702
57110W        W29436  15.761  27.767  11.747
57111W        W29437   9.275  41.816  12.131
57112W        W29438  33.724  23.297   0.914
57113W        W29439   8.123  22.979   2.170
57114W        W29440   7.211  28.581   4.586
57115W        W29441  17.491  13.204   3.809
57116W        W29442  13.261  30.405   5.135
57117W        W29443  35.208  11.081  13.242
57118W        W29444  41.723  25.073   3.274
57119W        W29445  30.430  38.600   0.977
57120W        W29446   3.863  33.900  14.244
57121W        W29447  29.575  21.662  11.492
57122W        W29448   5.231   1.075   1.264
57123W        W29449   7.756  42.476  10.563
57124W        W29450  27.022  23.373   3.238
57125W        W29451  38.022  13.213   1.801
57126W        W29452  29.894  21.237  14.460
57127W        W29453  40.567  38.023  14.377
57128W        W29454  19.552  35.000   2.636
57129W        W29455   3.447  22.035  11.488
57130W        W29456  39.368  43.681  14.937
57131W        W29457   3.480   0.384  10.352
57132W        W29458   5.762  40.556   0.664
57133W        W29459   0.574  16.543  14.443
57134W        W29460   0.865   3.945   0.164
57135W        W29461  20.197  38.578  13.467
57136W        W29462  25.999  32.332   0.229
57137W        W29463  31.959  30.697  12.403
57138W        W29464  28.454  41.897  11.618
57139W        W29465   1.422  37.609   2.888
57140W        W29466  39.493  27.520   4.862
57141W        W29467   8.799   1.254  10.896
57142W        W29468  11.349  26.924  11.133
57143W        W29469  18.291  11.887  14.937
57144W        W29470  21.113  10.125   3.225
57145W        W29471  12.583  41.253   1.395
57146W        W29472   3.841  28.088  11.486
57147W        W29473  30.606  11.407   3.110
57148W        W29474  44.256   2.479  12.963
57149W        W29475  35.500  12.515  13.382
57150W        W29476   9.533  17.640  11.447
57151W        W29477  12.124  18.048   3.709
57152W        W29478  35.503  10.377   0.860
57153W        W29479  20.379   7.614   0.564
57154W        W29480  17.746  34.076   3.643
57155W        W29481  26.109  28.057   9.968
57156W        W29482  18.864  11.724   3.309
57157W        W29483  14.814  41.437  11.902
57158W        W29484  42.502  17.094  14.957
57159W        W29485  28.511  29.380   3.215
57160W        W29486   7.869  27.077  12.339
57161W        W29487  21.372  35.261   0.765
57162W        W29488  12.129  43.496   1.018
57163W        W29489   2.846  28.038   3.609
57164W        W29490  39.941  44.981  13.202
57165W        W29491  24.465  42.787  13.801
57166W        W29492  20.558   7.453   4.178
57167W        W29493  20.004   5.968  14.333
57168W        W29494  33.544  22.548  10.346
57169W        W29495   9.638  23.673  12.969
57170W        W29496   6.734   0.931   1.377
57171W        W29497  16.083  31.437  12.904
57172W        W29498  39.939  27.126   0.381
57173W        W29499  26.753  25.730   1.798
57174W        W29500  38.316  29.332  12.034
57175W        W29501  27.401  28.517   4.191
57176W        W29502  27.657   9.178  14.325
57177W        W29503  15.233  11.534   3.221
57178W        W29504   8.859  39.982   2.398
57179W        W29505  37.239   2.169   4.264
57180W        W29506  43.067  25.668   3.104
57181W        W29507  36.129  13.227   3.729
57182W        W29508  25.276   7.030  12.031
57183W        W29509   0.564  29.588  10.519
57184W        W29510  26.465  40.744   5.035
57185W        W29511  24.229  34.537   2.261
57186W        W29512  29.467  36.090  12.613
57187W        W29513   9.112  38.306  14.722
57188W        W29514  16.179   9.091   2.222
57189W        W29515   1.235  43.979  12.141
57190W        W29516   5.147  37.370   2.717
57191W        W29517  18.689   0.571  13.329
57192W        W29518   1.889   8.921  13.020
57193W        W29519   5.207  19.520   3.137
57194W        W29520  26.155   5.759   0.850
57195W        W29521  24.655  30.051   3.715
57196W        W29522  13.738  26.043  10.041
57197W        W29523  39.614  14.076  12.237
57198W        W29524   6.087  20.520  11.804
57199W        W29525   9.022  34.425  10.770
57200W        W29526  40.296  41.563  12.878
57201W        W29527  22.425  15.194  13.011
57202W        W29528  32.645  22.522   1.281
57203W        W29529   7.763   0.887   1.402
57204W        W29530  13.085  21.715  14.895
57205W        W29531  15.770  29.504  11.939
57206W        W29532   8.311  11.885   4.206
57207W        W29533  27.530  23.485   3.241
57208W        W29534   7.479  17.778   2.263
57209W        W29535  38.193  28.267  13.313
57210W        W29536  30.731  39.923   0.684
57211W        W29537  11.108  13.642  12.061
57212W        W29538  44.640  16.873   3.153
57213W        W29539  12.731  25.005  10.182
57214W        W29540  44.864  17.329  11.991
57215W        W29541  19.196  34.316  14.408
57216W        W29542  36.933  24.828   2.912
57217W        W29543   1.986   4.390  11.907
57218W        W29544  20.927  11.734   5.003
57219W        W29545  16.519  10.779   3.612
57220W        W29546  38.205  23.358   0.317
57221W        W29547  38.775  42.364  11.316
57222W        W29548   4.531  28.187  10.997
57223W        W29549   0.552  30.287  12.938
57224W        W29550  34.521  41.103   3.177
57225W        W29551  25.055  24.523  14.338
57226W        W29552  26.605  30.579  14.287
57227W        W29553  36.177   5.261  13.213
57228W        W29554  31.094  12.706   4.087
57229W        W29555   9.556  30.661  12.492
57230W        W29556   5.841  43.314  11.669
57231W        W29557  22.552  26.489  14.982
57232W        W29558  20.415  34.802   5.038
57233W        W29559   7.994  32.596   4.648
57234W        W29560  17.063  19.623   9.853
57235W        W29561  27.554  40.574  14.640
57236W        W29562   8.991  24.019  13.417
57237W        W29563  16.255  23.304  14.294
57238W        W29564  36.027  18.061   3.197
57239W        W29565  13.723  27.335  11.392
57240W        W29566  37.517  30.000   3.289
57241W        W29567  21.621  20.704  13.839
57242W        W29568  36.826  12.648   4.776
57243W        W29569  12.642  24.199  12.645
57244W        W29570  15.165  32.832   4.773
57245W        W29571  10.792  12.074  10.707
57246W        W29572  22.325  19.849  10.389
57247W        W29573   8.362   1.392  11.157
57248W        W29574  44.724   2.362   0.019
57249W        W29575  41.855   1.403   3.689
57250W        W29576  27.985   9.858   0.563
57251W        W29577   9.870  43.349  12.939
57252W        W29578  17.554  10.522   3.753
57253W        W29579   3.641  36.344   3.830
57254W        W29580  39.231  43.731  13.297
57255W        W29581   2.750   5.199   3.228
57256W        W29582  14.825   4.996  13.981
57257W        W29583  41.894  27.488   4.637
57258W        W29584  18.732  42.524   0.023
57259W        W29585  43.852  29.956  12.208
57260W        W29586  20.659  28.904  14.676
57261W        W29587  30.863  37.685   2.073
57262W        W29588   1.306  33.208   1.790
57263W        W29589  30.888  14.347  13.424
57264W        W29590  24.507  44.357   5.380
57265W        W29591  27.985  23.671  10.866
57266W        W29592  23.133  10.302   0.208
57267W        W29593   8.754  27.358   0.991
57268W        W29594   3.957  37.641  11.269
57269W        W29595  22.175  35.891   2.221
57270W        W29596   2.252  38.913   1.816
57271W        W29597  36.887   8.171   3.680
57272W        W29598  26.775  23.477   2.782
57273W        W29599  44.822   0.515   2.688
57274W        W29600  20.230  23.038  12.873
57275W        W29601  41.026  31.400   2.798
57276W        W29602  16.840  34.827  11.145
57277W        W29603  24.390  19.296  11.371
57278W        W29604  41.865  40.010  13.024
57279W        W29605  39.778  42.894  13.527
57280W        W29606  12.723  38.681  10.742
57281W        W29607  41.282  38.387   2.395
57282W        W29608   8.883   8.695  14.363
57283W        W29609  39.813  10.269   0.516
57284W        W29610  16.999  42.618  12.559
57285W        W29611  10.943  14.687   1.283
57286W        W29612  20.259  20.241  14.981
57287W        W29613   1.781   7.419   0.109
57288W        W29614  14.330  16.724  13.046
57289W        W29615  40.376  10.030  14.614
57290W        W29616  34.782   8.237   0.955
57291W        W29617  31.006  38.048  14.916
57292W        W29618  25.733  38.035  12.023
57293W        W29619  37.128  29.414   4.764
57294W        W29620  22.531  27.175  10.493
57295W        W29621  30.132   7.345  14.508
57296W        W29622  41.075  22.109   4.919
57297W        W29623  38.959  29.786   3.248
57298W        W29624  42.293   3.435  12.599
57299W        W29625  34.507  34.312   1.603
57300W        W29626   2.373   3.110  14.613
57301W        W29627  30.947  30.112   2.490
57302W        W29628   4.015   1.957   4.781
57303W        W29629  21.224   5.101   0.876
57304W        W29630   0.826  36.209  12.202
57305W        W29631   5.168  10.570  12.483
57306W        W29632   0.952  28.945  14.542
57307W        W29633  44.509   4.806   3.952
57308W        W29634  13.826  19.260  11.754
57309W        W29635  33.488  33.168  13.367
57310W        W29636  34.055  35.117   3.250
57311W        W29637  16.647   0.310  12.907
57312W        W29638  11.121  26.168   2.894
57313W        W29639  42.904  30.738   0.773
57314W        W29640   1.364   5.394   3.073
57315W        W29641  20.163   1.473  10.616
57316W        W29642   9.453  13.264  11.564
57317W        W29643  28.689  37.134  11.341
57318W        W29644  42.783  12.341   1.830
57319W        W29645  32.623   9.358   4.914
57320W        W29646  27.887  21.743   2.885
57321W        W29647  16.958  36.557   3.117
57322W        W29648  24.703   6.408   3.803
57323W        W29649  38.446  36.871  13.007
57324W        W29650  39.601  13.516   2.401
57325W        W29651  11.738  23.494  13.253
57326W        W29652   9.158   5.270  12.926
57327W        W29653   7.871  31.803   1.857
57328W        W29654  36.537  40.435   4.610
57329W        W29655   6.779  32.979   4.084
57330W        W29656  38.390  31.854   0.933
57331W        W29657  29.474  20.359   2.632
57332W        W29658  22.460  27.493  12.482
57333W        W29659  13.703  31.165   1.228
57334W        W29660  40.829  27.687   2.371
57335W        W29661  33.697  23.582   3.569
57336W        W29662  17.166  31.477   0.294
57337W        W29663  10.497  10.018   4.024
57338W        W29664  25.884  18.142  10.144
57339W        W29665   0.464  20.876   1.489
57340W        W29666  25.061  17.367  12.953
57341W        W29667  24.207   1.020  10.797
57342W        W29668  38.562  17.409  14.550
57343W        W29669   9.921   7.257  11.981
57344W        W29670  27.477  42.331   3.211
57345W        W29671  43.822   8.323   4.351
57346W        W29672  19.109  17.224  12.004
57347W        W29673  30.705  42.860  10.349
57348W        W29674  37.532  43.523   1.199
57349W        W29675  32.252  23.763  13.543
57350W        W29676  44.315  13.776   3.909
57351W        W29677  32.428  28.015  11.642
57352W        W29678  20.365  18.266   1.000
57353W        W29679  27.104   3.486  12.581
57354W        W29680  44.297  35.568  13.079
57355W        W29681  18.024   3.942   2.762
57356W        W29682   1.434   0.915  12.157
57357W        W29683   0.372   3.289   0.696
57358W        W29684  29.372  20.227   3.126
57359W        W29685   7.847  35.634  12.933
57360W        W29686  42.934  25.043   2.718
57361W        W29687   3.973  11.923  12.475
57362W        W29688  10.851  12.730  14.490
57363W        W29689  24.752  33.702   4.849
57364W        W29690   2.025  21.597   5.517
57365W        W29691   9.484   2.337  11.984
57366W        W29692   7.239  38.620  14.350
57367W        W29693  37.619  39.980  14.182
57368W        W29694  11.177  37.048   4.410
57369W        W29695  38.333  43.753   4.514
57370W        W29696  44.261  41.539   3.251
57371W        W29697   2.925  22.301   0.605
57372W        W29698  34.617   7.274  14.025
57373W        W29699   6.666   9.858   1.801
57374W        W29700  11.689   7.437   1.365
57375W        W29701  26.057  43.262   1.195
57376W        W29702  24.570  44.489   1.764
57377W        W29703  28.679  16.296  13.275
57378W        W29704   3.759  24.196   3.489
57379W        W29705  24.061  27.956  12.509
57380W        W29706   3.376   4.981   9.998
57381W        W29707  42.982  21.587   0.726
57382W        W29708  11.295  28.412   2.264
57383W        W29709  25.958  28.172   3.061
57384W        W29710  37.789  10.411   1.305
57385W        W29711  29.665   6.362  12.074
57386W        W29712   0.590  35.986  10.446
57387W        W29713  25.875  17.549  10.284
57388W        W29714  41.867  29.464  12.442
57389W        W29715   5.329  11.599   0.340
57390W        W29716  42.430  10.206  10.426
57391W        W29717  30.139  30.647  12.032
57392W        W29718  14.577  25.957  14.845
57393W        W29719  30.442   8.277   3.688
57394W        W29720   4.397  17.790   4.915
57395W        W29721  32.470  33.916  11.719
57396W        W29722  44.276  15.660   3.158
57397W        W29723  42.994  28.659   2.636
57398W        W29724  44.335   2.256  11.496
57399W        W29725  36.466  32.251   4.556
57400W        W29726   6.742  14.740   3.608
57401W        W29727  43.333  32.456  13.628
57402W        W29728  30.798  43.525  10.904
57403W        W29729  37.904   3.611  11.542
57404W        W29730  41.433  37.950   4.720
57405W        W29731  30.568   5.931  14.415
57406W        W29732   9.295  23.469   2.248
57407W        W29733  35.350  19.602   1.861
57408W        W29734  38.446   5.621   3.119
57409W        W29735  34.792  32.875   3.760
57410W        W29736  19.843  18.308   2.838
57411W        W29737  15.768  29.456   1.730
57412W        W29738   8.797   6.110  10.703
57413W        W29739   6.101   9.916   4.117
57414W        W29740  19.169  34.207  11.074
57415W        W29741  43.009  36.693   1.263
57416W        W29742  32.920   5.480  11.110
57417W        W29743   3.911  12.752  10.815
57418W        W29744  38.254   3.395   0.874
57419W        W29745  29.630  32.979   2.410
57420W        W29746  36.506  17.099   1.984
57421W        W29747  25.930  11.912   0.726
57422W        W29748  19.208  42.880  14.181
57423W        W29749  26.482  36.251  11.711
57424W        W29750   3.877  19.933   4.142
57425W        W29751  40.372  12.794  10.629
57426W        W29752  17.634  37.051  10.809
57427W        W29753  14.993  10.399  10.168
57428W        W29754   2.108  23.592   1.423
57429W        W29755  31.927  10.039  14.511
57430W        W29756   6.409  43.101   2.808
57431W        W29757  17.773  14.336  13.390
57432W        W29758  24.384  28.569   2.914
57433W        W29759  11.295  11.549   2.434
57434W        W29760  33.008   1.875   4.023
57435W        W29761  31.201  31.479  10.714
57436W        W29762  17.326  28.114  11.580
57437W        W29763  23.174  35.910   4.741
57438W        W29764   0.394  23.961  12.424
57439W        W29765  19.781  27.124  12.032
57440W        W29766  34.618  34.414  14.558
57441W        W29767   5.492  41.259   1.840
57442W        W29768  20.945  23.479  10.245
57443W        W29769  18.090   3.206   2.262
57444W        W29770  29.933   5.190  11.505
57445W        W29771  17.016  35.933   0.650
57446W        W29772  42.591  39.239  14.627
57447W        W29773  11.956  24.438   2.633
57448W        W29774  26.824   8.264   0.751
57449W        W29775  16.737   9.366  14.974
57450W        W29776   2.734  21.139  14.550
57451W        W29777  35.555  16.130  14.307
57452W        W29778  32.122  39.733   2.659
57453W        W29779  13.636  38.057  13.473
57454W        W29780  16.828   3.414  14.733
57455W        W29781  11.390  18.751   1.914
57456W        W29782   1.708  35.017  12.372
57457W        W29783  18.640  36.982   4.133
57458W        W29784   1.434  10.108   4.292
57459W        W29785  15.374   5.715   3.649
57460W        W29786  24.972  31.947  13.946
57461W        W29787  24.287   8.968  12.379
57462W        W29788  40.283  22.484  12.157
57463W        W29789   6.060  44.911   4.084
57464W        W29790  35.727  12.318   5.476
57465W        W29791   3.033  38.381   3.417
57466W        W29792  28.629   8.244  14.329
57467W        W29793   0.685   0.321   2.201
57468W        W29794  13.965  17.790  14.486
57469W        W29795   8.538   3.178  14.436
57470W        W29796  20.303   9.774  12.923
57471W        W29797  18.143  27.150   1.972
57472W        W29798   8.535  31.693  14.306
57473W        W29799  16.370  28.659  12.099
57474W        W29800   0.343  41.042   4.674
57475W        W29801  13.116  29.517  14.003
57476W        W29802  25.498  30.512   2.044
57477W        W29803  19.024   3.905   3.157
57478W        W29804  13.387  27.300   5.512
57479W        W29805  13.146   0.964  12.916
57480W        W29806  14.183  28.520   4.760
57481W        W29807  34.325  38.524  11.047
57482W        W29808  11.262   4.962   3.276
57483W        W29809  13.618  27.075   4.116
57484W        W29810  12.924  31.092   3.597
57485W        W29811  18.732   5.771  13.942
57486W        W29812  28.073  16.471  12.166
57487W        W29813   5.719  35.444  14.730
57488W        W29814  25.423   8.245   2.351
57489W        W29815  20.024  28.908   0.442
57490W        W29816  24.338  36.574   2.823
57491W        W29817   8.692  41.667  13.812
57492W        W29818  34.313  30.029  12.003
57493W        W29819  33.599  39.999   3.936
57494W        W29820  16.107  14.794   3.643
57495W        W29821  17.344  18.022  10.194
57496W        W29822   8.629  35.860  13.348
57497W        W29823   5.825  28.958   2.357
57498W        W29824  39.051  27.498   4.134
57499W        W29825  38.545  16.083   3.181
57500W        W29826  22.579  20.125   0.051
57501W        W29827  36.354  18.410  11.555
57502W        W29828   7.140   7.936  14.557
57503W        W29829   1.253   5.745   1.469
57504W        W29830  32.966  39.071   4.581
57505W        W29831  15.334  13.986   1.523
57506W        W29832  14.632  24.554  14.329
57507W        W29833  41.925  22.501   0.467
57508W        W29834  44.256  36.965   3.298
57509W        W29835  21.576  44.926   3.428
57510W        W29836   7.660  20.761   1.014
57511W        W29837  30.114  19.118   3.253
57512W        W29838   6.280  21.558   4.269
57513W        W29839  19.229  31.758   0.701
57514W        W29840   4.794  11.030   3.652
57515W        W29841  35.881   6.379  11.986
57516W        W29842  12.807  17.036   4.121
57517W        W29843  39.076  34.742  10.276
57518W        W29844  43.353  44.833   2.318
57519W        W29845  36.975  11.317  14.289
57520W        W29846  37.679  11.642  12.892
57521W        W29847  36.479  27.987  10.207
57522W        W29848  13.319  21.116   2.640
57523W        W29849  19.171  16.166  14.043
57524W        W29850  12.714  37.156  13.558
57525W        W29851  25.431  16.774   5.422
57526W        W29852  11.906  24.942   2.674
57527W        W29853  36.461  11.157  10.237
57528W        W29854  20.757  34.674   2.791
57529W        W29855  37.100   5.486   0.272
57530W        W29856  35.482  37.487  14.981
57531W        W29857  21.520  39.137   3.993
57532W        W29858  44.747   1.766   3.319
57533W        W29859  12.935  12.073   0.330
57534W        W29860  14.304  33.925  14.842
57535W        W29861  24.740   7.377  12.109
57536W        W29862  39.937  35.859  12.452
57537W        W29863  13.118  27.787  13.517
57538W        W29864  18.615   4.803   4.660
57539W        W29865  20.758  13.658   2.985
57540W        W29866  10.991  30.371   3.690
57541W        W29867   7.707  28.410  13.359
57542W        W29868  20.116  43.267   4.719
57543W        W29869  26.679   7.161  14.855
57544W        W29870  13.257  17.018   2.187
57545W        W29871   6.197  34.194  10.747
57546W        W29872  13.232  10.128   2.928
57547W        W29873  14.063  33.989  12.794
57548W        W29874  30.942  16.462  14.494
57549W        W29875  20.599  23.006   0.866
57550W        W29876  26.480   0.090   2.726
57551W        W29877  40.554  31.934  12.274
57552W        W29878  15.576  34.950   1.850
57553W        W29879  30.635  13.918  13.085
57554W        W29880  25.918  43.734  12.229
57555W        W29881   4.923  41.768  10.791
57556W        W29882   1.957  16.661  13.593
57557W        W29883  31.936  25.272  12.790
57558W        W29884  37.525  32.543  13.814
57559W        W29885   6.439   2.019  12.054
57560W        W29886  35.851  16.723   0.861
57561W        W29887   6.329  44.047   0.417
57562W        W29888  31.572   4.204  12.408
57563W        W29889  22.541  25.429  14.938
57564W        W29890  36.026   4.837  12.945
57565W        W29891  36.402  25.825   3.340
57566W        W29892  10.589  26.528  14.412
57567W        W29893   7.802  43.520  12.360
57568W        W29894  39.267  31.016   4.613
57569W        W29895  21.547  10.939   0.355
57570W        W29896  38.027  18.358   3.611
57571W        W29897  28.771   4.398   1.259
57572W        W29898  36.859  38.771   3.324
57573W        W29899  12.742   0.322   3.829
57574W        W29900   2.872   5.650   0.122
57575W        W29901  25.176  43.851   1.976
57576W        W29902  29.053  13.140   0.288
57577W        W29903  38.842  26.568   1.431
57578W        W29904  10.861  18.472  13.700
57579W        W29905  16.497  33.405   4.295
57580W        W29906  24.267   1.371   3.083
57581W        W29907  26.514  36.160   0.363
57582W        W29908  19.258  42.027   3.381
57583W        W29909  25.394  43.400   3.200
57584W        W29910   0.380  18.568   4.618
57585W        W29911  26.649  43.809   1.325
57586W        W29912  20.523  13.147   1.869
57587W        W29913  42.664  14.764  14.409
57588W        W29914  25.066  21.869  14.542
57589W        W29915  30.233  31.205   1.937
57590W        W29916   2.803   8.719   1.269
57591W        W29917   7.692  34.112   3.131
57592W        W29918  17.055  22.246   2.264
57593W        W29919   6.602  33.383  10.488
57594W        W29920  31.279  11.444  14.410
57595W        W29921  25.024  42.836   3.770
57596W        W29922   8.849  31.991   4.514
57597W        W29923  23.231  10.882   3.648
57598W        W29924  39.311  31.349  12.969
57599W        W29925  18.111  35.356   1.113
57600W        W29926  39.358  39.177  13.853
57601W        W29927  23.751   0.804  12.451
57602W        W29928  10.921  25.635   0.780
57603W        W29929  14.714  42.456  10.661
57604W        W29930  20.682  36.525   1.174
57605W        W29931  23.807  15.787   3.402
57606W        W29932  31.674  30.606  13.990
57607W        W29933  24.922  13.355  12.153
57608W        W29934   9.696  21.683   2.427
57609W        W29935  18.613  42.330   2.986
57610W        W29936  38.083  16.349  11.812
57611W        W29937  20.207  36.521  11.369
57612W        W29938  37.879  24.781   4.096
57613W        W29939   3.059  41.916   1.387
57614W        W29940  12.610  35.506   2.705
57615W        W29941  38.897  31.042   2.364
57616W        W29942   8.956   3.228   3.785
57617W        W29943  41.492  15.458   4.588
57618W        W29944   6.025  32.095   3.293
57619W        W29945   3.992   1.930  14.611
57620W        W29946   0.939  11.246  10.674
57621W        W29947  17.623  28.721   0.320
57622W        W29948  35.930  20.529   3.321
57623W        W29949   3.797  27.633  11.725
57624W        W29950  34.403  16.763   0.395
57625W        W29951  30.153  30.483  13.814
57626W        W29952  13.795   5.710  13.434
57627W        W29953   6.383  29.952   2.834
57628W        W29954  37.329  13.844   1.801
57629W        W29955  11.525  26.091  14.007
57630W        W29956  16.810  20.801   4.792
57631W        W29957  13.089   8.282  12.056
57632W        W29958  26.193  12.484   3.155
57633W        W29959  13.646  20.544   1.465
57634W        W29960  21.723   7.171   2.359
57635W        W29961  40.860  26.431  11.566
57636W        W29962  36.264   4.829  12.056
57637W        W29963  36.941  44.758   4.945
57638W        W29964  23.825  41.906   1.468
57639W        W29965   4.780  42.433  11.383
57640W        W29966  39.001  44.520  11.711
57641W        W29967  11.608  16.526  13.978
57642W        W29968  15.618  29.062   3.311
57643W        W29969  33.641  36.115   3.663
57644W        W29970   3.523  35.912  10.799
57645W        W29971  14.579  42.882   1.272
57646W        W29972  38.368  32.595  14.539
57647W        W29973   6.455  38.013  12.116
57648W        W29974  40.049  37.553   4.543
57649W        W29975  28.157   5.690  11.589
57650W        W29976  38.286  12.574   1.308
57651W        W29977   1.376  28.340   1.116
57652W        W29978   1.851  12.868   0.280
57653W        W29979  40.112   7.830  12.501
57654W        W29980  16.176  11.723  13.382
57655W        W29981  24.245  16.139   1.793
57656W        W29982   0.093  41.552  13.905
57657W        W29983  44.239   8.204  11.919
57658W        W29984  31.056  38.656   3.290
57659W        W29985  12.653  31.178   2.146
57660W        W29986  27.107  18.133   2.436
57661W        W29987  16.529  20.936   0.898
57662W        W29988  21.240  44.510  13.706
57663W        W29989   4.850  37.030   4.643
57664W        W29990  42.247  20.517  12.774
57665W        W29991  41.368  13.287  12.497
57666W        W29992  40.172   0.049  11.975
57667W        W29993  34.354  21.278  11.585
57668W        W29994  15.389  17.535   3.617
57669W        W29995  34.604  22.170   4.322
57670W        W29996  33.068  11.379   3.340
57671W        W29997  30.970  22.970  11.976
57672W        W29998  18.732   7.395  10.522
57673W        W29999  18.102  37.951   1.433
57674W        W30000   0.917   2.508   4.568
57675W        W30001  15.764  27.081   3.358
57676W        W30002  23.426   2.228   4.135
57677W        W30003  14.680  20.417   1.908
57678W        W30004   9.728  28.981  13.955
57679W        W30005   0.780  31.538  14.989
57680W        W30006  15.701   0.985   3.140
57681W        W30007  35.834  25.033   0.372
57682W        W30008  38.865  11.959   3.725
57683W        W30009   9.153  26.615  13.973
57684W        W30010  34.001  31.621   2.801
57685W        W30011   2.217  30.709   0.324
57686W        W30012  33.323  31.255  10.541
57687W        W30013  43.043  12.331  13.526
57688W        W30014  28.447  20.298   2.701
57689W        W30015  25.251  28.737   2.597
57690W        W30016  40.635  24.485   1.298
57691W        W30017  27.406  36.884   3.333
57692W        W30018   1.010   3.484  13.449
57693W        W30019  40.455  19.850  13.437
57694W        W30020   8.706  14.355  10.622
57695W        W30021  43.962  23.172   3.364
57696W        W30022  37.320  36.474   4.715
57697W        W30023   4.941  27.430   0.771
57698W        W30024   6.860  31.506  13.951
57699W        W30025  33.897  26.031   4.175
57700W        W30026   4.422  16.526   2.308
57701W        W30027  18.036  12.299   3.859
57702W        W30028   6.301  14.078  14.254
57703W        W30029   3.257  44.306   3.297
57704W        W30030  16.040  18.916  12.903
57705W        W30031  43.193  21.966   0.323
57706W        W30032   7.807  23.699  11.593
57707W        W30033  25.253  39.978  13.077
57708W        W30034  38.386  24.711  13.738
57709W        W30035  24.644  32.163  14.802
57710W        W30036  32.912   1.437  12.022
57711W        W30037  38.218  21.545  11.123
57712W        W30038  19.731  39.124   1.369
57713W        W30039  42.732   7.311   1.278
57714W        W30040  15.745   7.200  10.562
57715W        W30041   9.198   5.751  14.932
57716W        W30042  42.837   9.306  12.981
57717W        W30043   9.780  41.491   3.283
57718W        W30044  14.604   4.859  11.628
57719W        W30045  42.445  10.140  13.414
57720W        W30046  24.811   7.792   3.495
57721W        W30047  43.049  22.759  12.111
57722W        W30048  18.460  20.286  14.518
57723W        W30049  10.050   2.104  11.269
57724W        W30050  35.064  41.269  14.422
57725W        W30051  36.341  39.603  11.597
57726W        W30052   4.919  36.623   2.362
57727W        W30053  26.530  36.536   3.655
57728W        W30054   6.710  30.997  13.958
57729W        W30055  18.764   7.298  11.490
57730W        W30056  22.484  23.016  12.503
57731W        W30057  20.975  29.397  11.666
57732W        W30058  25.671  33.610  13.910
57733W        W30059  15.676  11.769   4.595
57734W        W30060  13.121  18.065  12.979
57735W        W30061  24.003  21.506  13.832
57736W        W30062  10.178   1.964  11.746
57737W        W30063  40.294  14.755  10.558
57738W        W30064  12.623  31.963  13.405
57739W        W30065  14.693   9.289   2.960
57740W        W30066  14.668  37.555   1.744
57741W        W30067   2.432  23.208   3.380
57742W        W30068  31.041  21.720  10.502
57743W        W30069  28.767  27.004  12.429
57744W        W30070  39.400  12.571  13.009
57745W        W30071  28.411   9.243  13.847
57746W        W30072  34.660  12.079  11.019
57747W        W30073  34.519  17.358   2.364
57748W        W30074   4.241  26.868  12.019
57749W        W30075  18.151  24.302   3.732
57750W        W30076  38.293   7.450   0.052
57751W        W30077   2.307  28.230   1.286
57752W        W30078  33.106   6.393   0.791
57753W        W30079   1.457  14.065  10.702
57754W        W30080  27.926  37.432   3.699
57755W        W30081  42.216  25.540  11.723
57756W        W30082  24.699  39.105   3.357
57757W        W30083  18.284  20.460  14.028
57758W        W30084  16.103  16.687  11.978
57759W        W30085  18.296   1.361   1.289
57760W        W30086   1.537  40.506  13.261
57761W        W30087  44.360  14.146   1.915
57762W        W30088  31.231   1.316   3.138
57763W        W30089  16.814  35.927  12.053
57764W        W30090  12.919  42.388  14.857
57765W        W30091  26.111  39.312   0.222
57766W        W30092  14.348   3.631  11.162
57767W        W30093  15.444  14.763   2.280
57768W        W30094   7.658  40.412   4.493
57769W        W30095  18.191  17.096  14.567
57770W        W30096  42.357  14.550   2.323
57771W        W30097  22.018   6.414  14.253
57772W        W30098  15.672  12.904  14.291
57773W        W30099  39.077  30.688  12.464
57774W        W30100   5.137  37.641   0.846
57775W        W30101  19.977  33.494   0.979
57776W        W30102   2.803   4.175   4.923
57777W        W30103  35.007  35.027   1.409
57778W        W30104  32.123  17.057  14.614
57779W        W30105  42.047  25.731  14.906
57780W        W30106  26.215  15.414  13.433
57781W        W30107   3.880  33.500  10.804
57782W        W30108  31.426  16.340  14.680
57783W        W30109  38.011  38.798   0.312
57784W        W30110  10.175  37.672  12.036
57785W        W30111  44.461   5.006  12.438
57786W        W30112  39.315  33.624   2.854
57787W        W30113   4.381  29.061   4.561
57788W        W30114  33.419  10.099  13.141
57789W        W30115  17.681  40.394   4.788
57790W        W30116  25.561  26.286   1.848
57791W        W30117  22.265  44.031  12.629
57792W        W30118  22.640  22.169  10.381
57793W        W30119  26.961  44.554   9.968
57794W        W30120  11.604  28.014  10.345
57795W        W30121  19.316  38.426  13.273
57796W        W30122  44.244   0.730   4.327
57797W        W30123  14.552   9.486  13.485
57798W        W30124  32.173  36.152  12.439
57799W        W30125  27.197  32.097  14.835
57800W        W30126  35.010  18.036   3.189
57801W        W30127  28.825  36.086  13.396
57802W        W30128   5.267   1.477   4.563
57803W        W30129  32.476  27.925  10.776
57804W        W30130   4.748  38.844  13.744
57805W        W30131  28.122  23.956  10.450
57806W        W30132  44.046  20.102   4.033
57807W        W30133  43.428  17.691  14.864
57808W        W30134  34.034  35.619   9.839
57809W        W30135   7.837  38.619  13.015
57810W        W30136  22.695  16.983  14.371
57811W        W30137  15.501  10.165  10.053
57812W        W30138   6.389  33.621  13.763
57813W        W30139  21.667  27.726   0.949
57814W        W30140   2.447   4.637   0.734
57815W        W30141  32.116   9.789  12.587
57816W        W30142  30.279   9.228   0.271
57817W        W30143  44.703  31.424   4.378
57818W        W30144  44.069   8.767  11.237
57819W        W30145  28.647  40.836   0.839
57820W        W30146   1.944  36.147  13.384
57821W        W30147  16.150  42.014   1.651
57822W        W30148  10.818   5.212   3.182
57823W        W30149  27.100  27.388   1.630
57824W        W30150  32.596   4.796  11.808
57825W        W30151  35.105  11.618   4.606
57826W        W30152  37.837  28.144  13.673
57827W        W30153  12.815  25.119   4.118
57828W        W30154   6.464  28.957  10.729
57829W        W30155  15.572  23.241   9.853
57830W        W30156  16.655   5.981   3.109
57831W        W30157  38.874  20.266   3.100
57832W        W30158  26.087  39.769  14.966
57833W        W30159   2.248   4.181   1.638
57834W        W30160  18.747  13.968   5.000
57835W        W30161   6.732  39.567  10.717
57836W        W30162  34.166  24.269  13.157
57837W        W30163  41.551   8.221   0.984
57838W        W30164  42.297  30.638  10.468
57839W        W30165  34.941  16.796   3.738
57840W        W30166  26.483  20.154  14.494
57841W        W30167  38.675  21.208  11.908
57842W        W30168  28.411  41.945   1.877
57843W        W30169   9.162  29.664  14.012
57844W        W30170  30.377  42.066   0.427
57845W        W30171  27.091  22.053  10.689
57846W        W30172  37.550  25.935   1.065
57847W        W30173  31.595  25.921   3.690
57848W        W30174  19.270   7.638  13.967
57849W        W30175  36.885  13.551  13.454
57850W        W30176  37.080  30.972   2.486
57851W        W30177   9.922   7.786  12.042
57852W        W30178  41.735  41.340   0.329
57853W        W30179  13.757   9.384   2.872
57854W        W30180  15.787  27.328  12.080
57855W        W30181  31.528  28.006  14.687
57856W        W30182  35.905  27.196   2.703
57857W        W30183  37.914  32.411  11.375
57858W        W30184  30.494  33.741  13.528
57859W        W30185  44.613  29.505  14.470
57860W        W30186  36.662   0.969   1.649
57861W        W30187  19.119  10.405   2.364
57862W        W30188  13.287  13.859   4.597
57863W        W30189  33.688  29.396   4.172
57864W        W30190  27.207  13.012  12.789
57865W        W30191  24.115  36.122   0.230
57866W        W30192  15.963  19.968  10.777
57867W        W30193  24.154  30.105  13.864
57868W        W30194  17.306  37.600   1.713
57869W        W30195  35.235  14.179   1.339
57870W        W30196  35.950   2.026   3.391
57871W        W30197  35.038  20.243  13.674
57872W        W30198  30.160  30.156  12.128
57873W        W30199  39.658  17.544   0.536
57874W        W30200  42.410  14.812   4.652
57875W        W30201   7.226  16.513   2.629
57876W        W30202  35.165   7.334  13.048
57877W        W30203  16.561  26.779   2.284
57878W        W30204  44.458  38.841  11.494
57879W        W30205   2.640  16.229  11.705
57880W        W30206  34.067  25.706  10.718
57881W        W30207  29.094   1.705  13.586
57882W        W30208  36.768  13.000   5.123
57883W        W30209  29.077   5.636   1.465
57884W        W30210  27.105  21.048   0.849
57885W        W30211  39.159  11.095   3.288
57886W        W30212  42.896  43.475   0.823
57887W        W30213  27.951  21.111  11.246
57888W        W30214  23.783  38.311  14.040
57889W        W30215  41.444  20.949  14.800
57890W        W30216  34.115   5.231   1.781
57891W        W30217  18.752   4.699   1.769
57892W        W30218   0.491  22.995   3.287
57893W        W30219  19.709  10.396  12.674
57894W        W30220  38.299   4.485  10.471
57895W        W30221  20.627  10.377  10.458
57896W        W30222   9.626  37.323   4.911
57897W        W30223  33.804  34.631   3.235
57898W        W30224  15.289  41.048   4.590
57899W        W30225  34.018   7.325   3.579
57900W        W30226  40.034  20.096  14.722
57901W        W30227  14.267  32.122   0.254
57902W        W30228  12.008   2.232  14.977
57903W        W30229  34.501  13.286   4.851
57904W        W30230  43.301  36.599  12.987
57905W        W30231  44.786   8.864  10.651
57906W        W30232  13.389  20.051  11.870
57907W        W30233  21.524  25.468   1.963
57908W        W30234   9.721   0.033   1.638
57909W        W30235  33.500  28.666   4.642
57910W        W30236   8.449  33.127  11.596
57911W        W30237  35.888  32.830  10.592
57912W        W30238  11.369  39.057  14.019
57913W        W30239  24.966   4.227  12.966
57914W        W30240  40.297  36.323  12.407
57915W        W30241  34.316  34.652   3.272
57916W        W30242  11.190  17.078  10.421
57917W        W30243  38.909  33.940   0.260
57918W        W30244  34.478   4.046  13.086
57919W        W30245  24.945  32.167   3.181
57920W        W30246  10.727  28.421  13.018
57921W        W30247  19.769   4.017  11.109
57922W        W30248   1.693  44.985   2.250
57923W        W30249  24.288  11.128   3.754
57924W        W30250   4.014   0.110   4.615
57925W        W30251  26.222  31.011   3.797
57926W        W30252   1.171  19.677   4.601
57927W        W30253  35.303  34.028   3.759
57928W        W30254   5.305  21.657   4.617
57929W        W30255  16.352  20.192  13.158
57930W        W30256   2.416  23.688   0.442
57931W        W30257   6.376   2.215   1.785
57932W        W30258  42.996  44.174   1.635
57933W        W30259  38.170  37.648  11.072
57934W        W30260  42.816  35.481  14.500
57935W        W30261  44.967  24.734   3.391
57936W        W30262   2.330  37.115   0.705
57937W        W30263  36.899  38.605  12.844
57938W        W30264   7.906  34.785  13.269
57939W        W30265  23.059  34.355   0.281
57940W        W30266  25.105  41.845  14.568
57941W        W30267  39.950  39.255  10.449
57942W        W30268   4.835  40.808   0.327
57943W        W30269  18.248   4.990  12.028
57944W        W30270  13.787  21.599  10.620
57945W        W30271  21.741   4.800  12.691
57946W        W30272  44.906  17.046  13.397
57947W        W30273  24.902  15.221  13.463
57948W        W30274  19.151   0.541   2.971
57949W        W30275  44.920   2.916  13.467
57950W        W30276  36.224   0.501  14.637
57951W        W30277  15.670   5.334   3.109
57952W        W30278  20.406  12.888   2.294
57953W        W30279   1.363  44.993   0.949
57954W        W30280  25.399  19.617  14.999
57955W        W30281   2.379  19.687   5.227
57956W        W30282  39.343   8.345   4.862
57957W        W30283   0.306   7.734  12.644
57958W        W30284   9.922  35.539   4.791
57959W        W30285   5.133  32.850   1.412
57960W        W30286  38.297  11.360   1.860
57961W        W30287  18.093  28.919  14.843
57962W        W30288  28.586   7.748   1.858
57963W        W30289  29.036   5.830   4.126
57964W        W30290  12.443  35.440   2.193
57965W        W30291  27.707  22.514  14.949
57966W        W30292  31.400   6.306   3.911
57967W        W30293  24.657  16.794  11.508
57968W        W30294   6.561  26.660  12.089
57969W        W30295   6.389  36.404  10.875
57970W        W30296  38.850  30.498   1.054
57971W        W30297  10.784  19.248  11.138
57972W        W30298  32.484  25.439   2.262
57973W        W30299  20.481   7.146  14.415
57974W        W30300  35.023   6.191   2.752
57975W        W30301  31.356  18.753   0.320
57976W        W30302   0.847  39.883  14.741
57977W        W30303   3.981   5.346   3.747
57978W        W30304  37.684   4.264   0.618
57979W        W30305   6.719   3.011  13.998
57980W        W30306  20.420  25.130  12.448
57981W        W30307  27.175  29.953   0.705
57982W        W30308  20.297   0.510   2.236
57983W        W30309  30.197  39.031  12.865
57984W        W30310  39.352  32.075   0.620
57985W        W30311  30.037  32.054   2.355
57986W        W30312  17.078  31.600  12.687
57987W        W30313   5.392  13.204  11.639
57988W        W30314  30.596   3.786   1.538
57989W        W30315  40.062  32.396   4.212
57990W        W30316   7.081  42.469  11.728
57991W        W30317  22.411   2.321   4.152
57992W        W30318  10.105  20.470  12.313
57993W        W30319  38.516  20.364  12.223
57994W        W30320  36.646  42.024   0.379
57995W        W30321  35.418  43.856   2.819
57996W        W30322  36.342  35.809   2.833
57997W        W30323  37.502  21.033   5.230
57998W        W30324  31.670  39.938   0.829
57999W        W30325  29.885  32.924   1.820
58000W        W30326   0.643  23.202  14.190
58001W        W30327   6.708  13.807   1.876
58002W        W30328  33.748  38.081   2.924
58003W        W30329  24.719  25.760   1.023
58004W        W30330  37.435  19.787   4.608
58005W        W30331  21.035  36.530  14.416
58006W        W30332  13.032   3.740   1.327
58007W        W30333  33.653   0.279   3.800
58008W        W30334  35.800  30.368  11.141
58009W        W30335  29.210  38.888  14.850
58010W        W30336  42.365  35.258   3.709
58011W        W30337  28.132  37.879   3.806
58012W        W30338  11.853  17.008   4.158
58013W        W30339  38.064  25.402   3.686
58014W        W30340  35.909  22.790   4.513
58015W        W30341  31.923  40.578   3.916
58016W        W30342  19.459  35.604  14.383
58017W        W30343  26.333  24.204   0.862
58018W        W30344  22.004  35.090   2.416
58019W        W30345   4.905  10.320  13.117
58020W        W30346  36.310  24.453   2.267
58021W        W30347   0.338  38.838   0.481
58022W        W30348  22.134  18.836  12.526
58023W        W30349  11.587   2.478  14.772
58024W        W30350  36.537  30.129  14.206
58025W        W30351  24.179  35.799   3.875
58026W        W30352   8.409  36.912  13.341
58027W        W30353  43.099  34.403  11.469
58028W        W30354   5.825  28.206  11.180
58029W        W30355  39.004  36.814  12.623
58030W        W30356  40.445  10.409  10.674
58031W        W30357  28.010  27.088   2.694
58032W        W30358  15.130   9.964   3.198
58033W        W30359  40.292  44.765   1.924
58034W        W30360   7.649  34.633   3.173
58035W        W30361   6.451  44.885   0.564
58036W        W30362   2.226   5.549   4.114
58037W        W30363  29.511  27.049   3.150
58038W        W30364   5.013  10.923  12.121
58039W        W30365  30.373  25.948   0.775
58040W        W30366  10.018  31.813   0.371
58041W        W30367  11.603  37.093  14.252
58042W        W30368  20.837  21.806  13.049
58043W        W30369  21.555   8.406   0.515
58044W        W30370  27.183  10.912   3.337
58045W        W30371  44.275  12.048   2.643
58046W        W30372  43.322  34.915   4.347
58047W        W30373  37.304   7.239   1.280
58048W        W30374  22.968  41.009   4.690
58049W        W30375   4.362  43.508   2.882
58050W        W30376  42.961  44.422  12.050
58051W        W30377  34.521  38.981  13.630
58052W        W30378  34.068  36.837   1.338
58053W        W30379  23.865   2.013   4.836
58054W        W30380  15.569  24.490   2.192
58055W        W30381  22.126   6.385  10.252
58056W        W30382  14.034  34.579  10.728
58057W        W30383   6.862  42.938   4.765
58058W        W30384  42.509  26.034  13.994
58059W        W30385  14.063  41.916   0.727
58060W        W30386   6.967  15.831   1.547
58061W        W30387  38.986  19.788  14.326
58062W        W30388   2.769  36.826   3.718
58063W        W30389  36.948  28.606  14.005
58064W        W30390  33.938  33.455   3.707
58065W        W30391   2.368  40.110   4.190
58066W        W30392  18.958   6.861   0.455
58067W        W30393  17.508  11.896   9.867
58068W        W30394  22.451  22.503   4.145
58069W        W30395  26.933  37.337  11.213
58070W        W30396  17.681   0.146  14.793
58071W        W30397   5.797  29.005   0.704
58072W        W30398  38.521  19.545   5.103
58073W        W30399  22.717  40.211   1.000
58074W        W30400   6.169   7.223   0.081
58075W        W30401  24.488  19.230  14.767
58076W        W30402  15.053  39.898   0.072
58077W        W30403   2.483  34.448  10.633
58078W        W30404   4.812   3.678   3.566
58079W        W30405  31.132  31.577   3.132
58080W        W30406  30.676  10.262   3.604
58081W        W30407  13.259  17.149   1.167
58082W        W30408   7.684  18.754  10.567
58083W        W30409  20.529  30.108   4.515
58084W        W30410  38.866  24.735   0.925
58085W        W30411   6.269  14.767  12.250
58086W        W30412   7.367  39.426  11.941
58087W        W30413  15.489  41.737  10.630
58088W        W30414   9.144  18.612   4.904
58089W        W30415   6.777  23.713  13.900
58090W        W30416  27.100   2.780  12.431
58091W        W30417  25.634   4.426   2.840
58092W        W30418  25.693  39.598   3.339
58093W        W30419  39.296  23.148  12.692
58094W        W30420  20.618  27.712  13.647
58095W        W30421   6.165   0.433  12.151
58096W        W30422  13.178   8.694   5.131
58097W        W30423  32.554  11.220  11.220
58098W        W30424   3.528  11.897  13.775
58099W        W30425  35.094  25.036  14.705
58100W        W30426  28.420  32.844   1.936
58101W        W30427  44.916  13.436   0.845
58102W        W30428  17.713  42.771   3.777
58103W        W30429  39.729  33.828   1.732
58104W        W30430   9.165  27.561  13.893
58105W        W30431  37.938  16.315   1.785
58106W        W30432  23.150  37.621   2.816
58107W        W30433   4.883  37.495  13.482
58108W        W30434  36.509  19.966  13.880
58109W        W30435   9.624   4.934   2.869
58110W        W30436  21.961  17.617   2.706
58111W        W30437   8.401  38.463  11.593
58112W        W30438   5.697   9.361  14.902
58113W        W30439  14.761  32.507   4.682
58114W        W30440   3.919   0.229  14.814
58115W        W30441  19.293  14.230   2.871
58116W        W30442  27.789   6.218   4.009
58117W        W30443  10.574   2.267  11.275
58118W        W30444  15.918  39.491   0.050
58119W        W30445   5.397  11.118  13.116
58120W        W30446   0.005  38.822   4.597
58121W        W30447  20.135  25.291  10.791
58122W        W30448  28.576  13.715   0.975
58123W        W30449  42.415   2.681  13.126
58124W        W30450  25.487  40.939  14.225
58125W        W30451  35.375  14.790  13.291
58126W        W30452   2.145  42.593  12.997
58127W        W30453   4.862  43.307  13.221
58128W        W30454  16.606   4.698  10.379
58129W        W30455  40.999  10.976   2.329
58130W        W30456  29.196   9.320   0.765
58131W        W30457  15.748  41.545  11.906
58132W        W30458  34.946   5.347   3.285
58133W        W30459  19.554  18.170  13.440
58134W        W30460  43.604  14.279  12.382
58135W        W30461  34.081   0.023  12.461
58136W        W30462   8.398   0.585   1.497
58137W        W30463  21.669  17.553   1.271
58138W        W30464  35.002   7.709  13.784
58139W        W30465   8.904   4.735  11.569
58140W        W30466  17.752  29.664   3.147
58141W        W30467   8.636  33.918   4.405
58142W        W30468  37.348  30.953  13.605
58143W        W30469  36.871  22.599   4.838
58144W        W30470   5.247  40.687  13.910
58145W        W30471  10.192  13.217   3.584
58146W        W30472  42.754  43.241   1.809
58147W        W30473  15.978   3.468  14.263
58148W        W30474  29.912  43.738   1.685
58149W        W30475   1.978  32.360   0.459
58150W        W30476  25.965  33.006  14.028
58151W        W30477  15.642   4.176   1.711
58152W        W30478  12.228   8.609   2.340
58153W        W30479  39.027  14.069  12.916
58154W        W30480  25.252  21.503   0.425
58155W        W30481  19.314  34.130  12.068
58156W        W30482  23.110  37.065  11.727
58157W        W30483  11.753  42.737  13.552
58158W        W30484  44.274  30.603   5.001
58159W        W30485  43.987  24.639  14.476
58160W        W30486  16.484  11.983   4.225
58161W        W30487   3.784   5.687  14.920
58162W        W30488  36.549  38.401   3.614
58163W        W30489  39.739  25.614  13.914
58164W        W30490  31.563   7.315   2.828
58165W        W30491  32.224   6.912  10.748
58166W        W30492  28.709  44.713  12.830
58167W        W30493  32.707  19.728   2.696
58168W        W30494  10.829  18.294  14.970
58169W        W30495  30.482   4.981   3.157
58170W        W30496  19.318  39.738  13.983
58171W        W30497  23.673  16.855   4.100
58172W        W30498  19.637   0.765   0.929
58173W        W30499   4.830  21.206  13.287
58174W        W30500   8.220  28.172   1.360
58175W        W30501   4.815   7.990   1.877
58176W        W30502  33.398  23.092  13.364
58177W        W30503  23.213  10.416   3.877
58178W        W30504   6.770  32.681   1.719
58179W        W30505  44.742  15.728  11.016
58180W        W30506  26.873  17.071  11.895
58181W        W30507  27.533  27.098   4.303
58182W        W30508  36.346  14.397  11.932
58183W        W30509  15.286  39.994   0.504
58184W        W30510  39.268   0.834   2.937
58185W        W30511  28.620  26.955   2.204
58186W        W30512  11.476   8.132   3.174
58187W        W30513   8.961  19.227  14.963
58188W        W30514  33.458  32.594   3.848
58189W        W30515  42.951  32.970   2.241
58190W        W30516  16.574   3.196  12.516
58191W        W30517  19.507  40.193  11.547
58192W        W30518   6.717  28.851  12.585
58193W        W30519  40.394  40.340  10.330
58194W        W30520  16.129  21.030  11.943
58195W        W30521  34.334  31.672   2.381
58196W        W30522   2.376  37.505  12.060
58197W        W30523  26.676  30.345  12.976
58198W        W30524  27.090  28.980  14.874
58199W        W30525  31.698  43.974   1.176
58200W        W30526  42.202   7.397  13.582
58201W        W30527  25.665  42.099  11.610
58202W        W30528  11.721  40.350  14.429
58203W        W30529  40.029  13.240  12.842
58204W        W30530  42.881  44.272  11.542
58205W        W30531  35.298  30.234  14.439
58206W        W30532   9.716  31.147   4.116
58207W        W30533  16.687   5.524   4.648
58208W        W30534   5.504  19.949   3.236
58209W        W30535   4.227  22.973  12.745
58210W        W30536  25.522  17.843   2.185
58211W        W30537   4.414   5.241   1.766
58212W        W30538  30.459  27.546  13.414
58213W        W30539   9.116  36.265  11.354
58214W        W30540  43.354  40.803  11.243
58215W        W30541  40.027  10.581   3.216
58216W        W30542  44.784  17.181   2.229
58217W        W30543  37.964  25.582   4.318
58218W        W30544  34.419  39.058   1.916
58219W        W30545   8.662   9.026  10.768
58220W        W30546  11.384   5.899   1.813
58221W        W30547  29.427  10.671  13.344
58222W        W30548  34.923  15.774   0.008
58223W        W30549  20.545  22.628  11.169
58224W        W30550  37.601  31.752   2.415
58225W        W30551  15.029  44.399  13.882
58226W        W30552  22.055  10.808   4.086
58227W        W30553  26.113  39.705  13.266
58228W        W30554  34.474  22.154   2.407
58229W        W30555  39.857  15.897   0.971
58230W        W30556  41.458  36.082  11.921
58231W        W30557  20.034  27.822  12.542
58232W        W30558   9.194  26.642   2.623
58233W        W30559  18.715  21.836  10.739
58234W        W30560  16.680  31.717   0.183
58235W        W30561  42.337  30.093  10.502
58236W        W30562   1.073  22.938   4.817
58237W        W30563  28.488  31.191   0.362
58238W        W30564  13.169  11.377  11.501
58239W        W30565  26.472  41.605  14.754
58240W        W30566   5.481  10.437   3.441
58241W        W30567  41.286   9.899   3.303
58242W        W30568  21.928  30.899  12.009
58243W        W30569   1.865   2.235   2.624
58244W        W30570  23.534  18.671  10.285
58245W        W30571  34.882  12.659   0.336
58246W        W30572  41.060  40.314  14.065
58247W        W30573   9.696  15.510   1.938
58248W        W30574  34.961   4.200  14.360
58249W        W30575  30.864  16.134  11.077
58250W        W30576  44.199  16.109  11.542
58251W        W30577  29.130  42.754  13.573
58252W        W30578  36.324  41.769   0.760
58253W        W30579  14.741   1.250   1.540
58254W        W30580  24.126   7.893   1.333
58255W        W30581  30.712  25.171  12.438
58256W        W30582  40.282  17.263  14.748
58257W        W30583  29.247   7.856   2.371
58258W        W30584  16.791  11.572  12.856
58259W        W30585  41.781  33.330  13.377
58260W        W30586   4.695   5.297  12.459
58261W        W30587  29.503  42.679   4.540
58262W        W30588  28.077  35.375   2.413
58263W        W30589  19.223   9.251   3.013
58264W        W30590  37.551   1.967   2.707
58265W        W30591   4.698  23.177  12.776
58266W        W30592   9.670  10.449  12.079
58267W        W30593  25.287  43.368  11.127
58268W        W30594  17.195   1.724   0.528
58269W        W30595  23.493   3.974   2.858
58270W        W30596  39.898  38.941   4.023
58271W        W30597  29.577  24.982  12.604
58272W        W30598  24.746  34.376   1.282
58273W        W30599  28.371   0.305   4.460
58274W        W30600   3.853  23.012   3.139
58275W        W30601  12.299  23.578   3.794
58276W        W30602  10.315  43.341  10.743
58277W        W30603  29.970  21.695   0.356
58278W        W30604  31.796  29.169  14.187
58279W        W30605  27.396  21.106  10.722
58280W        W30606  23.596  24.743   3.225
58281W        W30607  34.422  13.703  14.651
58282W        W30608   1.501  21.640   5.555
58283W        W30609   1.677  16.684  12.646
58284W        W30610  15.189  43.882  13.893
58285W        W30611  30.388   1.737   3.265
58286W        W30612  22.036  23.644  11.127
58287W        W30613  42.027  41.402  10.352
58288W        W30614  35.828  28.954  12.620
58289W        W30615   3.388  16.670  10.123
58290W        W30616  19.015  25.353   0.748
58291W        W30617  23.322   1.405   2.204
58292W        W30618  13.981  23.615  14.760
58293W        W30619  20.298  36.876  13.147
58294W        W30620   9.622  16.167   3.168
58295W        W30621  36.212  24.570   4.588
58296W        W30622  29.730  33.579   0.777
58297W        W30623  28.522  21.472   1.381
58298W        W30624  26.042  24.120  13.486
58299W        W30625  13.644  42.276   0.295
58300W        W30626  41.823  25.404   0.373
58301W        W30627   9.729  19.525  12.120
58302W        W30628  38.302  41.408  10.449
58303W        W30629  12.437  21.227  13.778
58304W        W30630  37.592  38.305   4.312
58305W        W30631  22.256  10.761   4.570
58306W        W30632  15.997   4.676  13.852
58307W        W30633  19.141  42.070  13.832
58308W        W30634  18.852   1.754   3.758
58309W        W30635  16.763  17.072   3.822
58310W        W30636  12.870  11.502  13.935
58311W        W30637   3.229  37.563  13.561
58312W        W30638  31.039  37.480  11.409
58313W        W30639  13.431   0.975   1.998
58314W        W30640   2.204   3.923   2.940
58315W        W30641  23.584  26.611   4.017
58316W        W30642  11.445  10.594  11.471
58317W        W30643  36.423  27.882  13.413
58318W        W30644  42.784  23.778   3.136
58319W        W30645  27.082  26.628   3.233
58320W        W30646  36.102  28.720  14.858
58321W        W30647  18.289   0.843  11.112
58322W        W30648  40.489   8.390  14.851
58323W        W30649   8.841   5.787   3.192
58324W        W30650   3.702  37.665   1.651
58325W        W30651   8.842  18.766  14.715
58326W        W30652  21.801  14.855   1.279
58327W        W30653  22.702  40.161   1.998
58328W        W30654  39.086  38.942   0.310
58329W        W30655  35.868   2.903   3.649
58330W        W30656  18.258  21.274   3.229
58331W        W30657   3.780  15.107   2.001
58332W        W30658  36.593   3.879   1.468
58333W        W30659  21.197   9.782  12.418
58334W        W30660   4.839  20.335   3.172
58335W        W30661   7.178   5.849   4.440
58336W        W30662  24.410  44.929  13.568
58337W        W30663  35.292  43.730   3.300
58338W        W30664  10.390  26.162   2.327
58339W        W30665  36.639  32.092  12.479
58340W        W30666  38.974  23.216  13.299
58341W        W30667  11.857  24.697  14.494
58342W        W30668  19.616  40.465  14.999
58343W        W30669   4.179  24.616  12.095
58344W        W30670  17.277  30.441  13.628
58345W        W30671  11.545  38.076   0.237
58346W        W30672  16.763   1.257  11.118
58347W        W30673  34.659   6.224   0.915
58348W        W30674  26.202  31.173   1.389
58349W        W30675  44.648  36.632  12.974
58350W        W30676  17.717  12.847   4.286
58351W        W30677  41.475  18.187   1.184
58352W        W30678   5.172  37.108  12.083
58353W        W30679  12.418  43.777  11.518
58354W        W30680   0.375  26.602  12.440
58355W        W30681  42.010  18.053   4.378
58356W        W30682  25.026  13.842  13.956
58357W        W30683  21.271  29.432  12.475
58358W        W30684  28.419  31.408   4.195
58359W        W30685  42.124  13.990   0.417
58360W        W30686  14.104  15.547   4.660
58361W        W30687  21.991  24.996   0.800
58362W        W30688  16.181   5.621   3.239
58363W        W30689   7.606  16.679   4.275
58364W        W30690  41.041  36.482   0.401
58365W        W30691  25.208  10.212   2.895
58366W        W30692  15.170   5.279   2.152
58367W        W30693   5.854   7.345  14.257
58368W        W30694  37.930  42.823  13.912
58369W        W30695  28.441  37.615   4.568
58370W        W30696   1.349  34.805   1.952
58371W        W30697  33.041  23.942  14.511
58372W        W30698  10.090   6.382   1.311
58373W        W30699  11.626  36.297  11.501
58374W        W30700   9.378  30.420  13.364
58375W        W30701  29.580  20.285  13.156
58376W        W30702   5.363  23.653   2.504
58377W        W30703  12.252   2.467   0.406
58378W        W30704  41.639  37.655  13.001
58379W        W30705  32.421  19.565  12.032
58380W        W30706  40.467  36.615  10.545
58381W        W30707  22.154  42.776   4.620
58382W        W30708   3.891  41.057  13.635
58383W        W30709  18.311   6.942  11.267
58384W        W30710  35.554  40.254   4.093
58385W        W30711   1.344  13.138   1.301
58386W        W30712   9.346  10.165  13.973
58387W        W30713  14.944   3.451  12.636
58388W        W30714  33.730  12.536  11.413
58389W        W30715  18.801  28.031  14.891
58390W        W30716  13.860  24.782   3.704
58391W        W30717  12.761   2.797   2.750
58392W        W30718   4.259  21.203   0.793
58393W        W30719  35.861  35.173   1.952
58394W        W30720  22.228  38.146  14.984
58395W        W30721  18.895  26.425  13.522
58396W        W30722   6.824  19.278   0.665
58397W        W30723  37.940  42.013   3.801
58398W        W30724  38.465   7.465   0.909
58399W        W30725  37.109   7.448  12.335
58400W        W30726  23.442  30.869   2.739
58401W        W30727  17.434   2.672   4.473
58402W        W30728  25.173   3.351  14.156
58403W        W30729  42.525  27.414   1.906
58404W        W30730  39.574  33.859   0.865
58405W        W30731  10.812  16.933   1.093
58406W        W30732  17.220  41.471   3.889
58407W        W30733  19.431  29.260   0.297
58408W        W30734  36.333  13.321   3.247
58409W        W30735  13.686  15.180  14.290
58410W        W30736  37.413   4.673  10.280
58411W        W30737  21.583  32.543  14.892
58412W        W30738  40.234  25.580   3.645
58413W        W30739   4.644  42.230   0.176
58414W        W30740   7.925  21.692  10.264
58415W        W30741  32.992   3.832  14.589
58416W        W30742  19.816  15.860   1.806
58417W        W30743  20.566   4.618  13.383
58418W        W30744  43.890  16.104  13.274
58419W        W30745  33.915  10.851   1.368
58420W        W30746  14.685   0.273   0.468
58421W        W30747  32.915  19.793   0.771
58422W        W30748  26.508  32.804   0.875
58423W        W30749   4.415   7.530  11.529
58424W        W30750   8.492  13.761  12.589
58425W        W30751  15.598   0.042  10.608
58426W        W30752  14.443  35.560   0.642
58427W        W30753   3.237  17.263  14.357
58428W        W30754   4.190  25.176   3.156
58429W        W30755  36.911  41.389   1.375
58430W        W30756  32.612  29.759  12.968
58431W        W30757   8.620  13.561  10.994
58432W        W30758  38.530  32.341   0.891
58433W        W30759   4.154  20.089  14.806
58434W        W30760  33.920  11.254  14.593
58435W        W30761  18.078   2.206  11.855
58436W        W30762   0.774  26.213   0.508
58437W        W30763  38.272  42.316  10.661
58438W        W30764  30.017  22.311   3.023
58439W        W30765  35.061  21.277  12.392
58440W        W30766  38.168  33.171  10.486
58441W        W30767  36.478  24.094   2.645
58442W        W30768  23.127  44.452   2.831
58443W        W30769  44.796  21.734   4.586
58444W        W30770   4.498  11.423  10.231
58445W        W30771  29.877  21.500   1.926
58446W        W30772   9.046   8.110   1.916
58447W        W30773  27.941  33.459  13.480
58448W        W30774  15.055  29.648  13.804
58449W        W30775  42.381  27.701   3.199
58450W        W30776  28.676   1.491   1.789
58451W        W30777  15.895  37.458   1.168
58452W        W30778  17.619  38.391   1.947
58453W        W30779  13.759   4.199   3.171
58454W        W30780  23.705   7.371  11.201
58455W        W30781  36.116   4.868  14.385
58456W        W30782  20.947  37.947   0.920
58457W        W30783  41.899  11.753   4.391
58458W        W30784  19.084   9.649  10.672
58459W        W30785  35.090  18.543  11.105
58460W        W30786  33.699  29.454  13.382
58461W        W30787   7.888   4.803  10.591
58462W        W30788   9.251  29.048   0.307
58463W        W30789  12.613  21.979  14.868
58464W        W30790  43.550  12.117  12.155
58465W        W30791   0.665  14.658   2.729
58466W        W30792   7.978   0.865  14.402
58467W        W30793  40.538   5.233  14.928
58468W        W30794  11.608  25.646   2.159
58469W        W30795  41.827  35.878   2.046
58470W        W30796  24.453  31.401   3.773
58471W        W30797  27.603  34.466   1.916
58472W        W30798  18.164  18.304   3.665
58473W        W30799  11.809  34.801  11.881
58474W        W30800  39.138  42.777   2.285
58475W        W30801  31.457  38.043  10.562
58476W        W30802  24.925  35.926  12.514
58477W        W30803  38.528  22.749  13.998
58478W        W30804  30.968  38.454  14.001
58479W        W30805  30.219  36.005  10.809
58480W        W30806  13.830   9.797   3.855
58481W        W30807  40.868  43.240   3.333
58482W        W30808  10.824   2.087   3.287
58483W        W30809  16.677  17.641   4.232
58484W        W30810  30.459  13.251   2.522
58485W        W30811  35.025  24.970  12.522
58486W        W30812  16.903  35.782   9.900
58487W        W30813  17.191  35.911  11.216
58488W        W30814  35.908  25.584   2.069
58489W        W30815  23.588  15.124  12.448
58490W        W30816   6.907  16.298   1.766
58491W        W30817  43.716   7.340  14.029
58492W        W30818  33.011  31.618  12.625
58493W        W30819  32.047   3.856   4.653
58494W        W30820  11.298   4.466   3.447
58495W        W30821  25.813  35.675   1.921
58496W        W30822  11.613  16.723  10.724
58497W        W30823  39.255  12.814  14.516
58498W        W30824   2.967  15.333   1.346
58499W        W30825  27.923   4.395  11.482
58500W        W30826  32.162  35.896  14.196
58501W        W30827  43.759  12.137   0.906
58502W        W30828  33.448   5.132   3.079
58503W        W30829  34.360  21.640  11.951
58504W        W30830  10.176  40.819   3.615
58505W        W30831  31.084  34.191   1.374
58506W        W30832  19.682  30.614   3.741
58507W        W30833   6.363   4.778  10.513
58508W        W30834  18.598  33.565   2.689
58509W        W30835  41.660  20.216  11.403
58510W        W30836  38.117  28.933   0.743
58511W        W30837  25.017  18.023   2.901
58512W        W30838   1.299   4.871  13.418
58513W        W30839  21.190  26.326   4.198
58514W        W30840  29.445   8.702   1.313
58515W        W30841  11.298  18.587  14.444
58516W        W30842  14.778  25.015  14.469
58517W        W30843  28.990  37.992  14.312
58518W        W30844  40.910  26.040  11.935
58519W        W30845  36.327  10.817   4.685
58520W        W30846  16.632  37.093  13.107
58521W        W30847  42.338  32.073  11.191
58522W        W30848  23.144  22.295  10.749
58523W        W30849  20.223  11.594  12.487
58524W        W30850   5.309  18.620   3.628
58525W        W30851  39.532  36.283  14.396
58526W        W30852  44.564  14.762  14.826
58527W        W30853   8.334   5.479   0.801
58528W        W30854  29.887  35.459   3.680
58529W        W30855  16.920   4.834  14.962
58530W        W30856  30.461  16.118   2.403
58531W        W30857  28.513  30.212  13.221
58532W        W30858  41.974  22.031  13.414
58533W        W30859  16.822  20.222   2.676
58534W        W30860  38.391  21.248   1.386
58535W        W30861   1.408  44.042  13.484
58536W        W30862  40.123  36.423   0.215
58537W        W30863  27.541  26.528   0.180
58538W        W30864   8.258  36.201  10.904
58539W        W30865  15.133  29.525   0.831
58540W        W30866  42.825  14.191   0.842
58541W        W30867   0.136  18.950  11.907
58542W        W30868  24.969  20.193   4.073
58543W        W30869   4.346  11.414   0.549
58544W        W30870   0.724  11.203  11.600
58545W        W30871  39.504  28.940   1.536
58546W        W30872  14.264  25.398   0.988
58547W        W30873   3.505   2.893   2.822
58548W        W30874  28.446  35.590   0.345
58549W        W30875  25.043  20.744  11.995
58550W        W30876  27.449  43.253   0.999
58551W        W30877  36.122  43.403  11.493
58552W        W30878  40.751   7.481  14.418
58553W        W30879  27.905  12.812  12.804
58554W        W30880  24.138  17.504   3.501
58555W        W30881  17.168  26.215  11.652
58556W        W30882  44.634  30.880  11.650
58557W        W30883  35.056  31.958  11.865
58558W        W30884   5.411  38.709   9.949
58559W        W30885  21.647  26.711   2.701
58560W        W30886   7.039  37.877   1.910
58561W        W30887   4.006  14.779  13.965
58562W        W30888  43.445  36.595   3.344
58563W        W30889  29.674  43.028  12.927
58564W        W30890  14.136  26.328   9.659
58565W        W30891  22.694  28.363  13.530
58566W        W30892  22.821   0.428  14.837
58567W        W30893  10.448   6.354   5.161
58568W        W30894  17.279   8.482   1.779
58569W        W30895  10.515  16.910   2.374
58570W        W30896   9.915   6.291   0.786
58571W        W30897  10.444  27.688  13.764
58572W        W30898  21.049  31.389   1.131
58573W        W30899  42.298   6.810   3.199
58574W        W30900  37.124  21.541  11.238
58575W        W30901   9.181  18.439  14.443
58576W        W30902  18.123  43.045   1.726
58577W        W30903  28.060  11.736  13.707
58578W        W30904   4.329  32.655   0.620
58579W        W30905  28.628  19.849   2.412
58580W        W30906  37.823  31.757   3.427
58581W        W30907  16.840   9.842   0.353
58582W        W30908  35.311  15.526   4.716
58583W        W30909   5.184   9.161  11.665
58584W        W30910  37.387  28.069  13.403
58585W        W30911  16.662  32.821   1.900
58586W        W30912  37.443  13.759   2.861
58587W        W30913   9.857  11.369  14.008
58588W        W30914  41.258  31.591  12.046
58589W        W30915   3.765  36.680   1.683
58590W        W30916  36.821  15.088   4.601
58591W        W30917  30.914  30.069  13.559
58592W        W30918  37.242  27.857  11.161
58593W        W30919  21.531  17.211  13.052
58594W        W30920  18.354  40.070  13.312
58595W        W30921  35.076  12.690  12.962
58596W        W30922  11.965  25.094  14.887
58597W        W30923  26.414  15.643   1.836
58598W        W30924  38.485  24.576  14.221
58599W        W30925   5.272  29.624  11.450
58600W        W30926  17.755  19.351   1.958
58601W        W30927  38.330  18.747   0.106
58602W        W30928  13.569   7.154  11.559
58603W        W30929  18.364  26.028  13.896
58604W        W30930  21.210  16.295  12.179
58605W        W30931  38.321  24.169  14.921
58606W        W30932  20.677  33.994  14.501
58607W        W30933   7.140  43.022  13.941
58608W        W30934  43.721  43.472   1.223
58609W        W30935  38.206  29.304  11.044
58610W        W30936   8.460  18.039   2.235
58611W        W30937   5.439   8.125   0.818
58612W        W30938  15.757   4.265  14.774
58613W        W30939   3.655  12.179   0.866
58614W        W30940  26.237  12.633  11.471
58615W        W30941  29.210  30.017   2.435
58616W        W30942   1.563  14.208   2.612
58617W        W30943   6.916  14.817   4.590
58618W        W30944  14.978  29.374  11.935
58619W        W30945  22.996  43.565  10.844
58620W        W30946  38.719  37.492   1.899
58621W        W30947   8.718  13.311   2.304
58622W        W30948  27.709   2.323  14.882
58623W        W30949   2.654   8.190  11.029
58624W        W30950  32.510  15.079   0.821
58625W        W30951   1.286  20.238   4.499
58626W        W30952  38.323  43.379  14.463
58627W        W30953  25.162  35.969   3.721
58628W        W30954   7.312  44.866  11.493
58629W        W30955  38.619  15.939   1.294
58630W        W30956  12.668  44.995  12.018
58631W        W30957   0.730  23.894  13.081
58632W        W30958  42.426  11.781  14.022
58633W        W30959  31.745  12.435   3.756
58634W        W30960  15.562  23.746  14.779
58635W        W30961  43.798  37.166   2.357
58636W        W30962  37.410   2.298  11.114
58637W        W30963  36.002  10.850  12.005
58638W        W30964  18.734   3.173  12.421
58639W        W30965  41.104  37.124   3.584
58640W        W30966  24.568  25.253   0.966
58641W        W30967  43.880  21.502   1.361
58642W        W30968  24.405   2.931   2.788
58643W        W30969  10.370  36.184   3.857
58644W        W30970  30.981  34.277   2.325
58645W        W30971  20.457  43.844   1.248
58646W        W30972  29.141  16.726  11.561
58647W        W30973  30.893   6.764   0.391
58648W        W30974  42.361   7.263  10.734
58649W        W30975   2.664   5.991  14.144
58650W        W30976   5.033  17.294  12.440
58651W        W30977   1.187  14.924  12.628
58652W        W30978  10.859  29.565  12.641
58653W        W30979  36.923   4.327  14.521
58654W        W30980  33.260  40.297  10.284
58655W        W30981  17.278  25.563  13.421
58656W        W30982  35.892  41.483  12.471
58657W        W30983   4.483  26.077   2.171
58658W        W30984  21.635  21.328   4.597
58659W        W30985   2.701   0.311   4.584
58660W        W30986  40.994  34.415  12.357
58661W        W30987  32.214   5.635   0.359
58662W        W30988  11.156   6.609  12.940
58663W        W30989  18.836  35.416   2.912
58664W        W30990   3.494   0.541  14.956
58665W        W30991   6.205   5.200   4.065
58666W        W30992   4.519   9.737  11.126
58667W        W30993  12.934  39.656   1.129
58668W        W30994  22.541  31.484   4.134
58669W        W30995  27.627  25.437   0.005
58670W        W30996  14.773  29.218   2.821
58671W        W30997  10.835  23.110   0.458
58672W        W30998  23.699  44.424   2.842
58673W        W30999  24.570  24.245   0.840
58674W        W31000  23.811  22.737   3.181
58675W        W31001   7.288  27.883  13.849
58676W        W31002  27.649  24.012  14.463
58677W        W31003  31.136  29.130  11.195
58678W        W31004  21.603   7.625  12.979
58679W        W31005  28.685  10.110   3.306
58680W        W31006  15.280  35.418   2.042
58681W        W31007  30.863  44.961   1.167
58682W        W31008  38.671  26.916   1.042
58683W        W31009   2.417   6.492  11.108
58684W        W31010  18.042  35.342   2.317
58685W        W31011  42.328   8.983  11.810
58686W        W31012  21.583  33.175   3.813
58687W        W31013  29.580   8.068   1.909
58688W        W31014  19.763   6.847   3.723
58689W        W31015  27.399  29.443   4.076
58690W        W31016  42.351  33.458   0.049
58691W        W31017  21.616   9.736   3.680
58692W        W31018  26.934   2.400  14.977
58693W        W31019  30.927  28.617  11.174
58694W        W31020  11.194  22.231   1.283
58695W        W31021  33.047  40.579  10.681
58696W        W31022   3.781  35.880  12.587
58697W        W31023  10.288  32.510   0.352
58698W        W31024   8.093   3.499  13.241
58699W        W31025  36.157  24.171   3.636
58700W        W31026  23.197  20.117   3.819
58701W        W31027  11.460  24.802  12.117
58702W        W31028   7.673  30.565  11.470
58703W        W31029  23.428   0.030   0.922
58704W        W31030  44.238  39.860   0.627
58705W        W31031  34.294  41.424  14.811
58706W        W31032  26.033  43.899  14.086
58707W        W31033  43.710  18.065   1.229
58708W        W31034   4.841  38.560   0.754
58709W        W31035  38.921   1.707   4.836
58710W        W31036  30.390  24.452  14.053
58711W        W31037  21.688  40.764  11.767
58712W        W31038  26.754  21.612   0.344
58713W        W31039   1.864   1.049   0.531
58714W        W31040  16.062  10.879  13.877
58715W        W31041  18.807   9.463   0.869
58716W        W31042   5.418  32.671  13.385
58717W        W31043   9.900  10.264  10.518
58718W        W31044  15.610  34.957   4.151
58719W        W31045  15.114  21.747  14.236
58720W        W31046  36.161  15.082   0.254
58721W        W31047  35.525  27.919   0.493
58722W        W31048  44.033  23.982   1.420
58723W        W31049  18.021   9.272  10.695
58724W        W31050  31.764  17.004   0.315
58725W        W31051  32.585  20.155  14.491
58726W        W31052   4.264  13.042   3.118
58727W        W31053  23.112  11.380  10.647
58728W        W31054   4.360  18.601   4.516
58729W        W31055   8.850  42.078   3.107
58730W        W31056  41.797  16.958   3.601
58731W        W31057   5.668  14.815   3.220
58732W        W31058   5.786  18.486  14.468
58733W        W31059  33.888   4.678   3.123
58734W        W31060   3.428  36.650   4.813
58735W        W31061  26.168  35.444   1.479
58736W        W31062   8.823  23.012   2.772
58737W        W31063  33.507  32.188  13.347
58738W        W31064   1.251  33.445  14.995
58739W        W31065  29.544  36.252   2.753
58740W        W31066  24.476   0.532   1.719
58741W        W31067  26.503  25.064  14.762
58742W        W31068  14.794   5.811  12.458
58743W        W31069  10.793   1.571   1.840
58744W        W31070  12.573  14.689  11.804
58745W        W31071   2.673  20.973   5.429
58746W        W31072  42.715  37.795   4.063
58747W        W31073  10.716   5.589  13.032
58748W        W31074  12.853  15.151  12.526
58749W        W31075  26.649  15.185   1.721
58750W        W31076  18.744  40.507  10.778
58751W        W31077  41.372  26.443   3.945
58752W        W31078   5.913   7.292  12.038
58753W        W31079  32.044   9.637  12.068
58754W        W31080  36.749   1.837  13.050
58755W        W31081  40.970  17.084  14.312
58756W        W31082  24.629  12.836  13.632
58757W        W31083  40.300  23.462  12.450
58758W        W31084  26.394  41.506   3.527
58759W        W31085  18.809  10.208  11.083
58760W        W31086  28.095  32.664  11.748
58761W        W31087  41.039  42.783   4.233
58762W        W31088  12.756   4.223  13.998
58763W        W31089  24.157   9.242   4.095
58764W        W31090  38.590   0.793  11.611
58765W        W31091  44.286  25.188   3.137
58766W        W31092  23.166  44.473  10.659
58767W        W31093   6.800   0.303  12.989
58768W        W31094   1.751  21.544   5.085
58769W        W31095   1.172   1.416   2.890
58770W        W31096  39.313  37.812  13.434
58771W        W31097  37.803  10.139  11.057
58772W        W31098   0.530  41.424   3.615
58773W        W31099  24.779  37.277   1.650
58774W        W31100  35.572  14.729   4.148
58775W        W31101   4.409  38.265   0.837
58776W        W31102  29.427  28.587   1.315
58777W        W31103   5.197   7.757  13.496
58778W        W31104   7.408  35.121   2.988
58779W        W31105  24.978  39.790  11.778
58780W        W31106  44.242  42.210   0.336
58781W        W31107  41.283  38.096  13.536
58782W        W31108  34.333  44.991   3.337
58783W        W31109   6.738   7.129  14.481
58784W        W31110  31.026  17.262   2.376
58785W        W31111  30.865  14.872  13.626
58786W        W31112  20.660  33.107   1.178
58787W        W31113  30.227  13.303  10.609
58788W        W31114  41.465  20.312  13.473
58789W        W31115  30.153  41.780  12.925
58790W        W31116   4.924  38.831  13.224
58791W        W31117  24.306  36.645  13.007
58792W        W31118  34.487  23.861   1.395
58793W        W31119  23.176  16.874   2.819
58794W        W31120  23.667  26.212   0.460
58795W        W31121  19.648  39.470   1.962
58796W        W31122   7.232  41.399   4.610
58797W        W31123  13.653  18.115   2.376
58798W        W31124  42.304  13.541   3.148
58799W        W31125  38.906   5.808   0.627
58800W        W31126  17.760   0.784   3.740
58801W        W31127  22.609   8.781   3.569
58802W        W31128   9.269  37.807  13.805
58803W        W31129   2.218   2.071   9.792
58804W        W31130   1.537  19.341  10.714
58805W        W31131  18.007   4.320   4.592
58806W        W31132  44.037  30.617  11.709
58807W        W31133  44.089  30.496  14.661
58808W        W31134   3.730  22.863  13.488
58809W        W31135  41.226   0.068  13.859
58810W        W31136  17.634  13.399   3.349
58811W        W31137  19.740  36.243  11.849
58812W        W31138  24.796  38.944  12.150
58813W        W31139   0.304  35.016  12.478
58814W        W31140  36.132  44.360  11.280
58815W        W31141  38.150  10.926  11.635
58816W        W31142   1.469  13.637  14.484
58817W        W31143  24.858  24.078  14.074
58818W        W31144  44.049  12.999  11.068
58819W        W31145  34.092  14.114  13.450
58820W        W31146  44.577  17.607   1.366
58821W        W31147  16.489  24.300  12.125
58822W        W31148  43.777  19.905  13.794
58823W        W31149  32.452  38.002   3.250
58824W        W31150  43.011  12.457   3.044
58825W        W31151  30.651   4.209   0.588
58826W        W31152   9.868  21.043  14.009
58827W        W31153  21.224   6.218  13.330
58828W        W31154  30.466   5.502  12.816
58829W        W31155  27.894  42.121  11.655
58830W        W31156  36.514  20.811  12.826
58831W        W31157  43.437  21.724   3.923
58832W        W31158   4.715   3.586  10.154
58833W        W31159  43.802   3.291   3.628
58834W        W31160  32.924  20.098  13.309
58835W        W31161  30.132  44.372  13.035
58836W        W31162  42.591   6.820  10.715
58837W        W31163  42.945  40.075  11.873
58838W        W31164  15.829  44.944  14.940
58839W        W31165  43.236   1.921   2.318
58840W        W31166   6.247  23.055  10.734
58841W        W31167  15.302  16.289  14.640
58842W        W31168  33.194  25.767  11.469
58843W        W31169  30.701  32.852  12.467
58844W        W31170  44.032  19.324  13.289
58845W        W31171   4.397  23.483   2.857
58846W        W31172  38.605  19.016  13.414
58847W        W31173  29.495  26.001   4.624
58848W        W31174  11.569  22.221  13.352
58849W        W31175  40.563  12.835   1.250
58850W        W31176  13.635  24.298  14.685
58851W        W31177  41.789  17.464   3.671
58852W        W31178  38.087  36.326   4.199
58853W        W31179  12.833   7.195   1.444
58854W        W31180  23.117  27.160  11.055
58855W        W31181  20.989  27.846   1.702
58856W        W31182  14.588  11.296   3.624
58857W        W31183  34.863  31.651  12.541
58858W        W31184   4.302  37.068  12.530
58859W        W31185  36.458  24.291   3.148
58860W        W31186  25.443  39.156  12.863
58861W        W31187  30.961  16.761  12.175
58862W        W31188  25.610  39.016   3.227
58863W        W31189  25.957  44.392  12.723
58864W        W31190  36.426  41.562   0.298
58865W        W31191   0.634   7.859   5.005
58866W        W31192  12.742  44.122  11.147
58867W        W31193   0.251  37.783   3.691
58868W        W31194   7.096  19.631  10.746
58869W        W31195  29.129  39.968   1.364
58870W        W31196  26.385  17.184  12.004
58871W        W31197  25.796  15.511   3.051
58872W        W31198   7.219  16.973  12.643
58873W        W31199  44.646  41.270  14.898
58874W        W31200  38.313  19.600   4.097
58875W        W31201  23.098  33.039   2.292
58876W        W31202  17.156  34.381  11.205
58877W        W31203  34.974  29.424  14.778
58878W        W31204  31.650  14.026  11.600
58879W        W31205  42.866  21.760  14.379
58880W        W31206  27.126  29.313   3.636
58881W        W31207  28.110  30.454   1.916
58882W        W31208  26.910  31.711  10.631
58883W        W31209  16.077  37.973  14.175
58884W        W31210  10.928  22.477   4.163
58885W        W31211  20.270  39.884   2.258
58886W        W31212   7.357  37.165   3.203
58887W        W31213  25.960  16.511   2.013
58888W        W31214  13.559   8.270   3.890
58889W        W31215  13.591  20.454   3.593
58890W        W31216  23.276  35.469  14.722
58891W        W31217  42.581   5.986   3.741
58892W        W31218  24.256   1.527  12.023
58893W        W31219  18.840  42.760  14.524
58894W        W31220  35.337  10.464   3.204
58895W        W31221  12.623  33.526  12.589
58896W        W31222  12.799  24.695   9.772
58897W        W31223   9.049  25.156   1.817
58898W        W31224  17.631  19.552  12.032
58899W        W31225  17.868  11.976  13.578
58900W        W31226   2.161  25.543  13.497
58901W        W31227  15.723  33.361   3.257
58902W        W31228  11.138   6.674   0.685
58903W        W31229  37.286  23.604   3.747
58904W        W31230   2.973  19.540   0.844
58905W        W31231  33.451   0.283  13.490
58906W        W31232  28.072  25.181   3.034
58907W        W31233  37.490  19.587   3.589
58908W        W31234  22.200  21.932  11.817
58909W        W31235  18.932  13.142   4.228
58910W        W31236  10.123   1.409  12.907
58911W        W31237  12.038  23.697  10.217
58912W        W31238  23.821  14.628  11.167
58913W        W31239  23.464  37.525   0.552
58914W        W31240   0.981  13.216  13.911
58915W        W31241  28.958  13.572  12.505
58916W        W31242  17.342  43.860  12.872
58917W        W31243   7.222   2.898  12.443
58918W        W31244   6.260   5.904   1.881
58919W        W31245  22.939  12.481   0.215
58920W        W31246  17.735  34.880  12.541
58921W        W31247   4.244  32.780   2.529
58922W        W31248   0.220  16.320   1.921
58923W        W31249  23.558  21.700   4.211
58924W        W31250  21.103  30.867  12.949
58925W        W31251   7.215   0.265  13.333
58926W        W31252  17.565  21.060  12.855
58927W        W31253   0.308  20.781   2.379
58928W        W31254   6.890  19.756   0.405
58929W        W31255  23.593  11.851  12.057
58930W        W31256  41.474  11.838   1.753
58931W        W31257   6.614   7.960   2.629
58932W        W31258  34.276   7.384  11.759
58933W        W31259  34.498  41.909  14.822
58934W        W31260   5.856  20.609   2.371
58935W        W31261  28.603  16.724   4.617
58936W        W31262  15.808  18.245  11.149
58937W        W31263   7.741  24.571   0.439
58938W        W31264  14.247  32.087   1.610
58939W        W31265   0.583  22.908  12.501
58940W        W31266  12.657   8.546   3.026
58941W        W31267  43.513   9.251   4.656
58942W        W31268   6.686  38.428   0.028
58943W        W31269  44.455  20.181  13.495
58944W        W31270  39.506  16.295   3.253
58945W        W31271  15.161  10.170   0.302
58946W        W31272   6.211  30.119   1.445
58947W        W31273  27.614  30.129   2.271
58948W        W31274  40.077  24.986   4.126
58949W        W31275  26.067  40.081  13.638
58950W        W31276   3.851   8.758   0.835
58951W        W31277  17.823   5.724   3.747
58952W        W31278  10.660   8.068  14.970
58953W        W31279  20.837  16.127  13.231
58954W        W31280  10.915  34.634   3.719
58955W        W31281  41.505  22.730  11.696
58956W        W31282  36.642  18.160   1.379
58957W        W31283  21.362  19.264   4.893
58958W        W31284  37.351  20.846  11.669
58959W        W31285  12.274  26.608  11.029
58960W        W31286   8.760  23.190   3.271
58961W        W31287   3.646  32.533   0.894
58962W        W31288  28.136  41.866  12.024
58963W        W31289  21.744  39.872  13.399
58964W        W31290  31.935   6.943  12.826
58965W        W31291  29.124   7.666  14.879
58966W        W31292  32.452  12.828   2.655
58967W        W31293   5.411  20.316   0.255
58968W        W31294   3.315  30.389   3.156
58969W        W31295  36.067  26.984  13.053
58970W        W31296   1.096  26.412   0.862
58971W        W31297  29.179  16.204   3.069
58972W        W31298  41.894  21.645   2.716
58973W        W31299  31.638  36.602   1.310
58974W        W31300  19.264  35.589  14.885
58975W        W31301  21.207  22.585  11.714
58976W        W31302  27.754   8.870   2.258
58977W        W31303  29.623   3.963  10.667
58978W        W31304  38.118  28.648   4.196
58979W        W31305  40.702  41.240  12.931
58980W        W31306  38.175  35.969   2.255
58981W        W31307  22.513  41.154   0.716
58982W        W31308   4.785  34.787  11.031
58983W        W31309   7.224  38.144  13.491
58984W        W31310  13.324  12.921   1.512
58985W        W31311  22.541   6.583  12.169
58986W        W31312  23.678  42.288   4.326
58987W        W31313   4.913  19.696  13.542
58988W        W31314  17.214  26.487  14.432
58989W        W31315  26.502  18.618  11.452
58990W        W31316  26.726  16.925   2.044
58991W        W31317   5.173  11.290  14.945
58992W        W31318   8.384  18.164   1.314
58993W        W31319  40.839  33.872   0.896
58994W        W31320   6.387  34.810  13.060
58995W        W31321  21.692   4.829   0.856
58996W        W31322  23.705  25.232   3.172
58997W        W31323  44.187  30.199  10.983
58998W        W31324  29.361  39.622  13.463
58999W        W31325  28.770  35.883   2.441
59000W        W31326  25.864  25.583  14.058
59001W        W31327  37.905  43.361   1.852
59002W        W31328   1.306  18.683   2.093
59003W        W31329   3.327  28.187  11.654
59004W        W31330  16.560  43.197  12.451
59005W        W31331  11.480  28.214  14.499
59006W        W31332  38.011   8.514  12.713
59007W        W31333  10.676  42.254   2.841
59008W        W31334  34.794  30.214  12.883
59009W        W31335   6.108  36.819  13.432
59010W        W31336  36.536   5.586  12.945
59011W        W31337  18.567  11.132  11.790
59012W        W31338  18.779  14.700  10.941
59013W        W31339  42.898  20.994  10.619
59014W        W31340  31.970  30.580   0.368
59015W        W31341  44.083  34.801  12.910
59016W        W31342  34.069  43.287   4.156
59017W        W31343   4.901   5.874  11.964
59018W        W31344  38.867  29.640  11.110
59019W        W31345  32.387  20.367   3.912
59020W        W31346  39.500  21.559   1.045
59021W        W31347  44.491  24.710   3.142
59022W        W31348  14.606  25.571   3.206
59023W        W31349   6.304  24.293   2.147
59024W        W31350   5.685  25.160  11.701
59025W        W31351  12.011  24.023   3.810
59026W        W31352   9.005  29.097  14.859
59027W        W31353   1.363  40.398   3.577
59028W        W31354  44.757  32.624  14.487
59029W        W31355  17.168   8.813   3.175
59030W        W31356   3.957  13.657   4.266
59031W        W31357  38.379  20.190  10.652
59032W        W31358  20.091  11.126  10.718
59033W        W31359  37.868  43.669   0.776
59034W        W31360   3.870  10.305   1.060
59035W        W31361   0.266   5.709   3.192
59036W        W31362  26.525  11.807  14.539
59037W        W31363  29.680  26.559  10.365
59038W        W31364  11.945  12.717  11.133
59039W        W31365  24.441   8.664  10.665
59040W        W31366   6.650   0.262  12.032
59041W        W31367   4.233  42.816  10.599
59042W        W31368  26.120  33.456  12.435
59043W        W31369   2.810   3.737   4.643
59044W        W31370  37.327  43.958   4.373
59045W        W31371  16.736  17.116  14.393
59046W        W31372   0.937  25.967   3.326
59047W        W31373  19.160   3.206   3.796
59048W        W31374  39.083  26.267   3.817
59049W        W31375  20.852  21.540  10.268
59050W        W31376  12.843  44.868  10.678
59051W        W31377  27.729  13.790  11.909
59052W        W31378   6.949  31.640  14.949
59053W        W31379  23.817  36.877   5.587
59054W        W31380  41.062   7.425   1.874
59055W        W31381  13.689  15.795   4.465
59056W        W31382   7.721  18.551  12.784
59057W        W31383  35.978  16.576  11.383
59058W        W31384  40.429   7.640   0.538
59059W        W31385  38.008  38.450   2.215
59060W        W31386  19.019   2.434  14.891
59061W        W31387  16.709  30.744  11.735
59062W        W31388   2.192  11.666  13.330
59063W        W31389  20.588  15.533  11.614
59064W        W31390   5.373  12.118   1.720
59065W        W31391   0.049   4.929   0.542
59066W        W31392  26.514  21.777   0.788
59067W        W31393  38.498  15.698   4.392
59068W        W31394  26.002  37.602  11.629
59069W        W31395   0.529  41.954   1.385
59070W        W31396  32.543   4.632   4.604
59071W        W31397  30.567  19.113  14.759
59072W        W31398   8.147  41.016  14.959
59073W        W31399  19.212  32.758  12.994
59074W        W31400   7.205  28.027  14.356
59075W        W31401  15.921   2.936   4.268
59076W        W31402  30.154  30.651   4.607
59077W        W31403  42.533  33.718  12.381
59078W        W31404   3.894   2.366  13.841
59079W        W31405   1.812  25.701   0.772
59080W        W31406   0.239  41.409  12.039
59081W        W31407   9.302  33.431  12.474
59082W        W31408   0.732  30.000   1.769
59083W        W31409   0.461  10.298   5.047
59084W        W31410  31.721  15.170   1.460
59085W        W31411  27.714  27.396  10.685
59086W        W31412   5.831  30.609   1.749
59087W        W31413  11.224  31.413   4.305
59088W        W31414  25.607  35.441  12.876
59089W        W31415   2.852  23.675  12.899
59090W        W31416  40.478   5.461  12.473
59091W        W31417  14.384  16.160   1.673
59092W        W31418  32.889   9.265  10.460
59093W        W31419   5.567  16.356  11.482
59094W        W31420  13.738  16.834  14.852
59095W        W31421  37.423  39.558   0.419
59096W        W31422  13.117  34.979  13.443
59097W        W31423   0.975  24.664  14.687
59098W        W31424  27.481  35.943  13.961
59099W        W31425  12.322  17.440  11.100
59100W        W31426  28.158  34.574  10.782
59101W        W31427  30.419  39.355   2.366
59102W        W31428  13.157   8.658  10.603
59103W        W31429  16.526  12.294  11.590
59104W        W31430   5.560  36.338   4.156
59105W        W31431  21.257   9.759   2.486
59106W        W31432  10.227  41.747   3.405
59107W        W31433  43.467  27.056   0.332
59108W        W31434  43.212  26.499  14.373
59109W        W31435  42.344  38.401   4.689
59110W        W31436  44.751   8.399  12.370
59111W        W31437  41.015  32.104   1.513
59112W        W31438  28.241  33.586   4.731
59113W        W31439  29.452  34.458  13.996
59114W        W31440  29.375  44.260   3.810
59115W        W31441  38.622  42.904   2.162
59116W        W31442   4.384  18.954  13.359
59117W        W31443  40.668   5.078  12.076
59118W        W31444  19.244  16.777  13.318
59119W        W31445   4.367  31.815   0.058
59120W        W31446  17.257   7.687   4.245
59121W        W31447  23.606  15.643  12.442
59122W        W31448  15.740  14.014  10.687
59123W        W31449  42.498  32.998   4.914
59124W        W31450  28.512  26.122   4.302
59125W        W31451  33.950  12.679   2.902
59126W        W31452  10.579  20.697   0.871
59127W        W31453  10.222   8.172  14.444
59128W        W31454  29.852  25.914   4.184
59129W        W31455  12.659  24.421   0.833
59130W        W31456  15.305  30.593  14.321
59131W        W31457  37.956  36.047  14.437
59132W        W31458  37.487   7.706   2.915
59133W        W31459   8.270  38.088  11.925
59134W        W31460  21.828  36.000  14.472
59135W        W31461  37.040  30.462   3.544
59136W        W31462   9.211  32.713   1.851
59137W        W31463  18.733   3.246  14.001
59138W        W31464  42.509  33.919   3.696
59139W        W31465  38.866  44.260  10.864
59140W        W31466   7.374  35.408  11.551
59141W        W31467  41.563  19.359  11.963
59142W        W31468  39.083  33.976  14.380
59143W        W31469  26.660  36.021   3.801
59144W        W31470  40.276   6.123  11.969
59145W        W31471  11.389  37.248  10.229
59146W        W31472  16.601  37.188  10.953
59147W        W31473   9.865  43.724  14.987
59148W        W31474  39.382   5.980  12.118
59149W        W31475  36.418   3.194   0.231
59150W        W31476  26.525  43.985  13.954
59151W        W31477  16.164  30.418  11.101
59152W        W31478   1.693  37.515  13.374
59153W        W31479  14.133  25.491  14.755
59154W        W31480  13.425  35.540   0.835
59155W        W31481  39.076  35.040   0.985
59156W        W31482  34.055  39.286   3.374
59157W        W31483  14.068  39.634   1.699
59158W        W31484  12.181  23.719  13.449
59159W        W31485  27.703  29.233  13.512
59160W        W31486  17.113  18.695   0.891
59161W        W31487  14.172  18.173   0.370
59162W        W31488  13.322  30.439   3.641
59163W        W31489  17.875  10.689   3.240
59164W        W31490  11.290   6.061   2.397
59165W        W31491  30.502  38.052  11.393
59166W        W31492  31.108  41.531  11.598
59167W        W31493  30.899  42.964  11.687
59168W        W31494  34.173  42.116   3.695
59169W        W31495  18.064  43.436   0.222
59170W        W31496   9.146  26.124   2.826
59171W        W31497  10.370  32.182  13.054
59172W        W31498   3.771  26.938  14.879
59173W        W31499  33.169  39.066   5.057
59174W        W31500   9.168  42.592  12.949
59175W        W31501   6.862   5.409  11.893
59176W        W31502  12.779  44.044   4.637
59177W        W31503  31.781  11.176  12.399
59178W        W31504   9.611  33.026   2.569
59179W        W31505  17.833   3.930   0.378
59180W        W31506  32.782  14.175  10.527
59181W        W31507  38.287   6.849  13.451
59182W        W31508  41.885  18.505   1.270
59183W        W31509  20.968  28.093  12.516
59184W        W31510  43.469  17.111   1.717
59185W        W31511   5.272  43.829  13.454
59186W        W31512  42.440   4.969  11.659
59187W        W31513  27.785  21.576   4.846
59188W        W31514  32.382  42.852   0.295
59189W        W31515  41.925  10.530   3.362
59190W        W31516  35.794  38.911   0.272
59191W        W31517   2.207  28.457   4.339
59192W        W31518  36.077  33.631  10.959
59193W        W31519  29.062  39.019   4.988
59194W        W31520   2.499  25.458   2.350
59195W        W31521  27.452  11.494  13.479
59196W        W31522  11.246  23.296  11.079
59197W        W31523  10.396  38.374   3.313
59198W        W31524  42.975  16.573   1.336
59199W        W31525  30.463  42.771  13.346
59200W        W31526  11.346   6.280   3.769
59201W        W31527   7.387  41.424   0.413
59202W        W31528  34.161   1.810   0.288
59203W        W31529  40.705  22.161  13.893
59204W        W31530  36.598  17.193  10.418
59205W        W31531  30.448  16.068  12.803
59206W        W31532  12.174   6.226  11.197
59207W        W31533  41.330  31.872  13.878
59208W        W31534   8.667   9.775  12.526
59209W        W31535  21.502  41.564  14.646
59210W        W31536  13.118  18.082   4.621
59211W        W31537  31.086  22.776  14.349
59212W        W31538   4.501  39.111   3.615
59213W        W31539  15.611   2.761  14.522
59214W        W31540   2.366  39.022   0.445
59215W        W31541  24.658  28.075   0.221
59216W        W31542  32.979   6.432  12.571
59217W        W31543  32.401  22.072   2.143
59218W        W31544   3.431   6.186   0.849
59219W        W31545  24.927  36.549   2.865
59220W        W31546  19.766   6.363   2.211
59221W        W31547  23.274  24.757   1.274
59222W        W31548  28.072  37.931   4.321
59223W        W31549  23.121   4.474   2.235
59224W        W31550  20.562   6.017   0.190
59225W        W31551  23.259  11.298   3.262
59226W        W31552  42.693  26.033   2.450
59227W        W31553  25.675  16.005   3.150
59228W        W31554  31.049  17.567  12.536
59229W        W31555  29.533  38.547  13.525
59230W        W31556  21.780  13.348   2.316
59231W        W31557  22.290   0.891   1.002
59232W        W31558  40.345  21.995   3.835
59233W        W31559  14.996   5.340   1.647
59234W        W31560   0.501   3.649   4.210
59235W        W31561  14.687  25.091   0.967
59236W        W31562  14.416  15.815  14.361
59237W        W31563  38.741   5.763  11.570
59238W        W31564  43.746  25.247   0.377
59239W        W31565  44.359  24.061   0.776
59240W        W31566  17.635  41.837   4.561
59241W        W31567   8.280  16.588   1.468
59242W        W31568  40.738   1.214   0.558
59243W        W31569  12.168  23.655   0.797
59244W        W31570  43.973   9.938  12.017
59245W        W31571  11.814  24.107  11.755
59246W        W31572  34.947  40.782   1.846
59247W        W31573  42.372  41.832  11.482
59248W        W31574  32.488   3.436   3.750
59249W        W31575  15.425  25.291  11.553
59250W        W31576  44.054  27.015  12.550
59251W        W31577   4.499  40.074   3.057
59252W        W31578  34.659   9.198   1.936
59253W        W31579   1.878  19.516  11.054
59254W        W31580  17.642  13.893   4.606
59255W        W31581  15.243  25.706   4.703
59256W        W31582  15.341  10.766  12.754
59257W        W31583  20.366   4.170  11.954
59258W        W31584   2.203  25.680   4.966
59259W        W31585   1.491   7.127  12.924
59260W        W31586  34.144  11.329   1.293
59261W        W31587  44.746  18.720  14.278
59262W        W31588  20.579  18.054  14.920
59263W        W31589  38.980  22.593  13.775
59264W        W31590  30.036   4.687  12.092
59265W        W31591  32.135  32.110   2.471
59266W        W31592  25.261   4.746   1.570
59267W        W31593  14.832  41.958  12.840
59268W        W31594  13.373  41.527   3.656
59269W        W31595  31.940  40.825  10.840
59270W        W31596   2.989  34.508  11.461
59271W        W31597  25.302  16.096  10.350
59272W        W31598  11.629  22.302  11.187
59273W        W31599   7.955  30.269  11.129
59274W        W31600  11.648  39.577   3.511
59275W        W31601  37.455   9.857   0.004
59276W        W31602  42.467  14.950   0.503
59277W        W31603   0.911  28.269  13.966
59278W        W31604  18.137  10.291   3.566
59279W        W31605  14.550   5.418   1.908
59280W        W31606  32.352  37.063   2.918
59281W        W31607  14.245  29.451  13.434
59282W        W31608  28.574   0.714  13.038
59283W        W31609  24.608  33.786   3.303
59284W        W31610  25.118   7.331   4.242
59285W        W31611   8.794   3.221  10.699
59286W        W31612  13.761  23.465   3.080
59287W        W31613  30.933  16.151   4.558
59288W        W31614   1.619   3.002  13.955
59289W        W31615  12.255   8.266   2.754
59290W        W31616   9.156   5.871   0.879
59291W        W31617  42.019  40.985  14.006
59292W        W31618   2.362  32.161   0.746
59293W        W31619  31.662  11.883   3.887
59294W        W31620  39.873  31.215  11.945
59295W        W31621   9.004  19.857   1.222
59296W        W31622  35.094   2.831  13.207
59297W        W31623  16.020  23.622   4.088
59298W        W31624  12.787  34.245   4.953
59299W        W31625  21.763  21.716   3.277
59300W        W31626  42.978  29.642  11.297
59301W        W31627  37.096  15.847   4.796
59302W        W31628  12.748  42.405   1.797
59303W        W31629  12.325  37.027   4.764
59304W        W31630  39.485  31.784  12.572
59305W        W31631  35.607  41.123  14.922
59306W        W31632  27.873  40.358  12.312
59307W        W31633  38.824   9.379   1.752
59308W        W31634  40.498  17.896   2.001
59309W        W31635  39.020  24.776  14.890
59310W        W31636  10.413  20.817   4.566
59311W        W31637  31.534  36.834   4.212
59312W        W31638   4.437  12.840   5.038
59313W        W31639  41.548  37.807  11.956
59314W        W31640  33.247  18.134   3.686
59315W        W31641  16.047  33.840   2.262
59316W        W31642  11.181  20.461  14.411
59317W        W31643  13.479  38.840   2.754
59318W        W31644  23.928  38.882   1.947
59319W        W31645  12.768   6.702   3.774
59320W        W31646   8.417  31.048   4.614
59321W        W31647  26.766  42.018   2.766
59322W        W31648   1.978  27.973   3.697
59323W        W31649  43.453  28.928  14.762
59324W        W31650  39.778   1.008   4.733
59325W        W31651  37.858  32.445  13.374
59326W        W31652   3.926  29.104   3.200
59327W        W31653  34.473   2.779  12.494
59328W        W31654  36.656   3.854  14.564
59329W        W31655   3.512   6.735   2.830
59330W        W31656  14.523  15.163   2.351
59331W        W31657  39.369  10.550   0.430
59332W        W31658  26.938  32.684   0.439
59333W        W31659  28.616  38.842   0.787
59334W        W31660   8.854  25.253   3.960
59335W        W31661  44.575   9.215   3.375
59336W        W31662  17.625  15.889   0.063
59337W        W31663  37.040   3.490  14.815
59338W        W31664   8.314  43.464  12.489
59339W        W31665  39.566  44.952   2.968
59340W        W31666   4.465   2.882   4.616
59341W        W31667   4.818  28.592  11.021
59342W        W31668  23.710  38.430   4.594
59343W        W31669   1.377  28.732   2.604
59344W        W31670  31.516  15.689   1.698
59345W        W31671   9.751  32.287   0.328
59346W        W31672   0.312   5.993  11.475
59347W        W31673  23.277   4.907  10.675
59348W        W31674  37.303  21.123  14.376
59349W        W31675   2.983  28.627  14.042
59350W        W31676  20.717  14.625  12.351
59351W        W31677  14.676  39.325   2.816
59352W        W31678  17.991  28.989  12.967
59353W        W31679  29.434  28.383  10.181
59354W        W31680   3.728  27.002  12.900
59355W        W31681   2.258  39.782  13.249
59356W        W31682  16.027  44.399  11.143
59357W        W31683   4.000  40.419   2.899
59358W        W31684   6.318   5.471  14.033
59359W        W31685  20.903   5.342   1.585
59360W        W31686  19.427  18.554   0.860
59361W        W31687  40.760  17.584   2.358
59362W        W31688   2.435  38.294  14.058
59363W        W31689  32.718  30.216  14.950
59364W        W31690   6.830  13.942   3.265
59365W        W31691  18.869  22.226  14.831
59366W        W31692  14.635  43.542  11.566
59367W        W31693  18.961   4.376  13.081
59368W        W31694  26.727   9.185   2.656
59369W        W31695   0.681  27.924  11.915
59370W        W31696  12.376  37.039   2.489
59371W        W31697  15.187   6.029   0.999
59372W        W31698   6.764  20.051  13.103
59373W        W31699  39.370  32.072   2.761
59374W        W31700  27.201  35.951   2.255
59375W        W31701  29.794  13.718   3.579
59376W        W31702  26.081  33.540  10.640
59377W        W31703  33.413  18.570   1.895
59378W        W31704  32.131  43.370   4.927
59379W        W31705   1.273   8.766   1.823
59380W        W31706  23.314  31.040  12.427
59381W        W31707  19.605  10.355   1.242
59382W        W31708  17.703   8.422  11.455
59383W        W31709  36.538  26.916  13.832
59384W        W31710  13.863  42.233  13.632
59385W        W31711  38.618  41.931  11.561
59386W        W31712  31.192  43.736  11.214
59387W        W31713  41.543   4.848  11.897
59388W        W31714   0.860  31.973  13.535
59389W        W31715   9.369  35.390   1.445
59390W        W31716  33.726  38.944   4.121
59391W        W31717  23.266  13.739   2.745
59392W        W31718  29.536  11.882   4.248
59393W        W31719  29.683  26.280  13.678
59394W        W31720  11.904  40.481   3.844
59395W        W31721  13.663  44.191   3.681
59396W        W31722  17.816   1.236   1.484
59397W        W31723  17.174  27.793   0.440
59398W        W31724   1.430  27.139  13.930
59399W        W31725   6.492  15.961   1.875
59400W        W31726  32.921  33.618   1.351
59401W        W31727   4.439  19.589  14.350
59402W        W31728   4.965  21.241   4.668
59403W        W31729  26.216   4.550  14.072
59404W        W31730   9.218  18.642  13.011
59405W        W31731  24.685   2.380   4.716
59406W        W31732  41.037  32.279  10.616
59407W        W31733  37.362  28.809   4.702
59408W        W31734  41.515  23.739   3.136
59409W        W31735  15.137  16.380  12.203
59410W        W31736  36.817  28.553   0.953
59411W        W31737  10.660   8.006   0.793
59412W        W31738  30.345   4.741  14.767
59413W        W31739  30.038   6.230  13.881
59414W        W31740   0.316  24.471   0.289
59415W        W31741  34.628   2.295   2.986
59416W        W31742  14.082  24.526   4.124
59417W        W31743  22.353  31.891   1.405
59418W        W31744   1.541  21.608  12.971
59419W        W31745   2.285  10.815  14.261
59420W        W31746  11.152  19.583   3.653
59421W        W31747   9.390  28.426  12.604
59422W        W31748   7.227  38.455   0.780
59423W        W31749  11.191  38.833   1.882
59424W        W31750   3.498  22.075   0.327
59425W        W31751  38.980  28.545  12.082
59426W        W31752  32.785  32.532   4.950
59427W        W31753  34.592  10.699   4.440
59428W        W31754  28.039  41.604   0.721
59429W        W31755  21.060  11.112   3.219
59430W        W31756   4.876  36.314  13.633
59431W        W31757   5.737   3.650  10.530
59432W        W31758   5.610   8.622   2.755
59433W        W31759  10.603   0.805   0.013
59434W        W31760   2.237  42.357   4.677
59435W        W31761   8.343  44.045  12.594
59436W        W31762  31.653  15.469   0.484
59437W        W31763   5.814  20.871   0.871
59438W        W31764  24.474  42.373   0.144
59439W        W31765   9.243  16.201  13.940
59440W        W31766   7.182  34.149   4.171
59441W        W31767  42.744  14.670   2.659
59442W        W31768   7.024  36.118  10.733
59443W        W31769  13.623  26.083   4.341
59444W        W31770   5.839  40.784   2.130
59445W        W31771  43.783   4.189   0.372
59446W        W31772  10.341  30.627  14.593
59447W        W31773  39.517  37.308  11.828
59448W        W31774   5.003  38.571   0.266
59449W        W31775  15.363  16.006  11.917
59450W        W31776   8.689  25.550   3.046
59451W        W31777  35.608  24.536   3.326
59452W        W31778   5.785  15.854   3.206
59453W        W31779  31.181  11.795  12.559
59454W        W31780  12.153  19.226  11.665
59455W        W31781  37.018  17.092   3.899
59456W        W31782  29.599  39.579   0.340
59457W        W31783  19.277  26.072  14.458
59458W        W31784  31.703   7.495   1.247
59459W        W31785  12.599  18.278  11.938
59460W        W31786   4.994   0.940   0.386
59461W        W31787  23.978  19.016  11.452
59462W        W31788  28.122  44.074  11.659
59463W        W31789  26.272  31.181  12.855
59464W        W31790  41.598  28.965  14.373
59465W        W31791  39.272   9.307   0.025
59466W        W31792  25.795  10.938  11.969
59467W        W31793  30.251  25.810   2.812
59468W        W31794   8.656  36.554  13.047
59469W        W31795  12.796  13.840   3.276
59470W        W31796   6.382  16.136   2.842
59471W        W31797  22.631  16.157  12.538
59472W        W31798  32.177  39.614  12.002
59473W        W31799  19.337  38.753  10.649
59474W        W31800   1.733  38.357   3.364
59475W        W31801   7.268  10.693  12.807
59476W        W31802  36.898  23.536  13.494
59477W        W31803  35.069  34.571  11.929
59478W        W31804  26.723  43.789   3.196
59479W        W31805  32.081   5.518   4.579
59480W        W31806  31.257  31.980   3.912
59481W        W31807  29.237  35.049   1.910
59482W        W31808   6.245   2.245   4.059
59483W        W31809  18.167  26.447  11.784
59484W        W31810  26.223  17.907   9.567
59485W        W31811  25.116   8.191  11.249
59486W        W31812  39.547  31.182   2.144
59487W        W31813  14.092  20.546   2.760
59488W        W31814  12.818  14.236  12.512
59489W        W31815  24.063   3.465   5.040
59490W        W31816  43.948  12.316  10.959
59491W        W31817  43.482  30.949  13.292
59492W        W31818   6.668   9.337   1.906
59493W        W31819  34.517   9.399  11.514
59494W        W31820  19.212   8.103   2.786
59495W        W31821  33.624  10.780  14.647
59496W        W31822  18.273  39.385  13.045
59497W        W31823  22.294  36.841   0.797
59498W        W31824  44.772  28.598  11.933
59499W        W31825  21.241  24.675  12.502
59500W        W31826  33.545  21.773  11.239
59501W        W31827  24.725  14.043   4.016
59502W        W31828  44.605  32.060   0.339
59503W        W31829  12.662  25.570  12.922
59504W        W31830  27.697   3.279   1.473
59505W        W31831   4.951  25.394   4.226
59506W        W31832  30.666  12.334   0.320
59507W        W31833  25.625  44.848   1.255
59508W        W31834  25.860  40.931  11.143
59509W        W31835  41.198  24.950   3.256
59510W        W31836  19.505  39.916  12.389
59511W        W31837  43.784  25.358   1.269
59512W        W31838   6.001  40.707  12.589
59513W        W31839  39.600   2.352  11.950
59514W        W31840   8.998  10.986   0.627
59515W        W31841   8.011  32.563   1.419
59516W        W31842  42.274  22.545   4.508
59517W        W31843  12.191  14.288  14.347
59518W        W31844  28.705  17.167  14.799
59519W        W31845  24.124  26.666  14.259
59520W        W31846  14.362   4.558  11.301
59521W        W31847   0.252   3.141   0.222
59522W        W31848  26.152   1.177   2.454
59523W        W31849  41.306  23.264  12.589
59524W        W31850  43.793   7.889  12.952
59525W        W31851  28.228  41.433  11.134
59526W        W31852  29.490  43.522  11.188
59527W        W31853  21.753  41.947  14.897
59528W        W31854   4.803  36.715  12.054
59529W        W31855  32.008  36.983   4.404
59530W        W31856   7.187   5.531   0.204
59531W        W31857  32.014  34.754   3.233
59532W        W31858  39.423  35.900   0.899
59533W        W31859  22.461  37.333  12.069
59534W        W31860  20.886  36.103  10.098
59535W        W31861  37.434  33.915  14.191
59536W        W31862  44.207  14.930   0.137
59537W        W31863  33.460  26.530  10.751
59538W        W31864  30.617  24.370   0.850
59539W        W31865  43.513  18.354   0.524
59540W        W31866  31.924  22.027   4.231
59541W        W31867  33.006  21.693   2.778
59542W        W31868  32.418   6.874   4.653
59543W        W31869  25.943  44.834   1.663
59544W        W31870  22.466  30.191  14.207
59545W        W31871  14.634  25.695  12.090
59546W        W31872   6.633  37.959  10.500
59547W        W31873  22.779  19.231   1.851
59548W        W31874  23.828  10.919   3.672
59549W        W31875   3.177  29.151   4.115
59550W        W31876  29.007  19.500  12.015
59551W        W31877   8.160  43.885   3.015
59552W        W31878  11.839  27.485   0.480
59553W        W31879  31.451   8.030   4.290
59554W        W31880  38.645   8.700   1.416
59555W        W31881  24.888  28.743  11.088
59556W        W31882   8.709  44.789  13.477
59557W        W31883  24.744  42.527  11.467
59558W        W31884  27.688  26.556  14.683
59559W        W31885  44.036  19.221   4.135
59560W        W31886  32.081  31.540   0.649
59561W        W31887  20.532  14.582   2.570
59562W        W31888  43.302  31.175  12.299
59563W        W31889  22.456  25.024  13.122
59564W        W31890  14.722   5.406  14.309
59565W        W31891  14.354   6.265  11.545
59566W        W31892   2.777  24.230  14.336
59567W        W31893  20.267   0.476  11.497
59568W        W31894   5.322   1.860  10.653
59569W        W31895   2.819   3.076  13.123
59570W        W31896  14.460  35.716  10.225
59571W        W31897  37.894  22.500   2.635
59572W        W31898  44.318  12.400  13.703
59573W        W31899   3.879  40.267  10.107
59574W        W31900  27.228  26.937  14.963
59575W        W31901  23.027  21.797  11.625
59576W        W31902  17.818  12.344  12.646
59577W        W31903   3.416   6.234   2.655
59578W        W31904  36.288  16.632  12.315
59579W        W31905  24.753  24.934  14.424
59580W        W31906   7.689   3.414  14.019
59581W        W31907  32.040  19.615   4.593
59582W        W31908  14.666  10.752  11.967
59583W        W31909   4.342  32.167   4.781
59584W        W31910  32.105  19.985  12.094
59585W        W31911  11.650  26.205   2.864
59586W        W31912  28.420  39.993  11.144
59587W        W31913  16.715  15.419  11.016
59588W        W31914  31.180  41.706  13.854
59589W        W31915  23.037  11.404  11.523
59590W        W31916   3.911  23.810   4.345
59591W        W31917  27.689   2.004  13.331
59592W        W31918   3.938   0.222   1.558
59593W        W31919  24.504  40.090  11.184
59594W        W31920  38.225  16.258   1.214
59595W        W31921   4.877  29.758   4.524
59596W        W31922   9.350  22.666  10.231
59597W        W31923   1.773   8.950   2.253
59598W        W31924  10.921  15.248  10.526
59599W        W31925  22.689  10.347   3.687
59600W        W31926  42.696  12.417  11.103
59601W        W31927  11.343  37.808  14.843
59602W        W31928   1.229   6.705  12.813
59603W        W31929  35.432  24.708   4.644
59604W        W31930  41.409  40.763  13.274
59605W        W31931  35.489  11.256   5.477
59606W        W31932   4.483  10.868   2.832
59607W        W31933  15.107  38.284   3.145
59608W        W31934  42.794   3.858   4.826
59609W        W31935  22.670  15.724   0.001
59610W        W31936  35.878  37.448   3.734
59611W        W31937  29.483  30.509  12.498
59612W        W31938  38.799   0.757   2.153
59613W        W31939  31.059   9.354   4.126
59614W        W31940   2.349  44.595  11.958
59615W        W31941   1.945   2.337  14.811
59616W        W31942  30.239  25.758  14.050
59617W        W31943  30.475   5.241   0.765
59618W        W31944  41.279  14.919   3.686
59619W        W31945  41.461  11.920  11.194
59620W        W31946  38.359   9.418  11.554
59621W        W31947  14.464  16.568   2.444
59622W        W31948  13.318  17.193  10.521
59623W        W31949  39.234  13.319   0.745
59624W        W31950  42.873  10.577   4.543
59625W        W31951  23.849  23.006   3.859
59626W        W31952  10.660  17.532  14.303
59627W        W31953  10.231  41.787  10.575
59628W        W31954  37.982   9.917   3.645
59629W        W31955  27.087  44.986  10.623
59630W        W31956  13.321  28.387  12.112
59631W        W31957  28.620   8.934   4.329
59632W        W31958   6.344  44.765  13.591
59633W        W31959  23.706  10.285   0.367
59634W        W31960  41.957  29.746  11.507
59635W        W31961   5.634  42.906   1.806
59636W        W31962  34.241  27.715   2.398
59637W        W31963   1.824   6.725  11.700
59638W        W31964  17.918  32.213  11.017
59639W        W31965   4.801  27.021  10.435
59640W        W31966  26.595  40.372  11.386
59641W        W31967  39.546  36.039   2.479
59642W        W31968  20.019   1.687   3.105
59643W        W31969  42.941  43.377  10.492
59644W        W31970  30.331  12.086  14.407
59645W        W31971  43.845  22.869  11.670
59646W        W31972  15.711  28.756  12.326
59647W        W31973   5.228  11.622  14.203
59648W        W31974  41.272  11.231  13.735
59649W        W31975  19.201  34.648   0.824
59650W        W31976  44.858  44.511  10.326
59651W        W31977  27.588   9.148  11.174
59652W        W31978   4.815  28.121   2.933
59653W        W31979  30.365  38.144  14.526
59654W        W31980  29.910  18.462  10.795
59655W        W31981  27.672  33.449   3.889
59656W        W31982   3.189  37.278   1.251
59657W        W31983   9.349   1.822  10.633
59658W        W31984  25.961  42.019  13.460
59659W        W31985  12.283   3.422  10.863
59660W        W31986  29.126  28.510   0.863
59661W        W31987   6.709   2.488  14.042
59662W        W31988  39.900  23.532   4.539
59663W        W31989  37.775  10.923   1.293
59664W        W31990  26.609  11.245  10.615
59665W        W31991  41.777   2.712  13.904
59666W        W31992  11.652  21.904   1.950
59667W        W31993   5.617   0.989  14.021
59668W        W31994  24.965   9.394   1.925
59669W        W31995  24.918  10.208   3.329
59670W        W31996   5.724  25.918   3.619
59671W        W31997  43.728   6.425   0.865
59672W        W31998   4.219   4.828  13.250
59673W        W31999  42.908  13.244  10.326
59674W        W32000  12.632   6.578   2.351
59675W        W32001  35.491  11.766   2.939
59676W        W32002  16.891   3.830  11.662
59677W        W32003  15.100  19.598   1.384
59678W        W32004   5.808  12.884   2.401
59679W        W32005  12.910  38.189   1.087
59680W        W32006  23.798  28.225  12.012
59681W        W32007  12.039  12.453  11.544
59682W        W32008   8.916  15.917  12.126
59683W        W32009  28.526  14.660   1.226
59684W        W32010  17.978  40.019   3.264
59685W        W32011  24.592   6.434   1.476
59686W        W32012  35.316  29.166   2.275
59687W        W32013   1.322  21.610  14.358
59688W        W32014   8.162  14.125  12.812
59689W        W32015  12.823  40.478  11.355
59690W        W32016   1.752  35.491  14.064
59691W        W32017   1.794  29.296   1.879
59692W        W32018  30.890  23.716  11.518
59693W        W32019  16.766  14.591   2.965
59694W        W32020  11.717  14.070  11.114
59695W        W32021  44.584  35.306   0.974
59696W        W32022  14.858  30.649  11.707
59697W        W32023  42.797  27.722  10.760
59698W        W32024  18.141  12.642   3.450
59699W        W32025  14.304  39.319  12.198
59700W        W32026  30.061  15.916   1.003
59701W        W32027  24.352  18.683   4.997
59702W        W32028  16.117  37.043   4.190
59703W        W32029  39.127  26.659   1.001
59704W        W32030  41.270  38.586  13.044
59705W        W32031  24.519  39.882  13.528
59706W        W32032   2.299  28.972  13.810
59707W        W32033  43.923   3.943  12.255
59708W        W32034  11.451  42.504  11.184
59709W        W32035   6.230  34.144  13.880
59710W        W32036   3.190  18.239   3.732
59711W        W32037  22.687  12.860   2.105
59712W        W32038  20.319  37.349   4.157
59713W        W32039   0.447   3.379  14.793
59714W        W32040  33.969  44.700  14.379
59715W        W32041   5.243  24.839   4.761
59716W        W32042  19.454  42.843  13.381
59717W        W32043   3.781  26.626  11.203
59718W        W32044  36.304  42.482  11.459
59719W        W32045  13.021  17.182   3.191
59720W        W32046   8.251   0.453  12.467
59721W        W32047   0.357  38.287   2.832
59722W        W32048  28.121  37.252   2.699
59723W        W32049  11.256  32.412   4.163
59724W        W32050  34.727   3.394   4.403
59725W        W32051  23.152  31.590   0.720
59726W        W32052  39.611  35.182   1.842
59727W        W32053   7.746  11.665   4.182
59728W        W32054  30.115   2.921   3.671
59729W        W32055  29.105  31.051   2.436
59730W        W32056  33.410  32.983  10.572
59731W        W32057   3.851  40.698  13.273
59732W        W32058  14.902  14.820   0.472
59733W        W32059  44.941  34.394   1.882
59734W        W32060   7.960  15.752  13.559
59735W        W32061  41.783  32.519   3.742
59736W        W32062  35.806  32.960   4.628
59737W        W32063   4.198   1.794  10.558
59738W        W32064  28.700  32.356   2.232
59739W        W32065  26.958  22.616  11.065
59740W        W32066  40.380  41.312  13.316
59741W        W32067  33.685  20.900  10.342
59742W        W32068  12.663  11.805   0.694
59743W        W32069   8.616  19.604  13.230
59744W        W32070  32.056  18.285   3.251
59745W        W32071  23.616   2.432   4.585
59746W        W32072   2.506  20.546  11.105
59747W        W32073  41.811  10.426  12.030
59748W        W32074  28.184  42.658  12.516
59749W        W32075  41.753  26.707  13.432
59750W        W32076   0.726  23.135   1.652
59751W        W32077  10.471  42.569  14.376
59752W        W32078  14.885  11.200  12.635
59753W        W32079  13.054  44.299   4.261
59754W        W32080  14.884  11.294  10.767
59755W        W32081  30.878   0.954   1.717
59756W        W32082   7.957  42.058   2.783
59757W        W32083  10.477  23.971  12.780
59758W        W32084  12.649  23.536  14.716
59759W        W32085   5.809  17.660  12.592
59760W        W32086  20.144  36.423  12.340
59761W        W32087  33.946  14.125   4.901
59762W        W32088  35.326  35.141  14.399
59763W        W32089  10.932  44.400   3.680
59764W        W32090  31.539  29.363  11.477
59765W        W32091   9.292  41.430   2.374
59766W        W32092   6.159  15.126   2.531
59767W        W32093   2.446  37.212  10.763
59768W        W32094  26.002  15.054  10.592
59769W        W32095  34.369  28.963   3.945
59770W        W32096   1.266  22.583   0.017
59771W        W32097  34.015  16.680   1.748
59772W        W32098  31.295  32.443  11.072
59773W        W32099  29.677  18.243   2.352
59774W        W32100  32.032  27.222   3.444
59775W        W32101  19.697   0.808   0.404
59776W        W32102   3.920  28.653   1.893
59777W        W32103  31.130   8.100  11.607
59778W        W32104  44.646  10.156  13.641
59779W        W32105  15.358  38.798   0.504
59780W        W32106  34.856  18.280   0.875
59781W        W32107  39.262  40.082  12.406
59782W        W32108  20.602  41.871   1.327
59783W        W32109  41.622  16.904  11.945
59784W        W32110  23.116  39.745   3.297
59785W        W32111   5.902   4.915   3.725
59786W        W32112  28.923  12.732  14.358
59787W        W32113  16.612  19.086   3.630
59788W        W32114  22.767   0.744  13.421
59789W        W32115  11.189  27.633   0.944
59790W        W32116   7.229  34.634   2.849
59791W        W32117  29.537  16.700  11.970
59792W        W32118  30.621   8.200   1.521
59793W        W32119  16.798   1.916  11.936
59794W        W32120  25.462  39.480   2.412
59795W        W32121  18.005  30.339   4.207
59796W        W32122  26.070   9.322   0.046
59797W        W32123  23.494  21.581  14.755
59798W        W32124  20.538  18.544  13.472
59799W        W32125  41.474  43.523   1.175
59800W        W32126  24.461   3.356  10.596
59801W        W32127  10.305  21.183  12.442
59802W        W32128  12.919  15.041  13.457
59803W        W32129  39.823  11.102  14.338
59804W        W32130  29.202   4.180  13.729
59805W        W32131   3.952  12.280  10.141
59806W        W32132  20.243   9.654  14.281
59807W        W32133   2.650  31.538   4.602
59808W        W32134  27.526  23.756   2.387
59809W        W32135   6.210   0.948  12.096
59810W        W32136   4.234  18.479  10.536
59811W        W32137  32.474   2.332   1.336
59812W        W32138   3.251  16.551  10.628
59813W        W32139   4.750  35.411  13.369
59814W        W32140  22.529  19.563   2.217
59815W        W32141  40.078  41.997  13.114
59816W        W32142  19.083   0.036   0.413
59817W        W32143  34.330  15.742   4.543
59818W        W32144  42.298  12.040   2.792
59819W        W32145  20.078  14.265   2.368
59820W        W32146  36.913  16.293   4.577
59821W        W32147  23.455  44.085  11.467
59822W        W32148  41.986  23.484   0.710
59823W        W32149   3.154  27.946   0.265
59824W        W32150  15.275   4.752  13.881
59825W        W32151  27.041  40.937   4.211
59826W        W32152   7.176  36.571   2.545
59827W        W32153   9.703  33.091   0.710
59828W        W32154  35.351  11.793  11.606
59829W        W32155  16.283  41.244  13.408
59830W        W32156  28.640  18.043   4.151
59831W        W32157  11.299  23.644   2.225
59832W        W32158   2.178  34.639   3.140
59833W        W32159   0.259  19.213  12.860
59834W        W32160   7.899   4.148   0.937
59835W        W32161  24.541  10.375  12.477
59836W        W32162  38.108   6.769   4.887
59837W        W32163  28.561  27.949  11.426
59838W        W32164  17.768  26.694  12.052
59839W        W32165  40.511  11.358  13.009
59840W        W32166   4.617  27.405  14.031
59841W        W32167  37.794  18.675  10.638
59842W        W32168  36.953   3.265   2.768
59843W        W32169   1.821  20.672   2.587
59844W        W32170   2.311  18.021  12.248
59845W        W32171  11.564  11.575   3.252
59846W        W32172  26.617  38.854  11.875
59847W        W32173   5.831  27.475   0.730
59848W        W32174  15.277  11.237  14.268
59849W        W32175  34.111  37.002   3.408
59850W        W32176  11.451   4.832  11.965
59851W        W32177  16.184  25.721  10.692
59852W        W32178  41.983  10.717   0.849
59853W        W32179   7.430  36.214   2.243
59854W        W32180  14.390   8.189   3.230
59855W        W32181  13.740  37.002  14.308
59856W        W32182  10.766   5.290   0.382
59857W        W32183  26.050   7.506   4.328
59858W        W32184  31.915   1.407   0.392
59859W        W32185  28.056  20.491   3.386
59860W        W32186   2.873   2.803  11.610
59861W        W32187   5.324  33.437   3.367
59862W        W32188  25.885  13.128   3.043
59863W        W32189  27.973  22.064   3.282
59864W        W32190  21.079  35.891  13.944
59865W        W32191  23.908  39.793   1.459
59866W        W32192  29.614  24.298  10.092
59867W        W32193  29.634  43.831   3.655
59868W        W32194  40.492  11.074   1.011
59869W        W32195   2.325  21.504   2.632
59870W        W32196   6.821  39.994  12.076
59871W        W32197  12.734  14.721   0.732
59872W        W32198   5.345  35.280  10.693
59873W        W32199  28.044  24.194  10.897
59874W        W32200  31.397   1.477   4.740
59875W        W32201  25.080   9.770  12.829
59876W        W32202   6.041  16.298  11.280
59877W        W32203   9.669  27.396  13.905
59878W        W32204  18.127  25.154  13.542
59879W        W32205  30.567   7.329   0.829
59880W        W32206   7.280  34.095  13.596
59881W        W32207  26.499   6.007   3.685
59882W        W32208  21.285   1.855   3.657
59883W        W32209   7.787  30.286  12.925
59884W        W32210   6.147  15.562   1.747
59885W        W32211  11.499  14.739   1.290
59886W        W32212  28.678  32.599   3.093
59887W        W32213  33.460  15.827  10.638
59888W        W32214  30.034  18.302   4.527
59889W        W32215  12.764   6.240  10.550
59890W        W32216   5.876  27.121  14.374
59891W        W32217   2.174  23.171  12.133
59892W        W32218  15.579   1.247   9.960
59893W        W32219  36.097   6.394  11.513
59894W        W32220  39.990  20.192   3.356
59895W        W32221  23.738   6.762   3.238
59896W        W32222  44.407  42.412   4.763
59897W        W32223  28.503   4.202   4.602
59898W        W32224  27.116  12.268   1.723
59899W        W32225  40.659   4.416  12.959
59900W        W32226   7.171  40.504  14.031
59901W        W32227  19.310   2.875   0.667
59902W        W32228  38.515  12.866  13.004
59903W        W32229  33.920  30.565   1.994
59904W        W32230   6.729   7.578  13.298
59905W        W32231  29.067  35.970  14.937
59906W        W32232   4.914  33.352   1.205
59907W        W32233  43.554   1.957  11.248
59908W        W32234  31.105   3.491   2.127
59909W        W32235  35.040  33.914   4.180
59910W        W32236   1.672  31.026  11.077
59911W        W32237  21.312  15.388  11.124
59912W        W32238  26.520  35.470   3.655
59913W        W32239  37.864  35.955   1.816
59914W        W32240  21.612   2.335   4.576
59915W        W32241   0.249  28.235  13.578
59916W        W32242  15.424  12.853   2.346
59917W        W32243  30.166  14.056  12.480
59918W        W32244  22.361  18.257  11.965
59919W        W32245  19.560  32.828   1.701
59920W        W32246  23.108   0.393  11.475
59921W        W32247  11.925  44.202  13.502
59922W        W32248  36.147  31.615   2.840
59923W        W32249  14.439   3.324  12.518
59924W        W32250   9.502  36.689   1.485
59925W        W32251  16.118   6.850  11.772
59926W        W32252  39.126  25.190  11.142
59927W        W32253  34.868  29.609  10.979
59928W        W32254  14.342  28.791   3.892
59929W        W32255  15.218  40.594  12.543
59930W        W32256  24.843  23.509  12.468
59931W        W32257  19.026   0.358   4.713
59932W        W32258  10.843   1.824   0.397
59933W        W32259  11.780  43.798   1.354
59934W        W32260  13.952  16.594   2.421
59935W        W32261  17.606  40.416   3.255
59936W        W32262  37.168   5.064   5.032
59937W        W32263  34.003  28.011  10.591
59938W        W32264  25.388  16.495   3.157
59939W        W32265  43.071  31.013  10.719
59940W        W32266  13.831   3.769  13.521
59941W        W32267   5.442  29.894  13.942
59942W        W32268  18.303  40.910   3.160
59943W        W32269   8.593  29.987  14.771
59944W        W32270  21.197  37.152   2.404
59945W        W32271   6.108   2.050   4.517
59946W        W32272  25.105  14.212   1.657
59947W        W32273  41.492  17.179  14.270
59948W        W32274  41.251  21.015   4.516
59949W        W32275  38.512   3.219   3.338
59950W        W32276  30.024   6.418   3.719
59951W        W32277  33.700   1.963   0.679
59952W        W32278  32.936  24.665  10.673
59953W        W32279  27.297  11.780   0.961
59954W        W32280   7.991  12.977   1.751
59955W        W32281   2.210  22.806   1.854
59956W        W32282  18.054   0.956  12.989
59957W        W32283  19.185  36.106   1.832
59958W        W32284  42.348   3.150   4.571
59959W        W32285  20.658  33.078  11.078
59960W        W32286  29.975  34.907   0.715
59961W        W32287  33.625  27.020   2.144
59962W        W32288  35.643  15.578   2.885
59963W        W32289  20.293  23.156  13.364
59964W        W32290   0.284   3.145  13.729
59965W        W32291   3.832  34.862  11.121
59966W        W32292  24.207   8.158  14.885
59967W        W32293  28.641  21.166   0.904
59968W        W32294  18.281  18.207   2.683
59969W        W32295  27.040   0.069  10.094
59970W        W32296  23.376  27.005   1.507
59971W        W32297  23.083  10.127  11.228
59972W        W32298  16.621  32.087   2.583
59973W        W32299  30.074  40.096   2.319
59974W        W32300  21.600  22.462  11.086
59975W        W32301  27.405  11.904   1.946
59976W        W32302   3.209  12.212  12.141
59977W        W32303   5.860  14.300   4.138
59978W        W32304  39.930  17.037  11.098
59979W        W32305  26.615   5.321   4.245
59980W        W32306  34.218  33.579   9.782
59981W        W32307  16.410  39.306  14.971
59982W        W32308   0.727  16.179  10.256
59983W        W32309  31.946   4.053  12.063
59984W        W32310  39.566   6.230   3.742
59985W        W32311   8.776   4.749   0.237
59986W        W32312  34.328  19.660   1.777
59987W        W32313  14.534  42.473   3.196
59988W        W32314  19.593  42.739   1.199
59989W        W32315  15.766   6.426  13.111
59990W        W32316  30.525  20.517  10.717
59991W        W32317  14.142  34.565   3.278
59992W        W32318  19.660   4.361  11.524
59993W        W32319  33.678  35.402   4.815
59994W        W32320   3.422  12.207  11.137
59995W        W32321  32.466  27.582   0.421
59996W        W32322  21.543  20.176   4.641
59997W        W32323  25.956  11.338  13.254
59998W        W32324  19.006   9.348   2.241
59999W        W32325   2.240   0.998  14.366
60000W        W32326  41.788  11.357  12.998
60001W        W32327  41.001   8.930   3.175
60002W        W32328  42.223  24.262  12.114
60003W        W32329  26.069  34.416   0.641
60004W        W32330  40.474  12.960   0.210
60005W        W32331  11.689  38.740   3.239
60006W        W32332  41.367   0.025  14.350
60007W        W32333  29.322  35.619  12.780
60008W        W32334  14.359  40.759   2.745
60009W        W32335  16.894  38.348  11.154
60010W        W32336  21.775   3.728   2.441
60011W        W32337   8.133  40.479  11.670
60012W        W32338   7.178  43.947   3.432
60013W        W32339  10.318   1.327   3.606
60014W        W32340  43.841  24.529   0.955
60015W        W32341   0.435  21.092  14.506
60016W        W32342  22.596  23.446   2.364
60017W        W32343  19.786  32.011  12.456
60018W        W32344   9.856  32.469  11.261
60019W        W32345  33.351   8.320   1.737
60020W        W32346  23.319  17.809  14.915
60021W        W32347  18.123  41.820   2.090
60022W        W32348  18.021  23.300  14.430
60023W        W32349  35.318   5.743  12.527
60024W        W32350  43.087  27.442   2.739
60025W        W32351  26.081  16.163   5.123
60026W        W32352  14.231  27.563   1.601
60027W        W32353  39.071   1.035  11.606
60028W        W32354  32.834  33.722   9.840
60029W        W32355  22.422  20.715  13.809
60030W        W32356  21.594  17.172   3.740
60031W        W32357   4.311  15.036   3.181
60032W        W32358  19.615  13.705  12.053
60033W        W32359  10.153  26.644   2.273
60034W        W32360  39.129  14.188  12.410
60035W        W32361   6.224  15.089   1.945
60036W        W32362  23.297   1.894  10.803
60037W        W32363  22.636   6.673  11.675
60038W        W32364   0.893  23.817  12.576
60039W        W32365  10.568  38.353   1.900
60040W        W32366  12.819  16.821  12.919
60041W        W32367  19.629  14.703   0.071
60042W        W32368  12.081  27.886  10.616
60043W        W32369  13.875  13.149  10.719
60044W        W32370  15.574  42.307   0.404
60045W        W32371  21.856   1.279  13.360
60046W        W32372  12.369  32.936  13.349
60047W        W32373  26.706  14.112   2.806
60048W        W32374  42.870  19.698   2.849
60049W        W32375  20.743  19.058   1.272
60050W        W32376  25.253   8.203  12.557
60051W        W32377  20.952  24.231  12.515
60052W        W32378  31.185  37.334   4.178
60053W        W32379   2.984   8.906  14.923
60054W        W32380  15.056   6.721   2.697
60055W        W32381  39.846  17.138   0.765
60056W        W32382  40.353  34.631  13.658
60057W        W32383  32.937   2.355   1.103
60058W        W32384  23.728   0.769  10.793
60059W        W32385   9.759  15.777  11.532
60060W        W32386   2.400   0.791   2.628
60061W        W32387  10.600  40.466  12.051
60062W        W32388  16.129  22.632  14.383
60063W        W32389   4.684  26.370   4.092
60064W        W32390  44.264  37.346   1.893
60065W        W32391  30.502  41.154   2.159
60066W        W32392  13.204  14.459  11.563
60067W        W32393  27.697  32.875   2.699
60068W        W32394   6.000  36.861  14.728
60069W        W32395  22.773  40.367  12.574
60070W        W32396  29.329  33.060  13.406
60071W        W32397  12.562  42.664   4.884
60072W        W32398   5.013  10.842   2.829
60073W        W32399   7.899   9.954   0.922
60074W        W32400  16.108   9.161  14.376
60075W        W32401  14.381   4.221  14.866
60076W        W32402  18.719  22.035  12.529
60077W        W32403   8.768   7.893  11.119
60078W        W32404  34.930   2.037  12.563
60079W        W32405  28.207   6.333   5.126
60080W        W32406   8.233   8.483  14.327
60081W        W32407  32.595  25.992  13.721
60082W        W32408  35.126  31.047   2.287
60083W        W32409  22.009  44.447   3.707
60084W        W32410  24.258  28.488   4.103
60085W        W32411  39.859   9.762  13.806
60086W        W32412  16.721   7.287  14.997
60087W        W32413  22.554  32.101  10.653
60088W        W32414  11.300  18.523  13.003
60089W        W32415  15.166   1.458   2.771
60090W        W32416  25.069  19.216  14.522
60091W        W32417  16.453  20.080  10.662
60092W        W32418   3.942  16.568   2.613
60093W        W32419   7.725   0.413   2.776
60094W        W32420  43.538  31.265  10.617
60095W        W32421  33.646   4.735   9.819
60096W        W32422  29.328  33.869   2.877
60097W        W32423  10.875   5.164  10.769
60098W        W32424  28.091  15.427   3.567
60099W        W32425   6.507  18.093   2.779
60100W        W32426   1.791  32.978   1.842
60101W        W32427   8.636  43.066  10.829
60102W        W32428  20.572  44.739  11.937
60103W        W32429  10.447  28.437  10.713
60104W        W32430   9.232  35.123   3.825
60105W        W32431  28.229  34.479   0.781
60106W        W32432  35.974  34.148  10.979
60107W        W32433  26.120  22.461  10.657
60108W        W32434  33.639  15.704   1.850
60109W        W32435  35.843  37.491  11.324
60110W        W32436  29.400  12.106  11.088
60111W        W32437  15.414  29.179   3.796
60112W        W32438  39.948  20.329   0.776
60113W        W32439  12.425  44.644   2.358
60114W        W32440  25.156  13.515  11.727
60115W        W32441  29.449  11.399  12.892
60116W        W32442  32.947  41.331   4.300
60117W        W32443  34.433   4.713  12.446
60118W        W32444  42.267  12.601  12.817
60119W        W32445  36.749  24.721   2.290
60120W        W32446  19.819   2.439   0.314
60121W        W32447  21.663  18.543   2.728
60122W        W32448  33.382  29.457   0.797
60123W        W32449  11.371   2.844  10.982
60124W        W32450  12.873  26.122   2.661
60125W        W32451  27.425  22.399   0.425
60126W        W32452  16.708  24.288   2.462
60127W        W32453  35.503  44.975  11.221
60128W        W32454  29.695   1.813   0.345
60129W        W32455  27.971  27.192  12.227
60130W        W32456  22.165   7.253  13.801
60131W        W32457  16.314  19.058  13.745
60132W        W32458  30.069  15.234  12.921
60133W        W32459  20.285  37.828  12.793
60134W        W32460  41.428  14.607   4.043
60135W        W32461  17.782  31.144  12.366
60136W        W32462  12.813   0.512  13.306
60137W        W32463   8.313  12.867  11.474
60138W        W32464  32.977  24.926  11.132
60139W        W32465  25.596  14.266   4.007
60140W        W32466  21.957   8.336  11.693
60141W        W32467  29.572   9.596  12.475
60142W        W32468  34.942  14.569   2.486
60143W        W32469   2.554  14.569   1.099
60144W        W32470  10.932  23.630   2.628
60145W        W32471  17.046  34.414  12.910
60146W        W32472  17.104  16.466  13.978
60147W        W32473   7.898   8.290   2.768
60148W        W32474  19.641  18.465  12.088
60149W        W32475  16.238  32.553  11.543
60150W        W32476  34.735  41.874  13.070
60151W        W32477  41.267   3.255   0.971
60152W        W32478  16.172  44.096  10.232
60153W        W32479  32.544  31.974   0.439
60154W        W32480  18.708  32.625  12.865
60155W        W32481  32.338   7.689   4.239
60156W        W32482  36.493  10.923  12.090
60157W        W32483  42.960  22.752   4.699
60158W        W32484  32.419  31.031  13.585
60159W        W32485  20.060   2.034   2.253
60160W        W32486  33.237  17.247   5.017
60161W        W32487  44.043  33.433  12.335
60162W        W32488  22.920   9.925   2.807
60163W        W32489  11.232  37.607  10.592
60164W        W32490   4.356  38.323  14.471
60165W        W32491  35.405   2.666   3.650
60166W        W32492  12.182  42.439  13.738
60167W        W32493  31.912  40.323  11.052
60168W        W32494  27.955  35.405   4.765
60169W        W32495  33.904  33.029  13.966
60170W        W32496  12.630  20.802   2.395
60171W        W32497   9.011  16.490  11.209
60172W        W32498  17.618  27.547   1.377
60173W        W32499  20.405   0.527   2.872
60174W        W32500  18.755  14.825  12.810
60175W        W32501  29.392  13.668   0.757
60176W        W32502  18.168   2.798   3.183
60177W        W32503  24.303  34.411  10.174
60178W        W32504   6.095  11.076   0.300
60179W        W32505   3.914   4.657  14.147
60180W        W32506  27.336  34.853  14.075
60181W        W32507  30.346  36.543  10.712
60182W        W32508  42.716  11.977  13.326
60183W        W32509  13.999  32.203  12.185
60184W        W32510  26.488   8.750  13.912
60185W        W32511  28.590  23.723   0.325
60186W        W32512   4.720  27.905  10.629
60187W        W32513   7.445  44.337  13.337
60188W        W32514  41.933  19.102   2.244
60189W        W32515  20.696  15.030  11.615
60190W        W32516  19.951  29.371  12.489
60191W        W32517  17.561  11.752   4.171
60192W        W32518  40.527  14.339   3.550
60193W        W32519  32.067  27.818   0.854
60194W        W32520   7.908  25.225  11.707
60195W        W32521  40.070  22.113  12.509
60196W        W32522  33.090   8.774  12.859
60197W        W32523   9.105  22.106  13.405
60198W        W32524  26.506  39.551   4.070
60199W        W32525  11.814  44.904  10.626
60200W        W32526  14.212   9.385   3.105
60201W        W32527  44.983   5.045   1.304
60202W        W32528  33.447  12.872  12.528
60203W        W32529  38.101  42.480   3.791
60204W        W32530  14.834  30.614   3.363
60205W        W32531  31.574  21.598   2.666
60206W        W32532  38.638   7.842   1.259
60207W        W32533   8.608  28.581   2.048
60208W        W32534  38.195   2.846  14.215
60209W        W32535  27.572  13.472  11.535
60210W        W32536   1.819   1.456  11.887
60211W        W32537  26.637  36.988   4.602
60212W        W32538  36.611  17.292  11.951
60213W        W32539  35.566  43.286  11.497
60214W        W32540  15.592  30.089  12.745
60215W        W32541  12.334  26.174  11.987
60216W        W32542  16.179   7.766   0.704
60217W        W32543  21.547  25.748   3.415
60218W        W32544   6.651  35.331   4.827
60219W        W32545   1.790   9.856   1.780
60220W        W32546  17.978  27.129  12.889
60221W        W32547  35.652  35.940  13.957
60222W        W32548  41.582   3.761   4.979
60223W        W32549  39.811  34.223   4.860
60224W        W32550   1.169  35.533  12.916
60225W        W32551  27.325  15.404   3.152
60226W        W32552   4.912  41.843  14.956
60227W        W32553  17.062  22.101   0.333
60228W        W32554   6.659  23.949   3.400
60229W        W32555  15.633  37.787  11.466
60230W        W32556  21.657  40.090  13.885
60231W        W32557  21.005  38.526   4.276
60232W        W32558  35.293  37.137   2.845
60233W        W32559  36.404  24.201   4.935
60234W        W32560   3.551  24.252  11.647
60235W        W32561  13.289  34.346   5.017
60236W        W32562  14.521  44.402  11.059
60237W        W32563   4.419  13.801   2.724
60238W        W32564  42.935  39.284  13.920
60239W        W32565  11.203  10.325   2.377
60240W        W32566   3.194  34.554   0.198
60241W        W32567   8.088  15.198  11.495
60242W        W32568  15.193   8.280  11.221
60243W        W32569  11.808  40.010   3.270
60244W        W32570   2.507  34.896  10.341
60245W        W32571   3.478  32.419   1.367
60246W        W32572  25.955  15.703  14.757
60247W        W32573  42.146   8.863  11.141
60248W        W32574  11.690  19.025  10.927
60249W        W32575  32.437  16.237  11.173
60250W        W32576  13.114  38.037  10.505
60251W        W32577  18.823   5.749  11.253
60252W        W32578  28.980   0.145  13.455
60253W        W32579  21.340  28.758  13.267
60254W        W32580   6.691  40.335   4.489
60255W        W32581  25.152  16.989   3.621
60256W        W32582  42.084   4.438   2.781
60257W        W32583  44.816   2.949   4.773
60258W        W32584  10.898  38.169  12.582
60259W        W32585   3.752  29.366  10.996
60260W        W32586  41.739   8.984  13.474
60261W        W32587  27.491  25.578  12.048
60262W        W32588   2.701  29.659  11.959
60263W        W32589  22.003  17.515   4.027
60264W        W32590  20.061  28.997   1.716
60265W        W32591  15.816  35.014   0.034
60266W        W32592  15.278   4.764   4.587
60267W        W32593  11.946  43.688   4.102
60268W        W32594  40.357  23.519   2.748
60269W        W32595  35.958   6.818  11.148
60270W        W32596  14.346  14.176  12.441
60271W        W32597  40.124  23.235  10.557
60272W        W32598   7.846   0.789  12.251
60273W        W32599   5.109  35.495  12.986
60274W        W32600  11.541  24.709  14.927
60275W        W32601   7.299  30.222   3.617
60276W        W32602  41.666  29.226   0.786
60277W        W32603  20.601  25.485   2.301
60278W        W32604  24.244  11.204   1.400
60279W        W32605   3.676  27.598   4.859
60280W        W32606  29.255  17.087  13.950
60281W        W32607  32.680  41.930   1.287
60282W        W32608  21.148  29.895  11.681
60283W        W32609  22.709  10.215  12.949
60284W        W32610  40.758   5.825  13.985
60285W        W32611  41.138  31.490   0.821
60286W        W32612  22.011  43.063   1.295
60287W        W32613  31.605  38.817   3.251
60288W        W32614  40.588   2.806  12.084
60289W        W32615   2.409   1.873   4.555
60290W        W32616  44.806  16.946  11.622
60291W        W32617  33.590  22.440   1.792
60292W        W32618  34.183   1.895  10.670
60293W        W32619  37.838  29.245  12.720
60294W        W32620  44.604  39.886   2.646
60295W        W32621   7.447  26.191   0.133
60296W        W32622  32.135  36.809   1.342
60297W        W32623  37.105  26.996   3.771
60298W        W32624  35.799  21.522   2.259
60299W        W32625  36.343   4.912  11.181
60300W        W32626  39.137   5.360  13.068
60301W        W32627  29.941  19.035   3.723
60302W        W32628  15.243  20.693   3.302
60303W        W32629  33.502  13.554  14.661
60304W        W32630  32.468  44.959   3.295
60305W        W32631   0.522  42.328   1.768
60306W        W32632  33.093   4.267  10.932
60307W        W32633   9.615   9.354  10.640
60308W        W32634  44.093  23.078   1.510
60309W        W32635  42.874  18.146  11.455
60310W        W32636  34.518  40.820  13.359
60311W        W32637  37.938  31.244   3.292
60312W        W32638  27.257  43.771   3.192
60313W        W32639  37.551   2.922   0.967
60314W        W32640  38.054  32.339  12.838
60315W        W32641   0.777   4.265  11.165
60316W        W32642  25.625  20.955  14.912
60317W        W32643   3.236  22.555  10.617
60318W        W32644   3.484  29.382   3.175
60319W        W32645  32.573  25.643   3.806
60320W        W32646  35.132  41.296  12.256
60321W        W32647   8.041  34.494  10.602
60322W        W32648  20.957  15.202   0.755
60323W        W32649   1.207  11.408  12.472
60324W        W32650   7.259  44.412  11.984
60325W        W32651  11.575  38.365  14.801
60326W        W32652  29.716  17.650   1.516
60327W        W32653  34.770  27.538  14.072
60328W        W32654  31.473  15.082   2.916
60329W        W32655  21.048  15.101   0.243
60330W        W32656  18.053  33.016  12.419
60331W        W32657  32.326  40.124  11.984
60332W        W32658  24.138  37.603   1.182
60333W        W32659  20.060  27.990   4.194
60334W        W32660  22.959  20.619  13.897
60335W        W32661  16.618  25.029   4.235
60336W        W32662  39.475  44.756   0.023
60337W        W32663  40.519   1.894   0.294
60338W        W32664  40.736   1.793  14.807
60339W        W32665   0.629  24.417   2.371
60340W        W32666  38.898  38.262  10.960
60341W        W32667  23.777  12.521   1.147
60342W        W32668  11.730   3.763  12.813
60343W        W32669  21.053   9.275  12.509
60344W        W32670  19.966  36.127   1.238
60345W        W32671  14.736  33.460  11.189
60346W        W32672  20.791  41.492   2.341
60347W        W32673  20.144  18.222  12.571
60348W        W32674   5.749  37.548  13.559
60349W        W32675   5.967  38.901   1.734
60350W        W32676  22.548  14.798   2.265
60351W        W32677   4.864   9.323   3.230
60352W        W32678  31.037  12.318   3.175
60353W        W32679  36.922  30.606  12.078
60354W        W32680  14.044  21.943   4.163
60355W        W32681   7.597  24.172  13.781
60356W        W32682  21.996   8.487  14.377
60357W        W32683  13.744  19.229   0.958
60358W        W32684  16.321  11.888   1.920
60359W        W32685   0.705  30.478   9.733
60360W        W32686  23.121  19.963   2.820
60361W        W32687  18.860  32.337  12.468
60362W        W32688  29.606  26.672  11.577
60363W        W32689   4.453   1.528  14.819
60364W        W32690  23.866   0.146   3.361
60365W        W32691  39.133  21.161  14.848
60366W        W32692  24.390  32.603   1.406
60367W        W32693  27.617   5.942  13.836
60368W        W32694  44.528  36.006  13.390
60369W        W32695  16.539  10.774   1.943
60370W        W32696  44.943  22.563  13.626
60371W        W32697  33.039  27.006   1.892
60372W        W32698  38.038  20.084   2.013
60373W        W32699  29.566  21.519   0.079
60374W        W32700  13.091  16.812  12.474
60375W        W32701  40.913  14.338   2.230
60376W        W32702  37.472  14.972   3.419
60377W        W32703  22.509  10.016   4.079
60378W        W32704   0.900  22.260  13.930
60379W        W32705   9.281  34.883   1.401
60380W        W32706  26.717  33.514   2.778
60381W        W32707   7.752   6.901  10.773
60382W        W32708   8.947  29.923  10.654
60383W        W32709   3.504  44.878  13.834
60384W        W32710  43.874  39.402   2.112
60385W        W32711  24.558   3.329   5.094
60386W        W32712  17.657   9.572  12.871
60387W        W32713  43.108   9.855   4.071
60388W        W32714  35.350  34.406   2.433
60389W        W32715  34.887  41.892  13.707
60390W        W32716  17.734  27.594  10.784
60391W        W32717   2.826   9.251  13.260
60392W        W32718   9.825  40.269  12.460
60393W        W32719   5.931  21.272   1.893
60394W        W32720  23.029  27.051   1.914
60395W        W32721  41.062   8.275  13.985
60396W        W32722  31.606  31.622   2.932
60397W        W32723  34.555  30.445  11.726
60398W        W32724   2.842  23.332   0.442
60399W        W32725  15.507  25.039  12.431
60400W        W32726  38.122  24.250   4.766
60401W        W32727  33.139  35.261   2.173
60402W        W32728  22.943  12.353   2.844
60403W        W32729  23.609   7.423  13.732
60404W        W32730  11.303  18.697  13.916
60405W        W32731  11.939  29.976  11.436
60406W        W32732  15.254  22.950  13.180
60407W        W32733  28.336  22.461   3.651
60408W        W32734  28.047   2.503   2.258
60409W        W32735  36.717  44.300  14.178
60410W        W32736   4.757  29.368  14.842
60411W        W32737  42.904   7.122   0.467
60412W        W32738   3.044  43.362   0.279
60413W        W32739  32.523  44.447   4.205
60414W        W32740  27.686  27.692  14.252
60415W        W32741  26.090   9.411   1.005
60416W        W32742  13.310  16.095  10.943
60417W        W32743  21.917   4.799   2.499
60418W        W32744  42.344  33.360   0.585
60419W        W32745   3.457  10.782  14.761
60420W        W32746   3.287   8.855   1.441
60421W        W32747  23.477   4.373   0.930
60422W        W32748   3.808   2.766  13.054
60423W        W32749  22.228  40.651   3.187
60424W        W32750  24.220  12.349  12.897
60425W        W32751  10.682  23.010   5.036
60426W        W32752   7.954  18.118  11.590
60427W        W32753  26.283   2.434   4.200
60428W        W32754  22.057  31.467  13.475
60429W        W32755  35.161  23.180   2.056
60430W        W32756   9.772  41.999  10.673
60431W        W32757   0.977  15.106  13.970
60432W        W32758  30.704   9.334  14.355
60433W        W32759  22.620  43.933  10.784
60434W        W32760   4.276  39.734  14.934
60435W        W32761   2.388  14.509   4.504
60436W        W32762   9.733  27.209  11.668
60437W        W32763  44.265  36.949   2.273
60438W        W32764  33.523   1.195   2.336
60439W        W32765  27.512  14.083  12.488
60440W        W32766  11.362  37.916   2.919
60441W        W32767  19.000  29.498   3.264
60442W        W32768  22.009  25.621   3.195
60443W        W32769  36.970  14.139  13.031
60444W        W32770  19.693  23.894   4.105
60445W        W32771  27.926  37.522   4.621
60446W        W32772  37.170  30.321  12.963
60447W        W32773  28.633  25.650  11.649
60448W        W32774  35.311  23.505  12.918
60449W        W32775  35.938  44.776  11.006
60450W        W32776  41.084  42.589  11.534
60451W        W32777   9.307  27.470  14.505
60452W        W32778  15.601   1.245   3.606
60453W        W32779  30.560   9.605   1.390
60454W        W32780   8.227  13.648  13.028
60455W        W32781  33.380  14.762  12.032
60456W        W32782   5.480  12.254  12.103
60457W        W32783  22.747   5.510   4.232
60458W        W32784  39.716  31.627   1.798
60459W        W32785  18.801  21.122  10.194
60460W        W32786  20.583  33.438  13.583
60461W        W32787  37.461  25.130   2.871
60462W        W32788  39.450  33.993   0.360
60463W        W32789  27.695  19.029  12.889
60464W        W32790  37.241  32.002   1.495
60465W        W32791  19.047  13.210   0.503
60466W        W32792  15.953  39.897  13.445
60467W        W32793  14.037   7.271  12.684
60468W        W32794  19.339   2.240   3.807
60469W        W32795   1.935  33.092   0.909
60470W        W32796  19.101  33.641   0.796
60471W        W32797  26.462   3.208  12.063
60472W        W32798  41.966  29.014   2.570
60473W        W32799  30.893  36.840   1.671
60474W        W32800  30.783   0.256   3.859
60475W        W32801  42.481   0.476  13.440
60476W        W32802   1.718  31.127   3.050
60477W        W32803   5.004   5.066  10.994
60478W        W32804  40.637  44.565   2.750
60479W        W32805  33.455   3.302   3.585
60480W        W32806  38.497   3.248  12.010
60481W        W32807   6.824  22.014   3.410
60482W        W32808  17.379   6.888  12.535
60483W        W32809   2.907   6.109  12.868
60484W        W32810  32.803  10.182  10.858
60485W        W32811   6.713  26.428  14.875
60486W        W32812   9.710  31.962   4.420
60487W        W32813  34.068  19.075   1.857
60488W        W32814  38.144  17.821   2.761
60489W        W32815  19.019   9.776  13.873
60490W        W32816  41.346  10.655  11.077
60491W        W32817  15.623   8.995   2.625
60492W        W32818  29.125  22.157   2.971
60493W        W32819  15.838  23.748  12.773
60494W        W32820  20.079  25.196  10.280
60495W        W32821  44.743  20.154  14.910
60496W        W32822  41.759  35.330  11.568
60497W        W32823  19.360  30.346   0.280
60498W        W32824  33.850  33.339   5.060
60499W        W32825  41.069  14.557  11.564
60500W        W32826  19.080   4.871  10.414
60501W        W32827  34.947  39.292  13.512
60502W        W32828  16.686  19.421   5.333
60503W        W32829  20.129  41.884   5.078
60504W        W32830  16.347  22.329  13.453
60505W        W32831  20.145  32.548   1.903
60506W        W32832  33.621   1.805  14.409
60507W        W32833  40.863  24.386  11.989
60508W        W32834  43.461  31.023   3.160
60509W        W32835  42.029  19.125  12.022
60510W        W32836  22.857  17.668   4.656
60511W        W32837   7.491  44.885  11.980
60512W        W32838  37.562  24.719  12.841
60513W        W32839   7.053   7.678   2.693
60514W        W32840  19.190  34.071   3.828
60515W        W32841  28.135  10.807  10.957
60516W        W32842  12.656  16.776   0.870
60517W        W32843   5.753  28.232   3.223
60518W        W32844  41.847  14.834   4.270
60519W        W32845  40.977   3.385  14.023
60520W        W32846  25.053  42.953   0.644
60521W        W32847   1.184   3.172  11.534
60522W        W32848  14.714  37.357   0.390
60523W        W32849   0.355  43.478   3.726
60524W        W32850  10.481  19.151  12.049
60525W        W32851  15.189  41.781  13.141
60526W        W32852  19.107  21.545  11.975
60527W        W32853  23.658  23.164  10.638
60528W        W32854  13.319  26.317   4.676
60529W        W32855  31.403  20.569   1.747
60530W        W32856  21.147  24.234  13.309
60531W        W32857   0.504  10.971  12.027
60532W        W32858  34.136   3.859   0.713
60533W        W32859  31.468  20.655   3.676
60534W        W32860  15.827  26.654   4.662
60535W        W32861  11.137  15.701  12.426
60536W        W32862   1.262   2.425  11.129
60537W        W32863   1.376  31.136   4.211
60538W        W32864  37.499  33.791  10.406
60539W        W32865  41.583   4.752  12.524
60540W        W32866  21.096  25.607  11.398
60541W        W32867  22.812  29.554   9.959
60542W        W32868  13.670  37.902  12.644
60543W        W32869  21.438  11.114  14.047
60544W        W32870  35.034  44.191   4.229
60545W        W32871  13.804  26.202  13.131
60546W        W32872  38.523  30.638  12.416
60547W        W32873  31.072  42.061   3.193
60548W        W32874  42.906  15.750  11.517
60549W        W32875  37.239  36.614   2.827
60550W        W32876  41.396  23.035  10.722
60551W        W32877  36.861  31.405   2.317
60552W        W32878   4.510   8.842  10.737
60553W        W32879  27.177   4.399  12.622
60554W        W32880  17.054  32.856   2.703
60555W        W32881  29.520  39.360  11.794
60556W        W32882  29.414  31.805   3.603
60557W        W32883  15.103  12.228  11.182
60558W        W32884  44.526  35.970   4.542
60559W        W32885  28.577  23.502  14.795
60560W        W32886  39.775  17.689   4.190
60561W        W32887   9.190  32.203   1.728
60562W        W32888  27.617  18.682  12.504
60563W        W32889  26.473  29.011   1.724
60564W        W32890  29.391  35.741   3.842
60565W        W32891  21.915   4.872   4.379
60566W        W32892  24.053  18.597  10.206
60567W        W32893  32.798  24.521  12.035
60568W        W32894  29.223  12.748   2.897
60569W        W32895   9.774  26.290   4.265
60570W        W32896  27.613   5.808  10.647
60571W        W32897   0.385  20.102  11.620
60572W        W32898  36.356   4.460  11.608
60573W        W32899   6.896  36.940  14.366
60574W        W32900  14.643   2.321   1.447
60575W        W32901  27.545  27.106  11.960
60576W        W32902   3.166  28.950  14.443
60577W        W32903  36.415  13.285   4.157
60578W        W32904  25.140  12.599  13.518
60579W        W32905   8.382  19.150   1.192
60580W        W32906  44.565  26.912   4.110
60581W        W32907  10.363  32.188   5.008
60582W        W32908  31.833  12.061   1.251
60583W        W32909  39.166  26.463  12.852
60584W        W32910  23.513  33.503  12.484
60585W        W32911  35.465  29.906   1.883
60586W        W32912   9.133  10.292  14.432
60587W        W32913   6.007  16.156  12.267
60588W        W32914  27.241  20.761  12.438
60589W        W32915  14.832  35.378  14.298
60590W        W32916  15.987  18.129  14.365
60591W        W32917   4.650  36.938   4.177
60592W        W32918  26.201  43.167   2.844
60593W        W32919  24.646  24.582  14.031
60594W        W32920  12.710   7.338  10.469
60595W        W32921  35.444  36.465   3.623
60596W        W32922  37.183  32.274   5.059
60597W        W32923  38.541  38.920  13.034
60598W        W32924  28.148  19.660  13.371
60599W        W32925  27.470  40.516  10.374
60600W        W32926  39.943  42.974   0.379
60601W        W32927  23.010  17.235  12.791
60602W        W32928  13.051  19.205  12.002
60603W        W32929  24.413  10.145  11.551
60604W        W32930  12.764  33.713  10.747
60605W        W32931  37.470  31.470   1.667
60606W        W32932  25.701   7.646   0.596
60607W        W32933   9.163   1.530  13.874
60608W        W32934  34.823  28.781   4.510
60609W        W32935  21.763   9.946  14.993
60610W        W32936  28.135  28.419  13.066
60611W        W32937  41.846  23.355   2.383
60612W        W32938  25.581  43.985   4.127
60613W        W32939  32.432   3.138   2.355
60614W        W32940   1.273  24.236  14.818
60615W        W32941  32.998  34.771  12.041
60616W        W32942   6.211  41.990   3.520
60617W        W32943   6.484  27.146   2.709
60618W        W32944  18.794  13.513  12.649
60619W        W32945  14.077   5.841   4.901
60620W        W32946  34.128  34.050   1.344
60621W        W32947   6.969  21.317   0.899
60622W        W32948   0.508  30.532   3.730
60623W        W32949  10.744  42.446   2.083
60624W        W32950  36.548  35.405   4.500
60625W        W32951  24.959  38.476  11.719
60626W        W32952  36.083   3.631  11.115
60627W        W32953  44.366  10.153   0.260
60628W        W32954  39.818  19.719  14.985
60629W        W32955   6.198   8.646   0.318
60630W        W32956  41.919  29.466   4.263
60631W        W32957  35.474  19.301  13.034
60632W        W32958  38.009   1.698  13.359
60633W        W32959   4.774  21.204   2.208
60634W        W32960  15.494  17.221   3.190
60635W        W32961  39.461  26.463   3.275
60636W        W32962   6.805   6.247   2.340
60637W        W32963   7.209  23.959  14.072
60638W        W32964  12.296  16.568  11.968
60639W        W32965  12.423  33.207   0.482
60640W        W32966  28.436  40.365   3.130
60641W        W32967  15.827  10.231   3.616
60642W        W32968  36.584  27.729  10.647
60643W        W32969  20.470   8.846   4.975
60644W        W32970  18.042  42.334   1.227
60645W        W32971  37.531  10.949  13.781
60646W        W32972  27.023  26.106   3.208
60647W        W32973  15.863  30.648  11.964
60648W        W32974  42.770  30.999   2.388
60649W        W32975  31.402   6.191  11.516
60650W        W32976   0.234  16.086  13.387
60651W        W32977  32.646  18.979   2.243
60652W        W32978  30.873   6.487   0.835
60653W        W32979  26.722  17.187   4.664
60654W        W32980  35.571  16.703  11.101
60655W        W32981   0.285  30.474   0.847
60656W        W32982   0.832  18.040   3.692
60657W        W32983  35.389  10.554   2.273
60658W        W32984   6.827  20.254  11.639
60659W        W32985   8.386   6.260   0.235
60660W        W32986  39.062  44.801   3.915
60661W        W32987  15.179  21.054  13.041
60662W        W32988  37.362  28.523  12.472
60663W        W32989  22.829   7.311   1.533
60664W        W32990  40.980  23.326  13.032
60665W        W32991   8.286  37.460   1.898
60666W        W32992  23.757  13.225   3.531
60667W        W32993  16.242  31.438  11.045
60668W        W32994  21.101  36.081   4.894
60669W        W32995  32.599   9.793   3.591
60670W        W32996  14.340  41.759   3.638
60671W        W32997   2.913   1.808   0.212
60672W        W32998  20.892  13.180   2.218
60673W        W32999   8.274  23.492  14.771
60674W        W33000   3.392   4.891   4.203
60675W        W33001  30.360   5.337   4.400
60676W        W33002  13.174  32.659   3.955
60677W        W33003  35.122   9.708  12.932
60678W        W33004  20.231   9.328  13.874
60679W        W33005  35.185  15.327  12.467
60680W        W33006  28.643  38.378   3.246
60681W        W33007  28.462  12.673  11.000
60682W        W33008  44.775  38.725  14.380
60683W        W33009  20.744  38.666   3.505
60684W        W33010  44.847  14.323  14.251
60685W        W33011  41.266  32.377   1.071
60686W        W33012  33.108  43.057   1.832
60687W        W33013  20.546  34.048  10.780
60688W        W33014  30.859  30.466  14.203
60689W        W33015  32.680  22.634   4.191
60690W        W33016  32.003  43.470   3.808
60691W        W33017  36.455  26.441   1.862
60692W        W33018  30.441  19.637  10.770
60693W        W33019  18.733   1.363  12.139
60694W        W33020  23.114  34.858  10.709
60695W        W33021   7.857  44.889   0.731
60696W        W33022  23.525  40.353  10.614
60697W        W33023  16.158  29.131   4.162
60698W        W33024  21.612   3.383  12.936
60699W        W33025  13.307  15.655   4.155
60700W        W33026  22.590  23.954   2.359
60701W        W33027   2.726   1.809  14.730
60702W        W33028  41.973   4.358   0.224
60703W        W33029   2.415  27.514  14.567
60704W        W33030  28.040  14.526  11.137
60705W        W33031  36.783   2.365   3.540
60706W        W33032  30.718  39.582  13.402
60707W        W33033  30.423  35.035   5.373
60708W        W33034  33.303  18.594  14.949
60709W        W33035  40.393  22.937  14.077
60710W        W33036  35.999  40.786  14.983
60711W        W33037  16.010  34.382   3.217
60712W        W33038  35.384   5.847  13.418
60713W        W33039  42.612   5.458  12.498
60714W        W33040  26.599  15.638   4.657
60715W        W33041   3.264   6.446   4.127
60716W        W33042  15.313   1.181   0.468
60717W        W33043   9.848  26.172  13.437
60718W        W33044  43.374  19.746   5.097
60719W        W33045   5.148  10.311  14.385
60720W        W33046   1.584  30.079  11.161
60721W        W33047  35.908   9.178   4.057
60722W        W33048  15.399  10.364  13.935
60723W        W33049  12.601  43.059   0.901
60724W        W33050  12.500  26.589   4.648
60725W        W33051  21.850  35.071  11.151
60726W        W33052  17.149  17.065   0.739
60727W        W33053  44.843   6.214  11.594
60728W        W33054  34.783  12.574  11.163
60729W        W33055   5.960  17.173   4.892
60730W        W33056  40.719  16.724   4.357
60731W        W33057   8.848  12.846  14.361
60732W        W33058   8.889  14.258   4.640
60733W        W33059  14.267  22.111  14.502
60734W        W33060  30.203  31.934   0.427
60735W        W33061  21.737   8.466   1.000
60736W        W33062  31.493  34.527  12.435
60737W        W33063   5.988  22.949   1.974
60738W        W33064  32.432  23.900  14.917
60739W        W33065  35.498   9.015   2.446
60740W        W33066   8.266  10.230  14.665
60741W        W33067   9.931  17.685   1.445
60742W        W33068  26.670  20.579  13.574
60743W        W33069  29.037  31.822   0.660
60744W        W33070  15.321  22.048   3.841
60745W        W33071   1.004  25.581   4.302
60746W        W33072   6.414   1.974   1.057
60747W        W33073   2.218  25.097   4.930
60748W        W33074  21.522  32.015  10.525
60749W        W33075  29.566  23.720  13.335
60750W        W33076   5.817  26.588   2.537
60751W        W33077  26.156  23.158  12.785
60752W        W33078  23.090   7.966  11.537
60753W        W33079  24.032   2.708   1.376
60754W        W33080   3.924  30.161   2.652
60755W        W33081  29.261  24.549  12.537
60756W        W33082  27.070  34.468  11.471
60757W        W33083  10.829  36.201  14.213
60758W        W33084  12.316  22.792   2.943
60759W        W33085  32.805   2.363   3.313
60760W        W33086  30.413  21.302  10.033
60761W        W33087  28.848  38.248   2.304
60762W        W33088   7.053  13.450  13.803
60763W        W33089   3.718   7.405   3.757
60764W        W33090  42.799  18.608  11.707
60765W        W33091  38.128  41.588  12.757
60766W        W33092  33.173  44.457  12.052
60767W        W33093  35.350  35.255  10.701
60768W        W33094  15.300  40.706  10.693
60769W        W33095  40.353  21.968  14.220
60770W        W33096  16.618  42.453  13.530
60771W        W33097   5.493  17.163   0.300
60772W        W33098  36.844   4.475  11.661
60773W        W33099  23.807  27.399  11.615
60774W        W33100   9.480   6.298  13.041
60775W        W33101  18.125   3.414  14.500
60776W        W33102  30.931  13.820   4.766
60777W        W33103  22.662  33.488   1.232
60778W        W33104   9.150  29.373  10.791
60779W        W33105  11.411  12.167   0.503
60780W        W33106  31.175  16.090  13.462
60781W        W33107  15.386  16.590  12.600
60782W        W33108  24.274   9.792  11.907
60783W        W33109  12.089  23.996   4.634
60784W        W33110  12.801  37.589  13.848
60785W        W33111  10.695  20.320   1.267
60786W        W33112  31.888  18.796   2.361
60787W        W33113  43.432  29.434  11.127
60788W        W33114  23.191  40.964   3.349
60789W        W33115  25.913  31.369   1.789
60790W        W33116  37.944   1.860   4.342
60791W        W33117   8.141  21.754   1.684
60792W        W33118  32.016  42.375   1.165
60793W        W33119  33.613  27.177   2.636
60794W        W33120   5.763  41.618   0.740
60795W        W33121  23.216  33.340   3.209
60796W        W33122  22.946  34.034   2.859
60797W        W33123  40.687  27.594   3.433
60798W        W33124  37.039  41.314  13.925
60799W        W33125   0.845  27.491   4.217
60800W        W33126   6.875  22.232  11.609
60801W        W33127  27.874  11.778   2.726
60802W        W33128   4.867  12.538  13.919
60803W        W33129   4.442   3.244  13.911
60804W        W33130  44.859   0.931   1.411
60805W        W33131  42.059   7.345   0.736
60806W        W33132   7.948  41.744   4.538
60807W        W33133  14.236  16.978  11.640
60808W        W33134   1.197  28.419   4.380
60809W        W33135  14.171  16.595  13.941
60810W        W33136  42.762   8.534   0.760
60811W        W33137   6.500   2.726  13.607
60812W        W33138   5.419  30.025   2.707
60813W        W33139   3.813  30.399  11.629
60814W        W33140   8.761  43.022  14.979
60815W        W33141   7.395  16.857   2.272
60816W        W33142  14.147  22.899   4.422
60817W        W33143  17.129  13.637  13.485
60818W        W33144  23.642  43.244  11.389
60819W        W33145  24.274  12.720   4.859
60820W        W33146  39.798  43.814   1.376
60821W        W33147  25.114  19.058   1.894
60822W        W33148  22.526  25.940  14.892
60823W        W33149  35.417  38.011   1.847
60824W        W33150   2.422  17.660   0.321
60825W        W33151   8.820  11.850  12.156
60826W        W33152  43.611  31.698   0.182
60827W        W33153  29.957  10.920   0.833
60828W        W33154  35.939  15.362  13.830
60829W        W33155  22.292  17.068   4.122
60830W        W33156  22.171   9.861   0.814
60831W        W33157  40.545  12.629   3.252
60832W        W33158  19.109  27.042   4.453
60833W        W33159  31.587  24.571  14.538
60834W        W33160  24.093  18.637  11.791
60835W        W33161  33.325   9.248   0.904
60836W        W33162   1.412  17.632  11.434
60837W        W33163   1.627  13.217  14.952
60838W        W33164   9.604  38.579  11.146
60839W        W33165  26.607  27.514   0.228
60840W        W33166  23.424  43.761  13.992
60841W        W33167  40.426  32.540   4.579
60842W        W33168  43.264  26.728   4.177
60843W        W33169   2.989  17.126   3.361
60844W        W33170  43.311  43.318  11.389
60845W        W33171  32.238   8.312   4.157
60846W        W33172  36.081   5.949  14.580
60847W        W33173  41.097  28.016   0.976
60848W        W33174  12.173  29.469   1.462
60849W        W33175   8.926   2.293  14.318
60850W        W33176  17.094  27.476  13.177
60851W        W33177  26.227  36.039   1.888
60852W        W33178  35.198  28.453   1.759
60853W        W33179   4.695   9.275  13.898
60854W        W33180  43.325   7.116  12.837
60855W        W33181   7.430   3.252   4.815
60856W        W33182  29.292   6.051   2.154
60857W        W33183  22.747  22.310  13.840
60858W        W33184  23.044  34.888   4.225
60859W        W33185  12.853  40.435  13.529
60860W        W33186  42.297  41.023   1.836
60861W        W33187  41.903  16.182  10.747
60862W        W33188  43.758   4.863   2.923
60863W        W33189  11.742  19.033  10.013
60864W        W33190  14.902  43.751  11.111
60865W        W33191  34.074  36.415   2.176
60866W        W33192  24.327  12.681   0.005
60867W        W33193  42.338  29.680  12.401
60868W        W33194  34.763  18.317   3.607
60869W        W33195  17.449   5.219   1.812
60870W        W33196   4.390   2.256  12.034
60871W        W33197  35.456  36.317   4.253
60872W        W33198  26.202  21.953   4.711
60873W        W33199  39.927  11.873   1.788
60874W        W33200  26.690  12.425  11.447
60875W        W33201  42.278  13.733  14.963
60876W        W33202   4.180  16.081   0.458
60877W        W33203  43.206  22.031  14.095
60878W        W33204  12.086  17.736  10.643
60879W        W33205   5.314  28.708  12.905
60880W        W33206  28.151   9.352  11.502
60881W        W33207  31.376  28.407  13.320
60882W        W33208  19.095  31.630  13.776
60883W        W33209  24.213  14.626   3.633
60884W        W33210  35.784  15.669  10.689
60885W        W33211  25.839  40.848   2.233
60886W        W33212   0.444  25.598   0.955
60887W        W33213   3.146   1.570  12.466
60888W        W33214  44.975  20.214  13.536
60889W        W33215  40.542  42.823   4.091
60890W        W33216  32.387   7.926   2.865
60891W        W33217  15.573  26.244   4.069
60892W        W33218  43.063  14.238   1.325
60893W        W33219   8.161   3.416   2.003
60894W        W33220  29.604   0.428   4.553
60895W        W33221  37.625   2.147   3.190
60896W        W33222  29.087  44.030   1.927
60897W        W33223   7.176  40.374   4.304
60898W        W33224  39.876  42.993  11.069
60899W        W33225  11.170  38.020  13.885
60900W        W33226  39.116  29.055  12.112
60901W        W33227  31.660   4.310  13.548
60902W        W33228  35.142  24.848   4.183
60903W        W33229  36.858  27.544  12.877
60904W        W33230   6.376  14.383   3.982
60905W        W33231   9.828  29.997  12.984
60906W        W33232  23.956  35.953   4.332
60907W        W33233  27.763  11.344   0.430
60908W        W33234  44.031  21.229  14.364
60909W        W33235  37.569  30.556   4.518
60910W        W33236  14.001   4.184  11.198
60911W        W33237   0.196  11.741   0.872
60912W        W33238  41.825   1.828   3.335
60913W        W33239  42.155  29.740  13.456
60914W        W33240  30.398  12.873   1.387
60915W        W33241  39.995  12.356   0.779
60916W        W33242  25.148  14.629  10.353
60917W        W33243   2.140  36.152   0.757
60918W        W33244  34.874  30.103  11.137
60919W        W33245   5.344  34.500  12.338
60920W        W33246  15.694   5.788  11.106
60921W        W33247  23.357  32.085   4.041
60922W        W33248  25.261  10.837  12.016
60923W        W33249  29.896  32.357   0.928
60924W        W33250  41.246  26.588  13.539
60925W        W33251  44.051   9.395  12.414
60926W        W33252  17.628   2.410   3.354
60927W        W33253  29.280   2.783  10.745
60928W        W33254   7.299  37.805  11.760
60929W        W33255  12.949  27.610   5.460
60930W        W33256   5.426  38.006   4.049
60931W        W33257  36.900  31.158  13.276
60932W        W33258  18.709  33.881   3.843
60933W        W33259  35.618  27.881   0.992
60934W        W33260  38.322  34.279  12.112
60935W        W33261  43.907   3.706   2.201
60936W        W33262  44.730  40.040  10.399
60937W        W33263  14.045  27.592   4.955
60938W        W33264  25.978  17.700   4.808
60939W        W33265  39.382  30.636  11.857
60940W        W33266  13.260  21.498   0.337
60941W        W33267  31.380  13.636  11.234
60942W        W33268  17.850  17.691   3.545
60943W        W33269  29.896   7.200  10.715
60944W        W33270  35.906  24.428  13.311
60945W        W33271  42.836  33.272  14.894
60946W        W33272  37.327  41.475  12.493
60947W        W33273  36.101   8.500  10.526
60948W        W33274  33.010   7.757  12.456
60949W        W33275  25.542  19.032  13.257
60950W        W33276  35.993  42.056  13.677
60951W        W33277  28.152  13.878   9.906
60952W        W33278   8.419   7.766  13.797
60953W        W33279  39.460  26.517  10.718
60954W        W33280   9.257  41.827   4.149
60955W        W33281  42.856  32.932  12.453
60956W        W33282  39.370  32.503   1.673
60957W        W33283   0.421  42.878  11.046
60958W        W33284   1.823  29.539   1.401
60959W        W33285  30.544  18.934  11.253
60960W        W33286  34.425   5.384   4.618
60961W        W33287  41.889  40.555   0.722
60962W        W33288  32.593  24.954  14.781
60963W        W33289   0.148   4.454  12.464
60964W        W33290  12.207  21.902   1.937
60965W        W33291  24.526  28.620   4.530
60966W        W33292  40.801  29.112  11.518
60967W        W33293  31.000  23.404   0.009
60968W        W33294  14.555  15.656  13.896
60969W        W33295  15.259  21.961  12.896
60970W        W33296  15.245  44.426   3.276
60971W        W33297  43.517   1.362  13.416
60972W        W33298  21.330  13.179  11.700
60973W        W33299   0.115  10.851   1.123
60974W        W33300  35.164  10.332  11.154
60975W        W33301  19.712  42.585   4.919
60976W        W33302  29.410   6.714  13.435
60977W        W33303  15.370  13.635   2.947
60978W        W33304  22.575   5.955   1.935
60979W        W33305  36.796  16.585   2.760
60980W        W33306  44.122   8.899  12.512
60981W        W33307  30.058  36.511  12.067
60982W        W33308  13.084  18.706   2.635
60983W        W33309  13.684   4.111   4.594
60984W        W33310  37.062   5.352   1.233
60985W        W33311  24.111  15.378   0.457
60986W        W33312  38.914   0.010   0.812
60987W        W33313  25.769  34.354  11.650
60988W        W33314  10.493  39.935  13.591
60989W        W33315  33.225  20.444  12.458
60990W        W33316   0.350  18.799   1.195
60991W        W33317  27.556  37.001  10.504
60992W        W33318  40.303  10.297  13.540
60993W        W33319   1.788   5.415   4.486
60994W        W33320   5.964  39.114  11.463
60995W        W33321  32.186   7.829  13.690
60996W        W33322   2.830  37.987   2.672
60997W        W33323   1.385  36.993   0.188
60998W        W33324   7.481  16.335  10.695
60999W        W33325  26.929  10.284   1.219
61000W        W33326  20.077  42.413   1.173
61001W        W33327  33.333   2.691  11.976
61002W        W33328  26.086  29.013  10.725
61003W        W33329  43.326  17.256   3.826
61004W        W33330  20.089  28.006  10.729
61005W        W33331  32.110  26.883   1.800
61006W        W33332   8.152  20.599  14.298
61007W        W33333  31.091  29.334   2.746
61008W        W33334   9.349  44.843  10.739
61009W        W33335   1.337  19.551  11.992
61010W        W33336  24.597   0.943  12.081
61011W        W33337  23.500  19.180   4.724
61012W        W33338  23.973  28.181  10.611
61013W        W33339  29.081  14.831   4.886
61014W        W33340  43.615  15.463  11.001
61015W        W33341  19.179  42.281  11.434
61016W        W33342  41.475  10.036  12.019
61017W        W33343   5.204  24.982   2.254
61018W        W33344  27.177  14.156  12.033
61019W        W33345  24.276   1.856  14.822
61020W        W33346  38.919  30.475   0.553
61021W        W33347  32.158   7.511   1.464
61022W        W33348  22.238  27.011   2.421
61023W        W33349  13.620   1.549   3.299
61024W        W33350  27.581  22.129  10.533
61025W        W33351  44.367  34.133   3.199
61026W        W33352   1.177  29.136  10.994
61027W        W33353  20.032   9.022   0.303
61028W        W33354  14.368   3.750   2.845
61029W        W33355  44.407   8.740  10.310
61030W        W33356  41.019  43.828   3.287
61031W        W33357  13.133  38.481  13.746
61032W        W33358  26.053  21.456  10.388
61033W        W33359  24.933  28.057  14.746
61034W        W33360  36.171  32.531   2.814
61035W        W33361   7.905  28.187  14.889
61036W        W33362   3.949  14.094   1.498
61037W        W33363  17.301  40.849   3.198
61038W        W33364  19.076  17.730   4.180
61039W        W33365  16.186  41.723  13.551
61040W        W33366   6.715  41.549  10.392
61041W        W33367  17.136  32.558   4.057
61042W        W33368  34.876   3.848  11.690
61043W        W33369  25.252  31.531   2.972
61044W        W33370   8.347  22.723   2.822
61045W        W33371  42.267  23.069   1.824
61046W        W33372   2.434  13.612  14.825
61047W        W33373  26.993  34.547   4.483
61048W        W33374   2.210  20.038  11.422
61049W        W33375  24.700  16.783   3.746
61050W        W33376  14.210  38.158   4.601
61051W        W33377  18.287  15.598   1.914
61052W        W33378  26.042  26.876  12.834
61053W        W33379  41.897  28.948   1.525
61054W        W33380  17.636   1.970  10.653
61055W        W33381  35.332  35.997   0.529
61056W        W33382   7.843  15.178   3.759
61057W        W33383  16.193  25.188  13.191
61058W        W33384  37.382   0.918  11.186
61059W        W33385   7.599  18.202  14.443
61060W        W33386  27.650  37.442  14.513
61061W        W33387  37.516  17.481  12.092
61062W        W33388  22.137   4.731   2.037
61063W        W33389  13.794  28.180   3.724
61064W        W33390  35.435   4.440  10.731
61065W        W33391  12.216  35.712  10.268
61066W        W33392  16.704  43.444  12.007
61067W        W33393  22.139   4.823  13.034
61068W        W33394  34.479   2.276  12.609
61069W        W33395  31.649  38.667  14.777
61070W        W33396  42.763  26.149   1.501
61071W        W33397   7.964  40.722   0.355
61072W        W33398  27.592   9.062  12.939
61073W        W33399  32.011  29.022   4.881
61074W        W33400  31.186  22.475   3.044
61075W        W33401  17.418  22.665  11.169
61076W        W33402  34.441  26.732  14.073
61077W        W33403   2.709   9.916  14.066
61078W        W33404  16.327  15.509   1.754
61079W        W33405   1.225  41.312   0.187
61080W        W33406  32.883  18.190   4.048
61081W        W33407  37.963  41.917   1.782
61082W        W33408  10.310  22.446   0.299
61083W        W33409   6.745   5.806   2.093
61084W        W33410  27.207   8.729  11.070
61085W        W33411  39.072  25.230  12.151
61086W        W33412  31.577  27.059  14.314
61087W        W33413  44.377   5.954  11.441
61088W        W33414  41.445  35.020  12.959
61089W        W33415  30.497  12.690   4.218
61090W        W33416  19.014  41.876   1.055
61091W        W33417  21.543  16.287  10.488
61092W        W33418  35.869  20.328  12.559
61093W        W33419  15.736  20.911   3.194
61094W        W33420  34.481  21.553   4.049
61095W        W33421   1.783  20.281  12.895
61096W        W33422  37.801  21.064  14.418
61097W        W33423  23.618  41.367   2.614
61098W        W33424  22.907  43.785   1.313
61099W        W33425   1.821  39.584   1.982
61100W        W33426   0.663   1.277   3.008
61101W        W33427  16.695   3.532   3.706
61102W        W33428  26.269  30.788  11.206
61103W        W33429  27.520  44.089   1.402
61104W        W33430  21.828  39.944   0.857
61105W        W33431  34.755  37.892  10.299
61106W        W33432  12.669  18.160   1.409
61107W        W33433   0.601   7.332  13.393
61108W        W33434  37.030  18.093   3.355
61109W        W33435  16.319   3.637   0.373
61110W        W33436  30.433  29.293   0.246
61111W        W33437   2.391  18.005   1.822
61112W        W33438  17.606  29.565   0.028
61113W        W33439  37.073  15.157   1.748
61114W        W33440  14.108  36.026  12.503
61115W        W33441  27.232   4.917   0.842
61116W        W33442  20.118  10.129   3.730
61117W        W33443  43.441  14.688   4.476
61118W        W33444   5.682  11.802  14.334
61119W        W33445   9.319  19.783   4.758
61120W        W33446  44.801  29.045   3.447
61121W        W33447  14.282  40.372   4.355
61122W        W33448  15.219  33.690  11.870
61123W        W33449  37.034  42.994  11.400
61124W        W33450  21.980  37.994   3.778
61125W        W33451  36.997  33.863   0.905
61126W        W33452  22.122  25.525  10.493
61127W        W33453  12.890  44.162  12.478
61128W        W33454  24.734  11.933   4.965
61129W        W33455  24.010   2.061   2.003
61130W        W33456  36.716  40.873  11.905
61131W        W33457  22.177  27.655  13.361
61132W        W33458  11.429  14.348  10.795
61133W        W33459  38.360   4.098  10.855
61134W        W33460  32.170  25.525  11.246
61135W        W33461  42.566  14.174  11.695
61136W        W33462  29.568  15.810  13.431
61137W        W33463   0.579  28.167  14.802
61138W        W33464  25.019  36.483   4.937
61139W        W33465  16.240  25.628  14.504
61140W        W33466  39.464  32.478  11.413
61141W        W33467  20.062  23.237  10.616
61142W        W33468  42.385  19.181   4.197
61143W        W33469  37.922   4.824  11.169
61144W        W33470  29.258  26.011  13.582
61145W        W33471  24.618  35.023  14.935
61146W        W33472  40.929  29.274   1.510
61147W        W33473  15.825  38.993  14.886
61148W        W33474  20.950  10.814  11.112
61149W        W33475  31.445  31.877  14.333
61150W        W33476   7.295  14.227   4.110
61151W        W33477   3.775  42.082  14.341
61152W        W33478  37.474  40.004   2.893
61153W        W33479  18.345  30.584   0.331
61154W        W33480  20.545  20.024  14.380
61155W        W33481  44.843  35.622   3.374
61156W        W33482  17.504  15.862   0.577
61157W        W33483   6.919  25.993   3.171
61158W        W33484  11.294   0.857  11.293
61159W        W33485  42.498   3.101  11.514
61160W        W33486  33.684   2.995  12.936
61161W        W33487   1.830   5.482  13.791
61162W        W33488  13.113   1.691  11.637
61163W        W33489  19.267  44.870  10.600
61164W        W33490  36.529  39.804  13.564
61165W        W33491  23.231  22.461  13.970
61166W        W33492   6.878  26.040  12.933
61167W        W33493  34.096   4.504   4.077
61168W        W33494   6.432  23.499   3.171
61169W        W33495   5.422  29.068  11.475
61170W        W33496   9.852  23.644  12.504
61171W        W33497  27.734   8.670  11.052
61172W        W33498  28.130  10.105  13.115
61173W        W33499   8.445  35.090  11.681
61174W        W33500   1.768  24.865   3.758
61175W        W33501  44.915  15.637   3.031
61176W        W33502  43.841   4.459   4.992
61177W        W33503   3.655  10.369   3.666
61178W        W33504  20.633  25.710   3.787
61179W        W33505   7.471  26.101  10.628
61180W        W33506  19.675  17.950  12.013
61181W        W33507  25.234  19.225  11.119
61182W        W33508  27.397  23.250  12.942
61183W        W33509  20.935  36.447  11.118
61184W        W33510  18.353  19.193   4.147
61185W        W33511  16.266  22.806   1.445
61186W        W33512  21.954  11.647  11.421
61187W        W33513  30.062  40.788  11.589
61188W        W33514  41.487  24.674   3.598
61189W        W33515  32.300  16.596   0.418
61190W        W33516   0.943  15.592  10.835
61191W        W33517  30.662   7.646  10.495
61192W        W33518  34.825   1.331   2.911
61193W        W33519  24.543   8.248  13.045
61194W        W33520  40.769  14.692  11.966
61195W        W33521   8.697  34.790  14.963
61196W        W33522  13.967  36.657   4.990
61197W        W33523   6.433   6.268   3.323
61198W        W33524  43.557  13.191  14.916
61199W        W33525  18.259  39.600   3.428
61200W        W33526  24.415  12.015  13.308
61201W        W33527  40.978  41.019  14.447
61202W        W33528  22.451  33.233   2.826
61203W        W33529  21.204  37.979  14.626
61204W        W33530   9.967   6.168  13.468
61205W        W33531  18.802  28.589   2.842
61206W        W33532   5.100  32.711   0.249
61207W        W33533  40.921   7.176   3.269
61208W        W33534  17.264  36.621   0.917
61209W        W33535  14.680  28.644   4.649
61210W        W33536  27.806   0.953   0.523
61211W        W33537  35.707  11.442   9.812
61212W        W33538  32.085  40.016   1.122
61213W        W33539  29.648   6.668  12.489
61214W        W33540   5.971  26.640  14.527
61215W        W33541  42.846  24.101  13.480
61216W        W33542   6.658  15.726  13.825
61217W        W33543  11.257  11.816   1.977
61218W        W33544  10.413   3.999  10.307
61219W        W33545  34.964  39.500   3.378
61220W        W33546  13.128   9.660   1.709
61221W        W33547  42.489  30.419  13.927
61222W        W33548   0.904  40.828  12.647
61223W        W33549   7.354  11.105   0.785
61224W        W33550  31.549   5.819   4.686
61225W        W33551  18.767   5.646   3.748
61226W        W33552   0.401  20.701   1.010
61227W        W33553  22.507  33.062  11.162
61228W        W33554   8.272  33.623   2.781
61229W        W33555   7.960  24.498   1.264
61230W        W33556  44.390  36.095  14.897
61231W        W33557  25.332  38.481  14.957
61232W        W33558   2.385  40.273  13.324
61233W        W33559  24.377  44.220  11.631
61234W        W33560  22.710  15.718  13.789
61235W        W33561  24.734  35.294  14.497
61236W        W33562  29.073  29.391  11.511
61237W        W33563   4.952   8.163  12.683
61238W        W33564  27.159  41.167  13.531
61239W        W33565  14.721  42.987  10.696
61240W        W33566  31.838  22.776  12.083
61241W        W33567   0.420  39.079  12.452
61242W        W33568  11.841   7.638  11.937
61243W        W33569  39.335  27.004   3.235
61244W        W33570  18.353   1.828   3.814
61245W        W33571  17.392   2.934  11.684
61246W        W33572  37.928  15.115  13.929
61247W        W33573  43.202  36.142   3.296
61248W        W33574  13.517  38.996   2.194
61249W        W33575   2.205  12.671  14.923
61250W        W33576  25.925  41.520  13.297
61251W        W33577  26.730  18.757   0.934
61252W        W33578  14.315  38.898  12.493
61253W        W33579  26.698  38.378   1.036
61254W        W33580  30.253  38.180  12.457
61255W        W33581  39.686   8.536  13.429
61256W        W33582  13.067  11.159   0.796
61257W        W33583  39.502  31.623   0.375
61258W        W33584   3.265   9.530  13.315
61259W        W33585   0.241  41.144   0.830
61260W        W33586  20.642  37.290  14.863
61261W        W33587   6.543   4.248   4.751
61262W        W33588  30.806  33.467  13.198
61263W        W33589  15.396  11.318  13.771
61264W        W33590  10.721  39.559  12.632
61265W        W33591   8.299   0.998  12.444
61266W        W33592  14.552  28.870   3.116
61267W        W33593  23.986  13.308   1.580
61268W        W33594   1.857   1.684  11.371
61269W        W33595  33.331  33.308   5.021
61270W        W33596   7.716  34.613  14.729
61271W        W33597   5.180  26.127   4.246
61272W        W33598  31.577  41.811  11.681
61273W        W33599  34.987  19.725  14.789
61274W        W33600  33.421   6.728   4.953
61275W        W33601   1.796  21.503   2.814
61276W        W33602  36.478  29.860  10.748
61277W        W33603  31.177  39.984  12.759
61278W        W33604  38.455  11.329   0.227
61279W        W33605  42.553  44.548   2.797
61280W        W33606  16.025  28.495  10.365
61281W        W33607  36.298  36.970   2.831
61282W        W33608  22.544  30.990   2.862
61283W        W33609  21.745  27.602   3.131
61284W        W33610  31.092  27.491   1.737
61285W        W33611  13.429  29.460   1.798
61286W        W33612  13.137   0.176  13.570
61287W        W33613  19.500  23.611  11.194
61288W        W33614  33.886  19.799   0.463
61289W        W33615  13.119  29.892   1.827
61290W        W33616  15.307  37.439   2.794
61291W        W33617   6.884  36.321   3.284
61292W        W33618  22.225   2.251   1.420
61293W        W33619  35.311  17.160  13.340
61294W        W33620  22.638  11.519   1.657
61295W        W33621  37.070  19.768  10.787
61296W        W33622  42.310  31.219   2.315
61297W        W33623   8.525   1.228   1.464
61298W        W33624  32.888  35.723   2.348
61299W        W33625  40.869   9.397   0.644
61300W        W33626   2.894  18.192  10.717
61301W        W33627  13.626  18.398  12.797
61302W        W33628  23.520  10.819   0.807
61303W        W33629  41.048   4.680   4.915
61304W        W33630  33.027  14.000  11.927
61305W        W33631   6.724  27.585  13.044
61306W        W33632  18.778  27.689   1.768
61307W        W33633  16.501  27.012  12.430
61308W        W33634   0.458  40.456  14.396
61309W        W33635  33.597  39.703   1.955
61310W        W33636  20.050  26.625   3.301
61311W        W33637   4.873   4.191  10.073
61312W        W33638  36.806  39.645  11.904
61313W        W33639  27.341  29.679   2.302
61314W        W33640  31.152  44.273   1.917
61315W        W33641  23.769  21.979   1.336
61316W        W33642  36.484  42.996  14.349
61317W        W33643  23.542  23.179   1.907
61318W        W33644   4.574  11.549   5.446
61319W        W33645  27.187  23.610   1.881
61320W        W33646  24.396  18.612  12.651
61321W        W33647  17.031  18.621   1.851
61322W        W33648  35.755  27.507   0.284
61323W        W33649  28.870   6.676   1.476
61324W        W33650  36.916  43.562   2.302
61325W        W33651  30.945   0.427  13.476
61326W        W33652   7.795  14.206   3.268
61327W        W33653  14.271   4.140  12.116
61328W        W33654  29.221  38.896   3.388
61329W        W33655  34.413  20.066  11.630
61330W        W33656  37.829  24.661   3.195
61331W        W33657   7.908  36.780  13.323
61332W        W33658  31.051  24.455   1.229
61333W        W33659  13.947  27.004  10.619
61334W        W33660   6.475  41.323   3.319
61335W        W33661  33.966  33.734  10.228
61336W        W33662  25.259  43.171  13.147
61337W        W33663  23.014  41.287   2.313
61338W        W33664  15.703  42.881   3.711
61339W        W33665  17.583  20.009   4.046
61340W        W33666  35.717  27.117   1.920
61341W        W33667   2.898  10.081   2.816
61342W        W33668  16.170   5.159  10.744
61343W        W33669  25.514   3.685   4.137
61344W        W33670   7.414  23.116   2.784
61345W        W33671  39.716  14.244   1.602
61346W        W33672  22.148  32.701  11.040
61347W        W33673   9.603  38.381  14.924
61348W        W33674   5.249  14.104   2.411
61349W        W33675  16.547  27.106   1.809
61350W        W33676  21.554   5.403   1.772
61351W        W33677  41.462  22.004  10.658
61352W        W33678   6.296   2.757   1.393
61353W        W33679  32.723  41.520   2.228
61354W        W33680   7.901  30.693  14.708
61355W        W33681  27.612   3.779   1.677
61356W        W33682  35.398  29.183  14.956
61357W        W33683  21.987  22.512  12.966
61358W        W33684  30.013  14.393   4.167
61359W        W33685  18.701   8.833  10.840
61360W        W33686  43.953  19.741   4.703
61361W        W33687  31.036  37.590  12.481
61362W        W33688  34.779  35.839   4.458
61363W        W33689  25.962  36.483   2.853
61364W        W33690   6.265  13.913  13.751
61365W        W33691  27.967  18.107  14.326
61366W        W33692  21.027  11.396   4.594
61367W        W33693   9.905  36.350  14.510
61368W        W33694   8.795  39.341   4.597
61369W        W33695  16.034  13.215  13.505
61370W        W33696  32.855  26.241   3.342
61371W        W33697  13.670  13.243   1.230
61372W        W33698  43.313  38.345  13.858
61373W        W33699  19.495   2.284  14.939
61374W        W33700   7.858  30.014  13.435
61375W        W33701   6.680   0.324  10.939
61376W        W33702  37.400  12.960  11.171
61377W        W33703  14.630  13.798  12.001
61378W        W33704  22.496  39.081  12.722
61379W        W33705  12.114   2.321   4.642
61380W        W33706  10.675  25.751  12.639
61381W        W33707  42.998  23.977   2.708
61382W        W33708  44.259  32.015  14.934
61383W        W33709   4.444  11.247  14.431
61384W        W33710  37.996  43.237  14.853
61385W        W33711  24.443  36.633  10.402
61386W        W33712  37.271  42.764  11.833
61387W        W33713  34.613   3.651   1.031
61388W        W33714   3.518  25.451  13.857
61389W        W33715  29.610  20.935  10.280
61390W        W33716  42.062  18.135  13.791
61391W        W33717  32.475   1.209  13.172
61392W        W33718  36.546  40.849   0.685
61393W        W33719  21.913  25.159   4.042
61394W        W33720  12.853  37.407   4.108
61395W        W33721  39.064  34.469  12.920
61396W        W33722  37.102  21.529  14.670
61397W        W33723  11.732  44.260  11.233
61398W        W33724   9.479  42.698  11.121
61399W        W33725   7.236  15.166  13.335
61400W        W33726  12.777  11.055   0.276
61401W        W33727  11.823  41.630   0.994
61402W        W33728  29.221  42.681  12.862
61403W        W33729  39.534  18.179   3.373
61404W        W33730  15.755  36.932   2.249
61405W        W33731   3.936  31.782  11.138
61406W        W33732   6.227  21.809   4.731
61407W        W33733  19.734  43.593  13.047
61408W        W33734  35.838   7.104   1.317
61409W        W33735   0.492  36.605   2.336
61410W        W33736   1.860  32.067   0.877
61411W        W33737   5.945  11.694  13.295
61412W        W33738  37.781  22.921  10.999
61413W        W33739   3.399  18.555   1.963
61414W        W33740  13.924  35.589   3.561
61415W        W33741  25.568  16.312   1.242
61416W        W33742  18.237  22.007   3.803
61417W        W33743  24.684   3.567  13.991
61418W        W33744  12.522   6.797  13.026
61419W        W33745   5.775  12.855   4.105
61420W        W33746  16.173  29.109   3.280
61421W        W33747  28.306  44.702  13.824
61422W        W33748  36.982   2.449  14.013
61423W        W33749  15.266  37.502  12.022
61424W        W33750  21.591  14.108  13.032
61425W        W33751  17.707  14.684   3.401
61426W        W33752   0.718  19.710  11.641
61427W        W33753  41.907   3.955   3.205
61428W        W33754  39.669   8.790   1.153
61429W        W33755  41.181  37.124   2.551
61430W        W33756  38.441   1.994   4.828
61431W        W33757  20.402  39.926   0.255
61432W        W33758  23.043  18.775  12.112
61433W        W33759  23.281  41.788   5.013
61434W        W33760   7.917  30.446   1.554
61435W        W33761  30.623  18.018   3.296
61436W        W33762   2.452  13.898  14.369
61437W        W33763  28.956  27.144  12.927
61438W        W33764  32.238  15.317   3.373
61439W        W33765  21.271  11.734   0.963
61440W        W33766  28.209   1.407   2.952
61441W        W33767  39.057   3.957  14.757
61442W        W33768  18.683  33.937  10.311
61443W        W33769   1.275  28.588  11.594
61444W        W33770  19.015  43.744  13.563
61445W        W33771   6.727  16.800  11.908
61446W        W33772  16.953  20.610  13.744
61447W        W33773  23.547  16.758  13.866
61448W        W33774  17.522  11.106  12.928
61449W        W33775  19.238  39.412   1.645
61450W        W33776  32.396  16.386  14.946
61451W        W33777  38.840  41.967   2.218
61452W        W33778   5.317  15.930  14.992
61453W        W33779   4.074   2.008   3.740
61454W        W33780  38.194  20.794  11.398
61455W        W33781   7.997  26.687   0.826
61456W        W33782   2.422  31.990  12.056
61457W        W33783   6.222  18.030  11.188
61458W        W33784  38.936   1.282  12.583
61459W        W33785  29.295  30.954  10.529
61460W        W33786  29.447  14.828  10.795
61461W        W33787  13.606  20.448  11.602
61462W        W33788  44.874  11.809  12.190
61463W        W33789   8.727   0.582  12.120
61464W        W33790  36.557  14.352   0.843
61465W        W33791  14.365  31.618   0.235
61466W        W33792  38.092  19.325   2.731
61467W        W33793  44.780  28.121  12.137
61468W        W33794   7.156   7.424   4.067
61469W        W33795   7.756  10.939  14.372
61470W        W33796  30.337  29.992  10.763
61471W        W33797  21.967  25.646   4.342
61472W        W33798  15.860   7.835  13.415
61473W        W33799  40.027  25.692   1.929
61474W        W33800   7.822  24.193  14.796
61475W        W33801  27.268  23.598   2.813
61476W        W33802  34.820  44.200   1.370
61477W        W33803  41.813   7.116  12.505
61478W        W33804  20.957  11.519   2.284
61479W        W33805   6.283  35.121  12.423
61480W        W33806  31.593   1.750  14.024
61481W        W33807  21.689  41.785  10.702
61482W        W33808  16.072  13.222   3.871
61483W        W33809  16.699  43.750  11.562
61484W        W33810  12.628  19.510   1.616
61485W        W33811   5.598  13.375  12.517
61486W        W33812   3.885   2.647   1.286
61487W        W33813  23.099   3.941  10.602
61488W        W33814  41.438  19.680   4.279
61489W        W33815  11.764  39.929   4.328
61490W        W33816  29.095  33.435  11.171
61491W        W33817  26.966   7.321  12.445
61492W        W33818  36.527  16.925   3.776
61493W        W33819  43.736  37.336  14.600
61494W        W33820  32.806  15.892   2.680
61495W        W33821  37.918  39.152   1.733
61496W        W33822   3.617  31.224   4.000
61497W        W33823  11.589  12.618   2.998
61498W        W33824  10.800   2.213  13.112
61499W        W33825  43.644  28.902  10.072
61500W        W33826  36.331  43.799   2.862
61501W        W33827  14.236  30.321   4.758
61502W        W33828  34.705  20.115   0.498
61503W        W33829  13.657  32.975   3.124
61504W        W33830  40.015  25.607  12.139
61505W        W33831  42.066   5.888   3.855
61506W        W33832  43.505  37.834   4.571
61507W        W33833  29.510   9.168   2.458
61508W        W33834   4.770   7.499  13.376
61509W        W33835  20.701  18.283   2.537
61510W        W33836  39.629  22.244   4.576
61511W        W33837  34.792   6.793  13.377
61512W        W33838  32.485  33.051  14.332
61513W        W33839  13.127  17.553   4.558
61514W        W33840   4.299  23.273  12.339
61515W        W33841  12.729  25.603   3.913
61516W        W33842  39.083  18.363  14.824
61517W        W33843  41.423  38.348   0.935
61518W        W33844   2.702   4.915  11.470
61519W        W33845  35.199  12.051  14.628
61520W        W33846  16.734  18.920  12.403
61521W        W33847   8.344  24.010   0.506
61522W        W33848  25.547  14.758  10.656
61523W        W33849  23.944  38.764  13.874
61524W        W33850  18.240   3.701  13.972
61525W        W33851  26.286   6.046   1.286
61526W        W33852   6.292  18.856  13.341
61527W        W33853  21.981  14.475   2.988
61528W        W33854  27.715  35.908  11.099
61529W        W33855  41.450   4.241   3.334
61530W        W33856  18.788  36.390   2.837
61531W        W33857   7.742  21.295  13.395
61532W        W33858  23.548  42.268   0.709
61533W        W33859  26.649  40.706   3.245
61534W        W33860  14.983  35.621  12.150
61535W        W33861  26.180  10.366  14.880
61536W        W33862   5.605   7.371  12.441
61537W        W33863  23.561  42.264   2.272
61538W        W33864  30.935  14.652   0.917
61539W        W33865  37.825   7.891  12.980
61540W        W33866  30.004   1.220   2.796
61541W        W33867  39.274  30.108   3.794
61542W        W33868  19.022  22.076  13.108
61543W        W33869   7.484  12.663  10.698
61544W        W33870  11.780   1.653   0.968
61545W        W33871   3.600  36.354  12.441
61546W        W33872  21.993  12.891  12.203
61547W        W33873  23.556  10.369  10.509
61548W        W33874  26.015  14.313  11.107
61549W        W33875  44.795  44.208   0.667
61550W        W33876  40.425  30.976   1.765
61551W        W33877  22.154   8.485  12.377
61552W        W33878  33.024  30.079  13.107
61553W        W33879  14.171  31.660   0.700
61554W        W33880  16.280  22.756   0.120
61555W        W33881  33.233   2.908  13.816
61556W        W33882  26.252   2.881   0.458
61557W        W33883  30.342  42.795  13.866
61558W        W33884  33.910  26.627  10.501
61559W        W33885  25.029  34.141  13.266
61560W        W33886  14.542  41.024   2.353
61561W        W33887  26.619  30.604   2.888
61562W        W33888  43.895  19.029  12.481
61563W        W33889   4.478   0.830   0.318
61564W        W33890  39.929  24.707  10.708
61565W        W33891   2.673  19.772   3.987
61566W        W33892   2.094  24.493   5.474
61567W        W33893  16.093  32.513   0.370
61568W        W33894  10.824  26.213  13.486
61569W        W33895  11.356  39.402  13.613
61570W        W33896  32.052  23.430   2.829
61571W        W33897  35.945   3.510   1.394
61572W        W33898  12.579  18.326  14.889
61573W        W33899  14.680   9.899   3.805
61574W        W33900   2.503  33.524  11.128
61575W        W33901   6.488  20.436   1.373
61576W        W33902  18.717  26.917  14.230
61577W        W33903  44.734  19.477  11.101
61578W        W33904  29.668   2.966  13.313
61579W        W33905  25.718  11.731  13.487
61580W        W33906  20.978   5.187   3.235
61581W        W33907   3.920   9.240  14.554
61582W        W33908  26.285  35.017  11.852
61583W        W33909  16.198  41.767  14.904
61584W        W33910  34.677   4.159  12.037
61585W        W33911  21.819   9.257   3.774
61586W        W33912  25.565  29.152  11.502
61587W        W33913   1.017   3.773  11.253
61588W        W33914  20.818  39.436  12.605
61589W        W33915  30.584  43.957   1.278
61590W        W33916  33.137  34.124   5.484
61591W        W33917   2.262   2.022  14.549
61592W        W33918  37.898   9.794  12.575
61593W        W33919  14.911   5.931   3.625
61594W        W33920   6.738  27.939   1.157
61595W        W33921   3.712  38.040  13.846
61596W        W33922  27.513  11.923   4.574
61597W        W33923  16.072  21.595  13.885
61598W        W33924   1.678  19.945  12.018
61599W        W33925  32.083  34.378   0.189
61600W        W33926  20.186  27.486  11.554
61601W        W33927   0.954  34.413  11.698
61602W        W33928  31.793  32.394   3.353
61603W        W33929  31.125  12.564   1.718
61604W        W33930   1.331   9.156   4.031
61605W        W33931  15.832  33.563   1.411
61606W        W33932   5.959   6.920   0.869
61607W        W33933  38.117  13.863   0.392
61608W        W33934   6.179  25.099  14.839
61609W        W33935  42.800  28.072   4.906
61610W        W33936  19.821  20.444   4.519
61611W        W33937  20.897  13.798   3.484
61612W        W33938   6.442  42.976  12.607
61613W        W33939  24.128  21.951  14.122
61614W        W33940  44.839  10.399  12.339
61615W        W33941   2.353  10.610   4.435
61616W        W33942  21.312  18.544   0.862
61617W        W33943  34.753  11.743  12.555
61618W        W33944  28.496   4.007  12.405
61619W        W33945  13.333  13.822   0.463
61620W        W33946  42.358  11.174  13.329
61621W        W33947   2.492  19.030   0.270
61622W        W33948  36.791  20.372   4.222
61623W        W33949  10.600  43.246   4.147
61624W        W33950  15.321   4.184  11.453
61625W        W33951  37.362  13.215   0.678
61626W        W33952   3.391   7.234  14.343
61627W        W33953  29.998   1.245   4.282
61628W        W33954  14.782  21.220   2.411
61629W        W33955  17.160  37.117   3.221
61630W        W33956  24.509   3.139  11.531
61631W        W33957   5.043  39.368   2.616
61632W        W33958  25.155  27.703  14.383
61633W        W33959  31.203   0.831  13.754
61634W        W33960  36.111  31.688   5.010
61635W        W33961  36.538  16.538   0.449
61636W        W33962   1.364   2.518   4.261
61637W        W33963   6.339  16.562  12.152
61638W        W33964  22.632  28.678   1.091
61639W        W33965   9.661  26.491   2.862
61640W        W33966   6.171  25.918   4.163
61641W        W33967  44.415  42.525  14.954
61642W        W33968  43.724  24.510   3.691
61643W        W33969   8.148  19.659   4.139
61644W        W33970  25.686  29.890  13.520
61645W        W33971   8.625  35.371   1.685
61646W        W33972  35.412  40.859  13.215
61647W        W33973  28.650  31.297   2.434
61648W        W33974  28.773  41.057  11.956
61649W        W33975  21.967  39.566   2.862
61650W        W33976  37.513  38.593   2.366
61651W        W33977   6.020   4.922   0.099
61652W        W33978  30.293  34.556  11.533
61653W        W33979  19.232  17.111   0.692
61654W        W33980  42.920  11.631   0.815
61655W        W33981  39.517   4.003  14.543
61656W        W33982  10.801  24.951   4.691
61657W        W33983   4.139   4.931  11.472
61658W        W33984  20.433   9.303   4.686
61659W        W33985  26.155   5.568   1.371
61660W        W33986  18.673  42.436  13.510
61661W        W33987  38.056  17.929  11.082
61662W        W33988  30.978  26.469  13.393
61663W        W33989  16.003  44.859   2.349
61664W        W33990  40.914  41.978   0.691
61665W        W33991  15.567  13.330   3.303
61666W        W33992  29.481  12.819  12.477
61667W        W33993   1.974  14.280   2.916
61668W        W33994  19.983  30.994   4.065
61669W        W33995  43.616   8.102  14.474
61670W        W33996   5.695  10.472  14.373
61671W        W33997   1.366  37.035  11.379
61672W        W33998  31.487  15.750   2.614
61673W        W33999  36.214  25.251   0.927
61674W        W34000  44.306  40.792   0.619
61675W        W34001  35.195  29.609  10.542
61676W        W34002  37.547  15.736  12.500
61677W        W34003  27.582  12.595  11.131
61678W        W34004   8.600  35.408   2.563
61679W        W34005  20.269  35.396   2.313
61680W        W34006   3.209  31.083  12.461
61681W        W34007   0.269  12.341   3.743
61682W        W34008   4.109  40.437  14.449
61683W        W34009  11.372  36.311   3.380
61684W        W34010  35.964  38.820   1.987
61685W        W34011  17.615   4.380  14.030
61686W        W34012  37.781  39.467   4.034
61687W        W34013  42.554  11.808   1.798
61688W        W34014   7.383   7.559  10.936
61689W        W34015   2.589   8.661  13.849
61690W        W34016  43.466  39.263   0.361
61691W        W34017   6.489  44.462  10.664
61692W        W34018  15.098   6.047  13.350
61693W        W34019   0.413  18.373  13.863
61694W        W34020  25.685   9.318  11.684
61695W        W34021  26.637   3.571  12.390
61696W        W34022  34.710  36.843  11.235
61697W        W34023  33.122  42.303   2.347
61698W        W34024  29.581   1.502  13.512
61699W        W34025  28.923  10.733  11.652
61700W        W34026  15.319  11.461  10.996
61701W        W34027  37.350  16.731   1.009
61702W        W34028  16.301  22.144  11.551
61703W        W34029  36.394   3.603   1.095
61704W        W34030  25.749  39.882   3.771
61705W        W34031  14.978  35.382   3.781
61706W        W34032  18.491  30.988   4.373
61707W        W34033  38.691  11.798  12.979
61708W        W34034  25.682  17.235  14.902
61709W        W34035  23.003  28.629   4.695
61710W        W34036  40.984  38.567   0.767
61711W        W34037   9.588  36.927   3.130
61712W        W34038  17.174  10.913   0.333
61713W        W34039  38.021  27.420  12.018
61714W        W34040   5.938  26.110   0.413
61715W        W34041  25.245   7.285  14.789
61716W        W34042  17.243  17.236  12.839
61717W        W34043  25.735  39.490   1.335
61718W        W34044  34.153  21.763  14.214
61719W        W34045  40.031  27.890  12.624
61720W        W34046   9.355  41.484  14.100
61721W        W34047  41.957  27.933   0.345
61722W        W34048  25.212  19.377  13.491
61723W        W34049  44.757  26.291  11.158
61724W        W34050  27.510   1.863   1.509
61725W        W34051  30.576  15.010   4.009
61726W        W34052  26.449  32.522   0.433
61727W        W34053  35.388  38.582  13.649
61728W        W34054   2.843  19.344   2.915
61729W        W34055  29.882   7.075  12.709
61730W        W34056  24.908  18.086   1.223
61731W        W34057  39.062  21.129  11.534
61732W        W34058  18.576  40.869   2.177
61733W        W34059  34.843  20.073   1.767
61734W        W34060   3.240   8.405   1.823
61735W        W34061  28.793   1.770  14.569
61736W        W34062  19.214  41.686  14.574
61737W        W34063  22.054  12.153   1.026
61738W        W34064  35.664   7.130   4.214
61739W        W34065  22.364  29.085   1.599
61740W        W34066  33.975  36.826   4.387
61741W        W34067  25.935  37.823   1.441
61742W        W34068  37.428   4.489  12.833
61743W        W34069  32.654   6.599  11.612
61744W        W34070   2.785  25.875  13.840
61745W        W34071  18.176  24.413   0.581
61746W        W34072  10.383  38.495   3.843
61747W        W34073  43.394  30.497   0.811
61748W        W34074  16.621  24.890  11.544
61749W        W34075  16.502   1.801  13.720
61750W        W34076  42.506  10.661   1.745
61751W        W34077  44.476  17.340   1.820
61752W        W34078  11.576  39.527   0.390
61753W        W34079   5.481  42.930  11.085
61754W        W34080  18.864  43.962   0.806
61755W        W34081  17.136  44.299  14.599
61756W        W34082   8.447  40.899   3.590
61757W        W34083  16.007  40.342   1.807
61758W        W34084   6.238  31.685   2.275
61759W        W34085  24.005   8.346   1.106
61760W        W34086  26.285  33.557   3.703
61761W        W34087  26.687  39.566   3.599
61762W        W34088   6.271   1.846  14.547
61763W        W34089  22.566   0.434   4.419
61764W        W34090  14.315   7.674  13.460
61765W        W34091  24.075  17.732  12.219
61766W        W34092   2.224  31.337  13.899
61767W        W34093  21.544  37.551  11.753
61768W        W34094  42.059  31.091  10.536
61769W        W34095  16.628  36.346  14.418
61770W        W34096  27.680  14.582  12.495
61771W        W34097  38.799  17.523   0.006
61772W        W34098  28.087  44.495  11.396
61773W        W34099  12.254  23.905  11.588
61774W        W34100  30.238  39.695   0.451
61775W        W34101  38.334  31.005   1.540
61776W        W34102  30.065  41.029   3.377
61777W        W34103  19.797  19.665   4.830
61778W        W34104  14.271   8.604  13.583
61779W        W34105  40.329  16.209   1.797
61780W        W34106  26.130  14.271  12.079
61781W        W34107   1.208  20.449  13.511
61782W        W34108  14.841  34.833  13.442
61783W        W34109  28.897   7.311  11.536
61784W        W34110   1.494  19.042  11.859
61785W        W34111  20.164  41.463   3.592
61786W        W34112  36.888  18.293   4.140
61787W        W34113  35.802  21.639   1.314
61788W        W34114  38.044  36.890  14.398
61789W        W34115  20.920   5.478   3.672
61790W        W34116  35.563  22.436   2.461
61791W        W34117  20.055   5.360  12.564
61792W        W34118  19.203  10.708  10.668
61793W        W34119  34.460   2.932   1.004
61794W        W34120  40.964  14.071  14.882
61795W        W34121   6.806  34.454   4.361
61796W        W34122  34.983   7.800  11.449
61797W        W34123  37.986  41.639   0.623
61798W        W34124  40.026  14.266   2.618
61799W        W34125   2.860  43.087   2.313
61800W        W34126  18.660   9.264   4.143
61801W        W34127   7.918  30.118   4.592
61802W        W34128  19.586  15.697  12.935
61803W        W34129  10.744  22.160   2.365
61804W        W34130   3.020  21.544  13.786
61805W        W34131   3.164   0.984  12.408
61806W        W34132  26.412  29.058   2.241
61807W        W34133   5.824  13.111   1.940
61808W        W34134  26.457  29.466   4.313
61809W        W34135  38.320  37.472   2.228
61810W        W34136  38.132  39.001  14.865
61811W        W34137  10.484  37.365   3.258
61812W        W34138  23.666  28.711  12.445
61813W        W34139  39.354  20.184   4.395
61814W        W34140  30.248  42.866  14.381
61815W        W34141  20.700   5.513   0.243
61816W        W34142  43.937  17.805  12.579
61817W        W34143  37.941  35.060   0.405
61818W        W34144  12.331  15.884   1.317
61819W        W34145  16.411   3.824  10.760
61820W        W34146   1.017  13.117   2.668
61821W        W34147   0.624   3.349   2.410
61822W        W34148  20.592  20.040   1.644
61823W        W34149  12.349  38.152  13.123
61824W        W34150  37.166  37.907  14.488
61825W        W34151   1.096  44.297  10.342
61826W        W34152  19.955  26.183  10.938
61827W        W34153  38.814  19.971  10.993
61828W        W34154  22.758  44.661  13.018
61829W        W34155  26.495  13.736  12.506
61830W        W34156  37.350  33.501   1.314
61831W        W34157  40.056  25.509   4.602
61832W        W34158   7.899  20.572   3.445
61833W        W34159  12.925  15.732   0.497
61834W        W34160  25.461  23.063  11.608
61835W        W34161  44.903  25.142   3.727
61836W        W34162  39.250  20.089  11.588
61837W        W34163  13.417   5.192  14.290
61838W        W34164   1.311   2.062  14.942
61839W        W34165  14.167  25.539  13.362
61840W        W34166  22.534  35.617   3.664
61841W        W34167  26.269  40.363   1.379
61842W        W34168  31.048   4.700  12.055
61843W        W34169  19.303   0.859  10.762
61844W        W34170  40.354  12.218  12.429
61845W        W34171   6.959  13.880   0.534
61846W        W34172  15.077  13.438   0.763
61847W        W34173  29.788  21.513  12.893
61848W        W34174   6.307  24.891   4.306
61849W        W34175  12.820   2.495  10.701
61850W        W34176  29.876  24.584   1.882
61851W        W34177  29.939  34.332  13.936
61852W        W34178  21.192  42.258   1.634
61853W        W34179   3.814  21.206   0.286
61854W        W34180   2.288   6.185  13.509
61855W        W34181   6.760   1.484  11.483
61856W        W34182  39.680  21.738   4.396
61857W        W34183   6.234   1.723  14.011
61858W        W34184  21.956  14.809   4.835
61859W        W34185  25.612  41.118   5.005
61860W        W34186  22.839  35.145   2.993
61861W        W34187  12.859  29.595   0.953
61862W        W34188  39.308   5.555   0.356
61863W        W34189   5.529   6.317   3.686
61864W        W34190   3.812  18.152   2.005
61865W        W34191   9.156  27.430   0.013
61866W        W34192   2.467   5.447  12.521
61867W        W34193  33.220  30.907  13.980
61868W        W34194  32.646  36.558   1.301
61869W        W34195  29.584  14.338  14.567
61870W        W34196   3.235   8.875   3.281
61871W        W34197  29.637   0.704  11.614
61872W        W34198  14.798  36.138   2.753
61873W        W34199  43.708   5.806  11.493
61874W        W34200  33.878  43.557  13.478
61875W        W34201   3.623  37.449  14.964
61876W        W34202  17.131  33.032   3.214
61877W        W34203  30.944   7.209  10.659
61878W        W34204  23.969  40.023   9.948
61879W        W34205  29.893  24.936   3.772
61880W        W34206  18.059  23.000   2.770
61881W        W34207  36.001  37.428   2.890
61882W        W34208  39.545   2.204   3.214
61883W        W34209  38.997  17.216  12.917
61884W        W34210  34.053  40.719   1.586
61885W        W34211   6.795  29.651   4.077
61886W        W34212   6.857  44.285   3.157
61887W        W34213  23.058  23.486   3.155
61888W        W34214   6.316  40.907  10.730
61889W        W34215   4.589  19.672  14.834
61890W        W34216  10.138  37.975   3.756
61891W        W34217   0.271  29.457   4.883
61892W        W34218  37.288  16.662   0.066
61893W        W34219  44.006  37.997   4.530
61894W        W34220  28.615   1.301  14.689
61895W        W34221   9.729  17.674  14.480
61896W        W34222  29.986   1.975  12.937
61897W        W34223  27.370  42.850   1.310
61898W        W34224   7.817  13.613   1.354
61899W        W34225  23.529  33.072   0.416
61900W        W34226  33.671  14.212  11.283
61901W        W34227  42.750  22.089  13.820
61902W        W34228   5.213   1.707  11.130
61903W        W34229   7.820  41.468  14.275
61904W        W34230   2.758   3.708   5.162
61905W        W34231  17.046  42.562   4.197
61906W        W34232  11.221  42.171   1.287
61907W        W34233  44.786  27.331  14.822
61908W        W34234  40.300  29.951   2.853
61909W        W34235  24.996  27.439   3.694
61910W        W34236  30.540  22.056   2.773
61911W        W34237   0.844  38.868  13.377
61912W        W34238   4.586  24.025  11.551
61913W        W34239  11.183  22.665  11.912
61914W        W34240  16.203  40.527   1.246
61915W        W34241  15.016  20.601  12.309
61916W        W34242  31.444  14.189   2.803
61917W        W34243   6.315  28.605  14.420
61918W        W34244  42.290  44.513   0.408
61919W        W34245  17.980  44.549  11.628
61920W        W34246   9.345  22.526   3.884
61921W        W34247  15.274  31.130   1.207
61922W        W34248  26.387  15.728  11.451
61923W        W34249  37.321  17.351  12.550
61924W        W34250   5.167  38.115   2.321
61925W        W34251  32.563  30.462  10.664
61926W        W34252  29.515  26.120   1.294
61927W        W34253  42.346  14.785   3.730
61928W        W34254  29.191  24.412   0.857
61929W        W34255   4.301  36.854  12.026
61930W        W34256  20.313   6.432  13.442
61931W        W34257   7.782   1.549   4.899
61932W        W34258   4.725  35.291   1.909
61933W        W34259  41.885   4.699   0.921
61934W        W34260   6.792  43.796  12.106
61935W        W34261  36.091   1.768   1.182
61936W        W34262  24.240  39.760  13.926
61937W        W34263  36.483   3.022  11.469
61938W        W34264  34.602  24.066   4.514
61939W        W34265  21.625  14.328   0.571
61940W        W34266   7.087   6.696   4.741
61941W        W34267  19.300   0.390  14.496
61942W        W34268  35.287  39.043   0.406
61943W        W34269  25.232   5.449   4.773
61944W        W34270  23.577   9.318   0.924
61945W        W34271  15.065  28.567  14.494
61946W        W34272   0.710  11.317  12.383
61947W        W34273   4.679  24.184  14.317
61948W        W34274  23.764  30.687  14.474
61949W        W34275   5.332  31.744   2.544
61950W        W34276  22.747  23.180  12.906
61951W        W34277  35.875  25.660   1.146
61952W        W34278  41.342  26.709   0.239
61953W        W34279   6.238   0.175  13.889
61954W        W34280  12.068   1.798  11.611
61955W        W34281  26.278  14.395   2.809
61956W        W34282  22.297  35.852  11.168
61957W        W34283   0.743  36.959  12.370
61958W        W34284  28.743  31.392  14.512
61959W        W34285   7.646  31.600   4.827
61960W        W34286   7.621   2.779  11.216
61961W        W34287   7.234  25.945   2.295
61962W        W34288  18.517  20.669  14.861
61963W        W34289  31.840  11.082  13.441
61964W        W34290  26.974  20.043   1.895
61965W        W34291  11.803  32.357  13.008
61966W        W34292  35.552  38.241  10.656
61967W        W34293  14.780  12.585   2.637
61968W        W34294  32.138  29.506  13.962
61969W        W34295  10.905  25.636   1.695
61970W        W34296  35.524  40.600  14.886
61971W        W34297  22.640  22.079  12.498
61972W        W34298  29.072  20.990   2.573
61973W        W34299   2.382  38.833  13.496
61974W        W34300  19.701  10.627  13.156
61975W        W34301   1.728   4.888   2.722
61976W        W34302   5.117  40.187  14.480
61977W        W34303  16.548  43.460  13.986
61978W        W34304  15.202  37.996  13.527
61979W        W34305  23.898  11.013  12.506
61980W        W34306  15.738  31.918  10.395
61981W        W34307  23.668   2.696   4.046
61982W        W34308   3.228  14.072   0.873
61983W        W34309  41.116   0.261   3.625
61984W        W34310  29.028  13.078  13.384
61985W        W34311  21.152   4.065   0.907
61986W        W34312  27.301  26.807  14.443
61987W        W34313  33.508  12.953   4.727
61988W        W34314  27.609  32.036  14.496
61989W        W34315   0.759  19.140  14.660
61990W        W34316  27.562  44.268  14.922
61991W        W34317  41.942  39.434   3.154
61992W        W34318  29.559  34.308   0.395
61993W        W34319   8.558  31.670   3.707
61994W        W34320   2.825  11.799  12.395
61995W        W34321  18.651   7.081  14.288
61996W        W34322  14.565  30.725  10.373
61997W        W34323  14.307   9.025  13.936
61998W        W34324   3.833  26.536  10.237
61999W        W34325   3.893  40.554  12.752
62000W        W34326  25.008  37.271  10.601
62001W        W34327   8.293  27.803  11.642
62002W        W34328  13.173  25.768  14.980
62003W        W34329   7.123  41.348  12.181
62004W        W34330  32.693  28.937  11.597
62005W        W34331  35.898   0.088  13.013
62006W        W34332  44.425   6.161  11.913
62007W        W34333  36.120   7.376   1.786
62008W        W34334  12.811  26.005  12.004
62009W        W34335  40.764  17.523   3.261
62010W        W34336  24.823  34.806   0.390
62011W        W34337  34.871  16.235  11.575
62012W        W34338  10.687   5.224   4.487
62013W        W34339  35.888  40.944  14.510
62014W        W34340  30.130  27.709  10.514
62015W        W34341   7.868   6.671   0.797
62016W        W34342  18.612  29.586  12.378
62017W        W34343  30.537  42.256  14.955
62018W        W34344  29.506  25.961  10.929
62019W        W34345  17.846  19.100   4.155
62020W        W34346   7.139  38.630   0.284
62021W        W34347  37.035  44.102   0.933
62022W        W34348  37.453  26.842   0.620
62023W        W34349  29.525  38.493   2.824
62024W        W34350   2.428  35.763  12.328
62025W        W34351  28.334   6.328  13.469
62026W        W34352  24.401  28.342   0.606
62027W        W34353  39.781  22.570  13.818
62028W        W34354  14.924  40.407  11.869
62029W        W34355   6.273   8.458  11.612
62030W        W34356   4.739  31.901  13.448
62031W        W34357  37.962  22.160   2.030
62032W        W34358  27.154   8.165   4.091
62033W        W34359  12.910  39.374  13.437
62034W        W34360  13.224  28.730   3.288
62035W        W34361  24.408  41.976  12.169
62036W        W34362  23.123  23.665  11.187
62037W        W34363  23.287  36.983   2.143
62038W        W34364  23.472   1.799   1.381
62039W        W34365  13.546  37.070   0.739
62040W        W34366  16.911  13.069  11.717
62041W        W34367  28.158  43.008   3.252
62042W        W34368  20.585   1.805  10.742
62043W        W34369   7.383  44.391   3.257
62044W        W34370  36.960   8.349  11.709
62045W        W34371   9.328   5.786  12.952
62046W        W34372  13.812   7.747  13.498
62047W        W34373   8.888  36.741  13.483
62048W        W34374  36.300  31.733  13.424
62049W        W34375  10.643   0.071   1.007
62050W        W34376   9.403   9.317  12.456
62051W        W34377   8.277  18.616  14.956
62052W        W34378  36.344   7.835   0.002
62053W        W34379   4.272  17.572  10.712
62054W        W34380  29.593  15.277  11.041
62055W        W34381  23.670  15.605   1.327
62056W        W34382  16.653   6.261  13.524
62057W        W34383  44.557  36.000  14.302
62058W        W34384   9.669  42.568  13.926
62059W        W34385  26.626  22.141  13.706
62060W        W34386   5.996  20.134   1.349
62061W        W34387  43.737  42.360   2.931
62062W        W34388  14.189   9.548  13.838
62063W        W34389  30.172   0.257  13.890
62064W        W34390  23.115  24.603   0.792
62065W        W34391  24.726  19.553  13.530
62066W        W34392   5.759  19.362  13.475
62067W        W34393  14.242  31.639  14.357
62068W        W34394  22.235  11.409   0.940
62069W        W34395  35.296  10.692   3.689
62070W        W34396  15.094   4.858   1.848
62071W        W34397  27.120  19.970  13.353
62072W        W34398  17.403  42.876  10.810
62073W        W34399  26.219  21.424   4.691
62074W        W34400  39.380  43.349  11.926
62075W        W34401  17.317  19.819  11.016
62076W        W34402  16.332  25.547   2.851
62077W        W34403  27.633  17.514  10.834
62078W        W34404  12.746  37.293   3.636
62079W        W34405  40.732  12.272   1.595
62080W        W34406  13.761  39.146   3.140
62081W        W34407  25.584  34.630   0.312
62082W        W34408  20.011  29.252   0.848
62083W        W34409  39.392   6.307   4.207
62084W        W34410  34.875  31.596   3.323
62085W        W34411   2.751  35.354  12.451
62086W        W34412  38.020  26.342  11.997
62087W        W34413  22.271  23.264  12.098
62088W        W34414  28.289   8.209   4.891
62089W        W34415  18.245  24.509   3.222
62090W        W34416  36.358  41.546  10.659
62091W        W34417  14.742  30.624   3.888
62092W        W34418  10.306   0.211  11.093
62093W        W34419   4.231   2.938   3.788
62094W        W34420  23.941  24.148   1.597
62095W        W34421  40.417  11.867   1.609
62096W        W34422  20.011   2.649  11.149
62097W        W34423  18.759  36.935  12.059
62098W        W34424  38.752  15.713  13.911
62099W        W34425  12.275  40.338  13.391
62100W        W34426  17.793  23.639   4.511
62101W        W34427  23.603   6.103   4.134
62102W        W34428  10.325  29.993  13.459
62103W        W34429  32.469  17.834   4.678
62104W        W34430  26.549  36.432   2.111
62105W        W34431   7.776  30.147   1.947
62106W        W34432   0.200  33.097  12.171
62107W        W34433  33.668   5.839   0.283
62108W        W34434  28.616  21.453   4.527
62109W        W34435   4.709  24.943  14.873
62110W        W34436  26.030  20.595   2.994
62111W        W34437  33.339  29.449   1.346
62112W        W34438  22.534  36.123   0.406
62113W        W34439  22.957  22.396  14.409
62114W        W34440  32.412  16.316  12.935
62115W        W34441   6.735  26.108   2.189
62116W        W34442  21.265  10.228  14.992
62117W        W34443  42.973  15.852  13.613
62118W        W34444  14.619  40.458  10.367
62119W        W34445   4.517  36.943   0.675
62120W        W34446   6.609  24.667   2.338
62121W        W34447  26.905  12.133  14.706
62122W        W34448  41.262   5.475  11.100
62123W        W34449   5.890  41.526   2.137
62124W        W34450  28.593   9.272  11.141
62125W        W34451  32.952   3.013  11.811
62126W        W34452   8.815  38.272   1.806
62127W        W34453  25.100  14.570  10.872
62128W        W34454   7.115  21.117   1.341
62129W        W34455  22.243  35.368  10.977
62130W        W34456  10.858  22.409   9.992
62131W        W34457   1.883  10.381   1.612
62132W        W34458  22.174  21.976  11.019
62133W        W34459   5.913   5.408  10.607
62134W        W34460  25.146  21.238  11.120
62135W        W34461  28.426   1.146   4.848
62136W        W34462  31.458  42.429   4.138
62137W        W34463  40.250   5.298   3.186
62138W        W34464  39.375  22.705  14.102
62139W        W34465  25.522  40.902  10.716
62140W        W34466   2.003  33.432  13.495
62141W        W34467  31.889  18.043   2.831
62142W        W34468  23.963  31.109   0.349
62143W        W34469  44.264  39.129  14.203
62144W        W34470  20.523   4.634   2.756
62145W        W34471  11.740  20.254  13.516
62146W        W34472  23.922  43.083   2.786
62147W        W34473  19.022  11.715   4.154
62148W        W34474   3.790  41.498   0.021
62149W        W34475  41.775  15.654  14.287
62150W        W34476  20.566  11.257  14.431
62151W        W34477  29.672  38.902  13.898
62152W        W34478  34.310   0.945  14.370
62153W        W34479  23.088  10.423  12.637
62154W        W34480  34.643  20.522   4.133
62155W        W34481  44.872  29.980  13.819
62156W        W34482  33.811  22.344   4.985
62157W        W34483  31.300  44.472   3.656
62158W        W34484   6.593  12.304   3.925
62159W        W34485  33.244  18.073   0.844
62160W        W34486  13.245  42.582  10.724
62161W        W34487   2.419  24.978   9.971
62162W        W34488   9.790  33.305  11.802
62163W        W34489  10.592  31.641  12.093
62164W        W34490  12.848  24.281   2.215
62165W        W34491  19.169  33.612   1.645
62166W        W34492  42.462  17.824  13.152
62167W        W34493  34.069  40.362  10.719
62168W        W34494  28.701  44.920   4.618
62169W        W34495  20.856   7.803   0.457
62170W        W34496   3.448  21.230  14.915
62171W        W34497  34.065  25.538  13.945
62172W        W34498  19.274  30.424  11.979
62173W        W34499  25.840  42.827   0.617
62174W        W34500  37.891  17.586  14.876
62175W        W34501  30.984  35.320   2.360
62176W        W34502  23.760  18.271  11.119
62177W        W34503  18.298   7.269  13.941
62178W        W34504  39.694   9.683  11.714
62179W        W34505  40.492   4.393  14.283
62180W        W34506  33.323  20.219   1.544
62181W        W34507  27.613  43.753   4.220
62182W        W34508   4.255  12.133   3.287
62183W        W34509  40.422  19.794   2.246
62184W        W34510  15.657  37.774  13.275
62185W        W34511   1.474  13.611   0.905
62186W        W34512  40.876  27.809   1.848
62187W        W34513  22.181  39.992  13.159
62188W        W34514  30.097   9.374  11.084
62189W        W34515  37.412  40.453  12.687
62190W        W34516  22.139  23.672   2.270
62191W        W34517  32.002  35.903   2.777
62192W        W34518  13.600  23.047   1.191
62193W        W34519  44.755  12.658  12.687
62194W        W34520   3.198  17.110   2.493
62195W        W34521  29.177  13.276  12.920
62196W        W34522   6.739  44.521  14.504
62197W        W34523   8.835  44.226  12.696
62198W        W34524  35.369  40.820   0.336
62199W        W34525  35.774  21.260  12.975
62200W        W34526  42.777  33.187   3.149
62201W        W34527  39.532  35.061   0.543
62202W        W34528  43.831   9.604   0.894
62203W        W34529  15.523  24.007   4.840
62204W        W34530  12.853  25.114  13.087
62205W        W34531  18.608  32.115  12.870
62206W        W34532   0.933  40.012  11.934
62207W        W34533  36.858   9.347  10.381
62208W        W34534  12.657  29.244   2.243
62209W        W34535  19.686   2.136   0.731
62210W        W34536   2.384   2.381  14.075
62211W        W34537  34.137  11.607  12.584
62212W        W34538   9.508  30.680  11.106
62213W        W34539  19.624  31.274  11.513
62214W        W34540  40.933   4.654   3.428
62215W        W34541  17.774  44.775   3.653
62216W        W34542   7.220  19.495  12.471
62217W        W34543   2.298  30.322  13.080
62218W        W34544  13.278   6.137   1.434
62219W        W34545   9.270  30.947   3.548
62220W        W34546  40.003  37.518   0.246
62221W        W34547  27.842  17.788   0.761
62222W        W34548  16.060   2.933  14.301
62223W        W34549  11.716  44.344  12.643
62224W        W34550  12.214  16.642   4.220
62225W        W34551  24.567  22.280   2.454
62226W        W34552  37.630  13.368   5.534
62227W        W34553  34.689   4.597  14.100
62228W        W34554  16.354  15.524  14.053
62229W        W34555  11.317  33.980   0.286
62230W        W34556  15.108  27.696  13.325
62231W        W34557  30.408   7.229  10.687
62232W        W34558   5.914  21.843  14.506
62233W        W34559  42.668   3.293  13.365
62234W        W34560  37.867   0.961   3.849
62235W        W34561  33.979  34.543   1.461
62236W        W34562   8.062  26.856   3.058
62237W        W34563  43.896  33.381  14.508
62238W        W34564  42.341  15.699   2.604
62239W        W34565   9.866  41.862   2.686
62240W        W34566  27.447  21.474   2.942
62241W        W34567  23.838  23.664  10.710
62242W        W34568  19.172   4.791  10.908
62243W        W34569  12.862   5.504  11.136
62244W        W34570  40.986  22.690  13.300
62245W        W34571  21.068  42.708   1.872
62246W        W34572  13.294  24.568   3.605
62247W        W34573  34.826  40.536   3.605
62248W        W34574  31.251  35.003  10.203
62249W        W34575   3.289  44.077  11.262
62250W        W34576   8.161   0.303  13.054
62251W        W34577  40.310  37.835  13.505
62252W        W34578   6.155  22.245   0.827
62253W        W34579  27.185  22.781  12.869
62254W        W34580  24.729   6.196   2.291
62255W        W34581  34.135   1.269   3.664
62256W        W34582   7.219  22.884   2.348
62257W        W34583   7.356  35.836  12.957
62258W        W34584  10.264  17.826  13.176
62259W        W34585  33.477  43.259  13.368
62260W        W34586  23.167  31.994   4.505
62261W        W34587  32.595  37.906  13.485
62262W        W34588  40.861  33.365   0.891
62263W        W34589  25.264  19.610  11.473
62264W        W34590  18.612  22.958   1.880
62265W        W34591  43.603  12.132   1.408
62266W        W34592  28.540  33.667  13.458
62267W        W34593  13.565  37.804  11.520
62268W        W34594   1.116   4.956   5.088
62269W        W34595  35.391  33.168  10.253
62270W        W34596  21.580   7.335   3.805
62271W        W34597  27.626  13.198  14.581
62272W        W34598  17.210  39.141  11.442
62273W        W34599  16.026   2.657  13.827
62274W        W34600  32.210  39.863   2.119
62275W        W34601  19.740  13.870  10.554
62276W        W34602  39.216  44.923   3.388
62277W        W34603   9.895   7.842   1.367
62278W        W34604  31.185  41.747  13.020
62279W        W34605  32.343   8.956  11.568
62280W        W34606  33.404  16.335  10.505
62281W        W34607   9.227  21.164   0.329
62282W        W34608  41.570   9.243   2.378
62283W        W34609  22.253   4.161   4.521
62284W        W34610   9.124   2.718  12.193
62285W        W34611  14.888  33.538   3.416
62286W        W34612  41.085  29.578   1.903
62287W        W34613  19.327  19.854   1.017
62288W        W34614  37.112  24.285  12.659
62289W        W34615  42.042  11.228  11.469
62290W        W34616   3.173  30.456   4.378
62291W        W34617  22.368  11.811  12.682
62292W        W34618  22.172  36.374   3.127
62293W        W34619  15.271  11.325  12.943
62294W        W34620  30.376  10.137   4.988
62295W        W34621   3.343  16.483   0.631
62296W        W34622  32.778  34.989   3.384
62297W        W34623  21.129  25.078   1.943
62298W        W34624  18.903  12.798  13.536
62299W        W34625  12.286   6.789  11.293
62300W        W34626  36.534   5.014   4.188
62301W        W34627  13.156  27.093   5.086
62302W        W34628  38.004  38.509   4.538
62303W        W34629  37.791  41.578   2.939
62304W        W34630  38.050  38.982   0.797
62305W        W34631  13.380  11.426  14.774
62306W        W34632  26.223  26.049  13.898
62307W        W34633  13.135  13.356   1.282
62308W        W34634  39.652  37.240   9.665
62309W        W34635  29.040  20.173  13.442
62310W        W34636   6.750  41.552   2.902
62311W        W34637  39.238  18.225  12.989
62312W        W34638  17.486  14.603   3.865
62313W        W34639   6.855  42.283   1.185
62314W        W34640   7.679  38.488  11.434
62315W        W34641  39.426  33.233  10.252
62316W        W34642  27.921  37.788   0.818
62317W        W34643  29.220  11.239  11.447
62318W        W34644   8.916  19.978   4.181
62319W        W34645  16.268  10.235  12.035
62320W        W34646  13.717  23.494  12.352
62321W        W34647  30.987  38.985  13.966
62322W        W34648  21.215  21.541  13.924
62323W        W34649  18.590   6.284  13.856
62324W        W34650  16.667  25.854  11.819
62325W        W34651  21.079  28.933   0.285
62326W        W34652  13.664  32.942  12.910
62327W        W34653   7.150  23.054   3.220
62328W        W34654  29.506  40.336   1.839
62329W        W34655   2.359  34.016  12.877
62330W        W34656   4.681  38.717   1.231
62331W        W34657  43.464  16.332   1.220
62332W        W34658   8.697  33.908   3.126
62333W        W34659  41.515  25.597  12.343
62334W        W34660  32.917  21.090  14.569
62335W        W34661  37.361  43.321  13.428
62336W        W34662   7.265  18.793   4.250
62337W        W34663   0.736  37.339   5.020
62338W        W34664  29.749  44.770  11.189
62339W        W34665  23.762  11.803   2.725
62340W        W34666  41.875  24.743  11.103
62341W        W34667  15.688  38.809  13.397
62342W        W34668  43.757  28.958   4.271
62343W        W34669  11.349  27.331   4.129
62344W        W34670  14.267  37.550  11.215
62345W        W34671  29.491  33.118   0.876
62346W        W34672  40.588  34.925  14.379
62347W        W34673  18.177   4.954  10.576
62348W        W34674  11.777  14.194  14.047
62349W        W34675  15.578  31.707  11.089
62350W        W34676  20.058   9.851  13.840
62351W        W34677   2.580  22.023  14.977
62352W        W34678  16.801   0.285  10.674
62353W        W34679   4.647  33.094   3.776
62354W        W34680  31.187   2.905  11.530
62355W        W34681  37.558  23.659  13.862
62356W        W34682  37.656  24.511   0.235
62357W        W34683  34.603  16.776   2.857
62358W        W34684   6.440   5.196   0.982
62359W        W34685  18.812  36.889   0.167
62360W        W34686   4.021  10.198  13.534
62361W        W34687   7.405  14.283   3.615
62362W        W34688  12.340  42.273  11.492
62363W        W34689   2.602  10.349   3.679
62364W        W34690  17.169  31.856   5.104
62365W        W34691   6.427  25.933  14.365
62366W        W34692  22.545  22.587  11.589
62367W        W34693   4.700  14.080   2.348
62368W        W34694  15.255  40.516   4.585
62369W        W34695   7.443  30.687  12.852
62370W        W34696  23.759  14.723   1.878
62371W        W34697   7.408   1.380  11.087
62372W        W34698  37.448  14.127   3.221
62373W        W34699   4.342  35.840  14.239
62374W        W34700  40.288  26.096   1.523
62375W        W34701   5.908   0.558   3.365
62376W        W34702  18.205  27.152   4.734
62377W        W34703  18.888  34.298   4.915
62378W        W34704  42.535  34.070  13.324
62379W        W34705  28.980  11.832   4.199
62380W        W34706  30.110  30.741  10.315
62381W        W34707  39.103   8.465  12.206
62382W        W34708  34.211  42.349   3.212
62383W        W34709  17.999  33.686  14.405
62384W        W34710   2.215  23.753   4.486
62385W        W34711  33.090   0.010  13.282
62386W        W34712  19.286  14.284  13.810
62387W        W34713   4.965  36.347   2.809
62388W        W34714  14.344  20.483   4.193
62389W        W34715  32.002  34.226   1.495
62390W        W34716  30.171  26.670  12.860
62391W        W34717   2.198  12.221  10.194
62392W        W34718  11.632  27.033  13.726
62393W        W34719  12.614  15.652  14.464
62394W        W34720  34.509  10.183   0.882
62395W        W34721   7.821  29.035   3.440
62396W        W34722   5.559   0.031   4.158
62397W        W34723  35.418  38.406  12.170
62398W        W34724   1.238  33.978   3.669
62399W        W34725  29.079   2.023  14.936
62400W        W34726  17.532  41.255  13.978
62401W        W34727  11.637  25.107   4.495
62402W        W34728  44.633   3.747  10.846
62403W        W34729  31.639  27.453   3.702
62404W        W34730   9.417  17.257  12.119
62405W        W34731   5.642  33.489   0.294
62406W        W34732  20.218  33.151   4.228
62407W        W34733  24.886  18.213  12.009
62408W        W34734  18.142  36.454   0.479
62409W        W34735  18.063   0.935  11.575
62410W        W34736  37.350   4.690  13.301
62411W        W34737  18.693   4.366   4.214
62412W        W34738  43.441  40.475   0.150
62413W        W34739  34.659  39.108  14.874
62414W        W34740  32.346   1.360   1.513
62415W        W34741  11.678  22.770  12.088
62416W        W34742   1.961  41.030  13.540
62417W        W34743  32.616  30.257  12.854
62418W        W34744  14.254   8.886  14.455
62419W        W34745  18.979  23.507  13.078
62420W        W34746   5.484  32.064  14.252
62421W        W34747   0.208  22.821   5.525
62422W        W34748  26.941  20.177   0.419
62423W        W34749   1.348  20.141  10.778
62424W        W34750  12.272   5.424   1.892
62425W        W34751  12.129  31.603  12.972
62426W        W34752  26.958  15.879   0.942
62427W        W34753  25.589  10.950  12.433
62428W        W34754  21.055  34.627   1.724
62429W        W34755   3.965  18.663  13.669
62430W        W34756  27.733  28.203  14.800
62431W        W34757  12.919  19.834  11.148
62432W        W34758  41.480  15.455   2.726
62433W        W34759  36.605  11.813  12.351
62434W        W34760   7.938   2.094  11.573
62435W        W34761  34.799  18.150   2.738
62436W        W34762  18.740  37.459   4.278
62437W        W34763   6.309  40.027  12.894
62438W        W34764  38.834  37.435   1.394
62439W        W34765  23.815  12.593  14.132
62440W        W34766  42.940  23.313   4.576
62441W        W34767  23.146  40.982   0.004
62442W        W34768   1.036  25.067   4.223
62443W        W34769  21.758  26.235   1.668
62444W        W34770  25.204   7.677   0.429
62445W        W34771   7.978  15.637  14.856
62446W        W34772  30.948  13.388  12.018
62447W        W34773  29.973  20.290  12.463
62448W        W34774  39.564  24.905   3.992
62449W        W34775  37.551  15.262  14.250
62450W        W34776  27.408   6.772   1.331
62451W        W34777  20.917  21.591   5.116
62452W        W34778   3.835  18.563   0.832
62453W        W34779  14.141  31.414  14.806
62454W        W34780  37.484  36.554   3.314
62455W        W34781  21.317   7.404  11.209
62456W        W34782  30.045  14.603  13.604
62457W        W34783  32.330  36.886   2.001
62458W        W34784  20.500   0.244  11.959
62459W        W34785  17.753   8.011   2.831
62460W        W34786  19.049  35.116  11.981
62461W        W34787  27.284  25.488   2.667
62462W        W34788  15.941  27.178   0.392
62463W        W34789  23.103  42.896   0.749
62464W        W34790  29.518  30.014   1.914
62465W        W34791  32.945  33.619   4.830
62466W        W34792  41.906   2.703   0.284
62467W        W34793  36.222   6.393  14.941
62468W        W34794   6.772  42.489  10.914
62469W        W34795  18.070  32.498   1.707
62470W        W34796  25.752  14.280   2.215
62471W        W34797   5.336  13.703   4.228
62472W        W34798  32.576  40.319  12.448
62473W        W34799  11.878  26.475  12.953
62474W        W34800  23.696  21.486  12.012
62475W        W34801  10.176  23.516  10.618
62476W        W34802  42.649  28.172  12.431
62477W        W34803  28.706  14.811  12.494
62478W        W34804  20.182   9.060  10.193
62479W        W34805   5.138   5.837  14.948
62480W        W34806   4.844   0.500  12.826
62481W        W34807   8.035  11.819   3.784
62482W        W34808  18.135   8.308   4.108
62483W        W34809   3.334  30.027  14.918
62484W        W34810  15.095  34.761   0.899
62485W        W34811   4.523  36.718   2.901
62486W        W34812   3.668   3.721  14.061
62487W        W34813   6.888  15.730   2.099
62488W        W34814  21.832  35.387  10.700
62489W        W34815  36.910  11.224   3.093
62490W        W34816  11.251  33.916  12.365
62491W        W34817  38.867  31.906  10.488
62492W        W34818  44.964   5.958   3.546
62493W        W34819  25.997  30.600   4.830
62494W        W34820  20.027  28.203   1.717
62495W        W34821  32.115  36.419  14.396
62496W        W34822  36.295  44.483   1.082
62497W        W34823  44.754  29.584   3.641
62498W        W34824  13.313  36.323  13.789
62499W        W34825   9.183  17.289  12.577
62500W        W34826  32.404   4.411   2.817
62501W        W34827  27.925  41.998   4.094
62502W        W34828  28.713   2.900   1.272
62503W        W34829  26.726   8.804  14.384
62504W        W34830  39.338  11.152  14.456
62505W        W34831  41.097  23.475   3.973
62506W        W34832  43.334  26.178   3.278
62507W        W34833  15.573  28.132   2.796
62508W        W34834   2.829  29.176  14.783
62509W        W34835  13.684  38.021  12.143
62510W        W34836  16.658  20.218  12.240
62511W        W34837  12.829  14.932   2.618
62512W        W34838  31.980  33.732  14.030
62513W        W34839  29.503   1.953   2.896
62514W        W34840  17.255   4.239  10.704
62515W        W34841  26.590  16.139  10.696
62516W        W34842   4.284  43.368   0.868
62517W        W34843  44.407  32.178   2.307
62518W        W34844  21.487   4.719   2.760
62519W        W34845  29.539  13.902   2.411
62520W        W34846   7.830  33.857  11.550
62521W        W34847   4.340   3.022   0.673
62522W        W34848  22.471  33.488   1.735
62523W        W34849   5.886  39.449  10.351
62524W        W34850  13.139  18.625   4.479
62525W        W34851  28.082  13.127  10.262
62526W        W34852  44.714  36.432   4.368
62527W        W34853  26.045  11.543   2.311
62528W        W34854  12.212  36.550  14.521
62529W        W34855  18.761   3.190   1.746
62530W        W34856  10.244   4.139  10.775
62531W        W34857  36.313  22.064  11.291
62532W        W34858  35.325  16.678  13.590
62533W        W34859  21.543  34.826  11.528
62534W        W34860   4.641  27.600   2.817
62535W        W34861  11.126  43.462  11.620
62536W        W34862  11.329   2.297   4.152
62537W        W34863  31.885   3.528   5.111
62538W        W34864  34.032  10.212  11.142
62539W        W34865  26.035   5.069  14.079
62540W        W34866   6.287  13.839   3.100
62541W        W34867   3.315  13.301   4.715
62542W        W34868  21.258  32.456  10.488
62543W        W34869  19.739  40.622  11.683
62544W        W34870  29.880  21.193   2.342
62545W        W34871  44.464  28.174   2.785
62546W        W34872  18.236  12.188  12.414
62547W        W34873   2.058  20.281  11.919
62548W        W34874   6.955   2.781  13.342
62549W        W34875  11.503  41.449  13.729
62550W        W34876  28.533  14.329  12.616
62551W        W34877  24.508  13.321   2.331
62552W        W34878  43.989  33.523   2.915
62553W        W34879   4.414  38.298   9.900
62554W        W34880   1.961  13.430   1.853
62555W        W34881   9.564  28.175  14.346
62556W        W34882  29.156  20.528  11.535
62557W        W34883  37.607  36.138   1.010
62558W        W34884  11.869  25.523   0.262
62559W        W34885  16.592   5.008   4.688
62560W        W34886  17.805  30.669   1.776
62561W        W34887   7.398   7.437  11.446
62562W        W34888  10.779  26.274  10.053
62563W        W34889   2.798  23.303  10.646
62564W        W34890  29.939  35.424   4.727
62565W        W34891  16.547   6.047  12.076
62566W        W34892  27.054   9.720  11.048
62567W        W34893  30.182  28.582  13.768
62568W        W34894  14.643   7.308  14.590
62569W        W34895  14.404   2.773   2.303
62570W        W34896  25.563  27.705  11.394
62571W        W34897  27.631  13.340   4.148
62572W        W34898   9.349  24.401   0.244
62573W        W34899  36.822  21.624  11.694
62574W        W34900  28.685  42.737  13.992
62575W        W34901  22.191  42.818   2.235
62576W        W34902  16.833   6.242  10.514
62577W        W34903  22.128  37.875  14.555
62578W        W34904  37.414  35.163   4.515
62579W        W34905  19.643  28.722   2.426
62580W        W34906  11.385  17.105  11.084
62581W        W34907  33.374  21.205  10.622
62582W        W34908  19.003  33.329  10.879
62583W        W34909  17.667  21.535   4.254
62584W        W34910  21.778  19.189   0.170
62585W        W34911   8.268   6.410   4.309
62586W        W34912  13.112  24.098   0.918
62587W        W34913   7.191  27.198  14.900
62588W        W34914  27.826  43.881   0.597
62589W        W34915  43.412  32.481   0.965
62590W        W34916  43.350  33.193  10.727
62591W        W34917  23.350  10.846   1.310
62592W        W34918  39.315  19.127   2.383
62593W        W34919  23.821   3.865   4.725
62594W        W34920  15.575   9.976   2.900
62595W        W34921  16.049  32.093  13.565
62596W        W34922  23.547  27.498   2.724
62597W        W34923  41.241  20.850   3.509
62598W        W34924  26.594  13.025  13.838
62599W        W34925   4.254  36.481  11.501
62600W        W34926  21.145  30.946   4.611
62601W        W34927  28.517  19.685  12.063
62602W        W34928  35.206  38.126   3.589
62603W        W34929  38.879  27.545   2.760
62604W        W34930  40.180  20.165   0.333
62605W        W34931  17.409  34.908   4.268
62606W        W34932  39.918  38.920   3.518
62607W        W34933  39.163  16.004  13.961
62608W        W34934  36.117  41.511  12.964
62609W        W34935  18.391  12.251  14.375
62610W        W34936  27.226  44.514  10.441
62611W        W34937  14.273  26.670  10.396
62612W        W34938  10.706  40.934   4.390
62613W        W34939  27.475   8.944  13.907
62614W        W34940  18.914   6.977   3.055
62615W        W34941   5.207  13.617   1.646
62616W        W34942  34.832  14.575   4.836
62617W        W34943  31.930  37.442   3.653
62618W        W34944  26.210  27.362  14.839
62619W        W34945  30.470  15.767   3.421
62620W        W34946  42.118  34.594  11.440
62621W        W34947  28.642  12.373  12.871
62622W        W34948  35.938   4.834  13.899
62623W        W34949  37.090  41.354  10.534
62624W        W34950  12.829  17.307  12.746
62625W        W34951  18.825  23.032   0.714
62626W        W34952  43.337  32.077   1.702
62627W        W34953  34.420  11.801  11.708
62628W        W34954  40.427   8.836   0.516
62629W        W34955  31.629  27.552  14.051
62630W        W34956  13.799  25.105  14.857
62631W        W34957   4.913  38.756   4.261
62632W        W34958  26.199  36.664  13.386
62633W        W34959  15.770   8.745   0.177
62634W        W34960  17.411  21.522  13.995
62635W        W34961  26.592   0.860   4.123
62636W        W34962   5.582  24.651   2.356
62637W        W34963  39.137  19.455  13.957
62638W        W34964  32.636  28.106   3.277
62639W        W34965  22.965  40.483  10.679
62640W        W34966  32.694  25.340  12.836
62641W        W34967  43.086  28.374  13.919
62642W        W34968  17.556   9.252  11.636
62643W        W34969  31.994  14.617  14.949
62644W        W34970  34.632  39.254   0.542
62645W        W34971  30.214  28.593  13.231
62646W        W34972  44.853   4.164   4.740
62647W        W34973  14.409  11.231  11.284
62648W        W34974   4.592  44.109   0.813
62649W        W34975  30.026   4.510  13.078
62650W        W34976  19.305  26.794   1.155
62651W        W34977  15.544  39.253   2.907
62652W        W34978  44.762   4.705   0.917
62653W        W34979   0.413   7.101  13.892
62654W        W34980  28.986  32.614  12.131
62655W        W34981  34.800   6.386  12.925
62656W        W34982  30.171  39.182   3.567
62657W        W34983   7.720  32.342   0.509
62658W        W34984  34.399  34.114   0.330
62659W        W34985  44.718   9.728   1.872
62660W        W34986  30.579  18.636  14.038
62661W        W34987  22.989  36.295   0.191
62662W        W34988   9.368  37.221   1.302
62663W        W34989   9.364   4.211  14.825
62664W        W34990  11.346  22.168  13.823
62665W        W34991  22.568   2.703  10.709
62666W        W34992  23.936   3.369  12.603
62667W        W34993  38.551  31.337   4.251
62668W        W34994   2.430  29.899   4.389
62669W        W34995  23.127  38.637   4.978
62670W        W34996   3.835  34.510  12.491
62671W        W34997  11.181   8.399   2.840
62672W        W34998  13.974  11.669   2.651
62673W        W34999  16.315  25.634  13.423
62674W        W35000  30.152   3.657  12.043
62675W        W35001  36.089   7.284  11.381
62676W        W35002  30.098  35.593   0.831
62677W        W35003  29.057   6.955   1.076
62678W        W35004  11.616   1.076  12.934
62679W        W35005  35.453  41.107  13.994
62680W        W35006  29.736  26.839   0.040
62681W        W35007  30.576  11.822   2.685
62682W        W35008  34.858  13.183  12.898
62683W        W35009   2.897   4.710   4.139
62684W        W35010   4.918  43.344  12.680
62685W        W35011  27.710  15.736  12.974
62686W        W35012   3.229  43.103   1.887
62687W        W35013  40.268  37.068  12.030
62688W        W35014   6.369  19.269  11.544
62689W        W35015  28.433  40.391  12.490
62690W        W35016  25.872   8.182  12.098
62691W        W35017   2.461   6.493   1.876
62692W        W35018  17.853  17.256  13.191
62693W        W35019  26.852  11.848   1.903
62694W        W35020  24.220   7.911  11.517
62695W        W35021  15.061   7.362  11.182
62696W        W35022  35.570  39.670   2.773
62697W        W35023  39.909  34.912  11.419
62698W        W35024   9.297  18.116  13.026
62699W        W35025  42.737  23.238   2.062
62700W        W35026   2.793  44.342  13.797
62701W        W35027   0.704  26.560   4.181
62702W        W35028   8.673  25.611  12.932
62703W        W35029   6.166   4.313   0.389
62704W        W35030   6.918  28.895   1.264
62705W        W35031   2.373   0.070   4.209
62706W        W35032  30.649  43.384  14.006
62707W        W35033  21.324  19.877   3.745
62708W        W35034  35.792  34.646  11.014
62709W        W35035   4.984  21.661  14.924
62710W        W35036   6.720   9.855  12.492
62711W        W35037  28.946  29.961  14.222
62712W        W35038  20.108  13.379   2.129
62713W        W35039   4.907   8.498   2.777
62714W        W35040  34.032  11.603  11.434
62715W        W35041  18.033  36.618  13.618
62716W        W35042  36.979  35.846   1.185
62717W        W35043   8.385   6.375   2.749
62718W        W35044   0.926  41.683  11.505
62719W        W35045  12.617  26.093   4.110
62720W        W35046   5.201  25.337  12.541
62721W        W35047   8.894  16.336  12.439
62722W        W35048  38.614  44.601   4.784
62723W        W35049   7.693   7.812   2.766
62724W        W35050  12.468  10.616  11.537
62725W        W35051  35.297   2.826  14.140
62726W        W35052  41.997  38.601   3.185
62727W        W35053  38.524  14.132   2.197
62728W        W35054  44.134   3.497  12.014
62729W        W35055  13.646  39.181   5.088
62730W        W35056  17.280  16.090  14.712
62731W        W35057  38.007  25.513   2.694
62732W        W35058  40.811  37.139  12.880
62733W        W35059  14.794  37.006  14.289
62734W        W35060  28.475  27.017  10.437
62735W        W35061  33.838  24.858  14.573
62736W        W35062   7.952  12.738   2.852
62737W        W35063  32.572  28.214  12.901
62738W        W35064  17.079  14.600   1.294
62739W        W35065  31.984  21.265  14.340
62740W        W35066  29.956  35.934  11.247
62741W        W35067   2.410  17.186   0.054
62742W        W35068  27.506  27.659  10.268
62743W        W35069  44.310   4.315   4.663
62744W        W35070  10.183  27.686  12.894
62745W        W35071  19.057  13.674   0.725
62746W        W35072  44.438   9.220   1.427
62747W        W35073   1.339   0.802  13.505
62748W        W35074  27.574  27.914   0.231
62749W        W35075  39.302  18.591   3.156
62750W        W35076   4.336  35.103  11.127
62751W        W35077  31.007  34.065   3.351
62752W        W35078  40.524  33.007   1.736
62753W        W35079  37.331  26.201   2.755
62754W        W35080  36.376  13.866   0.791
62755W        W35081  40.808  40.508  12.024
62756W        W35082  14.874   0.058  10.639
62757W        W35083  42.097   6.392   2.918
62758W        W35084  28.563  29.762   3.589
62759W        W35085  43.394   3.044  13.107
62760W        W35086  41.334  42.795   1.856
62761W        W35087  29.927  29.599   3.228
62762W        W35088  41.973   4.700  11.651
62763W        W35089  16.876  40.463  11.000
62764W        W35090   7.160  15.663   4.455
62765W        W35091   9.472  41.034   0.420
62766W        W35092   7.504   5.198   0.950
62767W        W35093  38.442  29.056   4.305
62768W        W35094  30.059  27.461  12.417
62769W        W35095  12.116  12.686   3.717
62770W        W35096  18.695  14.506  12.418
62771W        W35097  19.556   6.534   4.164
62772W        W35098  24.218   8.687  11.132
62773W        W35099  17.641  43.043   9.855
62774W        W35100   1.704  18.614  11.544
62775W        W35101  34.093  23.536   1.213
62776W        W35102  38.920   2.820  10.600
62777W        W35103   6.270  41.522   1.194
62778W        W35104  23.063   4.238  13.367
62779W        W35105  22.318  41.248  12.854
62780W        W35106   3.350  32.400  13.975
62781W        W35107   5.165  27.033   2.415
62782W        W35108  40.911  24.466   1.781
62783W        W35109  44.001  23.729  14.949
62784W        W35110  35.948  21.232  12.493
62785W        W35111  23.491  14.203   2.716
62786W        W35112  33.552   9.835   3.757
62787W        W35113  33.685  43.445   2.238
62788W        W35114  32.128  44.344  13.805
62789W        W35115   8.424  40.805  10.744
62790W        W35116  37.203  22.009  14.526
62791W        W35117  31.815  13.858  11.151
62792W        W35118  10.648   0.563   0.828
62793W        W35119  35.211  22.287  12.379
62794W        W35120   7.877  29.121  10.716
62795W        W35121  21.528  21.782   0.029
62796W        W35122  22.190  25.115  12.615
62797W        W35123   8.466  37.552   3.373
62798W        W35124  41.819  15.735   0.797
62799W        W35125  35.225  23.463  11.536
62800W        W35126  16.549  25.506  12.982
62801W        W35127  23.627  10.668   1.717
62802W        W35128  42.513  40.569  14.582
62803W        W35129  32.651   9.060  12.949
62804W        W35130  13.647  18.111   0.419
62805W        W35131  42.290  18.289  10.282
62806W        W35132  20.908  29.793   4.153
62807W        W35133   3.140  19.043  13.417
62808W        W35134  13.877   1.238   1.978
62809W        W35135   4.245   6.372  14.863
62810W        W35136  34.343  38.030   1.755
62811W        W35137  22.472  38.811  13.703
62812W        W35138  33.394  33.405  12.906
62813W        W35139  43.671  42.082  13.995
62814W        W35140  21.930  22.162   0.077
62815W        W35141  14.661  22.023   2.877
62816W        W35142   9.185  21.631   3.297
62817W        W35143  15.939  11.572  11.145
62818W        W35144  21.314  23.125  11.009
62819W        W35145  44.537  26.124  11.592
62820W        W35146  22.668   5.124   1.315
62821W        W35147  29.161  22.951   3.899
62822W        W35148  33.157  22.160   2.646
62823W        W35149   6.752  43.836   2.322
62824W        W35150  21.083  28.541  11.843
62825W        W35151  19.179  34.370   2.209
62826W        W35152  43.417  33.847   0.296
62827W        W35153  30.629  42.858   3.111
62828W        W35154   8.069  29.205  11.674
62829W        W35155  40.643  18.073   4.263
62830W        W35156   7.155   9.314   0.374
62831W        W35157  31.236  20.500   4.130
62832W        W35158  34.750   3.300  10.725
62833W        W35159  11.286  18.025   1.293
62834W        W35160  37.864   7.805  14.925
62835W        W35161  14.696  28.124  12.772
62836W        W35162  12.846   7.211  13.854
62837W        W35163   9.293  21.541   0.944
62838W        W35164   9.495  29.350   3.958
62839W        W35165  24.310  20.742  11.559
62840W        W35166  14.424  14.835   1.249
62841W        W35167   4.325  19.238   4.405
62842W        W35168   1.677   3.314   4.499
62843W        W35169  41.470  20.024  13.904
62844W        W35170  34.271  33.165  13.097
62845W        W35171  35.152  39.498   4.348
62846W        W35172   2.024  42.818  13.483
62847W        W35173  38.366  12.172   3.658
62848W        W35174  12.163   7.260   0.731
62849W        W35175  28.193  33.637  13.069
62850W        W35176  42.473   7.172   1.690
62851W        W35177   5.834   9.669   0.314
62852W        W35178  31.020  20.780  10.725
62853W        W35179  17.959   4.913   0.437
62854W        W35180   3.672  18.088   0.964
62855W        W35181  29.827  15.267   2.195
62856W        W35182  37.936   4.576  11.620
62857W        W35183  38.873  25.473   2.535
62858W        W35184  29.576  15.119   4.389
62859W        W35185  12.172  29.137  12.583
62860W        W35186   5.164  16.141   0.461
62861W        W35187  14.192   5.050   0.851
62862W        W35188  27.171  24.386  13.545
62863W        W35189  17.992  24.960   3.287
62864W        W35190   3.754   8.880   3.296
62865W        W35191  14.118   6.439   3.714
62866W        W35192   6.163  16.623  10.888
62867W        W35193  32.363   7.747   0.548
62868W        W35194   6.775  27.495  10.701
62869W        W35195  13.677  27.943   3.274
62870W        W35196  33.312  27.630   4.470
62871W        W35197  34.808  31.386  14.508
62872W        W35198  30.372  18.171  13.893
62873W        W35199  35.817   5.754  11.260
62874W        W35200  27.511  16.218  12.651
62875W        W35201  36.108  41.993  13.169
62876W        W35202   5.953   5.095  11.472
62877W        W35203  28.146  36.002  11.362
62878W        W35204   4.024   7.847   1.494
62879W        W35205   2.438  39.426  14.785
62880W        W35206   2.722  24.203   0.965
62881W        W35207  19.721  15.352   1.937
62882W        W35208  42.287  43.000   4.866
62883W        W35209  27.975  18.573   0.438
62884W        W35210   0.493   8.405   0.778
62885W        W35211  30.437   5.808   4.684
62886W        W35212   8.233  25.795  12.732
62887W        W35213   9.626  33.541   2.366
62888W        W35214   9.885  17.539  11.963
62889W        W35215   2.312  31.409  12.067
62890W        W35216  38.647  43.810   0.326
62891W        W35217  26.105   7.739   0.274
62892W        W35218  43.328  13.250  12.215
62893W        W35219  38.305  35.120   4.473
62894W        W35220  11.767  21.454   1.220
62895W        W35221  34.884  33.003   2.832
62896W        W35222  29.340  26.317  11.297
62897W        W35223  31.088  12.076   1.903
62898W        W35224  14.030   3.461  11.540
62899W        W35225  26.862  34.427  14.462
62900W        W35226  26.179  20.868   1.209
62901W        W35227  12.095  12.480  14.955
62902W        W35228   9.915   4.746   3.775
62903W        W35229  44.941  24.022  14.532
62904W        W35230   2.853  39.736  13.946
62905W        W35231  38.986   1.793  13.530
62906W        W35232  15.232  28.400   4.644
62907W        W35233  20.674  18.629   4.666
62908W        W35234   4.909   1.603  14.557
62909W        W35235  23.658  28.378  11.541
62910W        W35236   2.684  13.186   0.692
62911W        W35237   5.154  41.663  14.134
62912W        W35238  40.611   5.309   2.250
62913W        W35239  25.018  10.733   2.088
62914W        W35240  38.448  27.569  11.664
62915W        W35241  20.067  28.922   4.205
62916W        W35242  30.583  27.016  11.147
62917W        W35243  18.068  25.399   0.883
62918W        W35244   5.664  21.104   1.339
62919W        W35245  20.210  25.405  14.268
62920W        W35246  21.043  21.152   2.316
62921W        W35247   8.142  43.909   2.500
62922W        W35248   1.981   0.343   3.504
62923W        W35249  16.186  16.469  13.829
62924W        W35250  25.585   2.421   1.186
62925W        W35251  37.453  20.524   2.263
62926W        W35252  16.685  15.797  10.638
62927W        W35253   3.881  33.542   9.969
62928W        W35254  33.565   6.567  14.853
62929W        W35255   9.162  36.861   4.242
62930W        W35256  40.881  40.547  14.775
62931W        W35257  36.707  11.230  14.744
62932W        W35258  17.881   8.555  14.855
62933W        W35259  43.299  25.996   4.618
62934W        W35260   4.228  26.985   0.721
62935W        W35261  25.189  16.338  11.295
62936W        W35262   8.900   9.291  12.623
62937W        W35263  43.994   4.383  14.932
62938W        W35264   6.656   5.065  10.153
62939W        W35265  32.368   7.157   4.209
62940W        W35266   0.576  15.749  10.511
62941W        W35267  20.565  23.111   2.890
62942W        W35268  12.389   5.682  11.217
62943W        W35269   4.990   4.539  12.953
62944W        W35270  33.655   7.954  11.931
62945W        W35271  30.997  43.425   2.633
62946W        W35272   4.158  30.027   1.349
62947W        W35273  28.244  35.892   3.098
62948W        W35274   7.566  31.380   1.406
62949W        W35275  19.003  15.664  11.056
62950W        W35276  38.544  36.098   2.797
62951W        W35277  16.392  35.150   4.492
62952W        W35278  15.644  13.417  11.105
62953W        W35279  40.883  19.556  13.403
62954W        W35280  37.271  42.986   4.648
62955W        W35281  23.437   0.641  14.047
62956W        W35282  37.408  18.476   1.884
62957W        W35283  10.380   7.722  11.143
62958W        W35284  18.597  37.860  13.471
62959W        W35285  20.617  40.504   4.872
62960W        W35286  13.824   6.471  12.034
62961W        W35287  16.156  26.481   2.399
62962W        W35288  15.692  14.304  12.989
62963W        W35289  40.129  32.567  12.671
62964W        W35290   0.462  24.970  13.872
62965W        W35291  29.968   9.432  11.576
62966W        W35292  41.912  31.145  11.026
62967W        W35293   2.971  35.147   2.296
62968W        W35294   6.142  38.501   3.840
62969W        W35295  16.339  40.776  11.660
62970W        W35296  39.377  14.141   0.394
62971W        W35297  35.307  24.963   2.401
62972W        W35298  25.940  42.095   1.819
62973W        W35299   3.747   0.906   3.163
62974W        W35300  44.226  13.055   4.426
62975W        W35301  25.618  11.672   3.064
62976W        W35302  28.440  33.566   1.201
62977W        W35303   2.740  25.620  12.670
62978W        W35304  11.210  34.900  14.516
62979W        W35305  26.664   6.305   3.270
62980W        W35306  42.727  41.150  11.210
62981W        W35307  23.805   7.690  13.313
62982W        W35308   9.143  41.495   4.530
62983W        W35309  11.763  14.306   3.311
62984W        W35310  20.205  10.781   0.896
62985W        W35311   1.214  26.143  12.408
62986W        W35312  12.118  16.007  11.053
62987W        W35313  20.106  12.309  14.025
62988W        W35314  27.125  17.708   3.586
62989W        W35315   6.434   4.398   3.325
62990W        W35316  27.521   8.184  14.369
62991W        W35317  20.533   2.637   1.748
62992W        W35318  16.439   9.670   4.101
62993W        W35319  24.663  17.961   0.316
62994W        W35320  26.936   8.963  11.446
62995W        W35321  24.549   6.586  10.786
62996W        W35322   2.761  32.135   1.950
62997W        W35323  22.548   7.466   0.030
62998W        W35324   3.426  31.525  12.669
62999W        W35325  20.464   9.758  11.611
63000W        W35326  21.945  16.902  11.943
63001W        W35327  24.093  12.574  14.557
63002W        W35328  41.722  37.840  13.478
63003W        W35329  19.162  41.787  11.360
63004W        W35330  29.861  18.067  12.587
63005W        W35331  39.541  35.747  11.620
63006W        W35332  33.592  11.625  11.677
63007W        W35333   5.254   8.295  11.772
63008W        W35334   9.121  17.543   1.956
63009W        W35335  15.137  25.600  13.314
63010W        W35336  37.874  32.094  10.205
63011W        W35337  21.007   9.177   1.860
63012W        W35338  14.687  35.875  14.239
63013W        W35339  13.258   1.393   4.130
63014W        W35340  39.117  33.974  13.523
63015W        W35341  21.497  25.256   0.959
63016W        W35342  31.361  36.128  11.881
63017W        W35343   1.485  23.555  14.052
63018W        W35344  16.670  14.556  11.549
63019W        W35345  27.186  32.993  13.665
63020W        W35346  22.210  39.051   9.737
63021W        W35347  16.552   9.803   2.820
63022W        W35348  37.119  13.641  12.989
63023W        W35349  11.303  38.392   0.984
63024W        W35350  14.422  30.517   0.718
63025W        W35351  37.042  22.188   4.581
63026W        W35352   0.483  13.216   1.539
63027W        W35353   9.879  21.167   4.091
63028W        W35354  28.128   6.634  13.834
63029W        W35355  18.055  17.770  13.146
63030W        W35356  33.369  26.342   4.843
63031W        W35357  21.956  38.561   5.015
63032W        W35358  13.612   4.901   1.800
63033W        W35359   1.721  22.190   2.678
63034W        W35360  14.783  22.283  12.929
63035W        W35361  22.549  17.129   3.214
63036W        W35362  27.929   8.642   4.185
63037W        W35363  44.714  43.788  13.966
63038W        W35364  22.487  26.250   4.158
63039W        W35365  22.659  14.383  14.796
63040W        W35366  23.974  43.401   4.802
63041W        W35367  16.845   0.234  12.438
63042W        W35368  41.702   5.644   3.561
63043W        W35369  39.100  12.709  10.984
63044W        W35370  41.528  30.380  13.948
63045W        W35371  24.086   2.498   3.774
63046W        W35372  15.508  43.843  13.484
63047W        W35373  17.050  36.398   1.365
63048W        W35374   8.882  17.610   4.741
63049W        W35375  23.000  29.464  14.796
63050W        W35376  40.855  43.932   9.810
63051W        W35377   3.838  39.036   3.334
63052W        W35378  14.809  41.918   3.350
63053W        W35379  39.312  14.308   1.282
63054W        W35380  33.308  40.570  11.131
63055W        W35381   7.183  42.552   3.604
63056W        W35382  11.326  36.064  12.000
63057W        W35383  22.540  21.270   9.908
63058W        W35384   9.749   6.717  12.077
63059W        W35385   7.306  34.370  14.534
63060W        W35386  34.131  41.422  11.417
63061W        W35387   8.231  27.918  13.965
63062W        W35388  41.775  14.589  12.185
63063W        W35389  30.554  13.674  10.774
63064W        W35390  14.723  39.832  10.687
63065W        W35391  33.388  35.604  12.993
63066W        W35392   3.861  43.487   0.569
63067W        W35393  12.371  41.242   3.841
63068W        W35394   9.424   2.238  14.346
63069W        W35395  10.386  42.713   4.536
63070W        W35396  26.251   3.446   3.723
63071W        W35397  19.967  25.594   0.616
63072W        W35398   0.635  11.779   4.071
63073W        W35399  31.993  29.212  10.608
63074W        W35400  42.115  25.045  13.000
63075W        W35401  24.460  12.274   4.674
63076W        W35402  40.856  26.040   2.842
63077W        W35403  12.826  42.860  13.458
63078W        W35404  41.612  17.060   1.411
63079W        W35405  36.164  19.816   3.811
63080W        W35406  13.039  33.531  14.840
63081W        W35407  24.225  22.113   3.822
63082W        W35408   0.257  36.541  13.012
63083W        W35409  34.745  20.292   2.318
63084W        W35410  40.956  21.514  11.462
63085W        W35411  14.120  28.011  13.565
63086W        W35412  22.097   8.385   2.898
63087W        W35413  31.933  30.175  12.433
63088W        W35414  18.275  41.993  12.206
63089W        W35415  20.752  18.150  11.395
63090W        W35416   9.708  34.022  14.591
63091W        W35417  31.937  11.870   2.699
63092W        W35418  28.036  44.432  10.014
63093W        W35419  23.870  44.445  14.913
63094W        W35420  41.562  18.603   0.875
63095W        W35421  37.885   5.327  14.208
63096W        W35422  32.002  26.610   1.355
63097W        W35423   6.026  29.504  13.457
63098W        W35424   8.152   7.785   3.029
63099W        W35425  16.608  29.554  11.540
63100W        W35426  12.145  32.054   4.112
63101W        W35427  31.594  15.973   3.381
63102W        W35428  36.118  22.543   1.121
63103W        W35429  44.562  31.553   3.658
63104W        W35430  26.478  10.370  10.942
63105W        W35431  36.958   8.598  13.067
63106W        W35432  32.069  41.769  13.864
63107W        W35433  28.085  13.398   2.398
63108W        W35434  14.415   6.333   2.725
63109W        W35435   6.624  42.768  14.766
63110W        W35436   6.507  40.462  10.960
63111W        W35437  19.831  44.238   4.191
63112W        W35438  24.486   2.280   3.294
63113W        W35439  35.352  12.108   4.568
63114W        W35440   3.632  33.016   3.687
63115W        W35441   7.641  13.846   2.355
63116W        W35442  43.926  12.310  14.506
63117W        W35443  38.387   2.713  13.550
63118W        W35444  10.692  27.448   3.350
63119W        W35445  20.756  36.306  10.564
63120W        W35446  28.143  28.198  10.684
63121W        W35447   2.351  38.973   3.107
63122W        W35448  27.067  18.156  14.056
63123W        W35449  34.448  41.335   3.655
63124W        W35450  16.248  37.390   0.263
63125W        W35451  32.414  30.612  13.261
63126W        W35452  26.572  26.772  13.974
63127W        W35453  24.916  28.970   4.407
63128W        W35454   5.867   6.196   3.176
63129W        W35455  16.213   3.440   1.745
63130W        W35456  18.764  32.099  11.258
63131W        W35457   9.657   4.915  11.041
63132W        W35458  33.614  27.493  11.681
63133W        W35459  24.646  24.594   1.835
63134W        W35460  12.598  35.317  12.259
63135W        W35461  43.617   0.845   1.772
63136W        W35462   2.908  21.231   3.767
63137W        W35463  25.922  28.103  12.909
63138W        W35464   2.779  34.134   3.300
63139W        W35465   6.269  26.694  14.937
63140W        W35466   5.912  23.516   3.137
63141W        W35467  29.207  33.385   3.545
63142W        W35468  20.929  42.817  11.635
63143W        W35469  13.220  35.867   2.334
63144W        W35470   7.278  11.599   3.395
63145W        W35471  38.164  23.120  14.348
63146W        W35472  43.017  17.163   4.210
63147W        W35473  19.045  21.813  11.156
63148W        W35474  14.931   7.685   0.942
63149W        W35475  33.121  43.781  11.065
63150W        W35476  15.275  16.839  14.499
63151W        W35477  22.228  19.638   0.992
63152W        W35478   8.138   8.694  11.132
63153W        W35479   2.981  11.817   2.276
63154W        W35480  30.895  12.196   2.361
63155W        W35481  40.409  27.339   0.746
63156W        W35482   9.858   3.855  13.006
63157W        W35483  29.718  24.118   4.129
63158W        W35484  28.967  10.225  10.432
63159W        W35485  35.805  39.590  13.966
63160W        W35486  23.721   1.731  10.488
63161W        W35487  27.422   2.369  10.482
63162W        W35488  27.464  38.821   2.690
63163W        W35489   5.806  36.551   0.324
63164W        W35490  15.851  15.834   2.252
63165W        W35491  20.983  16.091  14.721
63166W        W35492  12.786  32.019   1.844
63167W        W35493   2.742  38.216   1.570
63168W        W35494   0.285  39.532  13.880
63169W        W35495  36.377  35.882   0.319
63170W        W35496   1.887  29.007   1.421
63171W        W35497   2.513  39.319  10.647
63172W        W35498  27.185   6.846  12.861
63173W        W35499  32.114  19.865  13.079
63174W        W35500  28.533  33.362  12.127
63175W        W35501  21.118  32.420  13.965
63176W        W35502  19.487  27.108   3.227
63177W        W35503   4.964   6.680   0.697
63178W        W35504  25.676  22.012  11.643
63179W        W35505  29.638  15.624   4.564
63180W        W35506  37.858   5.121  14.687
63181W        W35507  29.978   1.325   4.790
63182W        W35508  34.234   6.772  10.676
63183W        W35509   3.681   2.832   5.244
63184W        W35510  38.917  39.823   3.871
63185W        W35511  22.213  22.516  14.736
63186W        W35512  27.781  36.288  14.866
63187W        W35513  15.973  15.239  14.904
63188W        W35514  25.531  22.017   0.785
63189W        W35515  20.185  28.562   3.487
63190W        W35516  38.933  39.181  11.873
63191W        W35517  25.542  37.820  11.497
63192W        W35518  21.959  33.776  12.542
63193W        W35519  44.370  13.784   0.901
63194W        W35520  26.477  33.302   0.742
63195W        W35521  29.175   6.419   3.828
63196W        W35522  29.574  23.165  14.494
63197W        W35523   6.168  21.203   1.402
63198W        W35524   0.589  33.897   4.451
63199W        W35525   1.445  26.142   3.307
63200W        W35526  41.332   2.975  13.952
63201W        W35527  42.943  25.194  12.706
63202W        W35528  16.217  40.555   4.817
63203W        W35529  33.587  42.062  12.515
63204W        W35530  39.986  34.083   4.346
63205W        W35531  35.460  44.732  10.742
63206W        W35532  29.129  18.002  11.907
63207W        W35533  12.582  18.598   2.635
63208W        W35534   5.298  22.946   1.384
63209W        W35535  17.623   2.780  12.167
63210W        W35536  31.849  25.202  11.679
63211W        W35537  29.427  10.117   4.116
63212W        W35538   7.408  29.400  12.091
63213W        W35539  30.541  15.848  13.888
63214W        W35540  40.496   8.415  12.781
63215W        W35541  10.915   4.836  12.940
63216W        W35542   2.816   0.999  11.969
63217W        W35543   0.417  11.012   0.425
63218W        W35544   7.383  28.018   4.616
63219W        W35545  43.455  16.015   4.229
63220W        W35546   5.381  27.530  12.397
63221W        W35547  24.541  36.661  11.879
63222W        W35548  31.180   1.895   4.287
63223W        W35549  17.074  29.950   4.587
63224W        W35550  36.489  22.249   4.310
63225W        W35551  31.587  37.079  10.742
63226W        W35552  39.310  27.156   1.754
63227W        W35553  23.608  26.525   1.502
63228W        W35554  18.207  43.182  14.766
63229W        W35555  33.442  37.740   3.205
63230W        W35556  39.006  35.831   4.269
63231W        W35557  23.856  27.699  14.276
63232W        W35558  31.146  13.411  13.746
63233W        W35559   9.352  22.691   4.904
63234W        W35560  30.070  42.484  13.550
63235W        W35561  42.911  37.520   3.580
63236W        W35562  39.391  14.194  11.432
63237W        W35563  24.146   4.001   0.724
63238W        W35564  16.740  28.741   1.261
63239W        W35565  16.196  35.337  12.602
63240W        W35566   5.479  12.821   3.671
63241W        W35567  38.628  18.924  12.621
63242W        W35568  12.442  13.586   2.834
63243W        W35569  22.815  11.522  11.077
63244W        W35570   6.090   0.952  14.260
63245W        W35571  14.204  22.837   3.885
63246W        W35572   4.585   8.991  12.901
63247W        W35573  25.192  35.941  13.779
63248W        W35574   4.624  26.166   1.614
63249W        W35575  22.956   5.638  11.552
63250W        W35576  32.164  38.516  10.380
63251W        W35577  17.472   8.704   4.007
63252W        W35578  32.169   1.539  14.527
63253W        W35579   9.274  15.806  11.760
63254W        W35580  21.267  33.791   1.380
63255W        W35581   9.653  42.501  10.666
63256W        W35582  42.396   1.816   2.641
63257W        W35583   4.387  27.711  13.083
63258W        W35584   0.311  18.103   4.381
63259W        W35585  29.575   8.042   3.318
63260W        W35586  24.965  12.251   3.773
63261W        W35587  25.920  30.169   3.231
63262W        W35588  21.330  10.430   1.702
63263W        W35589  36.341  39.875   0.910
63264W        W35590   6.426  13.322  13.030
63265W        W35591  34.788   2.423  12.198
63266W        W35592  44.744  25.558  12.873
63267W        W35593  29.616   9.012   0.849
63268W        W35594  42.348  25.168   1.219
63269W        W35595  37.755  20.201   0.835
63270W        W35596  26.659  43.570  14.782
63271W        W35597   2.200  36.633  12.043
63272W        W35598  38.724   2.395   5.041
63273W        W35599  36.580   6.195  12.358
63274W        W35600  20.640  34.994   2.124
63275W        W35601  20.282  39.472   3.925
63276W        W35602  26.147  28.063   4.990
63277W        W35603  26.097  34.808   0.294
63278W        W35604  24.512  42.415   1.154
63279W        W35605  27.049  21.096  11.635
63280W        W35606  15.744  30.007   4.443
63281W        W35607  19.070  25.978   2.937
63282W        W35608  27.481  26.289  14.272
63283W        W35609  32.182  28.810   1.785
63284W        W35610  41.635  42.089  12.127
63285W        W35611  12.174   3.233  14.174
63286W        W35612   6.232  17.249  13.870
63287W        W35613  31.095  40.080   1.438
63288W        W35614   7.137   7.146   3.643
63289W        W35615  24.102   5.704   2.925
63290W        W35616   9.025  27.845  14.293
63291W        W35617  35.778  28.135   3.339
63292W        W35618  22.634  11.027  11.149
63293W        W35619  33.523  25.710  11.081
63294W        W35620  41.079  31.362  11.489
63295W        W35621  19.303   0.869  14.723
63296W        W35622  26.568   6.735  13.149
63297W        W35623  20.613   3.133  13.050
63298W        W35624   4.786  36.381   0.958
63299W        W35625  10.483  17.848  13.629
63300W        W35626  40.247  11.430   1.828
63301W        W35627  13.738  29.654   4.588
63302W        W35628   6.350  20.275  11.441
63303W        W35629  16.865  35.317   1.769
63304W        W35630  37.898  13.406  11.645
63305W        W35631  21.232  30.082  13.772
63306W        W35632   5.775  12.272  14.525
63307W        W35633   1.502  11.128  10.713
63308W        W35634  21.547  44.214   0.268
63309W        W35635   4.396   9.382   1.630
63310W        W35636  17.091  16.547   4.661
63311W        W35637   0.905  15.307   3.767
63312W        W35638  41.009  26.852  13.028
63313W        W35639  44.139  41.974   4.514
63314W        W35640  23.447  21.133  14.500
63315W        W35641  10.199  18.567  14.279
63316W        W35642  29.068  18.591  13.506
63317W        W35643  20.220   3.680  11.888
63318W        W35644  13.569  10.824  14.107
63319W        W35645  10.641  19.361  12.610
63320W        W35646   3.386  11.991   3.249
63321W        W35647   7.309  37.147  10.697
63322W        W35648  11.252  22.836  11.379
63323W        W35649  28.937  38.280  10.969
63324W        W35650  10.408   1.765   3.350
63325W        W35651  40.815   3.842   2.452
63326W        W35652   0.211  42.835   3.829
63327W        W35653  14.367  33.809   5.518
63328W        W35654  27.411  25.788   3.314
63329W        W35655  42.323  11.780   4.706
63330W        W35656  36.536  11.376  11.094
63331W        W35657   5.321   1.606   4.031
63332W        W35658  38.596  30.521  11.581
63333W        W35659  14.185  34.318  13.834
63334W        W35660  38.971  21.368  10.088
63335W        W35661   9.720  12.476  11.098
63336W        W35662  42.610  12.659   3.305
63337W        W35663  33.490  41.286   0.459
63338W        W35664  15.426  19.224   1.901
63339W        W35665  29.185  13.799  11.221
63340W        W35666  10.543  11.079   0.075
63341W        W35667  18.240  27.573  10.700
63342W        W35668  21.258  31.605   1.882
63343W        W35669  25.374  31.999  11.067
63344W        W35670   6.834   0.864   4.405
63345W        W35671  28.715  20.697  11.704
63346W        W35672  27.117  21.450   4.753
63347W        W35673  43.416  29.603   3.856
63348W        W35674  25.539  28.433  14.830
63349W        W35675  11.274  17.814   2.812
63350W        W35676  28.688   1.281   0.210
63351W        W35677  25.518   0.254  12.494
63352W        W35678   8.805  31.198  12.323
63353W        W35679  19.914  16.719   2.004
63354W        W35680  23.661   7.642   2.228
63355W        W35681  44.304   2.646  14.870
63356W        W35682  27.090  20.666   0.482
63357W        W35683  33.563   5.454  14.008
63358W        W35684  44.711  14.726   3.994
63359W        W35685   7.001  33.576   2.903
63360W        W35686  26.404  16.990   0.352
63361W        W35687   5.949  29.128   4.707
63362W        W35688  17.308   6.010  12.101
63363W        W35689  14.233  25.382  12.207
63364W        W35690   2.081   1.801  12.358
63365W        W35691  37.938  23.993  13.931
63366W        W35692  39.502  35.537  14.738
63367W        W35693   5.314   4.984  12.959
63368W        W35694  25.023   7.255   2.193
63369W        W35695  42.359  16.126   3.796
63370W        W35696  29.463  14.434   0.104
63371W        W35697   3.893  40.445   0.464
63372W        W35698  41.011  11.724  14.965
63373W        W35699  41.286  39.831  12.218
63374W        W35700  15.342  41.494  12.655
63375W        W35701  39.556  10.150   3.838
63376W        W35702  26.459   5.838  14.499
63377W        W35703  24.767   0.417   0.429
63378W        W35704   4.939  26.248   3.042
63379W        W35705   6.617   2.288   2.567
63380W        W35706  17.040  28.978   0.906
63381W        W35707  33.116  15.875   0.245
63382W        W35708   7.136   2.203   4.176
63383W        W35709   8.399  15.588  11.606
63384W        W35710  29.235  35.026   3.286
63385W        W35711  14.278  25.628   1.427
63386W        W35712   2.984  26.497  12.856
63387W        W35713  41.847  15.653   2.310
63388W        W35714  39.624  18.699   3.556
63389W        W35715   8.473  14.327  14.377
63390W        W35716  15.362  23.614  12.490
63391W        W35717   1.854  23.397   4.513
63392W        W35718   6.937  42.843  10.018
63393W        W35719  25.829  15.751  10.847
63394W        W35720  18.415  12.689  13.341
63395W        W35721  10.267  15.324  11.089
63396W        W35722  24.574  12.858  10.460
63397W        W35723  18.771  37.880  12.933
63398W        W35724  41.013  13.583   4.691
63399W        W35725   5.319  32.060  14.753
63400W        W35726  22.441  19.235   1.365
63401W        W35727  18.362  34.075  10.684
63402W        W35728  36.398  29.916   2.518
63403W        W35729  19.078   3.609   1.819
63404W        W35730  42.923  33.652   3.327
63405W        W35731  29.818  11.243  14.624
63406W        W35732  38.342  22.505   1.708
63407W        W35733  32.034  38.813  13.612
63408W        W35734  36.401   0.390   0.154
63409W        W35735  23.214  42.095  11.483
63410W        W35736   0.521  21.600  13.048
63411W        W35737   8.402  23.011  14.610
63412W        W35738  38.103  12.087   3.062
63413W        W35739  42.080   6.709  13.907
63414W        W35740  21.645  37.899  14.318
63415W        W35741  32.817  39.916  11.938
63416W        W35742  10.540  18.999  14.401
63417W        W35743  39.547  12.068   0.427
63418W        W35744  44.201   8.535   0.932
63419W        W35745  41.347   2.402  11.693
63420W        W35746  40.795  32.514   2.809
63421W        W35747  11.921  16.487  11.106
63422W        W35748  17.381  30.028   2.218
63423W        W35749  24.188  12.312   1.430
63424W        W35750   0.372   9.785  10.761
63425W        W35751  34.424  22.022   0.865
63426W        W35752   1.851  32.155   4.218
63427W        W35753  31.112  22.626  12.927
63428W        W35754  44.237  14.548  13.041
63429W        W35755   5.873  25.472   3.821
63430W        W35756   8.327   5.885   3.096
63431W        W35757  25.335  32.372   2.564
63432W        W35758   5.782  27.012  14.885
63433W        W35759  44.015   0.123  12.082
63434W        W35760   6.111  26.425   4.189
63435W        W35761  34.530   0.759  12.588
63436W        W35762   4.909   6.192  13.415
63437W        W35763   0.105   8.951   1.316
63438W        W35764  31.868  26.049  14.533
63439W        W35765  21.568  38.310   3.661
63440W        W35766  34.992   4.383  11.010
63441W        W35767  16.761  43.722   0.279
63442W        W35768  39.044  30.122  13.695
63443W        W35769   6.947   5.276   0.859
63444W        W35770  32.506  38.834  13.361
63445W        W35771   6.829   4.525   2.364
63446W        W35772  28.142  13.531   4.514
63447W        W35773  22.633   1.858   3.995
63448W        W35774  22.102  27.421  13.810
63449W        W35775   1.338   9.001   4.516
63450W        W35776  26.553   3.213   0.172
63451W        W35777  41.206  34.074  13.062
63452W        W35778  30.117  17.965  14.309
63453W        W35779  30.200  29.414   4.607
63454W        W35780  33.037  26.501   3.749
63455W        W35781  43.012  34.998  14.314
63456W        W35782  44.887  12.939   4.225
63457W        W35783  26.006  30.348  10.718
63458W        W35784  30.427   3.804  13.547
63459W        W35785  39.108  34.998   4.096
63460W        W35786  14.149  25.881  12.016
63461W        W35787  40.501  39.370   4.030
63462W        W35788  40.985  26.202  12.413
63463W        W35789   8.252  13.285   1.403
63464W        W35790  21.990   5.481  13.345
63465W        W35791  26.518  18.731   1.432
63466W        W35792  10.848  37.734  10.950
63467W        W35793   8.296  27.403   0.269
63468W        W35794  22.472  32.358   4.068
63469W        W35795   3.695   0.902   0.995
63470W        W35796  43.532  34.852   0.318
63471W        W35797  12.294  35.983  11.645
63472W        W35798  12.286  15.485  13.998
63473W        W35799  43.460  39.132   4.826
63474W        W35800  18.473  14.303   2.426
63475W        W35801  33.346  37.578   4.603
63476W        W35802  12.344  44.756   3.431
63477W        W35803  44.407   4.651  12.835
63478W        W35804  26.619  25.989   3.572
63479W        W35805  39.924  37.314  12.567
63480W        W35806  34.199  26.218   2.350
63481W        W35807  42.715  19.533   3.331
63482W        W35808  42.619  40.153  13.505
63483W        W35809  19.524  36.992  11.556
63484W        W35810  39.515  40.634   2.742
63485W        W35811  43.790  22.288  12.612
63486W        W35812   4.373  29.136  11.486
63487W        W35813  36.931  29.136   1.782
63488W        W35814   7.207  24.470  13.636
63489W        W35815  18.517  15.177   2.124
63490W        W35816   8.477   2.300  11.772
63491W        W35817  39.013   2.043   0.256
63492W        W35818  23.688  35.367  12.551
63493W        W35819  12.579  13.907  12.199
63494W        W35820  26.581  39.363   2.709
63495W        W35821  17.898  32.801   0.307
63496W        W35822  12.610  41.047  11.241
63497W        W35823  25.212   1.232   1.384
63498W        W35824  23.650  43.372   3.646
63499W        W35825   5.865  29.977  13.562
63500W        W35826  32.080  18.027  14.793
63501W        W35827  29.741  29.002   1.418
63502W        W35828  40.855   3.417  12.614
63503W        W35829  33.217   2.740   3.593
63504W        W35830  40.347   8.654  14.422
63505W        W35831  38.756  14.292   4.035
63506W        W35832  33.894   0.835   2.240
63507W        W35833  42.858  35.465   3.741
63508W        W35834  13.556  21.977  10.341
63509W        W35835  37.346  10.194   2.232
63510W        W35836  42.257   7.703  14.012
63511W        W35837  19.348  19.153   0.338
63512W        W35838  16.304  11.059   3.217
63513W        W35839  10.689  40.823  14.529
63514W        W35840   6.423   9.603  13.877
63515W        W35841  10.622  40.889   3.347
63516W        W35842  24.746  23.132  13.998
63517W        W35843   4.350  16.877  11.409
63518W        W35844   5.415  33.657  14.850
63519W        W35845  31.919   2.405  11.477
63520W        W35846   6.920  38.005  12.513
63521W        W35847  38.576   2.955   3.790
63522W        W35848   7.681  22.613   4.181
63523W        W35849   3.860  25.567  12.028
63524W        W35850  38.218  37.889  12.936
63525W        W35851  37.496  10.351  10.649
63526W        W35852  35.090  18.867  13.427
63527W        W35853  36.443   5.814   0.915
63528W        W35854  37.486  38.082  12.586
63529W        W35855  40.007   0.954   0.958
63530W        W35856   5.712  31.401   2.760
63531W        W35857  19.807  37.934   4.630
63532W        W35858  12.064   1.332  12.018
63533W        W35859  26.511  39.492   2.187
63534W        W35860  13.557  18.981  12.064
63535W        W35861  12.092  18.707   2.618
63536W        W35862   3.817  34.129  11.588
63537W        W35863  32.408  13.769   1.918
63538W        W35864   2.799  39.236  14.053
63539W        W35865   6.701  29.635  11.101
63540W        W35866  24.738   1.347   0.382
63541W        W35867  41.488  43.782   0.728
63542W        W35868  18.766  12.968   1.806
63543W        W35869  29.423  28.418  13.037
63544W        W35870  44.996  29.221   3.893
63545W        W35871  44.351  15.354   4.731
63546W        W35872  34.062   8.606  11.088
63547W        W35873   6.168  13.704   2.057
63548W        W35874  10.751  25.983   1.326
63549W        W35875  29.434  27.526   9.761
63550W        W35876  28.090  19.531  11.295
63551W        W35877  27.898  20.440  12.886
63552W        W35878   4.215  11.164   5.497
63553W        W35879  24.102  38.325  12.850
63554W        W35880  17.124  23.650  10.955
63555W        W35881  41.583  14.810  10.726
63556W        W35882  43.380   2.518  10.568
63557W        W35883  37.827  38.350  11.663
63558W        W35884  22.494  43.560  14.968
63559W        W35885   8.703   8.617   0.245
63560W        W35886  16.351  14.638   4.082
63561W        W35887   6.811  15.346   0.720
63562W        W35888  44.724  32.320  13.092
63563W        W35889   1.501  27.485  13.068
63564W        W35890  43.371   3.746   4.931
63565W        W35891  27.595  31.147   0.011
63566W        W35892   2.842   1.898  11.725
63567W        W35893   5.350  23.514  11.631
63568W        W35894  40.247  20.219  11.190
63569W        W35895  22.142  40.927  14.929
63570W        W35896  42.810  10.296   3.180
63571W        W35897  43.909  23.426  12.854
63572W        W35898  16.550  43.712  12.453
63573W        W35899  20.458  41.340   0.415
63574W        W35900  40.928  15.544  12.497
63575W        W35901  32.529  42.701   3.110
63576W        W35902  39.629  10.751   9.968
63577W        W35903  38.448   4.756   0.855
63578W        W35904  33.151   0.518   0.217
63579W        W35905  36.036  42.558  14.772
63580W        W35906  38.636  43.298   0.474
63581W        W35907  29.778  43.978  12.984
63582W        W35908  35.608  11.956   4.127
63583W        W35909   0.979  23.437  13.144
63584W        W35910  35.298   2.257   4.577
63585W        W35911  29.195   5.910   2.628
63586W        W35912   9.400   6.189   1.844
63587W        W35913   0.600  23.035   0.214
63588W        W35914   7.745   0.812  10.308
63589W        W35915   0.691  13.632  14.844
63590W        W35916  27.260  34.684  14.742
63591W        W35917  24.261   7.279   4.037
63592W        W35918  33.929  30.180  11.076
63593W        W35919  16.260  18.540   2.341
63594W        W35920   8.991   3.339  12.617
63595W        W35921   6.852  10.666  13.535
63596W        W35922   2.530  33.132   4.857
63597W        W35923  33.900  11.171  11.666
63598W        W35924  14.120  14.747  10.715
63599W        W35925  18.616  16.926  14.288
63600W        W35926  14.812  11.689   0.756
63601W        W35927  17.738  22.061   1.341
63602W        W35928  25.892  15.424  12.624
63603W        W35929  17.329  16.868   4.346
63604W        W35930  31.812  35.596   3.337
63605W        W35931   7.160  12.635   1.781
63606W        W35932  38.549   5.291  11.498
63607W        W35933  12.664  13.384  13.985
63608W        W35934   3.262   5.664   1.651
63609W        W35935  26.513  21.972  11.513
63610W        W35936  26.555  30.766   1.540
63611W        W35937  39.017  31.410  14.548
63612W        W35938  40.611  18.144  13.297
63613W        W35939  37.303  24.582  10.928
63614W        W35940  11.277  35.433   3.572
63615W        W35941  31.772  12.692  11.121
63616W        W35942   4.096  21.677   5.808
63617W        W35943  39.507  36.443  11.015
63618W        W35944   4.273  22.986   2.214
63619W        W35945  15.902  28.363  11.982
63620W        W35946   9.545  32.462  12.606
63621W        W35947   8.246  38.386  10.708
63622W        W35948  11.877  38.390  13.276
63623W        W35949  44.155   5.320   4.518
63624W        W35950  28.382   9.682  13.452
63625W        W35951   5.602  39.314  12.299
63626W        W35952   2.370  32.594  11.483
63627W        W35953  39.280  37.618  11.463
63628W        W35954  40.287  43.521  12.139
63629W        W35955  14.099  32.870   2.811
63630W        W35956  13.273  10.900   3.338
63631W        W35957  20.178  31.873  13.040
63632W        W35958  15.659  24.504   4.749
63633W        W35959  24.984  19.384  14.014
63634W        W35960  17.705  23.766   1.851
63635W        W35961  26.921  44.617   1.252
63636W        W35962   9.338  10.351  13.001
63637W        W35963  12.820  35.541  13.891
63638W        W35964  40.810   2.985  10.964
63639W        W35965   7.597  22.054  11.174
63640W        W35966   4.157  39.531   2.375
63641W        W35967  36.532  30.597   0.899
63642W        W35968   5.679  28.703  13.537
63643W        W35969  23.910  18.446   4.887
63644W        W35970  23.984  23.557   2.268
63645W        W35971  24.636  27.393  12.048
63646W        W35972  18.526  39.929  14.272
63647W        W35973  14.338  41.249   3.653
63648W        W35974  25.607  20.287  13.305
63649W        W35975  16.296   5.857   1.882
63650W        W35976  25.299  28.670   0.218
63651W        W35977  29.288  23.390   3.673
63652W        W35978   8.062  18.259   0.259
63653W        W35979  11.715  42.537  10.251
63654W        W35980   7.710  22.708   2.324
63655W        W35981  41.172  44.900  10.696
63656W        W35982  44.910   0.034   2.816
63657W        W35983   1.692  10.844   2.298
63658W        W35984  31.056  38.763  14.423
63659W        W35985  14.635   5.304  12.504
63660W        W35986  17.195  17.283   4.024
63661W        W35987  41.236   0.241  12.675
63662W        W35988   2.248  34.736   1.832
63663W        W35989  29.454   3.202   4.126
63664W        W35990  30.849  41.279   1.779
63665W        W35991   7.712  20.222   2.636
63666W        W35992  27.732   1.923  11.149
63667W        W35993  19.209   8.829  14.413
63668W        W35994  21.361  31.444   0.691
63669W        W35995  34.617   3.063   1.914
63670W        W35996  29.631  15.589   0.986
63671W        W35997  35.992  22.729   2.675
63672W        W35998  41.729  40.846  12.786
63673W        W35999  38.758  41.017   0.284
63674W        W36000  23.098  26.466   1.691
63675W        W36001  42.391  44.354  14.044
63676W        W36002  20.148  23.263   0.837
63677W        W36003  18.164  15.177   4.683
63678W        W36004   6.175   0.864   2.136
63679W        W36005  16.826   6.206   0.076
63680W        W36006  13.471   2.510   3.199
63681W        W36007  15.371   8.372   4.314
63682W        W36008  10.343  30.060   4.825
63683W        W36009  37.792  42.939   2.747
63684W        W36010   5.806  20.058   3.651
63685W        W36011  42.098  13.902  10.529
63686W        W36012  11.557   4.027   1.344
63687W        W36013  35.431  23.255   3.864
63688W        W36014  39.791  20.515   4.587
63689W        W36015  14.794  20.318   3.667
63690W        W36016  30.444  21.498   0.709
63691W        W36017  26.884  38.295   3.455
63692W        W36018   2.920   4.913   3.653
63693W        W36019  27.464  44.747   3.170
63694W        W36020  20.008  43.767  10.577
63695W        W36021  12.569  29.465   0.545
63696W        W36022   2.380  34.567   3.634
63697W        W36023  38.895  29.522   1.780
63698W        W36024  34.771  37.841  12.663
63699W        W36025  43.460   3.157   2.690
63700W        W36026  20.317  39.573   0.875
63701W        W36027   7.731  14.656   3.738
63702W        W36028  35.780   0.264  12.111
63703W        W36029   3.182   2.035   3.813
63704W        W36030   7.477  25.129  12.511
63705W        W36031  32.453   6.186  11.879
63706W        W36032   6.733  26.957  14.828
63707W        W36033   7.346  38.224   1.685
63708W        W36034  24.089  30.214  12.050
63709W        W36035   4.930   0.373  11.037
63710W        W36036  35.875  43.046   0.568
63711W        W36037  21.303  20.676   2.274
63712W        W36038  30.119  30.924  14.689
63713W        W36039  27.005  28.942   0.859
63714W        W36040  22.999  44.790   4.214
63715W        W36041  24.401  16.695   0.942
63716W        W36042   3.583  34.030   0.825
63717W        W36043  38.577  37.309   4.100
63718W        W36044  11.881  23.626   4.125
63719W        W36045   5.345  43.886  10.661
63720W        W36046  32.804  20.307   0.201
63721W        W36047  41.970   4.754  12.855
63722W        W36048   0.427  32.572   3.326
63723W        W36049  41.805  21.078  12.914
63724W        W36050  40.993  12.723  12.028
63725W        W36051  40.957  11.543   3.943
63726W        W36052  42.741   3.400   3.650
63727W        W36053  42.136   6.455   4.567
63728W        W36054  22.197  25.951   1.634
63729W        W36055   8.171  13.290  14.470
63730W        W36056  34.583  10.170   0.031
63731W        W36057  25.995  30.554   2.227
63732W        W36058  39.793  15.057  11.421
63733W        W36059  29.947  19.836   4.565
63734W        W36060  14.763  37.641  11.959
63735W        W36061  40.730   9.493   3.915
63736W        W36062  24.310  13.948   4.312
63737W        W36063  11.287  31.372   2.237
63738W        W36064   1.342  24.447  11.587
63739W        W36065  35.991  21.588   2.814
63740W        W36066  25.587  38.150  13.741
63741W        W36067  13.098  10.630  13.952
63742W        W36068  33.100  37.554   5.086
63743W        W36069  41.766   3.818  11.539
63744W        W36070  42.829  39.752  13.749
63745W        W36071  24.216  40.194   1.245
63746W        W36072  27.645  12.294   0.353
63747W        W36073   2.514  22.770  12.138
63748W        W36074  12.796  31.819  13.871
63749W        W36075  37.382  40.369  11.255
63750W        W36076   6.245  28.006   2.713
63751W        W36077  29.378  23.442  10.466
63752W        W36078  38.543  18.963   2.895
63753W        W36079  15.701  33.160   4.567
63754W        W36080  21.766   6.841  10.740
63755W        W36081  22.608  37.317   1.280
63756W        W36082  41.847   5.195  12.378
63757W        W36083  12.899  36.159  11.981
63758W        W36084   2.879   6.602  12.072
63759W        W36085  12.024  44.667  11.041
63760W        W36086  38.485  15.531  13.438
63761W        W36087   3.880  10.821   1.069
63762W        W36088  16.896  35.207  12.526
63763W        W36089  31.853  36.872  14.546
63764W        W36090  35.014  13.835   4.231
63765W        W36091   2.361   3.900   4.421
63766W        W36092   6.308  27.239  13.046
63767W        W36093  10.574  35.549   0.898
63768W        W36094  13.193  15.639   1.502
63769W        W36095  37.977  35.839   5.106
63770W        W36096  28.843  17.836   3.717
63771W        W36097  44.836   0.067  12.023
63772W        W36098  20.328  41.539   2.697
63773W        W36099  23.234  43.039   0.276
63774W        W36100  32.084   4.127  11.264
63775W        W36101   1.836  25.313   1.153
63776W        W36102  36.891   5.277   4.608
63777W        W36103  22.307  20.646   1.821
63778W        W36104   0.280   1.711  12.435
63779W        W36105  37.273  43.744   3.027
63780W        W36106   9.692  28.062   1.779
63781W        W36107   8.914  23.612  14.317
63782W        W36108  32.512   5.884   4.588
63783W        W36109  33.424  33.683  10.216
63784W        W36110  23.464  32.738   1.418
63785W        W36111  13.587   6.186  13.384
63786W        W36112  32.891   9.737  13.092
63787W        W36113  34.611   0.526   3.724
63788W        W36114   1.310  21.582   2.621
63789W        W36115  14.710  24.685   4.194
63790W        W36116  21.680  13.147  14.038
63791W        W36117   1.442   6.226  14.355
63792W        W36118  30.340  25.179   3.736
63793W        W36119   3.452  26.287  10.923
63794W        W36120  27.832   8.425  14.736
63795W        W36121  13.742  23.987   3.205
63796W        W36122   1.314  11.385  11.120
63797W        W36123   5.020  33.209   2.700
63798W        W36124  42.361  14.419   0.850
63799W        W36125   9.185  43.175   2.773
63800W        W36126   4.002   1.025   0.600
63801W        W36127  14.168  22.026   2.655
63802W        W36128  19.844  15.753   4.131
63803W        W36129   9.848   8.318   1.170
63804W        W36130  21.224   5.400   4.486
63805W        W36131   2.894  10.356   3.256
63806W        W36132  36.428  11.711  13.367
63807W        W36133  34.076  43.244  11.281
63808W        W36134  44.834  13.606   0.363
63809W        W36135   6.024   6.315   4.696
63810W        W36136  16.709  32.728  13.230
63811W        W36137  10.395  22.641   4.111
63812W        W36138  11.194  35.785  12.442
63813W        W36139  11.631   0.945   3.666
63814W        W36140  37.346  30.892  11.926
63815W        W36141  14.813  35.094  14.789
63816W        W36142  35.309  24.215  12.980
63817W        W36143  12.273  32.992   3.386
63818W        W36144  32.480  16.984   3.255
63819W        W36145   6.648  28.376  13.465
63820W        W36146  30.883  38.511  12.474
63821W        W36147  26.365  37.532   3.781
63822W        W36148  37.313  34.275   3.176
63823W        W36149  33.114  32.694   3.472
63824W        W36150  33.060  39.867   1.205
63825W        W36151  24.914  30.489  13.267
63826W        W36152  42.731   0.319  12.441
63827W        W36153  31.874  44.277  12.414
63828W        W36154  39.974  18.583  14.522
63829W        W36155  11.283   4.927  13.307
63830W        W36156  37.803  39.475   0.775
63831W        W36157  32.184  18.200  11.117
63832W        W36158  22.613  42.913   4.394
63833W        W36159  34.442  30.873  11.464
63834W        W36160  18.249  16.638   4.203
63835W        W36161  36.107  43.466   2.329
63836W        W36162  15.496   3.848   4.091
63837W        W36163  35.714  12.605   5.017
63838W        W36164   3.411  39.521  12.909
63839W        W36165  39.516   6.667  14.639
63840W        W36166  39.376  15.858  14.861
63841W        W36167  41.832  16.923  12.419
63842W        W36168  31.179  33.490   1.716
63843W        W36169  27.817   9.683  14.337
63844W        W36170  28.681  37.875   0.665
63845W        W36171  35.617  43.277  14.006
63846W        W36172   7.228  15.758  11.065
63847W        W36173   6.244  22.611   1.649
63848W        W36174  25.969  38.584   3.753
63849W        W36175   3.234  36.469   3.362
63850W        W36176  33.992  27.296  12.685
63851W        W36177  36.480  17.250  10.921
63852W        W36178   0.916   4.830  14.744
63853W        W36179   4.825  23.096  14.013
63854W        W36180  17.555  25.073  14.429
63855W        W36181  39.224  38.756  10.014
63856W        W36182   8.284  23.127  12.114
63857W        W36183  27.962  11.675  11.487
63858W        W36184  33.056  44.384   4.242
63859W        W36185  43.187  38.981  13.362
63860W        W36186  14.542  30.359   1.911
63861W        W36187  37.522   2.893   3.712
63862W        W36188   6.654   4.392  12.084
63863W        W36189  26.719  19.570   1.361
63864W        W36190  25.001  15.381  11.559
63865W        W36191   5.872  25.405  12.140
63866W        W36192  31.596  18.051   3.275
63867W        W36193  18.170   9.172   4.369
63868W        W36194  37.122  31.876  11.596
63869W        W36195  22.045  27.891   2.377
63870W        W36196  15.179  18.573   3.635
63871W        W36197  31.016  20.281  10.744
63872W        W36198  10.859   7.861   3.734
63873W        W36199  32.708  29.420  10.747
63874W        W36200   6.987  44.106  12.460
63875W        W36201   3.957  25.646   3.276
63876W        W36202  33.929   3.463  13.274
63877W        W36203   8.660  12.689  14.853
63878W        W36204  21.556  44.793   2.912
63879W        W36205  43.821  21.054  10.563
63880W        W36206  15.251   1.764   3.211
63881W        W36207   4.056  38.152   3.331
63882W        W36208  30.032   5.070   4.090
63883W        W36209  38.949  25.969  13.822
63884W        W36210  11.005  12.584   2.377
63885W        W36211  42.419  35.314  12.874
63886W        W36212  30.567   4.941  12.057
63887W        W36213   3.206  33.994   0.414
63888W        W36214  40.806   8.375   0.901
63889W        W36215   5.981  16.329   4.513
63890W        W36216  36.047  19.311  13.470
63891W        W36217   9.005  36.373   4.105
63892W        W36218  10.281   6.188  14.490
63893W        W36219  32.285   5.987  14.826
63894W        W36220  38.279  24.615   4.396
63895W        W36221  41.433  12.752  10.785
63896W        W36222  11.771   3.220  10.677
63897W        W36223  38.840  26.718   3.742
63898W        W36224  20.498  17.055   3.710
63899W        W36225  37.370   3.499  12.575
63900W        W36226  21.956  21.714  12.528
63901W        W36227  22.168  25.167   4.502
63902W        W36228  41.526  11.790   0.797
63903W        W36229   1.004   3.817   1.664
63904W        W36230  36.037  29.060   0.721
63905W        W36231   3.067   7.889   3.320
63906W        W36232   4.695  17.153  12.980
63907W        W36233   9.609  33.601  13.843
63908W        W36234  40.438  30.294   4.204
63909W        W36235  17.028  39.967   4.152
63910W        W36236  28.530  14.645   3.039
63911W        W36237   9.679  15.796  10.987
63912W        W36238  38.353   3.326  13.320
63913W        W36239  22.512  19.660  14.793
63914W        W36240   9.592  14.283   2.272
63915W        W36241  11.868  16.293  12.183
63916W        W36242   0.695  14.298   3.129
63917W        W36243  42.045   9.876   2.794
63918W        W36244   7.412   6.378   1.701
63919W        W36245  32.452  43.798  13.566
63920W        W36246  12.056  13.407  10.577
63921W        W36247   5.198  44.914   2.372
63922W        W36248  16.208  15.069   3.214
63923W        W36249  36.035   5.424  14.661
63924W        W36250  40.417  37.756   1.717
63925W        W36251  23.085  40.473   5.499
63926W        W36252   3.507  44.315  12.938
63927W        W36253  20.555   0.524  14.741
63928W        W36254  44.753  21.114  13.786
63929W        W36255  31.609  16.367  11.538
63930W        W36256  18.358  32.559   0.411
63931W        W36257  22.240  36.514  13.919
63932W        W36258  18.093  37.093  13.432
63933W        W36259  11.686  44.810   1.098
63934W        W36260  16.747   0.681   3.739
63935W        W36261  23.711  33.988  10.879
63936W        W36262  39.806  20.739   3.218
63937W        W36263  44.455  15.789  13.880
63938W        W36264  18.065   2.433   3.617
63939W        W36265   8.182  33.163  14.016
63940W        W36266  33.743  26.093  13.287
63941W        W36267  22.785   3.044   3.729
63942W        W36268  31.980  31.604  14.633
63943W        W36269  20.857  26.668  11.508
63944W        W36270  21.755  38.021   2.251
63945W        W36271  36.339  33.402  12.103
63946W        W36272  24.789  41.662  12.521
63947W        W36273  31.687  19.796   3.708
63948W        W36274   2.756  44.791   2.752
63949W        W36275   2.836  16.098  13.052
63950W        W36276   8.220  37.815  13.864
63951W        W36277   1.319   3.643   1.300
63952W        W36278  23.136  36.866  13.492
63953W        W36279  25.854  22.966   2.173
63954W        W36280  44.718  19.605  11.590
63955W        W36281  33.306  41.451  13.041
63956W        W36282  33.036  31.583   1.599
63957W        W36283  11.991  26.570   4.585
63958W        W36284  10.182   8.238   5.084
63959W        W36285   7.914  40.423   3.156
63960W        W36286  28.028  39.433  11.409
63961W        W36287  39.583  25.484  12.422
63962W        W36288  28.883  23.607  10.663
63963W        W36289  12.959  13.226  11.665
63964W        W36290  22.629   8.324   1.409
63965W        W36291  38.572  44.459  10.413
63966W        W36292  25.346  26.301  10.368
63967W        W36293   7.277   8.448   3.982
63968W        W36294  22.471  18.824   4.211
63969W        W36295  10.292  29.476  13.419
63970W        W36296  36.194  33.385   0.372
63971W        W36297   8.887  14.274   4.129
63972W        W36298   2.423  33.068  13.346
63973W        W36299  25.928  16.769  12.439
63974W        W36300  43.006  10.842  11.124
63975W        W36301  32.479  15.868   4.299
63976W        W36302  33.833  33.590  14.395
63977W        W36303   4.753  10.808   0.754
63978W        W36304  43.980   6.962  10.796
63979W        W36305  24.054  33.557  12.338
63980W        W36306  25.006   0.814   4.143
63981W        W36307  33.740  12.003  12.474
63982W        W36308  39.369  17.167   1.194
63983W        W36309  26.455  30.326   4.840
63984W        W36310  30.863  13.102  12.439
63985W        W36311  32.890  16.324  14.825
63986W        W36312  27.471   9.384  12.145
63987W        W36313   0.253  31.340  12.064
63988W        W36314   9.391  27.381  10.914
63989W        W36315   9.294  34.824   0.486
63990W        W36316  43.418  21.968  12.502
63991W        W36317  43.537  28.678   4.910
63992W        W36318  23.196  23.567  14.837
63993W        W36319  38.797  19.721   1.417
63994W        W36320  30.719  33.946  10.966
63995W        W36321   8.585  42.816   4.580
63996W        W36322   4.368  10.674  10.897
63997W        W36323  25.722   6.747  12.949
63998W        W36324  10.725   2.389   2.647
63999W        W36325   3.302  29.499  11.197
64000W        W36326  13.857  44.397   1.520
64001W        W36327  44.441   7.668   1.827
64002W        W36328  29.550  41.778  11.282
64003W        W36329  35.827   8.367   2.707
64004W        W36330  41.015  33.529  13.286
64005W        W36331  20.124   1.810   1.731
64006W        W36332  24.397  43.142  12.850
64007W        W36333   5.150  14.074  11.557
64008W        W36334  38.844   0.241  13.467
64009W        W36335  25.670  22.983  10.246
64010W        W36336  10.940  35.893   1.730
64011W        W36337  30.695   5.267  12.435
64012W        W36338  11.088   1.409   4.297
64013W        W36339  35.418   6.255   2.404
64014W        W36340  39.330  22.950  13.628
64015W        W36341  35.840  12.367  12.042
64016W        W36342  44.706  17.812   3.170
64017W        W36343  38.901  41.865   4.509
64018W        W36344   8.359  40.421   3.412
64019W        W36345  16.620   9.904  11.837
64020W        W36346   0.604  16.112  11.191
64021W        W36347   5.032  24.516  14.019
64022W        W36348   6.658   2.058  11.433
64023W        W36349  20.830  32.476  12.488
64024W        W36350   3.684  31.490  12.209
64025W        W36351  41.867  42.936   5.177
64026W        W36352  18.294   7.255  11.668
64027W        W36353  37.358  36.065   1.925
64028W        W36354  42.916   8.000  14.356
64029W        W36355  26.595  16.138  11.215
64030W        W36356  24.958  23.097  11.457
64031W        W36357  39.218  12.136   3.092
64032W        W36358  23.104   4.360   1.354
64033W        W36359   0.799   9.203   3.921
64034W        W36360  19.027  32.621  13.492
64035W        W36361   3.469  40.739   0.437
64036W        W36362  26.714  11.114  13.900
64037W        W36363  32.136  17.167  10.706
64038W        W36364  41.421  33.637  13.566
64039W        W36365  31.957   0.384   2.298
64040W        W36366  10.258  11.241   1.889
64041W        W36367  26.088  25.654  13.588
64042W        W36368  44.890  43.020  10.918
64043W        W36369  28.534  29.792   4.101
64044W        W36370  19.722  21.097   1.815
64045W        W36371   5.355  12.631   1.635
64046W        W36372  30.127  12.092   3.310
64047W        W36373  35.772  21.750  11.594
64048W        W36374  37.867  22.950  11.977
64049W        W36375  34.941  21.554  11.981
64050W        W36376  24.456  40.689   1.264
64051W        W36377  12.862  35.610   1.882
64052W        W36378  12.217   8.175  11.497
64053W        W36379  17.841  44.853   2.683
64054W        W36380  20.977  22.703   2.742
64055W        W36381  15.598  19.983  10.397
64056W        W36382  41.618  33.859  11.620
64057W        W36383   7.259   0.844  14.514
64058W        W36384  21.343  44.447  14.453
64059W        W36385  28.103   6.133   0.558
64060W        W36386  32.417  21.776  12.530
64061W        W36387  28.780   2.623  13.314
64062W        W36388  39.338  38.579   0.043
64063W        W36389  28.044  37.028   1.654
64064W        W36390  11.173  23.978   0.863
64065W        W36391  29.157  10.373  11.384
64066W        W36392  14.404  11.654   1.850
64067W        W36393  34.927  37.606  13.104
64068W        W36394  21.617  11.071   4.190
64069W        W36395   6.936   4.695   1.873
64070W        W36396  36.022  43.004  14.530
64071W        W36397  33.555  42.957   2.101
64072W        W36398  36.510   3.518   2.725
64073W        W36399  33.430  35.597   1.892
64074W        W36400   2.029   6.757  10.690
64075W        W36401   4.387   9.158  11.869
64076W        W36402  39.538  16.175   0.271
64077W        W36403  26.118  18.209  10.604
64078W        W36404  24.215  28.096   4.576
64079W        W36405   1.387  42.800   2.538
64080W        W36406  34.094  20.209   3.296
64081W        W36407   6.720  34.819   4.733
64082W        W36408  12.096  15.309   2.191
64083W        W36409   9.703   3.276  13.831
64084W        W36410  16.709  14.052  11.419
64085W        W36411  37.009   7.268  13.484
64086W        W36412  27.708  18.539  12.012
64087W        W36413   0.285  37.290   3.811
64088W        W36414   7.372  23.136   0.448
64089W        W36415   4.216  38.415  11.638
64090W        W36416  14.591  14.194   2.161
64091W        W36417  10.939  34.318  12.164
64092W        W36418  14.285  35.471   1.168
64093W        W36419  36.465  15.811   2.528
64094W        W36420  38.510   5.176   1.389
64095W        W36421   2.269  30.191   0.863
64096W        W36422  25.017  30.449   3.749
64097W        W36423  12.296  35.894  13.753
64098W        W36424  40.347  32.411  13.104
64099W        W36425   0.555  42.416   2.656
64100W        W36426   1.158  33.268   4.945
64101W        W36427  22.821  29.445   2.212
64102W        W36428   6.471   8.354  13.446
64103W        W36429  19.822   1.299  13.578
64104W        W36430   7.824  32.412  13.964
64105W        W36431  15.499   8.173  12.145
64106W        W36432   3.338  19.235   2.745
64107W        W36433  27.178  13.868   2.630
64108W        W36434  31.144  10.275  12.021
64109W        W36435  29.261  24.518   4.988
64110W        W36436  37.016   0.163  14.434
64111W        W36437   1.867   9.970   2.304
64112W        W36438  37.583   4.953  11.540
64113W        W36439  15.589   9.715   0.915
64114W        W36440   0.760  43.058  13.313
64115W        W36441   2.974  20.999  12.013
64116W        W36442  40.422  13.128  13.782
64117W        W36443  15.216  24.677   1.834
64118W        W36444   5.730  31.945   2.861
64119W        W36445  19.587  16.190   4.353
64120W        W36446   2.584  17.993   3.498
64121W        W36447  38.037  36.012   4.620
64122W        W36448  21.366   0.762  10.523
64123W        W36449  23.147  26.240  13.166
64124W        W36450   4.842  15.304   0.510
64125W        W36451   3.731  31.230   4.901
64126W        W36452  20.233  39.942   1.233
64127W        W36453  34.932   9.135  11.734
64128W        W36454  15.120   9.826   2.693
64129W        W36455  12.046   7.912   3.082
64130W        W36456  23.427  13.282   0.744
64131W        W36457  24.824   3.226   0.067
64132W        W36458  20.002  33.510   1.898
64133W        W36459  27.487   1.201  13.874
64134W        W36460  36.493  23.240  11.149
64135W        W36461  25.655  44.862   4.384
64136W        W36462   8.282  40.532  12.546
64137W        W36463  12.604  17.571  11.635
64138W        W36464  27.975  27.931  13.004
64139W        W36465   2.271   8.431   2.974
64140W        W36466  44.043  25.649   3.126
64141W        W36467   7.953  38.881  13.456
64142W        W36468  44.403  33.075  14.655
64143W        W36469   7.168  23.408   2.418
64144W        W36470   2.250  20.022   0.444
64145W        W36471  10.920  22.577  11.096
64146W        W36472  18.781  23.083  11.061
64147W        W36473  22.205  14.178  10.700
64148W        W36474   5.933  42.887   1.383
64149W        W36475  43.879  37.359   1.535
64150W        W36476  38.605   7.644   0.438
64151W        W36477  23.689  22.458  11.010
64152W        W36478  19.615  19.041   0.778
64153W        W36479  16.124  10.162  14.354
64154W        W36480  39.918  20.071  13.358
64155W        W36481  16.289  10.533   3.225
64156W        W36482  14.557  35.762  12.507
64157W        W36483  36.973  36.610  11.445
64158W        W36484  18.613  28.197  12.974
64159W        W36485   1.678   3.010   0.007
64160W        W36486   4.265  22.337  14.821
64161W        W36487   6.910   5.324  13.339
64162W        W36488  10.373   7.339  12.882
64163W        W36489  10.748  39.542   4.948
64164W        W36490   6.362  38.082   0.236
64165W        W36491  21.551  25.167  10.707
64166W        W36492  38.551  26.227   3.883
64167W        W36493  12.279  39.761   3.227
64168W        W36494  40.093  39.849   3.704
64169W        W36495  36.644  33.080   1.596
64170W        W36496   4.143   6.638   1.791
64171W        W36497  32.418   8.242  13.930
64172W        W36498  17.045  19.020   4.809
64173W        W36499  18.123  41.365   3.337
64174W        W36500   1.245   4.424  13.159
64175W        W36501  12.521  33.713   5.471
64176W        W36502  19.121  29.519   4.906
64177W        W36503   9.647  21.327   0.570
64178W        W36504  13.585  42.650  12.913
64179W        W36505  30.373  43.376   4.332
64180W        W36506  18.024  39.099   2.737
64181W        W36507  21.053   9.100   4.148
64182W        W36508  40.801  41.092  13.569
64183W        W36509   1.865  33.348  12.518
64184W        W36510  18.327  35.791  14.837
64185W        W36511   1.334  17.782  14.355
64186W        W36512  30.569  23.739   3.200
64187W        W36513  18.017  31.913   2.214
64188W        W36514   4.275  11.651   5.039
64189W        W36515  28.842   6.350  14.850
64190W        W36516  17.727  24.919  14.913
64191W        W36517  39.383   2.328   0.581
64192W        W36518  20.266  22.566   4.237
64193W        W36519  38.400  31.047  14.344
64194W        W36520   3.513  23.138   2.730
64195W        W36521  36.608  33.824   3.240
64196W        W36522  44.253   4.426  11.520
64197W        W36523  12.825   6.399  12.913
64198W        W36524  18.490  35.579   2.075
64199W        W36525  42.340  17.653   1.344
64200W        W36526  27.086   2.703   4.924
64201W        W36527  20.648  26.520  10.673
64202W        W36528  42.780  13.140  13.941
64203W        W36529  31.646  42.317   4.662
64204W        W36530  19.552  37.872  11.106
64205W        W36531  18.238   0.880   3.898
64206W        W36532  12.573   9.696   2.614
64207W        W36533  27.497  21.900  11.876
64208W        W36534  13.032   7.950  14.797
64209W        W36535  10.907  29.354   1.785
64210W        W36536  30.951  33.594  14.930
64211W        W36537   6.239  19.601  11.033
64212W        W36538  21.976  12.132  12.575
64213W        W36539   9.042   4.096   4.413
64214W        W36540  11.807  29.790   1.615
64215W        W36541  34.635  10.702   1.727
64216W        W36542  39.939  35.990   2.123
64217W        W36543  31.678  34.308  11.625
64218W        W36544  42.886   1.947   2.707
64219W        W36545   3.192  13.733   2.268
64220W        W36546  36.564  26.716  10.788
64221W        W36547  40.044  33.599   1.399
64222W        W36548  15.015  22.047  11.068
64223W        W36549  40.960  35.781  11.240
64224W        W36550  31.632  27.538  13.525
64225W        W36551   9.166  28.073   0.247
64226W        W36552  15.255  14.524   1.453
64227W        W36553  35.490  18.548  14.403
64228W        W36554   8.078  35.289  14.983
64229W        W36555  30.214  13.063   3.272
64230W        W36556  29.716  10.285  13.091
64231W        W36557  43.292  13.265  13.528
64232W        W36558  27.068  22.020   0.301
64233W        W36559  22.536  44.551   2.829
64234W        W36560  24.675  26.882  11.984
64235W        W36561  16.837   0.302   3.116
64236W        W36562   7.391  20.074  13.274
64237W        W36563  25.981  10.713   2.577
64238W        W36564  34.026  37.006  14.989
64239W        W36565  10.051   9.656  14.902
64240W        W36566  12.579  17.602  10.682
64241W        W36567  38.433   7.226  10.596
64242W        W36568  39.269  27.905  14.782
64243W        W36569  30.971   2.318  13.548
64244W        W36570  17.223  30.196  11.053
64245W        W36571  11.747  27.045  13.231
64246W        W36572  13.280  30.239  13.393
64247W        W36573  24.672  25.391  12.514
64248W        W36574  38.578  41.748  12.967
64249W        W36575  15.850   2.560   2.328
64250W        W36576  31.638  35.336   1.943
64251W        W36577  20.287  35.377  14.781
64252W        W36578  43.357  40.097   3.181
64253W        W36579  32.078  24.940   2.903
64254W        W36580  38.386  40.394  12.080
64255W        W36581  34.399  20.240  14.330
64256W        W36582  28.890  31.177   4.233
64257W        W36583  13.812   1.843   3.702
64258W        W36584  11.321   4.888  10.657
64259W        W36585   1.752  24.659   0.392
64260W        W36586   3.705   9.826  13.349
64261W        W36587  13.121  43.232  11.668
64262W        W36588   2.736   7.489   1.903
64263W        W36589   3.786  12.299   3.347
64264W        W36590  29.746  43.974  11.237
64265W        W36591  17.133   3.709  12.924
64266W        W36592  42.033  11.419   3.403
64267W        W36593   1.042  30.555  12.800
64268W        W36594  19.938   2.820   2.932
64269W        W36595   1.870  25.678  14.832
64270W        W36596  24.203  15.079  13.002
64271W        W36597  34.045  39.846   2.185
64272W        W36598   9.716  41.895   0.198
64273W        W36599  29.675  16.869  10.768
64274W        W36600  12.276  34.024   2.259
64275W        W36601  42.669   9.817  10.174
64276W        W36602   6.002  29.242   0.265
64277W        W36603  34.151   2.391  11.592
64278W        W36604   9.052  36.493   4.626
64279W        W36605  27.543  42.567   4.567
64280W        W36606   6.260  41.018  12.926
64281W        W36607   5.969  23.686  13.396
64282W        W36608   4.139  27.334   3.362
64283W        W36609  40.523  18.741   2.405
64284W        W36610   3.933  19.380  11.614
64285W        W36611  24.158  29.462  13.425
64286W        W36612   8.966   3.749   3.238
64287W        W36613  42.772  23.357  10.275
64288W        W36614  44.981  43.756  14.769
64289W        W36615  21.155  38.641   2.435
64290W        W36616  15.759  26.183   2.570
64291W        W36617  27.607  16.684   3.834
64292W        W36618  10.652  32.958   0.795
64293W        W36619  29.433  23.631   2.327
64294W        W36620  26.975  27.172   0.366
64295W        W36621  40.417   1.793  12.210
64296W        W36622  24.237   8.780   4.796
64297W        W36623  11.098  15.747  13.220
64298W        W36624  18.684  20.021   1.779
64299W        W36625  17.312  31.427  11.240
64300W        W36626  19.177  44.487  14.470
64301W        W36627  10.599  43.354   1.991
64302W        W36628  32.053   7.168   2.776
64303W        W36629   0.850   9.840   2.974
64304W        W36630  22.933  44.787  14.743
64305W        W36631  40.426   2.163   2.876
64306W        W36632   3.846  38.471  10.806
64307W        W36633  22.005  11.853  10.956
64308W        W36634  26.552   1.501   2.656
64309W        W36635  15.076  32.566  12.842
64310W        W36636  13.298  15.568  12.916
64311W        W36637  17.726   3.763   3.640
64312W        W36638   3.217  11.202   4.525
64313W        W36639  37.819  17.147  13.369
64314W        W36640  17.671  10.081  12.904
64315W        W36641  21.266   2.620  14.874
64316W        W36642  44.890   8.914  14.937
64317W        W36643   8.347  16.867   1.928
64318W        W36644  13.198  20.064  12.841
64319W        W36645  16.797  14.447  11.075
64320W        W36646  35.176  31.711   4.540
64321W        W36647  10.188  42.935   4.094
64322W        W36648   7.471  36.504  13.490
64323W        W36649  21.261   2.215   1.343
64324W        W36650   6.781   5.377  12.377
64325W        W36651  35.296  19.022  11.143
64326W        W36652  40.837   7.255  12.919
64327W        W36653  26.082  38.618   1.835
64328W        W36654   5.306  10.622  13.503
64329W        W36655  35.698  28.166  11.599
64330W        W36656  22.706  15.903  14.369
64331W        W36657   6.319  34.723  11.494
64332W        W36658  28.209  19.054   2.526
64333W        W36659  27.565  19.695   4.483
64334W        W36660  10.572  42.545  13.878
64335W        W36661   9.277   2.632   1.775
64336W        W36662  10.017  17.113  13.715
64337W        W36663  40.264   4.673  10.939
64338W        W36664   8.237   1.519  14.976
64339W        W36665  32.538  19.363  14.931
64340W        W36666   7.302  17.639  10.646
64341W        W36667  28.777  30.516   3.212
64342W        W36668   0.970   2.512   0.885
64343W        W36669  16.053  20.272  14.984
64344W        W36670  37.051  31.214  12.747
64345W        W36671  17.467  39.857   1.633
64346W        W36672   4.351   2.756   1.120
64347W        W36673  29.390  11.588  11.969
64348W        W36674   0.589  14.121   2.663
64349W        W36675   9.463  24.157  12.969
64350W        W36676  41.617   4.170   2.834
64351W        W36677  30.710  34.208   1.742
64352W        W36678  34.925   4.586   0.675
64353W        W36679  11.141  21.462   4.415
64354W        W36680  42.046  38.823  12.456
64355W        W36681  25.037   4.902  13.862
64356W        W36682   0.727  40.483  13.023
64357W        W36683  31.729  32.916  10.500
64358W        W36684  43.948  14.253  11.952
64359W        W36685  27.191  22.555  10.579
64360W        W36686  32.120  35.127   1.896
64361W        W36687  41.330  13.577   1.205
64362W        W36688  16.683  30.936  10.540
64363W        W36689  29.059  29.697   3.825
64364W        W36690   2.818  32.565  11.742
64365W        W36691   2.847  13.573  14.501
64366W        W36692  42.530   2.787  10.763
64367W        W36693   1.198  39.730   0.995
64368W        W36694  24.441  29.618  14.701
64369W        W36695   3.502  23.348   5.394
64370W        W36696  30.955  23.672   5.283
64371W        W36697  14.271  30.561  12.680
64372W        W36698  23.216  39.402  12.631
64373W        W36699  40.828  32.752  10.754
64374W        W36700  13.752  16.882  12.979
64375W        W36701  30.503  31.401   2.361
64376W        W36702  38.050  43.688  10.869
64377W        W36703  12.830  34.008   9.834
64378W        W36704  19.513  11.526  14.363
64379W        W36705  33.528  10.760   3.062
64380W        W36706  16.814  37.909   4.629
64381W        W36707   1.041  22.983  10.226
64382W        W36708  11.125  12.359  12.576
64383W        W36709  32.492  42.531  10.812
64384W        W36710  19.751  38.257  13.601
64385W        W36711  17.289  33.993   0.938
64386W        W36712  20.686  43.302  11.506
64387W        W36713  38.810  39.265   2.317
64388W        W36714  36.876  28.136  10.966
64389W        W36715  18.852  10.141   0.134
64390W        W36716  21.014  22.148   3.961
64391W        W36717  12.519  19.096   3.389
64392W        W36718   5.212  25.034  14.941
64393W        W36719  21.579  28.921  14.952
64394W        W36720  30.123  28.276  12.037
64395W        W36721  21.449  10.101   2.825
64396W        W36722  39.973   3.663  11.131
64397W        W36723  44.556   7.798   3.215
64398W        W36724  31.094  10.865  11.400
64399W        W36725  15.171  16.087   2.238
64400W        W36726  26.843  37.955   1.415
64401W        W36727   4.012  43.021   3.845
64402W        W36728  24.518  10.431  11.098
64403W        W36729  12.264  35.064   2.761
64404W        W36730  44.005  18.899  12.995
64405W        W36731   7.841   9.390  12.621
64406W        W36732  30.359   0.400  12.477
64407W        W36733  33.259  17.690   2.248
64408W        W36734  17.681  28.208  11.216
64409W        W36735  20.913  22.730  14.039
64410W        W36736   5.190  25.899   0.292
64411W        W36737  32.485   6.796  12.042
64412W        W36738  44.974  37.419  10.576
64413W        W36739  19.102  19.739  11.131
64414W        W36740  18.791  41.444   4.157
64415W        W36741   2.944  12.111  11.064
64416W        W36742  37.499  15.810  14.423
64417W        W36743  16.334   3.080  13.868
64418W        W36744  28.940  20.852   3.872
64419W        W36745  10.702  22.491  12.047
64420W        W36746   2.763  32.109   3.376
64421W        W36747   0.747  14.241  11.945
64422W        W36748  34.457   5.503  12.332
64423W        W36749  33.187  27.229   2.352
64424W        W36750   9.832   3.226   2.220
64425W        W36751  19.273  12.767  12.154
64426W        W36752  12.755   4.584  14.972
64427W        W36753  22.177  15.999  13.289
64428W        W36754  35.498   7.373   0.275
64429W        W36755  11.580  41.023  13.460
64430W        W36756  27.220   8.184   3.561
64431W        W36757   3.041  16.771   0.275
64432W        W36758  25.594  32.839  10.888
64433W        W36759   0.679  21.065  11.566
64434W        W36760   4.985   6.261   0.310
64435W        W36761  41.751   1.459   0.793
64436W        W36762  44.405  34.162   4.642
64437W        W36763  37.585  21.701   2.842
64438W        W36764  24.114  13.074   2.027
64439W        W36765  28.628  18.079   3.178
64440W        W36766   9.252   7.782  14.263
64441W        W36767  13.857  44.858  13.988
64442W        W36768  44.420   3.214   5.001
64443W        W36769  42.410  32.574   4.070
64444W        W36770  39.036   6.752  11.604
64445W        W36771   5.344  24.447   3.434
64446W        W36772  10.900  26.105   2.376
64447W        W36773  12.695  22.526   2.659
64448W        W36774  25.498   3.132   2.111
64449W        W36775  41.974  40.490  13.929
64450W        W36776  37.620  20.401  13.847
64451W        W36777  35.457  32.533   4.899
64452W        W36778   9.962  40.399  10.530
64453W        W36779   6.279  44.541   5.275
64454W        W36780   7.805  42.126   1.936
64455W        W36781  35.552  11.140  10.260
64456W        W36782  24.114  27.625   3.698
64457W        W36783  22.596  41.189  10.631
64458W        W36784  44.810  35.305  13.858
64459W        W36785  39.017  34.443   0.262
64460W        W36786   9.740  30.654   1.241
64461W        W36787  13.722  12.385   3.721
64462W        W36788  15.522  26.578  14.234
64463W        W36789  11.062  13.813  11.579
64464W        W36790  37.837  36.496   4.623
64465W        W36791   6.489   8.753   4.579
64466W        W36792  35.074  10.672  14.043
64467W        W36793  25.211  39.290   3.392
64468W        W36794  41.549  33.280  10.417
64469W        W36795  23.599  17.564  14.513
64470W        W36796  23.097  17.814  14.447
64471W        W36797  29.188   9.758  10.617
64472W        W36798   2.944  38.428  13.950
64473W        W36799  35.023  44.532   1.756
64474W        W36800   4.262  23.627   4.693
64475W        W36801  23.850  17.714  13.838
64476W        W36802   9.746  37.871  13.031
64477W        W36803  36.892  11.705  14.904
64478W        W36804  26.305  20.854   3.746
64479W        W36805  12.132  17.682  12.922
64480W        W36806  22.960  11.142   4.524
64481W        W36807  20.615  30.649   1.374
64482W        W36808  12.251  20.738  10.730
64483W        W36809  17.780   1.059  12.530
64484W        W36810  30.084  29.050  13.566
64485W        W36811  35.960   3.281  12.067
64486W        W36812  40.577   9.925  12.900
64487W        W36813  15.757  33.890  14.953
64488W        W36814   8.189   5.973   3.589
64489W        W36815  21.213  20.302   4.057
64490W        W36816  16.622  23.038  13.137
64491W        W36817  19.771   8.980   3.554
64492W        W36818   8.279  29.047   0.605
64493W        W36819  43.398  34.486  12.177
64494W        W36820  14.656   1.421   4.159
64495W        W36821  24.999  18.382  13.002
64496W        W36822  43.287   6.708  11.889
64497W        W36823  27.528   3.686   1.170
64498W        W36824  18.753  21.000   2.639
64499W        W36825  39.850  16.543  14.389
64500W        W36826  37.657  33.870   3.254
64501W        W36827  23.011  29.419   0.803
64502W        W36828  27.398   4.212   1.541
64503W        W36829  26.676  37.808  11.005
64504W        W36830   1.944   7.395  13.499
64505W        W36831  10.579   6.667  14.019
64506W        W36832  12.765  24.026   1.772
64507W        W36833  10.628   4.968   2.754
64508W        W36834  37.546  22.347  10.902
64509W        W36835  41.255  36.026  14.491
64510W        W36836  43.808  32.021   3.357
64511W        W36837  12.659  21.151   0.408
64512W        W36838  10.148  33.241  14.888
64513W        W36839  35.828  20.476  11.562
64514W        W36840   7.366  19.740  11.154
64515W        W36841  20.322  44.215  12.613
64516W        W36842  40.828  44.879   3.409
64517W        W36843  38.925  32.754   2.572
64518W        W36844  42.229  40.747   2.282
64519W        W36845  13.380   4.542   0.756
64520W        W36846   1.408   8.935  12.827
64521W        W36847  31.452  35.810   0.838
64522W        W36848  40.521  13.175   4.014
64523W        W36849   4.402  17.959   2.144
64524W        W36850   9.329  20.271   4.050
64525W        W36851  36.384  17.697   3.292
64526W        W36852  11.194  20.705  13.065
64527W        W36853  18.597  37.045  11.355
64528W        W36854  26.610  37.059   3.688
64529W        W36855  41.042  24.444   3.755
64530W        W36856   4.767  18.082   3.144
64531W        W36857   6.339  18.726   2.432
64532W        W36858  21.254   3.797  13.058
64533W        W36859  42.463   4.714  12.107
64534W        W36860  44.538   7.956   4.048
64535W        W36861   6.699  35.964  13.465
64536W        W36862   0.979  29.169   3.854
64537W        W36863  44.382  39.523  13.298
64538W        W36864  35.595  23.212  14.674
64539W        W36865  19.440  27.395  11.097
64540W        W36866   0.343   5.906   2.278
64541W        W36867  32.040   8.728   4.382
64542W        W36868  43.814  34.012   2.415
64543W        W36869   5.993  20.631  13.824
64544W        W36870  21.039  14.341   3.367
64545W        W36871   3.807  43.627  14.645
64546W        W36872  33.472  39.069  14.235
64547W        W36873   7.752   5.583  10.068
64548W        W36874  21.645  10.221  14.583
64549W        W36875  25.152  20.948  10.132
64550W        W36876  27.668   4.273  12.840
64551W        W36877  21.754   9.856  13.830
64552W        W36878  30.834  26.000   0.998
64553W        W36879  21.564   4.229   0.655
64554W        W36880  22.653  17.535   5.153
64555W        W36881  41.874   2.842   3.160
64556W        W36882  20.437  34.815   0.658
64557W        W36883  33.172  42.325  11.043
64558W        W36884  29.849  37.256   0.020
64559W        W36885  15.707   0.970   0.726
64560W        W36886  13.694  25.555   4.330
64561W        W36887   0.767  10.205   2.184
64562W        W36888  40.906  20.519   2.370
64563W        W36889  27.370  40.419   1.623
64564W        W36890   7.087  28.560   0.551
64565W        W36891   3.887   7.853  13.079
64566W        W36892  27.984   3.596   0.434
64567W        W36893  24.621  29.194  11.206
64568W        W36894   8.160  36.847   0.435
64569W        W36895  20.314  11.761  10.468
64570W        W36896   9.084  10.057   0.640
64571W        W36897  42.338  11.688  13.532
64572W        W36898  20.920  42.028  13.829
64573W        W36899  28.618  28.607  11.911
64574W        W36900  44.160  15.777   0.230
64575W        W36901  10.193  19.458  12.322
64576W        W36902   1.968  39.370   0.629
64577W        W36903  21.208  39.054  11.007
64578W        W36904  21.153  38.402  10.258
64579W        W36905   9.741  10.405   2.096
64580W        W36906  24.614  30.352   0.449
64581W        W36907  26.155   7.493  11.074
64582W        W36908  14.816  38.263   0.544
64583W        W36909   0.724  34.992   4.222
64584W        W36910  19.607  44.970   3.008
64585W        W36911   6.378  34.826   1.246
64586W        W36912  21.216  27.592   3.141
64587W        W36913  12.254  15.694  14.920
64588W        W36914  39.126  13.627   3.256
64589W        W36915  11.059  33.533  13.083
64590W        W36916  28.755   8.758   2.341
64591W        W36917  38.479  30.391  12.876
64592W        W36918   4.292  34.157   1.850
64593W        W36919  27.671  10.190   3.210
64594W        W36920  13.131  11.191   4.746
64595W        W36921   1.300  37.427   4.473
64596W        W36922  21.671  34.890   2.781
64597W        W36923  25.753  43.894   0.352
64598W        W36924  22.462  43.456  10.975
64599W        W36925  44.975  11.597   2.297
64600W        W36926  20.156  39.425   1.353
64601W        W36927  16.088  41.996   0.783
64602W        W36928   6.730  41.442   3.755
64603W        W36929  36.336  13.961  12.582
64604W        W36930  15.161  25.667  11.336
64605W        W36931  25.776  23.049  13.098
64606W        W36932   4.338   8.210   2.824
64607W        W36933  39.416  11.874   4.474
64608W        W36934  15.592  31.883   1.725
64609W        W36935  22.708  12.906   4.459
64610W        W36936  36.906   7.590  13.093
64611W        W36937  13.115  12.590  13.046
64612W        W36938  13.217   5.788   2.315
64613W        W36939  39.109  27.170   3.713
64614W        W36940   6.320  10.967   2.731
64615W        W36941  44.743  34.875  13.565
64616W        W36942   4.628  32.359  12.151
64617W        W36943  29.425  10.248  10.716
64618W        W36944  24.303  16.010  11.790
64619W        W36945  10.764  28.684  13.476
64620W        W36946   8.466   4.697   3.766
64621W        W36947  22.134  13.176  14.303
64622W        W36948   7.374  12.597   4.460
64623W        W36949  31.513  12.366   0.045
64624W        W36950  11.822   1.378  13.326
64625W        W36951  41.758  26.936   0.446
64626W        W36952   4.315  15.943  13.085
64627W        W36953  42.843  29.628  13.814
64628W        W36954  11.290  27.244  14.059
64629W        W36955  31.552  32.834  11.508
64630W        W36956  16.043  13.204   0.832
64631W        W36957  43.527   0.702  13.976
64632W        W36958   9.343  11.232   3.083
64633W        W36959  21.163  32.185  13.420
64634W        W36960  31.017  24.784  12.920
64635W        W36961   1.198  21.779  12.622
64636W        W36962   1.878  38.882  13.469
64637W        W36963   9.221   0.903  13.233
64638W        W36964   7.180  20.698  14.449
64639W        W36965  44.137   4.741   4.288
64640W        W36966  25.017  17.200  14.322
64641W        W36967  11.666  15.962   4.212
64642W        W36968  22.522  15.225   5.593
64643W        W36969  33.046   9.256  13.850
64644W        W36970  34.945  35.903   5.446
64645W        W36971  44.704  13.912  14.974
64646W        W36972  40.959  43.393  14.550
64647W        W36973  39.356  40.018  13.413
64648W        W36974   2.340   8.533  11.262
64649W        W36975  13.368  24.960   0.393
64650W        W36976  26.813  20.308   3.280
64651W        W36977  19.999  26.131   3.107
64652W        W36978  29.860  35.324  13.005
64653W        W36979  16.498  22.467  10.919
64654W        W36980  40.266   8.723  11.472
64655W        W36981  39.687  31.119   0.342
64656W        W36982  16.392   5.022  13.859
64657W        W36983   8.122   1.069   2.247
64658W        W36984  21.526  14.781  13.328
64659W        W36985  33.492   6.901   0.494
64660W        W36986  30.101   2.482   1.914
64661W        W36987  16.210  19.631   2.163
64662W        W36988   6.991   7.799  12.904
64663W        W36989  36.760  12.190   4.564
64664W        W36990  23.609   7.010   3.729
64665W        W36991  21.270  21.595   3.222
64666W        W36992  24.095  27.768   2.295
64667W        W36993   0.797  20.614   0.674
64668W        W36994   9.412  19.228  10.796
64669W        W36995  15.690  20.953   5.106
64670W        W36996   2.213  12.435   2.631
64671W        W36997   7.509  27.681   2.006
64672W        W36998  44.433  43.290  11.922
64673W        W36999   6.881  12.358   2.755
64674W        W37000  36.395   3.146  13.409
64675W        W37001  44.847   4.038   1.351
64676W        W37002  28.578   2.170   4.628
64677W        W37003  26.296  22.113  14.540
64678W        W37004  23.714  10.870  13.588
64679W        W37005  29.953  28.521  14.799
64680W        W37006  38.803  15.654  10.792
64681W        W37007  22.037  18.791   0.398
64682W        W37008  13.719  30.856   0.771
64683W        W37009  23.583  39.872   4.807
64684W        W37010   4.839  31.864  14.813
64685W        W37011   2.777  27.110   0.763
64686W        W37012  37.811  33.711  11.160
64687W        W37013   2.315  10.757   3.432
64688W        W37014  44.845   3.775   2.225
64689W        W37015   2.675   3.185   4.644
64690W        W37016   2.840   2.827  11.058
64691W        W37017   2.733  19.743  10.724
64692W        W37018  36.139  23.236  11.587
64693W        W37019   4.076  27.455  14.042
64694W        W37020  37.115  16.243   4.110
64695W        W37021  23.509  22.718   0.966
64696W        W37022  38.359  14.332  14.274
64697W        W37023  21.219  36.442   2.695
64698W        W37024  26.101   9.595   0.482
64699W        W37025  43.000   6.826   3.705
64700W        W37026   4.630  24.534   1.263
64701W        W37027   1.476  12.232   9.635
64702W        W37028  26.161  44.850   3.322
64703W        W37029  38.451  28.600  11.498
64704W        W37030  27.564  29.400   0.127
64705W        W37031   4.935  20.103  11.141
64706W        W37032  22.134  36.102   3.603
64707W        W37033  16.445  10.369  14.724
64708W        W37034  29.481   0.477  11.071
64709W        W37035  27.050  27.204   4.081
64710W        W37036  32.535  32.626  13.993
64711W        W37037  13.758  23.456  14.289
64712W        W37038  12.647   8.164  12.314
64713W        W37039  44.433  39.083  13.041
64714W        W37040   8.061  42.365   3.743
64715W        W37041   9.661   5.805   0.747
64716W        W37042  39.429  17.346  12.269
64717W        W37043  21.960  32.101  14.052
64718W        W37044   4.450  11.386   3.740
64719W        W37045  28.438  36.889   4.272
64720W        W37046  28.011  40.127   3.366
64721W        W37047  18.747  14.191   2.845
64722W        W37048  21.208  10.881   3.934
64723W        W37049  18.209  12.093  11.480
64724W        W37050   4.308  32.486   4.365
64725W        W37051  41.431   9.176   1.856
64726W        W37052  16.637   9.407  11.972
64727W        W37053  22.151  16.254  12.636
64728W        W37054   6.367  22.200   1.324
64729W        W37055  12.365  30.424   0.853
64730W        W37056  34.977  36.071  14.680
64731W        W37057   0.784   5.745   3.213
64732W        W37058   5.307  41.987   2.413
64733W        W37059  43.011  39.900  12.739
64734W        W37060  26.448  36.021   2.932
64735W        W37061  14.900  14.923   1.410
64736W        W37062   9.683  44.729  12.082
64737W        W37063   2.522  24.187   3.697
64738W        W37064  35.622  26.547   2.834
64739W        W37065   9.478  43.136  12.620
64740W        W37066   5.764  35.519   2.275
64741W        W37067   9.948  23.760  11.050
64742W        W37068  17.136   8.935  12.618
64743W        W37069  16.245  33.690   1.735
64744W        W37070  33.107  44.421  11.162
64745W        W37071  13.683  30.919   0.258
64746W        W37072   9.405  20.859  11.546
64747W        W37073  42.830  29.365   4.077
64748W        W37074  37.811   0.809   3.279
64749W        W37075  20.474   4.725  11.201
64750W        W37076   1.242  10.797  13.109
64751W        W37077  22.534   4.520   4.814
64752W        W37078  20.114   4.411  13.556
64753W        W37079  25.579  15.117  12.933
64754W        W37080  10.801  39.863   0.445
64755W        W37081   0.276  23.749   1.481
64756W        W37082   8.628   1.098  11.655
64757W        W37083  28.052  12.771   4.992
64758W        W37084  30.004   5.172   3.191
64759W        W37085   2.798   9.149   0.501
64760W        W37086   4.343  37.105   4.636
64761W        W37087  35.493  25.943  11.151
64762W        W37088  41.769  17.048  11.155
64763W        W37089   2.140  14.447  12.450
64764W        W37090   6.062  10.615  14.010
64765W        W37091   4.972  38.631   2.404
64766W        W37092  13.100   0.907   1.584
64767W        W37093   5.943  24.995   2.800
64768W        W37094  30.680  14.215   1.009
64769W        W37095  12.881  42.387   4.429
64770W        W37096   2.961  44.461  11.508
64771W        W37097  13.643  26.435   3.353
64772W        W37098  37.218   6.248  13.352
64773W        W37099  43.554   4.134   1.771
64774W        W37100  14.690  41.467  12.970
64775W        W37101  24.983  44.005  10.496
64776W        W37102   8.373  31.077   0.723
64777W        W37103  16.160  14.632   1.246
64778W        W37104  14.705  35.526   5.454
64779W        W37105   9.296  27.989   2.204
64780W        W37106  24.461  18.187   3.091
64781W        W37107  20.236  20.253  12.233
64782W        W37108   2.886  42.560   3.171
64783W        W37109   8.702   6.116   3.603
64784W        W37110  37.402  43.312   2.256
64785W        W37111  15.780   6.441  11.876
64786W        W37112  39.536  44.483  14.595
64787W        W37113   6.672  34.971  12.040
64788W        W37114  30.544  38.064   2.912
64789W        W37115   4.362   6.778   3.929
64790W        W37116  24.734  10.415  10.590
64791W        W37117   0.833  19.200  13.052
64792W        W37118  13.972  35.427  11.959
64793W        W37119  23.629  20.126   1.295
64794W        W37120  17.377   9.988   0.354
64795W        W37121  11.595  35.476  12.624
64796W        W37122  14.585  13.579   0.828
64797W        W37123  10.428  40.360   3.667
64798W        W37124  23.290  27.467   4.147
64799W        W37125  36.951   1.705   4.282
64800W        W37126  21.096  28.085   5.146
64801W        W37127  42.504  40.954  13.793
64802W        W37128  36.164  10.932  11.084
64803W        W37129  23.099  15.392   2.861
64804W        W37130  26.678  16.895  14.321
64805W        W37131  20.742  44.297   4.157
64806W        W37132  31.139  28.217  12.125
64807W        W37133  15.649  37.049   4.649
64808W        W37134   1.498  29.056   0.281
64809W        W37135  36.194  41.553  11.493
64810W        W37136  13.392   7.306   2.168
64811W        W37137  25.095  33.945  14.978
64812W        W37138  26.939  30.317  11.519
64813W        W37139  42.682   5.150   4.892
64814W        W37140  37.524   6.275   0.006
64815W        W37141  44.303  34.164  10.767
64816W        W37142  38.055   7.862  13.449
64817W        W37143  37.895  39.803   3.111
64818W        W37144  40.762  31.365   3.744
64819W        W37145  35.099  41.894   1.281
64820W        W37146  19.724   2.509   3.310
64821W        W37147  28.019   7.845   3.584
64822W        W37148  21.404   7.821  10.542
64823W        W37149   1.254   6.939   2.330
64824W        W37150  21.988  37.450  12.895
64825W        W37151  19.920  29.304   4.917
64826W        W37152  21.990  15.704   2.349
64827W        W37153  25.532  23.287  12.689
64828W        W37154   0.831  34.906  14.008
64829W        W37155  28.252  19.067  12.763
64830W        W37156   4.247   3.283   1.916
64831W        W37157  13.054  29.228  13.574
64832W        W37158  19.657  31.646  11.150
64833W        W37159  23.787  28.488   2.727
64834W        W37160  17.456  14.884  11.927
64835W        W37161  34.170  36.160   3.306
64836W        W37162  40.469  29.027   0.304
64837W        W37163  37.801  40.065  13.474
64838W        W37164   9.123  44.237   1.824
64839W        W37165   7.996  24.693  10.736
64840W        W37166  29.619  16.354  14.841
64841W        W37167  16.385  23.297  13.547
64842W        W37168  29.946   6.793  14.532
64843W        W37169   3.640  38.629   0.600
64844W        W37170  19.039  11.217  10.772
64845W        W37171  17.520  39.554   0.947
64846W        W37172  44.602  14.763   3.127
64847W        W37173  39.318  22.620   4.282
64848W        W37174  14.150  37.035  11.297
64849W        W37175  41.030   5.799   2.179
64850W        W37176   6.179  37.529   2.449
64851W        W37177  38.590  25.992   0.508
64852W        W37178  34.081   6.171   0.304
64853W        W37179   1.897  17.175   2.959
64854W        W37180  38.284  19.200   0.338
64855W        W37181   4.791  43.108   0.831
64856W        W37182  35.113  17.463  12.055
64857W        W37183  37.347  37.912   4.510
64858W        W37184  36.537  25.611   2.878
64859W        W37185  33.493  12.093  12.921
64860W        W37186  25.989   1.936  13.838
64861W        W37187  15.651  21.956  10.111
64862W        W37188   2.255  34.519  11.093
64863W        W37189   9.588  31.102  11.413
64864W        W37190   6.369   2.937  10.702
64865W        W37191  14.331   1.920   3.623
64866W        W37192   0.153   2.452  12.070
64867W        W37193  28.270  31.953   1.904
64868W        W37194   5.603   7.443   2.240
64869W        W37195  27.214  42.279   2.746
64870W        W37196  22.999  25.135  14.832
64871W        W37197   2.461  18.747   1.840
64872W        W37198   2.441  36.252  13.211
64873W        W37199  13.453  31.271  11.597
64874W        W37200  33.357  13.628  12.072
64875W        W37201   6.779  31.132  14.862
64876W        W37202  41.560  34.128  10.793
64877W        W37203  24.629   0.377  13.342
64878W        W37204  13.518   4.714  14.445
64879W        W37205  31.475  16.770  14.963
64880W        W37206   6.844  28.179   1.589
64881W        W37207  37.445  41.513   0.320
64882W        W37208  24.409  10.158   3.163
64883W        W37209  42.371  31.730   4.040
64884W        W37210  41.319  10.126   2.207
64885W        W37211  16.277  11.178  12.038
64886W        W37212  32.575  11.152  13.080
64887W        W37213  37.848  14.819  13.274
64888W        W37214   6.100  16.116   1.004
64889W        W37215  36.548  11.903   4.038
64890W        W37216  30.379  40.341  11.954
64891W        W37217  21.382  21.158  14.573
64892W        W37218  25.474  17.338   2.298
64893W        W37219  38.887  36.606  13.082
64894W        W37220   0.833  43.477  11.570
64895W        W37221  31.975   4.984   3.877
64896W        W37222  41.845  23.192  13.842
64897W        W37223  34.680  24.936  11.255
64898W        W37224  31.688   6.736   1.636
64899W        W37225  20.611  29.111   4.650
64900W        W37226  16.016  44.322  12.944
64901W        W37227   3.189  15.391  12.545
64902W        W37228   9.496  24.894   5.278
64903W        W37229  10.238  17.823   4.829
64904W        W37230  42.443  19.921  11.834
64905W        W37231  32.035  20.560   2.156
64906W        W37232   3.329  43.977   4.145
64907W        W37233  42.412  20.530   0.972
64908W        W37234  10.180   8.666  10.096
64909W        W37235  25.495   8.527  12.122
64910W        W37236  26.904  11.316   3.140
64911W        W37237  26.154  13.904   1.476
64912W        W37238   7.485  22.000   2.817
64913W        W37239  43.455  23.106  12.806
64914W        W37240  43.805  11.612   0.903
64915W        W37241  15.171  15.704  14.866
64916W        W37242  12.093  42.957  13.869
64917W        W37243  25.245   7.988   4.372
64918W        W37244  21.692  20.807  12.625
64919W        W37245  10.878  21.990  12.066
64920W        W37246  32.817  41.242  13.138
64921W        W37247  27.918  43.444   0.871
64922W        W37248  32.134  21.106   4.723
64923W        W37249  31.632  11.010   3.373
64924W        W37250  27.440  37.030  14.054
64925W        W37251  33.964  15.614  10.705
64926W        W37252   6.747  15.502   1.216
64927W        W37253  30.946  27.386  13.303
64928W        W37254  25.982  27.964  13.815
64929W        W37255  28.616  37.025  10.814
64930W        W37256  14.882  16.797   0.398
64931W        W37257   8.167  27.888  12.178
64932W        W37258   9.104  27.011   3.373
64933W        W37259  32.447  36.141   2.922
64934W        W37260  39.335  34.507  12.480
64935W        W37261   2.202  22.412   2.757
64936W        W37262  10.778  37.570   0.741
64937W        W37263  22.177  32.199  11.020
64938W        W37264  23.079  30.083   3.053
64939W        W37265  31.985  12.898  12.778
64940W        W37266   4.976   8.540   3.618
64941W        W37267  41.963  32.016  10.497
64942W        W37268   8.345  22.552  14.391
64943W        W37269  17.473  30.949  12.020
64944W        W37270   5.363   1.379  10.456
64945W        W37271  12.003   9.898  14.097
64946W        W37272  31.566   7.183   3.359
64947W        W37273  23.076  32.912   4.424
64948W        W37274   1.841  26.387   3.614
64949W        W37275  42.860  31.129  13.072
64950W        W37276  32.163  34.574  13.671
64951W        W37277  37.611  20.912  13.941
64952W        W37278  13.667  10.471   1.794
64953W        W37279  21.237   1.969   4.622
64954W        W37280  13.151  14.428  14.823
64955W        W37281  37.243  18.556  14.048
64956W        W37282   9.803  27.148  12.576
64957W        W37283  21.038  20.259   3.528
64958W        W37284  13.309  39.985   4.424
64959W        W37285  24.450  34.128   3.648
64960W        W37286  11.385  40.938   1.167
64961W        W37287  22.599  27.109  12.807
64962W        W37288  12.147   3.344  11.374
64963W        W37289  11.161  32.192   1.069
64964W        W37290  37.726  37.513  11.301
64965W        W37291  35.595  15.701  11.177
64966W        W37292   2.077   5.650   0.395
64967W        W37293   1.845   0.309  14.780
64968W        W37294  23.476  11.296   1.905
64969W        W37295  36.249  32.066  11.084
64970W        W37296   5.619  17.288   2.336
64971W        W37297   3.431  37.045  12.581
64972W        W37298  13.866  25.624   2.167
64973W        W37299  27.985  23.132  13.896
64974W        W37300  33.138  27.625  14.985
64975W        W37301  16.269  40.912  14.418
64976W        W37302   0.120  41.977   0.505
64977W        W37303   9.397  25.723  11.774
64978W        W37304  23.919  26.226   0.929
64979W        W37305  33.422  43.021  13.855
64980W        W37306  38.381  10.152   0.341
64981W        W37307  16.111  37.962  14.713
64982W        W37308  40.807  18.142  10.586
64983W        W37309  42.346  26.049  12.977
64984W        W37310  11.882  36.124   1.871
64985W        W37311   3.035   3.001   3.042
64986W        W37312  30.163  16.006  14.588
64987W        W37313  37.135  36.340   0.280
64988W        W37314   3.478   8.815  10.749
64989W        W37315   1.020  10.338  12.456
64990W        W37316  38.282  19.646   1.912
64991W        W37317  43.930  38.947   0.435
64992W        W37318  39.154  41.899  14.130
64993W        W37319  35.720   0.676  12.453
64994W        W37320  13.298  18.793   4.989
64995W        W37321  18.276  38.578  13.234
64996W        W37322  17.090  27.267   4.496
64997W        W37323  43.455  13.696   0.572
64998W        W37324  18.592  18.748   4.768
64999W        W37325   0.376  31.811   2.141
65000W        W37326  35.665  22.022   2.114
65001W        W37327   7.360  16.750   3.398
65002W        W37328  29.239  44.943  12.041
65003W        W37329   5.201   0.698   1.809
65004W        W37330   2.275   8.686   1.467
65005W        W37331  14.762   6.192   0.704
65006W        W37332  43.409  21.732  11.508
65007W        W37333  17.685  21.673   0.495
65008W        W37334  33.473  12.539   4.425
65009W        W37335  21.531  30.158   1.437
65010W        W37336   4.849   6.560   1.200
65011W        W37337  38.311  25.444  10.637
65012W        W37338  13.099  10.230   2.349
65013W        W37339  35.379  20.268  11.639
65014W        W37340  35.897   6.907  12.131
65015W        W37341  40.440  10.730  13.808
65016W        W37342  42.303  25.929   4.763
65017W        W37343  28.483  13.580  11.584
65018W        W37344   9.839  42.598  12.044
65019W        W37345  38.166   2.423  10.644
65020W        W37346  14.765   2.309   3.711
65021W        W37347  26.444  12.820   1.417
65022W        W37348  26.453  27.160   2.832
65023W        W37349   4.786   3.531   2.608
65024W        W37350  43.850   5.807   2.193
65025W        W37351  36.025   7.336  13.967
65026W        W37352  21.838  12.126  13.114
65027W        W37353  19.228  35.963   3.724
65028W        W37354  10.544  20.791  11.066
65029W        W37355  25.562  44.681  12.076
65030W        W37356   8.890  25.382  13.813
65031W        W37357  25.667  25.052  13.448
65032W        W37358  16.964  38.097  14.857
65033W        W37359  21.303  44.004  11.096
65034W        W37360  34.058  19.177   3.399
65035W        W37361  42.367  23.170   1.292
65036W        W37362  42.913  11.808  13.788
65037W        W37363  40.237  24.366   3.423
65038W        W37364  12.733  23.843  10.925
65039W        W37365  33.614  20.176  12.184
65040W        W37366  32.523  10.441  10.109
65041W        W37367  40.263  34.245   5.157
65042W        W37368  15.185   6.262  14.339
65043W        W37369  21.099  20.021   1.992
65044W        W37370  17.294  35.724   4.697
65045W        W37371  26.616   2.720  10.618
65046W        W37372  11.765  29.897   0.437
65047W        W37373  21.572  24.001  10.717
65048W        W37374  15.781  39.734   1.385
65049W        W37375  36.871   3.320   4.544
65050W        W37376   7.125  43.851  11.095
65051W        W37377   0.523   5.917   0.792
65052W        W37378  13.287  22.699   3.318
65053W        W37379   5.216  42.803   0.793
65054W        W37380  43.846  44.968  13.583
65055W        W37381  38.794   4.753   1.250
65056W        W37382  15.512  11.231  14.947
65057W        W37383  24.070  38.557   4.171
65058W        W37384  30.065  35.733   2.186
65059W        W37385  42.267   3.149  11.048
65060W        W37386  42.980  42.767   3.740
65061W        W37387  36.722  40.432   3.254
65062W        W37388  16.317  43.585  14.441
65063W        W37389  18.151   6.007   1.832
65064W        W37390  19.705  16.531  10.506
65065W        W37391  32.095  42.041  13.422
65066W        W37392  41.013  21.382   4.185
65067W        W37393  21.732   0.102  13.882
65068W        W37394  19.186  33.075   2.876
65069W        W37395  18.472   5.358  13.714
65070W        W37396   9.464   2.166   1.675
65071W        W37397   6.697  11.327   2.749
65072W        W37398  26.711  43.347  12.072
65073W        W37399  42.421  30.654   4.253
65074W        W37400  27.644  39.430  11.984
65075W        W37401  22.502  43.376  12.368
65076W        W37402  18.121  20.097   4.092
65077W        W37403   4.933   3.900   2.273
65078W        W37404  19.494   7.415  13.082
65079W        W37405  20.518  24.376   2.797
65080W        W37406  17.340   8.412  12.515
65081W        W37407   7.929  37.066  11.580
65082W        W37408   9.912  36.018  11.955
65083W        W37409  24.482   5.223  11.884
65084W        W37410  35.993  24.082   0.179
65085W        W37411  43.759  31.087  11.398
65086W        W37412  24.240  20.151   3.695
65087W        W37413  33.357  24.562   3.145
65088W        W37414   2.713  37.629  13.536
65089W        W37415  19.651  36.592  12.659
65090W        W37416  41.472   4.271   4.915
65091W        W37417   1.135  27.949  12.234
65092W        W37418  30.077  15.866  13.644
65093W        W37419   4.410   7.635  10.680
65094W        W37420  29.736  17.008   1.649
65095W        W37421   0.312  16.832   3.769
65096W        W37422  11.092   9.202  13.395
65097W        W37423   0.493  41.551   2.706
65098W        W37424  10.416  23.234   4.601
65099W        W37425   4.767  37.483  11.431
65100W        W37426  40.231   3.438   1.314
65101W        W37427  28.123  12.354  12.959
65102W        W37428  17.278  35.660  12.934
65103W        W37429  30.484  17.671  11.212
65104W        W37430  28.883  33.721   2.633
65105W        W37431  26.535  13.976   1.853
65106W        W37432  18.256  28.031  14.916
65107W        W37433  25.427  44.203   0.585
65108W        W37434   3.306  18.461  11.622
65109W        W37435  12.192  24.986   1.386
65110W        W37436  42.081   1.454   1.265
65111W        W37437  32.756  28.137  10.393
65112W        W37438  34.575  36.902   1.283
65113W        W37439  40.430  18.742   1.485
65114W        W37440   2.013  21.158  12.069
65115W        W37441  26.026  12.642   0.563
65116W        W37442   2.398  16.893   1.183
65117W        W37443   6.860  20.608  13.567
65118W        W37444  17.613  11.142   3.167
65119W        W37445  38.053  32.614   0.969
65120W        W37446  41.066  28.792  13.035
65121W        W37447  26.168  23.241   1.818
65122W        W37448  29.036  39.292   3.099
65123W        W37449  28.702  15.930   1.873
65124W        W37450   2.390  42.119  13.943
65125W        W37451  42.810  21.216   4.638
65126W        W37452   4.705  24.418   0.439
65127W        W37453  16.152  23.047  14.723
65128W        W37454  39.399   5.815  13.023
65129W        W37455   0.339  19.694  13.984
65130W        W37456   7.191  24.473  14.150
65131W        W37457  31.966  24.222   4.627
65132W        W37458  25.651  31.858   3.836
65133W        W37459  11.701  23.128   1.422
65134W        W37460   0.514  27.563   0.471
65135W        W37461  34.899  11.090  11.558
65136W        W37462  22.344  19.213  13.448
65137W        W37463  33.669  36.889  10.675
65138W        W37464  31.747  20.655   5.073
65139W        W37465  23.971  12.215  11.207
65140W        W37466  34.350  24.513  11.026
65141W        W37467   0.407  33.877  14.804
65142W        W37468   5.595   6.642  12.985
65143W        W37469   1.729  14.054   0.918
65144W        W37470  16.676   3.401   0.693
65145W        W37471  40.266   5.876   0.327
65146W        W37472  26.567   2.752   4.501
65147W        W37473   2.760  10.447  11.646
65148W        W37474  38.441  33.630   3.873
65149W        W37475   2.228  22.237   5.077
65150W        W37476   1.179  13.712  14.063
65151W        W37477  18.139  24.500  11.524
65152W        W37478  19.776  24.033  11.004
65153W        W37479   3.399  33.159  12.555
65154W        W37480  14.837   1.897  12.944
65155W        W37481  40.856  42.043  12.509
65156W        W37482  35.792  35.580   0.748
65157W        W37483  20.908  12.208  11.614
65158W        W37484  43.721  23.123  10.637
65159W        W37485  15.124  22.782  12.678
65160W        W37486  36.532  41.977  11.498
65161W        W37487   8.111  41.534  11.086
65162W        W37488  22.618   5.325   3.759
65163W        W37489  12.496  12.705   2.937
65164W        W37490   7.826   8.074  11.559
65165W        W37491   2.209  20.237  14.959
65166W        W37492  41.797  11.907  10.829
65167W        W37493   0.442  23.442   0.519
65168W        W37494  19.566  21.627  12.515
65169W        W37495  15.653   4.718  13.465
65170W        W37496  13.281  20.054   3.723
65171W        W37497   3.939  36.172  14.080
65172W        W37498  44.287  28.429  12.040
65173W        W37499  43.791  35.501   0.590
65174W        W37500  40.570  34.321   0.113
65175W        W37501  14.673  43.937  13.649
65176W        W37502  22.348  20.946   2.848
65177W        W37503  30.114  25.813  12.501
65178W        W37504  43.047  10.549  12.301
65179W        W37505  33.285  32.180   2.825
65180W        W37506  15.596  14.736   4.551
65181W        W37507  11.882   9.439  13.900
65182W        W37508   8.383  27.553  14.313
65183W        W37509   2.439  23.576  12.541
65184W        W37510  13.310  19.524   2.259
65185W        W37511  31.135  31.545  13.496
65186W        W37512  27.973  36.155  14.054
65187W        W37513  20.910  15.394   1.229
65188W        W37514  34.000  39.876   1.215
65189W        W37515  12.071   2.752  14.987
65190W        W37516  40.359  42.594   3.286
65191W        W37517  18.174  16.605  14.735
65192W        W37518   1.899  16.679   2.840
65193W        W37519  41.344  11.061   1.331
65194W        W37520  28.448  35.381   4.573
65195W        W37521   5.912  15.775   0.471
65196W        W37522  29.403  33.398   4.032
65197W        W37523  33.496  39.859   1.466
65198W        W37524   0.470   3.308  10.896
65199W        W37525   9.796   5.217   4.536
65200W        W37526  29.624  26.839   1.765
65201W        W37527  34.481   0.947   3.437
65202W        W37528  33.510  13.910  14.283
65203W        W37529   0.260  44.305  11.852
65204W        W37530  23.538   9.016  11.567
65205W        W37531  33.828  22.010   3.221
65206W        W37532  23.471  17.620  13.523
65207W        W37533  18.706  35.385  13.287
65208W        W37534  32.698  41.897   0.759
65209W        W37535  26.221  32.546   1.216
65210W        W37536  12.212   5.763   1.489
65211W        W37537  15.608   8.159   2.942
65212W        W37538  34.306  18.143   0.941
65213W        W37539   9.260  39.756   2.696
65214W        W37540  40.258  31.162  13.559
65215W        W37541  34.349  19.530  11.589
65216W        W37542  38.259  18.883  10.526
65217W        W37543  40.995  38.804  11.402
65218W        W37544  43.412  17.221  14.039
65219W        W37545   0.371  17.889   1.655
65220W        W37546  20.169  34.362   2.256
65221W        W37547  31.552   8.760  10.378
65222W        W37548  18.552   2.277  13.650
65223W        W37549  35.047   4.003   2.219
65224W        W37550   2.595   5.093   5.715
65225W        W37551   6.518  17.678  13.920
65226W        W37552  14.153  18.180  12.074
65227W        W37553  14.709  23.471   1.862
65228W        W37554   5.203   6.402   1.583
65229W        W37555  18.148  29.309   0.942
65230W        W37556  20.093  43.739   2.124
65231W        W37557  14.082  20.667  11.672
65232W        W37558  39.783  41.906  12.151
65233W        W37559   0.642  22.387  12.595
65234W        W37560  41.502  30.058  12.176
65235W        W37561  11.688  31.470  11.255
65236W        W37562  20.823  27.458  10.779
65237W        W37563  26.442   0.718  12.057
65238W        W37564  18.006   3.497   0.970
65239W        W37565   1.541   8.833  14.925
65240W        W37566  23.204  25.107   3.108
65241W        W37567  23.699  28.437   1.853
65242W        W37568  16.812  24.081   4.243
65243W        W37569  28.599  27.432  10.744
65244W        W37570  25.210  23.257   3.805
65245W        W37571  43.509  22.517   1.373
65246W        W37572   2.755  31.630  11.951
65247W        W37573  31.857  12.233  10.946
65248W        W37574  17.912  11.313   1.584
65249W        W37575   1.973   9.437  12.130
65250W        W37576  22.205  35.762  10.648
65251W        W37577  44.840  33.935  12.982
65252W        W37578   6.961   2.980   0.430
65253W        W37579  31.116   3.874  13.919
65254W        W37580  26.645   2.529  12.618
65255W        W37581   5.825  33.949  11.660
65256W        W37582  42.120  12.216  14.086
65257W        W37583   0.199  13.447  13.944
65258W        W37584  17.626  10.986  13.864
65259W        W37585   4.960  14.502   2.181
65260W        W37586   8.615  37.059  13.790
65261W        W37587  39.458   0.766  12.852
65262W        W37588   2.143  11.673  11.020
65263W        W37589   0.320  13.703   2.750
65264W        W37590  11.919   8.768  10.685
65265W        W37591  25.060  34.055   0.967
65266W        W37592  24.694  18.812   3.697
65267W        W37593  33.322  31.581   0.843
65268W        W37594  32.051  43.791  12.568
65269W        W37595  39.294  21.561   2.313
65270W        W37596  14.253  42.944   0.024
65271W        W37597  41.692   2.608  10.573
65272W        W37598  36.303  36.668  12.572
65273W        W37599   1.805  11.173   1.009
65274W        W37600  33.088   7.310   1.883
65275W        W37601  13.705  13.852  13.328
65276W        W37602  22.864  25.230   3.650
65277W        W37603  13.888  33.089  11.409
65278W        W37604  40.052  32.385  13.521
65279W        W37605  43.516   9.606   2.820
65280W        W37606  38.324  15.138   3.732
65281W        W37607   7.368  33.670   0.299
65282W        W37608  20.281  32.193   2.309
65283W        W37609  31.336  27.684  11.987
65284W        W37610  35.388  15.002  12.804
65285W        W37611   9.258  32.969   3.729
65286W        W37612   7.666  28.241  14.416
65287W        W37613   7.929  44.698   4.122
65288W        W37614  15.270  31.645   2.270
65289W        W37615  12.946   0.040   4.652
65290W        W37616  40.892  15.747  12.019
65291W        W37617  10.174  37.476   2.864
65292W        W37618  17.807  12.336  10.773
65293W        W37619  34.031  30.594  10.434
65294W        W37620  34.700  44.104  10.746
65295W        W37621  22.179   1.360   2.848
65296W        W37622  34.796  24.316  13.007
65297W        W37623  21.100  40.016   4.911
65298W        W37624   8.775   7.834   0.928
65299W        W37625  33.276  28.226  10.366
65300W        W37626   1.678  31.949   0.359
65301W        W37627  15.720  25.206   3.379
65302W        W37628  38.761  19.794   1.912
65303W        W37629   1.983  37.090  13.388
65304W        W37630   7.407  23.541   1.963
65305W        W37631  43.763  29.810  13.447
65306W        W37632   5.734  11.935   3.325
65307W        W37633  11.377  19.810   1.851
65308W        W37634   1.383  35.706  11.157
65309W        W37635  17.255  33.066   4.604
65310W        W37636  41.340  25.642   0.432
65311W        W37637  14.080  35.057   0.324
65312W        W37638  41.051  22.530  11.491
65313W        W37639   0.162  19.705   1.966
65314W        W37640  26.766  39.521   4.518
65315W        W37641   6.221  21.186   2.337
65316W        W37642  27.583  38.651  10.700
65317W        W37643  41.474  38.510   3.899
65318W        W37644  10.246  42.517   0.833
65319W        W37645  34.543  14.213   2.719
65320W        W37646   3.143  12.141  12.636
65321W        W37647  13.900  23.529  11.583
65322W        W37648   4.408   1.309  14.017
65323W        W37649  40.078   8.106   1.378
65324W        W37650  43.950  29.980  12.988
65325W        W37651  44.679  33.927   1.973
65326W        W37652   3.165   6.911   1.924
65327W        W37653  43.429  27.023   1.738
65328W        W37654   9.768  15.250   0.837
65329W        W37655  37.371  33.939  14.705
65330W        W37656  33.154  15.155   3.763
65331W        W37657  25.655  12.331   2.374
65332W        W37658  11.417  18.316   3.339
65333W        W37659   1.370  40.925  11.003
65334W        W37660  21.543  31.677  12.956
65335W        W37661  44.218  32.510   3.742
65336W        W37662   3.444  32.105  10.615
65337W        W37663  12.000  36.055  11.222
65338W        W37664  37.919  11.384  12.441
65339W        W37665  17.600   4.336  14.571
65340W        W37666   1.600  17.840  14.795
65341W        W37667  32.543  10.319   2.241
65342W        W37668  33.305  30.399   3.287
65343W        W37669  44.235   4.662   0.900
65344W        W37670  35.497  35.287   5.007
65345W        W37671  13.141   8.671   3.353
65346W        W37672   6.298   5.066  12.986
65347W        W37673  18.291  32.167   3.706
65348W        W37674  38.874   2.650  13.338
65349W        W37675   5.737  30.546   0.737
65350W        W37676   2.959  17.152  10.842
65351W        W37677  24.235  34.044  12.262
65352W        W37678  27.865  12.649  10.293
65353W        W37679  36.390  15.119  13.967
65354W        W37680  27.183  35.869   0.842
65355W        W37681   6.471  43.863  11.700
65356W        W37682   1.252  16.188   4.102
65357W        W37683  34.520  38.044   2.229
65358W        W37684  44.933   0.147   1.002
65359W        W37685  28.330  11.622   0.934
65360W        W37686   0.606  43.494  14.364
65361W        W37687  27.664  12.848  11.584
65362W        W37688  27.821  23.532  13.596
65363W        W37689  34.945  27.931   0.209
65364W        W37690  42.521  10.833  13.940
65365W        W37691  39.057  17.636  14.381
65366W        W37692  28.246  22.501  11.645
65367W        W37693  32.911  31.022   4.088
65368W        W37694  20.554  28.539  11.932
65369W        W37695  35.395  11.853   1.421
65370W        W37696  33.686  15.247   0.769
65371W        W37697   1.876   6.298   3.098
65372W        W37698  24.552  34.037  14.858
65373W        W37699  42.723  28.409   4.036
65374W        W37700  18.310  29.672   4.704
65375W        W37701  33.029  14.249   3.103
65376W        W37702   4.410  42.820  12.670
65377W        W37703   5.492  17.004   3.709
65378W        W37704  34.937  38.063  11.402
65379W        W37705  29.968  42.730   1.870
65380W        W37706   3.627  21.307  13.635
65381W        W37707   2.212  12.382  12.621
65382W        W37708  43.833   1.474   4.555
65383W        W37709  11.590   5.754  12.175
65384W        W37710   6.608  39.454   2.400
65385W        W37711  30.439   3.695   5.103
65386W        W37712  13.882   7.591   2.160
65387W        W37713   7.873   5.779  13.945
65388W        W37714   5.029  40.503   5.161
65389W        W37715  40.393  40.114   0.319
65390W        W37716   3.305  20.691   0.896
65391W        W37717  26.257  43.251  12.914
65392W        W37718  26.118   7.011   4.593
65393W        W37719  10.206   0.048  13.746
65394W        W37720  20.507   3.905  11.518
65395W        W37721   4.921   9.054   3.665
65396W        W37722  21.016  24.995  14.852
65397W        W37723  31.614  12.808   1.730
65398W        W37724  19.335  21.149   0.275
65399W        W37725  34.084  31.578  10.939
65400W        W37726   6.622  14.557   1.212
65401W        W37727  28.212  37.276  12.496
65402W        W37728  12.167  11.623  10.443
65403W        W37729   9.335   6.015   0.376
65404W        W37730  39.103  26.675  13.700
65405W        W37731  15.628  29.615   2.684
65406W        W37732  43.978  18.733  10.956
65407W        W37733  27.670  38.808  12.821
65408W        W37734  33.344  37.447  10.007
65409W        W37735  19.226   4.478   1.610
65410W        W37736  34.079  11.109  11.181
65411W        W37737  11.782  41.749   0.500
65412W        W37738  40.408   0.721   3.863
65413W        W37739   4.145  38.436   3.970
65414W        W37740  19.876  44.135   3.292
65415W        W37741  35.067  17.564  13.050
65416W        W37742  13.877  32.566   2.387
65417W        W37743  15.075  17.303  12.146
65418W        W37744  38.372   5.271  12.479
65419W        W37745   2.729  37.699  11.638
65420W        W37746   4.307  23.225  14.184
65421W        W37747   7.143  17.722   0.962
65422W        W37748  40.246   2.329   0.954
65423W        W37749  44.754  23.340   3.657
65424W        W37750  43.079  20.986   4.226
65425W        W37751  29.938  39.755  10.627
65426W        W37752  14.018  21.095   0.987
65427W        W37753  23.844  38.717   2.435
65428W        W37754   6.818   4.159  12.801
65429W        W37755  40.786  16.313   4.673
65430W        W37756  26.210  22.904   4.594
65431W        W37757   3.330  35.392   1.902
65432W        W37758  35.043   8.089   1.408
65433W        W37759   4.911  18.602  11.137
65434W        W37760  33.404   3.855  12.458
65435W        W37761  21.610  38.197   3.141
65436W        W37762  40.777  14.782   3.715
65437W        W37763  28.983  15.274  10.379
65438W        W37764  36.286  32.235  13.340
65439W        W37765  31.993  20.438  12.362
65440W        W37766   2.896  31.410   0.803
65441W        W37767   6.039  22.297   3.764
65442W        W37768  32.126  23.746   1.502
65443W        W37769  26.411  18.285  14.536
65444W        W37770  20.493  31.025  11.402
65445W        W37771   5.257  38.579   3.285
65446W        W37772  40.828  40.866   4.338
65447W        W37773  12.213  43.088  12.936
65448W        W37774  36.920  13.844   4.067
65449W        W37775   7.652  41.750   3.677
65450W        W37776  44.365  30.407   2.201
65451W        W37777  17.780  33.000  10.778
65452W        W37778  41.391   3.409   3.766
65453W        W37779  32.982  15.134   2.333
65454W        W37780  28.475   8.158   3.589
65455W        W37781  32.551  41.716   1.752
65456W        W37782  38.112  35.388   3.253
65457W        W37783  11.556  20.636  12.626
65458W        W37784  26.526  35.322   0.691
65459W        W37785  19.323   4.420  10.586
65460W        W37786   7.216  36.036   3.854
65461W        W37787  30.957  36.052  11.560
65462W        W37788   7.888  20.061  10.740
65463W        W37789  36.402  15.606  13.830
65464W        W37790  43.247  40.105   4.512
65465W        W37791  17.083  28.021  13.934
65466W        W37792  26.590  43.326   0.226
65467W        W37793  10.747  33.476  12.371
65468W        W37794  19.509   1.623  12.631
65469W        W37795  27.155  20.556  13.398
65470W        W37796  10.445  16.912   4.226
65471W        W37797  35.920  39.089   2.423
65472W        W37798  39.560  25.874  12.089
65473W        W37799   1.291  13.895  12.524
65474W        W37800  24.556  25.850  12.729
65475W        W37801  34.321  32.022  11.059
65476W        W37802  33.879   8.835   0.624
65477W        W37803  41.798  22.716  13.153
65478W        W37804   6.239  18.947   1.753
65479W        W37805  42.094  15.505  13.779
65480W        W37806   7.702  27.060  13.364
65481W        W37807  32.206  37.513   3.207
65482W        W37808  39.949   9.083   2.355
65483W        W37809  34.276  12.252   2.619
65484W        W37810   0.640  24.185   0.863
65485W        W37811  22.953  25.943   1.612
65486W        W37812  13.679   5.623   3.631
65487W        W37813   0.329  36.412  13.665
65488W        W37814   1.636  24.373   3.657
65489W        W37815  38.846  21.209  14.395
65490W        W37816  23.465  19.167   2.642
65491W        W37817  36.182  15.600   2.923
65492W        W37818  37.945  37.502   2.999
65493W        W37819  34.427  19.795  12.049
65494W        W37820   9.805  25.690  12.107
65495W        W37821   0.269   2.277  13.085
65496W        W37822   5.294  19.541   4.075
65497W        W37823   7.161  41.057   0.748
65498W        W37824  39.269   0.038   0.436
65499W        W37825  32.650  19.761  13.029
65500W        W37826  38.816   7.996  10.771
65501W        W37827  32.421   4.941   0.890
65502W        W37828  29.166  18.752   4.123
65503W        W37829   6.353  23.541  10.023
65504W        W37830  25.619  29.045   0.347
65505W        W37831  34.841  15.651   4.519
65506W        W37832  28.953  34.611  13.339
65507W        W37833  18.333  26.480  13.540
65508W        W37834  43.733  34.467  10.463
65509W        W37835  32.681  29.960  10.755
65510W        W37836  29.877  25.123   0.767
65511W        W37837  30.149  28.528   0.681
65512W        W37838  16.302  40.979   3.705
65513W        W37839  33.126  42.792  13.054
65514W        W37840  36.501   6.757  12.412
65515W        W37841  18.867  20.992  14.542
65516W        W37842  15.291  10.343   2.659
65517W        W37843  10.436  19.227  13.121
65518W        W37844   7.747  13.849  12.906
65519W        W37845  25.506  35.498   3.734
65520W        W37846   3.206  34.973  11.530
65521W        W37847  35.036  35.115  11.075
65522W        W37848  21.801  22.237   2.718
65523W        W37849  43.903  24.045   3.844
65524W        W37850  31.781  10.283   1.287
65525W        W37851   2.097  13.015   2.331
65526W        W37852   4.732  33.665   4.095
65527W        W37853  38.188   9.155   2.785
65528W        W37854  37.572  42.528   3.848
65529W        W37855  16.309   5.457  14.537
65530W        W37856  30.784  41.566   2.331
65531W        W37857   2.918  34.033   4.609
65532W        W37858  13.046  16.655   3.184
65533W        W37859  34.346  34.986  11.804
65534W        W37860  40.623  10.236   0.018
65535W        W37861  10.173   5.214   1.815
65536W        W37862  35.435  41.511   0.540
65537W        W37863   4.887   2.815  11.571
65538W        W37864   7.825  13.999  13.789
65539W        W37865  39.018  33.426  11.475
65540W        W37866  14.912   3.543   0.414
65541W        W37867  31.620  33.652  12.427
65542W        W37868  13.251   1.179   0.107
65543W        W37869   7.952  42.859   0.342
65544W        W37870   5.789  12.556   1.903
65545W        W37871   0.331  33.486   2.275
65546W        W37872  29.236  14.068   0.395
65547W        W37873   5.969  13.698  11.613
65548W        W37874  42.602  28.180  10.716
65549W        W37875  26.240  16.572  10.473
65550W        W37876  26.543  16.966  13.468
65551W        W37877  21.675   5.828  10.604
65552W        W37878   8.426  33.391   4.171
65553W        W37879  22.027  20.375  13.738
65554W        W37880  41.562   8.757  12.378
65555W        W37881  24.591  26.403  10.994
65556W        W37882   8.633  33.762   1.261
65557W        W37883  32.174  40.045   3.094
65558W        W37884  30.939   5.916  11.957
65559W        W37885   8.620  29.054   3.285
65560W        W37886  40.680  31.396  14.301
65561W        W37887   6.273   2.872   4.892
65562W        W37888  14.058  39.815  11.386
65563W        W37889  23.078  41.462   1.325
65564W        W37890  27.600  21.208   4.075
65565W        W37891   5.035  13.223   1.352
65566W        W37892  35.376  33.147   1.334
65567W        W37893  21.382  16.869   1.752
65568W        W37894  11.697  29.234   2.919
65569W        W37895   6.021  42.473  12.018
65570W        W37896  10.600  11.606  12.115
65571W        W37897  21.123  42.834   0.261
65572W        W37898   9.795  12.260   1.707
65573W        W37899  11.618   1.235   4.207
65574W        W37900  39.440  30.771  13.666
65575W        W37901   0.899  30.460  14.836
65576W        W37902   9.318  29.305  14.424
65577W        W37903  35.371  41.606  13.547
65578W        W37904  18.713  29.990   4.865
65579W        W37905  30.673  13.697   2.249
65580W        W37906   9.310  21.437  12.312
65581W        W37907  39.511  40.523   1.237
65582W        W37908  29.617  10.549   0.329
65583W        W37909  40.342   4.889   1.234
65584W        W37910   1.407   9.734   2.180
65585W        W37911  18.788  35.719   0.346
65586W        W37912  15.707  25.094   2.462
65587W        W37913  31.462  23.665   2.320
65588W        W37914  10.810   4.696   3.193
65589W        W37915   9.786  41.302  14.497
65590W        W37916  28.129  30.661  13.017
65591W        W37917  39.491  12.631   4.107
65592W        W37918  19.721   8.403  13.973
65593W        W37919  36.324   2.183   3.726
65594W        W37920  33.209  14.142   2.301
65595W        W37921  14.609   4.143   3.153
65596W        W37922  15.663  21.518   4.997
65597W        W37923  44.824  35.944   4.104
65598W        W37924  42.794  22.051  14.810
65599W        W37925  16.764  16.864  12.786
65600W        W37926   3.610  17.106  11.468
65601W        W37927  40.774  26.492   4.256
65602W        W37928  18.286  36.459   2.790
65603W        W37929   6.775   6.208  13.515
65604W        W37930  13.157   1.930  10.811
65605W        W37931  15.299  40.062   3.636
65606W        W37932  25.677  25.063   5.118
65607W        W37933  36.159  22.075   2.841
65608W        W37934  21.527  37.603   4.983
65609W        W37935  42.817  39.013   1.369
65610W        W37936  32.389   3.486  13.282
65611W        W37937  27.582  38.303  13.727
65612W        W37938  42.199  37.356   4.655
65613W        W37939  44.952   8.421   1.468
65614W        W37940  25.095   7.753   3.929
65615W        W37941  36.932   1.513  14.981
65616W        W37942  25.658   4.885   1.043
65617W        W37943  10.208  31.695  13.009
65618W        W37944  19.765  44.906   1.077
65619W        W37945  23.229  32.492   4.688
65620W        W37946  39.918   1.490  14.337
65621W        W37947   1.978  31.173  14.778
65622W        W37948  35.504  25.585   3.744
65623W        W37949  30.517  13.153   3.683
65624W        W37950  17.130  39.383  10.435
65625W        W37951  24.892   4.241  11.591
65626W        W37952  18.228  33.952   3.705
65627W        W37953  40.979   2.967  12.381
65628W        W37954  34.585  14.109  13.323
65629W        W37955  27.196  33.490   4.691
65630W        W37956  40.538  10.731   4.137
65631W        W37957  19.211  30.468   3.919
65632W        W37958  15.259  42.243   4.374
65633W        W37959  26.433   0.185  12.116
65634W        W37960  30.414  22.182  11.939
65635W        W37961  32.180  17.158  12.006
65636W        W37962  24.200  41.817  14.115
65637W        W37963  27.539   0.452   4.701
65638W        W37964   7.698  37.085  12.561
65639W        W37965   5.401  21.236  14.351
65640W        W37966  39.886  19.614  14.470
65641W        W37967  39.711  41.316   3.727
65642W        W37968  27.380   9.760  12.534
65643W        W37969  17.277  10.441   4.604
65644W        W37970  13.328   0.744   0.444
65645W        W37971  41.996   0.247  13.527
65646W        W37972   0.195  22.626   2.368
65647W        W37973  23.324  23.739  11.657
65648W        W37974  42.778  25.179  13.547
65649W        W37975  31.168  38.841   4.207
65650W        W37976  29.890  33.605  10.450
65651W        W37977  24.641  44.001  13.050
65652W        W37978  16.848  29.515  10.565
65653W        W37979  34.929  30.567   2.959
65654W        W37980  21.632  27.416  14.338
65655W        W37981  42.528  16.283   0.420
65656W        W37982  26.604  35.034  11.149
65657W        W37983   9.862  19.005  13.088
65658W        W37984  41.016  32.804   0.916
65659W        W37985   2.365  15.953   2.726
65660W        W37986  41.208  23.172  13.490
65661W        W37987  16.619  13.840  13.027
65662W        W37988  25.934   6.713  14.292
65663W        W37989   1.377   3.233  14.394
65664W        W37990  20.403   4.675  14.346
65665W        W37991  38.316  24.512  11.344
65666W        W37992  21.804  41.749   0.378
65667W        W37993  23.472  28.915   2.807
65668W        W37994   3.639   1.855   2.357
65669W        W37995   9.303  27.695   1.759
65670W        W37996  33.508  13.908   4.720
65671W        W37997  42.922   8.835   1.213
65672W        W37998  18.764  19.575  14.410
65673W        W37999  11.353   7.569  11.270
65674W        W38000  35.489  31.079  13.617
65675W        W38001   9.478  33.729  11.031
65676W        W38002  42.724  11.122  10.793
65677W        W38003   3.888   3.264  10.982
65678W        W38004  42.170   3.491  11.652
65679W        W38005  10.054  39.337   2.305
65680W        W38006  12.936  11.538  12.445
65681W        W38007  23.475  19.123  12.480
65682W        W38008   8.979  42.769  11.062
65683W        W38009   0.519  37.311   2.748
65684W        W38010  42.228  10.003   1.368
65685W        W38011  10.788  38.872   2.676
65686W        W38012   5.239  13.661   3.704
65687W        W38013   7.075  22.115   3.886
65688W        W38014   1.808  33.627   4.338
65689W        W38015  41.202  34.605   1.253
65690W        W38016  10.930  39.449  11.604
65691W        W38017  25.695  32.507   4.567
65692W        W38018  13.269  38.521   3.684
65693W        W38019  42.867  12.244   4.535
65694W        W38020  27.090  43.899   1.675
65695W        W38021  11.632  15.788  12.367
65696W        W38022  39.823  30.932  13.358
65697W        W38023  35.901  17.313  13.895
65698W        W38024  42.594   0.410   0.355
65699W        W38025  19.170   2.976   3.129
65700W        W38026  10.795   7.478   0.834
65701W        W38027  32.189   2.146  12.617
65702W        W38028  31.718   9.645   2.327
65703W        W38029  13.115   3.713   4.114
65704W        W38030  18.579   5.348  11.040
65705W        W38031  43.871  12.570  13.517
65706W        W38032   9.334   6.681  14.252
65707W        W38033  34.928   3.263  12.978
65708W        W38034  17.202   0.510  10.403
65709W        W38035  41.747  44.593   3.589
65710W        W38036  39.744   0.973  11.141
65711W        W38037   0.715  16.141   1.944
65712W        W38038  10.583  44.014  14.407
65713W        W38039  29.108  38.038  11.954
65714W        W38040  33.430  40.838   4.899
65715W        W38041  38.998  12.223   2.630
65716W        W38042   6.955  23.937  12.510
65717W        W38043  28.626  39.798   2.233
65718W        W38044  22.714  30.797   0.788
65719W        W38045   8.249  30.277  14.221
65720W        W38046  10.420  13.672   2.348
65721W        W38047   7.949  17.782   1.307
65722W        W38048  21.888  20.332   3.299
65723W        W38049  12.306   0.478   0.440
65724W        W38050   5.493   4.884   0.089
65725W        W38051  31.126  32.696   3.306
65726W        W38052   7.440  14.307   2.905
65727W        W38053  25.021   5.925   4.475
65728W        W38054  33.526  17.770   0.250
65729W        W38055   2.059   7.696   2.343
65730W        W38056   9.395   2.257  13.458
65731W        W38057   3.879  17.035   2.848
65732W        W38058  40.390   1.390   1.294
65733W        W38059  13.738  38.116   3.167
65734W        W38060  35.391  36.049  14.393
65735W        W38061  20.276  42.014  12.463
65736W        W38062  14.860   5.240   4.126
65737W        W38063   4.348  43.990   2.713
65738W        W38064  19.210  27.049   2.768
65739W        W38065  12.497  19.345  14.399
65740W        W38066  22.687   2.512   3.708
65741W        W38067  40.506   2.502  12.974
65742W        W38068  37.282  27.192   3.338
65743W        W38069  17.548  39.994  12.404
65744W        W38070  10.129   9.260  10.659
65745W        W38071   0.897   0.977  10.682
65746W        W38072   6.273  40.260  13.362
65747W        W38073  12.622  13.118  14.472
65748W        W38074   8.835  22.671   0.329
65749W        W38075   2.141   7.367  14.752
65750W        W38076   1.700  36.087   1.488
65751W        W38077  30.957  25.609  13.314
65752W        W38078  27.567  30.787  10.995
65753W        W38079  18.064  26.019  13.479
65754W        W38080  18.083  36.018   3.646
65755W        W38081  26.615  16.757   4.012
65756W        W38082  12.085  12.677   1.745
65757W        W38083  21.309  18.419   4.738
65758W        W38084  39.545  41.643   4.204
65759W        W38085  39.878  34.487   4.016
65760W        W38086  18.013   5.764   4.212
65761W        W38087   2.314  23.672   3.610
65762W        W38088  26.225   1.248   1.427
65763W        W38089   4.434  17.998  10.462
65764W        W38090  15.664  25.755  10.611
65765W        W38091  23.206  21.826   1.464
65766W        W38092  17.223   0.069   0.976
65767W        W38093  28.106   5.432   3.799
65768W        W38094  31.457   8.236   2.353
65769W        W38095   2.707  12.127  14.406
65770W        W38096  39.899  19.717   2.247
65771W        W38097   4.395  32.877  10.383
65772W        W38098  29.515  24.249  11.609
65773W        W38099  15.050  26.080   2.109
65774W        W38100  22.773  41.494   3.737
65775W        W38101   5.013  14.938  12.594
65776W        W38102   5.499  41.796  11.606
65777W        W38103  33.998   2.682   1.912
65778W        W38104  26.159  21.066   3.187
65779W        W38105  24.400  18.136   1.169
65780W        W38106   5.167  18.146   4.707
65781W        W38107  15.801  24.257  13.928
65782W        W38108  16.818  39.307   1.484
65783W        W38109  26.486   8.935   1.707
65784W        W38110  39.777  37.024  12.162
65785W        W38111  43.426  10.201   2.037
65786W        W38112  11.383   0.334  14.904
65787W        W38113  11.589   9.025   4.924
65788W        W38114   9.900  36.858   4.606
65789W        W38115  16.137  36.190   4.534
65790W        W38116   4.793  31.160  12.671
65791W        W38117   4.778  20.986  11.873
65792W        W38118  30.275  14.475   2.373
65793W        W38119  42.337  23.196  11.595
65794W        W38120  35.056  42.773   4.775
65795W        W38121  42.526  39.287   2.361
65796W        W38122  40.288  43.924   1.261
65797W        W38123  29.536   2.989   3.194
65798W        W38124  35.507  40.170   2.727
65799W        W38125  37.915  31.890   3.945
65800W        W38126  39.255   3.887   3.688
65801W        W38127  17.268  40.556  11.834
65802W        W38128  16.500  31.306   4.133
65803W        W38129   0.652   7.305  14.342
65804W        W38130  37.688  16.203  13.491
65805W        W38131  16.163  32.480   1.360
65806W        W38132  18.644  36.489   2.313
65807W        W38133  41.961  35.770  12.611
65808W        W38134  25.117  24.468  13.824
65809W        W38135  22.105  13.899   0.845
65810W        W38136  27.193  26.160   0.260
65811W        W38137   5.201  40.794  10.572
65812W        W38138  22.144  18.013  14.030
65813W        W38139  41.145   8.736  12.060
65814W        W38140  13.142  24.043  12.533
65815W        W38141  14.088  33.811  13.782
65816W        W38142  17.861   8.610  13.887
65817W        W38143   2.306  37.293   1.370
65818W        W38144  41.052  13.280   2.710
65819W        W38145  27.910  26.045   1.606
65820W        W38146  35.512  44.735   4.726
65821W        W38147  14.449  33.365   1.960
65822W        W38148  15.765  10.952  14.560
65823W        W38149  37.680  29.520  14.365
65824W        W38150  13.192  41.028   1.251
65825W        W38151  35.472  11.246  12.839
65826W        W38152  39.841  15.443   0.712
65827W        W38153  24.958  35.014   4.768
65828W        W38154  26.260  20.503  13.257
65829W        W38155  43.693   8.798  14.686
65830W        W38156  37.400  10.367  14.455
65831W        W38157  32.035   7.398   2.298
65832W        W38158  20.083   4.358   3.661
65833W        W38159  22.275  24.197   4.131
65834W        W38160  35.088  34.867   0.895
65835W        W38161   2.189  12.160  11.597
65836W        W38162  27.874   0.191   4.334
65837W        W38163   6.272  41.460  10.113
65838W        W38164  25.432  10.228   9.815
65839W        W38165  31.056  33.495  13.989
65840W        W38166  35.909   6.756   2.319
65841W        W38167  36.650  33.550  13.933
65842W        W38168  31.899   7.952   4.070
65843W        W38169  42.487  10.377  14.749
65844W        W38170  27.502  14.428  14.762
65845W        W38171   3.204  24.118  14.627
65846W        W38172  30.007  23.703  11.124
65847W        W38173  30.444  36.962  14.531
65848W        W38174  39.433  22.032   0.264
65849W        W38175  40.864  18.981   1.352
65850W        W38176  15.307  13.088  12.558
65851W        W38177  42.018  40.087   4.166
65852W        W38178   7.443  37.992  14.853
65853W        W38179   9.621  29.609   1.326
65854W        W38180  36.353  24.425  14.894
65855W        W38181  44.780  30.506  10.993
65856W        W38182  35.676  26.032   2.202
65857W        W38183  32.819   3.881  11.553
65858W        W38184   4.652   3.411  13.460
65859W        W38185  18.998   0.401   3.850
65860W        W38186  40.652  25.049  11.754
65861W        W38187  40.967  44.914  14.698
65862W        W38188   1.820  41.310  14.387
65863W        W38189  27.941  24.225   2.841
65864W        W38190   4.932  39.401   3.121
65865W        W38191   0.004   4.522   1.322
65866W        W38192   2.210   7.492  11.115
65867W        W38193  39.525   9.697   4.609
65868W        W38194   5.919  42.522   2.296
65869W        W38195   6.747  27.765   0.239
65870W        W38196  27.783  27.480   1.248
65871W        W38197  41.460   8.308   1.985
65872W        W38198  19.810  12.015   1.815
65873W        W38199  26.509  20.682   0.805
65874W        W38200  37.384   0.244  13.725
65875W        W38201  12.298  20.961  11.985
65876W        W38202   5.084   9.995  14.788
65877W        W38203  18.710  39.354  13.349
65878W        W38204   5.616  44.671  11.389
65879W        W38205  28.733  38.103   1.421
65880W        W38206  41.457  11.628   4.151
65881W        W38207  13.932  17.706  12.282
65882W        W38208   0.014  25.218  13.882
65883W        W38209   4.709  43.829  11.794
65884W        W38210  40.587  34.632   4.282
65885W        W38211  26.057  32.903   2.716
65886W        W38212  31.731  19.355   0.966
65887W        W38213  22.635  41.035   1.882
65888W        W38214   9.380  40.129  13.332
65889W        W38215  29.020   4.157   0.273
65890W        W38216   2.859  38.820   3.212
65891W        W38217   5.573  40.013   1.351
65892W        W38218  19.679  41.516  14.357
65893W        W38219  17.621   8.160  14.635
65894W        W38220  14.324  27.979  10.668
65895W        W38221  32.074   2.477  11.983
65896W        W38222  41.458  31.381  14.029
65897W        W38223  22.918  29.702  11.839
65898W        W38224  26.572  28.012   3.633
65899W        W38225  23.955  26.617   3.674
65900W        W38226   2.038  36.921  14.354
65901W        W38227   5.813  40.835   1.622
65902W        W38228  30.883  26.094   4.280
65903W        W38229  29.139  30.545   3.659
65904W        W38230  31.626  43.241   4.818
65905W        W38231  26.167  16.727  11.413
65906W        W38232  10.395  43.950  11.421
65907W        W38233  41.365  27.121  11.390
65908W        W38234  33.671   1.308  10.898
65909W        W38235  32.683  32.116  12.969
65910W        W38236  25.184  20.938   0.176
65911W        W38237  19.270  14.864   4.125
65912W        W38238   7.212  36.514  11.963
65913W        W38239  40.957  30.601  10.716
65914W        W38240  18.335  22.171   0.708
65915W        W38241   4.219  22.231   0.892
65916W        W38242  43.803  13.706  10.661
65917W        W38243  31.973  37.569   1.396
65918W        W38244  28.433  37.762  14.119
65919W        W38245  19.117   1.442  10.565
65920W        W38246   0.412  26.628   3.764
65921W        W38247  19.641  17.780   1.262
65922W        W38248  22.700  43.308   1.441
65923W        W38249  33.978   5.673   4.819
65924W        W38250  25.637  14.579  13.660
65925W        W38251  44.587  44.388  10.736
65926W        W38252  17.633   0.438  10.703
65927W        W38253  14.693   1.152   9.850
65928W        W38254  39.530  39.306   1.861
65929W        W38255  27.101  43.428   0.229
65930W        W38256  39.287  12.924   0.411
65931W        W38257  31.960  20.734   3.560
65932W        W38258  33.663  32.458  12.913
65933W        W38259  33.487  12.109   3.290
65934W        W38260  43.304   4.708   3.142
65935W        W38261  34.542  37.992  11.729
65936W        W38262  12.343  13.343   4.523
65937W        W38263   4.407   2.363   5.128
65938W        W38264  27.142  23.681  11.125
65939W        W38265  23.917  25.112   2.211
65940W        W38266  27.630  23.460  14.394
65941W        W38267  24.675  14.846  10.955
65942W        W38268  41.364  21.430   0.876
65943W        W38269  32.836  29.518  13.414
65944W        W38270  19.097  39.862   2.779
65945W        W38271  25.790  44.167  11.565
65946W        W38272  30.954  13.841  13.481
65947W        W38273  26.343  12.007  14.044
65948W        W38274  41.007  27.090  12.568
65949W        W38275   3.504  16.540   1.668
65950W        W38276  15.351  22.191   5.045
65951W        W38277  13.611   3.166   1.422
65952W        W38278  15.255  36.308  14.740
65953W        W38279   2.216  37.530  13.419
65954W        W38280  36.654  41.138  10.701
65955W        W38281   5.352   4.261  14.299
65956W        W38282  36.362  36.406  13.108
65957W        W38283   9.425  39.417   3.098
65958W        W38284   7.912  23.542   4.564
65959W        W38285  21.110  20.333  10.717
65960W        W38286  13.789  36.818   0.347
65961W        W38287  25.626  30.482   1.524
65962W        W38288   5.640  11.286   1.363
65963W        W38289  34.129  19.165  14.911
65964W        W38290  20.359   9.148   1.231
65965W        W38291  22.147   6.217   4.536
65966W        W38292   4.805  23.008   2.277
65967W        W38293  10.993  10.615  11.186
65968W        W38294  25.924  14.600  14.692
65969W        W38295   6.746  30.882  12.577
65970W        W38296  22.063   1.776  11.433
65971W        W38297  14.178   7.338  12.208
65972W        W38298  37.153  12.242   3.262
65973W        W38299  33.260  12.257  11.390
65974W        W38300  36.888  38.280   3.127
65975W        W38301   3.965   3.357  12.371
65976W        W38302  24.694  26.676  13.867
65977W        W38303  13.415  19.262  14.834
65978W        W38304  26.817  15.278   3.134
65979W        W38305  16.026  10.103   3.157
65980W        W38306  44.833  14.271  11.358
65981W        W38307   1.585  21.168   4.548
65982W        W38308  17.589  13.981  14.360
65983W        W38309  21.639  11.267   1.609
65984W        W38310  33.082  39.787   3.145
65985W        W38311   4.546  22.112   3.781
65986W        W38312  16.020  30.890   0.848
65987W        W38313   6.677  37.022  12.625
65988W        W38314   7.636  21.958   3.726
65989W        W38315  43.924   1.005   0.375
65990W        W38316  43.450   4.953  11.308
65991W        W38317  10.163  23.026  14.088
65992W        W38318  26.628  43.090  13.860
65993W        W38319  13.064   3.145  14.962
65994W        W38320  13.778  16.604  13.506
65995W        W38321  31.242  36.634   4.607
65996W        W38322  44.933  10.060   4.355
65997W        W38323  34.468  40.997   4.048
65998W        W38324  14.661  16.079  13.565
65999W        W38325  19.653   5.488  11.041
66000W        W38326  22.838  14.918  12.888
66001W        W38327  18.021  37.959   3.997
66002W        W38328  20.819  14.565   0.871
66003W        W38329  28.563  44.944   4.108
66004W        W38330  33.090  41.587   0.286
66005W        W38331  37.434  24.533   4.138
66006W        W38332  25.080   5.003  12.078
66007W        W38333  28.556  30.166  13.894
66008W        W38334  11.634  27.525   4.733
66009W        W38335  22.713  31.142   0.379
66010W        W38336  10.280  31.402  10.938
66011W        W38337   0.855  39.703   4.981
66012W        W38338  32.634  35.206   2.062
66013W        W38339  36.706  32.092   4.998
66014W        W38340  36.037  16.275   4.683
66015W        W38341   7.736  39.248  13.906
66016W        W38342  44.945  22.473  13.123
66017W        W38343   4.797  34.013   1.127
66018W        W38344  35.353   2.595  14.929
66019W        W38345   4.658  12.729  11.418
66020W        W38346  12.666  25.656   3.397
66021W        W38347  32.537  25.714  10.938
66022W        W38348  34.566  42.597   4.623
66023W        W38349  15.741  27.110   3.895
66024W        W38350  15.641  15.611  13.463
66025W        W38351  15.788   1.733   3.658
66026W        W38352   5.145   3.414  10.914
66027W        W38353  30.914  20.111   4.024
66028W        W38354  27.015  15.817   3.841
66029W        W38355  34.734  21.628  11.535
66030W        W38356  36.460  15.833  14.834
66031W        W38357  36.479  36.132  11.138
66032W        W38358  26.969  44.835  13.543
66033W        W38359  44.439  44.160  10.286
66034W        W38360  34.730  20.952  11.506
66035W        W38361   1.724  13.692  13.098
66036W        W38362  17.274   4.320   1.714
66037W        W38363  11.956   2.606  11.967
66038W        W38364  14.837  16.034  14.596
66039W        W38365   6.688  31.173   1.953
66040W        W38366  35.717   2.211  12.596
66041W        W38367   1.184  29.996   4.203
66042W        W38368  20.525  29.392   0.870
66043W        W38369  26.370  36.099   4.951
66044W        W38370  43.707  37.918   4.081
66045W        W38371  17.117  36.973   1.849
66046W        W38372  38.026   7.287  10.914
66047W        W38373  22.958  33.991   3.743
66048W        W38374  14.668   2.322   2.402
66049W        W38375  20.192  24.572   0.076
66050W        W38376  18.545  12.935  11.474
66051W        W38377   2.014  33.311   2.214
66052W        W38378  21.818  16.139   0.222
66053W        W38379  16.799   0.531  13.345
66054W        W38380  12.130  44.337   2.650
66055W        W38381  28.800  10.148  14.223
66056W        W38382  18.338  42.500  12.188
66057W        W38383  30.482  24.557  14.545
66058W        W38384  24.536  28.658  11.961
66059W        W38385  38.250  41.878  13.753
66060W        W38386   6.412  33.208  14.104
66061W        W38387  21.519  20.621   4.355
66062W        W38388  12.037  33.917  10.235
66063W        W38389  31.950   9.399  13.868
66064W        W38390  15.606  31.078  14.458
66065W        W38391  25.662  36.038  13.035
66066W        W38392   1.960  23.560   3.128
66067W        W38393  18.168  36.152   4.623
66068W        W38394   5.154  42.888  13.799
66069W        W38395  36.495  16.640  14.317
66070W        W38396  26.625  32.610  14.936
66071W        W38397  43.553  10.831  13.965
66072W        W38398  26.458  16.606   3.494
66073W        W38399  13.313  36.060   0.914
66074W        W38400   6.984   6.671   3.618
66075W        W38401  21.774  18.847   0.854
66076W        W38402   5.281  19.993   3.782
66077W        W38403   6.809   8.580   0.810
66078W        W38404  32.212  21.262  13.835
66079W        W38405  36.816  10.223   2.205
66080W        W38406  23.705  14.694   9.726
66081W        W38407  14.182  31.102  12.994
66082W        W38408  24.114  40.515  10.911
66083W        W38409  38.910  37.118  13.032
66084W        W38410  11.460  20.777   1.765
66085W        W38411  37.294  29.801  12.995
66086W        W38412  16.045  36.469   0.427
66087W        W38413  35.533   4.722  11.645
66088W        W38414  35.101  26.620   0.213
66089W        W38415  28.949  21.989  11.163
66090W        W38416   3.803  30.299  14.384
66091W        W38417  25.250  13.200   3.895
66092W        W38418  15.109  31.757  12.040
66093W        W38419   0.764   3.166   0.397
66094W        W38420   4.492  28.431  12.155
66095W        W38421  32.379  40.567  11.032
66096W        W38422  23.093  36.054   2.084
66097W        W38423  15.264  14.281  12.542
66098W        W38424  31.344  41.897   0.470
66099W        W38425   5.464  10.931  11.839
66100W        W38426  15.153  28.408   0.403
66101W        W38427  16.172  28.088   3.442
66102W        W38428  41.577   3.987  13.076
66103W        W38429  32.438  23.901   4.054
66104W        W38430  14.790  24.936   1.978
66105W        W38431  44.174  34.635   4.682
66106W        W38432  26.148  35.124  11.389
66107W        W38433  14.931  31.114   3.108
66108W        W38434   5.766  23.201  10.807
66109W        W38435  44.230   6.207   1.762
66110W        W38436  44.519  19.471  10.472
66111W        W38437  38.337  24.456   3.916
66112W        W38438   7.422  29.956  10.823
66113W        W38439  36.872  32.540  12.382
66114W        W38440  23.557  32.868  12.667
66115W        W38441  32.098  42.005   2.445
66116W        W38442  34.370  40.119   0.902
66117W        W38443   8.955  33.679  12.186
66118W        W38444  11.299  44.781  13.277
66119W        W38445  21.640  31.806   4.501
66120W        W38446  36.506  36.926  14.462
66121W        W38447  24.091  25.164  11.501
66122W        W38448  27.050  37.065  14.528
66123W        W38449   7.359  17.078  14.755
66124W        W38450   6.162  35.715   0.353
66125W        W38451  25.182   8.754   0.729
66126W        W38452  35.402  35.033  13.498
66127W        W38453  28.741  43.790  11.500
66128W        W38454  22.051   5.375  11.659
66129W        W38455  30.564  11.931   1.652
66130W        W38456   4.141  34.940  12.373
66131W        W38457   1.938   3.888   0.433
66132W        W38458   4.469  37.631  10.066
66133W        W38459  29.691  12.606  13.319
66134W        W38460  36.482   3.526  12.369
66135W        W38461  29.279  37.712   2.682
66136W        W38462   0.932  28.510   2.711
66137W        W38463   4.077  35.458   3.844
66138W        W38464   8.756  37.057   3.346
66139W        W38465  12.230   8.861  10.285
66140W        W38466  35.097  39.047   2.669
66141W        W38467  14.787  34.218   1.795
66142W        W38468  41.745  35.042  14.856
66143W        W38469  22.219  24.600  12.349
66144W        W38470  23.672  38.882   1.316
66145W        W38471  17.561  40.492  13.525
66146W        W38472  14.612  32.612   0.793
66147W        W38473  26.141  14.372   3.750
66148W        W38474  43.414   1.160   2.798
66149W        W38475  28.206  23.671   1.917
66150W        W38476  40.262  31.248  14.587
66151W        W38477  23.979  16.609   1.730
66152W        W38478  34.754   1.790   4.202
66153W        W38479   5.121   6.471   3.341
66154W        W38480  18.028  10.368  11.331
66155W        W38481   1.202  22.285  10.921
66156W        W38482  28.574  11.420  12.973
66157W        W38483  21.694   0.598  11.515
66158W        W38484  25.004  40.277   0.312
66159W        W38485  39.443  25.613  11.485
66160W        W38486  19.033   4.898   1.354
66161W        W38487  16.819  14.223  12.080
66162W        W38488   3.226  24.165   1.065
66163W        W38489  36.985  13.556  12.070
66164W        W38490   0.249  35.608  13.960
66165W        W38491  25.987   1.831   2.190
66166W        W38492  25.292  17.031  11.045
66167W        W38493  22.284  37.164  14.790
66168W        W38494  13.822  34.169   1.029
66169W        W38495   1.003  17.883  11.619
66170W        W38496  28.376   3.406  10.704
66171W        W38497  13.183  29.956   2.894
66172W        W38498  40.895  19.980  13.118
66173W        W38499  27.417  21.481  12.630
66174W        W38500  24.352  27.570  14.398
66175W        W38501   6.251  31.268   4.268
66176W        W38502  18.642   5.412   2.055
66177W        W38503  29.570  20.010  12.669
66178W        W38504  37.260  33.365   0.309
66179W        W38505  33.059  16.752   1.161
66180W        W38506  23.082  12.217   0.653
66181W        W38507   6.436  38.451  10.324
66182W        W38508  20.742  14.169  13.642
66183W        W38509  16.064  30.123  11.681
66184W        W38510  17.468  41.493  11.475
66185W        W38511  19.186  14.291  12.456
66186W        W38512  33.610   0.259   0.294
66187W        W38513  34.972   9.832   0.125
66188W        W38514  40.299  40.458  11.245
66189W        W38515  30.279  25.276  14.431
66190W        W38516  19.691   0.843  14.371
66191W        W38517   2.529  10.459   0.809
66192W        W38518  39.752  44.773  10.716
66193W        W38519  13.599  20.298  14.980
66194W        W38520  20.268  25.792  10.828
66195W        W38521  42.812  15.575  13.042
66196W        W38522  22.567  24.114  14.453
66197W        W38523  24.259   4.372   3.078
66198W        W38524  25.034  29.123   2.916
66199W        W38525  31.015  14.440   1.403
66200W        W38526   1.785  10.162  11.092
66201W        W38527   2.170  13.525   2.345
66202W        W38528  12.736   2.685   0.677
66203W        W38529   7.440  10.297   0.298
66204W        W38530  15.713  11.209   2.663
66205W        W38531  19.776  23.625  11.626
66206W        W38532  37.629  35.254   3.133
66207W        W38533   7.952  42.763   1.324
66208W        W38534   9.581   9.421   2.967
66209W        W38535  16.306   5.940  12.903
66210W        W38536  40.805   6.663   3.261
66211W        W38537   6.862   6.665  12.682
66212W        W38538  11.839  27.928   4.956
66213W        W38539  31.744  15.721   4.526
66214W        W38540  13.270  14.921  14.959
66215W        W38541  34.888   3.472   2.261
66216W        W38542  42.319  34.049   2.661
66217W        W38543  37.491  12.204  10.047
66218W        W38544   0.091  10.246   2.763
66219W        W38545  25.181  21.793   2.306
66220W        W38546  32.262  14.229  10.515
66221W        W38547  26.130   1.671  14.246
66222W        W38548  31.524   7.367   0.244
66223W        W38549  20.166  10.097   0.406
66224W        W38550  38.472  32.597   2.759
66225W        W38551  22.931   1.902  11.159
66226W        W38552  43.794  30.565   3.094
66227W        W38553  17.591  38.307  12.978
66228W        W38554  20.238  15.958   5.084
66229W        W38555   3.897  31.074  11.959
66230W        W38556  14.892  38.100  14.886
66231W        W38557  19.012  20.784   0.009
66232W        W38558   2.815   1.454   3.245
66233W        W38559  41.870  34.704  12.984
66234W        W38560  42.566  32.134   4.315
66235W        W38561  36.453  12.641   1.314
66236W        W38562  29.626   7.382  11.099
66237W        W38563  12.574  35.027   4.900
66238W        W38564  27.616  27.710   3.155
66239W        W38565   2.089  10.296   3.614
66240W        W38566  37.875  37.433   2.490
66241W        W38567  10.315  18.717   1.816
66242W        W38568  25.725   4.336  13.998
66243W        W38569  30.414  32.679   0.015
66244W        W38570   3.440  37.834  14.663
66245W        W38571   0.312  12.061   1.700
66246W        W38572  31.943  12.537   1.069
66247W        W38573  11.893  30.013   4.594
66248W        W38574  44.439  12.290   0.228
66249W        W38575  20.775  10.957  14.066
66250W        W38576  40.983  31.956   1.023
66251W        W38577   3.921   2.807   4.548
66252W        W38578  29.104   2.517   0.755
66253W        W38579  15.049  41.778   0.705
66254W        W38580  16.230  16.021   1.698
66255W        W38581  39.031   2.393  12.901
66256W        W38582  34.096   7.857   1.146
66257W        W38583  41.143  30.555   1.278
66258W        W38584  33.834  19.109  13.600
66259W        W38585  41.119  43.760   2.287
66260W        W38586  27.408  18.236  12.338
66261W        W38587  33.570   1.355  12.568
66262W        W38588  21.661   5.166   0.449
66263W        W38589  38.564  32.689   4.215
66264W        W38590  43.322  33.935  11.431
66265W        W38591  35.870   3.177   0.439
66266W        W38592  12.319   0.987   0.456
66267W        W38593   0.313  26.243  14.811
66268W        W38594  41.503  10.934   3.177
66269W        W38595  15.030  44.336   2.664
66270W        W38596  22.186   7.479   2.712
66271W        W38597  13.597  39.583  12.946
66272W        W38598  15.280  26.473   1.867
66273W        W38599   0.223   8.236  12.597
66274W        W38600  35.966   5.262  11.219
66275W        W38601  39.455  10.043  13.499
66276W        W38602  10.205  16.657  12.317
66277W        W38603  36.491  16.748  12.772
66278W        W38604  38.774  31.559   5.061
66279W        W38605  22.595   0.445  14.367
66280W        W38606  23.291  33.078  13.440
66281W        W38607   2.052  19.821  12.897
66282W        W38608   9.963  39.771  12.429
66283W        W38609   5.431   8.860   3.585
66284W        W38610  16.241  18.740   4.372
66285W        W38611  44.003  30.494   1.247
66286W        W38612  41.683   1.887  14.092
66287W        W38613  37.535  14.431   3.646
66288W        W38614  31.014  11.095   4.453
66289W        W38615  21.617  42.518   1.808
66290W        W38616  32.614   4.873   0.398
66291W        W38617  39.302  40.910   4.680
66292W        W38618  10.916   5.752   2.041
66293W        W38619  32.557  23.197  10.915
66294W        W38620  35.452  18.988   2.704
66295W        W38621  43.432  18.671  13.812
66296W        W38622   4.517  30.054  12.597
66297W        W38623  32.733  37.628  10.215
66298W        W38624  41.792  16.754   0.637
66299W        W38625  16.503  12.746  12.614
66300W        W38626  36.016  38.993   4.241
66301W        W38627  35.854  32.360   3.250
66302W        W38628  24.604  35.405   4.214
66303W        W38629  37.503  17.175   0.735
66304W        W38630  16.757  13.713   3.704
66305W        W38631  39.989  10.585   2.238
66306W        W38632  10.853  30.021  12.392
66307W        W38633  31.138  33.510  12.478
66308W        W38634  18.225  27.326  11.629
66309W        W38635  18.064  26.811   3.260
66310W        W38636  34.667  32.874   5.182
66311W        W38637  31.904  44.870   2.542
66312W        W38638  16.649  18.148   0.008
66313W        W38639  15.558  27.924   2.309
66314W        W38640  20.050  16.339   2.778
66315W        W38641  37.721  31.056   4.607
66316W        W38642  23.681  20.573  10.764
66317W        W38643  31.633  12.561   3.228
66318W        W38644   3.190  20.138  11.068
66319W        W38645  20.609  26.023  12.383
66320W        W38646  32.454  37.663  13.061
66321W        W38647   4.507  12.617   1.956
66322W        W38648  40.463  39.413  10.444
66323W        W38649  16.825  39.507  11.407
66324W        W38650  29.597  22.736   4.154
66325W        W38651  34.039   1.352   2.232
66326W        W38652  27.955  29.988   4.836
66327W        W38653   4.212  29.750   2.340
66328W        W38654  21.297  10.298  12.387
66329W        W38655  22.305  34.860  14.076
66330W        W38656  44.540   7.163  14.847
66331W        W38657  21.543  14.740  14.773
66332W        W38658  37.869  38.064   0.714
66333W        W38659  36.540  16.303  11.446
66334W        W38660  30.595  35.548  14.712
66335W        W38661  37.780  19.532   5.122
66336W        W38662  30.726  12.824  11.112
66337W        W38663   5.475  41.577   3.265
66338W        W38664  37.040   1.789   4.808
66339W        W38665   3.233  26.217  14.779
66340W        W38666  12.120  18.085  14.903
66341W        W38667  43.407  36.899  14.174
66342W        W38668  27.227  43.457  12.947
66343W        W38669  34.091  21.248  12.920
66344W        W38670  40.967   9.398  11.584
66345W        W38671  11.966  39.500   2.883
66346W        W38672  18.974  30.942   4.190
66347W        W38673  37.951   8.056   3.477
66348W        W38674  39.974  13.359   0.850
66349W        W38675  11.004  10.154  12.455
66350W        W38676   2.840   9.962   3.954
66351W        W38677  34.006  25.615  11.227
66352W        W38678   0.735  26.720   0.478
66353W        W38679  42.251  41.772   4.770
66354W        W38680  27.697  36.899  11.387
66355W        W38681   6.968  10.152  12.854
66356W        W38682  21.572  38.095   4.125
66357W        W38683  13.085  41.805  12.520
66358W        W38684  12.736  25.513  12.019
66359W        W38685  27.161  42.805  10.755
66360W        W38686  16.437  12.190  13.595
66361W        W38687  12.978  39.296   0.710
66362W        W38688  16.152  34.321  12.916
66363W        W38689  14.339  13.251  14.279
66364W        W38690  14.106  10.611   3.704
66365W        W38691  18.089  12.281   4.863
66366W        W38692  30.620   1.458   2.302
66367W        W38693  17.041   2.634  14.511
66368W        W38694  17.575  10.773   1.970
66369W        W38695  36.021  12.104  11.632
66370W        W38696  27.452  30.538   1.309
66371W        W38697   1.917   1.353   4.159
66372W        W38698   3.008  18.733  11.281
66373W        W38699  13.067  11.204  12.859
66374W        W38700  31.538   8.984   0.945
66375W        W38701  29.411  15.629  14.337
66376W        W38702  37.734  37.716  12.870
66377W        W38703  10.630  37.852  12.915
66378W        W38704   8.453  17.169   0.031
66379W        W38705   5.395  17.652   3.206
66380W        W38706   9.736  39.321   0.817
66381W        W38707   4.710   4.902  14.452
66382W        W38708   5.408   9.008  13.165
66383W        W38709  21.341  35.429  14.036
66384W        W38710  24.362  26.049  14.963
66385W        W38711  26.589  32.664  12.486
66386W        W38712  10.102  21.912   1.158
66387W        W38713  42.392   7.153   0.313
66388W        W38714   7.008  39.360   2.856
66389W        W38715  26.676  37.495  12.350
66390W        W38716  11.966  35.081   4.083
66391W        W38717   2.395  33.437   0.357
66392W        W38718  27.891   3.703  14.794
66393W        W38719   8.747  39.787  11.618
66394W        W38720  42.485   1.778  12.067
66395W        W38721  16.603  37.942  14.499
66396W        W38722  28.149   3.834   0.870
66397W        W38723  37.609  14.345  14.859
66398W        W38724   0.026  22.431  11.057
66399W        W38725  28.656  40.324   2.214
66400W        W38726  20.942  42.883  12.427
66401W        W38727  11.190  37.489   2.707
66402W        W38728  16.683  17.820  13.157
66403W        W38729   4.245  16.296  13.490
66404W        W38730   3.330  29.390  10.690
66405W        W38731   7.293   0.287   4.132
66406W        W38732  42.092   2.270  12.915
66407W        W38733  34.209  40.808  12.910
66408W        W38734   1.552  43.946   4.132
66409W        W38735  43.780  35.858  11.196
66410W        W38736  30.168  35.831  14.920
66411W        W38737  26.799  42.274  13.635
66412W        W38738  40.460  26.695   4.676
66413W        W38739  20.972  38.656   4.763
66414W        W38740  39.845  41.406  12.357
66415W        W38741  38.632  27.106  12.836
66416W        W38742  40.000  27.181   2.353
66417W        W38743  43.573  26.487  13.066
66418W        W38744   5.961  11.819  12.477
66419W        W38745  41.297  36.961  12.026
66420W        W38746   0.459  33.410  10.355
66421W        W38747  14.207  42.864   3.113
66422W        W38748  26.239   7.887  11.399
66423W        W38749  15.163  40.193   2.795
66424W        W38750  14.317   9.618  11.561
66425W        W38751  22.653  40.373   0.501
66426W        W38752   9.422   6.117  13.538
66427W        W38753  34.380  15.028   4.109
66428W        W38754  40.945  14.606  13.851
66429W        W38755  32.053   1.900   0.264
66430W        W38756  10.760  11.882   2.904
66431W        W38757  26.597  41.845   4.260
66432W        W38758   1.183  38.534   0.409
66433W        W38759   7.450  40.569  11.126
66434W        W38760  37.641  11.818   9.728
66435W        W38761  31.086  42.010  13.451
66436W        W38762  27.751  17.719   2.169
66437W        W38763  24.484  19.513   1.127
66438W        W38764  43.843  27.599   1.495
66439W        W38765  43.716  37.364   4.612
66440W        W38766  31.666   5.299   2.174
66441W        W38767   6.936  28.033  13.210
66442W        W38768  42.540  36.294  10.883
66443W        W38769  37.835  29.462   3.123
66444W        W38770  27.732  27.702  14.774
66445W        W38771  36.576  11.665  14.485
66446W        W38772  14.727  35.364   3.306
66447W        W38773  35.058   4.829  10.754
66448W        W38774  40.307  29.945   4.630
66449W        W38775  31.606  18.146  14.614
66450W        W38776  35.570  17.270   2.216
66451W        W38777   8.331  12.793  13.407
66452W        W38778  36.585   5.226   3.726
66453W        W38779  22.125  12.180   0.050
66454W        W38780  22.552  12.656  10.566
66455W        W38781  21.493  35.225  12.837
66456W        W38782   9.460  43.523  14.758
66457W        W38783  19.488  29.113  13.153
66458W        W38784  39.535  43.295   0.590
66459W        W38785   1.883   4.312   1.189
66460W        W38786  24.778  23.836  13.327
66461W        W38787  28.098  30.885   0.766
66462W        W38788  20.036  35.441  13.487
66463W        W38789   8.817  23.443   1.716
66464W        W38790  38.884  30.484  12.034
66465W        W38791  16.586  40.037  14.494
66466W        W38792  23.129  36.023  14.760
66467W        W38793  21.797  22.491   2.253
66468W        W38794  28.144  26.300  10.789
66469W        W38795  39.076  11.671   3.255
66470W        W38796  36.420   1.293   0.658
66471W        W38797  35.625  17.677   1.862
66472W        W38798   5.807  24.471  12.092
66473W        W38799  34.122  39.046   0.735
66474W        W38800  34.551  23.543   3.569
66475W        W38801  30.033  16.785  13.054
66476W        W38802  28.113  15.097   4.581
66477W        W38803  13.951  26.136   5.540
66478W        W38804   6.955  43.287   1.448
66479W        W38805  25.380  26.131  10.869
66480W        W38806   5.378  18.875  14.890
66481W        W38807  20.305  41.291  11.129
66482W        W38808   7.653  26.655  12.594
66483W        W38809  32.459  38.368   2.367
66484W        W38810   9.737  13.144   1.720
66485W        W38811  12.106  43.789  14.216
66486W        W38812  44.745   8.694   3.316
66487W        W38813  37.140   4.811  12.459
66488W        W38814  41.571  22.701   3.758
66489W        W38815  43.881   5.862  14.842
66490W        W38816  26.939  21.663  12.909
66491W        W38817  14.696  31.018  13.002
66492W        W38818  14.822  38.753   0.367
66493W        W38819  43.303  21.176   0.707
66494W        W38820   2.931  14.275   2.825
66495W        W38821  36.015  17.710   3.636
66496W        W38822  12.211  25.394   2.782
66497W        W38823   0.374  39.983  14.592
66498W        W38824  40.589  31.869   3.779
66499W        W38825  43.732  20.597  12.065
66500W        W38826  26.784  34.392  13.107
66501W        W38827  14.803  25.691   5.614
66502W        W38828  35.165  24.989  11.651
66503W        W38829  30.912  23.298   3.165
66504W        W38830  25.986   9.534  14.584
66505W        W38831  31.060  43.256   0.307
66506W        W38832  25.903  27.539  12.375
66507W        W38833  42.316  39.821   0.296
66508W        W38834  21.534  17.539  14.429
66509W        W38835  19.302  25.017  13.836
66510W        W38836  32.545  42.905   2.640
66511W        W38837  27.440   1.059   2.436
66512W        W38838   5.946  37.685   4.173
66513W        W38839  26.973  18.558   2.178
66514W        W38840  30.857  38.271  14.478
66515W        W38841  30.189  23.949  12.399
66516W        W38842  38.405  30.087  14.476
66517W        W38843  13.454  14.900  11.640
66518W        W38844  40.759  44.409   3.859
66519W        W38845  43.746  25.137  13.426
66520W        W38846  29.432  10.165  13.539
66521W        W38847  30.242   8.394  13.474
66522W        W38848  39.042  11.416  10.472
66523W        W38849  33.698  25.090  12.989
66524W        W38850  27.884  16.879   1.809
66525W        W38851  44.229  43.364   0.980
66526W        W38852   9.816  43.803   3.700
66527W        W38853  29.940   6.031  11.253
66528W        W38854  32.930  25.052  14.386
66529W        W38855   5.338   2.720   0.748
66530W        W38856  32.489  33.483   4.639
66531W        W38857  19.996  30.627   0.667
66532W        W38858  41.473  43.068  10.507
66533W        W38859  24.789  32.154  12.450
66534W        W38860   4.287   9.356  10.888
66535W        W38861  27.220  34.973   2.699
66536W        W38862  22.204  36.261  10.796
66537W        W38863  29.894  44.463   3.174
66538W        W38864  14.390  24.076  12.867
66539W        W38865  33.074  14.803  13.493
66540W        W38866  29.640  39.983   4.769
66541W        W38867  42.769  31.890   0.287
66542W        W38868  25.379  34.684  12.517
66543W        W38869  39.370  36.410  12.839
66544W        W38870  29.111   1.716   4.739
66545W        W38871  20.619   6.236   2.739
66546W        W38872  13.990  24.035   4.999
66547W        W38873  35.409   1.212   1.442
66548W        W38874  19.173  41.120  10.586
66549W        W38875  17.746  16.809  14.523
66550W        W38876  43.483   7.778  14.894
66551W        W38877  18.096  24.436  12.789
66552W        W38878  27.907  30.569   0.398
66553W        W38879  26.423  32.970   4.547
66554W        W38880  18.161  43.451   3.571
66555W        W38881  14.993  43.903  11.614
66556W        W38882  15.268  39.493   0.627
66557W        W38883  19.282  20.731  12.196
66558W        W38884  11.247  36.949   1.469
66559W        W38885   8.265  42.497   0.674
66560W        W38886  32.378  27.504   2.365
66561W        W38887  44.268  19.747   2.175
66562W        W38888  12.590  13.744   1.059
66563W        W38889  44.530   4.895   0.495
66564W        W38890  23.174  19.713  10.676
66565W        W38891  28.106  29.437  11.786
66566W        W38892  35.478  25.744  14.784
66567W        W38893   5.077  42.077   0.459
66568W        W38894  13.747  26.194  12.107
66569W        W38895  10.408  30.958  10.704
66570W        W38896   3.807  41.065  10.513
66571W        W38897  13.552  14.065  11.366
66572W        W38898  27.279  31.565  10.969
66573W        W38899  43.908  29.914   4.399
66574W        W38900   7.686  32.079   2.297
66575W        W38901   6.467  20.117  14.774
66576W        W38902  13.629  36.312  12.981
66577W        W38903  42.924  24.351  11.651
66578W        W38904  25.501  32.417  11.811
66579W        W38905  22.509  40.576  11.493
66580W        W38906   3.931   7.992   2.255
66581W        W38907  17.379  24.639   3.057
66582W        W38908  35.967   2.980  14.948
66583W        W38909  13.279  13.613  13.495
66584W        W38910  18.339  43.394   4.072
66585W        W38911  30.400  43.164  11.650
66586W        W38912  22.516   9.494   2.300
66587W        W38913  42.035   1.859   0.950
66588W        W38914  20.572   7.765   2.391
66589W        W38915  21.499  17.831   0.298
66590W        W38916  22.572  20.135   1.542
66591W        W38917   0.458  21.765   4.946
66592W        W38918   3.896  16.535  13.872
66593W        W38919  35.657   8.163  13.016
66594W        W38920  36.862  34.949  10.682
66595W        W38921  33.382  22.729   0.023
66596W        W38922  37.310  15.780   0.501
66597W        W38923  42.542   8.440  11.038
66598W        W38924  41.533  17.311  11.671
66599W        W38925  12.228  42.477  14.241
66600W        W38926   2.259   5.269  14.018
66601W        W38927  21.747  19.727  14.171
66602W        W38928  35.429   4.059  12.943
66603W        W38929  44.242  42.406   3.094
66604W        W38930  11.852  44.956  12.875
66605W        W38931  32.079  13.713   3.752
66606W        W38932   5.641   7.708   0.482
66607W        W38933  40.762  39.427  13.628
66608W        W38934  25.649  31.431   4.819
66609W        W38935  10.436  34.353   1.884
66610W        W38936  17.361  34.342  11.673
66611W        W38937  14.799  32.500  11.659
66612W        W38938  11.936   6.320   0.676
66613W        W38939  23.318  41.806   3.170
66614W        W38940  30.870  12.141   3.624
66615W        W38941  26.991  38.903  13.875
66616W        W38942   5.044  43.556  12.076
66617W        W38943  24.207  32.999   3.322
66618W        W38944  30.142  14.106   3.678
66619W        W38945   7.767   8.091   3.239
66620W        W38946  18.104   7.009   0.411
66621W        W38947  17.594  19.607   2.823
66622W        W38948  14.724  41.811   1.910
66623W        W38949  34.867  29.244   4.742
66624W        W38950   1.502  26.781   0.788
66625W        W38951  44.814  16.666   0.727
66626W        W38952   6.303  15.709   1.274
66627W        W38953  29.926  10.299  14.950
66628W        W38954  42.324  15.981   0.873
66629W        W38955  19.428   4.442   0.281
66630W        W38956  23.679  28.804  13.286
66631W        W38957   0.367  21.471  11.166
66632W        W38958  20.251  28.857  10.327
66633W        W38959   4.223  36.111   0.917
66634W        W38960  37.378  33.476  13.342
66635W        W38961  33.433  29.995  13.966
66636W        W38962  27.189  28.046  11.232
66637W        W38963  31.545  31.931  11.695
66638W        W38964   0.226  36.518   4.360
66639W        W38965   0.416  41.042   2.761
66640W        W38966  40.946  33.583   1.369
66641W        W38967  37.526   6.362  13.989
66642W        W38968  23.694  38.495   0.916
66643W        W38969   0.283  32.600  14.490
66644W        W38970   4.921  43.778  13.868
66645W        W38971   8.348   1.754   1.360
66646W        W38972  39.844  23.264   3.586
66647W        W38973  35.945  35.480   2.379
66648W        W38974   8.928  32.264  13.397
66649W        W38975   2.326  36.775   2.185
66650W        W38976  40.925  14.033  12.399
66651W        W38977  19.161  22.488   4.186
66652W        W38978   5.317  15.711  11.215
66653W        W38979   1.817   1.736   3.816
66654W        W38980   7.666  23.681   3.577
66655W        W38981   3.078  19.321   0.374
66656W        W38982  29.490  32.591   1.730
66657W        W38983  37.400  21.974  12.528
66658W        W38984  26.960  15.089   2.207
66659W        W38985  43.344  32.594  14.110
66660W        W38986  37.828   4.901   0.163
66661W        W38987  14.858  16.360   4.169
66662W        W38988  11.710  39.472   4.569
66663W        W38989  30.096  21.331   4.640
66664W        W38990  29.812  34.378  11.626
66665W        W38991  16.476  38.021  12.688
66666W        W38992  21.724  37.850   0.454
66667W        W38993  15.853  26.814  11.440
66668W        W38994  42.956  36.379  11.840
66669W        W38995  30.674  39.896   4.536
66670W        W38996  39.595  33.870   3.230
66671W        W38997  43.569  16.512   4.243
66672W        W38998  38.341  43.082   1.752
66673W        W38999  43.531   9.312   1.779
66674W        W39000   5.434  34.554   2.942
66675W        W39001  20.717  12.794  14.842
66676W        W39002  33.345  29.145   2.822
66677W        W39003  39.246  42.014   1.897
66678W        W39004  14.058  37.457   3.927
66679W        W39005  35.568  13.634  12.680
66680W        W39006   7.074   7.337   2.254
66681W        W39007   7.725  44.153   2.679
66682W        W39008  41.741  26.499   4.318
66683W        W39009  27.669  14.162   0.720
66684W        W39010  24.297  22.206   4.313
66685W        W39011  11.314  38.978  13.082
66686W        W39012  23.113  33.159  12.486
66687W        W39013  21.975   1.501  13.820
66688W        W39014  10.273   4.493   1.049
66689W        W39015  30.883  33.077   3.563
66690W        W39016  28.704   6.330  10.084
66691W        W39017  35.841  39.960  14.313
66692W        W39018   3.269  14.347   3.745
66693W        W39019  36.587  12.540  14.023
66694W        W39020   8.217   1.449   0.934
66695W        W39021  30.615  39.312  13.830
66696W        W39022  30.885  38.616  13.497
66697W        W39023  17.798   1.714   0.008
66698W        W39024  26.276  13.600  14.547
66699W        W39025  32.078  14.321   1.211
66700W        W39026  33.695  36.357  10.549
66701W        W39027  44.276  41.132  11.660
66702W        W39028  10.577  18.549   0.883
66703W        W39029   1.953  12.966  12.138
66704W        W39030  21.028   5.197  14.955
66705W        W39031   6.420   1.189   2.536
66706W        W39032  17.590  18.598   1.197
66707W        W39033  26.574  31.950  11.125
66708W        W39034  25.175  12.904  13.058
66709W        W39035   6.696   9.729  11.605
66710W        W39036  22.073  15.319   4.226
66711W        W39037  15.484  34.049  12.610
66712W        W39038  39.587  34.967  12.507
66713W        W39039  13.132  43.702  12.438
66714W        W39040  17.570  18.650  11.458
66715W        W39041  29.293  43.036   3.323
66716W        W39042  26.644   6.289  12.899
66717W        W39043  12.883  39.760  10.466
66718W        W39044   4.259   2.937  14.794
66719W        W39045  26.926  28.046  12.998
66720W        W39046  40.170  23.178  13.320
66721W        W39047  23.484  24.956   4.113
66722W        W39048   6.906   9.190  12.980
66723W        W39049  34.140  36.936  11.080
66724W        W39050  26.066  11.978   3.115
66725W        W39051   0.365  44.912   2.108
66726W        W39052  35.918   9.453   4.540
66727W        W39053  36.873  37.071  11.223
66728W        W39054  32.501  15.046  12.395
66729W        W39055  20.452   4.686  11.988
66730W        W39056  41.579  36.522  12.127
66731W        W39057  30.032  27.235   4.262
66732W        W39058  28.960  21.778  12.427
66733W        W39059   8.803  10.281  13.838
66734W        W39060  12.747  28.241  13.336
66735W        W39061   8.144   2.370  13.927
66736W        W39062  20.566  18.599   0.234
66737W        W39063  25.396  27.520  12.385
66738W        W39064  44.462  43.865   4.646
66739W        W39065  29.350  10.380   0.738
66740W        W39066  16.469   7.733  13.494
66741W        W39067   7.275  12.170  10.741
66742W        W39068  28.988  14.767   2.806
66743W        W39069   1.447  10.090  13.421
66744W        W39070  38.786   4.894  11.687
66745W        W39071  38.548  29.701  13.426
66746W        W39072  14.920  12.633   4.690
66747W        W39073  43.963   7.477  10.786
66748W        W39074   9.152   7.965  12.906
66749W        W39075  17.296  40.087  13.891
66750W        W39076   7.116  23.061  13.356
66751W        W39077  17.700  26.145   0.877
66752W        W39078  17.306  12.750   4.580
66753W        W39079  43.004  11.816   0.343
66754W        W39080   3.414  15.605   4.201
66755W        W39081   7.621   9.721  14.898
66756W        W39082  35.836   5.374   4.401
66757W        W39083  23.914  25.671  11.949
66758W        W39084  19.619  17.802   2.814
66759W        W39085  25.278  18.488   2.951
66760W        W39086  10.365  14.020  14.728
66761W        W39087  22.216  28.222  12.431
66762W        W39088   1.003  41.386   1.871
66763W        W39089  25.735  32.059   2.397
66764W        W39090   2.896  21.325   0.478
66765W        W39091   9.367  16.808  11.402
66766W        W39092  11.321  44.505   1.275
66767W        W39093  40.467  22.009   0.771
66768W        W39094  34.967  20.200   3.572
66769W        W39095  13.336  15.709  11.951
66770W        W39096  34.894  23.461   3.108
66771W        W39097  28.337  21.529   4.075
66772W        W39098  43.885   1.522   4.041
66773W        W39099  40.136  34.889   4.183
66774W        W39100   3.971  12.599   5.079
66775W        W39101  35.047  30.079  14.000
66776W        W39102   2.190  28.074  13.563
66777W        W39103   3.115  35.992   3.594
66778W        W39104   6.727  24.824   0.361
66779W        W39105  14.051  29.083  12.040
66780W        W39106  33.393  31.932  12.505
66781W        W39107   0.316  30.348   2.300
66782W        W39108  21.225  30.211  10.720
66783W        W39109  26.640  31.849  14.102
66784W        W39110  22.702  42.582   0.810
66785W        W39111  25.142   9.258   0.961
66786W        W39112  37.385  41.505   1.192
66787W        W39113  18.194  16.417   0.737
66788W        W39114   0.362  23.205  11.923
66789W        W39115  32.340  39.448   1.487
66790W        W39116  27.984   7.445   2.188
66791W        W39117  17.018  26.409   0.280
66792W        W39118  36.936   5.246  13.000
66793W        W39119  10.681   5.783   4.495
66794W        W39120  27.933  35.560   0.303
66795W        W39121   6.134  17.845  13.571
66796W        W39122  16.210  11.065  12.547
66797W        W39123  15.791  31.844   0.833
66798W        W39124   8.118  15.635   2.158
66799W        W39125  40.970  44.935   1.259
66800W        W39126   7.391  11.144  14.047
66801W        W39127  34.348   6.047   3.284
66802W        W39128  25.435  17.662  12.734
66803W        W39129  11.694  25.359   4.959
66804W        W39130  16.834  40.954   2.904
66805W        W39131  16.297  29.691   1.244
66806W        W39132   8.817  29.113   9.804
66807W        W39133  13.092   4.758  12.841
66808W        W39134  30.083  15.710  12.661
66809W        W39135  20.894   0.926   5.077
66810W        W39136  41.421  31.149  12.820
66811W        W39137  22.739  17.223  14.833
66812W        W39138  25.591  10.113   1.481
66813W        W39139  40.584  14.611  13.469
66814W        W39140  23.179  33.457  14.991
66815W        W39141   9.715  32.519   2.434
66816W        W39142  38.592  44.420   1.555
66817W        W39143  15.647  21.960   4.241
66818W        W39144  10.777  40.831   2.841
66819W        W39145  43.420   4.355  13.584
66820W        W39146   0.180  14.641  11.554
66821W        W39147  17.802  40.195  13.861
66822W        W39148   1.351   2.753  13.564
66823W        W39149   0.709  35.652   4.120
66824W        W39150  29.883  26.560   2.161
66825W        W39151  27.101  12.369   2.240
66826W        W39152  41.947  35.371   0.598
66827W        W39153  19.506  20.640   2.819
66828W        W39154   0.016   6.263  13.822
66829W        W39155   3.564  21.766  11.888
66830W        W39156  43.493  14.085  14.593
66831W        W39157   9.846  26.218   0.423
66832W        W39158   2.183  29.697  12.659
66833W        W39159  34.569  26.132   0.708
66834W        W39160  36.038   0.830  13.863
66835W        W39161   0.725   3.436   1.919
66836W        W39162  37.783  36.532  12.465
66837W        W39163  19.756  10.837   1.141
66838W        W39164   3.965  33.085   3.302
66839W        W39165  43.917   3.505  13.432
66840W        W39166  15.875  16.750  12.625
66841W        W39167  44.867  40.817  14.865
66842W        W39168  40.232  42.812   4.524
66843W        W39169   4.712  37.446   1.817
66844W        W39170  18.089  11.864  11.925
66845W        W39171  21.937   7.353  14.266
66846W        W39172   4.355  43.645  13.892
66847W        W39173   8.873  33.765  13.108
66848W        W39174  44.298   5.272   4.030
66849W        W39175  13.753  21.552  13.960
66850W        W39176  26.219  39.349   1.250
66851W        W39177  29.805  36.990  12.289
66852W        W39178   6.664  25.619  13.687
66853W        W39179  23.962   3.360   4.536
66854W        W39180   0.707  18.056  13.560
66855W        W39181  20.909  18.657   2.231
66856W        W39182  16.063  31.915  14.576
66857W        W39183   9.314   5.419  12.443
66858W        W39184   0.027  19.343  13.716
66859W        W39185   5.179  44.335  13.414
66860W        W39186  33.480  37.889   4.199
66861W        W39187  28.345  17.016  12.999
66862W        W39188  10.536  41.682  10.988
66863W        W39189  22.502  39.026  11.560
66864W        W39190  24.249  43.840   2.218
66865W        W39191  17.800  28.018  13.346
66866W        W39192   5.189   2.864  14.268
66867W        W39193   4.916  19.104   2.869
66868W        W39194  12.436  31.950  11.897
66869W        W39195  14.925  15.724   3.401
66870W        W39196  39.352  20.140  10.689
66871W        W39197  34.293  34.532  12.930
66872W        W39198  44.344  35.038  13.877
66873W        W39199   6.666  15.605  14.735
66874W        W39200  44.356   6.750  12.610
66875W        W39201  35.588  38.784   0.787
66876W        W39202  37.103  15.522  11.908
66877W        W39203  15.730  35.371   3.517
66878W        W39204   8.943   0.751   2.754
66879W        W39205  37.490  32.033   0.612
66880W        W39206  28.709   0.294   2.149
66881W        W39207  13.212  20.011   4.579
66882W        W39208  40.910   1.356   1.477
66883W        W39209  19.812  16.606   4.117
66884W        W39210  12.307   2.939   0.844
66885W        W39211  13.842  24.927  12.836
66886W        W39212  36.484  34.123  10.985
66887W        W39213  43.528   5.632  13.927
66888W        W39214  15.212  32.598  10.818
66889W        W39215  28.414   8.565  11.650
66890W        W39216  31.369  28.461   0.246
66891W        W39217  38.747  18.552  13.534
66892W        W39218  26.183  34.875   2.815
66893W        W39219  38.113  27.007   1.754
66894W        W39220  14.090   1.491  13.938
66895W        W39221  27.098   7.165  14.360
66896W        W39222   2.227  33.972  11.360
66897W        W39223  37.893   6.392   1.455
66898W        W39224  30.222   8.083  14.961
66899W        W39225  43.793  13.384   3.196
66900W        W39226  28.502  30.716  14.767
66901W        W39227  20.189  38.161  14.654
66902W        W39228  35.307  16.739  12.103
66903W        W39229   4.482  37.188  12.989
66904W        W39230  34.515   2.204   3.973
66905W        W39231  11.268  25.430   4.297
66906W        W39232  32.346  19.626   5.056
66907W        W39233  18.786  34.866  13.389
66908W        W39234  10.433  19.845  14.745
66909W        W39235  17.746  19.549  11.182
66910W        W39236  23.320  12.664  14.055
66911W        W39237   3.795  40.828  11.822
66912W        W39238  33.968  17.322   2.442
66913W        W39239   9.318  14.361   0.323
66914W        W39240  21.029  37.008   3.412
66915W        W39241  26.292   0.973   4.688
66916W        W39242  36.318   6.465  11.076
66917W        W39243  44.799  30.095   4.399
66918W        W39244   3.233  44.486  13.996
66919W        W39245  29.529  23.116   2.163
66920W        W39246  22.819  11.115  14.255
66921W        W39247  24.016  32.930  12.956
66922W        W39248   5.432  31.876   4.194
66923W        W39249  27.445  13.895   3.297
66924W        W39250  20.358   8.227  14.528
66925W        W39251   0.778  44.914  13.375
66926W        W39252  10.625  13.346   4.320
66927W        W39253  41.287  37.275   2.035
66928W        W39254  24.513  41.171  10.431
66929W        W39255  15.255  10.735  14.434
66930W        W39256  15.153  38.851  13.002
66931W        W39257  11.590   0.357  10.506
66932W        W39258  39.525  20.130   1.700
66933W        W39259  40.071  27.995  11.280
66934W        W39260  44.335  18.758   2.738
66935W        W39261  11.234  14.312  14.779
66936W        W39262   4.726  42.579  10.568
66937W        W39263  35.513  19.295  12.121
66938W        W39264  25.474  12.361   3.812
66939W        W39265  30.112  10.649   0.305
66940W        W39266   1.176   8.334  12.160
66941W        W39267  43.012   6.275   4.675
66942W        W39268  26.921  39.828  11.032
66943W        W39269  31.744  44.907  13.388
66944W        W39270  20.954  20.775  13.100
66945W        W39271  22.058  16.947   3.192
66946W        W39272  17.687  33.541  14.011
66947W        W39273   4.868  14.568  11.679
66948W        W39274   5.460  44.446   2.403
66949W        W39275  37.922   9.853   4.628
66950W        W39276  43.425  40.352  14.638
66951W        W39277  28.588  16.525   4.147
66952W        W39278  23.282  19.189   1.720
66953W        W39279  37.533   3.678   0.409
66954W        W39280  40.854  11.733  14.343
66955W        W39281  14.156  34.095   2.422
66956W        W39282  42.581   4.910   3.969
66957W        W39283  14.690  29.071  12.441
66958W        W39284  28.470  39.662  14.855
66959W        W39285  36.534   2.935  11.967
66960W        W39286   0.827  19.554   1.786
66961W        W39287  43.276  13.026  14.513
66962W        W39288  14.591  36.119   2.259
66963W        W39289  21.902  30.633   3.672
66964W        W39290  16.599  28.360   3.595
66965W        W39291  26.849  10.926   1.404
66966W        W39292  32.107  28.122   3.262
66967W        W39293  11.260  15.274   2.625
66968W        W39294  33.136   5.155   3.643
66969W        W39295  24.209  25.378  14.318
66970W        W39296  39.389  12.628   1.875
66971W        W39297  20.474  17.532  13.663
66972W        W39298  31.865  18.845  13.364
66973W        W39299  34.955  11.879   2.218
66974W        W39300   9.528  33.048   1.192
66975W        W39301  34.351  12.401   3.773
66976W        W39302  33.628  21.757  14.815
66977W        W39303   1.866  32.165   3.708
66978W        W39304   2.428  11.866   0.605
66979W        W39305  33.493  44.546   2.859
66980W        W39306  17.758  34.061  14.107
66981W        W39307  40.747  29.201   0.710
66982W        W39308  16.749  25.272   2.648
66983W        W39309   9.245  35.652   1.861
66984W        W39310  12.024  29.286   3.963
66985W        W39311   0.441  18.090  14.502
66986W        W39312  31.824  21.841  11.079
66987W        W39313  34.498  40.012  14.319
66988W        W39314  28.886  39.885   4.495
66989W        W39315  33.811  29.639  11.477
66990W        W39316   6.859  38.884   1.971
66991W        W39317  18.570  17.683   4.680
66992W        W39318  12.737   9.006   3.220
66993W        W39319  10.897  40.325   3.904
66994W        W39320   7.861  34.518  13.719
66995W        W39321  24.138  38.003   0.852
66996W        W39322   3.202  11.285  11.595
66997W        W39323   6.878  17.158   1.366
66998W        W39324  28.584  10.384  13.037
66999W        W39325  35.368  14.115  13.929
67000W        W39326  40.525  14.684  14.442
67001W        W39327  19.670   6.132  13.590
67002W        W39328  22.081  43.373   0.243
67003W        W39329  24.282  32.448  12.952
67004W        W39330  31.506  16.802   0.737
67005W        W39331  21.703  12.582  12.506
67006W        W39332  19.597   1.735   2.302
67007W        W39333  35.034  25.524  14.879
67008W        W39334  17.908  30.121  11.647
67009W        W39335  27.187  10.193   1.681
67010W        W39336   6.616   3.906   0.766
67011W        W39337  23.726  35.314  13.070
67012W        W39338  43.748  24.241   0.006
67013W        W39339   5.635  37.415  12.152
67014W        W39340  17.808  30.597   3.748
67015W        W39341  13.742   1.053   3.357
67016W        W39342  27.660  21.405  12.070
67017W        W39343  12.217  26.046   1.432
67018W        W39344  24.952  40.959  14.832
67019W        W39345  40.893  13.064  12.671
67020W        W39346   2.077   8.748  14.013
67021W        W39347   0.914  42.646   4.562
67022W        W39348   7.003   6.182  12.529
67023W        W39349  25.264  24.984  14.367
67024W        W39350  41.556   3.526   1.321
67025W        W39351   7.648   4.696  14.512
67026W        W39352  35.131  31.375   1.864
67027W        W39353  27.564  20.201  11.595
67028W        W39354  37.369   4.740  11.988
67029W        W39355  19.513  24.226  12.923
67030W        W39356  37.090   8.979  10.654
67031W        W39357  30.157  28.730   1.721
67032W        W39358  10.171   4.157   2.861
67033W        W39359   0.424  40.156   1.018
67034W        W39360  35.627   3.314  11.584
67035W        W39361  40.031  34.850   1.705
67036W        W39362  16.586  29.926  12.521
67037W        W39363  34.597  41.810   2.852
67038W        W39364  27.523  24.758  13.124
67039W        W39365  11.071  18.728   1.020
67040W        W39366  20.943  40.974   3.945
67041W        W39367  42.373   9.548   0.348
67042W        W39368  36.562  38.984   2.904
67043W        W39369  20.732  44.851   1.723
67044W        W39370  36.818  44.547   1.105
67045W        W39371  28.217  31.781  10.680
67046W        W39372  40.573  41.559   2.422
67047W        W39373  30.878   8.323   4.913
67048W        W39374   2.143  35.764   2.346
67049W        W39375  44.052  19.086   1.333
67050W        W39376  38.827  30.673  11.158
67051W        W39377  19.721  37.544   2.424
67052W        W39378  37.171  39.568  11.039
67053W        W39379  13.742  23.751   4.591
67054W        W39380   5.185   2.338   2.690
67055W        W39381   0.536  26.052  11.629
67056W        W39382  22.580   7.902   0.683
67057W        W39383  21.299  41.539  10.459
67058W        W39384  14.070  16.643   4.111
67059W        W39385  41.894   2.749  11.943
67060W        W39386  27.662  33.646   2.388
67061W        W39387  44.042  40.607  12.408
67062W        W39388  34.471   9.394  13.903
67063W        W39389   9.647  39.923   3.621
67064W        W39390   4.428  36.207  12.791
67065W        W39391  11.279  13.888   1.793
67066W        W39392  21.879  11.877  13.933
67067W        W39393  25.433  30.323  13.396
67068W        W39394  35.913  44.789  12.577
67069W        W39395  39.839  30.454  13.095
67070W        W39396  31.566  17.033   1.206
67071W        W39397  14.314  29.169   0.310
67072W        W39398  15.698   4.823   3.272
67073W        W39399  31.180  39.874   0.980
67074W        W39400   7.322  28.126   1.803
67075W        W39401  25.945  37.992  14.483
67076W        W39402  37.971   2.981  12.037
67077W        W39403  43.254  38.129  11.578
67078W        W39404  14.531  24.931  12.701
67079W        W39405  32.662  33.320   0.299
67080W        W39406  21.515  30.095  12.021
67081W        W39407   2.193  33.908   0.416
67082W        W39408  27.020  40.706   3.751
67083W        W39409  38.078  24.098  10.685
67084W        W39410  38.087  19.548  14.017
67085W        W39411  20.567  30.195   4.018
67086W        W39412  23.208  27.536   1.912
67087W        W39413  29.718  32.118   1.848
67088W        W39414  34.799  13.662   3.776
67089W        W39415  28.571  41.597   4.522
67090W        W39416  10.408   2.249  13.449
67091W        W39417  25.450   4.664  13.656
67092W        W39418  13.831  17.528   4.139
67093W        W39419  24.010  44.791   2.598
67094W        W39420  39.313  24.017  12.171
67095W        W39421   2.713  17.252  14.401
67096W        W39422   7.311  30.371   0.167
67097W        W39423   7.602  37.072   2.247
67098W        W39424   8.666  12.153  14.948
67099W        W39425  15.630  21.296   0.881
67100W        W39426  22.731  29.358  11.503
67101W        W39427  22.573  36.438   2.313
67102W        W39428  33.139  29.893   0.030
67103W        W39429  34.041  20.496   2.203
67104W        W39430  17.212  19.044   3.239
67105W        W39431  15.570  14.231  13.923
67106W        W39432  25.037  18.738   3.326
67107W        W39433  24.561  38.318   4.970
67108W        W39434   7.305  22.252   3.441
67109W        W39435  20.741  40.092   4.102
67110W        W39436  27.857  22.737   5.059
67111W        W39437  43.532  10.550   4.172
67112W        W39438  20.527  18.245   3.350
67113W        W39439  43.493  12.100  14.278
67114W        W39440   4.381  12.890   0.379
67115W        W39441  13.795   9.216  13.909
67116W        W39442  33.936  10.196   1.427
67117W        W39443  40.314   1.345   0.264
67118W        W39444  21.849   4.030  12.124
67119W        W39445  37.352  29.174   4.334
67120W        W39446  27.937  11.421   3.576
67121W        W39447  11.059  12.834   1.857
67122W        W39448  16.066  14.208   0.423
67123W        W39449  13.093   2.711  13.348
67124W        W39450  13.125  10.064  11.891
67125W        W39451  41.579   0.788  10.685
67126W        W39452   2.989   4.219  12.888
67127W        W39453  34.880  37.970  13.919
67128W        W39454  33.839  11.996   3.895
67129W        W39455  40.519  17.469   2.817
67130W        W39456  38.985  31.390   0.059
67131W        W39457  15.867   1.700   4.412
67132W        W39458  14.715  12.890  13.360
67133W        W39459   1.820  10.281  13.124
67134W        W39460  24.210  37.990  11.552
67135W        W39461  32.028   8.411   1.676
67136W        W39462   0.429   5.493   4.522
67137W        W39463  19.732   0.451  11.430
67138W        W39464   0.348  24.626   0.861
67139W        W39465  16.912  42.919   0.725
67140W        W39466  43.832  40.516   2.442
67141W        W39467   7.446  39.841  14.810
67142W        W39468  24.084  31.687  12.329
67143W        W39469  42.092  32.351  13.380
67144W        W39470  36.383   4.024  12.346
67145W        W39471  15.597   9.928   0.433
67146W        W39472  19.844  13.659   1.334
67147W        W39473  41.822  28.741  12.228
67148W        W39474  19.123  28.648  12.014
67149W        W39475   2.457  44.374  11.511
67150W        W39476  27.972  18.068  13.773
67151W        W39477  34.628  44.721   1.477
67152W        W39478  19.132  18.751  12.950
67153W        W39479   0.620  27.961  10.164
67154W        W39480   8.803  39.549   2.711
67155W        W39481  22.747  40.567   1.383
67156W        W39482  39.192  36.924   3.172
67157W        W39483  18.792  28.618   0.557
67158W        W39484  37.594  16.318  14.229
67159W        W39485  24.098  33.342   2.397
67160W        W39486  32.807   0.758  11.496
67161W        W39487  37.561  38.510  13.448
67162W        W39488  21.728  27.415  13.448
67163W        W39489  10.133  38.864  10.374
67164W        W39490   0.222  26.100   4.915
67165W        W39491  30.329  28.072  13.378
67166W        W39492  11.261  25.638   2.805
67167W        W39493  44.612  14.839   2.624
67168W        W39494  13.651  23.078  11.494
67169W        W39495  28.747  27.005  13.922
67170W        W39496   6.332  38.492  11.955
67171W        W39497  27.615  27.630   0.680
67172W        W39498  30.182  11.915  12.118
67173W        W39499  33.668  12.191   1.427
67174W        W39500  16.197  12.715   0.962
67175W        W39501  40.614   8.086   1.301
67176W        W39502  23.026  39.898   3.806
67177W        W39503  22.132  18.284   1.240
67178W        W39504   7.358   5.494   3.675
67179W        W39505  24.978  29.853   1.309
67180W        W39506   0.869  41.380   0.550
67181W        W39507  13.732  31.929  11.856
67182W        W39508  25.065  35.278   2.963
67183W        W39509  29.161  16.164  14.993
67184W        W39510   0.924  35.697  12.377
67185W        W39511  21.014  25.828   4.135
67186W        W39512  11.963   8.934  14.985
67187W        W39513   4.682   7.920  11.913
67188W        W39514  21.830  34.724   3.828
67189W        W39515   1.668  12.079  12.006
67190W        W39516  12.345  19.115   0.768
67191W        W39517   2.258   9.358  14.559
67192W        W39518  30.513  40.392   3.439
67193W        W39519   7.863  16.132   4.708
67194W        W39520  16.969  16.300  11.615
67195W        W39521  11.241  19.891   2.722
67196W        W39522   4.826  34.406   4.802
67197W        W39523  37.474  39.586  10.602
67198W        W39524  17.558  17.712  11.438
67199W        W39525  37.381  18.901  13.669
67200W        W39526  25.124  10.902   1.168
67201W        W39527  31.865  16.697  10.821
67202W        W39528  32.974  24.669  13.993
67203W        W39529   8.797  12.362   0.846
67204W        W39530  37.679   3.862  14.388
67205W        W39531  40.571   6.715   2.396
67206W        W39532  11.844  35.323   4.564
67207W        W39533  33.914  37.058   2.853
67208W        W39534  39.558  38.300   1.928
67209W        W39535  24.099   3.078   1.887
67210W        W39536   5.754   7.210   4.167
67211W        W39537   5.868  41.226   4.510
67212W        W39538   7.350   2.226   2.353
67213W        W39539  11.721  30.204   3.303
67214W        W39540  20.730  21.298   1.921
67215W        W39541  29.187  15.813  13.048
67216W        W39542  32.619  20.895   0.116
67217W        W39543  12.776  37.150   1.986
67218W        W39544   9.865  18.540  12.126
67219W        W39545  35.412  39.071  13.442
67220W        W39546   6.227   8.328  10.743
67221W        W39547  19.568  40.817   0.418
67222W        W39548  17.249  17.366   2.609
67223W        W39549  13.420  15.776   4.973
67224W        W39550   4.915   9.929  11.385
67225W        W39551   4.707  39.079  11.164
67226W        W39552  43.269  13.037   9.912
67227W        W39553  28.417  35.817   3.993
67228W        W39554  17.063  24.556   1.752
67229W        W39555   1.921  44.932  14.429
67230W        W39556  27.554  44.787   4.246
67231W        W39557  27.424   3.376  11.836
67232W        W39558   2.901  40.488  13.381
67233W        W39559   6.814  30.232   3.842
67234W        W39560  31.999  38.934  10.682
67235W        W39561  21.283  21.606   2.300
67236W        W39562   0.795  17.197  13.308
67237W        W39563  11.451  28.542  11.584
67238W        W39564  39.821  12.718   4.499
67239W        W39565  29.610  43.311  14.102
67240W        W39566  38.180   7.747   2.183
67241W        W39567  42.382  40.775   0.677
67242W        W39568  20.639  38.306  13.322
67243W        W39569  21.746  11.738  13.446
67244W        W39570  21.438   4.218  12.823
67245W        W39571  36.073  10.722  14.414
67246W        W39572  14.797  17.854   2.346
67247W        W39573  14.000  40.345   1.501
67248W        W39574  19.735  29.507  13.400
67249W        W39575  31.942  40.927   0.248
67250W        W39576  32.099  24.979  11.287
67251W        W39577  20.062   7.001  12.074
67252W        W39578   2.812   8.414  11.477
67253W        W39579  23.035  28.734   2.570
67254W        W39580  11.648  23.042  13.509
67255W        W39581   5.074  40.131  12.956
67256W        W39582  32.555  20.996  12.058
67257W        W39583   4.462   1.705  13.312
67258W        W39584  11.675   7.739   0.336
67259W        W39585  43.314   3.758   2.836
67260W        W39586  44.681  22.057  11.052
67261W        W39587  25.744  15.180   5.482
67262W        W39588   2.398  29.711  10.304
67263W        W39589  33.613  38.272  14.804
67264W        W39590  10.284  42.092  13.547
67265W        W39591  31.496  26.454   4.777
67266W        W39592   7.448  29.674  13.459
67267W        W39593   1.310  36.070  12.444
67268W        W39594  19.634   7.927  10.666
67269W        W39595  28.701  38.447  11.465
67270W        W39596  27.010  43.869  11.115
67271W        W39597   3.001  21.816  10.205
67272W        W39598  17.793  19.257  14.504
67273W        W39599  28.469  30.609  13.632
67274W        W39600  33.953  36.557  13.490
67275W        W39601  11.124  42.358  12.063
67276W        W39602  31.363  32.390   0.935
67277W        W39603  16.447  27.446   0.009
67278W        W39604  27.795   6.380   1.318
67279W        W39605  42.817  43.903  11.941
67280W        W39606   5.225  19.276   1.244
67281W        W39607   8.217  34.187  11.622
67282W        W39608  31.278  35.188  13.989
67283W        W39609  37.991  32.154   0.750
67284W        W39610  22.547  38.942  13.214
67285W        W39611  35.900  15.727   1.030
67286W        W39612  29.481  36.401   0.922
67287W        W39613  27.382  13.012   0.003
67288W        W39614  39.813  32.648   2.865
67289W        W39615  40.111  26.915   0.837
67290W        W39616   0.471  40.601  12.492
67291W        W39617  28.786  22.958  11.119
67292W        W39618   6.222  36.237   0.293
67293W        W39619  36.180  30.255   0.719
67294W        W39620  34.407  19.316   2.157
67295W        W39621  16.677   9.755  13.612
67296W        W39622  32.972  37.396   1.309
67297W        W39623  19.223  15.663   0.233
67298W        W39624   9.575   3.246  14.355
67299W        W39625  26.048  37.188   0.310
67300W        W39626  34.770  15.803  10.792
67301W        W39627  25.728  26.582  14.319
67302W        W39628   9.313   6.441   2.895
67303W        W39629  19.521  28.520  12.329
67304W        W39630  12.047  30.239  13.794
67305W        W39631   6.735  10.867  14.587
67306W        W39632  35.571  15.003  11.474
67307W        W39633  27.556   1.483   4.736
67308W        W39634   3.923  32.510  14.847
67309W        W39635  17.316  11.256  13.553
67310W        W39636   3.511   4.317  12.856
67311W        W39637  20.508  43.835   1.806
67312W        W39638  16.641  38.165  14.030
67313W        W39639  18.233  13.837  13.964
67314W        W39640  19.991  20.541  11.504
67315W        W39641  34.325  16.334   1.464
67316W        W39642  20.261  31.811   4.708
67317W        W39643   5.178  28.357   3.643
67318W        W39644  17.868  37.864  13.142
67319W        W39645  10.514  11.071  11.937
67320W        W39646  17.867   6.155   0.627
67321W        W39647  44.765   1.185  13.583
67322W        W39648  34.909  11.839   1.268
67323W        W39649   8.556  40.042  11.203
67324W        W39650   2.822  35.486   0.827
67325W        W39651  11.354   7.694   3.820
67326W        W39652  37.274  25.927  12.537
67327W        W39653  32.999  12.794   4.436
67328W        W39654  34.435   6.617   2.140
67329W        W39655   3.232  44.659   1.344
67330W        W39656   6.799   8.639   1.649
67331W        W39657  27.514  28.987   4.974
67332W        W39658  11.552  44.872  11.081
67333W        W39659  39.913  19.646  11.633
67334W        W39660  29.634  19.102  14.775
67335W        W39661  32.150  14.741  13.479
67336W        W39662  12.431  18.157   3.322
67337W        W39663  15.799  36.290   4.071
67338W        W39664  20.783   7.406  11.212
67339W        W39665  42.858  24.686   0.451
67340W        W39666   2.708  11.734   0.181
67341W        W39667  29.615  20.760   5.003
67342W        W39668  17.416  43.086   0.679
67343W        W39669  13.728  42.487   4.200
67344W        W39670  23.446   5.391  12.989
67345W        W39671  27.995   4.629   0.385
67346W        W39672   5.674  42.980   0.949
67347W        W39673  20.461  27.625  11.123
67348W        W39674  40.862  20.747   4.755
67349W        W39675  16.128  41.516   1.427
67350W        W39676  43.872  44.561   4.548
67351W        W39677  19.492   5.622  12.933
67352W        W39678  26.000  33.037  10.634
67353W        W39679  43.047  29.912   3.234
67354W        W39680  24.147   3.610  11.539
67355W        W39681   3.297   8.300  14.293
67356W        W39682  28.358  10.291   2.924
67357W        W39683   9.932  27.626  14.933
67358W        W39684  15.203   2.860  13.493
67359W        W39685  11.639  36.845   4.595
67360W        W39686  41.817  31.543  10.676
67361W        W39687   3.167   5.352   3.528
67362W        W39688   2.723  12.400  12.489
67363W        W39689   8.495   8.843   2.212
67364W        W39690  32.441   9.150  10.699
67365W        W39691  13.749   9.726  14.044
67366W        W39692  21.963  44.065  13.043
67367W        W39693  19.166  38.101   0.364
67368W        W39694  13.615  14.248   2.201
67369W        W39695  41.632  20.781  12.113
67370W        W39696  14.914  26.105  11.271
67371W        W39697   8.913  39.851   0.643
67372W        W39698  25.975  42.314  14.774
67373W        W39699  21.222   6.332  10.279
67374W        W39700  42.407   9.853  13.847
67375W        W39701  35.016   1.213  11.499
67376W        W39702  30.136  39.118  13.867
67377W        W39703  11.504  10.359  14.561
67378W        W39704  18.273  21.444  12.064
67379W        W39705  32.993   3.414  14.297
67380W        W39706   8.661  22.023  12.102
67381W        W39707  33.569   7.201  11.085
67382W        W39708  16.660   4.478  13.027
67383W        W39709  33.558  12.515  14.124
67384W        W39710  36.788   5.172  11.253
67385W        W39711  43.060  36.502   3.697
67386W        W39712  38.361  13.787   4.387
67387W        W39713  17.208  13.018   3.145
67388W        W39714  21.186   1.544   1.898
67389W        W39715  34.813  37.774   3.627
67390W        W39716   2.223  44.074  11.884
67391W        W39717  31.204  39.899   4.565
67392W        W39718  19.644  34.337  12.967
67393W        W39719   3.732  35.412  12.002
67394W        W39720  44.543  12.358  12.333
67395W        W39721  17.138  23.532  11.491
67396W        W39722  44.192   9.881  12.531
67397W        W39723  26.098   1.186  11.655
67398W        W39724   3.843  19.805   3.292
67399W        W39725  24.213  16.635  13.095
67400W        W39726  24.654  42.272   4.619
67401W        W39727  40.478  10.170  12.164
67402W        W39728  42.517   3.419   5.007
67403W        W39729  30.081  10.799  12.771
67404W        W39730   4.463   8.268   3.712
67405W        W39731  30.233  32.056  11.697
67406W        W39732  34.572  19.302   4.607
67407W        W39733   6.711  13.322  12.073
67408W        W39734  31.502  39.060  11.838
67409W        W39735  38.414  32.431  11.573
67410W        W39736  31.146  23.762   0.440
67411W        W39737   9.289   2.221  11.494
67412W        W39738  42.981  32.450   2.202
67413W        W39739  22.094   8.219  14.819
67414W        W39740  40.773   4.813   4.416
67415W        W39741  44.832  40.438  10.762
67416W        W39742  17.360   0.246   1.448
67417W        W39743  31.556   4.033   2.664
67418W        W39744   6.908  22.889   0.532
67419W        W39745  34.029   2.460  12.438
67420W        W39746  40.481  22.671  14.918
67421W        W39747  27.639  44.659  11.249
67422W        W39748  18.139   3.888   4.342
67423W        W39749  21.451   7.933  14.960
67424W        W39750  17.616  30.123   3.917
67425W        W39751  35.207  38.396   0.954
67426W        W39752  16.009  12.259   0.785
67427W        W39753  17.554  17.256  14.756
67428W        W39754  42.325   6.683   1.747
67429W        W39755  13.989   4.967  14.468
67430W        W39756   6.866  27.261   0.310
67431W        W39757  17.736  21.033   4.147
67432W        W39758  27.991  33.300   1.244
67433W        W39759  40.365  43.116   3.269
67434W        W39760  22.698   1.018  14.236
67435W        W39761  14.049  27.495  13.422
67436W        W39762   1.417  13.104  14.441
67437W        W39763  44.893  36.690  13.894
67438W        W39764   4.008  25.759  11.541
67439W        W39765  15.324  39.110  12.591
67440W        W39766  10.381  36.006  13.823
67441W        W39767  21.540   5.282  10.786
67442W        W39768   2.751   4.927   2.705
67443W        W39769  26.036  17.273  11.613
67444W        W39770  32.169  33.409   3.720
67445W        W39771  17.659  37.969  10.622
67446W        W39772  22.181  31.910   3.694
67447W        W39773  32.906  16.068   3.454
67448W        W39774  29.624  15.660  11.945
67449W        W39775  42.342  16.329  13.973
67450W        W39776   7.752   7.923   0.927
67451W        W39777  14.850  23.551  12.394
67452W        W39778  15.974   1.007  11.488
67453W        W39779  40.985  24.503  10.568
67454W        W39780   4.356  43.216   4.212
67455W        W39781  37.573   0.708   1.979
67456W        W39782  34.042   4.764  12.842
67457W        W39783  10.861  10.255   2.754
67458W        W39784  19.819  38.013  12.890
67459W        W39785  35.305   9.741   1.874
67460W        W39786  41.994  27.686  13.321
67461W        W39787  30.830  19.860  12.368
67462W        W39788  13.845  44.970  12.536
67463W        W39789  29.901  32.141  13.637
67464W        W39790  14.265  18.252  11.133
67465W        W39791  24.843   7.859  11.946
67466W        W39792  31.014  39.768  11.923
67467W        W39793  10.668  17.566  12.969
67468W        W39794  35.055  38.301   0.040
67469W        W39795  16.399  21.489  12.011
67470W        W39796  38.011  41.800   3.343
67471W        W39797  13.175  22.745   0.757
67472W        W39798  34.054  27.985   2.817
67473W        W39799   5.860   5.741  14.015
67474W        W39800   8.396  27.485  11.136
67475W        W39801  20.545  44.715   2.220
67476W        W39802   1.939  10.304  12.085
67477W        W39803  15.871  43.051  14.769
67478W        W39804  33.161   8.850   2.296
67479W        W39805  40.224  30.060  11.883
67480W        W39806  32.723   3.500   2.864
67481W        W39807  11.662  15.300   1.191
67482W        W39808   9.876   0.897   2.656
67483W        W39809   0.566  40.840  13.573
67484W        W39810  15.809  11.877   3.266
67485W        W39811  41.561  37.063   3.807
67486W        W39812  37.544  20.599   4.521
67487W        W39813  39.293  37.397   4.549
67488W        W39814  13.512  30.419  14.022
67489W        W39815  16.764   9.349   3.835
67490W        W39816  30.739   5.655   0.908
67491W        W39817   7.148   4.639  11.984
67492W        W39818  11.266  17.529   1.358
67493W        W39819  10.369  21.996  10.658
67494W        W39820  25.519  40.461  13.890
67495W        W39821   3.766  25.509   5.012
67496W        W39822  42.259   0.232  11.604
67497W        W39823  36.482  28.504  12.646
67498W        W39824  30.737  12.939   3.264
67499W        W39825  27.213  37.910   2.667
67500W        W39826  16.344  43.090   2.392
67501W        W39827  31.449   0.657   2.595
67502W        W39828  34.954  15.100   4.923
67503W        W39829  29.604   5.821   3.432
67504W        W39830  16.795   8.917   5.051
67505W        W39831  31.013  35.852  14.566
67506W        W39832  22.497  23.818   4.581
67507W        W39833  29.554  39.398   2.293
67508W        W39834   4.182   6.377  13.896
67509W        W39835  24.973  29.452   4.235
67510W        W39836  15.252  33.456   1.305
67511W        W39837  10.416  10.905   1.475
67512W        W39838  26.019  33.832   4.371
67513W        W39839  42.052  43.751  12.487
67514W        W39840  41.722  30.177  14.825
67515W        W39841  15.653   6.690   1.298
67516W        W39842   5.246  30.652   3.692
67517W        W39843  34.384  44.791  13.177
67518W        W39844  18.335   1.829  14.972
67519W        W39845   7.349  33.824  10.938
67520W        W39846  40.820   5.248  13.417
67521W        W39847  43.270  42.870   4.525
67522W        W39848  18.528   5.715   4.191
67523W        W39849  34.361  32.674   2.340
67524W        W39850  32.426  35.007   4.280
67525W        W39851  38.808  42.848   4.710
67526W        W39852  33.140   5.020   4.508
67527W        W39853   5.991  35.355   3.151
67528W        W39854   9.638  15.615  10.469
67529W        W39855   6.297  22.078   4.272
67530W        W39856  10.484  12.288   5.163
67531W        W39857  29.971  14.636   1.898
67532W        W39858  23.550   1.764  13.432
67533W        W39859  41.216  16.116   3.771
67534W        W39860  35.576  16.287   2.134
67535W        W39861  43.231  27.545  10.990
67536W        W39862  37.636   6.955  13.795
67537W        W39863  25.992   7.920  14.802
67538W        W39864  11.445  17.047   2.170
67539W        W39865  32.746  26.376   0.805
67540W        W39866  24.247  33.954  13.383
67541W        W39867  39.895  12.034  10.657
67542W        W39868  11.305  38.327  14.365
67543W        W39869   4.328  15.159  14.214
67544W        W39870  28.011  20.947  13.001
67545W        W39871   9.246  24.763  14.375
67546W        W39872  24.092  15.202  14.912
67547W        W39873   0.908   5.227  12.095
67548W        W39874  13.738  29.472  13.254
67549W        W39875  34.582  19.813   4.644
67550W        W39876  31.385  29.523  13.280
67551W        W39877   5.865  34.622  13.032
67552W        W39878  29.548  26.437  12.151
67553W        W39879  33.380  12.587  12.967
67554W        W39880  37.632  17.444   1.836
67555W        W39881   5.755  20.416  10.792
67556W        W39882  21.276  32.731  12.543
67557W        W39883  18.742  32.455  14.419
67558W        W39884   9.757  14.858   2.760
67559W        W39885  36.830  34.526  12.007
67560W        W39886   9.218  18.341   4.053
67561W        W39887  34.116  33.315  12.139
67562W        W39888   4.747  22.607  11.465
67563W        W39889   4.500   8.820  13.762
67564W        W39890  22.455  41.633   0.954
67565W        W39891  42.901  42.529  11.666
67566W        W39892  39.000  18.839   4.172
67567W        W39893   2.658  27.646   4.539
67568W        W39894  10.910  24.815  13.491
67569W        W39895  44.712  31.004  10.843
67570W        W39896   4.766  31.238  12.146
67571W        W39897  37.939  10.335   2.940
67572W        W39898  31.008  28.265  10.313
67573W        W39899   2.846  43.273   3.562
67574W        W39900  34.717  40.642  12.873
67575W        W39901  34.103  44.067   3.646
67576W        W39902  33.480  42.085  14.840
67577W        W39903  42.441  21.731  14.076
67578W        W39904  21.105  30.607  13.404
67579W        W39905  35.594   5.774  14.480
67580W        W39906  14.116  41.814  12.462
67581W        W39907  35.679  40.678  12.014
67582W        W39908   2.429  20.475  11.618
67583W        W39909  37.388  30.635  12.387
67584W        W39910   4.701   9.061   1.332
67585W        W39911  24.277  20.783  13.324
67586W        W39912   2.917  12.801  13.837
67587W        W39913  42.330   6.177   4.183
67588W        W39914  36.559  37.999  12.384
67589W        W39915  34.057  27.751  12.906
67590W        W39916  32.553  14.400   1.394
67591W        W39917  25.950  37.417   0.757
67592W        W39918  15.205  32.099  12.473
67593W        W39919  14.876  27.223  13.249
67594W        W39920  27.019  17.156   2.374
67595W        W39921  40.296   6.871   1.984
67596W        W39922  13.258  11.875  14.120
67597W        W39923  31.067  35.021   1.774
67598W        W39924  20.120   5.461   2.677
67599W        W39925  22.713  20.672  14.356
67600W        W39926  37.377  22.541   4.448
67601W        W39927   5.662  17.620   0.034
67602W        W39928  44.908  28.097  12.633
67603W        W39929  14.462  37.682   2.193
67604W        W39930  44.460  29.197  12.394
67605W        W39931  34.951  38.336  11.918
67606W        W39932  42.602   7.766  11.481
67607W        W39933  28.949  33.405  12.522
67608W        W39934  27.929  36.095   4.061
67609W        W39935  44.122  41.606   2.305
67610W        W39936  10.589  30.914  11.616
67611W        W39937  23.747  18.980   3.623
67612W        W39938  15.526  37.045   1.805
67613W        W39939  42.688  14.731   5.088
67614W        W39940  39.142   5.763  12.547
67615W        W39941  27.046  22.253   2.129
67616W        W39942  35.730  22.118   3.107
67617W        W39943  41.769  15.887   1.800
67618W        W39944  27.591  19.731  14.934
67619W        W39945  17.413  13.327   1.346
67620W        W39946   0.474   7.901   0.929
67621W        W39947  13.644  35.050   4.676
67622W        W39948  33.133   2.942   0.211
67623W        W39949  34.419  43.047  11.658
67624W        W39950   3.377   4.666  10.962
67625W        W39951  18.706  36.947  14.082
67626W        W39952  37.781   2.689   4.944
67627W        W39953  11.932  23.599   2.880
67628W        W39954   1.893  33.132   3.938
67629W        W39955  25.465  19.054   2.719
67630W        W39956  40.822  34.373  12.862
67631W        W39957   6.915  11.860   0.742
67632W        W39958  35.086  21.676   0.788
67633W        W39959   6.162  28.259   0.369
67634W        W39960  16.162  33.646  11.029
67635W        W39961  22.002  39.768   0.379
67636W        W39962  26.598  40.574   2.366
67637W        W39963  18.181  25.125   1.929
67638W        W39964  25.525  14.689   3.304
67639W        W39965  42.215  25.644   3.601
67640W        W39966  36.670  18.038   3.741
67641W        W39967  26.088   7.299   2.949
67642W        W39968  31.493  39.444   0.895
67643W        W39969   6.862  23.078   3.663
67644W        W39970   3.006  25.439  14.009
67645W        W39971   6.395  26.144   2.853
67646W        W39972  24.969   9.937  13.313
67647W        W39973   5.395   6.001  13.839
67648W        W39974  43.492  27.645  11.419
67649W        W39975  43.951  33.431   1.824
67650W        W39976  34.726  14.020   2.249
67651W        W39977  29.628  22.970  11.508
67652W        W39978  36.096  40.084   1.315
67653W        W39979   6.877  39.276  12.104
67654W        W39980  10.735  19.200  14.876
67655W        W39981  24.009  42.205   3.150
67656W        W39982  28.711  12.622  13.343
67657W        W39983   1.982  21.744   3.746
67658W        W39984  37.875   3.372  13.480
67659W        W39985  20.807  36.383   4.082
67660W        W39986   2.350  21.236   4.163
67661W        W39987  43.359   7.580   1.401
67662W        W39988   8.687  33.973   3.877
67663W        W39989   8.914  13.735  14.659
67664W        W39990  42.634  31.281   3.162
67665W        W39991  37.692  39.339   2.485
67666W        W39992  29.569  44.874   3.232
67667W        W39993  41.714   7.079   5.161
67668W        W39994  23.529   2.990  12.043
67669W        W39995  18.599   2.488   3.304
67670W        W39996  26.581  26.576   1.863
67671W        W39997   3.850  34.016  13.285
67672W        W39998  43.800   1.238  14.902
67673W        W39999  29.197   5.394  14.329
67674W        W40000  18.639  18.339   3.851
67675W        W40001  27.029  12.518   4.201
67676W        W40002  18.728  35.333   4.674
67677W        W40003   3.153  12.305  10.649
67678W        W40004   3.317   6.796   4.545
67679W        W40005  34.047   9.643   2.618
67680W        W40006   9.184   7.940   0.163
67681W        W40007   1.008  34.010   2.806
67682W        W40008  43.437   5.995   4.052
67683W        W40009  42.308   3.207   0.859
67684W        W40010  14.346  38.942   1.893
67685W        W40011  33.020  40.016   1.694
67686W        W40012  26.968  12.761  12.399
67687W        W40013  29.027  42.209  12.743
67688W        W40014  41.009  34.367   1.972
67689W        W40015   4.866  10.594  11.118
67690W        W40016   9.153   4.350  12.969
67691W        W40017  39.642  15.163  10.695
67692W        W40018  14.708  10.188   2.390
67693W        W40019   4.869  32.311   5.060
67694W        W40020  35.944   1.110   2.187
67695W        W40021   9.752   2.420  11.538
67696W        W40022  13.722  44.883   4.117
67697W        W40023   3.372  12.309   4.568
67698W        W40024  39.562  37.811  13.889
67699W        W40025   5.669  16.698   4.160
67700W        W40026  31.940  35.153  11.127
67701W        W40027  14.286  20.240   3.736
67702W        W40028  15.053  25.703  13.814
67703W        W40029  13.373   9.914  14.397
67704W        W40030  35.278  27.364  11.116
67705W        W40031  31.456  13.704  14.327
67706W        W40032  40.794  16.529  11.592
67707W        W40033  16.170  35.654   4.515
67708W        W40034  14.872  37.548   5.006
67709W        W40035  15.562  28.236   5.059
67710W        W40036  31.586  18.676  12.933
67711W        W40037  34.035  33.092   9.683
67712W        W40038  17.628  16.015   1.805
67713W        W40039  10.672  38.366   4.656
67714W        W40040  37.020  37.322  14.808
67715W        W40041  23.325  27.800  14.303
67716W        W40042   8.633  22.071   3.671
67717W        W40043  28.120   6.575   4.690
67718W        W40044   5.221  19.049  12.006
67719W        W40045  43.832   6.907   3.843
67720W        W40046  29.069  10.328  12.402
67721W        W40047  22.567   5.932   0.913
67722W        W40048  18.336  33.159  11.984
67723W        W40049  26.670   3.440  14.243
67724W        W40050  33.384  26.225  14.680
67725W        W40051  37.548  43.918   1.609
67726W        W40052   7.647  44.959  12.552
67727W        W40053  44.696  19.425   5.144
67728W        W40054  23.096  10.766  14.890
67729W        W40055  42.895   6.400  11.595
67730W        W40056   6.692  24.160   2.936
67731W        W40057  41.546   2.913   3.574
67732W        W40058  30.640  32.117   4.698
67733W        W40059  37.929  44.442   0.336
67734W        W40060  18.001  15.163   4.196
67735W        W40061  35.490  24.059  10.609
67736W        W40062   7.841   3.054   4.560
67737W        W40063  18.599   0.809  11.516
67738W        W40064  42.517  40.465   1.336
67739W        W40065  17.149  43.536  11.511
67740W        W40066  37.494  15.095   1.437
67741W        W40067  13.268  36.467   1.730
67742W        W40068  13.252  33.981  12.598
67743W        W40069   9.023  36.876   1.511
67744W        W40070  18.698  25.921   4.135
67745W        W40071  18.832   9.785  11.986
67746W        W40072   6.896  13.916   1.034
67747W        W40073  32.878  10.634   3.666
67748W        W40074  10.278  20.941  11.486
67749W        W40075  36.850  31.970   4.138
67750W        W40076  18.428   7.246   2.887
67751W        W40077  43.414  14.470  10.381
67752W        W40078  19.227   9.899  11.097
67753W        W40079   8.971  10.916   2.916
67754W        W40080   7.005  43.581  12.562
67755W        W40081  27.998  18.045   2.864
67756W        W40082  18.687   9.467   3.658
67757W        W40083  18.443   6.348  12.515
67758W        W40084   4.475   1.012  14.822
67759W        W40085  10.071   2.278   2.672
67760W        W40086  23.403   8.309  14.475
67761W        W40087  28.215  37.195  11.095
67762W        W40088  10.401  21.107   4.104
67763W        W40089   3.790  15.022  12.028
67764W        W40090   1.192   2.661   5.034
67765W        W40091   2.745   6.440  13.865
67766W        W40092  40.629  27.226   3.081
67767W        W40093  28.312  26.751   4.888
67768W        W40094  18.254   7.393  13.385
67769W        W40095   9.250  33.445  11.567
67770W        W40096  13.678   1.104   4.230
67771W        W40097   5.727  25.599   1.172
67772W        W40098   7.905   6.320   0.410
67773W        W40099   7.867  11.727   2.560
67774W        W40100  22.641   1.249   4.813
67775W        W40101  16.336   5.946   3.709
67776W        W40102  14.694  21.490   2.870
67777W        W40103   2.352  43.644  12.683
67778W        W40104   0.073  26.208   3.870
67779W        W40105   4.766  25.856   4.117
67780W        W40106  38.157  11.825  13.020
67781W        W40107  25.446  19.636  12.656
67782W        W40108   9.660   2.406  14.784
67783W        W40109  30.228  31.876   2.924
67784W        W40110   1.943  38.007   0.972
67785W        W40111  43.223   1.145   1.890
67786W        W40112  44.315   2.439   0.360
67787W        W40113  16.387  28.400  13.445
67788W        W40114  37.403  11.110   0.987
67789W        W40115  26.955  42.527   1.382
67790W        W40116  13.858   9.611  14.997
67791W        W40117  25.654   0.331   4.585
67792W        W40118  37.544  33.387   3.322
67793W        W40119  18.250   8.437  12.602
67794W        W40120  37.766   9.717  12.066
67795W        W40121  13.256  41.216   2.842
67796W        W40122  23.502  23.709   2.112
67797W        W40123  12.563  29.964   0.710
67798W        W40124  24.112  21.716  12.930
67799W        W40125   6.783  34.588   3.120
67800W        W40126   3.940  41.440   2.108
67801W        W40127   0.782  43.568  13.359
67802W        W40128  10.406  34.095  10.146
67803W        W40129  31.263  14.139   9.857
67804W        W40130  24.105  22.294  10.785
67805W        W40131  16.840  23.255   3.817
67806W        W40132   3.489  25.891   3.234
67807W        W40133  31.727  29.636  10.694
67808W        W40134  41.954  35.416  14.072
67809W        W40135  30.447  21.228  14.737
67810W        W40136  32.189  16.054   4.688
67811W        W40137   1.824  44.084   0.099
67812W        W40138  33.559  23.002   0.448
67813W        W40139  12.679   8.649   3.588
67814W        W40140  21.772  44.336  11.139
67815W        W40141  18.830  14.156  13.525
67816W        W40142  41.210  27.215   1.702
67817W        W40143   3.762  35.471   0.893
67818W        W40144  36.572  38.469  10.768
67819W        W40145   5.354  31.107  14.309
67820W        W40146  12.270  37.476   3.578
67821W        W40147  19.050   0.542  11.681
67822W        W40148  28.966  29.852   4.398
67823W        W40149   1.785   0.767   1.867
67824W        W40150  42.038  17.257   5.022
67825W        W40151  32.672  37.443   0.269
67826W        W40152  38.446   4.263   0.648
67827W        W40153  30.919  26.214  11.498
67828W        W40154   7.320  19.823   2.476
67829W        W40155  18.711  16.553   1.794
67830W        W40156   2.076  35.718   0.466
67831W        W40157  20.089  14.968   4.528
67832W        W40158  25.909  33.333   1.460
67833W        W40159  28.000  39.328  10.408
67834W        W40160   5.815  26.088   1.324
67835W        W40161   6.257   7.323  14.592
67836W        W40162  39.501  29.876   4.201
67837W        W40163  36.155  44.260   0.224
67838W        W40164  19.806  39.526   3.737
67839W        W40165  42.845   1.507   1.861
67840W        W40166  12.670  39.533  10.881
67841W        W40167  21.070   3.500  11.533
67842W        W40168  22.606  21.051   1.507
67843W        W40169  31.695  37.372   3.187
67844W        W40170  24.033  23.127  11.465
67845W        W40171  43.810   1.051   4.241
67846W        W40172  27.370  34.008   4.591
67847W        W40173  35.369  36.137  12.530
67848W        W40174  38.018  25.398  12.156
67849W        W40175  24.652  30.690   0.851
67850W        W40176  14.822  23.333  10.654
67851W        W40177  12.320  10.812   0.716
67852W        W40178  19.628   5.998  10.682
67853W        W40179   9.627  34.467  13.269
67854W        W40180  11.637  39.799  14.533
67855W        W40181  29.071  42.377   4.527
67856W        W40182  24.222  29.143   2.241
67857W        W40183  40.471  37.236   1.847
67858W        W40184  17.703  41.040  10.735
67859W        W40185   8.742  37.702   1.906
67860W        W40186  42.293  22.456  14.329
67861W        W40187   1.507  11.633  14.494
67862W        W40188   9.289  30.448  11.581
67863W        W40189  41.576  16.120  13.371
67864W        W40190  33.887  19.981   1.814
67865W        W40191  25.599  21.483   0.832
67866W        W40192  26.754  19.679   0.418
67867W        W40193  35.450  16.352   0.815
67868W        W40194   1.187  21.283  13.977
67869W        W40195   7.826  12.841  12.872
67870W        W40196   0.456  37.989   1.374
67871W        W40197   7.332  17.967  14.819
67872W        W40198   7.704  22.671  13.939
67873W        W40199   3.899  12.424  12.062
67874W        W40200  23.984  18.503   0.803
67875W        W40201  30.971  25.679   3.982
67876W        W40202  21.027  21.929   1.398
67877W        W40203  11.626  32.048   4.152
67878W        W40204  13.351  18.391  13.328
67879W        W40205   7.425  43.166  12.434
67880W        W40206  22.400  11.966   2.313
67881W        W40207   2.916  27.225  12.423
67882W        W40208  38.648  38.959   3.861
67883W        W40209  30.196  21.263  12.467
67884W        W40210  16.177   8.427  10.685
67885W        W40211  21.686  44.349   4.373
67886W        W40212  19.613  16.914   1.634
67887W        W40213  15.564  41.032  11.912
67888W        W40214  18.381  14.582  11.229
67889W        W40215  43.422  16.547  14.835
67890W        W40216  43.435  34.368   3.256
67891W        W40217   3.519  44.313   2.242
67892W        W40218  29.628   8.048  12.484
67893W        W40219  19.999  43.562   3.384
67894W        W40220  38.432  44.285  14.457
67895W        W40221  22.715  42.503  13.490
67896W        W40222  37.756   9.587  10.168
67897W        W40223  19.735  25.959   0.908
67898W        W40224  25.709   1.856  11.198
67899W        W40225   2.722  24.470  13.606
67900W        W40226  22.464   4.269   0.798
67901W        W40227  17.720  11.847  10.565
67902W        W40228   9.029  22.493   0.939
67903W        W40229  19.735  22.515   4.086
67904W        W40230  33.652  12.083   4.724
67905W        W40231  40.772   6.956   4.125
67906W        W40232  44.912   9.308  11.898
67907W        W40233   3.681   9.387  11.600
67908W        W40234  23.646  17.035  14.575
67909W        W40235  22.331   0.587  10.450
67910W        W40236  43.370  33.532   4.658
67911W        W40237  23.693  11.399  13.573
67912W        W40238  38.942   2.530   0.397
67913W        W40239   1.508  28.277  12.171
67914W        W40240  11.508  12.640  12.082
67915W        W40241  32.965  40.896   3.014
67916W        W40242  32.540  24.819  11.517
67917W        W40243  28.835  10.769   2.755
67918W        W40244  23.923  44.453   9.792
67919W        W40245  31.168  42.321  11.111
67920W        W40246   7.461  26.271  12.306
67921W        W40247  44.788  42.409   3.096
67922W        W40248   8.335  43.812  11.637
67923W        W40249  30.698   1.788   4.492
67924W        W40250  42.561  11.209   1.678
67925W        W40251  14.183  26.044  13.430
67926W        W40252  23.259  26.148   4.649
67927W        W40253   7.722   2.514   2.118
67928W        W40254  39.912  32.434  14.523
67929W        W40255  30.759  16.813  13.884
67930W        W40256   2.277  15.533  10.962
67931W        W40257  17.718  18.843   2.098
67932W        W40258  43.207  44.203  10.227
67933W        W40259  17.317  25.578   4.674
67934W        W40260   0.006  32.941  11.565
67935W        W40261  32.184  11.740  14.458
67936W        W40262  25.217   7.692  13.300
67937W        W40263   1.459  25.542   4.554
67938W        W40264  24.726  16.232  11.538
67939W        W40265  30.423  32.448  10.915
67940W        W40266  40.545  13.026   0.747
67941W        W40267  17.759  16.585   3.590
67942W        W40268  36.170  17.227  14.409
67943W        W40269   9.703   5.447  11.159
67944W        W40270  29.226  13.343  13.818
67945W        W40271  19.738  42.366  14.933
67946W        W40272  35.043   8.004   3.193
67947W        W40273  40.425   1.135  12.427
67948W        W40274   8.869  19.784   2.853
67949W        W40275  44.852   4.693   3.578
67950W        W40276  21.568  17.232  11.893
67951W        W40277  28.595  29.843  11.149
67952W        W40278  23.515  16.047   0.063
67953W        W40279  41.511  35.088  14.405
67954W        W40280  32.655   9.678  10.685
67955W        W40281  16.389  13.140   1.224
67956W        W40282  12.044   8.356  11.022
67957W        W40283  22.067  19.765  14.567
67958W        W40284   5.793   0.424  10.431
67959W        W40285   4.743  39.735   3.765
67960W        W40286  15.081   4.953   0.797
67961W        W40287   4.741  36.031  14.493
67962W        W40288   9.641  41.494   4.235
67963W        W40289  40.391  43.713   4.079
67964W        W40290  38.391   3.868   0.990
67965W        W40291  34.626  27.369   2.315
67966W        W40292  32.875  11.722   2.243
67967W        W40293  27.125  32.687   3.798
67968W        W40294  28.400  20.450  12.964
67969W        W40295  18.048  16.807   1.074
67970W        W40296  21.823   2.790   3.749
67971W        W40297   4.476  41.969  12.978
67972W        W40298  42.375   1.869   3.162
67973W        W40299   1.728  41.747   0.562
67974W        W40300   5.046  34.338  11.037
67975W        W40301   3.751   0.091  10.695
67976W        W40302   7.244  42.888  11.975
67977W        W40303   7.315   9.740  14.443
67978W        W40304  29.505  26.122   2.724
67979W        W40305  37.558  14.208  12.364
67980W        W40306  20.733  41.050   0.714
67981W        W40307   5.200  42.970  10.648
67982W        W40308  38.857  38.457   0.238
67983W        W40309  38.355  22.115   3.289
67984W        W40310  23.483  26.076  14.748
67985W        W40311  42.533  43.470  12.112
67986W        W40312  28.405   1.509  10.777
67987W        W40313  44.813  30.996   4.084
67988W        W40314  39.501  34.099  12.248
67989W        W40315  33.036  30.955   4.601
67990W        W40316  34.656  27.685   3.977
67991W        W40317  30.235  35.127   3.471
67992W        W40318  17.255  37.032  10.408
67993W        W40319   7.587  29.902  12.607
67994W        W40320  29.048  32.147  11.168
67995W        W40321  12.448  12.612  11.263
67996W        W40322  32.924  22.142   2.182
67997W        W40323  23.840  17.592   0.584
67998W        W40324  22.489  32.393  13.273
67999W        W40325  18.024  35.768   3.196
68000W        W40326  16.555  23.764   2.658
68001W        W40327  21.135  40.431  12.628
68002W        W40328  32.529  26.465  11.929
68003W        W40329   0.918  25.014   3.002
68004W        W40330  11.754   7.329  11.506
68005W        W40331  17.468   7.725  13.448
68006W        W40332  37.410   0.949  12.498
68007W        W40333   7.834  25.753  14.426
68008W        W40334  41.835   4.686   9.924
68009W        W40335   6.245  30.426   9.825
68010W        W40336   7.915   8.855   3.692
68011W        W40337  21.569   9.029   4.168
68012W        W40338   5.352  32.662   3.860
68013W        W40339  22.247  26.857  11.034
68014W        W40340  39.511  13.723  14.142
68015W        W40341  10.321  18.881  14.872
68016W        W40342   2.630  43.901   2.862
68017W        W40343   0.874  26.287   3.749
68018W        W40344  41.521  18.762  12.649
68019W        W40345  13.276  29.188   0.478
68020W        W40346  43.740  31.365  11.962
68021W        W40347  11.066  25.572   2.312
68022W        W40348  40.998  40.782  10.707
68023W        W40349  29.451   4.123  14.973
68024W        W40350   8.174   2.926   1.748
68025W        W40351  34.398   3.897  11.547
68026W        W40352   3.714   5.923   2.951
68027W        W40353  26.836   5.594  12.026
68028W        W40354  42.563  40.099   3.607
68029W        W40355  25.354  16.855  10.129
68030W        W40356  43.795  14.834  11.139
68031W        W40357  39.919  43.327  11.849
68032W        W40358  18.899  12.194  14.255
68033W        W40359  29.977   8.682   2.809
68034W        W40360  15.258  18.254   3.197
68035W        W40361  40.462  36.862   3.109
68036W        W40362  13.094  28.534   3.740
68037W        W40363  43.974  20.772   2.161
68038W        W40364  37.910   4.673   3.772
68039W        W40365  44.180  29.547  11.432
68040W        W40366  20.082  37.353  11.547
68041W        W40367  40.730   7.831   1.877
68042W        W40368  44.792  25.264  13.386
68043W        W40369  13.224  30.736  13.528
68044W        W40370  27.015  28.500  11.060
68045W        W40371  32.390  34.518   1.341
68046W        W40372  26.414  41.080  14.334
68047W        W40373   1.824  12.730  12.817
68048W        W40374  21.325  24.226   2.535
68049W        W40375   3.649  17.672   1.784
68050W        W40376  35.124   2.197  14.424
68051W        W40377  23.009   8.649  13.273
68052W        W40378  36.162  29.322  12.778
68053W        W40379  30.416   4.325  13.485
68054W        W40380  11.792   2.937   2.898
68055W        W40381   9.682  16.907   2.048
68056W        W40382  37.583  36.027  12.072
68057W        W40383  19.783  23.031  11.942
68058W        W40384  37.052  35.752  14.863
68059W        W40385  15.288  21.224   4.519
68060W        W40386  43.541  21.009  12.360
68061W        W40387   3.948  37.107  11.419
68062W        W40388   5.313   9.939   3.587
68063W        W40389  18.092  29.204   4.628
68064W        W40390  24.693  20.260   0.834
68065W        W40391  16.887  42.027  13.755
68066W        W40392  11.394  29.379   3.318
68067W        W40393  18.749  19.098  12.075
68068W        W40394  11.374  35.002  11.652
68069W        W40395  38.061  33.340   3.250
68070W        W40396  10.146  32.851  12.413
68071W        W40397  29.091  10.363  13.855
68072W        W40398   9.086  34.420  11.604
68073W        W40399  12.866  30.549   0.909
68074W        W40400  12.262   9.902   3.511
68075W        W40401  14.896  21.454  12.498
68076W        W40402  20.191  34.113  12.990
68077W        W40403  21.001  23.248   1.664
68078W        W40404   2.286  12.540  13.098
68079W        W40405  23.646  13.071  14.012
68080W        W40406  33.858  42.235   0.459
68081W        W40407  12.783  13.580   0.356
68082W        W40408  24.190  19.337   0.229
68083W        W40409  21.452  14.690   3.266
68084W        W40410  21.458   1.258   1.048
68085W        W40411   1.912  42.005   4.910
68086W        W40412   9.372  11.296  11.609
68087W        W40413  10.500  33.502   0.167
68088W        W40414  11.630  18.117  12.948
68089W        W40415   2.469  11.430   0.885
68090W        W40416  12.179  40.739   2.217
68091W        W40417  31.606  35.015  12.567
68092W        W40418  17.978   6.859   3.336
68093W        W40419  16.758  42.911  10.540
68094W        W40420  20.108   8.570   2.341
68095W        W40421  10.967   4.004  11.579
68096W        W40422  38.974  39.305  12.418
68097W        W40423   2.670  12.650   1.792
68098W        W40424   3.862  11.804   1.184
68099W        W40425  41.536   0.073  13.075
68100W        W40426  14.187  20.542   1.820
68101W        W40427  23.091  18.653   0.518
68102W        W40428  23.187  41.381  14.663
68103W        W40429  30.404   9.653   0.865
68104W        W40430  11.305  16.347   1.882
68105W        W40431  23.721  14.837  14.839
68106W        W40432  16.872  31.994  10.992
68107W        W40433  15.856  32.313  10.064
68108W        W40434  30.080  14.745   1.394
68109W        W40435  39.846   4.864   0.693
68110W        W40436  28.086   8.285  13.421
68111W        W40437  24.024  17.281  11.930
68112W        W40438  37.836  30.952  14.340
68113W        W40439   1.253  39.165  12.916
68114W        W40440  40.126  36.417   2.388
68115W        W40441   4.465  40.261   4.352
68116W        W40442  13.929  33.405  10.701
68117W        W40443   3.699  39.958  12.225
68118W        W40444   6.057  13.120  13.940
68119W        W40445  12.125  16.061   2.648
68120W        W40446  14.915  18.307  13.013
68121W        W40447  30.596  42.316  11.179
68122W        W40448  15.604  35.343   1.508
68123W        W40449  41.573  27.997   0.012
68124W        W40450  35.001  38.360   2.800
68125W        W40451  28.122   6.510   0.923
68126W        W40452  35.612  20.296   2.420
68127W        W40453  33.326   1.513   3.835
68128W        W40454   0.379  12.659  13.320
68129W        W40455   7.895   6.604  11.621
68130W        W40456  23.016  26.011  10.371
68131W        W40457   4.328  37.928  11.473
68132W        W40458  24.699  31.529  12.053
68133W        W40459  23.574  21.987   2.405
68134W        W40460   1.289  43.486  13.395
68135W        W40461  21.831  22.193   0.968
68136W        W40462  17.630   2.645   2.904
68137W        W40463   7.467  41.703  14.598
68138W        W40464  43.697  24.750  13.037
68139W        W40465  21.068  39.121  12.273
68140W        W40466  16.796  12.383  12.397
68141W        W40467  12.188   2.978   4.098
68142W        W40468  36.835  14.349   4.182
68143W        W40469  11.937  24.078  13.153
68144W        W40470   8.708  14.825   3.623
68145W        W40471  14.774  22.012  14.510
68146W        W40472  11.067  18.305  11.903
68147W        W40473  15.993  15.288  11.507
68148W        W40474  42.390  15.308  13.111
68149W        W40475  23.597  35.109   1.251
68150W        W40476  33.214  37.295   3.315
68151W        W40477   1.187  42.887  13.066
68152W        W40478  38.079  20.077   1.245
68153W        W40479  18.946   6.381  11.540
68154W        W40480  39.228   4.877  11.457
68155W        W40481  37.264  36.952  13.888
68156W        W40482  44.867  28.113  10.632
68157W        W40483  33.057  17.673   1.572
68158W        W40484  39.528  13.168   4.251
68159W        W40485  10.172  19.839   3.657
68160W        W40486  19.423   5.481   4.150
68161W        W40487  21.848  18.082  12.796
68162W        W40488  12.004  43.901   2.922
68163W        W40489  24.678   0.255  13.853
68164W        W40490  15.990  10.743  12.094
68165W        W40491  36.060  27.479   2.228
68166W        W40492   5.491   3.760  14.377
68167W        W40493  18.967  41.795   3.781
68168W        W40494  35.839  31.863   1.244
68169W        W40495  44.965   7.926  10.967
68170W        W40496  24.743   2.439   2.852
68171W        W40497  29.455  10.011   1.758
68172W        W40498   2.642  40.266  14.240
68173W        W40499  29.144  35.543   1.790
68174W        W40500  14.736  15.073  10.747
68175W        W40501  32.904   5.939  11.972
68176W        W40502  35.558  32.726  11.763
68177W        W40503  41.023  29.710  14.389
68178W        W40504  18.829   1.967  11.416
68179W        W40505   6.200   8.880   4.115
68180W        W40506  31.061  27.118  11.304
68181W        W40507  30.897  29.909   5.022
68182W        W40508  40.469   7.197  14.748
68183W        W40509  36.760  38.616  10.312
68184W        W40510  13.047  41.466   3.253
68185W        W40511  13.534  27.056  12.772
68186W        W40512  42.950  31.662  13.179
68187W        W40513   6.309  35.329   1.170
68188W        W40514  13.373  34.413  12.842
68189W        W40515  43.120  41.521  13.679
68190W        W40516   2.519   2.243  11.481
68191W        W40517  11.909  25.550  11.487
68192W        W40518   5.704  30.875   3.825
68193W        W40519  12.464  17.761  12.529
68194W        W40520   5.497  28.733   2.698
68195W        W40521  18.222  29.008   2.332
68196W        W40522  21.559  25.205  14.027
68197W        W40523   8.784  28.065   0.852
68198W        W40524  27.235   8.705  12.824
68199W        W40525  29.034  11.292   4.334
68200W        W40526  11.680  40.257  10.505
68201W        W40527   1.685  25.134   5.023
68202W        W40528  18.766  36.504   3.939
68203W        W40529  22.664  16.010  12.053
68204W        W40530  14.097  17.638  13.998
68205W        W40531   2.380  28.919  14.841
68206W        W40532  17.391  24.014   0.746
68207W        W40533  26.227  27.927   4.069
68208W        W40534  34.478   7.605   4.333
68209W        W40535  13.017  17.064  13.723
68210W        W40536  37.347   8.200  12.925
68211W        W40537  32.601  28.117  14.466
68212W        W40538  40.247  10.106   3.220
68213W        W40539  40.522   1.333   4.096
68214W        W40540  29.460  43.357   3.792
68215W        W40541  30.353  14.164  13.443
68216W        W40542  23.016  16.409   2.657
68217W        W40543   3.840   1.201   1.400
68218W        W40544  18.273  19.653   1.695
68219W        W40545  44.984   5.810  14.076
68220W        W40546  27.052  10.995  11.441
68221W        W40547  22.614  10.644   3.260
68222W        W40548  17.430   5.223  13.661
68223W        W40549  37.016  11.177   3.613
68224W        W40550   4.743  30.566  13.930
68225W        W40551   5.679   0.492  13.540
68226W        W40552  13.314  25.458  11.569
68227W        W40553   8.141  22.089  14.945
68228W        W40554   8.171  34.059  14.222
68229W        W40555   3.335   5.761  13.747
68230W        W40556  13.400  36.222  12.071
68231W        W40557  14.125  11.797  10.632
68232W        W40558   6.411  39.366  11.544
68233W        W40559  44.255  38.467   4.599
68234W        W40560  30.733  12.710  13.332
68235W        W40561  13.285   4.432  10.684
68236W        W40562  38.501  42.575   1.303
68237W        W40563  33.542  17.070  14.940
68238W        W40564  28.750  21.076   3.407
68239W        W40565   2.062  29.888   3.091
68240W        W40566  38.338   2.573   2.913
68241W        W40567  27.259  40.023   0.481
68242W        W40568  28.921   2.842  11.999
68243W        W40569  38.100  36.162   0.893
68244W        W40570  16.634  23.465  11.400
68245W        W40571   0.949  19.310   2.880
68246W        W40572  35.404  27.067  11.538
68247W        W40573  25.251  40.821  12.837
68248W        W40574   2.340   8.658  13.017
68249W        W40575  10.662   6.244   1.326
68250W        W40576   1.944   3.418   1.685
68251W        W40577  13.320  11.593   0.963
68252W        W40578  13.585   7.673  10.600
68253W        W40579  42.641  42.985   2.883
68254W        W40580  11.805  18.463  13.806
68255W        W40581  18.795   7.641  12.502
68256W        W40582   1.956  16.278   0.629
68257W        W40583   0.998  31.838   2.795
68258W        W40584  44.318   4.955  13.800
68259W        W40585  37.104  41.874   1.420
68260W        W40586   1.573  38.902  11.657
68261W        W40587  14.000  23.287   4.063
68262W        W40588  42.406  35.077   1.731
68263W        W40589  28.218  17.311  10.673
68264W        W40590   4.727  20.387  13.949
68265W        W40591  29.724  21.732   1.475
68266W        W40592   2.053  30.206  14.105
68267W        W40593  15.989  20.084   1.924
68268W        W40594  41.556   1.376  14.333
68269W        W40595  11.740   8.332  12.671
68270W        W40596   4.891  20.397   2.048
68271W        W40597  30.001  22.507  11.999
68272W        W40598  40.010   7.411  10.698
68273W        W40599  37.629   0.801  12.976
68274W        W40600  23.069  15.915   2.807
68275W        W40601   7.880  12.543  13.284
68276W        W40602  42.237  26.645   4.305
68277W        W40603   6.298   1.160  12.558
68278W        W40604  31.566  28.178   2.406
68279W        W40605  14.565  13.384   3.108
68280W        W40606   2.749  21.123  13.999
68281W        W40607  44.658  16.084  14.466
68282W        W40608  35.494   5.432   0.399
68283W        W40609  36.988  41.011   2.177
68284W        W40610  37.455  42.586   4.378
68285W        W40611  35.690  38.582  11.014
68286W        W40612  30.699   9.679  13.989
68287W        W40613   7.481  24.194  13.250
68288W        W40614  21.154  14.372  14.429
68289W        W40615  27.107  13.791  13.997
68290W        W40616  43.326  11.684  11.383
68291W        W40617  20.300  22.274  11.470
68292W        W40618   9.257   1.030   4.841
68293W        W40619   4.504   3.788  12.971
68294W        W40620  38.354  24.001   0.840
68295W        W40621  34.967  28.635   0.397
68296W        W40622  39.965  30.090   4.260
68297W        W40623  19.801  10.931   0.617
68298W        W40624  22.434  19.806   4.227
68299W        W40625  35.069  16.015   0.445
68300W        W40626   4.650  13.133   2.647
68301W        W40627  30.890  15.834  10.650
68302W        W40628  14.147   7.412  14.446
68303W        W40629  23.754  33.968  12.470
68304W        W40630   8.696  15.127  13.214
68305W        W40631   3.678   3.327  14.388
68306W        W40632  31.596   9.421   0.241
68307W        W40633  19.497  17.042   4.238
68308W        W40634  25.797  11.112  10.110
68309W        W40635  12.839  23.310  11.946
68310W        W40636   4.398  29.307   3.153
68311W        W40637  23.272  34.568   2.368
68312W        W40638  20.119   6.319  10.253
68313W        W40639  21.312   0.576   0.335
68314W        W40640  43.358  17.709  13.860
68315W        W40641  20.463   0.096   2.558
68316W        W40642  18.973   0.188   0.906
68317W        W40643  22.216   0.556   5.178
68318W        W40644  23.730   3.872   1.897
68319W        W40645   1.878  12.207  13.005
68320W        W40646  37.901  29.681  13.921
68321W        W40647  26.749   7.682   3.188
68322W        W40648  42.569  40.806  11.572
68323W        W40649  14.327  19.621  11.176
68324W        W40650  24.464  24.294   2.228
68325W        W40651  35.785   5.007   4.772
68326W        W40652  20.073  28.136  13.014
68327W        W40653  13.490  28.606   5.028
68328W        W40654  26.419  27.130   1.193
68329W        W40655  19.720  34.653   2.250
68330W        W40656  19.362  28.041   1.436
68331W        W40657  21.594  30.434   0.040
68332W        W40658  29.403   5.840   0.345
68333W        W40659  22.588  42.519  11.467
68334W        W40660   9.720   5.718   1.275
68335W        W40661  18.710   7.627  13.408
68336W        W40662   8.826   0.751   0.385
68337W        W40663  31.870   2.361   4.620
68338W        W40664  38.603   8.677   4.498
68339W        W40665   7.641  37.013   1.174
68340W        W40666  40.634  17.480  11.733
68341W        W40667   4.789  31.010  13.624
68342W        W40668  27.023  39.931   0.032
68343W        W40669  39.460  23.714   4.809
68344W        W40670  44.697  14.764  11.639
68345W        W40671  15.764  14.551  12.530
68346W        W40672  42.883  25.529   4.046
68347W        W40673  14.792  35.682  12.967
68348W        W40674  14.333  26.406  14.918
68349W        W40675  13.332  39.909   3.875
68350W        W40676  27.017  32.586   0.935
68351W        W40677  25.744  26.649   1.523
68352W        W40678   5.881  30.104   2.920
68353W        W40679  27.445   6.829  13.341
68354W        W40680   9.211  29.949   1.295
68355W        W40681  15.118  19.068   1.265
68356W        W40682  29.733   2.013  10.321
68357W        W40683   1.331  30.645  13.478
68358W        W40684  19.843  27.868  14.843
68359W        W40685  10.285   9.820  11.153
68360W        W40686  37.074   1.640   1.863
68361W        W40687  24.259  41.916   0.682
68362W        W40688   9.327  26.959   3.857
68363W        W40689  31.390  12.313  11.359
68364W        W40690   1.439  16.709  14.406
68365W        W40691  13.220  39.502   4.237
68366W        W40692   2.746  36.591   4.201
68367W        W40693  37.136   1.229  11.552
68368W        W40694  42.276  28.511   0.333
68369W        W40695  13.929  23.575   1.391
68370W        W40696  34.394  35.955  12.067
68371W        W40697   9.289  17.111   1.711
68372W        W40698   6.824  34.150  13.151
68373W        W40699  12.637  17.089   0.448
68374W        W40700   7.524  32.340   1.414
68375W        W40701   5.887  18.585   2.165
68376W        W40702  43.677  16.111  11.551
68377W        W40703  28.152  17.483  11.999
68378W        W40704  29.436  43.427   0.368
68379W        W40705  13.325  35.740   3.237
68380W        W40706  24.979  12.327  14.468
68381W        W40707  28.556  42.267   3.242
68382W        W40708  28.215  27.931   4.156
68383W        W40709   7.820  39.739   4.566
68384W        W40710  44.046  15.801   2.312
68385W        W40711  40.508  26.135  12.231
68386W        W40712  32.566  40.582   3.272
68387W        W40713   3.413  30.173   2.706
68388W        W40714  31.431  25.447  11.492
68389W        W40715  24.004  13.060  14.823
68390W        W40716  20.437   1.891   1.343
68391W        W40717  43.355   9.050  11.625
68392W        W40718  27.408   3.277   2.423
68393W        W40719  21.146  31.126   3.201
68394W        W40720  21.690   7.378   2.854
68395W        W40721  34.584  20.965   5.026
68396W        W40722   8.635  34.139  14.475
68397W        W40723   0.291  10.850   2.427
68398W        W40724   4.830  23.860   4.120
68399W        W40725  43.458  32.375   2.475
68400W        W40726  32.493  41.785  11.443
68401W        W40727  26.093  36.363  13.795
68402W        W40728   9.197  29.010   3.271
68403W        W40729   3.000   2.064   5.379
68404W        W40730  14.714  10.656   4.235
68405W        W40731  12.673  42.264  14.420
68406W        W40732  11.934  37.686  11.940
68407W        W40733  44.418  38.870   0.678
68408W        W40734  14.719  44.441  14.427
68409W        W40735  28.786  28.951  11.452
68410W        W40736  32.565  44.291   0.411
68411W        W40737   3.539  43.298   2.964
68412W        W40738  17.645  21.231  14.775
68413W        W40739  13.513   0.777  13.918
68414W        W40740  18.269   1.425   4.529
68415W        W40741  21.049  11.901  12.688
68416W        W40742  27.021  10.430  10.229
68417W        W40743  13.184  17.648   0.911
68418W        W40744   7.136  33.574  12.203
68419W        W40745  34.022  41.150   2.936
68420W        W40746   7.279  35.195   1.491
68421W        W40747  29.232  19.505   2.670
68422W        W40748  20.218  14.147   4.635
68423W        W40749  32.147  30.467  10.986
68424W        W40750  28.745  34.086   2.303
68425W        W40751  29.046   2.102  11.492
68426W        W40752   3.672  10.928  12.491
68427W        W40753  39.270  16.189  12.988
68428W        W40754  37.479  19.108   3.363
68429W        W40755   5.294  44.528  12.036
68430W        W40756  32.248  41.098  13.282
68431W        W40757   2.751  31.330  12.373
68432W        W40758  39.364  43.303  14.292
68433W        W40759  11.733  30.733   4.135
68434W        W40760  33.066  33.072  14.525
68435W        W40761  34.031  14.726   2.012
68436W        W40762  22.001  34.802   1.972
68437W        W40763  28.473  20.153  14.230
68438W        W40764  41.411  20.090  10.957
68439W        W40765  20.803  20.208   1.197
68440W        W40766   1.110  36.105  10.401
68441W        W40767   3.947  11.137  12.947
68442W        W40768  11.978  36.534   2.181
68443W        W40769  38.800  37.777  10.856
68444W        W40770  23.773   0.030   2.195
68445W        W40771   4.456   5.875  11.032
68446W        W40772  34.310  40.402   2.361
68447W        W40773  26.006  37.633   4.214
68448W        W40774   2.500  22.074  13.102
68449W        W40775  20.168  35.646  11.181
68450W        W40776  34.623  22.856   1.313
68451W        W40777  23.972  17.272   3.978
68452W        W40778  17.357   8.592  11.087
68453W        W40779   4.206  35.602  13.420
68454W        W40780  15.145  31.355   2.688
68455W        W40781  20.670  24.006  10.755
68456W        W40782  17.723   8.303   3.796
68457W        W40783   2.362  32.343   3.128
68458W        W40784  16.622  11.750   3.777
68459W        W40785  35.540  21.185   1.308
68460W        W40786   1.670   5.813  14.625
68461W        W40787  31.416  40.353   1.779
68462W        W40788  26.017  19.335   3.734
68463W        W40789  21.518   4.631   1.311
68464W        W40790  29.676  11.871   0.903
68465W        W40791  11.597  42.559  12.063
68466W        W40792   6.785   8.872   5.137
68467W        W40793  39.907  38.670   1.777
68468W        W40794   7.441  26.043  14.639
68469W        W40795   7.093  28.564   2.506
68470W        W40796  42.009  44.038  14.892
68471W        W40797  26.614  43.702  13.501
68472W        W40798  21.552   7.584   4.245
68473W        W40799  32.013  30.613  13.582
68474W        W40800   9.024  37.357  13.769
68475W        W40801  15.789  24.603  12.511
68476W        W40802  43.397   2.243  12.426
68477W        W40803  36.611  27.387  13.306
68478W        W40804  25.212  35.631  12.200
68479W        W40805   7.244   9.693  12.784
68480W        W40806   7.888  34.016  13.371
68481W        W40807  13.299  22.629   4.328
68482W        W40808  15.176  34.416   3.704
68483W        W40809  17.266  12.585  14.898
68484W        W40810  18.815  37.357  11.712
68485W        W40811   6.339  16.623  13.111
68486W        W40812  34.979  19.792  12.417
68487W        W40813   3.742  25.573  11.122
68488W        W40814  13.342   8.888   1.275
68489W        W40815   3.629   2.798  14.017
68490W        W40816  33.540   0.926  11.245
68491W        W40817   9.166  42.829  13.434
68492W        W40818  42.353  38.088  11.579
68493W        W40819  30.654  31.059   1.669
68494W        W40820   2.921  15.789   1.110
68495W        W40821  32.623   9.913   1.201
68496W        W40822  31.501   0.845  14.446
68497W        W40823   8.667  26.469  13.884
68498W        W40824   6.005  32.439   1.127
68499W        W40825  25.447  13.201   2.721
68500W        W40826   5.124  16.405   0.031
68501W        W40827  22.645   8.452  14.028
68502W        W40828   3.256  11.960   1.829
68503W        W40829  16.771  30.640   2.106
68504W        W40830  33.506  39.470   2.808
68505W        W40831  41.565  12.727   3.292
68506W        W40832  44.465  30.670  14.994
68507W        W40833  39.724  20.276  13.785
68508W        W40834  11.308  31.886   1.477
68509W        W40835   4.672   9.822  10.117
68510W        W40836  10.133  40.342   0.021
68511W        W40837   5.594   2.452   1.403
68512W        W40838  36.491  42.230   0.824
68513W        W40839  26.683  33.412   4.625
68514W        W40840  30.872  23.230  14.372
68515W        W40841  15.331  22.536  13.579
68516W        W40842  20.075  15.894  12.892
68517W        W40843  42.303  10.317  11.952
68518W        W40844  17.244  16.187   0.247
68519W        W40845  17.309  13.687   0.991
68520W        W40846  10.141  20.986   1.841
68521W        W40847  17.515  37.801   0.236
68522W        W40848  34.790  32.372   0.938
68523W        W40849  33.588   1.900  12.563
68524W        W40850  10.920  21.725  11.171
68525W        W40851  38.794  37.566   3.694
68526W        W40852  11.624   3.385  13.775
68527W        W40853  38.018   9.865   2.703
68528W        W40854  29.142  43.240  14.369
68529W        W40855  33.581  23.124  11.879
68530W        W40856  30.018  32.704   2.709
68531W        W40857   1.270  36.569  13.335
68532W        W40858  40.066  16.810  14.914
68533W        W40859  29.402   8.395  12.151
68534W        W40860  16.716  23.824  12.248
68535W        W40861  29.959   3.411  13.346
68536W        W40862  41.515  18.992  14.030
68537W        W40863  38.634  41.579   1.209
68538W        W40864  27.959  30.582   1.443
68539W        W40865  19.986  22.275  13.493
68540W        W40866  40.086  15.258  13.432
68541W        W40867   7.610  34.175  11.894
68542W        W40868  26.565  16.133  11.721
68543W        W40869  36.489  17.225   2.470
68544W        W40870  22.535  16.873   3.674
68545W        W40871  32.625  32.803   0.351
68546W        W40872  14.388  29.690   1.851
68547W        W40873  12.965  35.410   2.337
68548W        W40874  22.030  16.698  13.897
68549W        W40875  42.051   8.990   1.168
68550W        W40876  27.072  28.976  10.860
68551W        W40877  10.148  22.493  10.707
68552W        W40878  38.415   9.680   1.479
68553W        W40879  12.172  18.658  14.836
68554W        W40880  35.005  37.376   0.154
68555W        W40881   6.856  24.504  11.852
68556W        W40882  12.318  30.640   4.693
68557W        W40883  44.032  35.582   2.238
68558W        W40884   1.987  15.431   0.385
68559W        W40885  23.762  16.059  10.714
68560W        W40886   9.712  37.875   3.454
68561W        W40887  37.485  36.151   2.875
68562W        W40888  30.304  21.015   4.239
68563W        W40889  29.183  39.849  10.683
68564W        W40890  43.022   8.248   4.853
68565W        W40891  39.325   9.316   1.841
68566W        W40892  12.214  14.613  11.018
68567W        W40893  37.885  22.167  12.500
68568W        W40894   0.405   4.764  14.277
68569W        W40895  42.874  38.614   3.657
68570W        W40896  19.945  11.605   1.501
68571W        W40897   5.147  39.835   2.822
68572W        W40898  20.332  29.874  10.651
68573W        W40899   1.094  32.600  13.061
68574W        W40900  19.988  30.174   1.368
68575W        W40901   6.689  25.172   1.194
68576W        W40902   8.287   9.774  11.102
68577W        W40903   1.533   0.070  11.932
68578W        W40904  37.215  12.227   1.406
68579W        W40905  24.945   9.668   0.656
68580W        W40906  13.817  10.376   0.531
68581W        W40907  36.127  26.024   1.931
68582W        W40908  39.581  39.031  14.899
68583W        W40909  31.842  37.839   0.263
68584W        W40910  28.566   5.050   5.042
68585W        W40911   2.937  39.668   0.898
68586W        W40912   3.516  35.531  11.541
68587W        W40913  17.122  37.539   3.631
68588W        W40914  27.523   5.131  14.932
68589W        W40915  31.012  34.609   4.589
68590W        W40916  32.664   8.798  14.891
68591W        W40917  22.438  36.615  12.442
68592W        W40918  12.305  13.332  13.025
68593W        W40919  22.033  39.500   1.457
68594W        W40920  18.261  15.819  11.645
68595W        W40921  20.039  32.375  11.602
68596W        W40922  24.006  11.701   2.266
68597W        W40923   1.299  26.633  13.893
68598W        W40924  40.902  44.396   4.351
68599W        W40925  41.334  19.730  12.936
68600W        W40926  25.577  25.407   4.745
68601W        W40927  36.605  29.619   1.358
68602W        W40928  16.160  26.532  13.608
68603W        W40929   1.428  33.325   4.115
68604W        W40930  43.955  16.337  12.826
68605W        W40931  13.669  37.398  10.544
68606W        W40932  23.147  26.431   4.236
68607W        W40933  22.314  15.279   0.824
68608W        W40934   4.220  26.680  14.783
68609W        W40935   6.803  38.261  11.188
68610W        W40936   5.926  24.631  13.509
68611W        W40937  29.389  44.820   0.384
68612W        W40938  20.540  35.884   3.251
68613W        W40939  21.173  19.500  11.044
68614W        W40940  10.356  20.077   2.485
68615W        W40941  19.301  18.033  13.902
68616W        W40942  21.841  27.603  11.590
68617W        W40943  27.222  26.048   0.851
68618W        W40944  33.524  16.591   1.929
68619W        W40945   7.111  31.381  11.134
68620W        W40946  41.406  28.730  12.581
68621W        W40947  14.313   3.910  11.602
68622W        W40948  20.622  23.530   0.898
68623W        W40949  34.113   1.010  12.094
68624W        W40950   4.877  35.760   1.717
68625W        W40951  12.834  31.619  10.689
68626W        W40952   3.737  19.034   0.691
68627W        W40953   8.615  27.580  10.665
68628W        W40954  43.502  36.672   1.194
68629W        W40955  22.091   0.241  14.322
68630W        W40956  15.101   7.012   3.137
68631W        W40957  34.573  30.727  14.954
68632W        W40958  12.718   8.053   2.872
68633W        W40959  38.396  15.499  11.087
68634W        W40960   0.108  14.714   2.801
68635W        W40961  14.811  39.080  11.886
68636W        W40962  34.428  30.219   5.286
68637W        W40963  12.805   3.008   3.241
68638W        W40964   9.313  41.636  12.639
68639W        W40965   4.937  30.831   1.214
68640W        W40966  28.478   7.956   4.058
68641W        W40967  30.382   9.046   2.103
68642W        W40968  28.223  12.217  10.901
68643W        W40969  18.835  42.660   3.338
68644W        W40970   4.943  26.948  12.990
68645W        W40971   1.658  12.220  14.495
68646W        W40972  19.324   6.925   1.275
68647W        W40973  19.579  39.407   0.171
68648W        W40974   8.259  31.121   2.687
68649W        W40975  14.582  29.633  11.095
68650W        W40976   8.275  20.110  14.473
68651W        W40977  20.600   3.535  12.749
68652W        W40978  20.731  24.572  14.987
68653W        W40979  10.654  26.371  12.874
68654W        W40980  18.129  44.247  13.582
68655W        W40981  14.655  33.832  10.495
68656W        W40982   8.274  13.892   0.178
68657W        W40983  44.510  32.768  11.245
68658W        W40984  16.046  40.313  13.752
68659W        W40985  43.571  29.193   3.371
68660W        W40986   6.709  20.555  13.033
68661W        W40987  28.504  43.991   4.625
68662W        W40988  32.149  23.924   2.852
68663W        W40989  29.150  13.328  12.066
68664W        W40990   8.293  26.394  11.946
68665W        W40991  21.741  13.796  13.409
68666W        W40992  14.935  22.072  13.363
68667W        W40993  31.466  37.472  12.177
68668W        W40994   8.090  24.059  13.968
68669W        W40995  17.091   6.786  14.107
68670W        W40996  42.667   5.913  12.748
68671W        W40997  32.611  24.047   2.585
68672W        W40998  22.651  43.379  14.516
68673W        W40999  26.612  18.216   1.722
68674W        W41000  12.724  20.375  13.613
68675W        W41001  19.587  22.828   5.031
68676W        W41002  39.072  14.280   0.806
68677W        W41003  25.235   1.286   3.280
68678W        W41004  10.867  28.269  12.065
68679W        W41005  17.342  39.668   4.486
68680W        W41006  37.828  40.601  12.991
68681W        W41007  18.052  43.884   3.246
68682W        W41008  18.374  34.371  11.530
68683W        W41009  14.293  10.529  13.594
68684W        W41010   0.541   0.561  12.956
68685W        W41011  41.979  24.546  13.094
68686W        W41012   7.272  12.958   0.467
68687W        W41013   6.450  40.303   2.785
68688W        W41014   4.748  16.620  11.167
68689W        W41015  15.281  26.196   3.215
68690W        W41016  25.492  44.930  12.916
68691W        W41017  22.788  41.400  13.028
68692W        W41018   2.185  11.925   1.054
68693W        W41019  25.615  33.613   0.079
68694W        W41020  41.005  42.592   5.065
68695W        W41021  20.722  44.332   1.305
68696W        W41022  41.509  18.083  14.307
68697W        W41023   0.199  30.085   1.861
68698W        W41024  34.925  40.500  13.392
68699W        W41025  33.786  31.945  14.720
68700W        W41026   1.715  29.936  13.819
68701W        W41027  39.608  41.359   2.433
68702W        W41028   3.255  19.932  11.550
68703W        W41029  28.236  16.365  13.574
68704W        W41030  26.342   6.428   2.882
68705W        W41031  17.844  25.321  10.346
68706W        W41032  31.590  41.421   0.521
68707W        W41033  17.182  33.322   3.656
68708W        W41034   8.628   6.394  11.092
68709W        W41035   8.434  27.284   1.433
68710W        W41036  14.887  20.087   2.683
68711W        W41037  21.759  21.266   1.785
68712W        W41038  29.267  41.154  12.039
68713W        W41039  30.504  10.643  13.056
68714W        W41040  17.795   9.780   1.976
68715W        W41041  22.760   3.871  14.881
68716W        W41042  29.609  43.758  10.748
68717W        W41043   5.994   3.757  14.513
68718W        W41044  37.143  17.088  14.778
68719W        W41045  11.066  29.400   3.736
68720W        W41046  16.283   2.214  11.061
68721W        W41047  23.720  12.993  12.440
68722W        W41048  23.747  12.576  11.486
68723W        W41049  14.725  26.268   4.236
68724W        W41050  38.606  17.136   1.720
68725W        W41051   5.390  26.518   0.880
68726W        W41052  28.987  26.124  12.522
68727W        W41053  11.770  34.488  10.598
68728W        W41054  39.407   1.391  10.698
68729W        W41055  30.589  13.190  14.424
68730W        W41056  28.114  10.852  14.019
68731W        W41057  32.442  31.165  14.476
68732W        W41058   8.851  20.715  13.471
68733W        W41059  12.545  19.705  14.800
68734W        W41060  22.146  44.365  13.417
68735W        W41061  23.947  13.712  13.596
68736W        W41062  38.630  14.158  13.341
68737W        W41063   5.581  27.593  11.879
68738W        W41064  40.918  11.288  14.675
68739W        W41065  14.044   7.682  14.881
68740W        W41066  29.209  32.930  12.488
68741W        W41067   5.058   1.571   1.385
68742W        W41068  22.384  11.840  13.989
68743W        W41069   4.464  37.935  12.322
68744W        W41070  42.956  16.561  13.024
68745W        W41071  18.738  14.203  11.245
68746W        W41072  31.453  25.435  13.306
68747W        W41073  15.748  44.849  11.089
68748W        W41074   3.319  22.240   0.912
68749W        W41075  10.418   6.928  10.489
68750W        W41076  31.915  33.628   4.567
68751W        W41077  40.465   5.360  13.984
68752W        W41078  41.244  41.827  14.574
68753W        W41079  13.686   9.642   0.870
68754W        W41080  34.440  42.301   1.183
68755W        W41081  40.617   5.675   3.285
68756W        W41082   7.162  30.334   3.105
68757W        W41083   6.386  25.378  11.924
68758W        W41084  27.520   9.330   2.223
68759W        W41085  19.810   9.759  12.953
68760W        W41086   1.867  28.142   0.948
68761W        W41087  35.641  20.767   0.887
68762W        W41088  36.191  13.397   0.913
68763W        W41089  28.021  34.637   4.403
68764W        W41090  18.261  18.338   0.647
68765W        W41091  21.619   1.715  13.488
68766W        W41092   7.161  40.040  13.804
68767W        W41093   7.811  41.819   3.202
68768W        W41094  15.199   1.197   2.335
68769W        W41095  35.510   3.700   3.749
68770W        W41096  37.336  25.464   1.744
68771W        W41097  37.556  24.002  14.348
68772W        W41098   9.779   4.399  10.768
68773W        W41099  26.836  24.200   0.946
68774W        W41100  34.377   7.401   2.416
68775W        W41101   0.425  31.205  14.097
68776W        W41102  38.165  31.702   0.500
68777W        W41103  11.337  21.850   4.719
68778W        W41104  31.395  15.082  12.972
68779W        W41105  27.692   6.174  11.917
68780W        W41106  20.218  21.348  10.450
68781W        W41107  17.245  11.176   2.789
68782W        W41108  11.132  21.156   1.712
68783W        W41109  40.005   8.603  14.851
68784W        W41110  37.170   8.443   3.360
68785W        W41111  19.868  32.687  11.192
68786W        W41112  11.624   9.299  14.314
68787W        W41113  20.058  38.904  11.645
68788W        W41114  40.493  35.144  12.963
68789W        W41115  26.122  12.787  14.028
68790W        W41116  33.832   9.326  10.627
68791W        W41117  21.850  39.077  10.223
68792W        W41118   7.389   7.197  10.553
68793W        W41119   6.184  14.233   5.014
68794W        W41120   2.889   7.773  10.842
68795W        W41121  11.807  17.512   3.297
68796W        W41122   5.296  42.483   4.597
68797W        W41123  18.622  10.408  12.791
68798W        W41124  11.044  29.143  14.962
68799W        W41125  33.459  33.021  12.509
68800W        W41126  26.583  40.535  14.926
68801W        W41127  40.353  28.449  14.401
68802W        W41128   4.700   1.933  10.589
68803W        W41129  35.889  17.046  14.810
68804W        W41130  38.090  21.905  14.559
68805W        W41131  17.653  17.221   3.731
68806W        W41132   5.666  25.439   2.734
68807W        W41133  15.675  21.150  13.988
68808W        W41134  15.401  26.618  11.571
68809W        W41135  18.740  26.940  14.721
68810W        W41136  32.470  29.010   4.609
68811W        W41137  26.635  42.862   1.873
68812W        W41138  37.568  14.767  11.553
68813W        W41139  35.829  39.679  12.973
68814W        W41140  13.512  40.996   2.411
68815W        W41141  37.794  30.165  11.674
68816W        W41142  37.371  31.963   4.190
68817W        W41143  41.436   6.996   2.627
68818W        W41144  23.510  41.271   2.115
68819W        W41145  22.184  10.331   3.784
68820W        W41146   0.970  40.993   1.417
68821W        W41147  11.570  24.635   4.270
68822W        W41148  44.032  33.572  12.812
68823W        W41149  29.442  33.715  12.622
68824W        W41150  24.953  17.315  11.638
68825W        W41151  33.440  14.802   1.774
68826W        W41152   4.765  10.358  11.572
68827W        W41153  24.996  35.890   0.052
68828W        W41154  21.564  15.653  13.252
68829W        W41155  27.196   0.828   4.282
68830W        W41156  25.470   5.272  12.943
68831W        W41157  36.101  10.221   3.917
68832W        W41158  38.353   0.721  14.349
68833W        W41159  27.589   4.428  12.325
68834W        W41160   0.372  39.473  10.673
68835W        W41161  16.836  44.316  10.735
68836W        W41162   3.241  29.934   4.374
68837W        W41163   8.329   6.208  10.482
68838W        W41164   9.463  42.983   1.364
68839W        W41165   5.406  27.730  14.098
68840W        W41166  24.033  15.616  10.669
68841W        W41167   3.182  44.363  13.429
68842W        W41168   2.424  16.719  10.948
68843W        W41169  15.168  20.606  12.797
68844W        W41170  20.246  43.396   0.402
68845W        W41171  19.183  34.534   3.633
68846W        W41172  28.398   8.446  10.779
68847W        W41173  12.393  43.248   3.593
68848W        W41174   3.947   2.973  10.563
68849W        W41175  34.957  42.296   4.482
68850W        W41176  36.905  40.076   1.788
68851W        W41177   2.361  19.324  11.892
68852W        W41178  25.790  43.901   4.660
68853W        W41179  24.945  31.193   3.214
68854W        W41180  10.782  15.063   2.615
68855W        W41181   5.442  41.459   4.790
68856W        W41182   9.075  20.724   4.299
68857W        W41183  17.250   6.958   2.078
68858W        W41184  39.388  34.856   3.672
68859W        W41185  11.697  16.265   0.281
68860W        W41186  14.108  32.673  13.021
68861W        W41187  17.141  11.767  13.804
68862W        W41188  34.144  12.927   0.937
68863W        W41189  11.918  39.538  11.411
68864W        W41190  21.769  40.851  12.253
68865W        W41191  43.105   6.776  10.726
68866W        W41192  16.007  38.573   3.626
68867W        W41193  43.463  33.065   4.347
68868W        W41194  41.352  29.418  10.763
68869W        W41195  36.833  34.511  11.151
68870W        W41196  11.653  26.992   1.245
68871W        W41197  44.369  12.857  13.478
68872W        W41198  20.057  15.279   4.093
68873W        W41199  24.493  30.700  12.414
68874W        W41200  40.351  27.046  12.197
68875W        W41201  20.653  43.873   4.413
68876W        W41202  11.829  38.566  12.397
68877W        W41203  44.547  30.513   2.690
68878W        W41204  17.334  17.174   0.245
68879W        W41205  15.129  27.645  11.491
68880W        W41206  26.003  35.053  14.357
68881W        W41207  39.315  43.011  10.335
68882W        W41208   7.818  14.884   2.233
68883W        W41209  17.977   2.684  10.978
68884W        W41210  16.196   1.458   4.752
68885W        W41211  22.194  10.152   1.785
68886W        W41212  14.700  31.588   3.877
68887W        W41213  24.229  26.071   2.595
68888W        W41214  43.428  22.287  10.727
68889W        W41215  21.324  15.739   3.165
68890W        W41216  19.827  16.104   1.224
68891W        W41217  12.394  21.150  11.531
68892W        W41218  38.124   7.012  13.981
68893W        W41219  36.378  26.963  14.810
68894W        W41220   7.371  16.078   1.834
68895W        W41221   2.430  37.980   0.721
68896W        W41222  15.715  18.676  12.560
68897W        W41223  28.512  44.330  11.959
68898W        W41224   8.732   8.441   3.247
68899W        W41225   4.780  19.965  12.105
68900W        W41226  22.251  29.182  13.449
68901W        W41227   4.986  17.135   0.410
68902W        W41228  28.417   9.278   3.561
68903W        W41229  18.315  23.306   3.587
68904W        W41230  37.077  34.841  13.958
68905W        W41231  18.606   8.405   1.761
68906W        W41232  28.629  15.857  12.491
68907W        W41233   1.284   3.964   0.906
68908W        W41234   2.457  16.839   2.614
68909W        W41235  43.462  13.149   1.407
68910W        W41236  21.262  40.916   4.356
68911W        W41237  40.948  29.106   4.546
68912W        W41238   5.878  35.869   2.637
68913W        W41239   7.645  24.974   2.243
68914W        W41240  23.259  21.568  13.381
68915W        W41241   1.009   4.875  12.450
68916W        W41242  39.907   1.218  10.677
68917W        W41243  36.603  35.439  13.491
68918W        W41244  10.107  34.998   4.115
68919W        W41245  20.339  13.672  13.284
68920W        W41246  19.467  23.417  12.078
68921W        W41247   7.327  16.328   3.107
68922W        W41248  40.029  36.020   2.742
68923W        W41249  35.231  38.816  11.954
68924W        W41250   6.919  24.693   2.762
68925W        W41251  11.835   5.950   3.308
68926W        W41252  11.486  42.019  10.685
68927W        W41253   6.881   9.711   2.261
68928W        W41254   3.739  33.598  12.445
68929W        W41255  42.476   4.732  12.966
68930W        W41256  22.305   5.660  12.393
68931W        W41257  15.656  35.884  14.390
68932W        W41258  26.427   9.988  13.345
68933W        W41259   8.214   6.824   1.559
68934W        W41260   2.716  41.568   1.202
68935W        W41261  21.402  42.746   0.723
68936W        W41262  33.796   6.321   2.655
68937W        W41263   7.758  10.084  13.936
68938W        W41264  34.596  10.695   0.787
68939W        W41265  19.902  39.005  13.896
68940W        W41266  32.587  17.139  11.228
68941W        W41267  16.063   8.254   2.690
68942W        W41268  29.459  19.181   4.103
68943W        W41269  36.563   5.323   2.338
68944W        W41270  37.933  14.168   2.993
68945W        W41271   1.452  36.912   2.620
68946W        W41272  29.508  21.056  14.843
68947W        W41273   8.235  15.244   4.288
68948W        W41274  38.606  31.354   2.788
68949W        W41275   4.228  33.221  13.004
68950W        W41276  43.434  19.556  14.353
68951W        W41277   6.709  22.487  12.439
68952W        W41278  33.688  28.155   3.184
68953W        W41279  30.476  18.554  10.925
68954W        W41280  41.043  21.220  10.479
68955W        W41281  41.438  31.723   4.063
68956W        W41282  14.725  26.778   4.259
68957W        W41283  40.835  10.567  12.135
68958W        W41284  32.216  43.306   2.750
68959W        W41285   2.224   0.349  14.340
68960W        W41286   1.649  31.093   0.744
68961W        W41287   2.254   5.329  12.074
68962W        W41288   0.518  27.064   2.151
68963W        W41289  23.248   3.840   0.650
68964W        W41290  26.033   2.741   1.390
68965W        W41291  31.206   8.384  14.368
68966W        W41292  28.470  36.763   1.829
68967W        W41293  20.551   1.470   2.677
68968W        W41294   8.825   3.288   0.377
68969W        W41295   5.470  26.174  12.527
68970W        W41296  21.661   2.306  14.753
68971W        W41297  37.407  25.752   4.142
68972W        W41298   1.800  22.308   0.311
68973W        W41299   0.821  28.143   4.601
68974W        W41300  13.833  29.595   0.209
68975W        W41301  37.937  12.323  14.577
68976W        W41302  41.813  30.194  11.709
68977W        W41303   8.611  14.262   2.357
68978W        W41304  42.843  28.890   4.291
68979W        W41305   8.145  19.561  14.726
68980W        W41306  38.688  24.814  11.061
68981W        W41307  13.360  23.621  14.605
68982W        W41308  13.352  24.784  10.058
68983W        W41309  27.053   1.374   2.903
68984W        W41310  13.392  44.188  12.397
68985W        W41311   2.820   0.410  10.726
68986W        W41312  26.956  36.158  13.354
68987W        W41313   3.988  38.419  10.305
68988W        W41314   1.389   7.907   0.833
68989W        W41315   6.311  18.613  12.865
68990W        W41316  25.122  44.936   4.002
68991W        W41317   7.300  43.384   4.207
68992W        W41318  44.435  35.925  12.537
68993W        W41319  41.709  17.238   0.885
68994W        W41320  39.467  11.110   0.320
68995W        W41321  41.336  23.624   1.487
68996W        W41322   3.884  26.696  14.354
68997W        W41323  32.430  44.783   0.489
68998W        W41324  17.042  20.396  12.540
68999W        W41325  12.756  36.699  13.333
69000W        W41326  39.481  22.050   0.832
69001W        W41327  28.394  38.935  14.454
69002W        W41328  44.418  13.909  11.445
69003W        W41329  21.295  16.958  10.141
69004W        W41330   6.220   7.444   4.277
69005W        W41331  20.725  23.463  13.358
69006W        W41332  24.621  37.653  12.112
69007W        W41333   5.746   4.746  13.629
69008W        W41334  40.284  28.162  13.008
69009W        W41335  42.019  27.369   3.313
69010W        W41336   8.616   3.741   4.599
69011W        W41337  24.717  26.998  14.772
69012W        W41338  23.726  44.263  10.946
69013W        W41339  35.599  18.047  14.841
69014W        W41340  34.057  29.111  12.168
69015W        W41341   6.267   2.319  13.333
69016W        W41342  16.686  11.166   0.381
69017W        W41343  10.233  38.167   4.233
69018W        W41344  37.473  26.726   1.427
69019W        W41345  32.133  21.535   2.305
69020W        W41346   7.861  32.789   0.242
69021W        W41347  17.550  23.558   0.965
69022W        W41348  12.847  21.076  13.506
69023W        W41349   4.474   0.378  11.660
69024W        W41350  15.601   9.429   4.688
69025W        W41351  30.022  17.577   3.772
69026W        W41352  19.412  17.905  10.697
69027W        W41353   4.683  16.831  10.175
69028W        W41354   6.439  40.426  14.682
69029W        W41355  28.178  31.518   2.411
69030W        W41356   5.163  34.612   3.848
69031W        W41357  23.728  18.130   2.071
69032W        W41358  39.403  30.821   1.801
69033W        W41359   1.970   8.921  10.685
69034W        W41360  44.876  36.592  11.625
69035W        W41361  40.565  27.482  11.955
69036W        W41362   4.488   2.516   0.688
69037W        W41363  12.847  26.048   2.152
69038W        W41364  24.183  26.187   0.453
69039W        W41365  14.751  36.095  10.429
69040W        W41366  23.300  20.044  12.022
69041W        W41367  21.986   1.997  10.943
69042W        W41368  34.750  37.558   3.129
69043W        W41369   9.953  38.442  11.542
69044W        W41370  44.397  35.467  11.508
69045W        W41371  16.076   0.157  13.942
69046W        W41372  12.675  24.912   0.628
69047W        W41373  37.529   1.547  13.333
69048W        W41374   1.899  23.292  12.910
69049W        W41375   7.224   9.482  13.543
69050W        W41376  42.920  42.622   3.219
69051W        W41377   6.193  31.641   3.681
69052W        W41378   6.511  14.743   2.673
69053W        W41379  10.575   1.093   0.906
69054W        W41380  33.879  36.484  11.065
69055W        W41381  28.950  14.379   1.355
69056W        W41382  19.661  39.634   1.436
69057W        W41383   3.937  17.729   1.202
69058W        W41384  38.835  43.287  11.052
69059W        W41385  36.586  20.971  13.819
69060W        W41386  21.472  24.891  12.939
69061W        W41387  10.243  39.757   0.517
69062W        W41388  41.310  27.175   0.562
69063W        W41389   8.908  29.348  13.559
69064W        W41390   1.346   1.859   1.790
69065W        W41391  21.358   0.278   2.637
69066W        W41392  23.724   4.195   0.481
69067W        W41393  19.602  13.899  13.965
69068W        W41394  11.716  44.031  14.927
69069W        W41395   0.546   0.720  12.457
69070W        W41396   3.762  32.976  12.927
69071W        W41397   1.772  13.849   2.260
69072W        W41398  44.927   9.366   1.568
69073W        W41399  32.332  10.798  11.415
69074W        W41400  16.692   0.327   1.843
69075W        W41401  26.942  16.694  13.896
69076W        W41402  22.545  10.699  12.913
69077W        W41403  11.365  19.159   4.727
69078W        W41404  15.029  11.091   0.667
69079W        W41405  11.269  16.885   2.626
69080W        W41406  39.375  13.780  12.600
69081W        W41407  19.591  40.382   1.968
69082W        W41408   0.910  40.519   3.775
69083W        W41409  33.973  24.360  14.515
69084W        W41410  30.167   4.247   4.613
69085W        W41411  39.105  14.643  14.378
69086W        W41412  35.600  12.284   3.710
69087W        W41413  34.189   3.390   1.218
69088W        W41414  25.089  34.895  13.735
69089W        W41415  26.623   6.264   1.856
69090W        W41416   7.943  14.843   4.180
69091W        W41417  11.638  10.587  10.648
69092W        W41418  17.344   3.009   4.086
69093W        W41419  18.975  29.189  13.077
69094W        W41420  15.120  29.586   2.756
69095W        W41421  40.489  11.737  10.271
69096W        W41422  32.810   8.207   2.941
69097W        W41423  32.833  24.837  12.995
69098W        W41424  35.499  25.924   0.772
69099W        W41425  23.755  11.232   2.361
69100W        W41426  37.349  12.224   0.421
69101W        W41427  10.571  26.264  14.897
69102W        W41428  41.976   2.002   4.801
69103W        W41429  35.501   9.167   4.631
69104W        W41430   1.388   6.674  13.706
69105W        W41431   3.467  35.372   0.451
69106W        W41432   7.135  20.812  12.898
69107W        W41433  11.767  40.637   5.081
69108W        W41434   7.957  32.966  12.334
69109W        W41435  42.205  22.254  14.915
69110W        W41436  39.801   7.150   0.839
69111W        W41437   0.913   7.121   3.822
69112W        W41438  11.288  39.855  12.891
69113W        W41439  37.530  31.495   4.371
69114W        W41440  31.373  44.951   1.212
69115W        W41441  27.124  26.136   1.376
69116W        W41442  32.033  26.208   2.256
69117W        W41443  35.704  28.327   1.748
69118W        W41444  38.299  24.003  12.055
69119W        W41445   3.924  21.485   4.144
69120W        W41446  32.504  15.120   2.109
69121W        W41447  34.456  38.926  11.661
69122W        W41448  19.879   3.643   0.940
69123W        W41449  30.256  13.213   4.123
69124W        W41450  32.553   2.823   1.425
69125W        W41451  42.122  41.301  13.543
69126W        W41452  43.677   4.932   3.422
69127W        W41453  19.824   7.929   1.947
69128W        W41454   0.585  44.303   1.298
69129W        W41455  22.595  40.440   3.929
69130W        W41456  15.663  19.897   3.308
69131W        W41457   4.248  29.633  14.697
69132W        W41458  19.598  43.750   1.973
69133W        W41459  12.662  39.572  13.865
69134W        W41460  18.635  18.953  14.465
69135W        W41461  42.801  11.730   1.325
69136W        W41462  35.212  44.321   4.699
69137W        W41463  24.757  26.847  11.143
69138W        W41464  43.044  17.694   3.790
69139W        W41465  16.803  10.820   1.490
69140W        W41466  27.860   3.427  10.655
69141W        W41467   0.549  35.597  14.900
69142W        W41468  33.540  42.731   3.950
69143W        W41469  21.077  38.144   0.462
69144W        W41470   0.818  17.057   3.284
69145W        W41471  29.739   2.303   2.278
69146W        W41472  32.359   7.182  12.928
69147W        W41473  15.852  20.653  13.901
69148W        W41474  39.947  25.414  13.479
69149W        W41475   6.442  16.372  14.457
69150W        W41476   9.058  35.396   2.832
69151W        W41477   0.892   4.294  14.567
69152W        W41478  33.082  26.501   2.804
69153W        W41479  23.580  32.439  12.371
69154W        W41480   2.092  41.303  13.957
69155W        W41481  21.263  23.889  11.477
69156W        W41482  15.162  43.549   0.073
69157W        W41483   7.852   9.273   4.656
69158W        W41484  42.941  37.225   1.258
69159W        W41485  19.361  24.643   2.352
69160W        W41486   5.365  12.293   0.684
69161W        W41487  31.580  16.777  13.482
69162W        W41488  42.498  25.084  13.976
69163W        W41489  35.050  15.708   1.501
69164W        W41490  28.647   7.406   4.923
69165W        W41491  10.577  29.013   1.985
69166W        W41492  26.633  21.983  12.480
69167W        W41493  29.999  30.948   3.442
69168W        W41494  39.888   7.640  12.924
69169W        W41495  10.406  37.011  14.767
69170W        W41496  39.790  41.342   0.829
69171W        W41497   2.049  15.161   3.603
69172W        W41498   7.733  33.653   4.567
69173W        W41499  31.493   0.250   3.104
69174W        W41500   6.429  29.013   1.455
69175W        W41501  41.480  23.243  11.605
69176W        W41502  24.160   9.892   4.790
69177W        W41503  14.230  20.955  14.952
69178W        W41504   0.367  12.665   4.547
69179W        W41505  24.900  35.712   1.204
69180W        W41506  15.213  14.895  11.353
69181W        W41507  28.230  13.000   1.026
69182W        W41508  38.339  26.217  11.075
69183W        W41509   5.776   4.679  11.188
69184W        W41510  39.264  18.677  12.001
69185W        W41511   7.483  44.916   0.374
69186W        W41512   3.253   7.725  13.416
69187W        W41513  39.213  15.396   4.622
69188W        W41514  12.461  12.700  12.373
69189W        W41515  14.384  15.681  12.134
69190W        W41516  15.573  26.625   3.673
69191W        W41517  13.230   3.935  14.953
69192W        W41518  33.426  23.223  13.864
69193W        W41519  29.886  33.381   0.087
69194W        W41520  33.478  26.995  10.482
69195W        W41521  42.766  27.373  14.096
69196W        W41522   3.770  12.191   4.844
69197W        W41523  14.484  25.285   5.037
69198W        W41524  22.757  24.468   2.388
69199W        W41525  41.886  21.631   4.612
69200W        W41526   7.083   9.630   0.821
69201W        W41527  19.505  15.880   0.878
69202W        W41528   3.256   3.327  10.123
69203W        W41529   8.866   9.963   2.215
69204W        W41530  29.574  17.368   4.567
69205W        W41531  26.238  39.508   4.521
69206W        W41532  39.285  44.259   3.866
69207W        W41533  23.960  16.758  12.065
69208W        W41534  13.876  23.191   0.277
69209W        W41535   4.225  17.193  14.088
69210W        W41536   8.808  40.386   3.707
69211W        W41537  44.309   9.848   2.761
69212W        W41538  12.325  18.783   3.755
69213W        W41539  11.856   9.779   4.678
69214W        W41540  38.725  43.771   4.155
69215W        W41541  21.047  35.084   2.919
69216W        W41542   5.023   3.769  13.466
69217W        W41543   3.437  36.399  12.990
69218W        W41544  22.219  21.156   1.972
69219W        W41545  22.908  11.653   3.202
69220W        W41546  26.694   0.999   5.115
69221W        W41547   1.294   9.821  11.592
69222W        W41548  11.301  35.464  11.421
69223W        W41549  29.944   5.568   4.179
69224W        W41550  41.055   0.834   3.176
69225W        W41551  15.238   2.833   1.867
69226W        W41552  13.075  11.435   9.998
69227W        W41553  24.211   1.918   0.819
69228W        W41554  38.069   3.060  11.120
69229W        W41555  37.005  19.308   0.849
69230W        W41556  27.459  20.601  14.854
69231W        W41557  14.739  23.791   4.462
69232W        W41558  22.316  20.688   0.371
69233W        W41559   8.597  20.382   0.550
69234W        W41560  32.666  19.011  10.744
69235W        W41561  28.519  37.432   0.906
69236W        W41562   0.017  39.658   2.810
69237W        W41563  16.856  12.232  14.488
69238W        W41564  35.865  29.936   3.846
69239W        W41565   5.500  22.472  13.937
69240W        W41566  38.375  44.938  10.585
69241W        W41567  29.993  35.756  12.134
69242W        W41568  35.339  16.479   3.665
69243W        W41569  13.738  11.552  12.453
69244W        W41570  34.998  23.071   4.580
69245W        W41571   2.316  17.168  13.144
69246W        W41572  27.583  32.169   4.572
69247W        W41573  14.372  39.635  13.537
69248W        W41574  26.468  12.843  12.367
69249W        W41575   7.657  28.082  11.143
69250W        W41576   7.737  12.106  14.813
69251W        W41577  28.106  38.287   3.490
69252W        W41578  13.572   2.654  13.628
69253W        W41579  12.613   1.387   4.760
69254W        W41580  34.678  21.137   0.396
69255W        W41581  25.700  21.709   2.225
69256W        W41582  35.135  27.776  13.729
69257W        W41583  33.988  38.876   3.657
69258W        W41584  11.110  18.813  12.607
69259W        W41585  40.531  11.634  14.802
69260W        W41586   7.401   5.526   2.662
69261W        W41587  22.315  43.332   3.699
69262W        W41588  15.589  26.565  12.429
69263W        W41589  21.823  41.153  14.558
69264W        W41590  18.689   8.369   4.028
69265W        W41591   9.275  14.582   2.542
69266W        W41592   9.183  15.143  11.535
69267W        W41593  43.317  34.668  14.829
69268W        W41594  11.693   9.012   1.694
69269W        W41595  16.228   2.908   4.700
69270W        W41596   0.701  38.591   4.958
69271W        W41597   3.236  28.417   4.539
69272W        W41598   2.912  12.342   2.378
69273W        W41599  19.332  16.184   1.295
69274W        W41600  35.853   1.220  12.529
69275W        W41601  16.844  23.655   4.553
69276W        W41602   2.923   9.898  10.668
69277W        W41603   6.253  13.323  13.514
69278W        W41604  26.879   7.291   0.802
69279W        W41605  42.178  40.685   5.171
69280W        W41606  39.386   3.844   4.204
69281W        W41607  32.872  18.644  14.673
69282W        W41608  17.273  40.186   4.555
69283W        W41609  28.484  44.870  10.610
69284W        W41610  39.864  38.046  11.965
69285W        W41611   2.003  28.219   1.744
69286W        W41612   3.488  37.126   4.394
69287W        W41613  14.126  37.399  10.265
69288W        W41614  26.492  11.776  12.829
69289W        W41615  19.651  43.061  10.744
69290W        W41616   7.020  27.502   1.262
69291W        W41617  29.472  20.295  14.537
69292W        W41618  18.227  10.736  10.573
69293W        W41619  32.211  28.973  11.723
69294W        W41620  24.145  44.888   4.153
69295W        W41621  30.391  41.336  13.461
69296W        W41622  42.584  12.810   1.732
69297W        W41623   4.442  40.431  13.455
69298W        W41624  10.604  26.887  12.883
69299W        W41625  42.299  40.214   2.379
69300W        W41626  10.886  33.593  14.251
69301W        W41627  29.041   2.225  13.587
69302W        W41628  33.144  39.415  13.331
69303W        W41629  44.654   8.886   2.820
69304W        W41630   9.759  23.777   2.350
69305W        W41631  32.965   4.840  12.155
69306W        W41632  19.229  19.724   4.199
69307W        W41633  12.375  15.068   2.840
69308W        W41634  23.007   5.270  14.368
69309W        W41635  19.318  25.403  13.387
69310W        W41636  24.942   5.489  11.861
69311W        W41637   1.852  38.807   3.081
69312W        W41638  40.972  19.084   3.227
69313W        W41639  15.202  13.258   3.667
69314W        W41640   4.189  23.672  13.922
69315W        W41641   6.495  12.653   3.570
69316W        W41642  10.447   5.941  12.003
69317W        W41643   0.464  39.387  14.358
69318W        W41644  37.684  20.662  11.263
69319W        W41645  28.296  22.159   2.843
69320W        W41646   6.927  44.561   4.080
69321W        W41647  23.164  22.099   2.727
69322W        W41648  38.362  44.661   0.133
69323W        W41649   2.789  30.964  12.759
69324W        W41650   8.727  17.814   3.922
69325W        W41651   3.069   5.259  11.073
69326W        W41652  25.516   1.494  10.912
69327W        W41653  30.373   0.932  11.125
69328W        W41654   3.775  42.502  10.650
69329W        W41655  13.560  12.420   2.859
69330W        W41656  44.368  40.106   3.244
69331W        W41657   1.717  37.159  11.052
69332W        W41658  42.773  42.844   4.704
69333W        W41659  24.618  16.663  12.787
69334W        W41660  28.464  18.255   3.684
69335W        W41661  24.197  26.585  13.749
69336W        W41662  30.142  19.287  12.486
69337W        W41663  16.155  19.646   0.710
69338W        W41664  36.872   4.887  13.394
69339W        W41665  36.812   1.944  12.005
69340W        W41666   3.445  42.771   2.896
69341W        W41667  31.450   7.864   2.787
69342W        W41668  23.917  30.076   3.178
69343W        W41669  37.572  11.461   2.136
69344W        W41670  34.518  24.526   2.266
69345W        W41671  29.765  12.810  11.590
69346W        W41672  21.969  39.252   2.417
69347W        W41673  35.017  38.120   2.335
69348W        W41674  30.165  23.040   3.676
69349W        W41675  23.303   7.336   1.115
69350W        W41676  19.460  11.145   2.860
69351W        W41677  22.296  16.801  13.077
69352W        W41678  27.683  17.657   1.228
69353W        W41679  10.598  22.673   2.395
69354W        W41680  21.323  12.121  14.616
69355W        W41681  35.166  37.582   1.676
69356W        W41682   2.265  31.915   3.960
69357W        W41683  44.469  19.083   0.032
69358W        W41684  20.623   3.486   0.890
69359W        W41685  28.482  25.727  14.526
69360W        W41686  37.799  32.592   0.436
69361W        W41687  38.702  21.561   1.711
69362W        W41688  43.213   2.048   3.834
69363W        W41689  29.598  40.923   0.273
69364W        W41690   7.581  26.618  13.096
69365W        W41691   5.482   3.397   1.278
69366W        W41692  43.758  32.665  11.582
69367W        W41693  33.408  13.069   4.235
69368W        W41694  32.064  13.052  13.390
69369W        W41695  17.685  13.133   2.386
69370W        W41696  37.904  41.352  10.780
69371W        W41697  18.742  16.685   3.366
69372W        W41698  15.776  15.073  12.563
69373W        W41699   5.619  25.009   3.670
69374W        W41700  11.578  41.735  11.505
69375W        W41701   8.818  42.543   3.327
69376W        W41702  35.780  39.371   1.083
69377W        W41703   8.871  16.103   1.806
69378W        W41704  18.800  17.128  10.695
69379W        W41705  27.208  24.594  12.758
69380W        W41706   3.508  23.526  10.681
69381W        W41707   5.840  33.548   4.145
69382W        W41708  28.131  14.400  11.791
69383W        W41709   6.845   6.326  14.930
69384W        W41710  41.851  22.541   2.768
69385W        W41711  37.699  39.979  11.421
69386W        W41712  43.057  12.246  14.039
69387W        W41713   4.046  28.107  10.094
69388W        W41714  24.009   1.941   3.848
69389W        W41715   5.311  43.057  12.828
69390W        W41716   1.541  23.334   3.373
69391W        W41717  16.569  36.259   3.281
69392W        W41718   1.539  15.160   0.222
69393W        W41719   0.878  34.029   0.002
69394W        W41720  11.210  25.715   1.291
69395W        W41721  40.258  21.482  13.521
69396W        W41722   1.376  31.485   2.629
69397W        W41723  35.698  18.947  11.466
69398W        W41724  26.824  43.813   4.569
69399W        W41725  10.767   4.112  10.679
69400W        W41726  24.487   7.827   3.094
69401W        W41727  42.513  36.951  13.506
69402W        W41728   4.090  11.587  12.091
69403W        W41729  38.546  10.412   1.756
69404W        W41730  26.774  26.462   5.306
69405W        W41731   4.779  26.396   4.992
69406W        W41732   4.046  37.961  13.487
69407W        W41733  39.753   3.285  12.656
69408W        W41734   8.363   1.128   3.605
69409W        W41735   0.998   6.203   4.966
69410W        W41736  42.802  32.928  11.553
69411W        W41737  32.633  27.752  14.957
69412W        W41738  40.341  21.079  13.186
69413W        W41739   8.186  42.436  11.413
69414W        W41740  26.062   1.890   4.253
69415W        W41741  30.554  17.089   2.167
69416W        W41742  26.637   8.436   1.781
69417W        W41743  21.105  16.881  13.571
69418W        W41744  19.301   7.403   3.132
69419W        W41745  11.885  42.741   0.362
69420W        W41746  32.584  30.992   3.112
69421W        W41747   5.697  20.299   1.746
69422W        W41748  34.921  14.748   2.013
69423W        W41749  25.977   9.263  12.373
69424W        W41750  24.988  36.632   0.368
69425W        W41751   0.442  34.824   3.645
69426W        W41752  19.543  16.528  14.860
69427W        W41753  40.384  32.256  14.338
69428W        W41754  27.633   2.785   1.332
69429W        W41755   5.061  10.152  13.588
69430W        W41756  27.609  44.058   2.947
69431W        W41757   3.437  18.677   3.922
69432W        W41758  36.448  35.055  10.191
69433W        W41759  38.380  26.615  11.677
69434W        W41760  12.739  17.678   2.194
69435W        W41761  22.526  17.301   0.303
69436W        W41762  22.486  11.466   2.163
69437W        W41763   2.424  25.088  13.459
69438W        W41764  37.417  23.505  14.335
69439W        W41765   5.879  44.853   4.552
69440W        W41766   0.785  30.115  14.020
69441W        W41767  16.721  11.704   1.655
69442W        W41768  34.415  44.011   2.256
69443W        W41769  12.570  30.750  11.983
69444W        W41770  39.657  21.079  14.861
69445W        W41771  27.468   0.218  12.886
69446W        W41772   5.982  12.743   3.626
69447W        W41773  30.068  33.580  11.478
69448W        W41774  16.412   8.959  11.468
69449W        W41775  38.846   3.330   4.667
69450W        W41776   2.310  15.838   0.432
69451W        W41777   3.420  27.981  14.807
69452W        W41778  37.563  19.079   2.839
69453W        W41779  23.499  22.917   2.766
69454W        W41780  34.896  41.423   0.506
69455W        W41781  28.582   6.339   4.756
69456W        W41782   6.922  34.656   1.254
69457W        W41783   0.468  42.363   0.424
69458W        W41784   2.322  32.344  13.908
69459W        W41785  26.407  34.176   3.157
69460W        W41786  26.759  15.213   4.380
69461W        W41787  12.772  29.882  11.210
69462W        W41788  25.515  23.101   2.949
69463W        W41789  41.543  22.322  13.338
69464W        W41790   7.735  35.097  11.113
69465W        W41791  22.059  26.634   1.481
69466W        W41792   6.407  22.211  13.472
69467W        W41793  27.270  23.019  11.270
69468W        W41794  31.498  41.785   3.327
69469W        W41795  33.652  19.039   0.808
69470W        W41796  41.999  38.049  12.004
69471W        W41797  18.694  34.728   3.673
69472W        W41798  17.602  22.745  12.641
69473W        W41799   7.735  24.020   1.325
69474W        W41800  18.740   4.569  13.550
69475W        W41801   0.351  32.108  13.345
69476W        W41802   9.798  16.793  14.854
69477W        W41803  38.322  13.095   1.021
69478W        W41804  16.553  24.506  13.021
69479W        W41805  26.521  14.047   3.759
69480W        W41806   2.325  31.595  11.080
69481W        W41807  25.904  13.215  14.489
69482W        W41808  14.172   7.854   2.826
69483W        W41809  23.602  22.601   4.546
69484W        W41810  20.607  38.182   3.621
69485W        W41811  17.679  25.422  14.806
69486W        W41812  23.275  36.100  12.084
69487W        W41813  26.991  44.704   3.378
69488W        W41814  41.027  35.283   4.983
69489W        W41815   8.251  33.022   0.529
69490W        W41816  39.018  15.754   2.663
69491W        W41817  14.150   7.789  11.463
69492W        W41818  43.703  34.044   0.978
69493W        W41819  21.967  27.791  12.562
69494W        W41820  15.235  13.134   0.367
69495W        W41821  13.193  29.456   2.745
69496W        W41822   0.060   0.439  13.173
69497W        W41823  36.502  41.366  13.871
69498W        W41824  39.014  25.208  10.301
69499W        W41825  13.655  37.522   4.626
69500W        W41826  20.521  34.986   3.126
69501W        W41827  22.026  33.760  13.519
69502W        W41828  42.070  30.886   1.198
69503W        W41829  23.634  30.993   1.686
69504W        W41830  35.097  11.603  12.962
69505W        W41831  38.352  24.957   1.801
69506W        W41832  34.351  26.196   3.971
69507W        W41833  10.370  19.247  13.981
69508W        W41834  34.886   9.716  13.791
69509W        W41835   0.308  12.533  13.843
69510W        W41836  41.066  22.051   0.403
69511W        W41837  27.295  23.340   0.992
69512W        W41838  24.632  25.901   4.219
69513W        W41839  14.742  29.472   2.374
69514W        W41840  22.872  42.930  11.511
69515W        W41841  25.250  20.504  10.409
69516W        W41842  29.973  14.098  13.082
69517W        W41843  22.627   1.697   0.314
69518W        W41844  15.304  35.930   0.577
69519W        W41845  40.760  33.489  14.824
69520W        W41846   5.903  23.293   3.816
69521W        W41847  21.071  38.913   5.193
69522W        W41848  21.706  32.755  12.184
69523W        W41849   5.185   1.318   3.097
69524W        W41850   8.845  29.937   4.857
69525W        W41851  30.954  19.717   2.091
69526W        W41852  30.489  36.344   4.659
69527W        W41853   0.181  24.151   0.647
69528W        W41854  18.693  20.208  13.876
69529W        W41855   3.378  28.644   2.393
69530W        W41856  14.565  42.572  14.100
69531W        W41857  14.779  32.974  14.796
69532W        W41858   3.919  21.446   1.800
69533W        W41859  40.116  29.097  10.679
69534W        W41860   8.042  26.067  13.511
69535W        W41861  40.773  32.129   2.405
69536W        W41862   2.442  24.038  10.238
69537W        W41863  14.291  35.337  10.552
69538W        W41864  26.492  42.453   3.138
69539W        W41865  17.100   2.459  11.541
69540W        W41866  44.271  25.421   2.678
69541W        W41867  31.543   0.234   0.327
69542W        W41868   7.793   1.591  11.434
69543W        W41869  18.411  41.588  12.547
69544W        W41870  44.988  12.309   0.920
69545W        W41871  40.816   7.681   4.523
69546W        W41872  10.112  16.788  14.452
69547W        W41873  42.433   2.328   2.904
69548W        W41874  29.180  40.830   3.684
69549W        W41875  22.739  38.366   1.206
69550W        W41876  26.063  33.406  13.307
69551W        W41877  13.066   7.643  10.698
69552W        W41878   6.222  30.893  14.193
69553W        W41879  33.384   1.177  11.992
69554W        W41880  24.332  43.470  11.344
69555W        W41881  35.277  28.081   3.384
69556W        W41882  29.017  30.110   0.167
69557W        W41883  30.668  40.049  12.525
69558W        W41884  34.539  26.400   4.772
69559W        W41885  41.316  38.538   1.393
69560W        W41886  33.809  40.553  11.135
69561W        W41887  13.878  31.058   3.166
69562W        W41888  29.637  16.134  14.348
69563W        W41889   3.038  13.209   3.654
69564W        W41890   9.605  42.894  13.098
69565W        W41891  27.342  35.650  11.301
69566W        W41892  43.715  35.654   4.705
69567W        W41893   1.385  35.755   1.817
69568W        W41894  12.078  14.414   3.713
69569W        W41895  27.649  20.764   3.786
69570W        W41896  24.678  36.022   0.868
69571W        W41897  30.012  35.011   3.032
69572W        W41898  20.127  27.948   4.698
69573W        W41899   5.237  31.440   1.556
69574W        W41900  36.634  44.767   3.903
69575W        W41901  35.170  13.812  10.842
69576W        W41902  36.921  35.989  12.640
69577W        W41903  17.026  13.153   4.745
69578W        W41904  39.499   2.775   1.780
69579W        W41905  20.013  13.482  11.638
69580W        W41906  20.002   3.697   2.855
69581W        W41907  23.286   3.032   3.894
69582W        W41908   3.457  33.545  11.573
69583W        W41909  33.575   9.128  11.668
69584W        W41910  40.046  10.775   0.748
69585W        W41911  26.893  17.223   0.420
69586W        W41912  18.614  22.410   5.038
69587W        W41913  27.214  39.895   2.253
69588W        W41914   3.922  34.917   4.808
69589W        W41915  35.876  42.339  12.864
69590W        W41916  39.515  19.316  14.868
69591W        W41917  38.643  34.071   3.161
69592W        W41918   9.211  24.252   1.778
69593W        W41919  28.189   4.713  10.826
69594W        W41920   4.847  21.964  11.462
69595W        W41921  18.223  40.363   0.076
69596W        W41922  16.184  14.140   1.437
69597W        W41923  40.454  25.463  10.566
69598W        W41924  10.753  23.917  13.212
69599W        W41925   7.778  44.538  14.405
69600W        W41926  30.277  35.095  13.778
69601W        W41927  32.553  37.503  14.427
69602W        W41928  33.429  16.800  10.125
69603W        W41929  41.487  36.963  13.523
69604W        W41930   0.613   2.264   0.110
69605W        W41931  12.823  19.068   1.438
69606W        W41932  11.153  13.661   0.226
69607W        W41933   5.154  10.338   2.515
69608W        W41934  31.813  36.054   4.067
69609W        W41935   3.464  44.399   0.785
69610W        W41936  11.566  25.255  12.379
69611W        W41937   2.716  16.236   1.853
69612W        W41938  23.485  15.611  11.585
69613W        W41939  40.857   7.968   2.735
69614W        W41940  22.196  19.639  11.380
69615W        W41941  38.146  14.393   2.561
69616W        W41942   5.803  41.530  11.249
69617W        W41943  18.766  19.473   1.744
69618W        W41944  43.719  18.813   3.515
69619W        W41945   7.610  43.031   5.129
69620W        W41946  10.437  42.748   3.671
69621W        W41947  20.790  20.459  11.106
69622W        W41948   8.196  11.129  10.716
69623W        W41949  36.100  11.571   1.653
69624W        W41950   6.775  42.432   4.874
69625W        W41951   3.410  17.150   4.173
69626W        W41952  26.962  29.504  12.059
69627W        W41953  29.640  35.356   3.218
69628W        W41954  44.000  25.688  12.115
69629W        W41955  42.026  26.366   3.115
69630W        W41956  41.319  35.330  11.265
69631W        W41957  37.456  13.445  11.331
69632W        W41958  22.940  39.990   9.524
69633W        W41959  14.615  32.215   2.398
69634W        W41960  22.977   5.751   4.654
69635W        W41961  43.024  18.258   0.350
69636W        W41962   0.319  38.578  10.621
69637W        W41963  29.092  39.353   2.585
69638W        W41964  31.735  14.686   3.134
69639W        W41965   5.423  40.852  13.464
69640W        W41966  30.233  22.044  13.614
69641W        W41967  17.195  33.516   0.771
69642W        W41968  12.302  20.313   3.697
69643W        W41969  19.042   5.820   4.134
69644W        W41970   7.397  18.996   2.854
69645W        W41971  42.732   7.336  13.526
69646W        W41972  10.465   6.695   1.473
69647W        W41973   7.568  29.243  11.617
69648W        W41974   2.591  34.847  12.529
69649W        W41975  11.943  13.302  11.766
69650W        W41976  26.912  13.252  11.183
69651W        W41977  12.851   0.938   3.422
69652W        W41978  26.559  32.921  12.046
69653W        W41979  32.600  11.841  11.711
69654W        W41980  18.808  20.524  12.331
69655W        W41981  41.018  42.845   0.102
69656W        W41982  36.868   8.833   0.481
69657W        W41983  21.154  20.102  13.754
69658W        W41984  41.330  20.513   4.722
69659W        W41985  29.181   8.812  11.888
69660W        W41986   4.742  15.373   1.876
69661W        W41987  28.074  12.130   3.073
69662W        W41988  14.743  10.660   0.736
69663W        W41989   2.424  15.362  14.165
69664W        W41990  43.277  35.678   2.434
69665W        W41991  30.316  22.531   2.667
69666W        W41992  15.320   8.303  14.818
69667W        W41993  27.184  36.952  11.478
69668W        W41994  14.689  21.250   0.675
69669W        W41995  20.161  26.582   0.043
69670W        W41996  21.734  14.879   2.291
69671W        W41997  41.881  11.360  13.505
69672W        W41998  43.406  30.791  10.417
69673W        W41999  34.764  24.974   2.454
69674W        W42000  28.494   0.642   1.242
69675W        W42001  16.529  33.263   1.645
69676W        W42002   3.199   2.193   4.336
69677W        W42003  10.688   3.838  14.930
69678W        W42004  10.207  33.163   3.551
69679W        W42005  27.358  36.027   2.807
69680W        W42006  19.459   8.870   4.014
69681W        W42007   9.691  15.341  12.413
69682W        W42008  17.119  40.607  14.449
69683W        W42009  10.752  13.788  12.430
69684W        W42010  29.489  34.102  14.917
69685W        W42011  38.359   7.775   2.651
69686W        W42012  21.561   0.257  12.331
69687W        W42013   4.716  23.215  14.516
69688W        W42014  25.038  34.352   2.724
69689W        W42015   1.248  27.002   3.348
69690W        W42016  41.822   0.850  13.143
69691W        W42017  41.489   0.074   1.203
69692W        W42018  14.765   3.146  13.497
69693W        W42019  11.102  24.393   0.046
69694W        W42020  37.779  32.070   1.635
69695W        W42021  28.238   3.018   4.891
69696W        W42022   7.560  34.984  13.604
69697W        W42023  39.816   2.291  14.950
69698W        W42024  32.427  38.814   0.763
69699W        W42025  14.126   2.316   2.327
69700W        W42026  38.586   1.173   0.507
69701W        W42027  14.839  21.578   2.005
69702W        W42028   8.851  26.925   0.714
69703W        W42029   7.861  42.018  14.503
69704W        W42030  16.598  32.272  11.866
69705W        W42031  22.139  34.670  13.069
69706W        W42032  44.821  36.409  14.915
69707W        W42033  13.641  43.252   3.144
69708W        W42034  20.276  35.949  10.801
69709W        W42035   3.934  27.876   1.228
69710W        W42036  10.183   2.973   0.002
69711W        W42037  38.885   6.953  10.609
69712W        W42038   4.403  32.527  13.953
69713W        W42039  42.400  18.165  11.231
69714W        W42040  18.173   4.459  12.006
69715W        W42041  16.499  39.453   3.195
69716W        W42042  19.445  15.275   2.435
69717W        W42043  43.393   5.219  13.017
69718W        W42044   3.709   1.391  13.295
69719W        W42045  17.280  25.504  14.481
69720W        W42046  22.091   2.859  14.213
69721W        W42047  13.859  32.036   2.724
69722W        W42048  12.218  35.686   0.038
69723W        W42049  32.997   8.829   3.730
69724W        W42050   5.827  16.814   0.510
69725W        W42051  32.143  10.341   3.228
69726W        W42052   7.431  37.888  12.683
69727W        W42053  14.565  17.993  14.967
69728W        W42054  43.221  37.210  14.528
69729W        W42055  10.856  14.111  14.503
69730W        W42056  23.912  26.990  10.791
69731W        W42057  31.489   7.952  13.397
69732W        W42058   0.951  20.882  12.442
69733W        W42059   3.321  15.109   4.201
69734W        W42060   9.731  41.051  11.045
69735W        W42061  27.220  37.002  10.947
69736W        W42062  31.635  11.626  12.728
69737W        W42063  40.888   3.943   1.955
69738W        W42064  27.877  24.071   3.985
69739W        W42065  15.239   9.491   2.318
69740W        W42066  15.157  30.284  12.535
69741W        W42067   8.414  37.917   4.890
69742W        W42068   1.816  16.017  14.712
69743W        W42069   2.902  24.087   5.472
69744W        W42070  44.989  17.704   2.223
69745W        W42071  33.038  15.779  13.354
69746W        W42072  15.828  24.417   2.964
69747W        W42073  20.961  41.247  12.723
69748W        W42074   2.873   4.784  11.014
69749W        W42075   1.735   2.767  12.560
69750W        W42076  43.322   9.096   0.320
69751W        W42077   8.610  38.461  14.750
69752W        W42078  33.571   8.888  10.716
69753W        W42079   6.580  28.552   0.715
69754W        W42080  21.062   0.369  10.349
69755W        W42081  43.374  20.146  13.141
69756W        W42082  36.476  29.764   4.303
69757W        W42083   6.998  43.915  11.621
69758W        W42084  14.317  43.405  11.942
69759W        W42085   1.955   4.229   4.395
69760W        W42086  42.791  25.027  12.233
69761W        W42087  21.430   8.246  11.635
69762W        W42088  30.611  41.256   0.225
69763W        W42089  27.262  41.693   4.764
69764W        W42090   4.265  42.265   1.847
69765W        W42091  25.874  28.410   1.436
69766W        W42092  32.961  43.558  13.553
69767W        W42093  10.262  18.569   3.730
69768W        W42094  29.709   5.433  11.920
69769W        W42095   1.733   5.217   0.702
69770W        W42096   4.916  38.941  11.634
69771W        W42097  19.559   1.491   2.845
69772W        W42098  38.808  44.241  12.544
69773W        W42099  19.358  24.153   3.119
69774W        W42100   2.006   2.996   0.425
69775W        W42101  26.199   5.754   1.870
69776W        W42102  32.792  15.688  14.255
69777W        W42103   0.196   7.439  11.174
69778W        W42104  36.237  35.390   9.807
69779W        W42105  16.053  38.066  11.260
69780W        W42106  44.016   2.270   1.960
69781W        W42107  35.314  23.554  11.018
69782W        W42108  27.214   9.376  14.512
69783W        W42109   5.572  12.798  12.503
69784W        W42110  11.336  31.462  13.918
69785W        W42111   5.508  23.599  12.112
69786W        W42112  42.126   6.148  12.601
69787W        W42113   5.462  44.829  14.461
69788W        W42114  40.165  44.329   2.765
69789W        W42115  37.356  35.164  12.469
69790W        W42116  16.947   6.223   5.038
69791W        W42117  13.784  16.091  13.405
69792W        W42118  14.012  43.023  12.143
69793W        W42119   6.182   6.825   4.649
69794W        W42120  15.112   2.282   3.305
69795W        W42121  11.308   8.414  10.953
69796W        W42122  14.049  22.964   0.710
69797W        W42123   4.863  21.750   3.603
69798W        W42124  37.339   9.858   0.917
69799W        W42125  42.981  10.923   4.152
69800W        W42126  24.400  22.768  12.404
69801W        W42127  18.098  33.800  13.829
69802W        W42128  13.280  28.138  10.306
69803W        W42129  35.156  28.653  11.302
69804W        W42130   4.697  12.205  13.496
69805W        W42131  24.277  37.844   3.322
69806W        W42132   2.389  16.104   3.874
69807W        W42133  14.642   2.668  13.632
69808W        W42134  42.302   4.679  11.228
69809W        W42135  11.861   0.751   0.691
69810W        W42136  17.206  21.035  13.925
69811W        W42137  36.562  26.794   0.312
69812W        W42138  33.159   3.459  11.577
69813W        W42139  15.146  31.596  13.008
69814W        W42140  26.183   1.422   4.443
69815W        W42141   6.795  40.212  13.001
69816W        W42142  38.779   8.779  11.842
69817W        W42143   3.936  20.555  13.888
69818W        W42144  24.045  30.614  14.019
69819W        W42145  11.253  34.434   3.331
69820W        W42146  39.180  25.063   4.342
69821W        W42147   7.344  15.114   3.060
69822W        W42148  27.635  23.965   0.034
69823W        W42149   9.344  27.778  12.819
69824W        W42150  39.935   7.805   1.764
69825W        W42151  37.134  36.290   3.782
69826W        W42152   3.691   2.168   1.312
69827W        W42153   6.878  25.700   3.658
69828W        W42154  36.919  33.333   4.134
69829W        W42155   2.959  43.993   4.932
69830W        W42156  34.381   9.932   2.331
69831W        W42157   7.713  18.546  13.323
69832W        W42158  31.918  33.757   3.433
69833W        W42159  34.130  22.431  11.701
69834W        W42160   2.410  19.593  13.322
69835W        W42161  12.732   3.672   4.449
69836W        W42162   1.776  21.057  13.428
69837W        W42163   4.648   3.508  14.324
69838W        W42164   9.196   1.506   0.341
69839W        W42165  40.010   2.910  13.760
69840W        W42166  38.680  27.596  14.003
69841W        W42167  25.240  38.799   0.354
69842W        W42168  29.460  43.397  12.598
69843W        W42169  11.283  10.111  11.473
69844W        W42170  21.242  25.788   0.076
69845W        W42171  23.000  35.792  10.464
69846W        W42172  26.422   8.827  10.555
69847W        W42173   1.403   6.807  14.224
69848W        W42174  22.704  29.970   0.714
69849W        W42175  19.199  34.381  12.515
69850W        W42176   4.848  35.445   3.903
69851W        W42177  43.501  16.838  12.051
69852W        W42178   8.891  11.211  13.805
69853W        W42179  19.261   1.342   1.589
69854W        W42180  42.193  28.582  11.879
69855W        W42181  39.003  32.706  14.819
69856W        W42182  24.127  21.638   2.461
69857W        W42183  26.258  42.010  14.459
69858W        W42184  14.219  29.409   4.513
69859W        W42185  20.431   0.179  13.381
69860W        W42186  23.076  27.167   3.778
69861W        W42187  27.860   8.662  13.714
69862W        W42188   8.765   7.140   4.564
69863W        W42189  28.749  26.479   4.013
69864W        W42190   5.784  31.422   2.232
69865W        W42191  26.567  14.505   1.949
69866W        W42192  40.988   8.199  11.094
69867W        W42193   7.090  26.051  11.903
69868W        W42194  21.561   7.018   4.215
69869W        W42195  44.949  21.648   4.110
69870W        W42196  44.239  19.117  12.059
69871W        W42197  36.001  14.198   5.070
69872W        W42198  38.504  11.382   2.365
69873W        W42199  41.092  11.294  14.200
69874W        W42200  31.034  43.381  14.439
69875W        W42201  14.741  42.326   1.995
69876W        W42202  21.348  18.059  12.962
69877W        W42203  27.336  19.029   2.339
69878W        W42204  26.111  19.672  11.360
69879W        W42205  33.713  20.589  14.170
69880W        W42206   0.506   6.068   4.469
69881W        W42207  34.397  27.723  13.513
69882W        W42208  10.347  25.257  11.033
69883W        W42209   4.542  16.559   3.229
69884W        W42210  15.524  11.910  11.133
69885W        W42211  35.320  31.324  14.525
69886W        W42212  10.796   4.004   1.820
69887W        W42213  20.069   8.367  11.287
69888W        W42214  33.076  22.392  11.112
69889W        W42215   3.906   1.499   4.577
69890W        W42216  34.344  21.774   4.569
69891W        W42217  25.657  26.555   3.086
69892W        W42218  20.828  30.519   4.506
69893W        W42219  11.802  11.415   5.098
69894W        W42220  14.874  39.502  14.787
69895W        W42221  24.258   9.496  12.405
69896W        W42222  28.682   2.001   1.922
69897W        W42223   3.840  32.965   4.173
69898W        W42224  22.156  16.012   1.922
69899W        W42225  37.346   0.201   3.361
69900W        W42226  10.217  36.897  11.635
69901W        W42227  26.532  15.562   0.696
69902W        W42228  15.181  35.808   2.898
69903W        W42229  24.288   4.773   9.982
69904W        W42230  22.538   8.535   4.004
69905W        W42231  38.093  15.335  12.026
69906W        W42232  44.530  11.800   3.192
69907W        W42233  21.773  21.039  10.959
69908W        W42234  16.352  37.837  13.743
69909W        W42235  17.100  37.963   1.178
69910W        W42236  33.533  23.236   2.278
69911W        W42237  40.417  35.485  11.030
69912W        W42238  23.295  33.310  12.021
69913W        W42239  28.385  26.239   1.769
69914W        W42240   5.082   8.295  14.887
69915W        W42241  37.283  12.711  14.435
69916W        W42242  43.479  31.637  12.511
69917W        W42243  38.811  41.927  11.050
69918W        W42244   3.026  37.540   2.838
69919W        W42245  23.980  42.339  12.891
69920W        W42246  31.636  24.726   0.035
69921W        W42247  19.518  12.315  12.060
69922W        W42248  38.913  23.780  14.739
69923W        W42249  42.725   4.791  13.411
69924W        W42250  30.458  20.202  12.356
69925W        W42251   8.364  13.378   4.714
69926W        W42252  12.533  39.506   1.445
69927W        W42253  21.512  18.794   5.078
69928W        W42254  11.172  21.006  14.395
69929W        W42255  18.672  21.407   4.883
69930W        W42256  20.056   6.831  13.599
69931W        W42257  11.095  43.019   2.866
69932W        W42258  20.550  32.388  11.627
69933W        W42259  39.493   2.582  14.588
69934W        W42260  30.918  21.276  11.617
69935W        W42261   8.296  15.762   3.072
69936W        W42262  13.321  35.407   4.477
69937W        W42263  17.381  30.913  11.062
69938W        W42264   8.861  33.165  10.832
69939W        W42265  19.721  17.498  13.681
69940W        W42266  25.613  24.754  12.480
69941W        W42267  37.857  10.781   3.759
69942W        W42268  19.444  24.121   0.775
69943W        W42269   8.668   1.255  13.794
69944W        W42270  40.703   3.704   3.779
69945W        W42271  21.252  19.457   2.757
69946W        W42272  41.713  40.607   1.638
69947W        W42273  28.493   1.877  13.813
69948W        W42274  30.124  34.593   3.348
69949W        W42275  28.537  40.325   4.606
69950W        W42276  37.526  39.769   1.761
69951W        W42277  42.834  26.514   5.036
69952W        W42278  19.430  27.026   4.036
69953W        W42279  16.816  15.499  13.409
69954W        W42280  33.634   6.815  11.419
69955W        W42281  36.789   9.324   0.695
69956W        W42282   8.691  35.045  12.929
69957W        W42283  10.338  36.296   1.347
69958W        W42284   9.816  22.981   1.734
69959W        W42285  19.604  34.914   1.776
69960W        W42286  28.004   3.999   2.279
69961W        W42287  39.840  20.636  12.477
69962W        W42288  12.846  30.545  11.591
69963W        W42289  14.545  36.532   3.679
69964W        W42290  27.788  26.946   0.041
69965W        W42291  28.481  19.084   1.496
69966W        W42292  34.943  33.866  10.197
69967W        W42293   8.725  25.065  13.049
69968W        W42294   9.130  32.536  14.017
69969W        W42295  43.971  38.877   2.322
69970W        W42296  36.439  27.085   4.466
69971W        W42297  33.718  18.417  14.331
69972W        W42298   3.960   9.702  10.700
69973W        W42299  29.766   4.853  12.511
69974W        W42300  25.951  39.466  10.524
69975W        W42301   6.424  33.560   0.779
69976W        W42302  12.496   6.356  13.306
69977W        W42303  44.206  14.105   2.776
69978W        W42304  15.302   3.467   0.754
69979W        W42305  22.206  29.087  10.704
69980W        W42306  26.564  34.703  12.547
69981W        W42307  13.043  30.073   0.806
69982W        W42308  36.888  35.885   0.345
69983W        W42309  20.676  36.346  14.781
69984W        W42310  41.243   8.606   0.734
69985W        W42311  41.454  32.123   1.886
69986W        W42312  38.050  32.968   2.863
69987W        W42313  38.960  30.410   2.848
69988W        W42314  23.255   4.412  14.925
69989W        W42315  29.687  31.327  14.996
69990W        W42316  14.177   2.511   0.288
69991W        W42317  19.904  16.536  11.602
69992W        W42318  15.784  43.283   0.247
69993W        W42319  14.144   0.432   4.618
69994W        W42320   5.667  42.834  11.563
69995W        W42321   5.907   3.764  11.002
69996W        W42322  32.995  39.518   2.650
69997W        W42323  15.172  41.277  13.079
69998W        W42324  27.409  13.125   2.852
69999W        W42325  23.748  30.842  10.712
70000W        W42326  18.547  40.730   3.591
70001W        W42327  19.167  42.788  11.410
70002W        W42328  17.346   5.272   0.929
70003W        W42329  18.171   7.615  12.030
70004W        W42330  40.474   6.758   1.511
70005W        W42331  16.075  39.788  11.395
70006W        W42332  15.883  34.982   4.591
70007W        W42333  16.039  31.852   1.977
70008W        W42334  43.883   5.589  13.319
70009W        W42335  13.128  11.846  14.896
70010W        W42336   0.465  20.691  12.921
70011W        W42337  29.474  23.704  14.498
70012W        W42338  32.550  24.683  14.325
70013W        W42339  15.003  25.241   9.726
70014W        W42340   9.160  18.751   1.992
70015W        W42341   2.785  14.163   3.701
70016W        W42342  11.080  23.693   3.139
70017W        W42343   8.332  40.917  12.930
70018W        W42344  12.812   5.940  11.487
70019W        W42345  42.353  26.988   2.686
70020W        W42346   2.701  15.068   2.239
70021W        W42347  14.879  37.930  10.687
70022W        W42348   3.890  41.718   3.546
70023W        W42349  42.548   1.283  10.732
70024W        W42350  19.230  42.528  11.884
70025W        W42351  24.136   9.165   3.057
70026W        W42352  17.208  32.028  13.563
70027W        W42353   3.908   0.297   2.192
70028W        W42354  14.022  22.103  10.570
70029W        W42355  43.466  37.032  11.538
70030W        W42356  25.652  43.852   1.668
70031W        W42357  42.112  10.187   0.095
70032W        W42358   8.886  10.896   2.420
70033W        W42359   2.187  34.988  14.087
70034W        W42360  33.142  29.040  12.812
70035W        W42361  24.376  19.855   0.768
70036W        W42362   2.538  40.451   4.668
70037W        W42363  11.262  18.929  11.256
70038W        W42364  28.679   3.809  11.979
70039W        W42365  41.781   2.099  10.697
70040W        W42366  41.444  19.779   3.213
70041W        W42367  31.126  18.324  14.294
70042W        W42368  20.929   1.472   0.546
70043W        W42369  40.334  19.656  14.747
70044W        W42370  30.753  38.923  14.833
70045W        W42371  32.037  20.753  13.209
70046W        W42372  36.322  30.343  13.460
70047W        W42373  40.721  33.465   4.330
70048W        W42374  11.766  10.204  11.349
70049W        W42375  34.138  15.810   4.054
70050W        W42376  11.846  18.037   4.174
70051W        W42377   5.760  22.233  11.899
70052W        W42378  14.541   3.274  10.823
70053W        W42379  26.878  40.765  11.178
70054W        W42380  21.168  22.428   1.359
70055W        W42381   8.579   2.489   4.214
70056W        W42382  23.503  29.393  11.728
70057W        W42383  22.634  31.669   0.493
70058W        W42384  44.776  25.652   3.757
70059W        W42385  21.690  30.363   3.260
70060W        W42386  11.653  22.599   0.433
70061W        W42387  28.646  15.235   4.860
70062W        W42388  16.461  14.521  13.617
70063W        W42389  20.217  26.504   2.823
70064W        W42390   4.314  13.187  14.459
70065W        W42391   3.768  35.081  14.821
70066W        W42392  41.257   5.694   2.645
70067W        W42393  39.284  17.544   4.128
70068W        W42394  37.116  24.167   1.810
70069W        W42395  26.605   0.607  14.803
70070W        W42396  16.136   9.675  13.151
70071W        W42397  23.048  14.215  13.117
70072W        W42398  11.308  15.686  14.754
70073W        W42399  15.004  35.787   9.494
70074W        W42400   8.467  31.752   4.970
70075W        W42401  21.445   4.786  11.148
70076W        W42402  25.657   7.716   5.117
70077W        W42403  21.307   6.291  11.983
70078W        W42404  12.365  31.558  11.584
70079W        W42405   2.779   3.470  12.789
70080W        W42406  44.843  18.245   0.169
70081W        W42407   0.976   8.601   3.680
70082W        W42408   8.901  23.458  13.359
70083W        W42409  30.531  33.849   3.449
70084W        W42410  29.115  25.049   1.419
70085W        W42411  29.590  30.980  12.688
70086W        W42412  39.302  26.677  12.408
70087W        W42413   8.392  41.390   3.861
70088W        W42414  15.517   1.155  14.277
70089W        W42415  34.545   3.584  12.892
70090W        W42416  24.556  33.448  12.213
70091W        W42417  27.083  21.343   1.274
70092W        W42418  15.288  25.114  13.138
70093W        W42419  20.501  26.297   3.197
70094W        W42420  14.008   3.382  10.746
70095W        W42421  24.594  21.709   1.020
70096W        W42422   4.963  25.678  10.669
70097W        W42423  44.450   5.007  14.291
70098W        W42424  20.517  22.752   4.640
70099W        W42425  20.549  10.793   1.664
70100W        W42426  28.253   6.936   2.210
70101W        W42427  27.219   3.427   1.701
70102W        W42428  39.806  19.303   0.314
70103W        W42429  23.914  43.521   0.859
70104W        W42430  14.777  11.903  13.718
70105W        W42431  42.410   1.425   3.720
70106W        W42432   6.152  33.829   1.134
70107W        W42433  21.064  36.608  12.590
70108W        W42434  22.313   1.938   3.597
70109W        W42435  17.488  24.743  14.023
70110W        W42436   3.573  28.906  12.068
70111W        W42437   3.797  36.534  13.364
70112W        W42438  26.500  42.775   1.327
70113W        W42439  44.326   0.926  13.508
70114W        W42440  33.185   4.514   0.838
70115W        W42441  43.330  25.200  11.515
70116W        W42442   6.334   8.333   1.719
70117W        W42443  33.808  31.550   1.023
70118W        W42444  18.178  14.050   3.812
70119W        W42445  21.665  14.134   2.761
70120W        W42446  31.355  38.313  14.357
70121W        W42447  34.005  43.732  11.162
70122W        W42448  20.045  36.340   1.938
70123W        W42449  19.061  37.933  11.158
70124W        W42450  29.706   0.024   0.742
70125W        W42451  18.947  44.958   1.379
70126W        W42452   1.916   0.665  10.609
70127W        W42453  41.831  40.389   3.672
70128W        W42454  24.583  17.972  10.187
70129W        W42455  36.501  44.395  14.645
70130W        W42456  23.360  20.062  13.262
70131W        W42457   7.492  15.831   1.363
70132W        W42458  18.132  11.792   3.890
70133W        W42459  35.472  40.472  13.555
70134W        W42460  35.252  16.045   1.175
70135W        W42461  25.162  33.358   0.240
70136W        W42462  33.384   5.805  13.608
70137W        W42463  44.323   5.593  12.062
70138W        W42464   4.883  15.529  11.415
70139W        W42465  37.305  27.110   4.556
70140W        W42466  35.019  15.879  10.343
70141W        W42467  31.558  30.027  14.094
70142W        W42468   8.582   4.204   3.683
70143W        W42469  38.601   8.927   0.110
70144W        W42470  34.563  43.494  11.438
70145W        W42471  30.104  25.436  11.513
70146W        W42472  29.171  43.119  11.122
70147W        W42473  11.504   9.126  14.791
70148W        W42474   3.327  29.218  13.839
70149W        W42475  32.096  37.006   4.903
70150W        W42476  27.673  16.655   0.797
70151W        W42477  11.800  13.606  14.889
70152W        W42478  32.212   8.669   2.156
70153W        W42479   3.296   2.707  11.309
70154W        W42480  41.827  12.243  12.964
70155W        W42481  24.749  10.781   1.525
70156W        W42482  19.048   5.784  14.787
70157W        W42483  14.310  20.891   5.326
70158W        W42484  13.334  38.994   4.396
70159W        W42485  21.614  41.980   3.370
70160W        W42486  25.125  32.539  12.569
70161W        W42487   9.349   6.851  11.578
70162W        W42488   6.253  13.211   2.265
70163W        W42489  40.766   9.344  12.511
70164W        W42490  10.451  32.854   1.287
70165W        W42491   6.319  30.467  14.488
70166W        W42492  24.524  42.675   4.344
70167W        W42493  24.086  14.996   3.981
70168W        W42494  28.999  44.261   4.168
70169W        W42495  31.496  37.418  11.654
70170W        W42496  22.284  11.915  11.690
70171W        W42497  40.460  11.535  12.175
70172W        W42498  24.126  17.375   1.429
70173W        W42499  25.297  33.819   1.876
70174W        W42500  10.991  15.710   2.407
70175W        W42501   7.400  32.040   1.829
70176W        W42502   1.904  20.982   4.192
70177W        W42503  39.033  29.327   9.984
70178W        W42504   1.405  29.807   3.296
70179W        W42505   2.877  16.243   4.033
70180W        W42506  19.290  34.795  13.423
70181W        W42507  10.697  21.320  14.933
70182W        W42508  38.858  24.226   0.831
70183W        W42509  31.104   8.709  12.964
70184W        W42510  35.791  26.544  12.948
70185W        W42511  25.693   6.252   2.155
70186W        W42512  10.676  16.620   1.797
70187W        W42513  14.732   9.793   4.775
70188W        W42514  10.253   1.768  13.532
70189W        W42515  37.323  19.521   3.091
70190W        W42516  17.540  29.052   0.752
70191W        W42517  39.864  18.672   1.991
70192W        W42518  42.324  27.775  12.426
70193W        W42519  42.319  41.404   0.947
70194W        W42520  42.205  37.955  13.336
70195W        W42521  27.180  15.257   4.099
70196W        W42522   9.631  20.044  12.947
70197W        W42523   3.785  29.289  10.470
70198W        W42524  32.685  13.610   0.956
70199W        W42525  23.650   9.381   3.873
70200W        W42526  31.859  23.696   3.255
70201W        W42527   7.548   9.288   1.954
70202W        W42528  25.523  34.591   2.783
70203W        W42529  26.458  23.191  13.208
70204W        W42530  37.357  38.422  12.972
70205W        W42531  21.057  34.002   0.014
70206W        W42532  17.633  35.943   3.900
70207W        W42533  22.748  22.022  13.391
70208W        W42534   7.460  39.281   2.639
70209W        W42535  14.748  29.360  10.696
70210W        W42536   1.789  29.500   3.855
70211W        W42537  16.593  15.761   4.020
70212W        W42538   5.078  18.185   1.374
70213W        W42539  12.703  34.203  13.405
70214W        W42540  24.154  44.340  12.071
70215W        W42541  22.020   5.749   4.296
70216W        W42542  20.413  31.000   1.694
70217W        W42543   6.335  24.713  12.408
70218W        W42544  16.109  20.590   3.640
70219W        W42545  44.995  13.642   4.615
70220W        W42546  44.725  19.610   4.247
70221W        W42547  27.995   1.977  12.914
70222W        W42548  32.461   7.673   3.353
70223W        W42549  34.360  38.519  13.376
70224W        W42550  44.837  31.653  11.949
70225W        W42551  42.050  32.643   3.180
70226W        W42552  13.787  20.142  11.218
70227W        W42553  27.131   3.499  13.096
70228W        W42554  21.117  10.378  10.197
70229W        W42555   7.154  15.682   0.989
70230W        W42556   4.065  31.493   0.361
70231W        W42557   2.855  39.770  12.041
70232W        W42558  12.372  19.124  12.571
70233W        W42559  28.486  16.936  11.581
70234W        W42560  31.957  34.026  12.424
70235W        W42561  19.257  36.547  12.320
70236W        W42562  15.107  28.550  11.623
70237W        W42563   5.776   9.645   2.811
70238W        W42564  25.053  43.878   3.849
70239W        W42565  43.762   9.822   3.644
70240W        W42566  35.577  14.836  10.691
70241W        W42567  43.589  14.644  14.460
70242W        W42568  41.340   3.264  13.496
70243W        W42569  43.746  25.083  14.319
70244W        W42570   6.171  24.472   3.175
70245W        W42571  19.123  16.465   3.705
70246W        W42572  36.336   2.768   0.973
70247W        W42573   1.003  20.912   4.182
70248W        W42574  35.607  11.661   2.451
70249W        W42575  42.955  27.530   4.622
70250W        W42576  25.855  43.373   1.670
70251W        W42577  30.514  27.002  12.607
70252W        W42578  12.280  35.593  12.981
70253W        W42579   3.890   0.693   1.418
70254W        W42580  33.932  20.006  11.790
70255W        W42581  35.961  43.873  11.021
70256W        W42582  18.774  21.909   2.585
70257W        W42583  41.547   6.765  13.858
70258W        W42584  30.557  12.614  11.920
70259W        W42585  39.240   2.934   2.212
70260W        W42586  18.661  25.796   1.439
70261W        W42587  29.341  18.112   0.932
70262W        W42588  33.138  21.566   1.133
70263W        W42589  43.966  29.505   1.168
70264W        W42590  12.807   2.027   1.846
70265W        W42591  36.839   2.239   4.565
70266W        W42592  36.936   8.685  12.109
70267W        W42593  37.839  36.409  11.447
70268W        W42594   7.851  32.257   1.022
70269W        W42595  42.549  10.394  12.404
70270W        W42596  14.575  28.435   2.841
70271W        W42597  14.307  11.040  13.540
70272W        W42598  40.132   6.620   4.535
70273W        W42599  33.011   2.481  12.305
70274W        W42600  22.077  38.124   4.275
70275W        W42601  43.111   5.266   4.629
70276W        W42602   4.479   9.768  10.611
70277W        W42603   1.951  27.993   2.769
70278W        W42604  25.775   9.770   2.327
70279W        W42605   7.619  40.625  11.604
70280W        W42606   8.849  28.045  10.670
70281W        W42607  33.695  11.627  14.331
70282W        W42608   1.588  36.645  11.119
70283W        W42609  34.144  41.962   1.456
70284W        W42610  21.167  41.908   2.454
70285W        W42611  24.224   3.960   3.401
70286W        W42612  31.950  13.042  11.477
70287W        W42613  29.126  40.321  14.641
70288W        W42614   1.924   9.622   0.870
70289W        W42615   7.976   5.118   0.744
70290W        W42616  25.959  39.039   1.558
70291W        W42617  11.859  37.935  14.855
70292W        W42618  13.099  13.343   2.408
70293W        W42619   8.169  38.985   0.844
70294W        W42620  14.139  24.273  12.383
70295W        W42621  33.951  35.990  14.939
70296W        W42622   7.613   7.277   2.190
70297W        W42623  10.174   2.605  11.132
70298W        W42624  35.131   1.815   0.336
70299W        W42625   9.759  21.445  12.057
70300W        W42626  17.655  34.127  11.279
70301W        W42627  39.766  14.326  11.788
70302W        W42628  36.461  16.276  12.970
70303W        W42629  39.328  27.164   0.327
70304W        W42630  27.473  30.877   4.167
70305W        W42631  14.519   6.793  10.726
70306W        W42632  14.722  23.678   0.733
70307W        W42633  28.874  12.187  13.574
70308W        W42634  44.235  43.783   0.340
70309W        W42635  28.451   0.844   4.422
70310W        W42636   3.293   6.001   4.993
70311W        W42637  31.905  41.883   2.957
70312W        W42638  20.627  38.425   0.369
70313W        W42639  17.517  42.371  14.450
70314W        W42640  42.817  23.159  13.906
70315W        W42641  27.811  21.273   0.321
70316W        W42642  24.288  44.752   2.142
70317W        W42643  35.342  10.214   4.626
70318W        W42644  14.345   6.541  12.009
70319W        W42645  33.880   3.000   2.914
70320W        W42646  25.323  30.983   3.592
70321W        W42647   1.306  11.921  12.372
70322W        W42648  16.107  15.319   3.650
70323W        W42649   2.903  43.896   3.352
70324W        W42650  43.864  31.254  13.476
70325W        W42651  35.349  21.270  14.966
70326W        W42652  44.112  31.832  14.413
70327W        W42653  17.324  34.316   2.713
70328W        W42654   1.326  43.799   0.074
70329W        W42655   0.018  16.367   4.689
70330W        W42656  37.090  13.035   4.562
70331W        W42657  32.616  37.084  14.922
70332W        W42658  33.520   4.922  13.467
70333W        W42659  26.023  26.223   1.301
70334W        W42660  12.118  30.492  12.140
70335W        W42661   9.923  12.204  11.660
70336W        W42662  37.901  21.974  11.156
70337W        W42663  30.039  15.997  10.765
70338W        W42664   1.035  41.945   1.392
70339W        W42665  41.491   2.884  11.620
70340W        W42666  26.089   8.224   3.152
70341W        W42667   3.903  18.712   0.317
70342W        W42668   8.622  41.545  11.212
70343W        W42669  10.873  34.815  12.972
70344W        W42670  23.362   5.397  11.868
70345W        W42671  34.842  34.380   4.154
70346W        W42672  15.085  23.956   4.066
70347W        W42673  39.009  19.794  13.180
70348W        W42674  33.387  31.687  14.495
70349W        W42675  35.481  24.634   0.774
70350W        W42676  43.956  24.020   4.376
70351W        W42677  24.571  37.906   2.417
70352W        W42678  34.051  30.220   3.892
70353W        W42679   1.334  38.965  11.195
70354W        W42680  33.774  38.940  11.914
70355W        W42681  23.011  36.749  12.563
70356W        W42682   6.449   3.678  14.295
70357W        W42683  28.622  27.816   4.979
70358W        W42684   0.819  17.188   2.027
70359W        W42685   4.684  43.737  12.919
70360W        W42686   0.841  15.716   2.254
70361W        W42687  28.585  38.631  12.628
70362W        W42688  23.193  31.355  11.610
70363W        W42689  14.886  39.607  13.453
70364W        W42690   5.390  37.198   0.888
70365W        W42691   4.152  28.115  12.392
70366W        W42692  21.054  34.994  13.959
70367W        W42693  40.262  28.455  11.613
70368W        W42694  31.847   3.453  13.659
70369W        W42695   1.869  27.740   1.832
70370W        W42696  43.734   0.672  13.109
70371W        W42697  12.745   8.396   0.624
70372W        W42698   0.446  23.466   4.444
70373W        W42699  11.148  38.925  12.342
70374W        W42700  33.527  30.871   3.318
70375W        W42701  27.956  29.223   2.365
70376W        W42702  25.630  26.223   4.418
70377W        W42703  10.986  37.520  13.680
70378W        W42704   3.656   9.309  12.987
70379W        W42705   5.292  41.069   0.428
70380W        W42706   4.834   7.988   5.085
70381W        W42707  32.954   4.754  12.653
70382W        W42708   6.702   1.454  10.591
70383W        W42709  44.024  27.880  13.881
70384W        W42710   6.560  23.816  11.058
70385W        W42711   7.939   7.223  12.981
70386W        W42712  40.454  14.120  13.411
70387W        W42713  41.960  44.367  11.939
70388W        W42714  15.093  28.183   1.509
70389W        W42715  44.597  29.444  10.605
70390W        W42716  28.581  39.464   4.473
70391W        W42717  24.017  28.564  14.223
70392W        W42718  38.758  17.527  11.530
70393W        W42719  36.497  35.167   4.044
70394W        W42720   8.401   6.395   1.807
70395W        W42721   0.891  14.921  11.453
70396W        W42722  22.301   9.300   4.806
70397W        W42723   8.710  21.298   0.307
70398W        W42724  32.977  12.593   0.323
70399W        W42725  37.322  23.988   4.474
70400W        W42726   9.217  13.196  10.264
70401W        W42727  16.249  17.707   4.587
70402W        W42728  32.665  27.807   3.702
70403W        W42729  41.721  15.063  11.961
70404W        W42730  18.774  38.989  14.995
70405W        W42731   7.637  39.952  13.581
70406W        W42732  44.141  17.251   4.889
70407W        W42733  21.979  15.056  11.758
70408W        W42734   3.054   6.774   0.670
70409W        W42735  35.540  25.285  11.894
70410W        W42736  34.024  14.197   3.886
70411W        W42737  17.204  28.531  10.850
70412W        W42738  39.292   5.788   3.862
70413W        W42739  33.325  34.791   5.549
70414W        W42740  40.223  34.399   1.406
70415W        W42741  32.917  28.633   1.267
70416W        W42742  22.528   1.676   1.216
70417W        W42743  13.932  13.076  11.584
70418W        W42744  26.450  26.043  13.420
70419W        W42745   6.756  17.205  13.805
70420W        W42746  10.900  10.935  13.269
70421W        W42747  31.709  20.185   0.664
70422W        W42748  35.389  36.362   2.291
70423W        W42749   8.383  32.947  13.066
70424W        W42750  22.057  22.241  13.419
70425W        W42751  41.956  13.767   4.477
70426W        W42752  31.470  20.049  10.898
70427W        W42753  39.553  36.847  12.594
70428W        W42754  28.782  33.591   2.111
70429W        W42755  43.468   0.980   4.646
70430W        W42756  17.652  17.657  13.484
70431W        W42757  28.459  23.945  13.884
70432W        W42758  19.584  10.579   5.141
70433W        W42759  44.783  14.841  10.631
70434W        W42760  44.660  27.066  11.991
70435W        W42761   7.870  29.091  11.226
70436W        W42762  26.468  33.546  14.845
70437W        W42763  17.507  24.833   1.761
70438W        W42764  24.592  30.009  11.384
70439W        W42765  24.185  37.694   0.445
70440W        W42766  34.728  36.334   5.088
70441W        W42767   4.733  14.220   3.166
70442W        W42768  38.881  38.337   2.470
70443W        W42769  15.808   4.039   2.512
70444W        W42770   7.832  20.067   4.050
70445W        W42771   5.253  42.904  14.303
70446W        W42772  39.470  34.089   4.476
70447W        W42773  39.731   6.277   2.406
70448W        W42774   5.190  27.693   2.839
70449W        W42775   2.487  38.385  11.724
70450W        W42776   2.445  41.064   5.081
70451W        W42777  34.661  36.393   1.263
70452W        W42778  26.467  28.198   4.580
70453W        W42779  22.528  33.953  10.582
70454W        W42780  42.739  25.202   3.170
70455W        W42781   8.397  13.237  14.948
70456W        W42782  27.985  28.746   5.022
70457W        W42783   6.843  24.802   1.895
70458W        W42784   3.362  24.013   0.125
70459W        W42785   2.655  20.973  13.478
70460W        W42786  37.138  20.566  13.984
70461W        W42787  18.114  31.349  13.062
70462W        W42788  39.812   4.686  13.108
70463W        W42789   0.059  14.598  13.421
70464W        W42790  14.246  24.997  11.887
70465W        W42791  35.091  13.195   2.646
70466W        W42792   3.242  44.279  11.903
70467W        W42793   1.963  28.177  14.965
70468W        W42794   5.455  41.046  14.304
70469W        W42795   7.387  41.519   1.889
70470W        W42796  38.441  12.790   4.742
70471W        W42797  25.792  11.320   0.455
70472W        W42798  20.180  19.493   1.835
70473W        W42799   0.628  10.803  14.994
70474W        W42800   7.631  22.623  11.571
70475W        W42801  29.576  22.119   3.262
70476W        W42802  11.287  16.065   3.366
70477W        W42803  19.905  11.803  14.180
70478W        W42804  30.127   6.859  13.607
70479W        W42805   1.605  20.278   2.852
70480W        W42806  44.947  13.212   1.323
70481W        W42807  40.888  27.009   4.418
70482W        W42808  17.086   3.449  13.385
70483W        W42809  32.440  28.505   0.402
70484W        W42810  40.291  39.345  13.437
70485W        W42811   3.037   2.326  11.519
70486W        W42812  24.899  27.634   4.324
70487W        W42813  44.739  29.852   1.738
70488W        W42814  32.008   9.195   0.472
70489W        W42815  32.427   0.598   0.763
70490W        W42816  25.515   8.666   1.505
70491W        W42817   0.343   4.543   0.744
70492W        W42818   7.825   1.543  12.883
70493W        W42819   0.733  12.602   3.723
70494W        W42820  18.381  26.131  14.818
70495W        W42821  31.608  19.050  10.703
70496W        W42822  24.051  33.697   4.528
70497W        W42823  39.565  29.677   3.724
70498W        W42824  10.680   2.215   2.166
70499W        W42825  24.534  20.445   4.028
70500W        W42826  21.307  25.667  13.374
70501W        W42827  43.848   9.209  14.384
70502W        W42828  27.659  22.104   0.806
70503W        W42829  13.126   3.725  11.207
70504W        W42830  43.049  20.763  14.253
70505W        W42831  15.266  12.561  11.917
70506W        W42832  10.438   4.745  13.092
70507W        W42833  13.765  18.456  10.621
70508W        W42834  40.531  26.611   0.843
70509W        W42835  31.469   6.798   2.729
70510W        W42836  10.706  34.306  13.902
70511W        W42837  42.428  26.026   0.879
70512W        W42838  10.344   4.444   3.257
70513W        W42839  44.393  11.332  11.486
70514W        W42840  38.224  40.273  14.789
70515W        W42841  15.598   0.484  11.963
70516W        W42842  44.103   9.066   1.802
70517W        W42843  43.101  20.603   1.771
70518W        W42844  32.165  34.974  14.479
70519W        W42845  17.758   6.696   3.776
70520W        W42846  34.286  33.936   2.831
70521W        W42847  12.063  38.082   0.318
70522W        W42848  10.177  42.322   1.495
70523W        W42849  28.667  34.958  11.476
70524W        W42850  41.879  13.324   1.185
70525W        W42851  18.245  44.910  13.843
70526W        W42852   0.756  44.603   0.397
70527W        W42853  19.662  33.590   2.298
70528W        W42854  24.593  13.601   0.430
70529W        W42855  17.020  24.026   1.653
70530W        W42856  32.365  43.195  12.605
70531W        W42857   7.737  42.999  10.138
70532W        W42858  44.501  32.625  14.022
70533W        W42859  28.682  11.264   2.916
70534W        W42860   0.524   2.867   4.593
70535W        W42861   9.284   4.338  10.822
70536W        W42862  15.067   9.374   4.658
70537W        W42863  38.064  28.624   2.464
70538W        W42864  34.602  28.762  13.655
70539W        W42865  35.949  29.486   5.094
70540W        W42866  15.824   2.532   3.229
70541W        W42867  34.369  17.245   0.570
70542W        W42868  26.232   3.425   1.923
70543W        W42869   8.264  15.130   2.154
70544W        W42870  28.643  15.766  13.968
70545W        W42871  36.053   0.953   4.898
70546W        W42872  43.301  29.912  10.941
70547W        W42873  14.615  32.452  10.694
70548W        W42874  29.182  20.161  13.960
70549W        W42875  29.912  39.394  10.990
70550W        W42876  16.048  18.500   1.785
70551W        W42877  25.240  16.716   1.337
70552W        W42878  16.470  35.529  13.310
70553W        W42879  29.355  22.883   0.732
70554W        W42880  15.779   3.948  12.985
70555W        W42881  44.793  11.205   0.762
70556W        W42882  38.966   1.782  14.464
70557W        W42883  28.041  44.722  13.376
70558W        W42884  44.463  11.316   0.276
70559W        W42885   7.219  13.360  11.991
70560W        W42886   4.145   7.330  14.813
70561W        W42887  39.527  11.302  13.062
70562W        W42888  19.069  36.086  12.528
70563W        W42889  24.141   3.452   0.745
70564W        W42890  20.572   3.632   4.358
70565W        W42891  33.340  30.648  14.466
70566W        W42892  37.615  23.242  11.602
70567W        W42893  42.111  25.246  11.220
70568W        W42894   8.719  43.841   0.046
70569W        W42895  22.625  38.319  12.071
70570W        W42896  23.106  14.807   1.378
70571W        W42897  27.069  40.532  11.611
70572W        W42898   2.210   4.690  11.441
70573W        W42899  24.702  29.160   3.560
70574W        W42900  16.331  19.251  12.416
70575W        W42901   3.760  32.293   3.176
70576W        W42902  19.825  14.520   4.523
70577W        W42903  37.846  40.971  10.430
70578W        W42904  25.698  20.111  11.981
70579W        W42905  23.001  22.748   2.705
70580W        W42906  25.522   3.924  14.870
70581W        W42907   8.291  39.373   1.176
70582W        W42908  36.558  31.141   1.272
70583W        W42909  41.892  38.878  14.504
70584W        W42910  38.897  23.721   0.929
70585W        W42911   2.235   7.221   0.249
70586W        W42912  21.982  18.133   2.711
70587W        W42913  27.354  41.410   2.416
70588W        W42914  20.529  36.573   0.213
70589W        W42915   6.916  39.364   1.409
70590W        W42916  33.404  23.777  14.956
70591W        W42917  33.030  37.975   4.777
70592W        W42918  36.635  36.026   0.816
70593W        W42919  44.751  44.827  11.570
70594W        W42920  35.432  27.793  14.964
70595W        W42921  26.471  25.998   4.062
70596W        W42922  35.136  12.963  11.146
70597W        W42923  31.997  33.975  11.897
70598W        W42924  36.654  15.999   5.034
70599W        W42925   1.486  41.444  10.724
70600W        W42926  40.034  23.096   2.668
70601W        W42927  19.763  20.189  14.691
70602W        W42928  11.755  41.849  14.040
70603W        W42929  39.322  12.869  12.576
70604W        W42930  17.182  37.870  11.894
70605W        W42931   9.412  30.261  12.869
70606W        W42932  23.706  10.577  14.896
70607W        W42933  25.148   4.348   4.322
70608W        W42934  18.643  44.263   5.175
70609W        W42935   5.951   2.680  13.599
70610W        W42936  21.015  18.518   1.739
70611W        W42937  37.087   9.263   0.228
70612W        W42938   1.673  36.165  12.068
70613W        W42939  15.515   3.537   3.169
70614W        W42940  14.811   4.906  12.965
70615W        W42941  15.621  23.986   1.921
70616W        W42942  39.847  12.119   1.316
70617W        W42943  24.754  11.166   2.273
70618W        W42944   4.321  16.345  11.308
70619W        W42945  30.699   8.332  14.409
70620W        W42946  16.101  11.235   4.075
70621W        W42947   0.382  43.892  13.347
70622W        W42948  34.873  23.790   0.054
70623W        W42949   1.135   3.274   2.206
70624W        W42950   8.814  22.716  12.446
70625W        W42951   1.409  15.364  10.759
70626W        W42952  18.119  21.116  10.710
70627W        W42953  14.226  31.791   3.599
70628W        W42954  40.050  30.506   3.926
70629W        W42955   3.337   5.621   2.656
70630W        W42956  19.317  23.202   3.662
70631W        W42957  40.548  37.286  11.196
70632W        W42958  31.677  32.073   2.690
70633W        W42959  24.046  18.395   0.298
70634W        W42960  15.590  29.038   4.690
70635W        W42961  34.454  18.814   4.725
70636W        W42962  39.780   5.399  14.615
70637W        W42963  15.778  20.773  11.046
70638W        W42964  37.414  29.264  13.070
70639W        W42965  31.856  42.948   0.228
70640W        W42966   3.259  10.317  11.499
70641W        W42967  34.465  36.763   4.185
70642W        W42968  41.839   3.307  14.319
70643W        W42969  42.377  32.428   2.784
70644W        W42970  18.032  18.546  12.338
70645W        W42971  23.733  14.015   3.796
70646W        W42972  36.085   3.790  13.855
70647W        W42973  44.621  42.368  11.926
70648W        W42974  17.467  35.095  13.036
70649W        W42975  20.553  28.911   0.191
70650W        W42976  24.592  35.574  10.865
70651W        W42977  13.619   5.211  12.131
70652W        W42978  12.721  33.149  14.569
70653W        W42979  34.925  21.811   3.860
70654W        W42980  27.104   7.645  11.394
70655W        W42981   0.793  11.813  12.478
70656W        W42982  32.162  22.009   3.773
70657W        W42983  30.428  17.935  12.492
70658W        W42984   0.700  14.849   3.642
70659W        W42985  29.541   8.584   1.818
70660W        W42986  32.705  23.597  12.111
70661W        W42987  30.640  13.496  13.974
70662W        W42988  27.415  14.807   4.199
70663W        W42989  24.528   9.444   0.851
70664W        W42990  10.618  44.349  13.975
70665W        W42991  19.508  28.387  10.960
70666W        W42992  38.602   1.427  12.210
70667W        W42993  35.518   0.962   0.490
70668W        W42994  21.547  41.842  12.077
70669W        W42995  10.205  19.525   1.390
70670W        W42996  17.684  18.625   4.587
70671W        W42997   2.656  30.152  13.484
70672W        W42998   4.733   3.024  14.494
70673W        W42999  28.291  35.381  10.546
70674W        W43000  27.861  41.690   0.221
70675W        W43001  17.176  10.229   3.076
70676W        W43002   0.584  35.326   0.946
70677W        W43003   2.978  25.133   4.256
70678W        W43004  31.141   3.819   3.366
70679W        W43005  18.347  14.861  13.925
70680W        W43006  16.028  41.240  10.758
70681W        W43007   1.988  23.277   3.645
70682W        W43008  42.124  29.324  11.093
70683W        W43009  21.023   8.816   2.339
70684W        W43010  27.173  39.110   1.292
70685W        W43011   1.444   3.460   0.787
70686W        W43012  24.504  34.983  12.049
70687W        W43013  12.697  10.662  12.622
70688W        W43014  22.246  21.015   4.815
70689W        W43015   4.635  28.599   1.443
70690W        W43016  13.184  33.068  13.036
70691W        W43017  25.116   1.839   4.161
70692W        W43018  11.602   6.901   2.237
70693W        W43019  23.609  19.225   3.135
70694W        W43020  24.448  37.452  13.518
70695W        W43021  23.389  39.913   1.480
70696W        W43022  22.523  15.178  11.599
70697W        W43023  15.333   5.935   4.484
70698W        W43024   9.367   8.380   1.358
70699W        W43025  12.257  20.744   3.387
70700W        W43026  42.941  26.554  12.485
70701W        W43027  20.163  30.852   3.065
70702W        W43028  16.152  27.896  14.835
70703W        W43029   3.187  22.723   4.414
70704W        W43030  26.793  15.524   0.223
70705W        W43031  20.526   4.988   1.423
70706W        W43032  23.066  43.329   1.064
70707W        W43033  40.418  19.755   1.253
70708W        W43034  15.400  28.684  13.517
70709W        W43035   9.840  28.637   1.397
70710W        W43036  17.754  39.780  11.937
70711W        W43037  11.856  41.324   3.706
70712W        W43038  20.435  21.798  12.723
70713W        W43039  24.167  13.280  13.364
70714W        W43040  17.125  36.981  13.315
70715W        W43041  44.299  14.893  13.910
70716W        W43042   0.219  25.517  13.060
70717W        W43043  42.734  24.503  11.185
70718W        W43044  34.572   4.240   3.874
70719W        W43045  15.841   1.403  13.380
70720W        W43046  44.522  29.460  10.034
70721W        W43047  17.663  29.060  11.405
70722W        W43048  32.535   5.529  14.764
70723W        W43049   3.455  30.615  12.621
70724W        W43050   8.677  32.598   2.166
70725W        W43051  31.859  34.079   3.814
70726W        W43052  13.668   0.303   3.831
70727W        W43053  16.146   7.971  11.542
70728W        W43054  31.085  32.986   0.559
70729W        W43055   9.694  26.173   3.750
70730W        W43056  25.566  29.148   2.673
70731W        W43057  42.389   0.566  14.393
70732W        W43058  42.553   6.433  12.705
70733W        W43059   0.416  34.232   1.758
70734W        W43060  40.949  39.604   4.080
70735W        W43061  26.709  43.927  12.436
70736W        W43062  24.487  19.106   4.677
70737W        W43063  15.591  25.015  11.139
70738W        W43064  23.567  14.200  11.055
70739W        W43065  17.349  42.880  14.329
70740W        W43066  33.227  10.887   3.987
70741W        W43067  28.222  17.250   3.734
70742W        W43068  20.839  13.009   3.989
70743W        W43069  17.114  20.039   3.187
70744W        W43070  13.201  14.685   1.892
70745W        W43071  13.032   4.873  14.191
70746W        W43072   3.213   6.993   0.199
70747W        W43073  16.841   6.285  14.555
70748W        W43074  40.463  23.985   1.411
70749W        W43075  15.657  21.221  13.128
70750W        W43076  15.681  18.968   4.608
70751W        W43077  16.193  24.938   0.817
70752W        W43078  12.846  38.238   3.819
70753W        W43079  33.603  35.813   0.463
70754W        W43080  29.196  17.777  12.385
70755W        W43081  43.763  24.630  12.173
70756W        W43082   8.134  31.480  12.067
70757W        W43083  19.898   9.398  12.078
70758W        W43084  24.560  28.301   3.314
70759W        W43085  28.913  26.519   2.252
70760W        W43086  16.576  24.207   3.779
70761W        W43087  20.785  24.283  14.571
70762W        W43088   5.135  17.696   3.792
70763W        W43089  42.254  27.393   2.360
70764W        W43090  35.512  20.356  12.926
70765W        W43091  42.409   4.185   3.285
70766W        W43092  40.625  37.007  14.584
70767W        W43093  22.543  34.818   1.275
70768W        W43094  24.440  43.487   0.844
70769W        W43095  22.324  11.793  14.792
70770W        W43096   5.920  30.965  11.596
70771W        W43097  36.267   9.527  13.943
70772W        W43098  17.182  28.081  11.091
70773W        W43099  10.101  40.884  14.912
70774W        W43100  44.309  38.507  10.177
70775W        W43101   8.285  11.093   4.593
70776W        W43102  22.276   0.560  10.960
70777W        W43103   5.029  16.123   4.506
70778W        W43104   1.918  30.617  12.806
70779W        W43105   1.743   3.690  12.349
70780W        W43106  34.856  32.067   2.776
70781W        W43107  43.205  41.849   1.701
70782W        W43108  33.673  14.412   2.260
70783W        W43109  21.652  19.320   3.071
70784W        W43110   7.595  14.367   1.212
70785W        W43111  23.197  16.657   1.400
70786W        W43112  44.095   7.870  14.311
70787W        W43113  25.429  35.874  12.615
70788W        W43114  23.587  37.915  12.913
70789W        W43115  41.833  44.829  14.421
70790W        W43116  30.231  18.708   4.061
70791W        W43117  27.676  28.984   4.179
70792W        W43118  44.374  13.173   0.105
70793W        W43119  32.330  34.363   3.036
70794W        W43120   9.751   0.376   2.583
70795W        W43121  28.528  33.506   4.308
70796W        W43122  41.907  34.824   2.842
70797W        W43123  26.738  12.104   4.971
70798W        W43124  39.143   4.418   3.270
70799W        W43125   3.471  23.609   1.450
70800W        W43126  21.321  26.668   4.712
70801W        W43127  35.508  15.086   2.789
70802W        W43128  15.090  19.009   3.892
70803W        W43129  22.945  37.972   3.648
70804W        W43130  17.646  31.603  13.064
70805W        W43131  13.357   5.906   0.898
70806W        W43132  11.227  40.456  10.647
70807W        W43133  28.853   5.829  11.164
70808W        W43134  28.506   4.843  11.210
70809W        W43135  30.385  33.475   4.244
70810W        W43136  42.502  19.188  12.926
70811W        W43137   6.263  42.495   3.617
70812W        W43138  16.693  27.802  11.939
70813W        W43139  44.871  12.699   2.719
70814W        W43140   8.277   8.899  11.588
70815W        W43141   7.811  27.198   2.083
70816W        W43142   9.723   7.704  13.392
70817W        W43143  44.002  26.462   0.846
70818W        W43144  38.461  13.847  14.443
70819W        W43145  33.974  35.668  13.313
70820W        W43146  11.351  13.252  13.824
70821W        W43147   9.383  17.121  13.911
70822W        W43148  21.431  14.261  11.161
70823W        W43149  35.674  41.505   2.073
70824W        W43150   7.427  30.416  14.661
70825W        W43151  26.578  40.868   1.922
70826W        W43152   1.456  42.481  12.936
70827W        W43153  27.399  10.800  14.598
70828W        W43154  24.863  12.668   3.139
70829W        W43155  12.751   5.986   1.603
70830W        W43156  30.123  35.884   2.685
70831W        W43157   3.344  25.504  12.030
70832W        W43158  30.802  16.816  13.098
70833W        W43159  38.500  34.100  11.624
70834W        W43160   5.284  36.547  12.076
70835W        W43161   5.255  43.715   1.881
70836W        W43162  20.525  39.150   1.795
70837W        W43163  20.852  28.713  13.436
70838W        W43164  37.837  41.811  14.091
70839W        W43165  42.123  30.609  11.757
70840W        W43166  22.703   9.187  10.716
70841W        W43167  36.846  15.844  13.720
70842W        W43168  20.513   6.726   4.949
70843W        W43169  32.794  11.317   2.726
70844W        W43170  28.551  25.014   3.354
70845W        W43171  33.125  25.145  13.813
70846W        W43172   0.822  24.306  11.662
70847W        W43173  10.967  14.167  12.044
70848W        W43174   6.328  24.471  14.281
70849W        W43175   6.134  42.740   1.850
70850W        W43176  33.916   6.002   3.766
70851W        W43177  31.940   4.888   0.704
70852W        W43178  16.818   2.878  13.841
70853W        W43179  22.536  43.238   1.937
70854W        W43180  13.408   8.214   3.378
70855W        W43181  14.451  11.646   2.834
70856W        W43182  44.447  29.112  11.479
70857W        W43183  22.513  42.839   3.307
70858W        W43184  15.798  26.268  11.497
70859W        W43185  12.963  22.317   2.258
70860W        W43186  36.758   4.285  10.809
70861W        W43187   1.668  30.074   1.308
70862W        W43188   1.734  15.781  11.575
70863W        W43189  18.003  39.177   3.603
70864W        W43190  43.484  39.045  11.593
70865W        W43191  21.028  10.795   1.944
70866W        W43192  36.561  26.145  13.323
70867W        W43193   1.766  30.839   2.597
70868W        W43194  31.637  31.016   3.639
70869W        W43195  18.090  19.719   2.936
70870W        W43196  21.632  25.930   1.239
70871W        W43197  28.217  18.341  10.642
70872W        W43198   4.862  27.698   4.625
70873W        W43199  26.575   1.323  13.266
70874W        W43200  37.372  44.149   3.354
70875W        W43201  15.181  24.980   4.124
70876W        W43202  36.097  13.095   2.816
70877W        W43203  12.606   3.398  13.900
70878W        W43204   2.241  28.387   3.003
70879W        W43205  22.613  40.580   5.279
70880W        W43206  24.456  25.193  14.747
70881W        W43207   0.261  38.301   3.770
70882W        W43208   1.213  38.480  13.427
70883W        W43209  17.778  44.874   2.179
70884W        W43210   5.234  31.430  11.080
70885W        W43211  29.025   4.942  12.094
70886W        W43212  32.883  21.644  12.379
70887W        W43213  34.950   1.011  12.454
70888W        W43214  12.137  41.262  11.127
70889W        W43215  31.516  24.241   1.144
70890W        W43216  22.054  31.202  11.170
70891W        W43217   6.655  35.113  11.547
70892W        W43218  26.939  32.478   1.789
70893W        W43219  19.681   9.928   3.454
70894W        W43220  43.605  18.287  11.945
70895W        W43221  11.859  23.624   5.166
70896W        W43222   4.401  13.658  11.582
70897W        W43223  43.403  36.865  12.506
70898W        W43224  37.647   2.485  10.692
70899W        W43225  16.260  33.709  14.922
70900W        W43226  39.954  36.287   3.227
70901W        W43227  18.984  30.950   2.658
70902W        W43228   6.861  13.814  12.913
70903W        W43229   8.826  24.338   3.767
70904W        W43230  26.364  27.542   3.740
70905W        W43231  39.583   4.519  14.478
70906W        W43232   8.743  33.553  11.585
70907W        W43233  11.561   2.650   2.039
70908W        W43234  37.206   2.466  14.880
70909W        W43235  23.795  22.652  10.521
70910W        W43236  14.211  29.798  11.935
70911W        W43237  21.977  27.023  14.283
70912W        W43238  28.951  33.345  10.046
70913W        W43239  31.753   9.187  14.314
70914W        W43240  27.162   9.773   0.478
70915W        W43241   7.736  27.903   3.083
70916W        W43242  20.922  42.130   4.442
70917W        W43243  41.385  25.095  12.489
70918W        W43244  42.953   2.424   4.611
70919W        W43245  35.460   0.998   2.394
70920W        W43246  37.311  34.673  12.583
70921W        W43247  35.873  22.969   3.162
70922W        W43248   2.037  13.960   3.307
70923W        W43249  15.258  24.537  12.495
70924W        W43250  42.059   6.348  14.488
70925W        W43251  18.990  34.357  13.554
70926W        W43252  34.875  44.913  11.905
70927W        W43253  30.306  11.183  14.478
70928W        W43254  23.054  30.911  11.895
70929W        W43255  21.635   2.313   3.666
70930W        W43256   1.285  27.617   0.441
70931W        W43257   6.436  36.559  12.554
70932W        W43258   4.762   1.126  14.390
70933W        W43259  17.097  28.617  10.344
70934W        W43260  12.854  37.023  10.175
70935W        W43261  10.883  41.054   4.866
70936W        W43262  25.205  31.054  14.435
70937W        W43263  28.588  27.472   2.266
70938W        W43264  33.999  26.539   4.915
70939W        W43265  26.826  13.083   2.801
70940W        W43266  17.522  27.719  11.242
70941W        W43267  13.313   2.361   2.696
70942W        W43268  43.358  34.042  12.440
70943W        W43269  43.060  13.369   2.791
70944W        W43270  29.121  35.188  10.815
70945W        W43271   9.584  40.042  13.820
70946W        W43272  20.088  27.442   0.433
70947W        W43273  42.874  18.721   1.857
70948W        W43274  31.422  32.768   4.643
70949W        W43275  17.615  10.257  14.468
70950W        W43276  13.258  13.803  12.790
70951W        W43277  44.887   5.316  12.765
70952W        W43278  43.849   2.797  11.212
70953W        W43279  22.040  16.477  13.404
70954W        W43280  31.112  14.124  14.417
70955W        W43281  23.436  38.169  10.550
70956W        W43282  17.777   0.045  11.634
70957W        W43283  27.914  24.999   4.913
70958W        W43284  25.745  11.215   3.231
70959W        W43285  27.153   0.779   4.963
70960W        W43286  17.845  24.664  11.952
70961W        W43287  19.708  10.817  13.626
70962W        W43288  12.654   9.265  12.079
70963W        W43289  43.876   5.588  11.041
70964W        W43290   9.711   1.816  13.508
70965W        W43291  27.020  41.525  10.638
70966W        W43292  15.308  29.274   4.294
70967W        W43293  16.588  30.173   1.915
70968W        W43294  40.420  33.242   3.962
70969W        W43295  28.979  23.934  12.939
70970W        W43296  30.522   8.724   0.830
70971W        W43297   5.337  15.869   1.416
70972W        W43298  21.079  34.066   4.608
70973W        W43299  22.496  34.266   2.652
70974W        W43300   1.512  32.461   1.569
70975W        W43301  14.235   9.775  10.657
70976W        W43302  34.957  37.616   2.178
70977W        W43303  40.086  40.221  13.549
70978W        W43304  37.300  44.604   4.600
70979W        W43305  11.052  22.622   0.983
70980W        W43306  21.242  41.949   2.975
70981W        W43307  22.816  18.725  10.800
70982W        W43308  25.776   3.143  12.615
70983W        W43309   9.990  26.641  10.524
70984W        W43310  26.657  16.428   2.170
70985W        W43311  10.800  35.400  13.837
70986W        W43312  30.850  37.575   4.494
70987W        W43313  42.358  23.727  11.472
70988W        W43314   8.521  39.792   4.716
70989W        W43315  10.212  36.570   2.859
70990W        W43316   2.884  18.005   1.593
70991W        W43317  30.956  15.876  12.652
70992W        W43318  35.038  22.968   3.088
70993W        W43319  13.806  32.922  10.837
70994W        W43320  30.262  43.243  14.936
70995W        W43321  29.888   1.209  13.863
70996W        W43322  24.674  38.317   0.800
70997W        W43323  15.831   7.938  12.671
70998W        W43324  38.877  33.606  10.853
70999W        W43325   2.586  37.210   5.106
71000W        W43326  18.072  41.894  10.609
71001W        W43327   2.514  36.340  12.351
71002W        W43328  23.012   4.723   2.685
71003W        W43329  29.844  37.948   2.185
71004W        W43330  39.402   3.423   2.356
71005W        W43331   0.745  12.343   1.950
71006W        W43332  12.530  17.358   3.271
71007W        W43333   8.905   1.354  13.355
71008W        W43334   6.820  40.111   4.046
71009W        W43335  11.361  41.336   2.403
71010W        W43336  29.946  15.596   3.437
71011W        W43337  20.664  38.229  10.206
71012W        W43338  19.583  34.674  14.536
71013W        W43339   0.730  36.667  11.948
71014W        W43340   7.837  16.323   2.707
71015W        W43341  18.516  15.573  11.258
71016W        W43342   6.906   1.223  14.531
71017W        W43343   8.814  31.198   0.997
71018W        W43344  24.400  37.332   0.802
71019W        W43345  41.045  35.341   4.332
71020W        W43346  24.156  44.732  11.574
71021W        W43347   9.711  28.337   2.847
71022W        W43348  15.050  30.073  13.466
71023W        W43349  24.241   5.657   3.975
71024W        W43350  35.164  10.676   2.745
71025W        W43351   9.683  31.865   2.166
71026W        W43352  39.621  11.772  13.348
71027W        W43353  32.198  30.376   3.817
71028W        W43354  12.059  10.424  14.986
71029W        W43355  31.427   3.320  12.928
71030W        W43356  12.204  24.043   2.870
71031W        W43357  32.866  37.049   2.865
71032W        W43358  20.034   0.858   2.695
71033W        W43359  18.796  41.516  11.629
71034W        W43360  18.998  30.480  12.422
71035W        W43361  16.560  37.013  11.602
71036W        W43362  28.947   0.319  10.676
71037W        W43363   5.290  29.185  14.753
71038W        W43364  29.035   6.945  14.137
71039W        W43365  40.960  14.347   3.940
71040W        W43366  29.055  41.430  11.471
71041W        W43367   2.316  29.099   2.413
71042W        W43368  36.441   1.973  11.610
71043W        W43369  24.080  37.856  13.051
71044W        W43370   2.415  20.941  10.364
71045W        W43371  17.527  12.807  13.629
71046W        W43372   2.299   8.439   4.616
71047W        W43373  41.780  38.581  13.787
71048W        W43374  24.244  23.158  14.502
71049W        W43375  18.140  31.866   3.279
71050W        W43376  36.051  15.559  13.170
71051W        W43377  34.578   4.381  11.500
71052W        W43378   8.752  35.556  13.822
71053W        W43379  13.910  18.251   0.846
71054W        W43380  44.361   6.608   3.666
71055W        W43381  39.334  25.487   2.287
71056W        W43382   1.378  43.875  11.370
71057W        W43383   4.510   0.108  11.208
71058W        W43384  38.756  26.392   5.292
71059W        W43385  21.185  35.018   0.329
71060W        W43386   4.304  42.533   1.366
71061W        W43387  44.959  13.184   3.737
71062W        W43388  15.177  29.725  14.321
71063W        W43389  21.440  11.618  13.855
71064W        W43390  42.974  11.264   1.193
71065W        W43391   9.230  15.760   3.554
71066W        W43392  18.156  17.837   4.412
71067W        W43393   0.830  10.111   0.201
71068W        W43394  14.187   3.494   4.257
71069W        W43395  16.170  43.917   4.685
71070W        W43396  17.195   7.972   1.852
71071W        W43397  26.930  26.372   3.658
71072W        W43398  19.104  22.029  12.148
71073W        W43399   3.047  22.957  11.567
71074W        W43400  17.683  27.088   1.146
71075W        W43401   7.049  16.042  12.403
71076W        W43402  40.468  21.800   3.373
71077W        W43403  26.024  10.691  12.525
71078W        W43404  12.895  41.418   3.780
71079W        W43405  22.804  28.313   2.839
71080W        W43406  37.593  11.431  13.957
71081W        W43407  14.667  21.853  13.956
71082W        W43408  19.608  42.834   4.093
71083W        W43409   7.216  12.070   3.186
71084W        W43410  22.055  10.628   1.187
71085W        W43411  43.934  19.174   0.313
71086W        W43412   0.972  17.570   0.316
71087W        W43413  31.580  24.198   2.155
71088W        W43414   7.923  41.810  13.499
71089W        W43415   9.941  34.032  13.382
71090W        W43416  40.558   9.933   1.940
71091W        W43417  26.731  19.666  14.519
71092W        W43418  43.256  38.266   3.716
71093W        W43419  12.876   2.708   0.179
71094W        W43420   0.353  42.365   3.596
71095W        W43421  24.008  13.708  13.097
71096W        W43422   4.211  34.842   3.697
71097W        W43423  17.324  35.576   0.842
71098W        W43424  32.193  24.582   2.015
71099W        W43425  36.810  42.872   3.760
71100W        W43426  11.716  11.046  11.505
71101W        W43427  34.570   6.722  13.855
71102W        W43428   4.736  14.734   3.129
71103W        W43429  14.686  24.946  13.974
71104W        W43430   5.882   9.082   3.744
71105W        W43431  13.723  12.112  10.646
71106W        W43432  41.751  35.996   0.899
71107W        W43433  11.279   7.420   0.162
71108W        W43434  25.675  10.330  13.329
71109W        W43435  43.862  14.386   1.781
71110W        W43436  25.253  28.686   3.146
71111W        W43437  24.726  41.283  14.084
71112W        W43438  12.219  28.681  13.902
71113W        W43439  22.362  38.084  11.390
71114W        W43440  23.522  30.815   0.402
71115W        W43441  27.794  41.969  12.817
71116W        W43442   1.102  44.311  12.543
71117W        W43443  24.976  30.384  11.600
71118W        W43444  19.195  41.845   0.552
71119W        W43445   6.160   1.768   1.991
71120W        W43446   1.211  14.295   3.247
71121W        W43447  12.078   2.541  11.167
71122W        W43448  33.375  30.846   4.212
71123W        W43449  16.364   4.401  14.294
71124W        W43450  12.374  38.051   4.157
71125W        W43451   8.155   9.808  12.383
71126W        W43452  18.540  12.112  12.015
71127W        W43453   0.533  27.538   3.805
71128W        W43454  32.096  34.609   4.258
71129W        W43455   6.238  42.528   4.825
71130W        W43456  27.994  14.737   1.316
71131W        W43457  13.292  17.597   3.376
71132W        W43458  39.919  26.170   4.093
71133W        W43459   8.386  31.673   1.817
71134W        W43460  22.217  40.213   2.212
71135W        W43461   3.437   9.844  14.357
71136W        W43462  22.735   9.280  11.654
71137W        W43463  35.865  15.622  14.598
71138W        W43464  13.789  17.660   3.274
71139W        W43465  25.188   1.979  13.426
71140W        W43466  41.829  28.155   2.059
71141W        W43467  42.993   7.742  13.354
71142W        W43468  16.543  18.338   1.881
71143W        W43469   8.136   5.892  11.751
71144W        W43470  36.150  12.381   1.623
71145W        W43471  16.751  33.104   4.709
71146W        W43472  12.322  41.324  14.757
71147W        W43473  22.128   6.711   0.892
71148W        W43474  39.058  21.645   0.255
71149W        W43475   1.286  38.895  14.384
71150W        W43476  15.085  18.861   1.759
71151W        W43477  39.280  44.918  10.540
71152W        W43478  35.950  18.947  10.758
71153W        W43479  27.071  44.345   3.725
71154W        W43480  25.874   5.192  14.939
71155W        W43481  24.217   7.647  12.887
71156W        W43482  12.842  43.521   3.743
71157W        W43483  31.466  18.176  10.624
71158W        W43484  22.270  44.001  12.113
71159W        W43485  39.741  32.978   0.330
71160W        W43486   5.200  34.096   3.098
71161W        W43487  11.994  12.046   4.204
71162W        W43488  20.721   0.957   2.759
71163W        W43489  21.450  23.122   0.432
71164W        W43490  19.090  13.748   4.069
71165W        W43491  37.466   5.775  13.445
71166W        W43492  25.868  29.738   2.058
71167W        W43493   6.288  29.578  13.022
71168W        W43494   7.645  19.690   4.326
71169W        W43495   8.281  44.433   2.865
71170W        W43496  41.005  13.175   3.694
71171W        W43497  38.108   5.854   4.538
71172W        W43498  34.062   4.290  11.428
71173W        W43499  19.597  20.721   4.126
71174W        W43500   7.947  24.656   3.726
71175W        W43501   2.516  25.161   1.824
71176W        W43502  43.626   6.315  11.222
71177W        W43503  41.605  36.889  12.484
71178W        W43504  27.038  43.485   4.940
71179W        W43505   2.812  24.000  11.052
71180W        W43506  38.399  11.108  13.499
71181W        W43507   6.622  20.203  13.987
71182W        W43508   3.811   0.396   3.143
71183W        W43509   1.486   6.370  11.161
71184W        W43510   2.763  18.921   3.208
71185W        W43511  27.349  11.182   4.148
71186W        W43512  39.353  30.343  13.319
71187W        W43513  30.569   0.340   1.415
71188W        W43514  19.961   2.020   1.165
71189W        W43515  33.134  16.659  11.411
71190W        W43516  12.611  41.764  14.467
71191W        W43517  37.360  44.926  10.413
71192W        W43518  25.049  14.365  14.852
71193W        W43519  38.746  25.535   0.271
71194W        W43520   6.213  31.126   2.321
71195W        W43521  25.448   8.778   2.442
71196W        W43522  25.136  44.409   3.078
71197W        W43523   2.879  16.737   2.285
71198W        W43524   7.205  14.365  11.708
71199W        W43525  31.545  18.600  11.294
71200W        W43526  26.356   2.528   3.693
71201W        W43527  12.557  41.495  12.071
71202W        W43528  36.839  28.557   3.788
71203W        W43529  22.655  32.151   4.531
71204W        W43530   6.466   0.465   1.255
71205W        W43531  23.659  16.111  14.041
71206W        W43532  36.407  10.855   1.244
71207W        W43533  30.403  28.716   2.406
71208W        W43534  17.823  43.802  10.974
71209W        W43535  31.674  42.716   0.904
71210W        W43536  31.211  18.840   3.100
71211W        W43537  44.503  39.935  12.994
71212W        W43538  33.482  28.398   3.625
71213W        W43539  36.794  43.171  12.596
71214W        W43540  12.223   6.725  12.546
71215W        W43541   4.669  19.849  13.970
71216W        W43542   6.843  20.200  10.720
71217W        W43543   1.876  36.627   0.640
71218W        W43544  35.584  44.332  11.931
71219W        W43545  34.153  23.132  10.639
71220W        W43546  34.935  16.302  14.960
71221W        W43547  14.878  21.226  11.196
71222W        W43548  42.915  27.073   1.836
71223W        W43549  21.954  32.466   1.784
71224W        W43550   6.037  17.172  14.328
71225W        W43551   5.266  35.273   0.017
71226W        W43552  22.040  19.673   1.993
71227W        W43553   6.289  27.221  14.900
71228W        W43554  13.836  14.011   0.500
71229W        W43555  41.111  24.130   4.162
71230W        W43556  15.762  28.537   4.679
71231W        W43557  42.382  30.977  12.314
71232W        W43558   5.848  44.436  12.619
71233W        W43559  24.636  32.968  12.001
71234W        W43560   9.850  24.532   4.045
71235W        W43561  44.060  24.497   4.536
71236W        W43562  29.887  30.677  14.272
71237W        W43563  26.018  43.410   4.625
71238W        W43564  27.490  21.045   1.308
71239W        W43565   0.900  24.800  11.578
71240W        W43566   6.859  14.585  11.066
71241W        W43567  40.204  44.262  12.514
71242W        W43568  22.112  41.556   1.732
71243W        W43569  32.041  20.360  13.878
71244W        W43570   2.662  24.471   4.564
71245W        W43571   2.763  27.877  14.414
71246W        W43572  21.321  39.188   4.832
71247W        W43573   5.190  28.067   4.086
71248W        W43574   1.404  33.039   2.773
71249W        W43575  43.327  35.158   2.526
71250W        W43576  34.992  18.284  12.578
71251W        W43577  39.291  27.608  11.515
71252W        W43578   7.918  43.983  13.288
71253W        W43579  43.562  28.896  12.422
71254W        W43580  10.367   6.570  14.864
71255W        W43581  43.407  21.544   1.094
71256W        W43582  31.605   2.724   4.175
71257W        W43583  26.894  32.688  14.032
71258W        W43584  19.712  25.211  14.072
71259W        W43585   0.665  32.949  14.405
71260W        W43586  16.317  42.179   0.309
71261W        W43587  25.039  22.955   0.960
71262W        W43588  42.341  18.828   4.679
71263W        W43589  28.325  35.726  11.800
71264W        W43590  13.760  36.971  12.392
71265W        W43591  38.984  37.909   0.233
71266W        W43592  44.955   3.310   9.911
71267W        W43593  42.137  13.683   3.998
71268W        W43594  30.166  15.669   2.443
71269W        W43595  21.766  18.625  10.584
71270W        W43596   0.220   3.835  14.923
71271W        W43597  19.005  30.216   2.167
71272W        W43598  17.228  14.749  12.416
71273W        W43599  16.143  17.079   1.884
71274W        W43600  37.088   0.670   1.727
71275W        W43601  35.026  42.685  10.239
71276W        W43602  43.578   2.733   2.417
71277W        W43603  39.025  19.689   3.779
71278W        W43604  18.733  30.621  11.105
71279W        W43605   6.761   3.333   3.777
71280W        W43606  30.913  39.671  14.857
71281W        W43607  29.413  29.466   5.068
71282W        W43608   9.719  18.493  13.021
71283W        W43609  44.184  43.439   3.157
71284W        W43610  28.751  42.981  10.362
71285W        W43611  40.429  16.660   0.271
71286W        W43612  21.733   6.213   1.370
71287W        W43613  31.499   9.425   2.744
71288W        W43614  31.670  39.462  13.790
71289W        W43615   4.854  39.658  13.025
71290W        W43616  39.775  16.757   2.865
71291W        W43617  33.834  25.092   0.884
71292W        W43618  39.379  42.789   1.391
71293W        W43619  17.609  28.060   0.670
71294W        W43620  11.274  44.808  14.798
71295W        W43621  43.052  17.274  13.211
71296W        W43622  13.603   5.434  12.580
71297W        W43623  35.995  27.685   0.705
71298W        W43624  34.085  10.747  12.894
71299W        W43625  25.068  11.346   0.907
71300W        W43626   9.884  34.078  11.138
71301W        W43627   1.150  36.781  14.289
71302W        W43628  15.644  19.398   3.357
71303W        W43629  14.518   4.203   0.757
71304W        W43630  28.957   5.159   1.277
71305W        W43631  20.126   5.949  13.404
71306W        W43632  26.940  41.767   1.889
71307W        W43633  32.189  11.225  12.731
71308W        W43634  25.366  17.262   0.313
71309W        W43635  44.672  22.011  13.250
71310W        W43636  34.571  23.956  13.923
71311W        W43637  29.303  16.110  11.206
71312W        W43638  40.585  40.285  13.845
71313W        W43639  36.092  37.153   3.322
71314W        W43640  34.963  10.831   0.418
71315W        W43641  40.605   6.946  11.001
71316W        W43642   6.737  12.814   4.141
71317W        W43643  37.607  31.947  13.382
71318W        W43644  17.618  42.527   3.319
71319W        W43645   7.386   0.947   2.806
71320W        W43646  34.900   4.405  10.506
71321W        W43647  25.747   1.282   1.268
71322W        W43648  11.031   7.267  13.352
71323W        W43649  25.715  15.148  11.422
71324W        W43650  29.204  11.750   0.714
71325W        W43651  19.138  26.011   2.400
71326W        W43652  34.419  29.154  13.381
71327W        W43653  35.488  25.078  12.822
71328W        W43654  35.535  29.515   3.828
71329W        W43655  34.427  31.332   3.240
71330W        W43656  32.493  39.341  13.148
71331W        W43657  30.964  22.065  12.798
71332W        W43658   0.764  33.376   4.550
71333W        W43659   1.272  10.926   5.522
71334W        W43660  31.696  10.159   2.287
71335W        W43661  27.412   8.226  12.966
71336W        W43662  41.158   1.472  12.995
71337W        W43663  19.187   9.166   0.651
71338W        W43664  10.138  23.029   5.058
71339W        W43665  44.924  38.266   0.962
71340W        W43666  12.812  32.556   1.301
71341W        W43667  43.727   1.426   3.120
71342W        W43668  16.378  32.450  12.919
71343W        W43669   7.652   4.599   4.383
71344W        W43670   5.015   9.588  11.021
71345W        W43671  24.196  33.091   0.854
71346W        W43672   6.412   9.257   3.851
71347W        W43673  23.400  40.167  14.616
71348W        W43674  21.053  43.100   4.461
71349W        W43675  43.487  37.860  13.877
71350W        W43676  44.237   4.442   2.309
71351W        W43677   9.858   6.872  14.060
71352W        W43678  29.703   9.094   1.883
71353W        W43679   7.632  20.960   3.742
71354W        W43680  37.945  28.802  10.682
71355W        W43681  16.769  37.896   3.685
71356W        W43682   9.159  33.881   2.862
71357W        W43683  20.779  33.066   0.161
71358W        W43684  20.297   8.788   4.487
71359W        W43685   8.441  11.649  10.855
71360W        W43686  37.337  29.629   2.973
71361W        W43687  28.725  36.309   3.289
71362W        W43688  15.572  12.932  11.209
71363W        W43689  38.775  14.332  12.061
71364W        W43690   0.827   1.966   1.765
71365W        W43691  26.287  17.708   2.410
71366W        W43692  10.298   1.603  12.080
71367W        W43693  23.272  21.019   4.570
71368W        W43694  35.874  25.747  13.875
71369W        W43695   0.587   6.818   3.572
71370W        W43696  26.322  41.786   5.028
71371W        W43697  38.163   6.379   1.964
71372W        W43698  32.086  11.131   1.235
71373W        W43699  15.058   3.989  11.060
71374W        W43700  30.551   4.792  10.636
71375W        W43701  23.012  40.414  11.619
71376W        W43702  18.564  18.714   0.977
71377W        W43703   6.907  35.565   1.609
71378W        W43704   9.877  31.545  12.637
71379W        W43705  35.155  32.419  10.619
71380W        W43706  23.861  32.327   2.284
71381W        W43707   9.395  19.770   4.224
71382W        W43708   3.365   8.015  12.989
71383W        W43709  15.315  17.777  14.730
71384W        W43710  36.340   7.779  13.936
71385W        W43711  16.908  38.122  12.973
71386W        W43712   8.718  31.285   4.095
71387W        W43713  18.529   9.697   1.258
71388W        W43714  37.651  24.045  13.508
71389W        W43715  27.100  38.619   1.891
71390W        W43716   2.276  23.653  13.482
71391W        W43717  28.462  27.111  12.012
71392W        W43718   5.854  12.165   1.531
71393W        W43719  26.197  20.050  14.971
71394W        W43720  17.307  24.112  13.208
71395W        W43721  38.128  45.000   3.667
71396W        W43722   5.865  31.419  10.683
71397W        W43723  19.755  14.659  13.054
71398W        W43724  44.689  18.767   0.397
71399W        W43725  38.474   2.468  13.078
71400W        W43726  28.672   7.841   3.227
71401W        W43727   2.899   4.272   2.857
71402W        W43728  12.769  15.767  14.973
71403W        W43729  12.226   3.862   4.544
71404W        W43730  34.024  34.473   3.670
71405W        W43731  25.998   0.965  12.118
71406W        W43732  24.958  13.226   2.906
71407W        W43733  43.734  38.208  12.538
71408W        W43734  41.407  13.817  14.940
71409W        W43735  44.921  16.144   0.748
71410W        W43736  28.974  32.144   3.349
71411W        W43737   4.048  35.395   1.354
71412W        W43738  25.070  33.000   3.756
71413W        W43739  44.360  41.832  11.190
71414W        W43740  30.921  37.254  14.480
71415W        W43741   6.105  39.349   2.376
71416W        W43742   4.457  38.848   4.077
71417W        W43743  16.499  34.575  12.000
71418W        W43744  37.467  40.778   5.073
71419W        W43745   1.274  42.361   4.357
71420W        W43746  11.382  34.407   0.534
71421W        W43747   1.970  28.956   0.496
71422W        W43748   2.003   7.707  14.362
71423W        W43749  10.253   7.684  14.273
71424W        W43750  35.815  27.123   1.420
71425W        W43751  26.232  33.489  11.541
71426W        W43752  16.132  24.712  11.534
71427W        W43753   5.297  42.451   3.690
71428W        W43754   3.859  27.715  14.442
71429W        W43755  13.182  16.161   2.339
71430W        W43756  14.896   9.375  13.124
71431W        W43757  36.540  12.037  14.132
71432W        W43758  37.333  44.546   1.034
71433W        W43759  42.121  10.847  12.131
71434W        W43760   1.798   6.515  14.047
71435W        W43761  15.180  14.078  11.526
71436W        W43762  29.746  31.053   1.947
71437W        W43763  39.866  34.315   1.843
71438W        W43764  26.685  12.835  12.853
71439W        W43765  20.989   7.760   1.878
71440W        W43766   3.962  12.276   3.830
71441W        W43767  37.485  43.073   4.176
71442W        W43768  21.112  16.948   3.674
71443W        W43769  25.268   8.730  12.537
71444W        W43770   5.172  14.584   3.855
71445W        W43771   4.447  37.991   0.012
71446W        W43772  27.837  40.798  11.867
71447W        W43773  35.459  15.168  13.964
71448W        W43774  34.511  13.570   2.104
71449W        W43775  38.775  34.949  14.541
71450W        W43776  29.037  15.297   2.686
71451W        W43777  37.098  31.495  11.190
71452W        W43778   2.687  30.972   2.784
71453W        W43779  33.046  42.015  13.487
71454W        W43780  29.361   8.218   3.776
71455W        W43781  31.363   0.665  11.103
71456W        W43782  28.086  40.328   4.349
71457W        W43783  29.749  43.044   0.682
71458W        W43784  40.731  30.706  13.028
71459W        W43785  33.844  10.025  12.148
71460W        W43786  25.256   0.923   0.854
71461W        W43787  43.573  12.311   4.398
71462W        W43788   7.973  21.123  12.018
71463W        W43789  11.575  20.731  14.201
71464W        W43790  43.217  27.180   2.237
71465W        W43791   5.827   4.157  11.805
71466W        W43792  38.951   9.281  10.076
71467W        W43793  39.213   1.032  13.855
71468W        W43794  37.394  32.560  12.444
71469W        W43795  34.665  13.830  10.720
71470W        W43796   8.687  34.378  13.262
71471W        W43797  18.680  28.947  12.007
71472W        W43798  31.515  17.099   2.180
71473W        W43799  32.479  35.334  13.324
71474W        W43800  36.960   1.361   1.455
71475W        W43801  36.254  12.290   2.968
71476W        W43802  29.205   8.299  11.703
71477W        W43803  39.439  18.107   0.224
71478W        W43804  22.563  20.273  14.038
71479W        W43805   3.846  16.629  14.796
71480W        W43806  21.849  21.741   4.875
71481W        W43807  31.563  31.454   3.403
71482W        W43808  25.562  16.379   4.744
71483W        W43809  34.071   5.333  14.875
71484W        W43810  10.729  37.960  13.467
71485W        W43811  35.654  22.235  12.911
71486W        W43812  32.247  11.956  11.122
71487W        W43813  27.467  40.341  12.645
71488W        W43814  20.963  41.868   1.964
71489W        W43815  33.913  20.985  11.598
71490W        W43816  12.419  23.975   0.454
71491W        W43817  23.126  22.064   3.269
71492W        W43818  39.947  41.026   4.094
71493W        W43819  16.833  40.850   3.419
71494W        W43820  18.448   4.331   3.748
71495W        W43821  42.970  35.672   3.289
71496W        W43822  24.047  10.221   4.430
71497W        W43823  36.615  26.571   4.217
71498W        W43824  15.544  17.271  11.961
71499W        W43825  43.823  21.389   4.675
71500W        W43826  21.975  42.932  11.358
71501W        W43827  14.000  28.942  13.547
71502W        W43828  20.670  11.317   0.434
71503W        W43829   2.050  26.085   2.349
71504W        W43830  10.789  31.391  11.699
71505W        W43831   6.273  10.744   3.201
71506W        W43832  23.555  33.241   1.425
71507W        W43833   4.608   5.497  12.919
71508W        W43834  25.069  34.222  11.928
71509W        W43835  20.073   3.385   0.114
71510W        W43836  25.736  23.500   1.926
71511W        W43837  34.600   6.764  12.025
71512W        W43838   6.708   1.144   0.913
71513W        W43839  10.430  32.557   2.772
71514W        W43840  39.493  26.785  11.161
71515W        W43841  10.322  15.235   1.660
71516W        W43842  30.368  32.524   3.721
71517W        W43843   6.152   2.223   2.271
71518W        W43844   7.781  21.331  14.289
71519W        W43845  18.622  29.498   5.066
71520W        W43846   2.238  17.125  11.663
71521W        W43847  13.875  41.850  11.999
71522W        W43848   9.858  34.897   2.138
71523W        W43849   6.768   3.485   3.291
71524W        W43850  14.122  27.537   1.078
71525W        W43851  25.094  36.459   3.922
71526W        W43852  34.658  44.462   0.412
71527W        W43853   9.739  37.449  11.665
71528W        W43854  28.557  40.392   4.094
71529W        W43855  33.201   3.388  12.529
71530W        W43856  22.179  42.457   3.421
71531W        W43857  41.536  39.944   3.706
71532W        W43858  39.868  22.658   4.381
71533W        W43859  31.172  35.525   1.927
71534W        W43860  32.674  14.145   2.394
71535W        W43861   3.780  43.317   1.055
71536W        W43862   9.487  42.795   0.431
71537W        W43863  44.926  28.604   1.161
71538W        W43864  39.877  18.846   0.559
71539W        W43865  36.061  28.924  10.614
71540W        W43866   0.444  19.277   1.967
71541W        W43867  11.174  22.147  11.020
71542W        W43868  37.026   2.940   0.925
71543W        W43869  29.186  37.296   4.339
71544W        W43870  18.082  18.066  12.485
71545W        W43871  44.391  25.319   3.619
71546W        W43872  22.573  41.487   1.474
71547W        W43873  24.637  12.136   1.240
71548W        W43874  26.412  31.623  10.768
71549W        W43875  39.900  13.365  11.078
71550W        W43876  38.493   9.221   2.370
71551W        W43877  17.932  12.492  13.444
71552W        W43878  26.964   2.245  13.518
71553W        W43879  28.532   2.141   3.283
71554W        W43880  39.655   5.317  13.068
71555W        W43881  42.012  30.558   0.785
71556W        W43882   2.492  10.724  14.727
71557W        W43883  19.384  36.416   3.477
71558W        W43884  33.424  44.430  11.579
71559W        W43885  19.030  20.021   4.634
71560W        W43886  44.078  15.307   2.157
71561W        W43887  21.279  42.904   5.265
71562W        W43888  43.552  29.485   2.876
71563W        W43889   6.963   5.275   2.767
71564W        W43890  41.211  36.680   3.807
71565W        W43891  16.264  16.262   0.424
71566W        W43892   9.892   2.464   1.719
71567W        W43893   9.899   8.166  13.531
71568W        W43894  23.168  36.370  14.387
71569W        W43895  19.649  12.151   1.340
71570W        W43896  10.854   4.762   2.294
71571W        W43897  39.493   5.001   3.592
71572W        W43898  43.292  16.585   3.388
71573W        W43899  37.113   0.754  12.883
71574W        W43900  34.359  44.840  13.674
71575W        W43901  11.084  41.869  14.862
71576W        W43902   5.280  41.954   4.487
71577W        W43903  13.828  25.250   1.810
71578W        W43904  31.460  35.303   0.763
71579W        W43905  34.914  21.577  10.664
71580W        W43906   6.122  19.299  13.111
71581W        W43907  40.061   8.543  13.032
71582W        W43908  39.398  27.432  12.720
71583W        W43909  17.143   9.627   1.278
71584W        W43910  18.141  31.927  13.674
71585W        W43911  42.139  14.530   3.327
71586W        W43912  14.532  18.216   4.802
71587W        W43913  18.658  31.722  10.945
71588W        W43914  43.022  35.945   2.845
71589W        W43915  28.968   3.484  13.558
71590W        W43916  32.010  43.477   4.403
71591W        W43917  18.755  20.194  11.629
71592W        W43918  37.099  13.114   3.666
71593W        W43919  18.016  19.035  12.455
71594W        W43920   7.911  13.139   4.115
71595W        W43921   1.367   8.352  14.439
71596W        W43922   1.755  13.629   4.039
71597W        W43923  23.059  44.955   2.280
71598W        W43924  17.311   1.912   5.051
71599W        W43925  37.640  27.098   3.727
71600W        W43926  38.969   8.200  11.777
71601W        W43927  19.791  15.167  12.873
71602W        W43928  14.656  28.532   0.425
71603W        W43929   4.232   2.410   4.629
71604W        W43930  20.765  16.096   0.255
71605W        W43931  14.999  35.550  11.172
71606W        W43932  19.521  38.959   1.856
71607W        W43933  36.342  43.927  14.264
71608W        W43934  24.725  33.710   0.792
71609W        W43935   4.164  24.264  12.496
71610W        W43936  24.420  19.138  12.822
71611W        W43937  13.728  18.778   4.710
71612W        W43938  40.805  13.577  13.938
71613W        W43939   1.120   7.425   1.429
71614W        W43940  23.994  27.192  14.308
71615W        W43941  12.327  42.061   1.725
71616W        W43942  41.310  25.122  10.420
71617W        W43943  34.448  26.583   1.965
71618W        W43944   8.418   3.010   2.210
71619W        W43945  39.446  38.604  14.526
71620W        W43946  32.516  34.851  11.850
71621W        W43947  28.401  26.683   3.648
71622W        W43948  44.292   5.497  14.494
71623W        W43949  36.390  26.569   4.676
71624W        W43950  43.281  30.034  11.438
71625W        W43951  32.240   9.382  14.311
71626W        W43952  23.552  43.646  11.710
71627W        W43953  13.375   8.731  11.891
71628W        W43954  25.905  35.542   4.160
71629W        W43955   5.276  41.939   3.577
71630W        W43956   1.053  44.550   1.249
71631W        W43957   3.239  14.318   4.649
71632W        W43958  23.003  32.733  14.730
71633W        W43959   2.871   3.971   1.791
71634W        W43960  19.861  32.790  14.053
71635W        W43961  29.604  20.429  11.324
71636W        W43962  13.308  22.027  14.411
71637W        W43963  41.345  21.207  13.067
71638W        W43964  13.050  18.329   5.068
71639W        W43965  37.866   2.608  11.691
71640W        W43966   0.415  44.425   3.586
71641W        W43967  33.257  26.979   4.726
71642W        W43968  39.517  38.227  14.171
71643W        W43969  22.058  19.795  12.304
71644W        W43970  19.502   1.294   3.900
71645W        W43971  37.671  32.980   4.253
71646W        W43972   2.958  18.096  12.496
71647W        W43973  11.415  18.597  11.616
71648W        W43974  40.948   8.489  10.677
71649W        W43975  38.605  29.893  12.936
71650W        W43976  13.678  22.625   0.902
71651W        W43977  21.615  37.391   0.777
71652W        W43978  40.995  17.104  11.631
71653W        W43979  27.678  29.538   4.911
71654W        W43980  29.440   6.842  12.931
71655W        W43981  29.913  22.791   2.847
71656W        W43982  18.108  37.862  11.398
71657W        W43983  28.698  42.989   0.338
71658W        W43984  39.198  44.321  11.243
71659W        W43985  18.610   5.329  14.218
71660W        W43986   2.436  40.245  14.814
71661W        W43987   0.296  20.703  10.751
71662W        W43988  28.913  22.646  12.476
71663W        W43989  28.881   5.807   1.922
71664W        W43990   7.317  12.322   1.308
71665W        W43991   8.401  37.561   4.249
71666W        W43992  44.204   9.840  11.561
71667W        W43993  18.638  18.228   4.700
71668W        W43994  25.304  34.494  11.563
71669W        W43995  23.063  38.434  11.789
71670W        W43996  34.527   8.790  10.725
71671W        W43997  19.677  13.339  11.175
71672W        W43998  12.835  18.481   0.293
71673W        W43999  23.649  22.236  12.827
71674W        W44000  32.869  18.049  13.263
71675W        W44001   2.875  20.561   4.601
71676W        W44002   6.837  10.055  11.990
71677W        W44003  27.699  25.026  14.467
71678W        W44004   2.146  18.094  13.610
71679W        W44005   3.498  14.296   0.490
71680W        W44006  37.944  25.490  13.898
71681W        W44007  34.685  26.359   2.394
71682W        W44008  32.356  14.873   4.245
71683W        W44009  33.587  14.667   0.277
71684W        W44010   9.770  40.972  13.015
71685W        W44011   0.883   8.445  11.654
71686W        W44012  41.451  39.859   0.859
71687W        W44013  15.272  16.716   1.988
71688W        W44014  33.801  30.390  14.542
71689W        W44015  27.225  38.256   4.395
71690W        W44016  11.640  36.563  12.511
71691W        W44017  29.820  34.545   3.822
71692W        W44018  44.906  32.050   2.170
71693W        W44019  14.379  41.807  11.126
71694W        W44020  41.468  11.673  13.531
71695W        W44021  27.986  25.141  10.630
71696W        W44022  15.052   3.868   2.204
71697W        W44023  31.564  35.772   1.657
71698W        W44024   7.286   7.746  13.889
71699W        W44025   8.843  28.985   2.297
71700W        W44026  36.862   5.528  13.872
71701W        W44027   0.409  32.583   2.805
71702W        W44028   6.209  16.699   4.238
71703W        W44029  21.727  15.508   2.922
71704W        W44030  42.728   1.856   3.742
71705W        W44031  33.647  16.086   0.260
71706W        W44032  30.531  16.020   4.230
71707W        W44033   7.962  28.097  10.709
71708W        W44034  37.310  18.042   4.349
71709W        W44035  33.884  41.999  12.060
71710W        W44036  25.207  27.678   1.726
71711W        W44037  13.667   6.386   3.262
71712W        W44038  20.389  42.285  14.508
71713W        W44039  41.037   5.105  11.377
71714W        W44040  14.707   7.286  10.776
71715W        W44041  20.249   7.813   4.737
71716W        W44042  39.397  32.580   2.556
71717W        W44043  29.735  22.039  13.489
71718W        W44044   0.246   7.192   3.381
71719W        W44045  21.058  43.644   4.642
71720W        W44046   7.790  23.549  12.120
71721W        W44047  39.481  10.680  11.939
71722W        W44048  23.499  18.260   0.734
71723W        W44049  40.327  24.385  13.970
71724W        W44050  10.271  44.383  14.572
71725W        W44051   0.574   7.635   3.192
71726W        W44052  34.422  21.987   1.516
71727W        W44053   7.094  11.663   2.867
71728W        W44054   7.387  43.873  13.619
71729W        W44055   3.874  13.417  13.976
71730W        W44056  25.000   4.252  10.346
71731W        W44057  40.514  40.265  10.818
71732W        W44058   6.211   0.082   1.517
71733W        W44059  37.958  42.716  14.882
71734W        W44060  33.455  12.616   2.139
71735W        W44061  27.511   8.645  13.277
71736W        W44062  34.079  16.183   4.438
71737W        W44063  37.817  34.138  13.935
71738W        W44064   3.893  18.208   0.441
71739W        W44065   7.116  22.441  14.805
71740W        W44066  36.629  36.352   0.395
71741W        W44067   5.805  12.043   2.030
71742W        W44068  27.729   0.505  13.348
71743W        W44069   4.867  31.401   2.448
71744W        W44070  34.017  17.732  14.461
71745W        W44071  13.118  36.863  11.470
71746W        W44072  27.614  27.155   0.889
71747W        W44073  41.107  22.259  12.470
71748W        W44074   3.374  20.595   3.872
71749W        W44075  15.713  40.787  12.354
71750W        W44076  29.733  23.088  12.566
71751W        W44077  26.978   4.058  14.086
71752W        W44078   4.361   9.957   4.689
71753W        W44079  19.361  37.535   3.310
71754W        W44080  44.729  29.165   0.903
71755W        W44081  13.271  16.457   5.004
71756W        W44082   6.443  14.877  12.774
71757W        W44083  20.227  42.840  13.069
71758W        W44084  33.679  39.509  14.011
71759W        W44085   5.102   7.282   3.145
71760W        W44086  31.485  10.639  11.670
71761W        W44087  39.886   4.381  14.915
71762W        W44088  24.781  30.360   1.436
71763W        W44089  38.267  15.857  13.941
71764W        W44090  30.891   0.329  14.873
71765W        W44091  27.489   4.813   0.354
71766W        W44092  44.185  31.224   0.881
71767W        W44093  27.918  10.380  14.078
71768W        W44094   4.787  13.080  13.842
71769W        W44095  34.816  44.858  13.445
71770W        W44096  35.559  32.221  14.438
71771W        W44097  40.320  25.778  11.419
71772W        W44098  23.861  28.413   0.541
71773W        W44099  34.544   6.690   1.135
71774W        W44100  23.770  16.964  13.097
71775W        W44101  40.485   3.127  13.910
71776W        W44102  29.714  21.094  13.963
71777W        W44103  16.697  36.894   3.403
71778W        W44104   8.282  25.517   2.087
71779W        W44105  32.985  22.435  12.500
71780W        W44106  34.103   3.162   1.727
71781W        W44107  15.543  26.149   4.609
71782W        W44108   1.813  20.114  13.782
71783W        W44109  37.071  36.870   3.251
71784W        W44110   4.025   8.110   3.243
71785W        W44111  15.248  41.542   2.688
71786W        W44112  44.678  40.045   0.401
71787W        W44113   1.394  44.205   3.693
71788W        W44114  22.689  43.564   4.437
71789W        W44115  13.705  14.918   0.811
71790W        W44116  21.583   9.421  12.447
71791W        W44117  33.706  15.179   0.241
71792W        W44118   5.159  24.416  10.624
71793W        W44119  28.093  21.569  13.440
71794W        W44120   1.582  20.580  14.455
71795W        W44121  24.740  21.039  13.278
71796W        W44122   9.700  15.644   0.511
71797W        W44123   0.792  26.917   1.737
71798W        W44124  25.023  41.020  10.543
71799W        W44125   9.916  30.949  13.910
71800W        W44126  19.769  11.872  12.472
71801W        W44127  32.034  39.442  13.401
71802W        W44128  12.808   1.288  14.235
71803W        W44129   6.111  40.718  11.166
71804W        W44130  33.361  11.611  13.025
71805W        W44131  43.519  11.350  13.928
71806W        W44132  19.280  29.599  13.097
71807W        W44133   0.263  43.801   0.293
71808W        W44134   5.162  28.423  12.451
71809W        W44135   8.555  17.809  11.213
71810W        W44136  23.626  32.461   0.999
71811W        W44137  28.423  26.615  11.633
71812W        W44138  19.156  21.139  10.584
71813W        W44139   8.438  17.601   3.066
71814W        W44140   2.818  13.662   3.601
71815W        W44141  24.241  44.329   2.440
71816W        W44142  43.355   6.664   4.554
71817W        W44143  25.645   3.923  10.379
71818W        W44144   1.914  15.880  11.060
71819W        W44145  27.076  22.069  12.186
71820W        W44146  36.852  44.788  12.576
71821W        W44147  22.918  27.971  13.827
71822W        W44148  15.528  43.961   3.615
71823W        W44149  41.619   3.723  13.519
71824W        W44150  32.891   5.973  11.058
71825W        W44151  24.405  36.437   1.023
71826W        W44152  30.719  12.651   3.738
71827W        W44153   6.263   5.975  12.857
71828W        W44154  37.651  32.027  11.615
71829W        W44155   7.121   4.441  14.247
71830W        W44156  38.973  20.717   3.406
71831W        W44157  32.566  35.821  11.550
71832W        W44158  24.186  27.693  12.092
71833W        W44159  40.859  22.882  12.807
71834W        W44160  15.302  42.965  14.083
71835W        W44161  13.328  44.516  14.401
71836W        W44162  41.040   4.978   0.545
71837W        W44163  19.184  24.449   1.078
71838W        W44164  43.010   6.167   0.359
71839W        W44165  38.035   6.176   0.829
71840W        W44166   7.444  40.628  12.455
71841W        W44167   7.966   0.372  11.280
71842W        W44168   9.815   6.380   2.110
71843W        W44169  21.508  32.124  13.815
71844W        W44170  24.270  42.972  10.667
71845W        W44171  31.551  25.510  11.984
71846W        W44172  13.470  24.450   5.405
71847W        W44173  17.083  12.680  10.557
71848W        W44174  44.043  41.555   4.839
71849W        W44175  34.139  10.597   1.756
71850W        W44176  36.349  40.566   3.631
71851W        W44177  36.927  24.777  12.640
71852W        W44178  17.012  41.537   1.912
71853W        W44179  15.111  43.391  11.408
71854W        W44180  37.073  38.910   2.854
71855W        W44181   2.029  18.456  12.400
71856W        W44182  14.087  28.603   2.918
71857W        W44183  17.285  22.279   1.446
71858W        W44184  24.843  20.182  12.294
71859W        W44185  27.637  21.167  13.959
71860W        W44186   3.088  37.009  13.542
71861W        W44187  35.475   0.252   1.159
71862W        W44188  34.834  15.706  11.620
71863W        W44189  26.998   1.964  13.980
71864W        W44190  28.614   9.765   3.708
71865W        W44191  36.074   3.786   2.654
71866W        W44192  33.663  39.332  13.424
71867W        W44193  10.501   1.668   0.049
71868W        W44194  20.066  23.000  14.826
71869W        W44195  26.226  44.443   3.902
71870W        W44196  44.357  31.035  11.247
71871W        W44197  18.318   1.472   3.188
71872W        W44198   2.964  44.308   2.605
71873W        W44199  38.424  39.321  11.652
71874W        W44200  23.015  11.783   0.376
71875W        W44201  13.773  14.462  10.446
71876W        W44202  11.771  13.096  10.859
71877W        W44203  34.762  42.945   3.357
71878W        W44204   3.222   8.505   4.120
71879W        W44205  38.950  38.870  14.289
71880W        W44206  11.653  40.474   1.305
71881W        W44207  37.367  29.676  11.221
71882W        W44208  39.117  21.604   4.546
71883W        W44209  26.439   7.768  14.605
71884W        W44210  31.566  25.524   1.805
71885W        W44211   1.368   9.310  12.489
71886W        W44212   8.382  11.151  12.540
71887W        W44213  25.215  37.815   3.096
71888W        W44214  44.427  24.720   0.369
71889W        W44215   8.198  23.122   0.622
71890W        W44216  29.412  31.044   4.268
71891W        W44217  32.077  25.341   3.847
71892W        W44218  10.788  40.190   1.809
71893W        W44219  17.155   3.476   0.912
71894W        W44220  41.256   2.303  12.563
71895W        W44221  22.744  36.507   3.802
71896W        W44222   8.154  25.030   0.919
71897W        W44223  30.072  20.354  11.112
71898W        W44224  42.494  15.697   1.301
71899W        W44225   9.420  22.070   2.262
71900W        W44226   0.992  37.013  13.196
71901W        W44227  21.758  27.936   1.423
71902W        W44228  17.823  29.204   0.330
71903W        W44229  17.771  37.931   2.362
71904W        W44230  15.588   6.643  14.318
71905W        W44231  11.395   1.366   3.371
71906W        W44232  38.342  40.051  14.330
71907W        W44233  37.507  27.507  10.414
71908W        W44234  44.319  27.667  10.187
71909W        W44235   3.930  35.897  14.527
71910W        W44236  36.455  24.583   3.690
71911W        W44237   3.516   1.892   4.632
71912W        W44238  11.788  27.059   4.571
71913W        W44239  15.060  30.678  12.877
71914W        W44240  36.877  35.577   4.117
71915W        W44241  11.309  41.002  13.037
71916W        W44242  17.313  25.200   1.434
71917W        W44243  40.385   5.649   2.817
71918W        W44244  29.799  44.384   5.185
71919W        W44245  41.045  11.044  10.682
71920W        W44246   2.028  39.277   4.188
71921W        W44247  40.217   7.934  13.875
71922W        W44248  11.361  33.054   0.352
71923W        W44249  12.188   5.398  12.196
71924W        W44250  28.410  15.680   4.077
71925W        W44251  13.553  40.281   2.746
71926W        W44252   3.744  19.271  11.120
71927W        W44253   1.822   7.876  14.834
71928W        W44254  43.430  10.812   0.780
71929W        W44255  13.789   5.625  14.842
71930W        W44256  28.710  36.561   4.571
71931W        W44257  27.200  16.779  14.349
71932W        W44258   3.137  15.703   4.641
71933W        W44259  28.950  23.666   1.433
71934W        W44260  42.450  32.179   3.236
71935W        W44261  20.887  31.974  11.686
71936W        W44262   9.911  32.837   4.454
71937W        W44263  43.837   8.780   1.208
71938W        W44264  28.205  20.752  12.572
71939W        W44265  11.755   2.004  14.546
71940W        W44266   3.445  34.406  10.691
71941W        W44267  18.111  36.403  11.117
71942W        W44268  43.698  23.481   2.998
71943W        W44269  36.854   4.528  14.035
71944W        W44270  41.813  37.447   4.021
71945W        W44271  17.947  44.357   0.402
71946W        W44272   9.919  37.600  11.196
71947W        W44273  26.166  25.087  13.415
71948W        W44274  19.964  41.828  14.032
71949W        W44275   3.151  35.028  14.021
71950W        W44276  31.481  37.378   2.673
71951W        W44277   8.631  29.001  13.900
71952W        W44278   2.008  43.839   3.199
71953W        W44279   5.679  41.026  11.259
71954W        W44280   8.238  37.501  14.866
71955W        W44281   4.475  33.201   4.786
71956W        W44282  44.154  15.284  13.564
71957W        W44283  40.714   7.439   2.730
71958W        W44284  17.820  31.438   0.461
71959W        W44285  26.911   1.862   2.719
71960W        W44286   3.251  26.674   2.402
71961W        W44287  34.357  19.782   2.362
71962W        W44288  11.789   2.673  10.750
71963W        W44289  29.702  29.114   3.692
71964W        W44290  37.941   3.963   0.248
71965W        W44291  42.427   1.946   4.572
71966W        W44292  11.745  39.317  10.534
71967W        W44293  33.036  34.349  12.794
71968W        W44294  31.683   8.630  13.014
71969W        W44295  44.693  14.897   0.419
71970W        W44296  10.879   5.535   4.080
71971W        W44297  17.797  30.568   0.370
71972W        W44298   6.207  15.644   2.749
71973W        W44299  38.893  36.298  12.672
71974W        W44300  23.685  18.053  12.937
71975W        W44301  38.213   3.813  14.381
71976W        W44302  42.657  35.918   0.987
71977W        W44303  24.971  19.517  12.443
71978W        W44304  38.385   0.775  10.352
71979W        W44305  43.845  14.177  10.449
71980W        W44306  21.308  42.395  13.497
71981W        W44307  43.574  25.554   2.252
71982W        W44308  29.549   9.722  11.482
71983W        W44309  41.467  37.591   0.289
71984W        W44310  10.041  43.832  10.710
71985W        W44311  39.931  17.155  12.552
71986W        W44312   5.458  28.482  14.192
71987W        W44313  11.607  40.358   4.660
71988W        W44314  16.169  11.841  13.929
71989W        W44315  36.284  41.373   5.056
71990W        W44316   5.369  14.226   4.332
71991W        W44317  34.081  33.007   1.451
71992W        W44318  36.060  10.131   2.706
71993W        W44319   1.110  12.794   4.707
71994W        W44320  16.085  36.549  10.531
71995W        W44321  15.161  33.883   4.378
71996W        W44322  24.730  38.173   4.506
71997W        W44323  43.413  14.066  10.734
71998W        W44324   7.291  43.749  10.618
71999W        W44325  24.304  22.206  11.668
72000W        W44326  41.462   9.425  12.784
72001W        W44327  42.365  23.114  10.537
72002W        W44328  32.441  10.180  13.979
72003W        W44329  28.679  39.918  12.614
72004W        W44330   0.959  10.938  14.257
72005W        W44331   5.956  32.552   1.618
72006W        W44332  25.642   5.490   2.735
72007W        W44333  13.102  43.493  12.897
72008W        W44334  29.000  33.260   2.446
72009W        W44335  37.420  11.730  14.829
72010W        W44336  12.083  20.645  12.551
72011W        W44337  16.633   9.610  10.906
72012W        W44338  26.888  43.238  12.574
72013W        W44339  44.429   8.167   4.939
72014W        W44340  10.051  23.681   0.275
72015W        W44341  18.291  24.212   0.019
72016W        W44342   3.448  26.395   4.573
72017W        W44343  19.450   3.769   2.830
72018W        W44344  25.118  11.211   3.844
72019W        W44345  44.547  23.642   0.425
72020W        W44346  17.485   7.344  12.243
72021W        W44347  39.338  12.555   2.810
72022W        W44348  16.811  42.993  13.773
72023W        W44349  12.177  23.351  10.687
72024W        W44350   5.254  25.770  12.866
72025W        W44351  36.491  16.712   2.340
72026W        W44352  27.674   6.121  11.035
72027W        W44353  10.392  32.984   4.637
72028W        W44354  13.055  43.290   0.748
72029W        W44355  20.997  16.737  12.368
72030W        W44356  42.959  42.320   1.719
72031W        W44357  41.634  13.565   3.909
72032W        W44358   3.691  16.021  13.009
72033W        W44359  38.444   7.729  10.449
72034W        W44360  42.002   2.963  11.488
72035W        W44361  13.828   2.712  14.988
72036W        W44362  31.115   0.709   2.184
72037W        W44363  16.286  32.036   5.117
72038W        W44364  13.899  15.941   0.700
72039W        W44365  11.633  16.655   2.886
72040W        W44366  37.466   8.289  11.894
72041W        W44367  15.608   0.917  12.404
72042W        W44368  13.063  42.980   1.188
72043W        W44369  28.910   2.654   3.889
72044W        W44370  19.804  43.286   1.204
72045W        W44371   7.346  22.989   1.870
72046W        W44372   2.751   4.480  12.436
72047W        W44373   7.986   6.854   4.383
72048W        W44374   9.580  15.567   4.545
72049W        W44375  12.337  43.513   0.548
72050W        W44376  38.286  28.231  14.948
72051W        W44377  33.374  23.296   3.253
72052W        W44378  13.249  12.273   2.372
72053W        W44379  13.238  40.830  11.069
72054W        W44380   4.667  13.111  12.336
72055W        W44381   2.214  27.604   0.455
72056W        W44382  39.851  36.990  12.978
72057W        W44383  17.047  26.924  11.192
72058W        W44384  41.915  32.592   4.798
72059W        W44385  34.549   6.971   3.692
72060W        W44386  15.839  40.748  11.548
72061W        W44387   0.530  27.018  13.698
72062W        W44388  10.382  37.634  10.630
72063W        W44389  18.296  37.594  12.935
72064W        W44390  14.086  27.168  13.839
72065W        W44391  42.819  15.157  14.790
72066W        W44392  41.100  32.023   4.489
72067W        W44393  11.379  29.604  12.656
72068W        W44394  30.371  15.513   0.858
72069W        W44395  28.729  14.090   4.311
72070W        W44396  27.770  35.404  11.013
72071W        W44397  27.328  39.290  12.961
72072W        W44398   5.115  27.261  14.100
72073W        W44399  32.951  12.753  12.622
72074W        W44400  19.973   4.483  14.088
72075W        W44401  26.044  44.870   0.404
72076W        W44402  17.097  13.739   1.469
72077W        W44403   5.849  20.446  11.358
72078W        W44404   2.301  26.552  12.648
72079W        W44405  12.721  25.734   4.920
72080W        W44406  25.614  10.211  10.332
72081W        W44407  33.024  11.897   3.370
72082W        W44408  32.968  41.964  10.716
72083W        W44409   9.280  27.211   0.872
72084W        W44410  23.642  26.626   2.533
72085W        W44411  12.985  10.263  14.315
72086W        W44412  21.031  23.478   2.186
72087W        W44413   0.502  17.745   2.152
72088W        W44414   2.338   6.838   3.641
72089W        W44415  24.060  28.401   1.019
72090W        W44416  42.191  12.786  13.316
72091W        W44417  34.351  42.080   0.720
72092W        W44418  35.248  28.107  12.469
72093W        W44419  33.566  36.490  12.415
72094W        W44420   8.578   2.335  12.277
72095W        W44421   1.429  24.701   3.297
72096W        W44422  33.085   1.459   2.234
72097W        W44423  26.720  40.015   2.209
72098W        W44424  13.833  37.990   0.718
72099W        W44425  19.876  36.886  14.747
72100W        W44426  14.829  33.022  14.250
72101W        W44427  34.056  39.836   3.668
72102W        W44428  43.410   3.726  11.145
72103W        W44429  32.107  10.384  11.578
72104W        W44430  37.543  11.298  14.492
72105W        W44431  35.090   2.276  11.554
72106W        W44432  39.753  37.354   1.100
72107W        W44433  11.600  39.853   2.800
72108W        W44434   0.438  32.908  14.880
72109W        W44435  41.731  36.476   4.894
72110W        W44436   2.724  44.237  11.927
72111W        W44437   1.721   5.341   3.452
72112W        W44438  30.791   9.240   0.193
72113W        W44439  11.454  43.875   4.111
72114W        W44440  13.455   4.429  13.065
72115W        W44441  33.147  33.408  12.316
72116W        W44442  30.610   8.806  10.793
72117W        W44443  15.245  44.437   2.136
72118W        W44444  10.128   7.413   2.073
72119W        W44445  39.491  25.135   1.095
72120W        W44446   8.512  35.796  14.836
72121W        W44447  15.160   6.819  14.046
72122W        W44448  40.002   1.295  14.818
72123W        W44449   7.373  24.632  11.589
72124W        W44450  23.191  20.470  12.930
72125W        W44451  41.931  35.972  12.119
72126W        W44452  19.335  43.347   1.739
72127W        W44453  34.043  22.486   3.209
72128W        W44454   0.984   7.723  13.434
72129W        W44455  14.707   3.031  14.559
72130W        W44456  19.650  22.002  13.804
72131W        W44457  21.989  29.441  13.847
72132W        W44458  12.776  18.764  11.997
72133W        W44459  39.959  27.019  13.148
72134W        W44460  28.154  25.948   1.178
72135W        W44461  39.902  30.893  13.870
72136W        W44462  34.677  31.843   4.542
72137W        W44463  11.558  34.367   4.282
72138W        W44464  14.860  36.926   3.471
72139W        W44465   3.772   8.297   4.083
72140W        W44466  22.601  35.785   1.314
72141W        W44467   2.456  12.648  10.296
72142W        W44468   4.442  43.538  13.382
72143W        W44469  15.639   5.906  14.933
72144W        W44470   3.735   3.483   0.291
72145W        W44471  29.317  36.932  12.414
72146W        W44472  15.674  11.061  11.831
72147W        W44473   3.018  30.547   3.905
72148W        W44474  25.404  37.491   2.743
72149W        W44475  33.959  30.131  14.121
72150W        W44476   0.449   8.649   2.233
72151W        W44477  16.127   7.333  12.092
72152W        W44478  23.293  16.803  12.885
72153W        W44479  44.894  11.406  11.372
72154W        W44480  21.813  25.928  11.129
72155W        W44481   3.152   2.507   2.849
72156W        W44482  40.501  39.291   2.777
72157W        W44483  18.212  11.737   1.611
72158W        W44484  28.257   8.803   2.281
72159W        W44485  28.630  15.413   1.847
72160W        W44486  22.214  44.201  10.565
72161W        W44487  13.606  37.035   5.063
72162W        W44488   5.913   8.783  12.073
72163W        W44489   5.443  39.430   2.944
72164W        W44490  25.037  31.403  13.887
72165W        W44491   6.451  23.163   1.233
72166W        W44492  17.225   7.273  14.848
72167W        W44493  21.266  19.033  13.033
72168W        W44494  18.208  37.473   4.245
72169W        W44495  35.528  17.588  11.680
72170W        W44496   4.403  33.694   4.519
72171W        W44497  39.845   3.668   0.360
72172W        W44498   7.141  44.516   1.279
72173W        W44499  33.412   4.552   4.465
72174W        W44500  16.143  20.644   2.601
72175W        W44501  18.125   7.625  12.886
72176W        W44502  42.584  12.535   0.270
72177W        W44503   7.172  25.860  13.652
72178W        W44504  11.923   4.450   1.882
72179W        W44505  23.159  34.521   4.559
72180W        W44506  33.524  18.673   3.266
72181W        W44507  41.267  25.958   1.363
72182W        W44508  13.162  26.980   0.351
72183W        W44509  28.479  43.415   2.874
72184W        W44510  20.431  42.931  11.763
72185W        W44511   9.816  38.047  12.149
72186W        W44512  22.663  42.467  10.943
72187W        W44513  24.135  26.789   4.131
72188W        W44514  40.340   8.306   3.263
72189W        W44515  30.648  15.620   0.433
72190W        W44516  26.467  19.585  13.916
72191W        W44517  25.285  21.037   0.674
72192W        W44518  44.440  26.166  10.287
72193W        W44519   3.666  11.973  12.047
72194W        W44520  18.612  40.592   4.735
72195W        W44521  34.588  31.599   2.835
72196W        W44522  30.684  31.335   0.387
72197W        W44523  22.034  41.301  13.275
72198W        W44524  37.020  12.809  11.522
72199W        W44525  13.120  26.121   4.183
72200W        W44526  33.873  42.751  13.871
72201W        W44527  39.973  18.056   2.630
72202W        W44528  42.182  19.234   1.734
72203W        W44529  33.540  17.920  14.361
72204W        W44530  14.662   5.709  14.773
72205W        W44531  35.296  14.244   3.281
72206W        W44532   9.718  34.141   0.135
72207W        W44533  25.531  20.138  12.805
72208W        W44534  19.102  29.069  12.313
72209W        W44535  44.997   3.195  10.744
72210W        W44536  42.930  36.967  13.881
72211W        W44537  13.838  20.676   0.308
72212W        W44538  29.746  23.411   1.789
72213W        W44539   0.821  30.553  11.978
72214W        W44540   3.180  24.621  12.979
72215W        W44541  43.981  34.619  11.442
72216W        W44542  27.273  11.909  13.188
72217W        W44543  35.920  11.127   1.818
72218W        W44544  17.846  42.743  14.574
72219W        W44545  18.047   0.469   4.741
72220W        W44546  12.133  13.386   3.273
72221W        W44547  32.959  20.145   2.902
72222W        W44548  21.128  44.145  14.074
72223W        W44549  32.110  33.349  11.057
72224W        W44550  30.075  43.915   4.450
72225W        W44551  19.604  27.218  11.550
72226W        W44552  42.587  43.785  11.490
72227W        W44553   8.500  42.972  12.552
72228W        W44554   7.669  25.446   3.327
72229W        W44555  42.796  16.129   1.162
72230W        W44556  24.269  12.586   0.937
72231W        W44557  41.476   6.881  11.199
72232W        W44558  10.264   2.998  13.882
72233W        W44559   4.250  22.455  10.184
72234W        W44560  31.423  24.938   0.441
72235W        W44561  13.304  39.994  10.701
72236W        W44562   0.461   2.430   0.964
72237W        W44563  39.016  38.339   1.915
72238W        W44564  27.822  11.667   0.852
72239W        W44565   0.132  28.051  11.054
72240W        W44566  33.499  10.881  11.871
72241W        W44567  17.962   0.842  13.897
72242W        W44568  26.040   8.825   3.730
72243W        W44569  27.145   8.635   3.808
72244W        W44570  12.479  10.387   4.183
72245W        W44571   6.149   6.417  12.126
72246W        W44572  42.256  38.169  12.436
72247W        W44573   8.660  33.572  13.578
72248W        W44574  24.245   3.877  10.545
72249W        W44575   7.652  25.565  14.900
72250W        W44576  16.330  13.802   0.629
72251W        W44577  26.719   7.944  11.243
72252W        W44578   7.653  19.930   1.274
72253W        W44579   1.632   2.008   2.188
72254W        W44580   2.906  26.476   5.442
72255W        W44581  38.111   7.389   4.074
72256W        W44582  36.594   1.444   1.847
72257W        W44583  31.456  11.748   0.684
72258W        W44584   1.821  34.631   4.120
72259W        W44585  14.369  35.411  12.879
72260W        W44586  18.796  33.989   2.440
72261W        W44587  22.232  18.683   4.861
72262W        W44588  30.698  33.342   0.470
72263W        W44589   4.378  27.948   0.954
72264W        W44590  42.790  15.696   0.875
72265W        W44591  18.591  27.667   3.249
72266W        W44592  11.743  24.258  14.780
72267W        W44593  44.382  30.426   0.453
72268W        W44594  21.835  23.510  14.749
72269W        W44595  17.298  25.217   5.063
72270W        W44596   8.300  11.202   1.880
72271W        W44597  14.340  13.841   0.355
72272W        W44598  30.986  12.178  12.844
72273W        W44599  18.062  14.882  11.496
72274W        W44600  15.863   1.706  12.924
72275W        W44601  42.582   2.824   1.690
72276W        W44602  16.017  22.661   1.018
72277W        W44603   4.123  13.209  11.518
72278W        W44604   0.524  39.755   2.910
72279W        W44605   7.384  27.064   0.374
72280W        W44606   8.413  30.582   1.487
72281W        W44607   8.832  34.342   4.636
72282W        W44608  17.123  39.225  12.060
72283W        W44609  38.568   8.458  10.569
72284W        W44610  33.384  22.926   1.826
72285W        W44611  40.748   3.389   3.229
72286W        W44612  41.820   8.799   2.557
72287W        W44613  24.760  10.412   3.774
72288W        W44614  36.172   7.329  12.869
72289W        W44615  16.609  21.979  12.012
72290W        W44616  39.975   3.700   1.823
72291W        W44617  25.033  39.518  12.836
72292W        W44618  26.033   9.298   3.363
72293W        W44619  27.816  38.628  12.025
72294W        W44620  21.424   3.729   3.730
72295W        W44621   0.905  13.094   3.590
72296W        W44622  14.633   7.459   1.936
72297W        W44623  43.550   5.335   1.274
72298W        W44624  36.400   7.769   1.533
72299W        W44625  28.474   4.516   2.874
72300W        W44626  44.480  14.224   4.163
72301W        W44627  19.162  11.629  11.685
72302W        W44628  32.617  44.845  14.595
72303W        W44629  23.015  43.459   1.912
72304W        W44630   5.745  41.079   0.671
72305W        W44631  13.716  11.167   3.243
72306W        W44632   1.469  41.855  13.566
72307W        W44633  27.974  34.303   2.943
72308W        W44634  28.852  13.318  14.795
72309W        W44635  19.991  15.194   0.707
72310W        W44636  13.714  20.843  14.841
72311W        W44637  37.153  32.108  12.448
72312W        W44638  18.666  28.225  11.299
72313W        W44639  18.299  17.828  12.092
72314W        W44640   6.207  19.325   3.073
72315W        W44641   5.361   3.759  11.790
72316W        W44642   9.364   0.253  11.067
72317W        W44643  16.774  28.774   2.344
72318W        W44644   5.238  44.933  14.913
72319W        W44645  34.026  33.220  10.199
72320W        W44646  11.809  28.867   3.308
72321W        W44647   9.892  23.976  13.335
72322W        W44648   2.918  13.823   4.068
72323W        W44649   8.170  26.675  13.937
72324W        W44650   0.510  10.631  13.954
72325W        W44651  19.673  38.414   0.733
72326W        W44652  34.265  22.022  12.593
72327W        W44653  28.887  18.657  13.021
72328W        W44654  16.847  43.809   0.780
72329W        W44655   0.548  30.829  12.948
72330W        W44656  17.364   9.410  12.460
72331W        W44657  32.919  32.602  14.369
72332W        W44658  29.526  40.390   3.602
72333W        W44659  40.845  38.926   4.666
72334W        W44660  12.309  14.131  12.602
72335W        W44661  32.173  11.431  13.272
72336W        W44662   0.292  17.124   1.367
72337W        W44663   8.666  20.139   1.477
72338W        W44664  41.858  27.003  11.537
72339W        W44665   6.567  17.223  14.273
72340W        W44666  33.404  37.428   2.315
72341W        W44667  20.125  20.325   1.440
72342W        W44668  15.663  10.979   1.273
72343W        W44669  17.043  31.652  13.893
72344W        W44670  15.650  40.749   0.352
72345W        W44671  23.728  23.941   4.182
72346W        W44672   3.890   4.949  11.960
72347W        W44673   0.465  15.134   2.831
72348W        W44674  11.953  26.185  10.877
72349W        W44675  36.483  23.752  11.176
72350W        W44676  29.472  23.048  13.902
72351W        W44677  28.499  28.139   1.445
72352W        W44678  43.824   7.394  13.044
72353W        W44679  41.166  14.277  12.774
72354W        W44680  13.265  33.070   1.832
72355W        W44681  19.196  41.041  12.442
72356W        W44682  20.187  12.618  12.533
72357W        W44683  44.476  23.140  14.992
72358W        W44684  43.309   1.391   2.341
72359W        W44685  40.213  35.940  11.083
72360W        W44686  23.679  29.319   0.257
72361W        W44687  27.977   9.190   3.882
72362W        W44688  19.262  17.329  13.398
72363W        W44689  37.464  36.057  11.252
72364W        W44690  12.384  30.007  12.370
72365W        W44691  33.639  12.404  13.463
72366W        W44692  15.533  36.065  11.596
72367W        W44693  35.915  19.278  11.158
72368W        W44694  16.288  38.932   3.148
72369W        W44695   2.450  22.204  14.511
72370W        W44696  11.880  15.169   0.738
72371W        W44697  20.512  36.511  14.324
72372W        W44698  18.283  44.960  11.609
72373W        W44699  25.530  24.708  10.687
72374W        W44700  21.343   9.884   1.254
72375W        W44701  29.595  32.300  10.546
72376W        W44702  21.655  28.475   2.089
72377W        W44703  38.652   7.471  12.899
72378W        W44704  31.561  27.216   3.221
72379W        W44705  25.879  41.036  11.996
72380W        W44706   1.401  41.043   2.397
72381W        W44707  15.957  27.496   0.827
72382W        W44708  41.008  23.056   4.291
72383W        W44709  24.112   7.129   3.184
72384W        W44710  21.349  30.523   4.406
72385W        W44711  43.258  33.631  14.807
72386W        W44712  15.079   3.350  14.401
72387W        W44713  36.290   6.243  14.205
72388W        W44714  44.465   5.678   0.869
72389W        W44715  39.111  41.830  14.809
72390W        W44716  11.586  44.440  10.773
72391W        W44717  24.944  34.743  11.806
72392W        W44718  42.884  37.005   4.481
72393W        W44719   2.872  17.043  14.845
72394W        W44720  31.108   0.811   0.739
72395W        W44721  29.445  37.684   4.545
72396W        W44722  13.726  29.949  13.577
72397W        W44723  13.635  36.568  10.190
72398W        W44724  20.634  24.708  11.632
72399W        W44725  41.097  29.538   3.686
72400W        W44726  37.840  15.323   3.613
72401W        W44727  28.880   8.335  13.864
72402W        W44728  42.717  35.544   2.807
72403W        W44729  26.923  29.814  11.403
72404W        W44730  37.794  18.413  11.491
72405W        W44731  32.812  33.565  11.931
72406W        W44732  12.219   8.932   1.905
72407W        W44733  40.448  44.327   0.187
72408W        W44734  36.819  27.504  11.997
72409W        W44735  35.057  37.422  11.527
72410W        W44736  39.517   0.616  13.942
72411W        W44737   1.690  43.768   2.276
72412W        W44738  39.565  28.516   0.793
72413W        W44739  22.480  36.159  11.669
72414W        W44740  32.402   4.179   0.078
72415W        W44741  40.739   9.117  11.209
72416W        W44742  41.358   4.637   2.750
72417W        W44743  29.112  24.697  14.942
72418W        W44744  30.379  15.499  11.472
72419W        W44745  40.609  36.486   0.004
72420W        W44746  43.352  14.701  11.411
72421W        W44747   5.919   1.720   3.745
72422W        W44748  37.233  32.987   3.385
72423W        W44749  36.993   8.799  10.182
72424W        W44750  14.649  32.887  10.989
72425W        W44751  32.955  32.926  10.845
72426W        W44752  27.278  37.253   4.182
72427W        W44753   2.334  18.133   0.937
72428W        W44754  28.156  17.567  13.813
72429W        W44755  10.794  39.121   1.671
72430W        W44756  23.698  24.228   3.305
72431W        W44757  16.084  43.917  12.397
72432W        W44758  16.672   4.099   1.308
72433W        W44759  19.235  30.886  14.456
72434W        W44760  40.988   8.172  12.782
72435W        W44761   4.699  11.168  12.498
72436W        W44762  38.001  21.563  13.752
72437W        W44763  17.838  26.041  13.944
72438W        W44764  15.333  10.562  11.322
72439W        W44765  10.640  40.806   3.874
72440W        W44766  26.873  43.537  13.907
72441W        W44767  16.591  35.872   0.905
72442W        W44768  14.814   7.080   2.241
72443W        W44769  21.129  42.383   3.221
72444W        W44770  37.380  44.655  12.474
72445W        W44771  29.278  21.687   3.284
72446W        W44772   9.933  10.833   1.228
72447W        W44773  39.797  15.304   4.566
72448W        W44774  19.034  26.655  11.674
72449W        W44775   5.744   5.866  10.804
72450W        W44776   8.961  27.080   2.788
72451W        W44777  41.036  30.439   3.800
72452W        W44778  34.628  23.155  14.421
72453W        W44779  16.586  25.571  13.859
72454W        W44780  32.671   6.300  13.869
72455W        W44781  27.585  36.967   1.925
72456W        W44782  13.731  16.029   1.626
72457W        W44783   8.605  39.547  12.472
72458W        W44784  11.791   8.806  11.165
72459W        W44785   2.617   8.984  14.571
72460W        W44786  37.544   8.255   2.170
72461W        W44787  11.375   4.709  14.800
72462W        W44788  29.580  21.527   4.625
72463W        W44789  28.066   8.062   1.868
72464W        W44790   9.162  33.882  13.976
72465W        W44791  23.152  33.427  10.631
72466W        W44792  42.384  10.755  12.964
72467W        W44793  26.612  41.368   1.719
72468W        W44794  17.821  22.615   4.282
72469W        W44795  15.677  18.759   3.655
72470W        W44796  41.399  16.283   1.809
72471W        W44797  24.724   6.765   2.370
72472W        W44798  18.797   0.471  14.346
72473W        W44799  43.913   4.393  13.400
72474W        W44800  19.090  24.561  11.369
72475W        W44801  27.687  23.736  13.051
72476W        W44802  20.359  38.908   4.590
72477W        W44803  21.730  41.090   3.319
72478W        W44804  14.867  27.623   4.459
72479W        W44805  27.560   8.847  14.856
72480W        W44806   6.328   1.347  11.236
72481W        W44807  37.347   5.393  13.971
72482W        W44808  32.436   3.077   0.995
72483W        W44809   2.978  11.298   3.684
72484W        W44810  41.292   9.857   0.044
72485W        W44811  28.587  42.385   0.455
72486W        W44812  20.630  41.426   1.826
72487W        W44813  30.901  33.586   4.267
72488W        W44814  26.584  24.629   4.424
72489W        W44815  22.612  27.003  13.619
72490W        W44816   7.767  26.095   2.195
72491W        W44817   5.634  28.587   3.586
72492W        W44818  14.835  10.689  12.910
72493W        W44819  35.050  27.803   4.695
72494W        W44820  16.708  25.261  13.435
72495W        W44821  33.413  35.421   4.367
72496W        W44822  22.583  42.775  13.948
72497W        W44823  38.905  15.387  14.802
72498W        W44824  36.003  27.537   4.340
72499W        W44825  31.654  36.560   0.453
72500W        W44826  26.063  36.135  10.337
72501W        W44827  34.137   6.233  13.316
72502W        W44828  25.544  35.897  11.659
72503W        W44829  28.642  26.967  10.972
72504W        W44830  23.902  42.712   3.167
72505W        W44831  29.031  27.097   2.985
72506W        W44832  34.598  12.737  11.661
72507W        W44833  35.482  37.177  12.572
72508W        W44834   6.754  16.464  12.498
72509W        W44835  28.910  33.100   4.747
72510W        W44836  44.169   4.796   3.240
72511W        W44837  19.017   3.222  11.808
72512W        W44838  10.052  17.161   2.315
72513W        W44839   0.460   1.647   2.693
72514W        W44840  19.678   9.328  11.618
72515W        W44841  12.656  24.689  12.870
72516W        W44842   3.887  35.897   1.334
72517W        W44843  35.540  19.693   4.737
72518W        W44844   2.437  34.664   2.694
72519W        W44845   8.816  17.814   1.618
72520W        W44846  34.409   0.454   2.078
72521W        W44847   5.240  22.939   3.185
72522W        W44848  14.305  26.213  10.667
72523W        W44849  35.895  32.056  13.038
72524W        W44850  20.662  18.621  11.631
72525W        W44851  27.404  27.054  12.900
72526W        W44852  18.213  16.829   3.720
72527W        W44853  37.123  12.269   1.940
72528W        W44854  31.959   8.733  12.575
72529W        W44855   2.128  31.231   1.684
72530W        W44856  33.136   8.715  13.942
72531W        W44857  33.347  39.400   1.241
72532W        W44858  37.645  36.379   3.813
72533W        W44859  20.794   7.943  13.554
72534W        W44860   1.417  15.710  11.143
72535W        W44861  15.730  40.241   0.457
72536W        W44862   2.416  21.027  13.029
72537W        W44863  35.995  26.058  11.184
72538W        W44864  21.260  19.997   1.116
72539W        W44865  37.823  44.015  10.530
72540W        W44866   5.888  22.470   0.230
72541W        W44867   2.495  23.545   2.290
72542W        W44868  17.098  41.205  14.241
72543W        W44869   7.428  21.829  12.038
72544W        W44870  14.600  39.072   4.714
72545W        W44871  12.287  23.486   4.894
72546W        W44872   1.211  31.838   1.659
72547W        W44873  23.456  37.497   2.070
72548W        W44874  10.872  26.075  11.001
72549W        W44875  24.093  37.431  10.695
72550W        W44876  12.320  44.536  13.479
72551W        W44877   6.501  21.680   3.068
72552W        W44878  25.960  37.335   1.269
72553W        W44879  34.092  12.912  14.210
72554W        W44880  36.388  39.338  12.030
72555W        W44881  34.540   0.728   1.606
72556W        W44882   8.792  44.412   2.795
72557W        W44883  20.856  27.090  11.161
72558W        W44884  13.028  18.601   1.251
72559W        W44885  37.001   9.785   3.740
72560W        W44886  44.381   0.497   3.580
72561W        W44887   4.578  19.098  14.288
72562W        W44888  44.248   7.435  13.976
72563W        W44889  10.380  18.660  11.302
72564W        W44890  22.792  12.362  12.916
72565W        W44891  23.080  44.822   0.232
72566W        W44892  21.937  33.066   0.968
72567W        W44893  29.087  15.084  11.388
72568W        W44894  32.954   8.225   3.626
72569W        W44895  43.829  28.621  10.893
72570W        W44896  22.521  30.450  10.659
72571W        W44897   8.115   5.982  14.375
72572W        W44898  28.083  15.569  14.685
72573W        W44899  25.690  12.383   1.420
72574W        W44900  13.678  40.914  13.312
72575W        W44901  10.179  23.272  11.971
72576W        W44902  19.629   4.916  11.705
72577W        W44903  13.658   9.982  13.571
72578W        W44904  13.242  13.995  11.780
72579W        W44905   1.743  33.184   1.367
72580W        W44906  22.152   0.002   1.582
72581W        W44907  36.715  29.027  11.408
72582W        W44908  10.654  38.087   3.661
72583W        W44909   3.358  21.455   5.035
72584W        W44910  20.090  21.898  14.057
72585W        W44911  20.088  42.843   0.421
72586W        W44912  21.304  42.919  13.866
72587W        W44913   7.080   6.222   1.336
72588W        W44914  36.819  24.542  10.745
72589W        W44915  12.702   5.277  12.122
72590W        W44916  36.575   3.067   4.164
72591W        W44917   4.244  32.028  13.582
72592W        W44918  34.796  20.374  13.216
72593W        W44919  15.867   3.916   3.510
72594W        W44920  40.444  28.205  13.548
72595W        W44921  15.674  12.662  11.628
72596W        W44922   1.673  35.155  13.673
72597W        W44923   7.192  30.999   0.807
72598W        W44924   9.982   6.415  13.008
72599W        W44925   1.732  30.229   0.787
72600W        W44926  26.580   7.354   1.248
72601W        W44927  39.543  29.154  10.730
72602W        W44928  39.091  18.464  11.575
72603W        W44929  43.609  21.084   4.272
72604W        W44930  30.156   9.557   2.227
72605W        W44931  40.860  22.587   4.580
72606W        W44932  44.274  31.705   3.193
72607W        W44933  42.376   1.735   4.121
72608W        W44934  33.474  40.216   1.871
72609W        W44935  29.338   0.475   0.743
72610W        W44936  30.505  31.119  12.921
72611W        W44937   9.694  25.535  13.990
72612W        W44938  32.286   9.846   3.158
72613W        W44939  41.045   1.374   4.170
72614W        W44940  23.872  23.292   0.384
72615W        W44941   4.293   0.777   2.857
72616W        W44942  11.524  30.579   3.689
72617W        W44943  23.586  17.141  12.182
72618W        W44944   0.398   7.661  10.759
72619W        W44945  12.135  22.696   2.427
72620W        W44946   4.143  40.836   0.748
72621W        W44947  18.071  32.224  10.521
72622W        W44948  11.724  28.745   2.360
72623W        W44949  37.453  42.063   1.781
72624W        W44950  43.345  19.697  11.887
72625W        W44951   1.174  11.749  12.877
72626W        W44952  31.441   8.774  11.411
72627W        W44953  14.779  33.532   4.393
72628W        W44954  36.529  14.231  13.500
72629W        W44955  25.767  17.195   5.448
72630W        W44956  38.199  27.409  14.099
72631W        W44957   0.127   0.392   1.402
72632W        W44958   0.787  17.846  12.661
72633W        W44959  35.747   4.927  13.439
72634W        W44960  44.777  15.223  14.765
72635W        W44961  15.861  33.386   1.898
72636W        W44962  44.558  30.522   4.033
72637W        W44963  23.599  43.107  11.914
72638W        W44964  23.579  14.538  12.461
72639W        W44965  12.842  41.062  12.942
72640W        W44966   6.743  34.060   0.476
72641W        W44967   1.832   3.212   2.862
72642W        W44968  36.525  26.877  12.240
72643W        W44969   1.283  24.914  10.541
72644W        W44970  32.415   2.672   3.168
72645W        W44971   5.815  43.416   1.233
72646W        W44972  27.588   0.924   2.914
72647W        W44973  39.246   6.982  14.939
72648W        W44974   0.281   9.005  13.742
72649W        W44975  32.852  44.062  12.005
72650W        W44976  10.758  38.329   4.143
72651W        W44977   7.259  24.928   4.050
72652W        W44978  23.027  42.753   3.394
72653W        W44979  27.018  15.627   2.299
72654W        W44980   0.361   7.167   1.797
72655W        W44981  36.282  23.628  10.725
72656W        W44982  27.057   9.267   0.404
72657W        W44983   6.073  16.306  14.092
72658W        W44984  26.377  22.651   3.614
72659W        W44985  20.254  44.244  13.464
72660W        W44986  14.207  35.848   1.969
72661W        W44987  12.392   8.849  11.948
72662W        W44988   1.745  25.109   2.303
72663W        W44989  23.946  14.098   2.431
72664W        W44990  18.136  35.502   0.238
72665W        W44991  22.844   5.694  12.438
72666W        W44992  11.140  18.302   1.939
72667W        W44993   0.987  26.456   4.597
72668W        W44994  31.378  14.683   1.724
72669W        W44995  33.098  23.475  13.517
72670W        W44996  32.972  14.284   0.118
72671W        W44997  41.774  43.830  11.174
72672W        W44998  40.943  17.776   2.836
72673W        W44999  16.531  21.454   0.706
72674W        W45000  35.542  32.937   2.353
72675W        W45001   5.392  44.424  14.798
72676W        W45002  24.998  12.062   0.832
72677W        W45003   6.400  37.967   0.719
72678W        W45004  16.315  22.144  10.570
72679W        W45005   5.898   2.447   1.841
72680W        W45006   0.291  18.060  11.007
72681W        W45007  18.790  38.631   1.411
72682W        W45008   6.968  14.379  12.816
72683W        W45009  18.659   9.213  11.207
72684W        W45010  17.773  31.892   3.637
72685W        W45011  44.840  30.686   2.223
72686W        W45012  25.289   9.957  11.336
72687W        W45013  32.513  41.508  14.034
72688W        W45014   1.936  43.970  14.387
72689W        W45015  34.295  35.447  12.015
72690W        W45016  35.369  12.845   2.340
72691W        W45017  22.075  32.412   2.787
72692W        W45018   0.908   6.915  12.466
72693W        W45019  17.502  13.680  11.046
72694W        W45020   3.308  29.884  10.794
72695W        W45021   7.388  21.030   2.038
72696W        W45022   5.957  37.519   0.364
72697W        W45023   8.866  27.804  13.421
72698W        W45024  40.395  34.032  13.839
72699W        W45025  43.407  12.621   1.395
72700W        W45026  20.478  16.244  14.821
72701W        W45027   3.722  19.278   3.260
72702W        W45028   1.291  32.569  14.626
72703W        W45029  20.095  32.648   4.169
72704W        W45030  18.632  21.334  10.644
72705W        W45031  18.448  36.070  11.549
72706W        W45032  29.559  27.927   4.550
72707W        W45033  30.481  41.748   0.906
72708W        W45034  16.317  13.736  11.538
72709W        W45035  42.346  44.108  14.494
72710W        W45036  11.859   0.287  10.993
72711W        W45037  26.434  26.554  13.505
72712W        W45038  13.049  17.785   1.773
72713W        W45039  37.113  40.387   2.878
72714W        W45040  31.056  31.701   4.735
72715W        W45041   1.486  12.140   5.223
72716W        W45042  33.293  39.746  11.870
72717W        W45043  17.235   0.909  12.474
72718W        W45044  24.458  17.311   4.543
72719W        W45045  17.835   7.688  12.417
72720W        W45046  39.925  36.028   3.698
72721ION    NA+45047   9.465  11.400  14.343
72722ION    NA+45048  23.272   0.665  14.925
72723ION    NA+45049  22.496  43.374  13.359
72724ION    NA+45050  21.324  16.431  10.913
72725ION    NA+45051  32.123  41.402   0.312
72726ION    NA+45052  14.314  32.583   3.221
72727ION    NA+45053  18.015  19.051  10.713
72728ION    NA+45054  40.082  34.851   1.173
72729ION    NA+45055  19.803   5.936   0.043
72730ION    NA+45056  24.258  18.550   2.744
72731ION    NA+45057  42.948  21.328  13.382
72732ION    NA+45058  19.132  31.244   0.732
72733ION    NA+45059   2.791  44.019  10.863
72734ION    NA+45060   5.877  12.931   4.610
72735ION    NA+45061  42.555  20.983   5.395
72736ION    NA+45062  19.599  29.184   3.651
72737ION    NA+45063  37.827   1.186  11.113
72738ION    NA+45064  43.574  43.807  11.231
72739ION    NA+45065   2.554   8.064   2.763
72740ION    NA+45066   7.135  29.121  12.893
72741ION    NA+45067  17.565  44.327  11.459
72742ION    NA+45068  37.879  37.583   0.921
72743ION    NA+45069  21.207   9.717  13.879
72744ION    NA+45070   1.843   8.609  11.070
72745ION    NA+45071   2.258   5.203   0.598
72746ION    NA+45072  31.389   0.977  11.511
72747ION    NA+45073   7.030  33.893   2.047
72748ION    NA+45074  40.324  19.776  14.265
72749ION    NA+45075   8.466  32.528   2.684
72750ION    NA+45076  40.765   2.677  14.276
72751ION    NA+45077  13.856  12.488   9.995
72752ION    NA+45078  38.794  10.346  12.438
72753ION    NA+45079  21.769  10.789  11.331
72754ION    NA+45080  36.632  43.459  10.696
72755ION    NA+45081  43.831  15.538   3.766
72756ION    NA+45082   1.563   2.299  10.176
72757ION    NA+45083   4.917   9.976   9.668
72758ION    NA+45084  25.863  18.442   1.290
72759ION    NA+45085  18.086  31.533  14.022
72760ION    NA+45086  21.474   0.260  10.723
72761ION    NA+45087  22.210  41.057  12.400
72762ION    NA+45088  20.661  16.108  14.284
72763ION    NA+45089   6.420  19.785   2.369
72764ION    NA+45090  14.570  36.898  11.546
72765ION    NA+45091  14.337  11.785  14.841
72766ION    NA+45092   7.479  31.472  11.490
72767ION    NA+45093  43.065  22.915   0.179
72768ION    NA+45094   8.767  26.250  14.508
72769ION    NA+45095  31.005   8.030   0.351
72770ION    NA+45096   3.959  39.742  11.402
72771ION    NA+45097   6.501  21.456  13.364
72772ION    NA+45098   1.787  42.919   2.975
72773ION    NA+45099  11.857   2.663   2.458
72774ION    NA+45100  23.677  36.561  14.469
72775ION    NA+45101  33.358  14.613   4.276
72776ION    NA+45102   1.428  43.665   3.673
72777ION    NA+45103  20.612  13.231   4.414
72778ION    NA+45104  28.619   1.981  10.702
72779ION    NA+45105  15.772  23.917  13.248
72780ION    NA+45106   4.822  13.864   1.893
72781ION    NA+45107  30.116  21.806   2.945
72782ION    NA+45108  10.702  23.285  11.172
72783ION    NA+45109  17.852  31.514   3.994
72784ION    NA+45110   7.294   1.277   2.107
72785ION    NA+45111  28.579  36.264   3.792
72786ION    NA+45112   0.704  15.542   0.968
72787ION    NA+45113  28.286  35.246  11.631
72788ION    NA+45114  25.397  19.662   2.108
72789ION    NA+45115  32.990  23.230  13.050
72790ION    NA+45116  15.170  38.253  11.623
72791ION    NA+45117  31.956  13.858  14.286
72792ION    NA+45118  43.728  41.349  12.013
72793ION    NA+45119  10.268  37.487   5.096
72794ION    NA+45120  33.063  34.380  13.815
72795ION    NA+45121  16.306   0.257   2.202
72796ION    NA+45122   4.614  29.416   1.857
72797ION    NA+45123  29.898  26.326  14.144
72798ION    NA+45124  14.757   8.704  13.809
72799ION    NA+45125  39.866   7.111   2.693
72800ION    NA+45126  23.561  43.973  14.997
72801ION    NA+45127  39.964   1.879   0.873
72802ION    NA+45128  25.482  13.517  12.178
72803ION    NA+45129  42.663  24.206   4.078
72804ION    NA+45130  29.016  28.936  11.924
72805ION    NA+45131  15.941   1.446  14.437
72806ION    NA+45132  13.767  10.239  12.131
72807ION    NA+45133   9.619  34.934   3.506
72808ION    NA+45134  37.493  29.123   3.838
72809ION    NA+45135  15.993  16.142   2.635
72810ION    NA+45136  29.546   5.209   4.249
72811ION    NA+45137  13.306  31.168   0.481
72812ION    NA+45138  10.794  27.947  11.654
72813ION    NA+45139  26.834  17.499  12.723
72814ION    NA+45140  22.022  31.587   3.240
72815ION    NA+45141  20.653  10.935   3.503
72816ION    NA+45142  41.257  16.745   4.196
72817ION    NA+45143   8.654  23.585  13.800
72818ION    NA+45144  24.998   1.819   2.268
72819ION    NA+45145  10.567  39.917   1.396
72820ION    NA+45146   9.664  38.820   0.699
72821ION    NA+45147   7.217  12.765   3.208
72822ION    NA+45148  20.790  35.337  11.803
72823ION    NA+45149  25.116   3.845   4.479
72824ION    NA+45150  28.741  38.941  13.635
72825ION    NA+45151  40.764   9.266  14.746
72826ION    NA+45152  36.418  19.688   1.171
72827ION    NA+45153  43.529  25.478  11.954
72828ION    NA+45154  17.869  21.379   1.880
72829ION    NA+45155  20.301  29.858  14.337
72830ION    NA+45156  12.178  30.800  10.843
72831ION    NA+45157  33.670  32.311   1.998
72832ION    NA+45158  15.524  21.773  14.566
72833ION    NA+45159  44.512  31.933   4.330
72834ION    NA+45160   1.535  22.716   4.889
72835ION    NA+45161  44.935  16.545  11.325
72836ION    NA+45162   5.918  25.587   0.689
72837ION    NA+45163  23.553  27.865  11.565
72838ION    NA+45164   9.555  40.596  14.007
72839ION    NA+45165  41.377  36.974   1.641
72840ION    NA+45166   6.365  17.648  14.451
72841ION    NA+45167   4.809  31.878   4.714
72842ION    NA+45168  18.207  18.330   3.164
72843ION    NA+45169  35.018  32.725   5.568
72844ION    NA+45170  36.967  17.921  14.297
72845ION    NA+45171  11.427  38.270   4.670
72846ION    NA+45172  34.156   5.970  14.059
72847ION    NA+45173   7.353  23.447   0.923
72848ION    NA+45174   5.703   5.943   0.982
72849ION    NA+45175  35.310  30.493   4.126
72850ION    NA+45176  23.625  31.234  13.558
72851ION    NA+45177   8.830  33.063   3.447
72852ION    NA+45178  31.567   1.938   4.629
72853ION    NA+45179   1.156  41.814  14.843
72854ION    NA+45180  37.436   9.285  10.428
72855ION    NA+45181  21.925   9.183  13.832
72856ION    NA+45182  30.583   9.222  13.056
72857ION    NA+45183  19.626   5.293   1.404
72858ION    NA+45184  20.685  17.532  13.183
72859ION    NA+45185  21.020   8.258  13.192
72860ION    NA+45186  44.229  20.754  12.013
72861ION    NA+45187  20.170   3.011  10.783
72862ION    NA+45188   1.062  17.888  13.921
72863ION    NA+45189  11.215  17.940  12.255
72864ION    NA+45190  22.702  15.083  12.430
72865ION    NA+45191  39.886  35.999  14.678
72866ION    NA+45192  26.665   1.364   4.242
72867ION    NA+45193  20.780   2.792  14.781
72868ION    NA+45194  17.975  12.061   0.327
72869ION    NA+45195  11.845   4.441   4.382
72870ION    NA+45196  27.633  28.493  13.834
72871ION    NA+45197  22.518  27.043  11.446
72872ION    NA+45198  32.675  10.401  11.518
72873ION    NA+45199  10.572   7.986   4.181
72874ION    NA+45200  22.688  23.376  11.245
72875ION    NA+45201  24.945  31.976  11.969
72876ION    NA+45202  38.925  16.194   2.408
72877ION    NA+45203  38.790  14.494  13.982
72878ION    NA+45204  10.458  14.199  13.379
72879ION    NA+45205  42.267   3.195  13.074
72880ION    NA+45206  30.650  28.651   4.436
72881ION    NA+45207  25.537  21.042  13.730
72882ION    NA+45208  39.566   9.650  14.381
72883ION    NA+45209  13.137   8.365   2.920
72884ION    NA+45210  22.713   9.272   4.483
72885ION    NA+45211  13.040  15.476   4.608
72886ION    NA+45212   6.120  44.705  14.114
72887ION    NA+45213   0.266  22.064   4.134
72888ION    NA+45214  24.191  33.129  14.429
72889ION    NA+45215   7.775  12.098  10.912
72890ION    NA+45216  11.748   4.325  14.307
72891ION    NA+45217  28.081  12.035  12.457
72892ION    NA+45218  34.259  26.020   3.271
72893ION    NA+45219  35.289  28.386  10.903
72894ION    NA+45220  30.988  11.396   2.760
72895ION    NA+45221   4.961   7.464  13.874
72896ION    NA+45222  20.209  43.909   4.083
72897ION    NA+45223   0.660   0.075  14.456
72898ION    NA+45224  25.438  29.477   0.135
72899ION    NA+45225   7.478  29.107   4.111
72900ION    NA+45226  30.413  28.234   1.684
72901ION    NA+45227  41.244  39.654  14.505
72902ION    NA+45228  40.481  43.682   1.670
72903ION    NA+45229  44.966   4.924  11.375
72904ION    NA+45230  11.954  10.695   2.297
72905ION    NA+45231  34.073  26.547  14.381
72906ION    NA+45232  39.133  10.984  13.129
72907ION    NA+45233  23.832  36.622   2.651
72908ION    NA+45234  18.910  24.274   3.349
72909ION    NA+45235  40.380   4.067  13.255
72910ION    NA+45236   9.432  14.533   3.016
72911ION    NA+45237  29.879  22.864  11.063
72912ION    NA+45238  12.208  27.706  13.908
72913ION    NA+45239   6.440  27.152   4.584
72914ION    NA+45240  44.478   4.256  11.953
72915ION    NA+45241   1.328  34.095  14.424
72916ION    NA+45242  10.644  32.172   4.162
72917ION    NA+45243  43.778  37.685   2.455
72918ION    NA+45244  24.088  18.212  11.514
72919ION    NA+45245  28.375  36.957   1.132
72920ION    NA+45246   9.037  31.240  10.633
72921ION    NA+45247  30.137  35.156   1.136
72922ION    NA+45248  11.533  21.826   2.456
72923ION    NA+45249  14.617  31.200   2.397
72924ION    NA+45250  22.014  32.606  14.582
72925ION    NA+45251  44.696   8.065  12.770
72926ION    NA+45252  21.601  20.071   0.434
72927ION    NA+45253   5.868  41.487   4.067
72928ION    NA+45254  17.163  44.037   0.449
72929ION    NA+45255  21.490  40.938  14.241
72930ION    NA+45256  21.191   4.917   4.354
72931ION    NA+45257  37.997  37.941   3.268
72932ION    NA+45258   1.974  13.467  12.155
72933ION    NA+45259  23.171   6.112  12.441
72934ION    NA+45260   0.141  23.688   3.541
72935ION    NA+45261  44.009  28.393   3.619
72936ION    NA+45262  37.533  12.660  14.914
72937ION    NA+45263  28.943  36.821  14.990
72938ION    NA+45264  19.770  40.775   2.753
72939ION    NA+45265  10.590  44.874  12.100
72940ION    NA+45266  39.934  40.858  10.641
72941ION    NA+45267  37.821  34.351   3.189
72942ION    NA+45268  34.633   7.046   0.356
72943ION    NA+45269  38.546  39.039  10.665
72944ION    NA+45270   5.336  19.105  13.677
72945ION    NA+45271  29.311   1.943   3.365
72946ION    NA+45272   9.110  40.199  14.810
72947ION    NA+45273  34.918  26.408   3.753
72948ION    NA+45274  16.560  10.760   2.854
72949ION    NA+45275  33.204  17.262   1.863
72950ION    NA+45276   3.776  18.607  14.109
72951ION    NA+45277  24.991   9.684  14.207
72952ION    NA+45278   9.649   4.169  14.371
72953ION    NA+45279  23.675  31.460   4.839
72954ION    NA+45280  12.707  38.894  13.519
72955ION    NA+45281  28.673   0.766  11.199
72956ION    NA+45282  15.160   4.486  12.530
72957ION    NA+45283  38.896  23.228  12.371
72958ION    NA+45284  26.705   1.813  13.373
72959ION    NA+45285   9.289  33.491  12.988
72960ION    NA+45286  27.905  28.737   0.467
72961ION    NA+45287   5.803  16.363   1.348
72962ION    NA+45288  40.288   4.734  14.962
72963ION    NA+45289  27.262   6.454  11.987
72964ION    NA+45290  40.119  37.874   4.036
72965ION    NA+45291   6.052  39.241  13.226
72966ION    NA+45292   4.885  16.147   3.104
72967ION    NA+45293   0.712  16.637  10.872
72968ION    NA+45294  26.649  16.008   0.068
72969ION    NA+45295  38.598  28.753   0.744
72970ION    NA+45296   7.050  36.846   0.450
72971ION    NA+45297  35.546  23.982   1.864
72972ION    NA+45298  14.779  32.175   1.539
72973ION    NA+45299   7.162  20.752  12.031
72974ION    NA+45300  43.246  16.651  12.580
72975ION    NA+45301  39.593  22.703   2.918
72976ION    NA+45302  15.058  39.324  10.579
72977ION    NA+45303  16.590   4.783   1.680
72978ION    NA+45304  24.697  31.281   1.074
72979ION    NA+45305  22.073  38.817   3.263
72980ION    NA+45306  24.396  44.335   0.453
72981ION    NA+45307  13.635  31.056  14.250
72982ION    NA+45308  18.075  36.813   3.106
72983ION    NA+45309  25.069  20.324   4.538
72984ION    NA+45310  25.501  26.546  13.327
72985ION    NA+45311   5.834   4.287   4.418
72986ION    NA+45312  43.646  24.398   4.198
72987ION    NA+45313  13.488  23.851  11.467
72988ION    NA+45314   0.771  37.079  14.088
72989ION    NA+45315   4.292  23.753  10.716
72990ION    NA+45316   2.714   6.848   3.270
72991ION    NA+45317  29.934  27.975  12.419
72992ION    NA+45318  20.799  42.486  13.547
72993ION    NA+45319  14.256  17.753  11.096
72994ION    NA+45320   5.833  32.910  10.605
72995ION    NA+45321   4.568  40.574   3.235
72996ION    NA+45322  21.063  10.092  12.810
72997ION    NA+45323  32.077  11.621   4.664
72998ION    NA+45324   0.738  33.589  13.092
72999ION    NA+45325  24.453  10.892   1.938
73000ION    NA+45326  23.835  19.472  12.416
73001ION    NA+45327  18.779  25.654  11.902
73002ION    NA+45328   3.140   1.633   9.918
73003ION    NA+45329  33.974  34.085  14.549
73004ION    NA+45330  11.926  38.704   3.921
73005ION    NA+45331   8.558  29.819   3.945
73006ION    NA+45332   2.338   3.915   4.922
73007ION    NA+45333  38.457  34.789  11.960
73008ION    NA+45334  17.011  20.808   3.525
73009ION    NA+45335  23.105  38.796   0.451
73010ION    NA+45336  28.022  43.487   3.098
73011ION    NA+45337  22.179  37.659   4.542
73012ION    NA+45338  26.597  25.515  10.831
73013ION    NA+45339  36.379  19.687  13.455
73014ION    NA+45340  13.834  39.534   0.863
73015ION    NA+45341  39.496  42.458   3.244
73016ION    NA+45342  22.712  24.638  11.147
73017ION    NA+45343  42.766  11.311   9.634
73018ION    NA+45344  23.913   8.326   0.326
73019ION    NA+45345  37.974  42.072   2.871
73020ION    NA+45346  13.693   6.131   3.699
73021ION    NA+45347   9.876  14.702   1.387
73022ION    NA+45348   7.397  11.433   2.500
73023ION    NA+45349   8.495  34.821  12.125
73024ION    NA+45350  22.085  14.118   2.362
73025ION    NA+45351   3.889  20.394   3.193
73026ION    NA+45352   6.415  34.592  14.824
73027ION    NA+45353  29.050  38.063   1.852
73028ION    NA+45354   9.755  11.328   1.802
73029ION    NA+45355  24.912  16.949   4.444
73030ION    NA+45356  36.312  29.450   2.294
73031ION    NA+45357  20.944  21.775  11.590
73032ION    NA+45358  24.534  32.404   2.985
73033ION    NA+45359   8.334  22.788  11.043
73034ION    NA+45360   4.723   5.213   3.277
73035ION    NA+45361   0.360  19.730   2.438
73036ION    NA+45362  29.871   9.048  10.705
73037ION    NA+45363  30.759  23.139   1.752
73038ION    NA+45364  24.601  44.146   4.216
73039ION    NA+45365  22.138  44.894   2.920
73040ION    NA+45366  14.898  18.604  14.337
73041ION    NA+45367   4.412  37.808  13.153
73042ION    NA+45368  30.709  17.183   3.600
73043ION    NA+45369   0.930  40.051  12.827
73044ION    NA+45370  13.181  23.872   9.391
73045ION    NA+45371  19.703  31.814  14.485
73046ION    NA+45372  24.608  35.282   0.404
73047ION    NA+45373  11.694  24.612  11.689
73048ION    NA+45374  36.348  33.935   4.542
73049ION    NA+45375   2.089  38.491   0.820
73050ION    NA+45376   8.074  37.879   2.125
73051ION    NA+45377  10.406   8.532  14.107
73052ION    NA+45378  42.446  43.156  11.160
73053ION    NA+45379  29.617  44.741  10.662
73054ION    NA+45380  40.931   7.902  10.676
73055ION    NA+45381  18.068  25.105   4.668
73056ION    NA+45382  35.014  14.555  11.947
73057ION    NA+45383   3.665  21.820  13.580
73058ION    NA+45384  26.602  41.880  13.383
73059ION    NA+45385   0.492  11.407  12.856
73060ION    NA+45386  26.228  39.549  10.971
73061ION    NA+45387  44.970   7.740   0.992
73062ION    NA+45388  33.975  28.173  14.370
73063ION    NA+45389  25.432  30.123  11.877
73064ION    NA+45390  19.343  16.465   4.920
73065ION    NA+45391  19.119  13.780  13.785
73066ION    NA+45392  33.952  27.475  10.565
73067ION    NA+45393  27.159  14.440   4.895
73068ION    NA+45394  12.382   1.890   4.559
73069ION    NA+45395  42.890  44.723   1.598
73070ION    NA+45396   7.019  33.432  10.801
73071ION    NA+45397  10.492  26.618   0.800
73072ION    NA+45398  10.627  37.807   4.102
73073ION    NA+45399  24.013  10.062   3.491
73074ION    NA+45400  32.388  17.308   1.453
73075ION    NA+45401  28.420  30.417   2.856
73076ION    NA+45402   7.846  36.513  10.867
73077ION    NA+45403  30.147  10.767  10.443
73078ION    NA+45404  21.932   4.551  12.273
73079ION    NA+45405  25.650  11.585   1.132
73080ION    NA+45406  15.632  22.630   5.105
73081ION    NA+45407  17.252  20.207   1.272
73082ION    NA+45408  19.684  39.237   4.162
73083ION    NA+45409  43.780  21.911  10.858
73084ION    NA+45410  27.091  24.632  13.994
73085ION    NA+45411  43.481   8.824  13.145
73086ION    NA+45412  36.770  40.187  14.478
73087ION    NA+45413  23.819  34.071  11.949
73088ION    NA+45414  31.380  30.055  10.763
73089ION    NA+45415   2.750   0.661   1.332
73090ION    NA+45416  41.478  40.573   2.311
73091ION    NA+45417   7.676  33.395  12.476
73092ION    NA+45418  27.251  16.521  11.130
73093ION    NA+45419  20.237  17.338  11.602
73094ION    NA+45420  35.672   9.986  11.194
73095ION    NA+45421   2.833   6.163   0.132
73096ION    NA+45422  17.072  43.272  10.755
73097ION    NA+45423  31.600  25.094   2.663
73098ION    NA+45424  19.372   4.654   5.151
73099ION    NA+45425  34.640   6.689  11.510
73100ION    NA+45426  23.716  37.389  11.063
73101ION    NA+45427  26.466   1.789  11.965
73102ION    NA+45428  17.454  27.653  14.944
73103ION    NA+45429  11.820  25.287  10.651
73104ION    NA+45430  29.913  30.365   4.233
73105ION    NA+45431  10.160  29.213   2.222
73106ION    NA+45432  40.641  11.063   4.722
73107ION    NA+45433  28.889  10.249  14.989
73108ION    NA+45434  21.068  33.976   0.542
73109ION    NA+45435  10.858  23.803  14.943
73110ION    NA+45436   6.679  18.054   3.562
73111ION    NA+45437  38.166  38.951   3.141
73112ION    NA+45438  18.091  17.310   2.877
73113ION    NA+45439  40.931  23.999  11.568
73114ION    NA+45440   3.675   3.295  11.490
73115ION    NA+45441  41.889  24.166   4.811
73116ION    NA+45442   9.097   8.776  10.874
73117ION    NA+45443  39.071  13.535  13.946
73118ION    NA+45444  31.665  38.687   4.236
73119ION    NA+45445  24.404  40.309   3.195
73120ION    NA+45446  14.164  17.402   2.509
73121ION    NA+45447  25.975   9.325   3.885
73122ION    NA+45448  40.823  12.666   0.449
73123ION    NA+45449  41.237  26.251   2.079
73124ION    NA+45450   3.368  11.390   0.541
73125ION    NA+45451   5.945  38.875  11.947
73126ION    NA+45452   8.163  25.367  12.184
73127ION    NA+45453  37.363  40.803  13.083
73128ION    NA+45454  16.057   5.357  14.091
73129ION    NA+45455  12.820  26.164   4.602
73130ION    NA+45456  28.303  16.771  12.511
73131ION    NA+45457   9.104   9.424   2.795
73132ION    NA+45458  28.781  33.889   3.131
73133ION    NA+45459  35.352   3.541  12.927
73134ION    NA+45460  38.494   4.045  13.194
73135ION    NA+45461  27.707  15.290  11.502
73136ION    NA+45462   2.235  13.703  10.369
73137ION    NA+45463  11.994  17.503  12.403
73138ION    NA+45464  11.964   5.060   3.567
73139ION    NA+45465   5.343  40.749   1.824
73140ION    NA+45466  41.968  11.894   5.290
73141ION    NA+45467   2.957  17.764   0.239
73142ION    NA+45468  35.197  20.105   0.621
73143ION    NA+45469  32.460   0.941   1.173
73144ION    NA+45470  43.794  22.817  12.558
73145ION    NA+45471  29.564  25.294  11.615
73146ION    NA+45472  30.947  20.159  14.422
73147ION    NA+45473  36.075   0.341  13.555
73148ION    NA+45474  22.283   3.025   3.640
73149ION    NA+45475  30.573  14.675   4.785
73150ION    NA+45476   3.981  19.443   0.876
73151ION    NA+45477  19.462  21.424  11.069
73152ION    NA+45478  16.259   1.396  10.721
73153ION    NA+45479   1.126   4.943   1.786
73154ION    NA+45480  14.591   0.672   2.421
73155ION    NA+45481  37.394  11.185   2.940
73156ION    NA+45482  29.551  16.358  11.591
73157ION    NA+45483   6.463   9.682  12.063
73158ION    NA+45484  40.846  14.197   1.729
73159ION    NA+45485  19.378   3.847   4.671
73160ION    NA+45486  25.899   6.988  14.984
73161ION    NA+45487   4.942  27.603  14.421
73162ION    NA+45488  44.150  14.943   2.997
73163ION    NA+45489  12.403  28.385   2.232
73164ION    NA+45490  43.277  39.160   9.882
73165ION    NA+45491  27.467   7.404  10.711
73166ION    NA+45492  41.999  19.698   5.187
73167ION    NA+45493  16.443  42.674  12.550
73168ION    NA+45494   9.440  27.002  14.696
73169ION    NA+45495  26.081  23.566   1.187
73170ION    NA+45496  17.086  22.194  11.147
73171ION    NA+45497  24.600   2.462   1.409
73172ION    NA+45498  17.827  35.537   3.652
73173ION    NA+45499  37.933  43.265  13.615
73174ION    NA+45500   7.958  35.311   2.262
73175ION    NA+45501  13.815   9.586  10.883
73176ION    NA+45502  28.141  42.561  13.715
73177ION    NA+45503  13.146  18.049   2.206
73178ION    NA+45504  10.704  42.307   3.714
73179ION    NA+45505  24.696  16.741   2.308
73180ION    NA+45506  42.291  10.807  11.645
73181ION    NA+45507   6.970  33.132   5.036
73182ION    NA+45508   7.877  22.321  14.528
73183ION    NA+45509  26.408  15.737   5.136
73184ION    NA+45510  38.434  32.366  13.172
73185ION    NA+45511  26.248   6.426   4.992
73186ION    NA+45512  16.701  42.747   3.372
73187ION    NA+45513  35.138  43.510  12.816
73188ION    NA+45514   0.960  37.890  12.433
73189ION    NA+45515  29.305  44.159  14.429
73190ION    NA+45516  30.856   3.938  11.626
73191ION    NA+45517  11.874   2.772  12.883
73192ION    NA+45518   5.742  21.893  13.219
73193ION    NA+45519  14.231   5.235   1.446
73194ION    NA+45520  32.634  13.803  11.600
73195ION    NA+45521  43.551  27.655  13.748
73196ION    NA+45522   4.380  24.660   0.783
73197ION    NA+45523  40.103   0.715  12.436
73198ION    NA+45524  32.947  32.042  10.717
73199ION    NA+45525  25.892  16.222   4.150
73200ION    NA+45526  35.088  41.920  14.204
73201ION    NA+45527  30.482  42.531   1.903
73202ION    NA+45528  18.517  30.593  11.564
73203ION    NA+45529  42.467  44.710   3.760
73204ION    NA+45530   8.756  32.129   3.803
73205ION    NA+45531  23.116  19.068   0.850
73206ION    NA+45532   0.133  42.343  11.894
73207ION    NA+45533  31.005  32.997  13.815
73208ION    NA+45534  37.566   9.376   1.962
73209ION    NA+45535  30.668   2.798  14.098
73210ION    NA+45536   9.467  24.132  13.600
73211ION    NA+45537   9.596   4.376   1.630
73212ION    NA+45538  16.737  30.658   0.330
73213ION    NA+45539  40.569   4.664  12.393
73214ION    NA+45540  23.485   0.391   3.112
73215ION    NA+45541   4.498  29.350  11.933
73216ION    NA+45542  26.178  24.642   1.920
73217ION    NA+45543  29.860  10.435   4.022
73218ION    NA+45544  37.606  41.563  12.051
73219ION    NA+45545  18.852  24.148   0.049
73220ION    NA+45546  38.693   6.413  11.460
73221ION    NA+45547  35.110  34.265  14.532
73222ION    NA+45548  13.578  13.340  14.823
73223ION    NA+45549  39.977  43.172   2.175
73224ION    NA+45550  20.460  16.688   2.789
73225ION    NA+45551  42.248  37.636   4.217
73226ION    NA+45552  12.228  32.552  11.203
73227ION    NA+45553  18.911   3.783   1.052
73228ION    NA+45554  39.594  21.586   1.844
73229ION    NA+45555  44.446  11.577   2.718
73230ION    NA+45556   0.965  11.788   1.288
73231ION    NA+45557  27.163  36.714   0.959
73232ION    NA+45558  29.688  31.785  10.610
73233ION    NA+45559   8.375   2.968   0.564
73234ION    NA+45560  39.316  12.020   9.941
73235ION    NA+45561  41.936  12.058  14.896
73236ION    NA+45562   6.833   5.854   3.173
73237ION    NA+45563  40.536  12.705   1.825
73238ION    NA+45564   3.474   1.588  14.394
73239ION    NA+45565  36.269  31.570   1.386
73240ION    NA+45566  33.078  16.601  11.923
73241ION    NA+45567  40.456  18.178   3.792
73242ION    NA+45568  35.264  17.291   4.210
73243ION    NA+45569   4.142  39.257  12.161
73244ION    NA+45570  20.843  37.349  10.600
73245ION    NA+45571   9.614  44.531   1.721
73246ION    NA+45572  35.358   2.269  10.731
73247ION    NA+45573  16.892  22.227   1.116
73248ION    NA+45574  44.781   8.355   0.226
73249ION    NA+45575  30.085  34.252   4.780
73250ION    NA+45576  33.252  37.873   0.013
73251ION    NA+45577  20.542  36.975   3.896
73252ION    NA+45578  31.386  12.178   1.487
73253ION    NA+45579  26.463  32.494  13.864
73254ION    NA+45580  14.549  12.236   4.066
73255ION    NA+45581   0.731  28.084   0.552
73256ION    NA+45582  25.080  11.089   9.840
73257ION    NA+45583   2.416  24.610  11.669
73258ION    NA+45584  28.090  37.551  13.258
73259ION    NA+45585   6.853  33.100  12.961
73260ION    NA+45586  40.837  31.554  10.277
73261ION    NA+45587   3.429  34.842  11.973
73262ION    NA+45588   1.695   2.981   0.852
73263ION    NA+45589   2.418  42.617  14.285
73264ION    NA+45590  12.302   1.601  13.296
73265ION    NA+45591  30.640   3.756   3.289
73266ION    NA+45592  36.589  26.504  14.850
73267ION    NA+45593  14.341  21.800   1.313
73268ION    NA+45594  13.103  41.520  12.999
73269ION    NA+45595  10.325  26.403  13.476
73270ION    NA+45596  23.285   8.662   1.791
73271ION    NA+45597  29.004   5.874  12.605
73272ION    NA+45598  40.542  23.329  14.637
73273ION    NA+45599  21.128  33.457  12.930
73274ION    NA+45600  34.770  18.530  14.952
73275ION    NA+45601  40.174   3.560   4.515
73276ION    NA+45602  24.758   2.771  12.493
73277ION    NA+45603  16.266   0.816   0.820
73278ION    NA+45604  18.620   5.259   2.553
73279ION    NA+45605  36.936  25.627  11.209
73280ION    NA+45606  41.801   5.283   0.252
73281ION    NA+45607  32.836   3.748   4.104
73282ION    NA+45608  20.992  20.834   0.743
73283ION    NA+45609  21.722  21.143  12.038
73284ION    NA+45610  39.907  42.041   0.318
73285ION    NA+45611  14.379  11.355   1.270
73286ION    NA+45612  13.068  40.153   1.038
73287ION    NA+45613  14.068  41.516   3.217
73288ION    NA+45614  27.650  13.252  12.968
73289ION    NA+45615  43.215  40.313   0.704
73290ION    NA+45616   9.200  34.892  14.888
73291ION    NA+45617  35.737  11.404  10.685
73292ION    NA+45618  23.705  25.501  10.616
73293ION    NA+45619  12.344  25.334   4.222
73294ION    NA+45620   4.849  11.402  12.009
73295ION    NA+45621  34.080  27.820   1.914
73296ION    NA+45622   2.562  41.182   2.844
73297ION    NA+45623   5.173   7.604   2.794
73298ION    NA+45624  13.004  36.768  13.811
73299ION    NA+45625  41.169  23.830   4.990
73300ION    NA+45626  34.437  41.755  13.464
73301ION    NA+45627  39.792  29.996  12.154
73302ION    NA+45628  44.851   3.826   3.798
73303ION    NA+45629  26.410  24.176   3.788
73304ION    NA+45630  21.508  12.207   1.741
73305ION    NA+45631  44.232  11.706   4.110
73306ION    NA+45632   8.277   1.986   0.891
73307ION    NA+45633  14.770  28.564  13.858
73308ION    NA+45634  42.663  28.179  14.874
73309ION    NA+45635  20.355  29.081  12.620
73310ION    NA+45636  19.437  23.166  13.839
73311ION    NA+45637   3.212  16.346  13.334
73312ION    NA+45638  18.387  11.045  10.943
73313ION    NA+45639  43.517  34.075  14.330
73314ION    NA+45640   6.475  30.771   4.775
73315ION    NA+45641  15.759  35.965   2.332
73316ION    NA+45642  23.202  38.451   3.715
73317ION    NA+45643  14.681   7.977   0.391
73318ION    NA+45644  40.455  30.947   2.789
73319ION    NA+45645   0.956   4.902  10.628
73320ION    NA+45646  31.963  36.405  12.854
73321ION    NA+45647  28.932   4.901   3.522
73322ION    NA+45648  11.127  24.513   2.283
73323ION    NA+45649  21.090  31.137  11.578
73324ION    NA+45650  14.850  24.260  13.066
73325ION    NA+45651   8.822  14.194  11.532
73326ION    NA+45652  42.529  14.496  12.485
73327ION    NA+45653  29.035   2.247   2.221
73328ION    NA+45654  14.289  22.853   0.245
73329ION    NA+45655   3.120   5.673   4.453
73330ION    NA+45656  21.783  27.274   3.761
73331ION    NA+45657  11.295  42.983   1.064
73332ION    NA+45658   7.247  38.439   2.166
73333ION    NA+45659  40.338  12.259  13.485
73334ION    NA+45660  15.373  24.723  13.642
73335ION    NA+45661  16.566   4.678   0.315
73336ION    NA+45662  13.839   1.786  12.118
73337ION    NA+45663   4.087  44.817  12.548
73338ION    NA+45664   2.118   9.879   0.407
73339ION    NA+45665  11.469  24.256  13.284
73340ION    NA+45666  39.105  23.498   9.702
73341ION    NA+45667  29.530  23.256   4.119
73342ION    NA+45668  41.840  32.955   2.246
73343ION    NA+45669  21.507  39.474   2.356
73344ION    NA+45670   2.256  17.239   0.833
73345ION    NA+45671  37.788   8.809   4.155
73346ION    NA+45672  36.012  18.027   1.516
73347ION    NA+45673  25.019  10.207  10.172
73348ION    NA+45674  43.388   6.757  13.233
73349ION    NA+45675  18.747  16.067   3.620
73350ION    NA+45676  40.681  44.115   2.998
73351ION    NA+45677  39.977   7.862  12.012
73352ION    NA+45678  44.539   7.220  12.487
73353ION    NA+45679  31.212   9.317   4.623
73354ION    NA+45680   2.964  44.353   0.624
73355ION    NA+45681  17.980  41.868   3.411
73356ION    NA+45682  23.360  21.530   4.656
73357ION    NA+45683   0.843  11.072   2.092
73358ION    NA+45684  36.466  42.288   1.818
73359ION    NA+45685  30.513  37.559   3.751
73360ION    NA+45686   1.724   8.784  13.658
73361ION    NA+45687   1.698   7.826   0.427
73362ION    NA+45688  42.427   8.521   0.227
73363ION    NA+45689   2.492  41.880  12.354
73364ION    NA+45690  27.115   5.569  11.544
73365ION    NA+45691  31.401  20.645  12.022
73366ION    NA+45692  41.078  27.310   3.635
73367ION    NA+45693  23.098  18.187  14.079
73368ION    NA+45694  42.907  32.605   4.655
73369ION    NA+45695  20.307  14.344   1.877
73370ION    NA+45696  42.701  15.944  12.681
73371ION    NA+45697  13.656  30.426  11.470
73372ION    NA+45698  22.015  14.863  12.923
73373ION    NA+45699  15.200  43.886   4.609
73374ION    NA+45700  39.397  37.565   2.537
73375ION    NA+45701   3.964  26.540   0.202
73376ION    NA+45702  32.759  36.096   2.019
73377ION    NA+45703  25.050  15.140   3.601
73378ION    NA+45704   0.576  28.696  14.879
73379ION    NA+45705   9.207  10.257   1.090
73380ION    NA+45706  27.620  41.848   1.272
73381ION    NA+45707  26.963  35.660  11.650
73382ION    NA+45708  43.401  13.452  10.376
73383ION    NA+45709  32.726  19.292   3.471
73384ION    NA+45710  30.101   6.043   4.307
73385ION    NA+45711  12.634  22.043  12.453
73386ION    NA+45712  29.996   9.950  13.409
73387ION    NA+45713  43.368  29.616   4.981
73388ION    NA+45714  35.031  23.140  11.187
73389ION    NA+45715  31.192  39.743  13.277
73390ION    NA+45716  30.447  42.677   9.881
73391ION    NA+45717  40.256   5.360  12.008
73392ION    NA+45718   4.838   3.088  10.313
73393ION    NA+45719  18.773  36.750   1.278
73394ION    NA+45720  35.284  36.698   4.607
73395ION    NA+45721  14.480  24.088  14.494
73396ION    NA+45722  28.528   4.720   4.584
73397ION    NA+45723  22.444  39.640   3.065
73398ION    NA+45724  42.234  36.225   3.496
73399ION    NA+45725   4.225  32.123   3.909
73400ION    NA+45726   1.038  22.809  12.671
73401ION    NA+45727  12.834  43.586   2.842
73402ION    NA+45728  20.030   8.138  13.259
73403ION    NA+45729   9.053  20.288   0.224
73404ION    NA+45730  10.874  21.136   2.153
73405ION    NA+45731  17.506  33.518   0.213
73406ION    NA+45732  33.008  12.712   2.392
73407ION    NA+45733  26.542   4.898  10.933
73408ION    NA+45734  37.306  12.455   2.369
73409ION    NA+45735  15.995  11.925   0.380
73410ION    NA+45736  33.292  20.527  13.410
73411ION    NA+45737   3.735  31.783  14.343
73412ION    NA+45738   3.768  29.053   4.593
73413ION    NA+45739  44.534  15.761   2.150
73414ION    NA+45740  43.823   5.029   0.914
73415ION    NA+45741  29.425  42.371   4.086
73416ION    NA+45742  27.235  23.640   0.053
73417ION    NA+45743  16.618  44.358  14.439
73418ION    NA+45744  11.851   2.855   1.436
73419ION    NA+45745   1.049  39.717   2.968
73420ION    NA+45746  25.525  28.455  12.951
73421ION    NA+45747  27.335  24.379   3.279
73422ION    NA+45748   2.405   7.951   4.576
73423ION    NA+45749  15.047  17.125   3.643
73424ION    NA+45750  30.196  36.430   1.956
73425ION    NA+45751  28.841   3.751   4.607
73426ION    NA+45752  39.968   6.406   1.961
73427ION    NA+45753   5.185  21.705  10.984
73428ION    NA+45754  31.795  21.119  14.840
73429ION    NA+45755  40.763  16.883   5.092
73430ION    NA+45756  25.098  17.985  13.963
73431ION    NA+45757  19.935  37.197   2.087
73432ION    NA+45758  43.046   7.861  11.734
73433ION    NA+45759  36.175  30.583  13.036
73434ION    NA+45760  25.823  14.159   0.392
73435ION    NA+45761   2.692  28.829  13.492
73436ION    NA+45762  35.564  21.545  11.191
73437ION    NA+45763  21.457  28.043   3.174
73438ION    NA+45764  33.737  27.369  13.825
73439ION    NA+45765  13.538  18.827  13.083
73440ION    NA+45766  39.844   0.334   0.878
73441ION    NA+45767  13.240  37.984   4.711
73442ION    NA+45768  18.223   7.288  14.498
73443ION    NA+45769  34.939  36.591  13.012
73444ION    NA+45770   8.760  24.746  10.018
73445ION    NA+45771  30.766  16.641   0.321
73446ION    NA+45772  35.388   2.138   1.225
73447ION    NA+45773  38.691  11.112  14.831
73448ION    NA+45774  34.400  17.330   3.707
73449ION    NA+45775   6.734   0.919   2.882
73450ION    NA+45776   2.478  17.895  12.755
73451ION    NA+45777  11.863  37.258  13.843
73452ION    NA+45778   6.702  21.462   1.415
73453ION    NA+45779  15.153  41.913  12.432
73454ION    NA+45780  16.423  16.716   3.333
73455ION    NA+45781   3.631  40.591  11.396
73456ION    NA+45782  14.826  20.986   2.880
73457ION    NA+45783  31.298  14.609  14.332
73458ION    NA+45784  39.622  38.020   1.012
73459ION    NA+45785   4.966  20.892  14.112
73460ION    NA+45786  19.363   6.927   3.325
73461ION    NA+45787  42.531  32.215  13.139
73462ION    NA+45788  18.529  44.453  13.874
73463ION    NA+45789  21.996   3.405   4.606
73464ION    NA+45790  42.361   9.814  11.743
73465ION    NA+45791  17.534  22.234   2.726
73466ION    NA+45792   1.940  14.281  11.533
73467ION    NA+45793  41.987  19.265   2.748
73468ION    NA+45794  40.155  25.556  10.990
73469ION    NA+45795  25.183  25.678  11.060
73470ION    NA+45796  10.675   0.371  12.964
73471ION    NA+45797  24.993  43.420   4.493
73472ION    NA+45798  23.812  22.658  12.232
73473ION    NA+45799  41.513  26.432   1.135
73474ION    NA+45800  33.645  10.404  11.762
73475ION    NA+45801  22.541  12.250  12.466
73476ION    NA+45802  42.821  14.315   2.203
73477ION    NA+45803  18.749  28.647  12.429
73478ION    NA+45804  33.545  14.696  13.299
73479ION    NA+45805  16.391  18.523  12.886
73480ION    NA+45806  34.276  15.232  11.908
73481ION    NA+45807  15.186  30.800  12.379
73482ION    NA+45808   8.401  38.809   2.607
73483ION    NA+45809  10.209   9.348   0.286
73484ION    NA+45810  27.728  20.147   0.900
73485ION    NA+45811  31.879  35.338   1.478
73486ION    NA+45812   1.139  23.225   4.124
73487ION    NA+45813  12.541  16.689  11.508
73488ION    NA+45814  22.493  18.107  10.027
73489ION    NA+45815  32.259  14.801  14.535
73490ION    NA+45816  34.107  38.473   2.802
73491ION    NA+45817  15.280  44.856  13.874
73492ION    NA+45818   1.257  19.466   3.265
73493ION    NA+45819   7.016  17.270   3.041
73494ION    NA+45820  43.445  34.171   5.159
73495ION    NA+45821  32.082  43.662  10.824
73496ION    NA+45822  19.241  35.904   2.309
73497ION    NA+45823   6.644  15.846  10.490
73498ION    NA+45824  17.450  11.804   2.729
73499ION    NA+45825  32.553  34.610   3.975
73500ION    NA+45826  10.793   2.450  10.855
73501ION    NA+45827   9.024  38.387  12.483
73502ION    NA+45828  39.599  38.774  13.564
73503ION    NA+45829  15.506  24.183   4.345
73504ION    NA+45830   3.888  26.430   1.088
73505ION    NA+45831  27.590   0.683   3.389
73506ION    NA+45832   6.119   6.294   5.458
73507ION    NA+45833  37.661  18.687  14.396
73508ION    NA+45834  20.926  20.836  10.794
73509ION    NA+45835  38.454  23.548  11.476
73510ION    NA+45836  23.895  42.071   2.636
73511ION    NA+45837  11.657  31.345  12.065
73512ION    NA+45838   9.553  11.860  13.310
73513ION    NA+45839   5.735  36.590  11.471
73514ION    NA+45840  16.209   3.160  12.105
73515ION    NA+45841  37.933  11.485   4.447
73516ION    NA+45842  25.026  17.880  12.957
73517ION    NA+45843  41.492  30.961  10.734
73518ION    NA+45844  31.203  43.030  13.517
73519ION    NA+45845  20.478  42.019  10.679
73520ION    NA+45846  28.342  35.060  12.611
73521ION    NA+45847  32.631   3.759   0.294
73522ION    NA+45848  26.712  17.883   2.153
73523ION    NA+45849   6.972   1.992   2.841
73524ION    NA+45850  25.970   8.235   0.265
73525ION    NA+45851  18.343  19.838  14.310
73526ION    NA+45852  25.932  38.601  11.145
73527ION    NA+45853  10.167  44.117  12.621
73528ION    NA+45854  35.395  37.444   0.507
73529ION    NA+45855  13.792  31.805  14.732
73530ION    NA+45856  24.683   7.599  13.341
73531ION    NA+45857   3.717  11.784  11.147
73532ION    NA+45858   5.126   1.579   3.525
73533ION    NA+45859  38.822   5.514   3.543
73534ION    NA+45860  24.774   8.211   4.233
73535ION    NA+45861   9.684  12.888   1.027
73536ION    NA+45862   6.463  24.271   0.201
73537ION    NA+45863  16.276  37.062   1.331
73538ION    NA+45864  37.376  24.493  13.524
73539ION    NA+45865   7.099  37.321   1.393
73540ION    NA+45866  43.978   0.976  11.500
73541ION    NA+45867  13.768  27.356   0.711
73542ION    NA+45868   5.343  38.796  13.510
73543ION    NA+45869  41.845  15.567  11.892
73544ION    NA+45870  14.910  38.018   0.996
73545ION    NA+45871  26.429  43.367   3.263
73546ION    NA+45872  24.575  15.126   1.674
73547ION    NA+45873  19.845  13.558   3.410
73548ION    NA+45874  34.155  27.059  11.857
73549ION    NA+45875  39.995  33.358  14.084
73550ION    NA+45876  23.252  37.586  14.983
73551ION    NA+45877  12.376  37.665   0.340
73552ION    NA+45878  32.076   7.313   4.621
73553ION    NA+45879  28.664   8.369   4.522
73554ION    NA+45880  42.501   8.635  13.192
73555ION    NA+45881  13.414  26.265  10.415
73556ION    NA+45882  42.676  16.738  13.889
73557ION    NA+45883  33.937  29.659   0.217
73558ION    NA+45884   4.452  44.121  12.131
73559ION    NA+45885  42.880  21.497  10.720
73560ION    NA+45886   3.274  21.935   1.332
73561ION    NA+45887  33.575  43.999   1.016
73562ION    NA+45888  44.254  37.049   3.852
73563ION    NA+45889  23.723  20.247  13.597
73564ION    NA+45890  15.678  41.122  14.692
73565ION    NA+45891  30.830  23.544   3.610
73566ION    NA+45892   3.355  42.588   0.341
73567ION    NA+45893  43.357   9.909  13.894
73568ION    NA+45894  23.763  17.726   3.192
73569ION    NA+45895  24.436  34.212   1.919
73570ION    NA+45896  18.404  43.539  13.027
73571ION    NA+45897   8.451  25.881   3.381
73572ION    NA+45898  34.594  23.200  13.275
73573ION    NA+45899  26.509   1.309  14.231
73574ION    NA+45900   3.695  33.371  14.359
73575ION    NA+45901  28.213  26.295  12.071
73576ION    NA+45902  41.623  26.715  11.164
73577ION    NA+45903  41.358   2.324  14.907
73578ION    NA+45904  40.877  35.706   4.673
73579ION    NA+45905  38.810  31.539   0.932
73580ION    NA+45906   7.448  13.176   0.903
73581ION    NA+45907  26.168  33.448  13.812
73582ION    NA+45908  42.102  35.484   1.864
73583ION    NA+45909  20.805  19.304  13.173
73584ION    NA+45910  13.934   8.524  13.121
73585ION    NA+45911  16.499  21.436  14.207
73586ION    NA+45912  38.518  15.311   0.473
73587ION    NA+45913  39.089  23.873   1.944
73588ION    NA+45914  37.011  20.774   4.507
73589ION    NA+45915   4.427   0.190  13.929
73590ION    NA+45916  32.805  21.796  13.770
73591ION    NA+45917  20.918  43.902   1.003
73592ION    NA+45918  35.501   6.362   2.919
73593ION    NA+45919   8.001   2.794   2.436
73594ION    NA+45920  13.809  37.784  11.060
73595ION    NA+45921  18.272  28.544   2.106
73596ION    NA+45922  43.022   0.356  10.613
73597ION    NA+45923  22.366  16.760  12.164
73598ION    NA+45924   7.887  38.063   1.160
73599ION    NA+45925  29.594  32.019  12.330
73600ION    NA+45926   2.285   8.240   1.196
73601ION    NA+45927  10.062  11.088  14.889
73602ION    NA+45928   8.214   1.150   0.346
73603ION    NA+45929  19.208   2.334  13.928
73604ION    NA+45930  29.624   3.702  11.103
73605ION    NA+45931   4.406  36.970   3.690
73606ION    NA+45932  28.901  28.103  14.071
73607ION    NA+45933   0.924  32.041  12.255
73608ION    NA+45934  29.692  38.656   1.367
73609ION    NA+45935  39.994   3.435  12.219
73610ION    NA+45936  37.968  44.537   3.895
73611ION    NA+45937  39.899  24.028   1.300
73612ION    NA+45938  35.234  40.976  12.727
73613ION    NA+45939   0.717  22.015  11.461
73614ION    NA+45940  19.360  26.039   1.865
73615ION    NA+45941  33.552   2.506   4.720
73616ION    NA+45942  10.281  42.983  14.580
73617ION    NA+45943  38.444  13.509   2.969
73618ION    NA+45944   9.825  11.918   3.881
73619ION    NA+45945   2.975  29.500   3.170
73620ION    NA+45946  33.811  13.314   3.222
73621ION    NA+45947   0.133  44.712   0.097
73622ION    NA+45948  35.454  24.235   5.019
73623ION    NA+45949   9.650   5.300  10.673
73624ION    NA+45950  44.105  20.054   3.512
73625ION    NA+45951   8.752  36.372   0.697
73626ION    NA+45952   5.620  16.810   3.244
73627ION    NA+45953  36.287  34.584  11.080
73628ION    NA+45954  34.451  21.279   2.132
73629ION    NA+45955  30.614  34.743   1.929
73630ION    NA+45956  35.298  30.116  12.923
73631ION    NA+45957  26.115  42.369  11.822
73632ION    NA+45958  40.198  22.531   1.310
73633ION    NA+45959   1.686  10.250  14.441
73634ION    NA+45960  13.047  42.100  10.780
73635ION    NA+45961  41.773  31.182   1.602
73636ION    NA+45962  25.432  17.653  10.536
73637ION    NA+45963   2.609  43.307   2.729
73638ION    NA+45964  20.418  12.085   4.231
73639ION    NA+45965   6.374  29.109  14.574
73640ION    NA+45966  26.143  36.306   1.324
73641ION    NA+45967  13.442  21.754   0.867
73642ION    NA+45968   0.726  40.892   9.962
73643ION    NA+45969  22.313  20.032   3.332
73644ION    NA+45970  24.871  43.106  11.329
73645ION    NA+45971  37.662  17.086  14.712
73646ION    NA+45972  39.614  28.713   0.033
73647ION    NA+45973   4.269  39.910  14.407
73648ION    NA+45974  40.918  43.012   1.071
73649ION    NA+45975   4.518  35.462  11.513
73650ION    NA+45976  23.991  10.114  14.921
73651ION    NA+45977  32.969  34.980   0.055
73652ION    NA+45978  32.966   6.941  11.835
73653ION    NA+45979  39.442  23.702  11.459
73654ION    NA+45980   8.376  31.043   1.245
73655ION    NA+45981  26.129   2.342  12.749
73656ION    NA+45982  14.569  31.333  13.899
73657ION    NA+45983  16.984   6.536  12.579
73658ION    NA+45984  34.798  42.249   0.103
73659ION    NA+45985  28.209   9.123   1.869
73660ION    NA+45986  33.240  27.479  11.268
73661ION    NA+45987  21.551  11.748  14.330
73662ION    NA+45988  41.352  18.271  12.645
73663ION    NA+45989  19.626  27.887  10.999
73664ION    NA+45990  42.788  23.951   1.826
73665ION    NA+45991  38.046  40.809   1.426
73666ION    NA+45992  29.239  21.682   2.768
73667ION    NA+45993  36.057  41.982   3.210
73668ION    NA+45994  18.949  42.007  13.352
73669ION    NA+45995  17.602   9.789   0.992
73670ION    NA+45996  10.329  22.801  11.822
73671ION    NA+45997  25.943  32.156  11.946
73672ION    NA+45998  42.605  31.606  11.204
73673ION    NA+45999  23.658  21.563   2.680
73674ION    NA+46000  17.758  26.835  11.099
73675ION    NA+46001  26.292   0.312   0.257
73676ION    NA+46002  40.839  18.462   0.538
73677ION    NA+46003  35.749  30.080   4.785
73678ION    NA+46004  15.594  41.384   3.098
73679ION    NA+46005  18.961   5.873   3.301
73680ION    NA+46006  22.209  43.092   4.151
73681ION    NA+46007  43.325  36.736   1.696
73682ION    NA+46008  23.009  23.691   0.299
73683ION    NA+46009   5.118  41.188  13.917
73684ION    NA+46010  23.714   8.256  10.923
73685ION    NA+46011  13.794   8.710   1.582
73686ION    NA+46012  21.399  37.020   4.136
73687ION    NA+46013  32.882  13.988  13.629
73688ION    NA+46014   5.445  20.784  14.695
73689ION    NA+46015  37.914  40.222  12.221
73690ION    NA+46016  20.986   3.667  12.451
73691ION    NA+46017  31.866  44.522  10.957
73692ION    NA+46018  33.656  32.341  12.326
73693ION    NA+46019  36.327  37.164  11.991
73694ION    NA+46020  13.285  44.014   1.263
73695ION    NA+46021  24.148  21.864  12.040
73696ION    NA+46022  30.081   9.899  11.187
73697ION    NA+46023   1.322   5.916   2.341
73698ION    NA+46024  30.318  33.277  13.329
73699ION    NA+46025   3.855  19.635  12.074
73700ION    NA+46026  44.749  41.514   1.266
73701ION    NA+46027  27.783  14.207  11.483
73702ION    NA+46028  14.735  26.907   1.360
73703ION    NA+46029   0.346  43.102   5.121
73704ION    NA+46030  17.659  25.840  10.856
73705ION    NA+46031  21.962  43.068  12.542
73706ION    NA+46032   7.504   0.743  14.962
73707ION    NA+46033  27.243  10.049   2.794
73708ION    NA+46034  23.740  33.097  12.252
73709ION    NA+46035  15.450  15.244  14.821
73710ION    NA+46036  11.146   9.135  14.405
73711ION    NA+46037  33.344  40.005   0.397
73712ION    NA+46038  11.948  29.356   3.414
73713ION    NA+46039  15.222   8.830  12.153
73714ION    NA+46040  43.641  10.751   1.331
73715ION    NA+46041  29.791  25.667   3.031
73716ION    NA+46042  18.710   7.193   3.888
73717ION    NA+46043  30.736  41.956   4.588
73718ION    NA+46044   9.338  27.917   3.527
73719ION    NA+46045  38.334  12.507   3.271
73720ION    NA+46046  18.376  34.786   3.267
73721ION    NA+46047  37.165   9.436   1.162
73722ION    NA+46048  25.953  42.398   3.798
73723ION    NA+46049   9.860  25.457  11.630
73724ION    NA+46050  42.760  17.199  12.009
73725ION    NA+46051  30.681  10.202  12.884
73726ION    NA+46052  21.017  26.513   0.967
73727ION    NA+46053  44.377  12.617   2.894
73728ION    NA+46054  25.986  26.411   4.087
73729ION    NA+46055   1.390   4.069  12.317
73730ION    NA+46056  34.476  15.864   2.438
73731ION    NA+46057  20.329  13.057  11.630
73732ION    NA+46058   6.586  18.376  11.344
73733ION    NA+46059  44.713   3.382  11.967
73734ION    NA+46060  10.238  21.038  13.495
73735ION    NA+46061   3.865   0.693  14.608
73736ION    NA+46062  12.930  36.860  10.650
73737ION    NA+46063   3.967  12.777  13.632
73738ION    NA+46064  28.090   2.392   3.357
73739ION    NA+46065  32.485  12.438   0.318
73740ION    NA+46066  10.741  20.729  14.303
73741ION    NA+46067  41.705  13.051   0.176
73742ION    NA+46068   6.302  22.359  12.982
73743ION    NA+46069  31.445   9.871   1.894
73744ION    NA+46070  17.067   6.866  13.569
73745ION    NA+46071  38.287  44.295   1.963
73746ION    NA+46072   2.768  32.913  11.353
73747ION    NA+46073   7.809  33.834   3.561
73748ION    NA+46074  26.647  24.906  12.728
73749ION    NA+46075  18.724  19.769   3.608
73750ION    NA+46076  10.393  15.872   0.032
73751ION    NA+46077  41.805  13.364  14.231
73752ION    NA+46078  39.120   8.610   2.196
73753ION    NA+46079  38.551  36.901  14.319
73754ION    NA+46080  12.264  11.226   0.310
73755ION    NA+46081   1.459   7.731   4.182
73756ION    NA+46082   4.579   1.347   4.946
73757ION    NA+46083   5.198  17.777   4.312
73758ION    NA+46084   8.579  18.994   3.114
73759ION    NA+46085  29.943  32.668  11.081
73760ION    NA+46086   7.720   0.821  11.268
73761ION    NA+46087   5.027  39.809  13.762
73762ION    NA+46088  42.692  32.305   0.970
73763ION    NA+46089  30.586  22.900  10.333
73764ION    NA+46090  17.127   2.159   2.230
73765ION    NA+46091  24.718   8.216  12.555
73766ION    NA+46092  25.512  34.096   0.270
73767ION    NA+46093  14.972  39.829  12.654
73768ION    NA+46094  19.240  21.551   2.529
73769ION    NA+46095   1.715  17.346   3.793
73770ION    NA+46096  24.553  36.808  14.544
73771ION    NA+46097  20.262  44.842   3.702
73772ION    NA+46098  18.325  17.336  12.971
73773ION    NA+46099  24.972  13.671   2.338
73774ION    NA+46100  18.341   6.559  10.244
73775ION    NA+46101   0.945  18.681  14.519
73776ION    NA+46102  42.598  25.999  11.120
73777ION    NA+46103  43.974  40.044   1.494
73778ION    NA+46104  17.748  43.711  14.356
73779ION    NA+46105   8.789  24.255   0.357
73780ION    NA+46106   5.375  37.402   0.391
73781ION    NA+46107  42.594   0.465  11.954
73782ION    NA+46108   0.282   9.947   0.715
73783ION    NA+46109   3.011  33.726  13.350
73784ION    NA+46110  24.131  28.645  10.764
73785ION    NA+46111  21.386  15.420  12.263
73786ION    NA+46112  18.806  21.121   0.366
73787ION    NA+46113  14.082   9.777   2.721
73788ION    NA+46114  44.587  42.816   4.375
73789ION    NA+46115  44.825  39.963  10.974
73790ION    NA+46116  17.060   1.922   4.165
73791ION    NA+46117  43.389  26.222   4.162
73792ION    NA+46118  11.690  35.654   0.157
73793ION    NA+46119  35.730  26.087   4.241
73794ION    NA+46120  16.367  25.282   0.456
73795ION    NA+46121   4.301   6.919  12.316
73796ION    NA+46122  31.981  11.477  13.753
73797ION    NA+46123  38.266   8.865  12.995
73798ION    NA+46124  26.829  17.211   1.621
73799ION    NA+46125  12.874  12.725  11.539
73800ION    NA+46126   1.476  22.044  11.869
73801ION    NA+46127  16.177  11.237  14.413
73802ION    NA+46128  13.279  18.545   3.362
73803ION    NA+46129  12.586  40.239  12.745
73804ION    NA+46130  26.029  26.918   5.434
73805ION    NA+46131  41.544  43.716   2.553
73806ION    NA+46132  12.936  38.036  12.087
73807ION    NA+46133  33.132  13.439   0.718
73808ION    NA+46134  26.942  37.388   2.863
73809ION    NA+46135  32.004  15.790  12.105
73810ION    NA+46136  26.012  28.565   0.970
73811ION    NA+46137  31.106   1.963   3.742
73812ION    NA+46138  20.995  20.401   1.651
73813ION    NA+46139  23.907   4.605  11.436
73814ION    NA+46140  11.615  27.899   1.286
73815ION    NA+46141  15.054  41.849  14.376
73816ION    NA+46142  26.814  41.223  13.969
73817ION    NA+46143  43.262   7.703   2.720
73818ION    NA+46144  36.172  19.450  10.728
73819ION    NA+46145   2.444  11.831   4.870
73820ION    NA+46146   4.599   5.692   1.499
73821ION    NA+46147  32.629  39.360  10.683
73822ION    NA+46148  20.298   3.512  14.639
73823ION    NA+46149  16.790  20.204   0.385
73824ION    NA+46150  23.487  10.824   2.188
73825ION    NA+46151  16.248  28.431  10.832
73826ION    NA+46152   3.639  28.165   4.151
73827ION    NA+46153  40.546  19.585  12.977
73828ION    NA+46154  42.964  11.695  12.052
73829ION    NA+46155  32.828  31.987   1.331
73830ION    NA+46156  26.421   5.623   2.548
73831ION    NA+46157  32.630  12.236  11.257
73832ION    NA+46158  14.600   5.911   4.059
73833ION    NA+46159  38.699  18.891  11.755
73834ION    NA+46160  41.417  13.683  11.125
73835ION    NA+46161  38.024   3.352   3.543
73836ION    NA+46162  21.225  22.600   3.253
73837ION    NA+46163  33.028  32.972   4.601
73838ION    NA+46164  25.809   3.995  14.420
73839ION    NA+46165  27.577  12.376   1.947
73840ION    NA+46166  25.690  35.620   0.698
73841ION    NA+46167  34.703  40.644  12.080
73842ION    NA+46168  44.126  39.813   2.803
73843ION    NA+46169  15.396  14.427  11.220
73844ION    NA+46170  28.639  41.900   1.231
73845ION    NA+46171  25.549  20.077  11.500
73846ION    NA+46172  30.616  44.190  12.825
73847ION    NA+46173  44.789  10.690   3.674
73848ION    NA+46174  27.642   6.776   4.669
73849ION    NA+46175  30.429  29.476  14.319
73850ION    NA+46176   2.370   2.966   2.271
73851ION    NA+46177  25.487  42.707   4.725
73852ION    NA+46178  20.096  39.132   0.642
73853ION    NA+46179  17.323  40.014   0.749
73854ION    NA+46180  28.290  14.262   2.141
73855ION    NA+46181  30.868  40.535  12.586
73856ION    NA+46182   7.490  13.407   3.815
73857ION    NA+46183  26.063  15.772   1.480
73858ION    NA+46184  22.298  13.555   3.174
73859ION    NA+46185   7.298  12.162  12.427
73860ION    NA+46186  28.237  24.316   3.719
73861ION    NA+46187  44.574  42.858  12.625
73862ION    NA+46188  21.447  37.201  11.382
73863ION    NA+46189  17.984  11.067   2.790
73864ION    NA+46190  15.738  17.061  14.391
73865ION    NA+46191  27.066   5.963  12.914
73866ION    NA+46192  28.211  28.989   3.379
73867ION    NA+46193   2.442  39.089   3.600
73868ION    NA+46194  20.762  21.608   2.339
73869ION    NA+46195  12.707  34.643   0.671
73870ION    NA+46196  15.266   0.471  14.964
73871ION    NA+46197  18.003  15.635  12.084
73872ION    NA+46198  43.115  40.557   2.918
73873ION    NA+46199  27.472  22.981   0.650
73874ION    NA+46200  17.381   5.519  11.975
73875ION    NA+46201  44.605  23.911  13.410
73876ION    NA+46202  20.610  14.597   3.561
73877ION    NA+46203  32.505  20.485  12.462
73878ION    NA+46204  42.338   8.124   1.140
73879ION    NA+46205   8.998  44.022   0.443
73880ION    NA+46206  39.112  17.154   2.616
73881ION    NA+46207  13.306  28.648  12.613
73882ION    NA+46208   3.180  14.707  14.382
73883ION    NA+46209  10.367  37.468  12.474
73884ION    NA+46210  41.722  38.389   2.705
73885ION    NA+46211  37.342  39.262   0.867
73886ION    NA+46212  33.171  42.407  12.681
73887ION    NA+46213  18.084  23.120  11.229
73888ION    NA+46214  44.261  33.720  10.982
73889ION    NA+46215   0.574  13.783   3.193
73890ION    NA+46216  27.428   2.702  14.596
73891ION    NA+46217  37.470  32.617   3.637
73892ION    NA+46218  25.560   0.472   0.920
73893ION    NA+46219  38.753  31.008   4.591
73894ION    NA+46220  10.335  40.513  13.387
73895ION    NA+46221  39.958   9.827   4.977
73896ION    NA+46222  11.991  11.946  12.617
73897ION    NA+46223   5.277  30.345   0.639
73898ION    NA+46224   2.026  21.573   4.624
73899ION    NA+46225   3.916  42.279  11.108
73900ION    NA+46226  15.753  37.881   3.651
73901ION    NA+46227  33.000  44.085   0.202
73902ION    NA+46228  18.160  32.637  10.855
73903ION    NA+46229  21.581  16.415  12.553
73904ION    NA+46230  37.864  26.612   1.078
73905ION    NA+46231  24.380  25.764  14.024
73906ION    NA+46232  38.937  17.708   4.463
73907ION    NA+46233  39.933   5.042  12.720
73908ION    NA+46234  16.118  19.749   2.651
73909ION    NA+46235  43.482  39.094  12.355
73910ION    NA+46236  26.522  29.618  13.375
73911ION    NA+46237   7.412   6.115  11.676
73912ION    NA+46238   8.655  35.167  14.193
73913ION    NA+46239   0.781  18.960  11.326
73914ION    NA+46240  44.213  10.840   5.460
73915ION    NA+46241  33.594  15.302   3.538
73916ION    NA+46242  23.340   0.912   1.967
73917ION    NA+46243  43.473   1.450  14.402
73918ION    NA+46244  31.336  14.813   4.100
73919ION    NA+46245  30.700   3.001  10.777
73920ION    NA+46246  40.559  27.372  12.576
73921ION    NA+46247  34.070   6.407  14.832
73922ION    NA+46248  33.015  24.632  11.574
73923ION    NA+46249   8.967  40.613  11.461
73924ION    NA+46250  33.767   2.493   2.992
73925ION    NA+46251  43.459   0.157   0.106
73926ION    NA+46252  11.482  23.865  10.934
73927ION    NA+46253  24.591   2.276  11.629
73928ION    NA+46254  16.859  19.910  12.603
73929ION    NA+46255   1.158  26.517  11.152
73930ION    NA+46256  22.799  35.869  12.032
73931ION    NA+46257  29.539   0.756   2.809
73932ION    NA+46258   7.578  26.435   1.832
73933ION    NA+46259  43.089   2.469  14.975
73934ION    NA+46260  14.525  38.342   0.120
73935ION    NA+46261  12.166  33.424   3.098
73936ION    NA+46262   8.436   6.898   4.108
73937ION    NA+46263  31.512  22.877   4.684
73938ION    NA+46264   3.852  27.559  13.166
73939ION    NA+46265   9.525  19.503  14.824
73940ION    NA+46266  22.162  36.118  14.842
73941ION    NA+46267  20.246  36.916  12.137
73942ION    NA+46268  18.667   4.905  13.920
73943ION    NA+46269  17.534  44.319  12.751
73944ION    NA+46270  27.130   7.837  12.289
73945ION    NA+46271  42.752  16.280  10.625
73946ION    NA+46272  20.949  17.638   2.065
73947ION    NA+46273  15.480  24.035   2.939
73948ION    NA+46274  10.723   7.275  13.893
73949ION    NA+46275  43.482   3.263   0.212
73950ION    NA+46276  24.923  39.283   9.609
73951ION    NA+46277  39.736  20.147  11.102
73952ION    NA+46278  29.995  22.441   1.687
73953ION    NA+46279   0.947  43.271  13.756
73954ION    NA+46280  43.524  29.715   3.352
73955ION    NA+46281  26.863  28.675  14.509
73956ION    NA+46282  19.889  34.469  11.489
73957ION    NA+46283   8.538   5.981  12.107
73958ION    NA+46284  23.744  40.937  11.802
73959ION    NA+46285  35.752  19.421  11.657
73960ION    NA+46286  39.059   7.647  12.639
73961ION    NA+46287  36.873   2.374  11.083
73962ION    NA+46288  21.294  27.369  10.982
73963ION    NA+46289  28.963  27.645   9.976
73964ION    NA+46290  20.258   1.133  13.327
73965ION    NA+46291  38.853  18.239  14.352
73966ION    NA+46292  28.654  28.273   0.958
73967ION    NA+46293  13.548  17.204   3.147
73968ION    NA+46294   8.382  18.362  12.461
73969ION    NA+46295  22.926  11.644   2.368
73970ION    NA+46296  17.680  39.371  11.432
73971ION    NA+46297  18.300  42.010  11.056
73972ION    NA+46298  19.196   9.892  13.361
73973ION    NA+46299   3.215  19.910  10.619
73974ION    NA+46300  18.124  10.180   4.089
73975ION    NA+46301  25.890  18.306   4.748
73976ION    NA+46302   9.950   6.701  10.323
73977ION    NA+46303  11.937  33.428  12.008
73978ION    NA+46304  26.641  34.458   2.792
73979ION    NA+46305   2.538   4.010  13.501
73980ION    NA+46306  35.646  33.416   4.053
73981ION    NA+46307   4.491  41.821  13.991
73982ION    NA+46308  24.277  15.594  12.951
73983ION    NA+46309  43.387  44.602   0.830
73984ION    NA+46310   1.149  24.501  12.051
73985ION    NA+46311  18.099   0.114  13.258
73986ION    NA+46312   6.625  25.660   1.393
73987ION    NA+46313  35.550  35.115  12.562
73988ION    NA+46314  40.668  10.818  10.406
73989ION    NA+46315   8.685  36.622  11.095
73990ION    NA+46316   6.674  11.114  13.701
73991ION    NA+46317  14.193  29.228  12.553
73992ION    NA+46318  13.400   2.458  11.521
73993ION    NA+46319  13.926  29.747   2.237
73994ION    NA+46320   9.338   3.013  13.134
73995ION    NA+46321  10.811  43.344  12.526
73996ION    NA+46322  13.578  38.628  14.971
73997ION    NA+46323   4.809  18.057   0.088
73998ION    NA+46324  11.521  20.215   3.071
73999ION    NA+46325  22.654  27.506  13.731
74000ION    NA+46326  26.773  16.478   0.942
74001ION    NA+46327   0.056   5.002   4.491
74002ION    NA+46328  12.010   6.975  10.909
74003ION    NA+46329  35.377  20.592  12.376
74004ION    NA+46330  43.304   3.961  11.623
74005ION    NA+46331  38.583  19.232   1.815
74006ION    NA+46332  24.588  41.329  12.919
74007ION    NA+46333   8.048  31.117  10.712
74008ION    NA+46334  39.549  26.402  12.030
74009ION    NA+46335  19.875  23.760  14.343
74010ION    NA+46336   2.232   0.311   4.917
74011ION    NA+46337  20.591   0.501   5.103
74012ION    NA+46338   0.849  34.948  11.109
74013ION    NA+46339  19.906   7.567   5.063
74014ION    NA+46340  16.282  32.345   1.881
74015ION    NA+46341  34.170   7.349  13.318
74016ION    NA+46342   9.869   2.319   0.269
74017ION    NA+46343   2.972   4.232   3.907
74018ION    NA+46344  18.084  29.868  11.251
74019ION    NA+46345   2.903  33.835  10.988
74020ION    NA+46346  14.973  16.566   2.406
74021ION    NA+46347  25.757   5.420   4.575
74022ION    NA+46348  39.746  14.569  12.275
74023ION    NA+46349  38.239  28.285   1.617
74024ION    NA+46350  11.015   0.656   1.721
74025ION    NA+46351   8.371  10.053   4.653
74026ION    NA+46352  35.057  23.324  14.153
74027ION    NA+46353  17.526   4.378   3.854
74028ION    NA+46354   8.505  41.745  11.723
74029ION    NA+46355  16.231  36.730   4.583
74030ION    NA+46356   2.819  23.308  14.533
74031ION    NA+46357  26.639  10.145   2.939
74032ION    NA+46358  34.463  15.775  11.207
74033ION    NA+46359  26.542  17.129  11.504
74034ION    NA+46360  33.025  40.573  11.551
74035ION    NA+46361  11.298  20.801   0.395
74036ION    NA+46362  26.765  23.944  12.974
74037ION    NA+46363  29.381  26.377   9.999
74038ION    NA+46364  36.123  32.346  13.833
74039ION    NA+46365  42.840  28.933  13.332
74040ION    NA+46366  35.026  24.731  13.871
74041ION    NA+46367  19.386  33.245   4.549
74042ION    NA+46368   3.014  36.908  14.037
74043ION    NA+46369  17.267  33.076  10.749
74044ION    NA+46370  16.354  12.367  12.083
74045ION    NA+46371  22.050   7.420   4.994
74046ION    NA+46372  17.815   7.263  11.829
74047ION    NA+46373  24.676  26.887  12.877
74048ION    NA+46374  27.042  31.490   1.421
74049ION    NA+46375  43.804  10.761   2.811
74050ION    NA+46376  26.053  27.321  11.152
74051ION    NA+46377   1.692   9.403  12.873
74052ION    NA+46378  37.760   4.164   3.745
74053ION    NA+46379  30.106  24.678  11.044
74054ION    NA+46380  29.223   1.256   0.315
74055ION    NA+46381  24.397  37.831   4.720
74056ION    NA+46382   0.785  27.482   3.293
74057ION    NA+46383  13.888  41.778  13.852
74058ION    NA+46384  17.993   2.863  13.499
74059ION    NA+46385  28.336   8.729   0.029
74060ION    NA+46386   0.592   9.789  11.234
74061ION    NA+46387   1.379  34.875   4.177
74062ION    NA+46388   0.383  43.130  12.942
74063ION    NA+46389  28.647  13.855  11.123
74064ION    NA+46390  20.031  21.495  11.888
74065ION    NA+46391  41.157  25.804  10.969
74066ION    NA+46392  11.179  24.294   5.391
74067ION    NA+46393  19.091  30.024  14.363
74068ION    NA+46394  27.186  39.401   4.232
74069ION    NA+46395  12.383  15.123   4.192
74070ION    NA+46396  22.522  27.547  14.722
74071ION    NA+46397  35.088  35.622  14.386
74072ION    NA+46398  40.131  27.837  13.329
74073ION    NA+46399  17.152  32.411  13.197
74074ION    NA+46400  11.396  40.397   3.847
74075ION    NA+46401  20.378  21.726  10.767
74076ION    NA+46402  38.063  13.034   5.461
74077ION    NA+46403  26.548  16.079  12.228
74078ION    NA+46404  18.914  36.822   0.672
74079ION    NA+46405  24.530   4.882  14.973
74080ION    NA+46406  15.797   3.241  10.812
74081ION    NA+46407  39.000  44.588   4.390
74082ION    NA+46408   9.221  14.003   3.837
74083ION    NA+46409   7.117   4.908   4.229
74084ION    NA+46410  40.070  11.288   3.613
74085ION    NA+46411   0.832  42.667  11.250
74086ION    NA+46412  34.437   5.165  11.271
74087ION    NA+46413  18.324  39.577  12.555
74088ION    NA+46414  21.198  24.814   0.852
74089ION    NA+46415  37.544  42.009  10.661
74090ION    NA+46416  38.671  15.877  11.268
74091ION    NA+46417  26.706   6.844   0.578
74092ION    NA+46418   7.623  29.151   2.962
74093ION    NA+46419  25.957  20.490  12.860
74094ION    NA+46420  24.961  21.431  11.934
74095ION    NA+46421  23.632  19.023  10.653
74096ION    NA+46422  40.278  19.719   4.510
74097ION    NA+46423  31.727   3.294  11.952
74098ION    NA+46424  42.757  36.733   4.049
74099ION    NA+46425  32.921  38.334   3.189
74100ION    NA+46426  10.249   9.559  14.275
74101ION    NA+46427  38.739  34.149  14.804
74102ION    NA+46428   6.794   2.972   3.193
74103ION    NA+46429  27.068  27.818   3.612
74104ION    NA+46430  38.926  43.938  14.883
74105ION    NA+46431   4.402   1.544   2.791
74106ION    NA+46432  37.568  13.272   1.149
74107ION    NA+46433   1.919   6.719   0.809
74108ION    NA+46434  19.107  40.025   3.725
74109ION    NA+46435  38.416  23.382   4.683
74110ION    NA+46436  14.764  13.708   4.365
74111ION    NA+46437  33.893   9.631   2.139
74112ION    NA+46438  44.812  24.588   0.050
74113ION    NA+46439   6.939  12.019  14.034
74114ION    NA+46440  42.191  17.617  11.394
74115ION    NA+46441  15.410  18.660   0.078
74116ION    NA+46442  13.023  22.337  11.168
74117ION    NA+46443  37.039  32.705  13.653
74118ION    NA+46444  13.392  41.414   4.687
74119ION    NA+46445  41.896  32.658   0.479
74120ION    NA+46446  10.671   5.560  13.570
74121ION    NA+46447   4.484   7.992  12.824
74122ION    NA+46448  36.345  12.471   4.745
74123ION    NA+46449  40.622   7.285  11.399
74124ION    NA+46450  13.872   3.081   4.232
74125ION    NA+46451  40.665  35.670  11.909
74126ION    NA+46452  25.142  16.038   4.786
74127ION    NA+46453   0.964   0.195  11.086
74128ION    NA+46454   6.959   6.875  10.795
74129ION    NA+46455  40.475  44.597  14.174
74130ION    NA+46456  36.431  12.141   2.432
74131ION    NA+46457  23.511   8.670   3.528
74132ION    NA+46458  37.085  37.253  10.766
74133ION    NA+46459   2.459   1.048  13.609
74134ION    NA+46460  23.902  35.175   2.132
74135ION    NA+46461   6.944  16.393   0.800
74136ION    NA+46462  25.452  44.653   0.345
74137ION    NA+46463  14.463  29.164   3.529
74138ION    NA+46464  42.832   7.622   0.396
74139ION    NA+46465  30.567  20.808  10.261
74140ION    NA+46466  32.063  38.761  14.455
74141ION    NA+46467  26.688  10.039   2.071
74142ION    NA+46468   1.671  16.461   4.256
74143ION    NA+46469  38.136  43.325   3.400
74144ION    NA+46470   8.885   2.044   2.930
74145ION    NA+46471  24.944  38.098  14.283
74146ION    NA+46472  17.260  15.311  10.748
74147ION    NA+46473  25.822  25.465   2.062
74148ION    NA+46474  33.427  34.238   0.681
74149ION    NA+46475  17.610  31.423   1.294
74150ION    NA+46476  35.343  28.948  13.916
74151ION    NA+46477  30.440  27.832   3.230
74152ION    NA+46478   9.806  16.955  10.436
74153ION    NA+46479  18.373  13.775   2.322
74154ION    NA+46480   1.447  42.841  14.367
74155ION    NA+46481  22.940   4.728   0.234
74156ION    NA+46482  34.974   2.386   3.770
74157ION    NA+46483  11.104  43.530  14.426
74158ION    NA+46484  42.299  44.639  14.494
74159ION    NA+46485  42.331  10.660   3.686
74160ION    NA+46486   9.776  21.700  11.613
74161ION    NA+46487  19.282  16.846  10.662
74162ION    NA+46488  36.487  12.321  11.488
74163ION    NA+46489   9.147  20.640  11.914
74164ION    NA+46490  37.875  23.443   2.913
74165ION    NA+46491  39.096  11.046  11.791
74166ION    NA+46492  35.105  29.299   3.628
74167ION    NA+46493  25.690  11.791   0.293
74168ION    NA+46494  31.560   7.438   0.763
74169ION    NA+46495  29.506  13.805  11.632
74170ION    NA+46496  34.960  27.964  11.553
74171ION    NA+46497  18.319  30.354   2.055
74172ION    NA+46498  40.449  13.372  14.257
74173ION    NA+46499   4.529  42.985   3.776
74174ION    NA+46500  34.667   5.112  14.014
74175ION    NA+46501   5.845  39.160   4.520
74176ION    NA+46502  23.107  38.171  10.928
74177ION    NA+46503  38.162  14.157   4.732
74178ION    NA+46504  12.384  44.545  11.968
74179ION    NA+46505  24.968  42.448  14.914
74180ION    NA+46506  38.654  33.856  12.263
74181ION    NA+46507  29.756  34.053  11.214
74182ION    NA+46508  34.073  36.044   0.440
74183ION    NA+46509  26.627   5.735   1.576
74184ION    NA+46510  13.174  25.204  10.339
74185ION    NA+46511  23.683  36.870   0.721
74186ION    NA+46512  18.793  28.727   4.242
74187ION    NA+46513  26.378   5.475  14.071
74188ION    NA+46514   4.500  31.660   1.675
74189ION    NA+46515   4.925  39.960   5.055
74190ION    NA+46516  23.004   4.992  13.871
74191ION    NA+46517  40.712  16.731  13.100
74192ION    NA+46518  37.999  22.080   0.526
74193ION    NA+46519  31.039  27.049   3.914
74194ION    NA+46520  44.426  13.312   3.611
74195ION    NA+46521   3.820  21.985  12.268
74196ION    NA+46522  10.411  36.209   2.537
74197ION    NA+46523  34.292  24.344   3.161
74198ION    NA+46524  16.385  35.203  11.116
74199ION    NA+46525  23.440   5.392  14.677
74200ION    NA+46526   8.849  17.297   2.887
74201ION    NA+46527  17.428  42.773  12.249
74202ION    NA+46528  34.424  11.295  11.596
74203ION    NA+46529   1.765  15.518  14.895
74204ION    NA+46530  11.420  33.927  13.434
74205ION    NA+46531  30.244   5.046  12.469
74206ION    NA+46532   8.888  19.319   1.275
74207ION    NA+46533  27.766  11.914  13.305
74208ION    NA+46534   3.728  40.487   0.957
74209ION    NA+46535   2.634  29.470   1.860
74210ION    NA+46536  44.828   9.218   3.925
74211ION    NA+46537  10.832  16.418  11.105
74212ION    NA+46538  33.402  13.426  14.121
74213ION    NA+46539  31.329  25.986  11.200
74214ION    NA+46540  41.455  27.909   4.342
74215ION    NA+46541  13.483   4.100  11.058
74216ION    NA+46542  14.543  36.672   2.248
74217ION    NA+46543  29.064   3.222   2.817
74218ION    NA+46544   0.290  16.783  14.930
74219ION    NA+46545   3.370  37.713   0.991
74220ION    NA+46546  17.599  29.057  14.883
74221ION    NA+46547   9.040  38.683  11.041
74222ION    NA+46548  38.813  33.872  11.276
74223ION    NA+46549   1.620  41.676  12.069
74224ION    NA+46550  17.967  40.870   4.237
74225ION    NA+46551  43.743  32.212   0.219
74226ION    NA+46552  23.347  31.870  14.633
74227ION    NA+46553  25.432   5.244   1.783
74228ION    NA+46554  21.640   2.416  12.991
74229ION    NA+46555  36.440  21.046   3.838
74230ION    NA+46556  23.527   5.880   2.157
74231ION    NA+46557   8.880  37.752  13.377
74232ION    NA+46558   5.529  20.111  11.125
74233ION    NA+46559  25.887  27.580   0.203
74234ION    NA+46560   5.230   1.220   1.760
74235ION    NA+46561  19.601  28.135   0.746
74236ION    NA+46562  40.735   1.234  13.354
74237ION    NA+46563  31.990  12.969   1.391
74238ION    NA+46564  27.166  44.838  11.121
74239ION    NA+46565   0.947  39.832   4.372
74240ION    NA+46566  41.798  35.322   2.908
74241ION    NA+46567  43.461  31.926  11.179
74242ION    NA+46568  20.429   1.246   0.824
74243ION    NA+46569  37.114  37.447  13.907
74244ION    NA+46570  17.743   8.704  11.874
74245ION    NA+46571  37.834  24.470  12.144
74246ION    NA+46572   7.962  25.531   0.314
74247ION    NA+46573   6.875  25.659  14.447
74248ION    NA+46574  20.886  25.913  11.948
74249ION    NA+46575  19.529  40.988   4.579
74250ION    NA+46576  21.039   7.668  10.859
74251ION    NA+46577  33.145   6.863   3.191
74252ION    NA+46578  10.051  11.228  11.377
74253ION    NA+46579  15.597  42.681  12.893
74254ION    NA+46580  40.962  34.594  13.481
74255ION    NA+46581  22.606  32.550  13.759
74256ION    NA+46582  36.927  22.145   0.383
74257ION    NA+46583   3.942   4.794   4.708
74258ION    NA+46584  13.065  28.027   4.257
74259ION    NA+46585   3.743  43.833  11.104
74260ION    NA+46586  24.392  34.387   4.098
74261ION    NA+46587  16.199  34.969   0.426
74262ION    NA+46588  27.433  34.378  11.083
74263ION    NA+46589  11.743  34.882   0.791
74264ION    NA+46590  15.509  11.690   2.801
74265ION    NA+46591  12.509   7.728   0.825
74266ION    NA+46592  40.565   8.664  11.907
74267ION    NA+46593  29.747  34.900   2.022
74268ION    NA+46594  31.940   2.811  14.325
74269ION    NA+46595   8.122  20.059   0.509
74270ION    NA+46596   7.277   3.589  14.795
74271ION    NA+46597  32.834  22.217   0.836
74272ION    NA+46598  18.521   0.904  14.518
74273ION    NA+46599  23.204  10.613  11.085
74274ION    NA+46600  19.829  26.527  12.860
74275ION    NA+46601   7.362  43.502  14.000
74276ION    NA+46602   1.433  32.124  14.881
74277ION    NA+46603  15.688  35.852   1.341
74278ION    NA+46604   3.645   3.002   3.601
74279ION    NA+46605  41.301  23.301   0.089
74280ION    NA+46606   5.266  31.952  11.106
74281ION    NA+46607   7.166  26.394  10.925
74282ION    NA+46608  31.783  19.696  11.196
74283ION    NA+46609  27.175  35.104  12.290
74284ION    NA+46610  41.416  13.164   2.148
74285ION    NA+46611   0.804  41.309  12.345
74286ION    NA+46612  38.357  17.499   3.486
74287ION    NA+46613   7.048  14.376  13.817
74288ION    NA+46614  19.814  39.919  14.055
74289ION    NA+46615  27.058  26.562  14.044
74290ION    NA+46616  30.928  26.541   3.060
74291ION    NA+46617  36.192   1.718  10.757
74292ION    NA+46618   8.395   3.919  11.047
74293ION    NA+46619   5.049  26.461   1.609
74294ION    NA+46620  21.811  20.623  11.298
74295ION    NA+46621   4.698  33.594   2.607
74296ION    NA+46622  40.797  44.722   1.705
74297ION    NA+46623  30.624  38.990  12.426
74298ION    NA+46624   1.513  28.134  11.332
74299ION    NA+46625   7.446  25.785  12.134
74300ION    NA+46626  27.238  26.142  11.003
74301ION    NA+46627  34.972   8.768  11.006
74302ION    NA+46628  40.924   9.988  13.303
74303ION    NA+46629  30.045  30.969  11.653
74304ION    NA+46630  23.066  16.417  12.605
74305ION    NA+46631  19.781  22.685   0.495
74306ION    NA+46632  13.519   4.028   4.103
74307ION    NA+46633  24.794  17.159  11.159
74308ION    NA+46634  42.242  38.909  11.964
74309ION    NA+46635  38.944  14.850   1.663
74310ION    NA+46636  43.151   7.737   4.586
74311ION    NA+46637  40.538  31.207   4.280
74312ION    NA+46638  27.876  29.586  12.962
74313ION    NA+46639  18.242  12.791  13.822
74314ION    NA+46640  33.937  33.322   0.493
74315ION    NA+46641  41.437  42.296   1.684
74316ION    NA+46642  20.472  24.978  14.796
74317ION    NA+46643  38.089   7.146   0.816
74318ION    NA+46644  36.942  41.175   3.953
74319ION    NA+46645  29.159  29.128   0.499
74320ION    NA+46646  37.781  36.922  12.018
74321ION    NA+46647  10.707   4.599   5.054
74322ION    NA+46648  26.501  18.347  12.645
74323ION    NA+46649  22.244  34.076   0.830
74324ION    NA+46650  21.191   8.661   4.398
74325ION    NA+46651  15.135  37.262  12.929
74326ION    NA+46652  18.675   3.569  13.307
74327ION    NA+46653  39.560  33.526   2.113
74328ION    NA+46654  20.966   1.539  11.903
74329ION    NA+46655  36.913   5.291  14.309
74330ION    NA+46656  38.848   2.868  13.798
74331ION    NA+46657  19.746  28.760   9.774
74332ION    NA+46658  10.832  37.951  10.474
74333ION    NA+46659  30.731  32.204  11.567
74334ION    NA+46660  40.729  42.888  14.389
74335ION    NA+46661   7.939  29.462  13.416
74336ION    NA+46662  23.223  34.685  11.183
74337ION    NA+46663  43.276  26.208   1.392
74338ION    NA+46664  23.615  20.915  13.155
74339ION    NA+46665  20.337  30.098  13.582
74340ION    NA+46666  35.642  22.671  14.083
74341ION    NA+46667  28.930  25.037   3.712
74342ION    NA+46668  37.621   5.130  13.309
74343ION    NA+46669  14.649  44.001   3.347
74344ION    NA+46670   2.317  25.316  12.586
74345ION    NA+46671   4.694   6.604  13.180
74346ION    NA+46672  36.533  27.289   0.467
74347ION    NA+46673   7.990  11.933  11.742
74348ION    NA+46674  34.400   4.568  11.948
74349ION    NA+46675   0.132  39.871   3.702
74350ION    NA+46676   4.870  23.005  13.233
74351ION    NA+46677  25.810   1.562  14.899
74352ION    NA+46678  23.491   6.793  13.101
74353ION    NA+46679  15.545  44.315   2.611
74354ION    NA+46680  13.546  38.569  11.430
74355ION    NA+46681  25.713  11.191  13.990
74356ION    NA+46682  40.596  21.175   4.531
74357ION    NA+46683  11.629  10.223   3.381
74358ION    NA+46684   2.013  41.375   1.692
74359ION    NA+46685  13.901   8.073   2.345
74360ION    NA+46686  36.007  29.715  13.927
74361ION    NA+46687  42.949   0.733   4.799
74362ION    NA+46688   0.400  26.588  13.359
74363ION    NA+46689  31.341  38.553   1.352
74364ION    NA+46690  28.773  11.733   4.837
74365ION    NA+46691  23.155  19.490   3.056
74366ION    NA+46692  36.100  39.610   0.527
74367ION    NA+46693  33.346  18.259  14.011
74368ION    NA+46694  11.869  24.198   9.914
74369ION    NA+46695  37.063  43.429   4.269
74370ION    NA+46696  17.420  26.763   0.399
74371ION    NA+46697  30.958  10.810  14.037
74372ION    NA+46698  14.039  30.687  10.412
74373ION    NA+46699  29.646  31.113   1.438
74374ION    NA+46700   8.825   9.825  10.017
74375ION    NA+46701  33.544  36.486  11.899
74376ION    NA+46702  14.754   7.921   2.846
74377ION    NA+46703  34.084  18.599  12.967
74378ION    NA+46704  11.626  19.827  14.776
74379ION    NA+46705  15.374   7.387   0.804
74380ION    NA+46706  20.454  38.096  10.921
74381ION    NA+46707  37.906  38.620   1.179
74382ION    NA+46708  38.613  37.976  14.309
74383ION    NA+46709  31.242   6.000  13.144
74384ION    NA+46710   9.966  15.150   9.997
74385ION    NA+46711  33.812  29.321   1.050
74386ION    NA+46712  25.094  23.648   0.305
74387ION    NA+46713  22.950  28.878  13.987
74388ION    NA+46714   2.417  43.261  11.233
74389ION    NA+46715   0.356  36.077   4.129
74390ION    NA+46716  11.416   8.170   0.519
74391ION    NA+46717  36.430  37.993  10.612
74392ION    NA+46718  43.237   9.698   5.112
74393ION    NA+46719  12.752  28.956  11.458
74394ION    NA+46720  40.425  15.119   0.414
74395ION    NA+46721  20.059  44.787   2.724
74396ION    NA+46722  42.173  40.122   9.648
74397ION    NA+46723  16.788  18.770  11.921
74398ION    NA+46724  26.232  16.801   9.794
74399ION    NA+46725  41.593  34.241   1.227
74400ION    NA+46726  19.958  30.545  14.254
74401ION    NA+46727  37.748  23.526   0.387
74402ION    NA+46728   9.407  31.081  13.943
74403ION    NA+46729  34.785  30.440  13.717
74404ION    NA+46730  36.601   6.964  14.539
74405ION    NA+46731  41.292   5.794  13.992
74406ION    NA+46732  12.404   4.675   2.217
74407ION    NA+46733  16.264  29.350   1.640
74408ION    NA+46734  22.363  34.921  11.177
74409ION    NA+46735  36.075  44.358  13.370
74410ION    NA+46736   4.191   2.064  13.535
74411ION    NA+46737  43.693  14.167   2.874
74412ION    NA+46738  33.154  39.441   9.702
74413ION    NA+46739  21.047  44.270   4.573
74414ION    NA+46740  40.822  17.439   0.384
74415ION    NA+46741   5.238  10.930   0.939
74416ION    NA+46742  21.141  14.070  10.763
74417ION    NA+46743  13.968  36.282   2.967
74418ION    NA+46744  27.503  29.538   0.644
74419ION    NA+46745  30.348  24.728   1.729
74420ION    NA+46746  44.781  36.375  10.659
74421ION    NA+46747  22.324  42.826   0.567
74422ION    NA+46748  12.037  24.231   5.542
74423ION    NA+46749  44.943   3.003   1.995
74424ION    NA+46750  22.458   0.808   1.508
74425ION    NA+46751  33.448   3.575  14.515
74426ION    NA+46752  42.280  30.258  13.486
74427ION    NA+46753  39.290  37.584   3.556
74428ION    NA+46754  24.467   8.597   2.350
74429ION    NA+46755  11.269   7.648   1.941
74430ION    NA+46756  27.916  39.606   2.423
74431ION    NA+46757  13.358  27.147  14.359
74432ION    NA+46758  19.350  12.638  11.632
74433ION    NA+46759   0.554  43.736   3.193
74434ION    NA+46760  34.757  41.297  10.836
74435ION    NA+46761  36.106  22.711  11.592
74436ION    NA+46762   0.925   5.046  11.629
74437ION    NA+46763   3.789  32.619   2.738
74438ION    NA+46764  40.089   1.143   2.128
74439ION    NA+46765  44.260   2.894   1.272
74440ION    NA+46766  30.641  26.392  10.599
74441ION    NA+46767   7.646   9.548   0.674
74442ION    NA+46768   9.337  18.140   0.944
74443ION    NA+46769  19.747  37.783  13.368
74444ION    NA+46770  13.844  32.888   0.369
74445ION    NA+46771  44.521   5.631  14.980
74446ION    NA+46772  44.995  17.518   1.009
74447ION    NA+46773  22.335  14.870   2.973
74448ION    NA+46774  26.884   1.195   0.150
74449ION    NA+46775  34.973  21.252   5.248
74450ION    NA+46776  26.079  42.809  12.719
74451ION    NA+46777  38.360  15.999  13.067
74452ION    NA+46778   3.526  29.575  12.007
74453ION    NA+46779  28.570  10.901  12.980
74454ION    NA+46780  44.964  20.293  10.774
74455ION    NA+46781  30.710   3.750   0.272
74456ION    NA+46782  12.139  36.226  14.120
74457ION    NA+46783  31.970  24.776   0.452
74458ION    NA+46784  34.361  36.789   2.806
74459ION    NA+46785   9.679   7.687  10.646
74460ION    NA+46786  37.345   3.003  12.451
74461ION    NA+46787  15.020  44.267  11.103
74462ION    NA+46788  16.696  34.015  14.846
74463ION    NA+46789  23.617   2.790   2.668
74464ION    NA+46790  25.928  17.303   0.359
74465ION    NA+46791  10.241  15.512  11.601
74466ION    NA+46792   0.730  23.636   1.814
74467ION    NA+46793  16.679  16.634  13.729
74468ION    NA+46794  19.891  11.748  10.770
74469ION    NA+46795   4.015  24.306   4.330
74470ION    NA+46796   0.721  16.163   4.154
74471ION    NA+46797  12.824  27.925  10.670
74472ION    NA+46798   9.310   1.784  12.030
74473ION    NA+46799  21.460  25.761  14.289
74474ION    NA+46800  38.551  43.125  12.805
74475ION    NA+46801  23.528  32.973   0.948
74476ION    NA+46802  35.594  30.409   1.774
74477ION    NA+46803  22.517  19.686   0.323
74478ION    NA+46804   1.308  26.431  11.997
74479ION    NA+46805  17.474  20.228   4.507
74480ION    NA+46806  14.305  19.852  13.621
74481ION    NA+46807   3.671  28.560  13.511
74482ION    NA+46808  12.995  24.199   5.370
74483ION    NA+46809  38.635  33.405   2.430
74484ION    NA+46810  35.050  42.688  11.155
74485ION    NA+46811  19.352  13.475   1.439
74486ION    NA+46812  17.548  34.092   2.308
74487ION    NA+46813  43.024  33.510  13.823
74488ION    NA+46814   7.862  13.122  11.557
74489ION    NA+46815   5.054  24.276  11.115
74490ION    NA+46816   3.831  33.329  11.996
74491ION    NA+46817  20.324  16.288  11.746
74492ION    NA+46818  39.945  35.642  10.770
74493ION    NA+46819  35.855   3.290   4.629
74494ION    NA+46820  18.231  18.968  13.752
74495ION    NA+46821  39.161   8.881  13.106
74496ION    NA+46822  14.427  35.839   3.626
74497ION    NA+46823  12.223  21.740   3.878
74498ION    NA+46824  15.866  27.421   4.298
74499ION    NA+46825  34.064   6.433   3.085
74500ION    NA+46826  43.760  24.757   0.224
74501ION    NA+46827   1.771  15.338  13.547
74502ION    NA+46828  22.679   3.834   2.519
74503ION    NA+46829  36.996   5.867   3.917
74504ION    NA+46830   1.763   3.278  10.189
74505ION    NA+46831  20.153  44.705   4.686
74506ION    NA+46832  26.642   9.816   0.295
74507ION    NA+46833   9.748  38.377   2.371
74508ION    NA+46834  37.439  29.159   9.736
74509ION    NA+46835   1.255   7.943  12.535
74510ION    NA+46836  14.004  44.524   3.904
74511ION    NA+46837  13.676  25.067   4.868
74512ION    NA+46838  10.585  10.508   1.842
74513ION    NA+46839   9.363   4.576   3.247
74514ION    NA+46840  39.017  10.225   4.599
74515ION    NA+46841  10.752   6.446  11.317
74516ION    NA+46842  21.426  16.775   4.086
74517ION    NA+46843  36.085  24.046   1.209
74518ION    NA+46844  24.298  20.391  12.972
74519ION    NA+46845   7.318  11.284   1.513
74520ION    NA+46846   4.895  38.767  10.792
74521ION    NA+46847  43.002  31.347   1.405
74522ION    NA+46848  41.369  39.510   2.348
74523ION    NA+46849  18.455  23.092  14.254
74524ION    NA+46850  40.292  16.669  11.294
74525ION    NA+46851  42.565  19.050   0.843
74526ION    NA+46852  40.724  37.834   0.737
74527ION    NA+46853   4.545  20.967  14.757
74528ION    NA+46854  19.095   8.426  13.468
74529ION    NA+46855   9.657  32.557  13.111
74530ION    NA+46856  35.578  32.131   4.566
74531ION    NA+46857   8.154  12.817  12.464
74532ION    NA+46858  23.835  15.029   5.074
74533ION    NA+46859  28.686   4.246  14.402
74534ION    NA+46860  35.418  37.783  10.854
74535ION    NA+46861  21.732   6.216   0.457
74536ION    NA+46862  18.287   6.794   1.274
74537ION    NA+46863   9.660   5.826   2.740
74538ION    NA+46864  36.014  40.184   3.436
74539ION    NA+46865   8.280  10.699  12.002
74540ION    NA+46866  35.667  36.422   1.276
74541ION    NA+46867  44.746   4.957  13.151
74542ION    NA+46868  39.249  33.025   2.921
74543ION    NA+46869  21.021  20.657  12.592
74544ION    NA+46870  14.391  25.163  10.536
74545ION    NA+46871  19.474  35.026  13.871
74546ION    NA+46872  34.581  17.604   1.908
74547ION    NA+46873  42.346  12.351   0.872
74548ION    NA+46874  13.434  29.468   4.150
74549ION    NA+46875   8.347  21.936  13.038
74550ION    NA+46876   6.650  28.613   3.415
74551ION    NA+46877  29.493   4.443   2.833
74552ION    NA+46878  17.152   1.847  10.697
74553ION    NA+46879  21.423   0.982  11.324
74554ION    CL-46880  14.322  30.310   1.221
74555ION    CL-46881  25.394   2.348   4.143
74556ION    CL-46882  24.587  13.679   1.342
74557ION    CL-46883   1.715  13.835   0.424
74558ION    CL-46884  17.678  22.303  13.578
74559ION    CL-46885  20.275  33.688   3.361
74560ION    CL-46886  12.371  12.686   1.315
74561ION    CL-46887  41.981  26.985  14.547
74562ION    CL-46888  38.620  21.217  11.267
74563ION    CL-46889  21.683  18.133  13.389
74564ION    CL-46890  16.034  40.930   5.126
74565ION    CL-46891  37.101   1.397   2.321
74566ION    CL-46892  29.893  32.608   1.385
74567ION    CL-46893  18.632  27.148   0.158
74568ION    CL-46894  38.257  26.497  13.203
74569ION    CL-46895  43.721   9.677  11.571
74570ION    CL-46896   0.039  38.993   1.355
74571ION    CL-46897  32.456  21.689  14.043
74572ION    CL-46898  19.299  41.867   9.881
74573ION    CL-46899  42.538   0.689  11.573
74574ION    CL-46900  12.342   6.324   1.379
74575ION    CL-46901  38.783  15.836  13.111
74576ION    CL-46902   9.892  36.279   4.090
74577ION    CL-46903  40.927  23.432  14.862
74578ION    CL-46904   6.221  17.499   1.941
74579ION    CL-46905   8.897  20.728   2.895
74580ION    CL-46906  11.257  29.382   1.111
74581ION    CL-46907   0.357   2.854   5.474
74582ION    CL-46908  26.805  21.221   9.949
74583ION    CL-46909  37.250  44.976   2.290
74584ION    CL-46910  39.023  40.811   4.036
74585ION    CL-46911  15.318  25.580   1.405
74586ION    CL-46912  34.381  26.229  14.427
74587ION    CL-46913   9.964  16.872   9.995
74588ION    CL-46914  37.410   0.340  13.099
74589ION    CL-46915  32.018  41.618  11.494
74590ION    CL-46916  32.917  17.645   4.909
74591ION    CL-46917  24.095  30.921  11.510
74592ION    CL-46918   8.756   9.700   2.645
74593ION    CL-46919  26.134  26.864   1.952
74594ION    CL-46920  42.524  25.556  11.034
74595ION    CL-46921  43.901  28.270   0.478
74596ION    CL-46922  37.377  17.586  11.603
74597ION    CL-46923  11.311  42.679   1.392
74598ION    CL-46924  22.615  14.667   1.329
74599ION    CL-46925  44.906   0.612  11.861
74600ION    CL-46926   3.631  13.627  11.995
74601ION    CL-46927  18.264  33.005   4.106
74602ION    CL-46928  36.328  14.649   2.936
74603ION    CL-46929  31.356  37.615   2.213
74604ION    CL-46930  11.739  20.118   2.692
74605ION    CL-46931   1.101  21.845  11.673
74606ION    CL-46932   9.888  24.614   4.562
74607ION    CL-46933  10.587  17.359  14.787
74608ION    CL-46934   3.540  18.353  13.600
74609ION    CL-46935  15.286  32.998  13.410
74610ION    CL-46936  25.985  11.479   1.423
74611ION    CL-46937  17.300   6.594   5.010
74612ION    CL-46938  21.726  26.125   3.079
74613ION    CL-46939   1.870  16.461  13.118
74614ION    CL-46940  35.401  38.993   1.779
74615ION    CL-46941  44.280   2.254  14.423
74616ION    CL-46942   9.865  26.157   2.358
74617ION    CL-46943  11.143  33.451  11.114
74618ION    CL-46944  32.801   8.651   2.673
74619ION    CL-46945  10.700  34.912   0.315
74620ION    CL-46946  15.112  37.812  11.579
74621ION    CL-46947   0.385  44.825  14.717
74622ION    CL-46948   8.527  22.014   2.793
74623ION    CL-46949  26.681  31.253   1.558
74624ION    CL-46950  43.551  18.669  12.887
74625ION    CL-46951   5.363  33.101  14.430
74626ION    CL-46952  11.706   6.634   5.068
74627ION    CL-46953  27.915  11.899  12.858
74628ION    CL-46954  22.260  39.234   3.160
74629ION    CL-46955  43.173  23.343   0.253
74630ION    CL-46956  18.505   7.910   2.008
74631ION    CL-46957  41.242  44.708   1.664
74632ION    CL-46958   1.083   8.048  12.935
74633ION    CL-46959  24.115  28.998   1.278
74634ION    CL-46960  38.713   8.888  13.057
74635ION    CL-46961   7.114  23.797   3.677
74636ION    CL-46962  15.686   6.377   3.160
74637ION    CL-46963   8.752  14.775   4.933
74638ION    CL-46964   3.610   8.487   1.249
74639ION    CL-46965   7.624  22.597  14.773
74640ION    CL-46966  22.620  32.610  12.375
74641ION    CL-46967   1.548  21.111   2.575
74642ION    CL-46968  30.997   9.194  14.729
74643ION    CL-46969  36.123   2.677   1.891
74644ION    CL-46970  27.223  19.782  11.602
74645ION    CL-46971  11.703  29.643   3.654
74646ION    CL-46972  36.388  26.063  12.345
74647ION    CL-46973  44.659  33.513  11.058
74648ION    CL-46974  37.838   4.381  10.697
74649ION    CL-46975  12.779  38.658   1.311
74650ION    CL-46976  11.844  18.532   4.295
74651ION    CL-46977   0.208  10.860   3.724
74652ION    CL-46978  41.014  41.341   4.249
74653ION    CL-46979  36.069  33.841   4.205
74654ION    CL-46980  32.941  15.816   0.763
74655ION    CL-46981  32.801  11.815  11.249
74656ION    CL-46982  24.179  30.113   5.045
74657ION    CL-46983   9.107  30.233  12.003
74658ION    CL-46984  25.411  44.478  12.604
74659ION    CL-46985   8.348  24.527   9.971
74660ION    CL-46986  30.558  43.785   4.586
74661ION    CL-46987  38.949  18.748  13.088
74662ION    CL-46988   2.071  41.808  12.147
74663ION    CL-46989  16.512  41.383  10.639
74664ION    CL-46990  14.514   7.389  11.241
74665ION    CL-46991   0.006   6.683  13.511
74666ION    CL-46992  29.958  10.106   1.896
74667ION    CL-46993  31.601  19.416  11.494
74668ION    CL-46994  17.603  39.073  11.109
74669ION    CL-46995  39.526  24.468  12.390
74670ION    CL-46996   0.324  15.236   3.593
74671ION    CL-46997   2.323  38.855   0.939
74672ION    CL-46998  42.719  26.534   0.049
74673ION    CL-46999  27.718  29.145   0.561
74674ION    CL-47000  24.033  10.123   3.932
74675ION    CL-47001  23.013  38.497  12.344
74676ION    CL-47002   5.968  20.022  11.118
74677ION    CL-47003  26.556  22.120   3.879
74678ION    CL-47004   5.989  43.442   3.728
74679ION    CL-47005  37.017  33.118  13.486
74680ION    CL-47006  26.013  14.486   0.649
74681ION    CL-47007  13.678  38.008   4.864
74682ION    CL-47008  14.186  44.730   4.260
74683ION    CL-47009   3.774  42.052   1.854
74684ION    CL-47010   5.294  27.062   4.156
74685ION    CL-47011  20.402  17.057   5.152
74686ION    CL-47012  21.323  40.560   3.160
74687ION    CL-47013  19.152  24.648   3.364
74688ION    CL-47014  32.790  41.065   2.536
74689ION    CL-47015   0.627  27.431  14.373
74690ION    CL-47016  43.965  14.536   2.917
74691ION    CL-47017  21.825  20.889  11.671
74692ION    CL-47018  32.021  24.090   1.899
74693ION    CL-47019  26.744  22.101  14.276
74694ION    CL-47020  32.973  36.515   3.976
74695ION    CL-47021   2.953   1.169   2.849
74696ION    CL-47022  41.519  23.592  13.585
74697ION    CL-47023  44.612   3.823  11.915
74698ION    CL-47024  11.829   5.916   2.431
74699ION    CL-47025   6.383  32.176  12.562
74700ION    CL-47026  42.387  26.260   5.156
74701ION    CL-47027  29.014  16.614  13.510
74702ION    CL-47028  37.921  24.961   2.767
74703ION    CL-47029  16.324  40.391  12.907
74704ION    CL-47030   9.943  28.613  10.751
74705ION    CL-47031  43.062  16.655   4.266
74706ION    CL-47032  44.904  41.426   1.677
74707ION    CL-47033  14.800  35.377  11.649
74708ION    CL-47034  39.235   2.975  13.572
74709ION    CL-47035  19.100  41.097   0.435
74710ION    CL-47036  23.846  20.515  13.236
74711ION    CL-47037  26.918  37.936  14.131
74712ION    CL-47038  24.186  28.872  10.375
74713ION    CL-47039   0.448   5.114  14.701
74714ION    CL-47040  42.821  13.314  13.322
74715ION    CL-47041   0.505  37.938   1.891
74716ION    CL-47042  24.826  17.008   1.976
74717ION    CL-47043  36.762  19.901   2.367
74718ION    CL-47044  16.743   2.905  12.968
74719ION    CL-47045  17.075  12.934   1.407
74720ION    CL-47046  31.077  35.186  11.515
74721ION    CL-47047   3.375  20.341  13.877
74722ION    CL-47048  41.025  40.845   0.537
74723ION    CL-47049  22.871  40.809  10.286
74724ION    CL-47050  42.481  17.413  11.685
74725ION    CL-47051   7.328  36.413  12.982
74726ION    CL-47052   4.005  24.702   0.535
74727ION    CL-47053   9.156   6.856   2.645
74728ION    CL-47054  21.485   0.640  11.010
74729ION    CL-47055  35.285  28.071  11.250
74730ION    CL-47056  23.788   9.835  12.057
74731ION    CL-47057  13.365  18.259   3.704
74732ION    CL-47058  36.053  19.472   1.338
74733ION    CL-47059  10.304  32.948   3.084
74734ION    CL-47060  35.990   6.895  12.622
74735ION    CL-47061   8.523  35.105  13.762
74736ION    CL-47062  39.798  12.302  14.928
74737ION    CL-47063  27.850   0.430   3.649
74738ION    CL-47064  15.565  39.747  11.562
74739ION    CL-47065  35.555  44.356   2.677
74740ION    CL-47066   9.147  34.360   5.259
74741ION    CL-47067  38.172  15.572   0.577
74742ION    CL-47068   0.567  36.981  12.890
74743ION    CL-47069   8.851   2.042   3.383
74744ION    CL-47070  20.212  29.481   1.710
74745ION    CL-47071  39.315   6.316   5.052
74746ION    CL-47072   7.303  32.418  13.974
74747ION    CL-47073  32.247  12.482  11.217
74748ION    CL-47074  19.039  37.003  11.107
74749ION    CL-47075  21.765  16.664  10.215
74750ION    CL-47076  29.108  19.612   1.638
74751ION    CL-47077  14.804   1.014   2.620
74752ION    CL-47078   3.842  16.545   2.109
74753ION    CL-47079  10.092  11.668  11.273
74754ION    CL-47080   5.624  39.183   4.920
74755ION    CL-47081  38.916  24.970   2.671
74756ION    CL-47082   5.310  23.038  13.341
74757ION    CL-47083  18.183  11.084  11.354
74758ION    CL-47084  15.711   7.303  14.815
74759ION    CL-47085  41.418  17.652  13.490
74760ION    CL-47086  16.202  33.876   0.760
74761ION    CL-47087  42.547  31.863  13.415
74762ION    CL-47088  35.821  16.529  14.981
74763ION    CL-47089  14.322   0.733   4.176
74764ION    CL-47090  36.522   4.798   5.133
74765ION    CL-47091  25.697   9.459   4.207
74766ION    CL-47092  14.066   3.403  14.280
74767ION    CL-47093   6.043   3.842  12.534
74768ION    CL-47094   8.924  35.054  14.564
74769ION    CL-47095  35.079   1.874   1.042
74770ION    CL-47096  26.564  11.411  12.460
74771ION    CL-47097  28.658  35.468  11.509
74772ION    CL-47098  22.353  17.285  11.744
74773ION    CL-47099   2.283  13.459  12.491
74774ION    CL-47100  24.698  40.435  14.376
74775ION    CL-47101  38.839  14.790   3.975
74776ION    CL-47102  28.708  39.382  11.966
74777ION    CL-47103   9.421   2.777  13.505
74778ION    CL-47104  37.382   0.948   5.190
74779ION    CL-47105  17.701  11.428   2.765
74780ION    CL-47106  44.051  36.657   3.932
74781ION    CL-47107  24.838  43.549  11.280
74782ION    CL-47108  36.048  37.501  11.897
74783ION    CL-47109  26.456  19.140  11.543
74784ION    CL-47110  14.825  40.093   2.337
74785ION    CL-47111  28.043   9.299   2.247
74786ION    CL-47112   4.190  18.777  14.170
74787ION    CL-47113  35.530  30.407   4.528
74788ION    CL-47114  13.751  29.981  11.526
74789ION    CL-47115   8.590   6.653   1.230
74790ION    CL-47116  40.648   1.390  13.772
74791ION    CL-47117  41.382   7.927   2.854
74792ION    CL-47118  11.444  40.936  10.571
74793ION    CL-47119   0.399  22.330  11.387
74794ION    CL-47120  40.144  14.438  12.116
74795ION    CL-47121  30.560  20.194  12.864
74796ION    CL-47122  18.744  19.524  13.080
74797ION    CL-47123  44.833  19.216  14.176
74798ION    CL-47124   9.355  11.784   0.392
74799ION    CL-47125  10.904  38.384  10.597
74800ION    CL-47126   1.613   1.254   2.687
74801ION    CL-47127  39.246   8.403   1.821
74802ION    CL-47128  19.327   9.568  11.943
74803ION    CL-47129   2.379   1.395   4.407
74804ION    CL-47130  21.933  31.410  12.609
74805ION    CL-47131  14.726   3.039  11.266
74806ION    CL-47132  31.003  22.646  13.486
74807ION    CL-47133  43.947  28.059  12.448
74808ION    CL-47134  10.789  13.418   0.539
74809ION    CL-47135  36.668   6.536  14.659
74810ION    CL-47136  35.525  15.680  13.754
74811ION    CL-47137  18.910  39.783   3.405
74812ION    CL-47138  26.939  38.696   2.665
74813ION    CL-47139  39.128  11.166  14.911
74814ION    CL-47140  23.529  35.079   5.031
74815ION    CL-47141  44.980  42.977  12.793
74816ION    CL-47142  10.842  30.440  12.938
74817ION    CL-47143   2.221  43.069   2.848
74818ION    CL-47144  40.029  18.936   1.177
74819ION    CL-47145  35.720  33.105   3.716
74820ION    CL-47146  21.198  16.672  11.281
74821ION    CL-47147   3.962  25.439  14.764
74822ION    CL-47148   9.096  36.521  10.921
74823ION    CL-47149   4.212  40.752   3.444
74824ION    CL-47150  18.457   0.806  14.076
74825ION    CL-47151  27.684  14.094  14.379
74826ION    CL-47152  12.114  38.790   3.524
74827ION    CL-47153   1.357  24.722  12.379
74828ION    CL-47154  20.902  34.977  12.040
74829ION    CL-47155  16.879  26.991   3.568
74830ION    CL-47156   5.289  28.424  13.346
74831ION    CL-47157  44.585  19.669   0.669
74832ION    CL-47158   2.147   5.025   0.991
74833ION    CL-47159  23.412  36.777   2.636
74834ION    CL-47160  36.534  15.273   0.840
74835ION    CL-47161  30.670  18.786  11.717
74836ION    CL-47162  10.057   4.286  11.219
74837ION    CL-47163  34.014  35.312  11.585
74838ION    CL-47164  33.478  11.641   3.543
74839ION    CL-47165  44.126  19.848   3.115
74840ION    CL-47166  11.751  31.551   3.514
74841ION    CL-47167  19.667  28.499   0.496
74842ION    CL-47168   1.083  23.695   1.520
74843ION    CL-47169  21.533  44.825  10.857
74844ION    CL-47170  23.011   5.891  10.640
74845ION    CL-47171  29.644   7.153  14.766
74846ION    CL-47172   0.831  41.022   3.748
74847ION    CL-47173  16.808  44.281   2.399
74848ION    CL-47174  29.676  30.461  12.976
74849ION    CL-47175  41.097   1.008  13.198
74850ION    CL-47176  18.523  37.901   4.102
74851ION    CL-47177  43.871  17.772  11.886
74852ION    CL-47178  11.412  27.457   3.249
74853ION    CL-47179   1.612  13.380  11.887
74854ION    CL-47180  13.773   4.394   4.144
74855ION    CL-47181  35.872  35.000  12.850
74856ION    CL-47182  27.959   5.621   5.233
74857ION    CL-47183  13.699  14.360  13.389
74858ION    CL-47184   2.176  34.331  11.956
74859ION    CL-47185  39.312   2.572  12.452
74860ION    CL-47186  22.563  25.743   1.927
74861ION    CL-47187   5.749  38.855   0.327
74862ION    CL-47188  37.427  38.121  14.962
74863ION    CL-47189  19.413  12.571   4.869
74864ION    CL-47190  22.408  33.587  12.367
74865ION    CL-47191   7.784  16.638  14.819
74866ION    CL-47192  19.623  18.574  13.114
74867ION    CL-47193  17.832  18.148  11.486
74868ION    CL-47194  11.974   4.824   2.246
74869ION    CL-47195   4.115  24.173   4.761
74870ION    CL-47196  21.229   7.971  12.921
74871ION    CL-47197  16.125  37.084   0.902
74872ION    CL-47198  24.720  40.035   3.351
74873ION    CL-47199   8.410  16.362   1.911
74874ION    CL-47200   4.216  27.908   1.860
74875ION    CL-47201   7.957  36.899   2.607
74876ION    CL-47202  34.356   2.977  11.636
74877ION    CL-47203  41.905  24.675  12.066
74878ION    CL-47204   1.535  30.557  11.457
74879ION    CL-47205  31.338   7.767   0.514
74880ION    CL-47206   7.758  14.350   0.644
74881ION    CL-47207  30.234   6.392   1.273
74882ION    CL-47208  26.865   2.153   1.916
74883ION    CL-47209  15.103  16.579   0.842
74884ION    CL-47210  37.383  33.467   0.802
74885ION    CL-47211  33.639  17.119   1.862
74886ION    CL-47212  40.484  12.663   4.087
74887ION    CL-47213   7.533  38.005  11.262
74888ION    CL-47214   3.627  37.994   1.238
74889ION    CL-47215   4.598   2.210  13.416
74890ION    CL-47216  34.385   5.481  12.887
74891ION    CL-47217   0.742   9.151  13.920
74892ION    CL-47218  38.434  19.018   3.404
74893ION    CL-47219  33.501  43.345   3.572
74894ION    CL-47220  21.638  31.359   3.208
74895ION    CL-47221  28.689  37.878  12.215
74896ION    CL-47222  44.021  14.619  14.768
74897ION    CL-47223  33.934   0.570  11.394
74898ION    CL-47224   0.587   1.471  10.675
74899ION    CL-47225  13.878  41.456   3.617
74900ION    CL-47226  23.511  33.986   3.742
74901ION    CL-47227  10.494  23.121  11.541
74902ION    CL-47228  39.186  44.782   4.758
74903ION    CL-47229  13.500  27.419   0.358
74904ION    CL-47230  15.753  40.256   1.345
74905ION    CL-47231  28.207  20.149  10.923
74906ION    CL-47232  36.119  11.809   2.409
74907ION    CL-47233   5.138  33.580   0.290
74908ION    CL-47234  33.697  37.778  10.180
74909ION    CL-47235   6.626  33.925   4.162
74910ION    CL-47236  26.607  24.158   4.188
74911ION    CL-47237  23.534  13.313  14.872
74912ION    CL-47238   1.109  23.184  13.943
74913ION    CL-47239  15.797   6.285   4.589
74914ION    CL-47240  41.495  38.929  11.213
74915ION    CL-47241  25.691  27.942   0.031
74916ION    CL-47242  19.405  24.486   4.918
74917ION    CL-47243  40.748   5.512  11.277
74918ION    CL-47244  41.872  41.302   3.736
74919ION    CL-47245  20.014   8.037   5.130
74920ION    CL-47246   8.997  13.899  13.747
74921ION    CL-47247  38.586  19.068  11.350
74922ION    CL-47248  35.037  32.328  14.449
74923ION    CL-47249  33.638  39.658   0.413
74924ION    CL-47250  40.458   4.106  13.693
74925ION    CL-47251  18.465  36.144   5.091
74926ION    CL-47252  42.299   0.077  14.586
74927ION    CL-47253   3.136   8.399   0.107
74928ION    CL-47254  23.115  27.905  11.505
74929ION    CL-47255  16.255  21.291  11.506
74930ION    CL-47256   9.207  44.710   1.675
74931ION    CL-47257  25.718  43.001  12.896
74932ION    CL-47258  17.255  33.898   3.610
74933ION    CL-47259  18.662  27.413   4.866
74934ION    CL-47260  44.497  23.485  13.498
74935ION    CL-47261  40.301  31.434   3.958
74936ION    CL-47262  22.461  29.545   2.600
74937ION    CL-47263  25.018  23.141   2.764
74938ION    CL-47264  40.776  44.367  13.940
74939ION    CL-47265  38.166  18.755   0.989
74940ION    CL-47266  31.700  11.629   4.406
74941ION    CL-47267  32.435  34.212   4.135
74942ION    CL-47268   4.416  25.077   2.709
74943ION    CL-47269   9.301  12.232   1.920
74944ION    CL-47270  39.432  28.826  14.639
74945ION    CL-47271  15.832  44.004   2.463
74946ION    CL-47272   3.998  37.903  12.982
74947ION    CL-47273  10.346  20.260   0.681
74948ION    CL-47274  40.996  44.395  11.547
74949ION    CL-47275   9.109   9.282   3.241
74950ION    CL-47276  24.754  13.144   3.772
74951ION    CL-47277  31.526  12.461  10.472
74952ION    CL-47278  11.500  33.798  10.184
74953ION    CL-47279  20.160  22.760   0.717
74954ION    CL-47280   2.901  25.743   0.949
74955ION    CL-47281  30.260  18.193   1.170
74956ION    CL-47282  39.798  36.416  14.816
74957ION    CL-47283  30.808  31.265   4.515
74958ION    CL-47284  22.429  16.144   1.433
74959ION    CL-47285   4.266  24.244  13.346
74960ION    CL-47286  19.794  25.944   1.832
74961ION    CL-47287  33.466   4.022  14.562
74962ION    CL-47288  22.227   5.422   1.309
74963ION    CL-47289  40.228  33.424  10.775
74964ION    CL-47290  28.130   0.304   1.180
74965ION    CL-47291  29.907  42.031   3.247
74966ION    CL-47292   1.793  22.354  11.971
74967ION    CL-47293  12.517  32.094   2.301
74968ION    CL-47294   6.590  43.378  12.893
74969ION    CL-47295  43.450  44.842   0.434
74970ION    CL-47296  19.027   7.113   3.569
74971ION    CL-47297  26.839  10.031   2.522
74972ION    CL-47298  34.120  25.435  13.047
74973ION    CL-47299  40.080  16.754   2.416
74974ION    CL-47300  41.616  24.937  12.987
74975ION    CL-47301  37.717  30.704  13.875
74976ION    CL-47302  40.578  28.781  11.207
74977ION    CL-47303   3.036   2.007  10.161
74978ION    CL-47304  26.672  21.756  11.981
74979ION    CL-47305   3.654  16.027  11.963
74980ION    CL-47306  11.057  17.853   1.715
74981ION    CL-47307  44.426  19.018  12.552
74982ION    CL-47308  12.466  42.616   2.697
74983ION    CL-47309   5.735  25.961  12.953
74984ION    CL-47310  21.044  38.794  11.435
74985ION    CL-47311  38.016  40.161  11.790
74986ION    CL-47312  42.201  20.754   2.775
74987ION    CL-47313  15.166  19.220   3.426
74988ION    CL-47314  22.368  14.858  12.638
74989ION    CL-47315  27.336  31.735   1.178
74990ION    CL-47316  37.729  12.490   2.210
74991ION    CL-47317   6.799  41.036   3.026
74992ION    CL-47318  10.342   0.222   3.675
74993ION    CL-47319   6.068  31.462  14.485
74994ION    CL-47320  26.791   9.995   5.205
74995ION    CL-47321  12.900   3.789  13.160
74996ION    CL-47322  23.525  12.089  13.283
74997ION    CL-47323  20.351  37.154   1.931
74998ION    CL-47324  37.056  21.857   0.066
74999ION    CL-47325  16.960  42.347   0.485
75000ION    CL-47326  44.289  12.688  14.922
75001ION    CL-47327  27.000  41.315   5.043
75002ION    CL-47328   0.794   8.608   0.342
75003ION    CL-47329  30.066  26.738  14.256
75004ION    CL-47330  43.471  36.330   1.570
75005ION    CL-47331  31.691   3.236   2.873
75006ION    CL-47332  26.144  15.334   1.539
75007ION    CL-47333  35.371  25.632   1.190
75008ION    CL-47334  34.187   6.158  14.469
75009ION    CL-47335  16.591  25.512   4.023
75010ION    CL-47336   0.940  23.248  12.656
75011ION    CL-47337  36.126  10.645   2.817
75012ION    CL-47338  16.005  22.034   3.209
75013ION    CL-47339  43.742  18.992   1.898
75014ION    CL-47340   7.287   7.060  11.040
75015ION    CL-47341  14.311   3.899  13.447
75016ION    CL-47342   2.970  33.903  13.760
75017ION    CL-47343   2.692   8.144   1.040
75018ION    CL-47344  24.779  32.446   2.613
75019ION    CL-47345  37.913  11.059   4.590
75020ION    CL-47346  10.721  33.480   2.061
75021ION    CL-47347  29.641   2.788   1.380
75022ION    CL-47348  28.681  25.882   3.130
75023ION    CL-47349   4.349  41.988   2.719
75024ION    CL-47350   1.751  44.751   0.668
75025ION    CL-47351  38.196  38.913   3.594
75026ION    CL-47352  13.389  13.554  14.480
75027ION    CL-47353  35.394  31.467   3.268
75028ION    CL-47354  24.793  37.880   4.957
75029ION    CL-47355  13.859  17.307   2.833
75030ION    CL-47356  32.993  20.391  13.712
75031ION    CL-47357  35.945  18.295   1.877
75032ION    CL-47358  11.202  21.963  12.475
75033ION    CL-47359  38.540  44.059   5.001
75034ION    CL-47360  43.281   3.872   3.344
75035ION    CL-47361  38.197  40.975   1.812
75036ION    CL-47362  37.269  34.633  13.456
75037ION    CL-47363  24.527  12.772  11.808
75038ION    CL-47364  27.927  33.551  11.638
75039ION    CL-47365   8.371  36.438  12.595
75040ION    CL-47366  16.011  42.651  12.698
75041ION    CL-47367  11.390  15.286   5.031
75042ION    CL-47368  39.846  21.230  13.353
75043ION    CL-47369   0.645   7.631   2.282
75044ION    CL-47370  23.165  25.711   1.129
75045ION    CL-47371  14.087  24.952   5.029
75046ION    CL-47372   1.331  18.326  10.645
75047ION    CL-47373  37.969  16.187  12.930
75048ION    CL-47374  36.369  11.751  14.976
75049ION    CL-47375  37.391  37.133  12.072
75050ION    CL-47376   7.971   7.216   1.810
75051ION    CL-47377  29.671  21.717   2.908
75052ION    CL-47378  14.857  32.397   1.922
75053ION    CL-47379  26.706  32.648   1.346
75054ION    CL-47380   2.806  36.666  11.546
75055ION    CL-47381  22.077   4.387   3.689
75056ION    CL-47382  40.131  43.493   1.892
75057ION    CL-47383  33.883  14.466  13.113
75058ION    CL-47384  40.660  21.074   1.067
75059ION    CL-47385  16.833  22.376   0.698
75060ION    CL-47386  25.767  18.505   0.859
75061ION    CL-47387  34.594  42.636   0.202
75062ION    CL-47388  14.668  30.908  13.998
75063ION    CL-47389  23.587  39.853  10.749
75064ION    CL-47390   9.587   6.470  11.252
75065ION    CL-47391  29.938  10.523   3.589
75066ION    CL-47392  30.154  23.333  13.658
75067ION    CL-47393   5.804   1.710  10.485
75068ION    CL-47394   1.719  42.910  13.069
75069ION    CL-47395   6.575  11.023  13.273
75070ION    CL-47396  20.889  40.039   1.528
75071ION    CL-47397   5.566   1.532   3.385
75072ION    CL-47398  21.093  30.883  11.961
75073ION    CL-47399  19.994   5.940  12.096
75074ION    CL-47400  31.141  31.453   0.649
75075ION    CL-47401  33.859  16.518  10.879
75076ION    CL-47402   0.283  19.747  13.457
75077ION    CL-47403  35.680   5.777  12.117
75078ION    CL-47404  15.728  17.244   5.071
75079ION    CL-47405   8.214  36.646  11.106
75080ION    CL-47406  40.186   0.760   1.919
75081ION    CL-47407  39.850  30.399  11.947
75082ION    CL-47408  16.245  13.624   1.102
75083ION    CL-47409  28.326  15.135   1.378
75084ION    CL-47410   6.271   4.578   2.830
75085ION    CL-47411  37.892  10.534  14.529
75086ION    CL-47412  15.592  38.580   0.091
75087ION    CL-47413  39.750  21.338   2.182
75088ION    CL-47414  42.984   9.137  10.706
75089ION    CL-47415  40.239   8.811   1.020
75090ION    CL-47416   3.340  24.773  10.117
75091ION    CL-47417  39.707   2.014  11.132
75092ION    CL-47418  15.415  39.801  12.591
75093ION    CL-47419  40.504  32.104   0.760
75094ION    CL-47420   4.096   7.216  10.673
75095ION    CL-47421  27.736  31.666  10.326
75096ION    CL-47422   0.903   2.174   4.965
75097ION    CL-47423  15.578  14.828   1.116
75098ION    CL-47424  44.731  33.103  12.445
75099ION    CL-47425  33.039  21.852  13.383
75100ION    CL-47426  41.707  36.977   1.314
75101ION    CL-47427   8.465  29.381   3.946
75102ION    CL-47428  41.548  37.315   3.344
75103ION    CL-47429   1.543  19.780  12.901
75104ION    CL-47430   2.818  32.486  11.224
75105ION    CL-47431   2.383   1.551   2.122
75106ION    CL-47432  30.976  10.488  12.685
75107ION    CL-47433  14.598  24.116  14.923
75108ION    CL-47434  14.267   0.208  13.084
75109ION    CL-47435   0.217   6.210   3.123
75110ION    CL-47436  17.200   1.405  13.899
75111ION    CL-47437  28.435  17.674   2.834
75112ION    CL-47438  11.428  29.818   2.342
75113ION    CL-47439  23.938  19.765   1.791
75114ION    CL-47440  38.645  36.590  14.010
75115ION    CL-47441   3.440  24.639   2.946
75116ION    CL-47442  30.363   9.942  13.127
75117ION    CL-47443  29.362   0.855  12.413
75118ION    CL-47444  41.247  41.966   1.917
75119ION    CL-47445  21.762   6.933  14.037
75120ION    CL-47446  35.529  16.186  12.377
75121ION    CL-47447  24.242  14.653  13.894
75122ION    CL-47448   3.753  40.154  11.343
75123ION    CL-47449  19.503  28.511  13.602
75124ION    CL-47450  12.785  43.391   3.242
75125ION    CL-47451  31.689  22.292  11.318
75126ION    CL-47452  37.989  37.176   1.879
75127ION    CL-47453  23.694   0.525  14.951
75128ION    CL-47454  36.186  10.675   1.705
75129ION    CL-47455  36.216  25.120   2.854
75130ION    CL-47456  11.734  13.122   0.678
75131ION    CL-47457  20.086  42.024  10.447
75132ION    CL-47458  41.370  33.445  14.042
75133ION    CL-47459  20.407  38.717   3.099
75134ION    CL-47460  11.863  12.547  14.476
75135ION    CL-47461  31.871  44.079  10.842
75136ION    CL-47462  17.830  25.410   4.418
75137ION    CL-47463  27.562  22.634   0.930
75138ION    CL-47464  10.686   6.666   4.705
75139ION    CL-47465  26.893  10.747  14.415
75140ION    CL-47466  26.924  25.810  10.951
75141ION    CL-47467  32.862  19.386   3.057
75142ION    CL-47468   8.637   8.178   3.704
75143ION    CL-47469  16.242  39.339  10.004
75144ION    CL-47470  21.310  43.262  14.275
75145ION    CL-47471  21.247   1.292  11.640
75146ION    CL-47472  32.143   5.377  10.704
75147ION    CL-47473  40.375  16.258  11.449
75148ION    CL-47474   1.124  23.564   2.499
75149ION    CL-47475   7.869  33.797  12.484
75150ION    CL-47476   2.205  12.241  14.396
75151ION    CL-47477  40.526   1.308  14.797
75152ION    CL-47478   6.834  18.696   1.183
75153ION    CL-47479  29.690  35.396   4.162
75154ION    CL-47480  15.216  24.428  13.290
75155ION    CL-47481  41.336   3.767   2.568
75156ION    CL-47482  35.640  40.012   3.636
75157ION    CL-47483  29.591  35.245  11.791
75158ION    CL-47484  44.480   4.232  14.990
75159ION    CL-47485  31.593  44.822   3.385
75160ION    CL-47486  40.018  40.437   3.155
75161ION    CL-47487  35.383   1.683  13.179
75162ION    CL-47488  17.562  28.156  13.792
75163ION    CL-47489   9.910  23.311   2.531
75164ION    CL-47490  19.142  14.533  14.972
75165ION    CL-47491  26.463  27.599  13.291
75166ION    CL-47492   2.137  10.332   0.458
75167ION    CL-47493  41.114  43.263  10.840
75168ION    CL-47494  29.459  24.593  14.555
75169ION    CL-47495  13.617  44.229   1.053
75170ION    CL-47496  43.764  13.727  13.046
75171ION    CL-47497  28.116  22.252  10.412
75172ION    CL-47498  32.468  35.159  10.925
75173ION    CL-47499  27.076  35.291  11.889
75174ION    CL-47500  19.883  19.656   0.393
75175ION    CL-47501  22.407   7.081  12.109
75176ION    CL-47502   5.494  15.720   5.119
75177ION    CL-47503  41.600  36.941   2.297
75178ION    CL-47504  23.953  22.426   0.270
75179ION    CL-47505  15.576  30.991  12.270
75180ION    CL-47506  15.037   1.794   5.164
75181ION    CL-47507  28.940  25.479  14.444
75182ION    CL-47508  14.662  36.210   4.689
75183ION    CL-47509  28.667  38.760  14.036
75184ION    CL-47510  24.973  24.339   2.225
75185ION    CL-47511  37.027  31.516  14.623
75186ION    CL-47512  14.214  29.669  14.328
75187ION    CL-47513  13.127  39.335   2.082
75188ION    CL-47514   8.869   4.196  12.473
75189ION    CL-47515  40.253  38.004   3.629
75190ION    CL-47516  34.361  15.491  11.544
75191ION    CL-47517  16.373  40.337  11.910
75192ION    CL-47518  38.788  15.555   5.171
75193ION    CL-47519  18.332  11.841   2.109
75194ION    CL-47520  33.361  14.377   4.994
75195ION    CL-47521  31.051  16.974   0.408
75196ION    CL-47522   5.328  22.476  14.429
75197ION    CL-47523   6.734   6.897  14.018
75198ION    CL-47524  23.175  40.665   5.027
75199ION    CL-47525  32.140   5.888   4.197
75200ION    CL-47526  12.855   4.609   2.253
75201ION    CL-47527  11.593  41.575   3.320
75202ION    CL-47528  37.062  44.405  10.340
75203ION    CL-47529   3.649  19.021   4.247
75204ION    CL-47530  27.039   3.100   3.787
75205ION    CL-47531  19.093  33.659  11.939
75206ION    CL-47532  14.712  26.308   3.363
75207ION    CL-47533   4.422  23.083  13.212
75208ION    CL-47534  40.889  31.614   4.747
75209ION    CL-47535   9.631  16.575  13.055
75210ION    CL-47536   4.167  44.401  12.351
75211ION    CL-47537   7.720  27.724  14.126
75212ION    CL-47538  18.592   1.083  14.930
75213ION    CL-47539  27.064  25.118   2.354
75214ION    CL-47540  18.103  30.104   1.753
75215ION    CL-47541  31.009  25.710  11.345
75216ION    CL-47542  12.700  34.408   1.060
75217ION    CL-47543  44.417  17.618  12.985
75218ION    CL-47544  22.007  38.390   3.408
75219ION    CL-47545   5.306  10.165  11.647
75220ION    CL-47546  43.052  24.728   3.129
75221ION    CL-47547  32.325  25.556   3.360
75222ION    CL-47548  17.632  41.753   3.667
75223ION    CL-47549  28.023  29.398   1.791
75224ION    CL-47550   0.279  12.632  11.504
75225ION    CL-47551  26.667  17.920  12.659
75226ION    CL-47552   7.431   9.237   0.911
75227ION    CL-47553  23.566  13.729  12.858
75228ION    CL-47554  18.805  19.069   1.351
75229ION    CL-47555  14.335  42.784   3.602
75230ION    CL-47556  43.134  40.600   2.475
75231ION    CL-47557  23.849  22.222  12.100
75232ION    CL-47558  44.232  38.577   3.705
75233ION    CL-47559   7.580  11.254   0.327
75234ION    CL-47560  22.041  34.650   3.111
75235ION    CL-47561  42.749  10.479   3.660
75236ION    CL-47562  32.506   6.486  14.720
75237ION    CL-47563  24.607  40.943   0.751
75238ION    CL-47564   3.769  18.585  10.786
75239ION    CL-47565  40.709  38.006   4.847
75240ION    CL-47566  38.145   9.573  14.415
75241ION    CL-47567  22.814  34.879  11.154
75242ION    CL-47568   5.093  33.290  12.855
75243ION    CL-47569   6.779  35.067  12.576
75244ION    CL-47570  29.468  15.359   0.558
75245ION    CL-47571  16.998  32.489  13.609
75246ION    CL-47572   1.803  27.925   0.417
75247ION    CL-47573  17.210  11.587   1.745
75248ION    CL-47574  24.568  21.660  11.967
75249ION    CL-47575   5.448  11.189   4.168
75250ION    CL-47576  36.507   3.441  10.000
75251ION    CL-47577   9.131  39.998   3.557
75252ION    CL-47578  17.391  34.501   2.217
75253ION    CL-47579  16.882  21.454  13.976
75254ION    CL-47580  29.156  43.020  12.462
75255ION    CL-47581  31.244  29.188  12.089
75256ION    CL-47582  30.175  34.743   2.062
75257ION    CL-47583  26.051  14.622   3.317
75258ION    CL-47584  21.386  42.650  10.065
75259ION    CL-47585  37.136  20.634  11.037
75260ION    CL-47586  14.220  36.066   3.286
75261ION    CL-47587  37.865  20.595  11.728
75262ION    CL-47588  29.214  23.757   5.206
75263ION    CL-47589  29.509  38.106  11.042
75264ION    CL-47590   1.467   2.816  13.052
75265ION    CL-47591  10.323  11.368   2.762
75266ION    CL-47592  14.733   0.690  11.879
75267ION    CL-47593  29.929   2.433   0.490
75268ION    CL-47594  12.620  39.861   3.634
75269ION    CL-47595  27.824  37.857  13.465
75270ION    CL-47596  13.673  42.816  14.435
75271ION    CL-47597   1.205  43.022  14.032
75272ION    CL-47598   8.048  10.805  12.369
75273ION    CL-47599   1.226  29.662   5.309
75274ION    CL-47600   7.770   3.042   2.141
75275ION    CL-47601  22.942   5.757   3.790
75276ION    CL-47602  22.231  37.958   0.484
75277ION    CL-47603  24.118  36.681  14.491
75278ION    CL-47604  11.740  13.666   1.871
75279ION    CL-47605   2.056   6.021  13.075
75280ION    CL-47606  30.083  16.341  13.461
75281ION    CL-47607  18.947  12.505  11.487
75282ION    CL-47608   9.351   0.736   1.002
75283ION    CL-47609   2.635   7.746  11.306
75284ION    CL-47610  23.517  30.191   4.966
75285ION    CL-47611   2.132   7.123  11.904
75286ION    CL-47612   4.498   4.015  14.328
75287ION    CL-47613   2.863  26.683   4.222
75288ION    CL-47614   8.688  37.529   5.358
75289ION    CL-47615  14.674  43.929   1.483
75290ION    CL-47616   7.875   7.192   0.653
75291ION    CL-47617  41.719   2.126   0.108
75292ION    CL-47618  36.118   9.948  11.117
75293ION    CL-47619  21.333  25.920  11.950
75294ION    CL-47620   7.363   6.010   0.373
75295ION    CL-47621   8.275  42.970   0.886
75296ION    CL-47622  15.618  41.747  11.471
75297ION    CL-47623  16.107  29.700  13.093
75298ION    CL-47624   7.361  13.060   3.525
75299ION    CL-47625  34.539  15.467   2.639
75300ION    CL-47626   1.080  15.381   0.789
75301ION    CL-47627  42.518  36.458   3.767
75302ION    CL-47628  26.823  34.321   2.407
75303ION    CL-47629  28.076  44.200   5.142
75304ION    CL-47630  35.502  28.613   0.558
75305ION    CL-47631  10.686  39.380  14.398
75306ION    CL-47632  43.205  41.517   3.338
75307ION    CL-47633  34.521  26.604   0.433
75308ION    CL-47634  24.713  31.479   1.484
75309ION    CL-47635  18.631  33.969   0.459
75310ION    CL-47636  40.059  36.581   3.645
75311ION    CL-47637  38.606   5.698   2.578
75312ION    CL-47638  36.486  31.997   9.754
75313ION    CL-47639  39.586  22.893   2.506
75314ION    CL-47640  13.892  21.327  14.797
75315ION    CL-47641  34.399   0.756   0.708
75316ION    CL-47642   5.784  37.892  10.442
75317ION    CL-47643   0.145   5.148  11.720
75318ION    CL-47644   8.941  15.223  14.076
75319ION    CL-47645  25.440  29.580   0.570
75320ION    CL-47646  33.064  40.357   0.315
75321ION    CL-47647  20.021  26.184  13.076
75322ION    CL-47648  32.855   3.965   2.598
75323ION    CL-47649  12.717  15.159   4.503
75324ION    CL-47650  16.072   8.036   2.201
75325ION    CL-47651  42.139  43.477  11.197
75326ION    CL-47652   0.562  36.868  14.421
75327ION    CL-47653  33.975  21.741   4.954
75328ION    CL-47654  40.970  36.644  12.865
75329ION    CL-47655   6.191   9.704  11.708
75330ION    CL-47656   8.113  34.761  12.371
75331ION    CL-47657   1.694  25.999  14.439
75332ION    CL-47658   3.148  21.522   1.217
75333ION    CL-47659  28.262  26.842   1.821
75334ION    CL-47660  18.598   1.342  11.654
75335ION    CL-47661  27.060  34.730   4.007
75336ION    CL-47662  39.500  31.191  13.989
75337ION    CL-47663  15.985  14.286   3.537
75338ION    CL-47664  30.213  11.451   3.839
75339ION    CL-47665  17.311  29.560   3.632
75340ION    CL-47666   2.652  28.704  11.461
75341ION    CL-47667  36.529  13.580   9.828
75342ION    CL-47668   8.876   1.945   2.487
75343ION    CL-47669  20.312  15.951  12.037
75344ION    CL-47670   0.332  22.632   0.399
75345ION    CL-47671   2.261  31.897   3.424
75346ION    CL-47672  29.660  12.190  10.422
75347ION    CL-47673  41.514  21.490   1.378
75348ION    CL-47674  36.057  17.852   1.090
75349ION    CL-47675  26.783  17.459   2.001
75350ION    CL-47676  24.719  20.356  12.801
75351ION    CL-47677  13.419  22.127  11.351
75352ION    CL-47678   1.809  30.967   3.546
75353ION    CL-47679  15.555  24.710  14.059
75354ION    CL-47680  14.481  43.256   0.769
75355ION    CL-47681  16.834  39.482  12.465
75356ION    CL-47682  44.957  17.689   0.594
75357ION    CL-47683   7.057  19.620  13.042
75358ION    CL-47684  24.598   5.864   0.714
75359ION    CL-47685   0.355  16.583  11.151
75360ION    CL-47686  13.133  37.194  13.866
75361ION    CL-47687  35.239  33.454   4.269
75362ION    CL-47688   8.645  17.144   3.255
75363ION    CL-47689  43.284   1.850  11.669
75364ION    CL-47690   8.015  15.806   2.649
75365ION    CL-47691  15.699   2.899  11.079
75366ION    CL-47692  13.620  24.496   0.822
75367ION    CL-47693  25.316  33.534   1.416
75368ION    CL-47694  10.093  18.049  12.016
75369ION    CL-47695   3.701  28.544  11.699
75370ION    CL-47696   2.723  40.792  14.378
75371ION    CL-47697   3.347  20.714  14.925
75372ION    CL-47698  20.220   0.062  10.207
75373ION    CL-47699  44.706  34.363   2.856
75374ION    CL-47700  26.980  43.319   4.442
75375ION    CL-47701  29.528   6.745   3.158
75376ION    CL-47702  22.826  36.893   0.876
75377ION    CL-47703  28.592  40.792  11.559
75378ION    CL-47704  22.955   3.538   2.328
75379ION    CL-47705  34.702  11.332   2.385
75380ION    CL-47706   5.183  19.556   2.612
75381ION    CL-47707  38.842   6.707   3.393
75382ION    CL-47708   5.750  23.616  12.591
75383ION    CL-47709  21.530   9.406  13.791
75384ION    CL-47710  25.934  10.195  12.578
75385ION    CL-47711   8.081  13.586  13.995
75386ION    CL-47712  15.117   1.474   3.668
75387ION    CL-47713  22.443   9.730  11.705
75388ION    CL-47714  13.246  39.311   3.075
75389ION    CL-47715  39.526  11.755   2.096
75390ION    CL-47716  13.557  12.792   9.764
75391ION    CL-47717  23.360   9.012  12.432
75392ION    CL-47718  34.628  18.369  14.561
75393ION    CL-47719  27.083  11.628   4.362
75394ION    CL-47720  18.630  31.041  11.485
75395ION    CL-47721  39.590  22.461   3.302
75396ION    CL-47722  34.825  29.253   1.167
75397ION    CL-47723  10.129   4.978  11.938
75398ION    CL-47724  29.731  25.487   2.617
75399ION    CL-47725  11.653  38.064  11.203
75400ION    CL-47726  43.305  10.350  13.948
75401ION    CL-47727  17.466  35.806  11.669
75402ION    CL-47728   9.442  14.481  12.366
75403ION    CL-47729  29.623   8.570  12.592
75404ION    CL-47730   2.908  41.948  12.535
75405ION    CL-47731  13.199   0.549   3.786
75406ION    CL-47732  25.247   9.999  14.022
75407ION    CL-47733  34.785  23.440  12.949
75408ION    CL-47734  15.252  27.895   0.384
75409ION    CL-47735   8.104   8.892  13.380
75410ION    CL-47736  43.311   2.860   0.083
75411ION    CL-47737   1.444   4.418   2.783
75412ION    CL-47738   6.602  14.362  13.798
75413ION    CL-47739  33.169   6.630  11.588
75414ION    CL-47740  19.913  36.203  13.445
75415ION    CL-47741   6.408  15.635  13.322
75416ION    CL-47742  22.952  23.356  11.604
75417ION    CL-47743  31.225  30.694   3.742
75418ION    CL-47744  15.511  35.241   5.546
75419ION    CL-47745  44.818  16.242  13.976
75420ION    CL-47746   5.424  24.893  12.730
75421ION    CL-47747  11.811  30.822  10.562
75422ION    CL-47748   7.593  29.998  14.951
75423ION    CL-47749  19.020  21.705   2.163
75424ION    CL-47750  30.323  27.857  12.614
75425ION    CL-47751   4.192  13.160  13.580
75426ION    CL-47752  41.992  10.961   3.662
75427ION    CL-47753  32.184   9.302  12.960
75428ION    CL-47754   3.646   7.204  14.813
75429ION    CL-47755  20.017  18.332   3.341
75430ION    CL-47756  18.306  40.628  10.308
75431ION    CL-47757  13.567  34.057  10.354
75432ION    CL-47758  10.669  33.758   9.836
75433ION    CL-47759  14.143  17.754  12.958
75434ION    CL-47760   1.610  34.796   4.565
75435ION    CL-47761  24.280  22.446  14.015
75436ION    CL-47762  10.789   6.858  11.484
75437ION    CL-47763  31.614  34.638   4.560
75438ION    CL-47764  36.853  12.344   2.397
75439ION    CL-47765  32.095   4.937  11.901
75440ION    CL-47766  35.416  24.067   3.403
75441ION    CL-47767  36.768  19.813   0.909
75442ION    CL-47768  10.299  35.034  14.298
75443ION    CL-47769  34.922  40.841  12.428
75444ION    CL-47770  38.705  41.758  13.939
75445ION    CL-47771   4.042  22.337  12.103
75446ION    CL-47772  35.711  22.684  11.805
75447ION    CL-47773   3.999  26.476   0.649
75448ION    CL-47774   8.497  44.711   5.015
75449ION    CL-47775  39.144  26.699   0.480
75450ION    CL-47776  35.297  28.837  10.839
75451ION    CL-47777  21.940  16.632  12.375
75452ION    CL-47778  20.181  30.188  14.024
75453ION    CL-47779  21.342   2.395   2.482
75454ION    CL-47780  29.420  40.324  12.268
75455ION    CL-47781  42.318  23.034  13.960
75456ION    CL-47782  16.641  16.635  14.173
75457ION    CL-47783  38.620  13.770  12.997
75458ION    CL-47784  12.330   6.897   3.206
75459ION    CL-47785  32.045  32.740  14.228
75460ION    CL-47786  10.697  37.730  10.084
75461ION    CL-47787  13.773   5.187  13.436
75462ION    CL-47788  23.821  41.750   2.938
75463ION    CL-47789  19.020  37.066   1.048
75464ION    CL-47790  38.530   0.247   3.307
75465ION    CL-47791  11.709  39.003  12.138
75466ION    CL-47792  33.260  32.273  12.123
75467ION    CL-47793  39.108  28.643   2.304
75468ION    CL-47794  35.259  44.529  11.175
75469ION    CL-47795  11.568  17.651  12.266
75470ION    CL-47796   4.766  34.889  13.399
75471ION    CL-47797   4.670   1.275   3.023
75472ION    CL-47798   5.639  39.060  13.285
75473ION    CL-47799   4.428   5.653   0.200
75474ION    CL-47800  10.313  18.231   9.808
75475ION    CL-47801   2.510  13.241   3.600
75476ION    CL-47802  40.570  35.609   4.357
75477ION    CL-47803  24.625  12.543   0.517
75478ION    CL-47804   6.673  37.015   0.260
75479ION    CL-47805  27.699  15.763  12.466
75480ION    CL-47806  24.557  44.390   4.615
75481ION    CL-47807  36.073  36.256   1.205
75482ION    CL-47808  28.281  42.986  13.683
75483ION    CL-47809  36.527  44.779  14.257
75484ION    CL-47810  26.162  27.041  11.496
75485ION    CL-47811  10.896  12.270  13.494
75486ION    CL-47812  18.552   4.039   1.117
75487ION    CL-47813   7.363  36.581   0.645
75488ION    CL-47814  42.562  16.133   2.282
75489ION    CL-47815  38.999  35.782  13.539
75490ION    CL-47816  14.070   6.691   0.710
75491ION    CL-47817  23.836  12.892   4.465
75492ION    CL-47818  22.798  16.555  12.243
75493ION    CL-47819  40.833  44.654   5.015
75494ION    CL-47820  13.819   9.131   1.433
75495ION    CL-47821  37.541  35.896  14.723
75496ION    CL-47822   9.646  24.461  13.356
75497ION    CL-47823  38.588   2.553  14.002
75498ION    CL-47824  37.473  44.323  13.607
75499ION    CL-47825  26.100  27.476  10.725
75500ION    CL-47826  27.418  32.183  13.534
75501ION    CL-47827  21.276  39.989  12.988
75502ION    CL-47828  34.335   9.411   4.245
75503ION    CL-47829  34.192   5.521  11.122
75504ION    CL-47830  25.139  37.948  13.901
75505ION    CL-47831  29.974  29.601  11.045
75506ION    CL-47832   9.839  20.867   1.305
75507ION    CL-47833   6.289   5.475  12.621
75508ION    CL-47834  37.135  44.227   1.416
75509ION    CL-47835  23.316  17.750   3.196
75510ION    CL-47836   8.858  23.987  10.715
75511ION    CL-47837  40.904   8.623  13.034
75512ION    CL-47838  42.588   2.272   3.435
75513ION    CL-47839  18.244  31.399   4.177
75514ION    CL-47840  25.316  43.130   4.668
75515ION    CL-47841  20.134  39.927  12.966
75516ION    CL-47842  19.140  12.448   2.162
75517ION    CL-47843  44.834  44.710   0.437
75518ION    CL-47844  28.836  14.978  14.315
75519ION    CL-47845  28.016  32.675  10.557
75520ION    CL-47846  18.783  29.594   2.711
75521ION    CL-47847  20.494  19.090   3.787
75522ION    CL-47848  42.546  30.154   4.146
75523ION    CL-47849  20.684  14.993   3.751
75524ION    CL-47850  12.303  12.200  12.404
75525ION    CL-47851  33.231   7.585  11.089
75526ION    CL-47852   4.667   1.346   0.437
75527ION    CL-47853   8.595  27.069  10.832
75528ION    CL-47854  11.199   0.490   1.349
75529ION    CL-47855  32.412  43.351  10.822
75530ION    CL-47856  20.254  11.569  10.962
75531ION    CL-47857  21.007  23.288   0.648
75532ION    CL-47858  10.093  40.519  11.916
75533ION    CL-47859  34.843   1.351  10.627
75534ION    CL-47860  18.534  43.109  13.018
75535ION    CL-47861  34.345  44.722   3.837
75536ION    CL-47862   6.320  35.896   3.648
75537ION    CL-47863  43.084  17.019  12.334
75538ION    CL-47864  13.906  28.317  14.784
75539ION    CL-47865  23.437  40.234   3.745
75540ION    CL-47866  14.118  19.754  12.590
75541ION    CL-47867  24.746   3.203  11.057
75542ION    CL-47868  36.905  18.919   2.243
75543ION    CL-47869   0.837  44.786  11.211
75544ION    CL-47870  28.325  39.567   2.624
75545ION    CL-47871   8.238  19.953  13.364
75546ION    CL-47872   4.140  11.656  11.204
75547ION    CL-47873  29.793  30.756   1.210
75548ION    CL-47874  20.189  41.500  12.351
75549ION    CL-47875   9.036   1.579  12.321
75550ION    CL-47876  38.481  29.552  10.687
75551ION    CL-47877  29.745  25.908  14.034
75552ION    CL-47878  10.953  35.082   4.384
75553ION    CL-47879  35.999  29.614   2.563
75554ION    CL-47880  41.654   6.159   3.716
75555ION    CL-47881   2.723  24.689   1.752
75556ION    CL-47882  40.655  43.162   0.740
75557ION    CL-47883   9.177  36.715   5.120
75558ION    CL-47884  25.976   7.474  11.568
75559ION    CL-47885   4.322  36.033  13.740
75560ION    CL-47886  12.409   0.362   1.841
75561ION    CL-47887  42.269  26.898   1.644
75562ION    CL-47888  24.221  15.195   2.972
75563ION    CL-47889  10.385  12.459  10.736
75564ION    CL-47890   4.964  11.389   3.265
75565ION    CL-47891   9.935  11.012   5.088
75566ION    CL-47892  36.460  30.854  12.069
75567ION    CL-47893  28.238  44.871  12.913
75568ION    CL-47894  15.400  29.051  12.815
75569ION    CL-47895  39.674  18.123   1.726
75570ION    CL-47896   9.170  37.100  14.555
75571ION    CL-47897  32.399  31.164   4.081
75572ION    CL-47898   2.950  43.584   2.607
75573ION    CL-47899  11.549   5.677   4.828
75574ION    CL-47900  13.741  36.594   5.473
75575ION    CL-47901  17.497   5.449  11.541
75576ION    CL-47902  23.122  32.594   2.020
75577ION    CL-47903  28.406  35.440  12.851
75578ION    CL-47904  11.767  32.499   3.971
75579ION    CL-47905  22.815  38.714   0.782
75580ION    CL-47906  13.073  24.228   4.527
75581ION    CL-47907   1.688  14.697  12.682
75582ION    CL-47908  30.544   9.227   3.640
75583ION    CL-47909   3.949  44.484   1.067
75584ION    CL-47910  15.362  11.846  12.906
75585ION    CL-47911  44.518  24.804   3.646
75586ION    CL-47912  23.669  42.424  10.653
75587ION    CL-47913  33.196  27.923  11.280
75588ION    CL-47914   3.145   1.474  14.674
75589ION    CL-47915   8.356  29.031   2.105
75590ION    CL-47916  25.513   7.269   2.340
75591ION    CL-47917  24.846  18.698  10.641
75592ION    CL-47918  33.901   2.246  14.308
75593ION    CL-47919  30.465  33.865  14.507
75594ION    CL-47920   7.714  16.612  13.266
75595ION    CL-47921   7.695  25.407  12.132
75596ION    CL-47922   9.234  26.925  13.314
75597ION    CL-47923  13.458   9.424  11.091
75598ION    CL-47924  36.224  40.452   3.134
75599ION    CL-47925   8.200  35.123   1.922
75600ION    CL-47926  37.589  38.917   1.034
75601ION    CL-47927  37.109  39.984  14.270
75602ION    CL-47928  30.648  33.210  13.632
75603ION    CL-47929  34.602  38.083  14.894
75604ION    CL-47930  19.392  22.619   2.736
75605ION    CL-47931  14.558  33.853   2.625
75606ION    CL-47932  35.814  10.798   4.615
75607ION    CL-47933   9.865  11.303  14.541
75608ION    CL-47934  40.769  30.413   9.946
75609ION    CL-47935  39.696   0.880  12.361
75610ION    CL-47936  33.634  30.985  12.187
75611ION    CL-47937   8.961  34.459   1.753
75612ION    CL-47938  27.028  10.148   3.184
75613ION    CL-47939  33.064  35.690  11.528
75614ION    CL-47940   7.173   0.781   4.019
75615ION    CL-47941  13.236  15.110   3.301
75616ION    CL-47942  39.260   9.439  11.511
75617ION    CL-47943  38.249  16.002  11.334
75618ION    CL-47944  41.506  40.522  12.418
75619ION    CL-47945  32.931  28.518   3.384
75620ION    CL-47946  17.469  36.134   0.804
75621ION    CL-47947   8.398  32.249   1.290
75622ION    CL-47948  13.612   5.349   0.273
75623ION    CL-47949  38.890  22.137  14.043
75624ION    CL-47950  11.164  24.160  12.958
75625ION    CL-47951  37.784  41.967  11.968
75626ION    CL-47952   4.345  12.656   1.263
75627ION    CL-47953   5.444  24.074  11.190
75628ION    CL-47954  29.072  43.774  14.427
75629ION    CL-47955  21.810  16.917  13.409
75630ION    CL-47956  19.357   1.312  11.003
75631ION    CL-47957   9.360  28.401  14.780
75632ION    CL-47958   4.412  34.851  10.657
75633ION    CL-47959  20.973  36.900   4.031
75634ION    CL-47960  32.829  30.260   3.787
75635ION    CL-47961  25.455  10.708  11.003
75636ION    CL-47962  28.150  42.376   2.021
75637ION    CL-47963  19.128  33.545   2.615
75638ION    CL-47964   4.890   1.860   3.803
75639ION    CL-47965  41.263   8.894   2.629
75640ION    CL-47966  13.668  38.194  11.205
75641ION    CL-47967  22.803   3.838  12.195
75642ION    CL-47968  28.745  17.263   3.727
75643ION    CL-47969  18.895  37.293  13.741
75644ION    CL-47970  44.645   7.627  12.659
75645ION    CL-47971  16.686  40.036   2.765
75646ION    CL-47972   8.964  31.706  11.613
75647ION    CL-47973  13.689  31.420  14.515
75648ION    CL-47974  36.472  13.451  12.689
75649ION    CL-47975   8.429  29.813  14.313
75650ION    CL-47976  14.352  29.813   2.352
75651ION    CL-47977  12.692  35.021   0.420
75652ION    CL-47978  17.829  25.170  13.051
75653ION    CL-47979  32.896  34.075  12.056
75654ION    CL-47980   7.401   9.357  11.805
75655ION    CL-47981   4.322   9.263   5.315
75656ION    CL-47982  40.769  16.387  13.380
75657ION    CL-47983  12.562  22.354  11.307
75658ION    CL-47984   0.823  41.640   0.085
75659ION    CL-47985  33.370  34.314   1.121
75660ION    CL-47986   4.194  10.373   0.287
75661ION    CL-47987  43.847  37.331  12.937
75662ION    CL-47988  40.389  18.525   4.068
75663ION    CL-47989   3.325  11.732  12.347
75664ION    CL-47990   5.985  33.716  13.006
75665ION    CL-47991  10.552  24.645  13.819
75666ION    CL-47992  11.915  32.223  11.172
75667ION    CL-47993  10.870  14.773   3.511
75668ION    CL-47994  30.370   3.093  13.946
75669ION    CL-47995  42.767   2.159  14.909
75670ION    CL-47996  29.997   7.666  13.082
75671ION    CL-47997  33.869  29.472   0.625
75672ION    CL-47998  41.704  31.541  12.985
75673ION    CL-47999  26.152  42.002   0.941
75674ION    CL-48000  30.888  42.339   1.894
75675ION    CL-48001  21.349  43.951   1.118
75676ION    CL-48002   8.969  39.780  14.733
75677ION    CL-48003   0.855  31.810  12.636
75678ION    CL-48004  12.010   2.304   2.673
75679ION    CL-48005  10.149  10.842  11.591
75680ION    CL-48006  25.123   1.064  12.081
75681ION    CL-48007  13.340  30.688  11.676
75682ION    CL-48008  14.229  40.990  13.108
75683ION    CL-48009  44.276   1.514   3.237
75684ION    CL-48010  34.865  28.173  13.414
75685ION    CL-48011   3.126   8.516  13.809
75686ION    CL-48012  20.945  17.405  13.522
75687ION    CL-48013   0.787  35.836   2.512
75688ION    CL-48014   9.034  40.173  11.405
75689ION    CL-48015  16.214  44.484  11.610
75690ION    CL-48016  33.632  42.561  11.174
75691ION    CL-48017  19.636   4.628  13.561
75692ION    CL-48018  43.751  24.824   4.286
75693ION    CL-48019   2.153  37.873   5.027
75694ION    CL-48020  40.248   5.025  12.365
75695ION    CL-48021   9.623   9.296   2.474
75696ION    CL-48022  12.974  24.516  13.755
75697ION    CL-48023  18.051  20.969   1.891
75698ION    CL-48024  37.443  30.490   3.154
75699ION    CL-48025  34.987  11.135   3.656
75700ION    CL-48026  42.854  20.239  13.351
75701ION    CL-48027  12.352  17.271  12.560
75702ION    CL-48028  15.401   7.018  12.430
75703ION    CL-48029  18.585  25.202   2.241
75704ION    CL-48030  42.656   1.953   1.675
75705ION    CL-48031  39.146   4.109   1.870
75706ION    CL-48032  10.296  22.236   2.140
75707ION    CL-48033  24.021  12.163  12.418
75708ION    CL-48034   3.295  40.605   0.919
75709ION    CL-48035  30.892  43.919  13.049
75710ION    CL-48036   1.924   6.004  14.217
75711ION    CL-48037  33.018  26.353  10.459
75712ION    CL-48038  34.432  14.176   4.710
75713ION    CL-48039  30.813  42.953  13.718
75714ION    CL-48040  35.620  19.980   0.547
75715ION    CL-48041  32.352  15.418   9.687
75716ION    CL-48042  38.762  18.619  12.114
75717ION    CL-48043   6.003  23.215   0.945
75718ION    CL-48044  31.962   9.555  14.725
75719ION    CL-48045  37.814  28.175   1.703
75720ION    CL-48046  24.928  27.954  10.738
75721ION    CL-48047  42.704  35.296  11.618
75722ION    CL-48048   3.133   9.810   1.823
75723ION    CL-48049  33.282  39.246  13.792
75724ION    CL-48050   2.555  17.744  13.170
75725ION    CL-48051  13.582  40.085   0.009
75726ION    CL-48052   1.917  27.981  11.456
75727ION    CL-48053  18.157  32.372   5.033
75728ION    CL-48054  26.294   6.487   4.530
75729ION    CL-48055  11.283  33.519  13.545
75730ION    CL-48056  34.356  32.186   1.160
75731ION    CL-48057   5.549  15.129  13.404
75732ION    CL-48058  16.406  36.603   4.995
75733ION    CL-48059  36.475  27.596   4.569
75734ION    CL-48060  36.411  38.575  11.636
75735ION    CL-48061   3.472  26.535  13.035
75736ION    CL-48062  23.222  36.322   1.656
75737ION    CL-48063  17.638  23.149  11.215
75738ION    CL-48064  41.418  23.962   1.863
75739ION    CL-48065  21.464  38.679   4.893
75740ION    CL-48066   9.705  31.163   1.123
75741ION    CL-48067  24.670  36.184   3.715
75742ION    CL-48068  16.778  21.126   3.313
75743ION    CL-48069  14.688  27.085   2.734
75744ION    CL-48070  10.909  17.154   4.352
75745ION    CL-48071  31.419   5.591  13.197
75746ION    CL-48072   2.552  35.448   2.284
75747ION    CL-48073  17.249   5.524  12.413
75748ION    CL-48074   2.748  39.217  11.944
75749ION    CL-48075  33.203  13.365   1.153
75750ION    CL-48076  24.701  13.689   2.692
75751ION    CL-48077   9.504  27.010  11.244
75752ION    CL-48078   8.686   2.228   5.004
75753ION    CL-48079  22.971  10.650  14.387
75754ION    CL-48080   4.099  39.426  11.721
75755ION    CL-48081   5.643  17.748   2.751
75756ION    CL-48082  23.721  21.680   4.906
75757ION    CL-48083  10.237  28.776   2.291
75758ION    CL-48084  32.532  37.481   2.686
75759ION    CL-48085  24.590  12.781  14.546
75760ION    CL-48086  19.418   3.563   4.315
75761ION    CL-48087  21.320  21.123   4.972
75762ION    CL-48088  33.545  10.684   0.676
75763ION    CL-48089  15.209  18.591  14.671
75764ION    CL-48090  22.684  27.380   1.037
75765ION    CL-48091  41.221  30.037   4.731
75766ION    CL-48092  35.993   2.364   2.982
75767ION    CL-48093  34.496   8.876  13.942
75768ION    CL-48094  10.094  33.970  10.626
75769ION    CL-48095   0.306  32.325   2.347
75770ION    CL-48096  33.917   7.545  13.009
75771ION    CL-48097  18.252  30.290  11.267
75772ION    CL-48098  32.097  34.189   5.135
75773ION    CL-48099  43.742  32.034  14.810
75774ION    CL-48100  28.929   4.152   1.693
75775ION    CL-48101   5.807  28.592  11.501
75776ION    CL-48102   4.685  21.137  12.783
75777ION    CL-48103  20.722  12.856   1.271
75778ION    CL-48104  28.658   7.261   1.286
75779ION    CL-48105  28.960  39.829   5.005
75780ION    CL-48106  29.167  34.447  14.656
75781ION    CL-48107  35.271   9.883  11.378
75782ION    CL-48108   5.090  26.852   1.382
75783ION    CL-48109  28.407  28.875   2.993
75784ION    CL-48110   1.179  41.508  12.163
75785ION    CL-48111   1.912  30.890  12.324
75786ION    CL-48112  10.689   9.308   5.051
75787ION    CL-48113  13.339   5.903  14.089
75788ION    CL-48114  28.955  10.450   0.383
75789ION    CL-48115  33.754  38.074   3.813
75790ION    CL-48116   1.479  43.753   0.583
75791ION    CL-48117  12.562  32.818  11.364
75792ION    CL-48118  25.056  30.946  12.447
75793ION    CL-48119   2.034  44.356   1.542
75794ION    CL-48120  33.815   2.262   3.373
75795ION    CL-48121  28.830  44.465   3.278
75796ION    CL-48122  14.831  14.051   4.662
75797ION    CL-48123  41.207  34.970  13.487
75798ION    CL-48124   3.510  11.112   3.172
75799ION    CL-48125  29.259  32.523   4.542
75800ION    CL-48126  15.705  41.303   2.674
75801ION    CL-48127   2.710  40.297   5.145
75802ION    CL-48128  19.727  23.411  14.092
75803ION    CL-48129   3.487   3.234   3.252
75804ION    CL-48130  41.959  13.642   3.517
75805ION    CL-48131  12.097  26.940   1.548
75806ION    CL-48132  23.549  40.790  11.428
75807ION    CL-48133   8.957  33.618  11.118
75808ION    CL-48134  38.794   3.660  12.080
75809ION    CL-48135  22.102  33.982  11.500
75810ION    CL-48136  10.059  34.963   3.580
75811ION    CL-48137  15.305  18.265   4.906
75812ION    CL-48138  19.739  13.284   3.748
75813ION    CL-48139  42.336  31.263  11.335
75814ION    CL-48140  26.595  22.797  12.050
75815ION    CL-48141  40.789  39.819  12.418
75816ION    CL-48142  38.612   5.738  12.478
75817ION    CL-48143   2.402  41.570   2.657
75818ION    CL-48144  37.415  44.224  12.159
75819ION    CL-48145  26.485  26.674  12.624
75820ION    CL-48146   8.703  44.324   0.298
75821ION    CL-48147   6.299  43.457  14.902
75822ION    CL-48148  32.653   2.974   2.793
75823ION    CL-48149  27.702  29.852  12.645
75824ION    CL-48150  13.587  30.039   0.015
75825ION    CL-48151  22.178   1.763   4.971
75826ION    CL-48152  22.118   7.896   4.908
75827ION    CL-48153  24.499  19.672  11.046
75828ION    CL-48154  39.317  10.567   9.584
75829ION    CL-48155  13.354  26.429  10.826
75830ION    CL-48156  20.652  40.899  11.417
75831ION    CL-48157  16.595  38.910   1.234
75832ION    CL-48158  30.583  36.542   2.156
75833ION    CL-48159  35.665  28.533   4.184
75834ION    CL-48160  29.975   1.858  11.030
75835ION    CL-48161  13.021   0.342  10.505
75836ION    CL-48162  18.672  38.265  13.819
75837ION    CL-48163   3.281  27.138  10.713
75838ION    CL-48164   8.232  36.924   4.088
75839ION    CL-48165  16.189  38.334  13.815
75840ION    CL-48166  22.819  15.475   0.734
75841ION    CL-48167  42.987  33.156  11.997
75842ION    CL-48168  16.511  28.324  10.477
75843ION    CL-48169  40.489  27.729  12.855
75844ION    CL-48170   1.323  17.298  13.150
75845ION    CL-48171  40.922  37.051   1.648
75846ION    CL-48172  13.910  30.704  10.854
75847ION    CL-48173   8.130  25.610   1.600
75848ION    CL-48174  29.608  28.086  12.124
75849ION    CL-48175  44.887  15.551  12.654
75850ION    CL-48176  16.983  24.613  13.977
75851ION    CL-48177  38.665  24.221  13.384
75852ION    CL-48178   1.345  29.896  10.732
75853ION    CL-48179  22.265   3.964  13.028
75854ION    CL-48180  41.322  21.348   3.724
75855ION    CL-48181  35.429  23.061  14.178
75856ION    CL-48182  12.878  28.486   0.081
75857ION    CL-48183   1.576   8.612  14.043
75858ION    CL-48184  23.894   8.302  11.339
75859ION    CL-48185  30.397  19.257   3.834
75860ION    CL-48186   2.670   8.812   5.406
75861ION    CL-48187  34.565  26.262   3.506
75862ION    CL-48188  24.949   6.051   4.975
75863ION    CL-48189   1.712  15.192   4.992
75864ION    CL-48190  16.604  37.005   1.641
75865ION    CL-48191  20.333  26.562  14.044
75866ION    CL-48192  18.704   4.932   2.261
75867ION    CL-48193  16.296  14.579   1.765
75868ION    CL-48194  19.450   8.048   2.306
75869ION    CL-48195  43.064  16.222  12.666
75870ION    CL-48196  27.030  38.053   0.118
75871ION    CL-48197   6.631  17.124   2.864
75872ION    CL-48198  12.995  27.695  10.319
75873ION    CL-48199  38.926  34.269   1.238
75874ION    CL-48200  41.705   1.821   1.394
75875ION    CL-48201  19.005  16.560  13.720
75876ION    CL-48202  35.940  33.176   0.852
75877ION    CL-48203  18.369  15.394  12.001
75878ION    CL-48204   2.097   9.425   0.384
75879ION    CL-48205  41.827   1.885  13.105
75880ION    CL-48206  33.479  10.428  12.175
75881ION    CL-48207  15.821  24.164  12.010
75882ION    CL-48208  41.057   2.527  14.595
75883ION    CL-48209  13.748   8.116  13.127
75884ION    CL-48210   5.247   6.975   3.482
75885ION    CL-48211  25.504  11.657   0.693
75886ION    CL-48212  28.425  16.263   3.709
75887ION    CL-48213  20.208   2.535   4.129
75888ION    CL-48214   0.850  40.117   3.016
75889ION    CL-48215   1.873  44.828  13.604
75890ION    CL-48216  32.100  34.963   1.381
75891ION    CL-48217  39.103  29.487   2.839
75892ION    CL-48218  20.606  37.720  10.713
75893ION    CL-48219  36.870   1.137  12.356
75894ION    CL-48220  38.355  25.183  13.951
75895ION    CL-48221  11.116  33.281   4.981
75896ION    CL-48222   0.721  25.972  14.669
75897ION    CL-48223   0.262  17.330   3.869
75898ION    CL-48224  32.404  17.137  13.325
75899ION    CL-48225  32.816  44.764   2.211
75900ION    CL-48226  36.376  12.915   4.740
75901ION    CL-48227  19.410  25.975  13.883
75902ION    CL-48228  21.768   6.358  12.929
75903ION    CL-48229  42.971  43.320   2.634
75904ION    CL-48230  17.689  17.235   4.763
75905ION    CL-48231  18.742  30.430  11.944
75906ION    CL-48232  37.044  37.229  13.524
75907ION    CL-48233  36.960   0.125  12.189
75908ION    CL-48234  34.405  44.375   4.938
75909ION    CL-48235  18.089  44.933   0.936
75910ION    CL-48236  16.378  39.260  14.144
75911ION    CL-48237   4.071  33.530  14.538
75912ION    CL-48238  34.073  36.609   3.093
75913ION    CL-48239  38.088  39.015   2.698
75914ION    CL-48240   1.520  18.581  12.344
75915ION    CL-48241  44.686  42.821   3.938
75916ION    CL-48242   5.503   1.451  11.463
75917ION    CL-48243  19.488  21.506   2.909
75918ION    CL-48244  24.201  24.214  12.104
75919ION    CL-48245  33.535  29.557   3.706
75920ION    CL-48246   4.608  13.159  10.299
75921ION    CL-48247  27.897  11.183  14.928
75922ION    CL-48248  44.637  31.645  13.733
75923ION    CL-48249  28.652  11.863   0.599
75924ION    CL-48250  27.563  39.537   2.142
75925ION    CL-48251  10.093  25.961   4.009
75926ION    CL-48252   6.175  14.311  14.989
75927ION    CL-48253  12.978   0.620  12.551
75928ION    CL-48254  11.728  33.468   3.183
75929ION    CL-48255  27.633  40.837  12.765
75930ION    CL-48256  16.878   4.482  12.270
75931ION    CL-48257   2.061  28.153  13.055
75932ION    CL-48258   2.815  19.528  14.037
75933ION    CL-48259   5.431  32.137  13.387
75934ION    CL-48260  17.013  17.702  12.782
75935ION    CL-48261  40.232  29.410  14.017
75936ION    CL-48262  28.120  31.911  12.565
75937ION    CL-48263  36.698  20.896   4.181
75938ION    CL-48264  11.162  22.133   3.665
75939ION    CL-48265  41.204  22.437   1.297
75940ION    CL-48266   4.838  37.937  13.252
75941ION    CL-48267  28.773  26.115  13.390
75942ION    CL-48268  17.720  33.679  14.849
75943ION    CL-48269  20.138  34.670  11.179
75944ION    CL-48270   1.849  36.552   2.157
75945ION    CL-48271  25.637   3.717   0.802
75946ION    CL-48272  16.463   5.529  14.020
75947ION    CL-48273  39.739  29.549  12.227
75948ION    CL-48274  43.030  31.789  11.123
75949ION    CL-48275  28.783  27.497  12.234
75950ION    CL-48276  23.133  17.203   4.499
75951ION    CL-48277  25.448  13.133  11.956
75952ION    CL-48278  41.208  40.100  14.516
75953ION    CL-48279  27.809  25.865  13.301
75954ION    CL-48280  39.096  35.036   1.858
75955ION    CL-48281  12.058  27.943   1.231
75956ION    CL-48282  35.559   7.157  10.975
75957ION    CL-48283  23.011  16.425  13.061
75958ION    CL-48284  29.469  41.797   0.482
75959ION    CL-48285  36.618  38.424   4.165
75960ION    CL-48286   2.961   4.128  13.589
75961ION    CL-48287   1.247  44.759   3.760
75962ION    CL-48288  38.661   5.696   3.916
75963ION    CL-48289   4.815   3.224   0.722
75964ION    CL-48290  33.696   9.018  11.191
75965ION    CL-48291  40.966  42.246   4.672
75966ION    CL-48292  28.053  16.420   1.940
75967ION    CL-48293  15.442  28.618   2.883
75968ION    CL-48294  21.775   0.025   5.094
75969ION    CL-48295  18.241  26.451   3.621
75970ION    CL-48296  28.474   0.493  14.467
75971ION    CL-48297  37.548  41.245  14.845
75972ION    CL-48298  36.121  14.407  12.395
75973ION    CL-48299  33.799  44.957   5.029
75974ION    CL-48300  34.506  38.375   2.628
75975ION    CL-48301  32.354  22.536   1.786
75976ION    CL-48302  19.181  41.944  11.840
75977ION    CL-48303  18.558  11.320  10.622
75978ION    CL-48304   4.184  39.287  12.618
75979ION    CL-48305  43.684   8.741  14.165
75980ION    CL-48306  38.004   3.804   3.606
75981ION    CL-48307   4.387  18.388   3.348
75982ION    CL-48308  34.945  33.142  11.048
75983ION    CL-48309   7.245   5.779  11.919
75984ION    CL-48310  22.603   4.942   0.032
75985ION    CL-48311   5.348   1.412  13.771
75986ION    CL-48312  30.059  29.397   2.342
75987ION    CL-48313  12.744   6.960  14.330
75988ION    CL-48314  24.585  33.328  14.491
75989ION    CL-48315  43.783  43.780  14.341
75990ION    CL-48316  44.454   3.161  14.836
75991ION    CL-48317  12.309  41.954  12.082
75992ION    CL-48318  10.561  36.606   2.396
75993ION    CL-48319   0.329  10.112   0.302
75994ION    CL-48320  31.639   3.209   3.920
75995ION    CL-48321  22.938   9.930  12.575
75996ION    CL-48322  42.667  18.205  12.840
75997ION    CL-48323  33.193   0.516   2.860
75998ION    CL-48324  10.582  24.981   0.522
75999ION    CL-48325  40.805  30.174  13.722
76000ION    CL-48326  25.918  28.006   2.252
76001ION    CL-48327  27.579  11.942  13.722
76002ION    CL-48328   2.886  13.368   4.978
76003ION    CL-48329  27.127  22.974   1.881
76004ION    CL-48330  32.761  17.265   1.709
76005ION    CL-48331   1.547  26.515  12.378
76006ION    CL-48332  13.714  24.538  12.517
76007ION    CL-48333  21.791  25.487  14.410
76008ION    CL-48334  43.439  38.056  10.658
76009ION    CL-48335  44.397  10.460   3.654
76010ION    CL-48336   6.957  34.379   0.828
76011ION    CL-48337  25.818  13.884   0.027
76012ION    CL-48338   1.354  42.801   3.053
76013ION    CL-48339  23.544  20.648  12.119
76014ION    CL-48340  23.513  35.146  12.087
76015ION    CL-48341   4.988  26.212   1.988
76016ION    CL-48342   3.550  31.507   0.326
76017ION    CL-48343  15.009  15.222  14.743
76018ION    CL-48344   2.517   0.620  13.494
76019ION    CL-48345  16.893   4.565   1.432
76020ION    CL-48346   2.266  21.953   4.610
76021ION    CL-48347  43.552  30.038   4.893
76022ION    CL-48348  34.483  42.983   4.224
76023ION    CL-48349  20.814  19.818  11.744
76024ION    CL-48350   4.351  13.752   4.868
76025ION    CL-48351  40.869   2.770  13.257
76026ION    CL-48352  44.900  22.969  11.973
76027ION    CL-48353  22.600   2.306  12.020
76028ION    CL-48354  27.206  24.806   3.297
76029ION    CL-48355  18.788  36.463   0.921
76030ION    CL-48356  30.219   4.617  12.586
76031ION    CL-48357  39.054  33.268   2.579
76032ION    CL-48358  17.785  27.251   3.232
76033ION    CL-48359  43.975  25.684  14.479
76034ION    CL-48360   7.803  12.103  11.367
76035ION    CL-48361  37.966  26.579   1.512
76036ION    CL-48362  40.052   4.991   0.241
76037ION    CL-48363  25.988  25.039   2.040
76038ION    CL-48364   8.898  34.646  12.019
76039ION    CL-48365  13.340  19.206  11.584
76040ION    CL-48366  35.949  19.103  11.905
76041ION    CL-48367   8.617  29.352   5.074
76042ION    CL-48368  22.333   7.653   3.211
76043ION    CL-48369  15.316  24.409   3.126
76044ION    CL-48370   7.431  15.672  13.495
76045ION    CL-48371  12.001  20.049  14.912
76046ION    CL-48372  37.790  22.663  10.561
76047ION    CL-48373  35.072  12.380   2.150
76048ION    CL-48374  11.100  30.682  10.120
76049ION    CL-48375  25.760  28.859   1.190
76050ION    CL-48376  43.806  39.236  12.080
76051ION    CL-48377  24.808  28.390  13.790
76052ION    CL-48378  12.243  40.001  12.584
76053ION    CL-48379  41.482  14.944   4.696
76054ION    CL-48380  24.778   7.841  11.423
76055ION    CL-48381  35.027  29.614   2.328
76056ION    CL-48382  24.580  38.297  14.471
76057ION    CL-48383  22.511  10.540   4.128
76058ION    CL-48384   2.490  11.967   4.447
76059ION    CL-48385  33.749  28.510  10.688
76060ION    CL-48386  14.529   8.160  10.318
76061ION    CL-48387  24.276  19.407  12.396
76062ION    CL-48388  41.089   5.583   3.126
76063ION    CL-48389  25.596   2.976   2.716
76064ION    CL-48390  30.387   1.757   1.321
76065ION    CL-48391   2.702  37.156   2.849
76066ION    CL-48392  43.882  33.975  11.002
76067ION    CL-48393  29.672  41.736  13.098
76068ION    CL-48394   8.706  21.573   1.837
76069ION    CL-48395  10.346  19.481   3.311
76070ION    CL-48396   6.187  21.784  13.296
76071ION    CL-48397   5.659   4.697   4.429
76072ION    CL-48398  20.483   3.098  14.623
76073ION    CL-48399  19.278  39.767  11.381
76074ION    CL-48400  42.285  19.411   3.048
76075ION    CL-48401  44.627   5.127   4.579
76076ION    CL-48402  38.118  11.785  10.632
76077ION    CL-48403  39.718  39.341  11.423
76078ION    CL-48404   8.944  10.614   1.025
76079ION    CL-48405  43.264  27.972  13.613
76080ION    CL-48406  39.556  10.849   1.674
76081ION    CL-48407  35.225  26.054  11.582
76082ION    CL-48408   1.269  12.594  14.426
76083ION    CL-48409  40.571  30.753   4.361
76084ION    CL-48410  16.965  25.080   1.809
76085ION    CL-48411  19.653  19.435   2.416
76086ION    CL-48412   9.839  26.089  12.547
76087ION    CL-48413  33.453  12.493   4.958
76088ION    CL-48414  43.253  33.828  14.054
76089ION    CL-48415  30.954  37.980  10.670
76090ION    CL-48416  41.874  22.182   3.693
76091ION    CL-48417  44.523  25.117  13.864
76092ION    CL-48418   7.605   1.097   2.372
76093ION    CL-48419  37.147  10.830   2.824
76094ION    CL-48420  30.902  32.328   1.189
76095ION    CL-48421  17.865  27.863   4.741
76096ION    CL-48422  37.538  23.268   0.093
76097ION    CL-48423  33.653   4.176  12.075
76098ION    CL-48424  33.660  42.902  10.234
76099ION    CL-48425   0.757  19.395  11.222
76100ION    CL-48426  12.399  11.781   3.463
76101ION    CL-48427  23.424  31.491  14.858
76102ION    CL-48428  32.013  11.867  13.537
76103ION    CL-48429   8.872  12.078  10.938
76104ION    CL-48430  17.335  33.155   0.425
76105ION    CL-48431   1.185  26.311  11.559
76106ION    CL-48432  34.588  31.231  14.971
76107ION    CL-48433  28.428  34.636  12.479
76108ION    CL-48434  12.578  23.013  14.783
76109ION    CL-48435   3.093  37.489   0.709
76110ION    CL-48436   3.464  38.646   3.202
76111ION    CL-48437   0.527  37.795   0.428
76112ION    CL-48438  12.484  30.691  11.160
76113ION    CL-48439  28.745  13.997  14.486
76114ION    CL-48440  26.972  17.272   3.276
76115ION    CL-48441  34.752  32.837  12.961
76116ION    CL-48442   7.169   6.756   1.429
76117ION    CL-48443  27.742   3.896   3.704
76118ION    CL-48444  28.276  41.878   5.008
76119ION    CL-48445   9.471  27.933   3.102
76120ION    CL-48446  17.744   2.847   4.835
76121ION    CL-48447  27.631   3.080  14.731
76122ION    CL-48448  34.371   5.774   1.684
76123ION    CL-48449  44.089   7.726   4.176
76124ION    CL-48450  12.704  44.816   0.213
76125ION    CL-48451  44.281  23.607  11.513
76126ION    CL-48452   2.971  29.954  14.542
76127ION    CL-48453  34.829   5.318  14.376
76128ION    CL-48454  36.781  40.791   4.110
76129ION    CL-48455  29.900  25.867   3.425
76130ION    CL-48456   2.652  40.787   3.054
76131ION    CL-48457  12.703   7.682   3.701
76132ION    CL-48458  18.579  16.047   0.850
76133ION    CL-48459   3.145   5.967   1.241
76134ION    CL-48460   2.247  10.705  11.937
76135ION    CL-48461  17.559   0.292   4.623
76136ION    CL-48462  33.838  38.451  13.467
76137ION    CL-48463   9.637  26.656   5.075
76138ION    CL-48464   8.260  33.112  14.524
76139ION    CL-48465   9.314  29.489  12.638
76140ION    CL-48466  11.660  36.786  10.757
76141ION    CL-48467  30.330  27.694  11.000
76142ION    CL-48468   4.960  35.488  11.514
76143ION    CL-48469  28.371  37.323  12.984
76144ION    CL-48470  38.712  13.861   3.036
76145ION    CL-48471  11.158  25.985   3.803
76146ION    CL-48472  16.124  17.757  10.886
76147ION    CL-48473  16.087  30.369   1.789
76148ION    CL-48474  21.439  25.182   3.778
76149ION    CL-48475  33.127  13.692  13.876
76150ION    CL-48476  17.595  32.994   1.378
76151ION    CL-48477  33.487  43.312  14.270
76152ION    CL-48478  25.614  20.882  14.142
76153ION    CL-48479  39.648   1.297  13.753
76154ION    CL-48480  24.009  15.402  12.646
76155ION    CL-48481   7.773   7.719  14.106
76156ION    CL-48482  35.290  11.399  10.662
76157ION    CL-48483   0.269   5.439   0.640
76158ION    CL-48484   1.665  40.692   3.187
76159ION    CL-48485  31.696  10.098  13.319
76160ION    CL-48486   4.878  21.251   2.720
76161ION    CL-48487   1.275  39.799  11.597
76162ION    CL-48488  27.826  35.053  14.011
76163ION    CL-48489   0.830  36.951  10.419
76164ION    CL-48490  17.701  12.246  11.262
76165ION    CL-48491   5.437  13.362  10.841
76166ION    CL-48492  24.240  26.011   3.092
76167ION    CL-48493  26.703  25.341  12.635
76168ION    CL-48494   3.928  41.795  12.088
76169ION    CL-48495  24.944  28.137   2.434
76170ION    CL-48496  42.790   8.619  13.534
76171ION    CL-48497  17.886  23.843  14.998
76172ION    CL-48498  21.096  16.096  10.696
76173ION    CL-48499  14.637  11.935  14.545
76174ION    CL-48500  23.052  33.969  14.789
76175ION    CL-48501  13.293  23.484  11.631
76176ION    CL-48502  37.576  30.412   1.790
76177ION    CL-48503  43.136  44.636   1.226
76178ION    CL-48504   5.872  22.382  12.837
76179ION    CL-48505  31.578  13.397   4.669
76180ION    CL-48506   7.838   0.939   0.201
76181ION    CL-48507  41.785   3.382   3.407
76182ION    CL-48508   9.232  43.398  11.623
76183ION    CL-48509  38.925  31.972   0.946
76184ION    CL-48510  13.337  18.887   3.073
76185ION    CL-48511  15.310  35.387  14.502
76186ION    CL-48512  18.781  24.104   0.491
76187ION    CL-48513  17.607  43.171  12.148
76188ION    CL-48514   0.982  10.708  13.751
76189ION    CL-48515  14.022   5.452  11.933
76190ION    CL-48516  34.530   4.875  11.633
76191ION    CL-48517  43.302  42.553  12.991
76192ION    CL-48518  27.920  20.251   5.066
76193ION    CL-48519   3.753  19.866  11.705
76194ION    CL-48520  26.760  41.567  13.675
76195ION    CL-48521  18.653  14.095   0.895
76196ION    CL-48522  16.357  25.040  12.745
76197ION    CL-48523  44.473  44.863  11.137
76198ION    CL-48524  18.046  27.834  11.131
76199ION    CL-48525  44.426   3.956   3.731
76200ION    CL-48526  24.213  29.154  14.839
76201ION    CL-48527   9.730  17.125   0.245
76202ION    CL-48528  41.779  24.187  14.904
76203ION    CL-48529  34.851  23.609   9.676
76204ION    CL-48530  38.580  40.075  10.969
76205ION    CL-48531  17.352  43.668   0.618
76206ION    CL-48532  11.291  14.920   1.762
76207ION    CL-48533  10.622   7.543   4.161
76208ION    CL-48534   1.714  21.186  14.849
76209ION    CL-48535  17.696   3.520   2.176
76210ION    CL-48536  29.835  35.718  12.637
76211ION    CL-48537  21.629  32.649   3.692
76212ION    CL-48538  27.689  11.795   3.221
76213ION    CL-48539  25.026   3.921  13.401
76214ION    CL-48540  20.684   8.345  14.930
76215ION    CL-48541  21.735  24.014  13.011
76216ION    CL-48542  15.519  25.568  12.017
76217ION    CL-48543  38.125  15.275   2.733
76218ION    CL-48544  32.021   5.478  14.860
76219ION    CL-48545  27.305  43.224  13.837
76220ION    CL-48546   9.751  26.976  10.192
76221ION    CL-48547  25.933  40.075  11.909
76222ION    CL-48548  22.064  32.827   1.432
76223ION    CL-48549   0.518  20.587  11.574
76224ION    CL-48550  30.490  31.999  14.443
76225ION    CL-48551  13.255   1.538  14.121
76226ION    CL-48552  35.773  24.181   1.517
76227ION    CL-48553  13.274  13.166   2.854
76228ION    CL-48554   3.517   0.723   5.029
76229ION    CL-48555   8.569  25.468  12.364
76230ION    CL-48556   6.896  37.746  12.076
76231ION    CL-48557  12.731  36.821   3.839
76232ION    CL-48558   4.041   0.227  12.736
76233ION    CL-48559   2.630  13.080   5.469
76234ION    CL-48560  23.037   6.980  10.623
76235ION    CL-48561  21.070  31.424  11.221
76236ION    CL-48562   4.738  41.439  13.945
76237ION    CL-48563   5.338  36.927   4.554
76238ION    CL-48564   8.433  17.225  13.649
76239ION    CL-48565  32.158   2.511  13.017
76240ION    CL-48566  31.475   7.090   1.051
76241ION    CL-48567  23.533   8.148  10.520
76242ION    CL-48568  37.360   5.689  11.855
76243ION    CL-48569   0.069  15.788  10.616
76244ION    CL-48570  19.663  17.036  14.910
76245ION    CL-48571   9.756  37.484   0.996
76246ION    CL-48572  14.393   7.208  14.025
76247ION    CL-48573  37.767   1.241  14.391
76248ION    CL-48574   0.638  28.425   0.241
76249ION    CL-48575  37.436   9.435   1.528
76250ION    CL-48576   9.899   7.835   1.883
76251ION    CL-48577  34.731  41.090  10.430
76252ION    CL-48578  33.006   9.706   3.923
76253ION    CL-48579  24.304  16.594  14.947
76254ION    CL-48580   4.349   2.720  14.324
76255ION    CL-48581  10.820  24.019  14.552
76256ION    CL-48582  11.582   3.615   9.640
76257ION    CL-48583  36.089  40.177   4.935
76258ION    CL-48584  43.703  43.585  11.597
76259ION    CL-48585   7.881  40.571   2.672
76260ION    CL-48586   1.012  38.561  11.310
76261ION    CL-48587   5.504  44.777  13.307
76262ION    CL-48588  17.610  40.354   0.705
76263ION    CL-48589   0.310  23.479   1.924
76264ION    CL-48590  10.724  29.589   4.123
76265ION    CL-48591  23.610  14.346  14.701
76266ION    CL-48592  27.364  23.360   0.390
76267ION    CL-48593   5.877   6.701   4.208
76268ION    CL-48594  43.040  43.656   1.695
76269ION    CL-48595  18.884  16.563   4.928
76270ION    CL-48596  17.684  34.617  12.973
76271ION    CL-48597  13.654  17.819  14.981
76272ION    CL-48598  31.491   0.164  13.000
76273ION    CL-48599  31.864  23.227   2.380
76274ION    CL-48600   2.614  43.644  11.051
76275ION    CL-48601  39.956   7.514   2.521
76276ION    CL-48602  16.605   6.834   2.785
76277ION    CL-48603   2.790  32.405  14.722
76278ION    CL-48604  28.810  30.273   2.691
76279ION    CL-48605  35.166  43.899  12.601
76280ION    CL-48606   9.274  13.490  12.795
76281ION    CL-48607  27.643   6.675  12.058
76282ION    CL-48608  41.943   0.959  13.800
76283ION    CL-48609  19.388  38.819   3.262
76284ION    CL-48610  42.756  19.060  13.351
76285ION    CL-48611  42.817  26.369  11.283
76286ION    CL-48612  24.469   2.801   1.666
76287ION    CL-48613  16.477  25.975   4.916
76288ION    CL-48614  11.699  11.651  12.805
76289ION    CL-48615   0.076  30.940  14.392
76290ION    CL-48616  11.774  43.016   3.298
76291ION    CL-48617  13.089  22.608  10.786
76292ION    CL-48618  13.494   2.016   4.909
76293ION    CL-48619  28.521  33.308   5.086
76294ION    CL-48620  14.828  26.765  12.951
76295ION    CL-48621  34.509  26.804  11.976
76296ION    CL-48622  16.185  42.280  14.812
76297ION    CL-48623  39.388   2.701  10.414
76298ION    CL-48624   0.630   2.209  13.465
76299ION    CL-48625  35.136  27.730   0.855
76300ION    CL-48626  29.593  25.353   0.327
76301ION    CL-48627  27.149  40.480   3.300
76302ION    CL-48628  42.463   4.248  14.972
76303ION    CL-48629  24.641  42.007  11.598
76304ION    CL-48630  20.907  11.231   3.720
76305ION    CL-48631  22.315   4.706  12.100
76306ION    CL-48632  20.154  19.698  11.002
76307ION    CL-48633   4.486  30.364  11.107
76308ION    CL-48634   2.924   5.611  12.795
76309ION    CL-48635  26.090  25.438   1.041
76310ION    CL-48636  17.528   5.305   0.437
76311ION    CL-48637  22.020  18.122   1.756
76312ION    CL-48638  23.750   2.496  14.873
76313ION    CL-48639  44.490  22.665   1.293
76314ION    CL-48640  13.361  34.814  12.503
76315ION    CL-48641   5.000  20.892  14.577
76316ION    CL-48642  18.589  26.188   0.663
76317ION    CL-48643  14.131  37.938  12.404
76318ION    CL-48644  25.866   6.722   3.164
76319ION    CL-48645  31.920  40.912   2.066
76320ION    CL-48646  12.652   7.434   0.518
76321ION    CL-48647  32.145  25.231   5.149
76322ION    CL-48648  11.265  19.597  14.607
76323ION    CL-48649  40.357  19.662   3.136
76324ION    CL-48650  18.803  32.176   3.778
76325ION    CL-48651   5.784  10.124   3.725
76326ION    CL-48652  43.334  15.936   9.701
76327ION    CL-48653   8.426   0.393  13.916
76328ION    CL-48654  29.455   0.335  13.502
76329ION    CL-48655  24.691  43.693   4.254
76330ION    CL-48656   6.684   4.936   4.124
76331ION    CL-48657  41.897  43.219  13.532
76332ION    CL-48658  13.976  33.282   5.510
76333ION    CL-48659   5.336  34.125   1.106
76334ION    CL-48660  43.699  13.628   1.281
76335ION    CL-48661   2.337  44.342  14.345
76336ION    CL-48662  39.846  18.525  11.066
76337ION    CL-48663  24.686  31.164   0.634
76338ION    CL-48664   7.647  35.636   2.325
76339ION    CL-48665  14.384  21.128  13.454
76340ION    CL-48666  42.317  35.515   1.470
76341ION    CL-48667   7.354   2.267   0.276
76342ION    CL-48668   3.737  17.618  11.480
76343ION    CL-48669   0.280  21.185   3.216
76344ION    CL-48670   7.746  14.922  11.229
76345ION    CL-48671  21.396  40.621   2.164
76346ION    CL-48672   0.890  27.710   0.764
76347ION    CL-48673  13.861  13.929   2.583
76348ION    CL-48674   5.537  22.312   3.850
76349ION    CL-48675  19.442  13.899   1.553
76350ION    CL-48676  31.731  36.620  14.109
76351ION    CL-48677   0.701  16.295  13.483
76352ION    CL-48678   6.397  18.769  11.436
76353ION    CL-48679   9.597  44.799   4.641
76354ION    CL-48680  27.103   6.723   0.416
76355ION    CL-48681   4.857  42.553   0.510
76356ION    CL-48682  28.786  20.048   0.247
76357ION    CL-48683  29.188  26.889  11.017
76358ION    CL-48684   7.575  13.777   4.069
76359ION    CL-48685  41.472  26.841   0.951
76360ION    CL-48686   1.752  41.893  10.910
76361ION    CL-48687  40.360  14.952   2.259
76362ION    CL-48688  42.812  34.848  14.808
76363ION    CL-48689  11.771  24.367  13.606
76364ION    CL-48690   7.633  21.196   4.638
76365ION    CL-48691  25.497  22.267   2.843
76366ION    CL-48692   7.353  11.699   4.871
76367ION    CL-48693  17.624  33.848  13.609
76368ION    CL-48694   8.623  14.282  12.903
76369ION    CL-48695  24.155   1.412  13.508
76370ION    CL-48696  36.628   1.232   3.296
76371ION    CL-48697   5.248  21.363   3.643
76372ION    CL-48698   2.043  43.008  11.292
76373ION    CL-48699   4.642  43.875   0.226
76374ION    CL-48700  29.001  20.978  14.949
76375ION    CL-48701  40.281  33.270  14.418
76376ION    CL-48702   8.043  29.292   3.018
76377ION    CL-48703  10.295   7.614   0.719
76378ION    CL-48704  15.683   5.646   0.378
76379ION    CL-48705  39.366  21.038  14.385
76380ION    CL-48706  23.443  26.989   2.841
76381ION    CL-48707  28.534  16.396  12.425
76382ION    CL-48708  17.632  25.810  10.403
76383ION    CL-48709  38.996  35.841   5.210
76384ION    CL-48710  30.046  21.559  14.853
76385ION    CL-48711  39.564  32.414   4.054
76386ION    CL-48712  12.227  28.151  13.877
  45.00000  45.00000  15.00000
